/*--------------------------------*- C++ -*----------------------------------*\
  =========                 |
  \\      /  F ield         | OpenFOAM: The Open Source CFD Toolbox
   \\    /   O peration     | Website:  https://openfoam.org
    \\  /    A nd           | Version:  7
     \\/     M anipulation  |
\*---------------------------------------------------------------------------*/
FoamFile
{
    version     2.0;
    format      ascii;
    class       volVectorField;
    location    "0.0025";
    object      momentum;
}
// * * * * * * * * * * * * * * * * * * * * * * * * * * * * * * * * * * * * * //

dimensions      [1 -2 -1 0 0 0 0];

internalField   nonuniform List<vector> 
250
(
(0.000770277 -4.864e-05 1.08275e-05)
(0.000779992 -5.94275e-05 -7.25297e-06)
(0.000751542 2.82845e-05 1.87474e-05)
(0.000845933 -4.58767e-05 -1.68832e-05)
(0.000846102 -3.38268e-05 -4.99064e-06)
(0.000783863 5.04622e-05 -0.000100884)
(0.000706281 -2.19284e-05 -2.78389e-05)
(0.000739222 3.70125e-05 -8.08196e-06)
(0.000862132 7.46542e-05 2.63625e-05)
(0.000719657 -5.38071e-05 -1.23189e-05)
(0.000791025 2.58099e-06 -1.49848e-05)
(0.000777392 -1.00319e-05 -4.45481e-06)
(0.000891729 1.75537e-05 3.4304e-05)
(0.000907246 -1.42275e-05 5.57332e-05)
(0.000784679 -8.28891e-05 -3.70422e-07)
(0.000741148 2.73443e-05 6.05708e-05)
(0.000723723 -4.28453e-05 -7.8756e-05)
(0.000863446 6.10523e-05 1.03892e-05)
(0.000785488 2.86823e-06 3.88189e-05)
(0.000797033 -1.1426e-05 -2.96466e-05)
(0.000809933 -6.21099e-05 -5.63838e-05)
(0.000871023 -4.30039e-05 1.02284e-05)
(0.000778583 -1.13304e-05 3.20592e-05)
(0.000827092 8.29205e-05 8.67433e-06)
(0.000795927 -7.42403e-07 -8.86663e-05)
(0.000796987 -4.87389e-06 -1.62179e-05)
(0.00085224 -4.10897e-05 -7.90097e-05)
(0.00082667 -2.44794e-05 -4.27015e-05)
(0.000772268 1.30753e-05 9.3101e-05)
(0.000852219 4.16229e-05 2.38889e-05)
(0.00075465 -2.20385e-05 1.20574e-05)
(0.000834123 1.06867e-05 -4.69154e-05)
(0.000772962 2.57821e-05 -4.96751e-05)
(0.000798271 3.95556e-05 -1.14516e-05)
(0.00083773 5.41654e-07 -9.29543e-06)
(0.000851457 7.48749e-06 -4.61741e-05)
(0.000816241 -6.99447e-06 -9.27524e-05)
(0.000891875 2.57066e-05 3.09074e-05)
(0.000814701 2.28127e-05 3.869e-05)
(0.000694919 2.2707e-05 1.2527e-05)
(0.000862936 -4.31646e-05 -2.9894e-05)
(0.000864999 4.7363e-05 2.49869e-05)
(0.000873087 1.52349e-05 -2.07552e-05)
(0.000809131 -3.99098e-05 -6.77371e-05)
(0.000889963 3.56494e-05 -7.86476e-06)
(0.000796872 1.4598e-05 -2.08824e-05)
(0.000806474 -3.25965e-05 3.46652e-05)
(0.000874214 -3.19754e-05 -2.21133e-05)
(0.000900116 1.39829e-07 -4.00309e-06)
(0.000780022 -5.50948e-05 -1.85461e-05)
(0.00085587 -5.27807e-06 -1.24214e-05)
(0.000784262 -4.36258e-05 -2.46386e-05)
(0.000827167 4.31121e-05 2.95961e-05)
(0.000813761 -7.2547e-05 2.04563e-06)
(0.000883739 4.51682e-05 5.16994e-05)
(0.000844212 -2.82356e-05 0.000102626)
(0.000811445 -5.54232e-05 1.62477e-06)
(0.00095598 -2.84716e-05 3.02923e-05)
(0.000850428 3.86107e-05 1.99536e-05)
(0.000857924 3.00275e-06 -2.05261e-05)
(0.000899362 -1.53376e-05 -2.86143e-05)
(0.000850089 -1.03365e-05 1.42329e-05)
(0.000782962 -1.11653e-05 -8.83973e-07)
(0.000867816 -3.0814e-06 3.36107e-05)
(0.000856587 -7.14924e-06 1.86537e-05)
(0.000881738 7.07928e-06 -3.87414e-05)
(0.00083599 3.24728e-07 5.95007e-05)
(0.000754388 4.4978e-05 -3.88959e-05)
(0.00074438 -2.20462e-05 -3.817e-05)
(0.000872869 4.83859e-06 2.10962e-05)
(0.000837066 -6.71128e-05 -8.96797e-07)
(0.000901151 -1.85796e-05 -3.06943e-05)
(0.000867159 5.38499e-05 2.71045e-06)
(0.000906351 -3.29664e-05 2.19497e-05)
(0.000843098 -3.2555e-05 -1.38313e-05)
(0.000855419 -5.72959e-05 -5.17013e-05)
(0.000840419 6.32221e-05 -2.11398e-05)
(0.000809522 -9.37406e-06 8.87692e-06)
(0.000807341 1.1967e-05 -2.94087e-05)
(0.000846422 3.94706e-05 -7.33394e-05)
(0.000911497 -5.37243e-05 -4.71085e-06)
(0.000848048 -4.62843e-05 -2.16371e-05)
(0.000858224 2.02585e-05 3.9801e-05)
(0.00088204 3.61013e-05 4.26902e-05)
(0.000873864 2.83325e-05 -1.30681e-05)
(0.000880166 3.36353e-06 6.75474e-05)
(0.000855204 6.87565e-06 -2.14279e-05)
(0.000898054 4.12874e-05 7.79579e-05)
(0.000892667 1.3524e-05 -3.21368e-05)
(0.000872954 7.8788e-05 4.77887e-05)
(0.000876136 3.65969e-05 -1.99807e-05)
(0.000864981 2.16567e-05 -7.34243e-06)
(0.000977029 9.52423e-05 -1.38477e-06)
(0.000922583 -1.47443e-05 1.00165e-05)
(0.000869365 -2.049e-05 2.75509e-05)
(0.000932301 6.66593e-06 -3.70051e-05)
(0.000865188 1.78582e-05 -5.35119e-05)
(0.00087289 2.5571e-05 1.10064e-05)
(0.000855344 8.4175e-06 9.67314e-05)
(0.000896634 -7.30339e-06 -5.56893e-05)
(0.00091526 2.1632e-06 9.1443e-06)
(0.00081287 -2.67347e-05 -1.58457e-05)
(0.000857892 6.66093e-05 9.45423e-07)
(0.000919831 6.71267e-06 2.00239e-05)
(0.000961044 9.91628e-06 3.45407e-05)
(0.000951037 -4.49407e-05 5.73297e-05)
(0.000910827 1.1352e-05 -3.87933e-05)
(0.000820736 7.76264e-05 -9.51815e-06)
(0.000913015 2.89322e-05 -3.84358e-05)
(0.000916356 -1.12973e-05 -1.56655e-05)
(0.000897497 4.18269e-05 -3.79675e-05)
(0.000886776 -3.4492e-05 5.5078e-05)
(0.000885558 3.21193e-05 -3.91208e-05)
(0.000949778 -8.35532e-05 -4.09317e-05)
(0.000881154 -3.11356e-05 1.09281e-05)
(0.000858696 6.66682e-06 6.44544e-05)
(0.000943229 1.16304e-05 9.27822e-06)
(0.000964797 -2.25488e-05 -5.48636e-05)
(0.0007931 3.23306e-06 2.45432e-05)
(0.000816305 -1.37728e-05 2.05375e-05)
(0.000925497 2.61991e-05 -2.43947e-05)
(0.000921881 5.00116e-05 -5.20436e-05)
(0.000852329 1.27985e-05 7.20841e-05)
(0.000809348 -3.8438e-06 -3.9335e-05)
(0.000886143 -2.67131e-05 6.11607e-08)
(0.000921142 -3.42023e-05 2.07336e-05)
(0.000825596 1.55051e-05 1.71845e-05)
(0.000791393 2.16819e-05 4.75397e-05)
(0.000940824 1.58096e-05 4.9402e-05)
(0.000928521 -5.08707e-05 -7.40499e-05)
(0.000919764 2.46368e-05 -3.86439e-05)
(0.00089302 1.97148e-05 2.42451e-05)
(0.00086458 2.27115e-05 6.53875e-06)
(0.000849434 3.0704e-05 6.21232e-05)
(0.00089972 1.99991e-05 2.16184e-05)
(0.000922817 -3.28777e-05 -1.17709e-05)
(0.000905869 3.07301e-05 1.52852e-05)
(0.000955226 5.34063e-05 3.59535e-05)
(0.000843408 -5.02702e-05 1.99592e-05)
(0.00091312 -2.58169e-05 5.42735e-06)
(0.000863651 -3.89221e-05 -1.38699e-05)
(0.000898241 -5.6416e-06 -2.06821e-05)
(0.000956749 8.23884e-06 6.47491e-05)
(0.000878509 -3.58385e-05 -3.82323e-05)
(0.000944226 -1.87424e-06 -4.42429e-05)
(0.000964007 -4.36169e-05 6.2227e-05)
(0.000973036 1.4736e-05 3.95671e-05)
(0.000838285 -1.7996e-05 6.02891e-06)
(0.000936984 3.52735e-05 -2.81848e-05)
(0.000924565 1.82037e-05 -2.35252e-06)
(0.00089101 -2.61578e-05 1.00735e-05)
(0.000844476 -3.74736e-05 3.39061e-05)
(0.000913988 4.21447e-05 7.54785e-05)
(0.00089188 5.53284e-05 -4.90265e-06)
(0.000872756 3.48899e-05 -2.3002e-05)
(0.000867579 -1.63145e-05 -2.91535e-06)
(0.000922394 4.41728e-05 -6.33768e-05)
(0.000848409 -2.67017e-05 -1.01712e-05)
(0.000880514 1.57374e-05 4.85368e-05)
(0.00088554 -3.55916e-05 -3.91301e-05)
(0.000978349 3.35778e-05 1.221e-05)
(0.000942067 -5.60017e-05 2.96362e-05)
(0.000937836 7.99467e-05 -6.45643e-05)
(0.000917992 3.36453e-05 -3.15242e-05)
(0.000880374 -4.18999e-05 -9.00496e-05)
(0.000867475 1.40849e-05 1.53054e-05)
(0.000884023 -1.64735e-05 -1.75013e-05)
(0.000956804 6.44256e-05 5.90429e-05)
(0.00091749 8.91426e-06 1.77694e-06)
(0.00098483 1.62558e-05 2.16942e-07)
(0.000908822 -1.09762e-05 -6.49092e-06)
(0.000958835 -5.62533e-05 2.21061e-05)
(0.000940027 -4.37528e-05 -1.05238e-06)
(0.000942636 3.92562e-06 5.06896e-05)
(0.000847345 -1.61141e-05 -1.79944e-05)
(0.000830986 -9.16633e-06 4.23368e-06)
(0.000927239 -7.13409e-06 2.42854e-05)
(0.000961301 -5.35856e-05 -1.46016e-05)
(0.000967487 5.77224e-06 -2.38871e-06)
(0.000866298 2.05711e-05 -1.21853e-05)
(0.000949839 4.23656e-05 2.10209e-05)
(0.00091512 4.44446e-05 -2.07994e-05)
(0.000919543 5.19278e-06 -9.63247e-06)
(0.000884869 -1.94156e-05 -4.33013e-05)
(0.000918023 5.17936e-05 -2.93691e-05)
(0.000909881 -1.36787e-05 2.06483e-06)
(0.00100031 1.62932e-05 -1.10134e-05)
(0.000922445 -1.26881e-05 2.24381e-05)
(0.000880756 -7.29871e-05 8.1519e-06)
(0.000913607 4.5296e-05 5.28346e-07)
(0.000862296 3.52366e-05 2.80647e-05)
(0.000977458 -3.46582e-05 7.76346e-05)
(0.000964541 -5.82235e-05 3.09319e-05)
(0.00095122 -5.51489e-05 -5.66936e-06)
(0.000857261 1.9082e-05 -8.23669e-06)
(0.000889617 -2.17898e-05 -4.32143e-05)
(0.000882973 8.97956e-05 -2.37488e-05)
(0.000954517 -2.49084e-05 4.01546e-06)
(0.000830992 -2.99006e-05 -2.11264e-05)
(0.000921114 -4.97637e-05 -4.10501e-05)
(0.000941943 1.43533e-05 1.60434e-05)
(0.000911395 7.75096e-06 -5.34843e-06)
(0.000907945 -1.68902e-05 -7.99734e-06)
(0.000915301 1.39456e-05 -5.94258e-05)
(0.000882381 1.17026e-05 1.92534e-05)
(0.000996494 1.58096e-05 -2.20613e-05)
(0.000933207 -4.11813e-05 5.75075e-06)
(0.000950284 -3.28351e-05 -1.08828e-05)
(0.000838565 1.95053e-05 -3.90772e-05)
(0.000857106 -9.57955e-06 -4.4299e-06)
(0.000984751 -3.38712e-06 1.29664e-05)
(0.000917737 2.75514e-05 0.000102159)
(0.000981076 4.17113e-05 -1.29971e-05)
(0.000965415 -5.49283e-05 -9.31078e-05)
(0.000987998 2.94593e-05 -1.89522e-05)
(0.000831469 2.65279e-05 -4.71279e-06)
(0.000964029 3.49933e-05 1.61785e-05)
(0.000923705 -1.26626e-05 -2.99835e-05)
(0.000969122 -6.16009e-05 2.7901e-06)
(0.0009465 -1.97125e-05 2.73873e-05)
(0.000929906 -6.6579e-05 -1.70236e-05)
(0.000940115 1.9566e-05 -1.85864e-05)
(0.000932542 1.17456e-05 -1.7722e-05)
(0.000936878 -2.60028e-06 2.74337e-05)
(0.000895879 -9.65561e-05 6.39395e-05)
(0.000989206 -2.49945e-05 -3.75111e-05)
(0.000908545 -6.03653e-05 1.57984e-06)
(0.000939604 7.63093e-06 5.17901e-06)
(0.000928202 4.01902e-05 5.8308e-07)
(0.000856097 1.25064e-05 1.32506e-05)
(0.000975841 -4.17271e-05 4.84624e-05)
(0.000948416 -1.54566e-05 -4.8157e-06)
(0.000892595 5.41434e-06 3.18248e-05)
(0.000991096 -6.39248e-05 -3.78074e-05)
(0.000914636 -1.54827e-05 4.20653e-05)
(0.000950643 -7.14106e-06 -1.77973e-05)
(0.00082517 -1.71702e-05 1.24732e-05)
(0.000959969 9.08442e-06 -4.27682e-07)
(0.000940196 -0.000106009 -6.71307e-05)
(0.000956491 1.15855e-05 -3.01128e-05)
(0.000928357 1.10466e-05 -2.49137e-05)
(0.000946236 -5.39128e-05 -1.36764e-05)
(0.00098984 3.95919e-05 4.54279e-05)
(0.00100313 -5.57424e-05 -2.35613e-06)
(0.000905592 -1.75788e-05 -5.17706e-06)
(0.000941695 1.54394e-05 2.99768e-05)
(0.00100809 3.23429e-05 -4.815e-05)
(0.00102738 -1.71867e-05 2.92824e-05)
(0.000900559 -1.9959e-05 2.15644e-05)
(0.000940234 2.02689e-05 -2.49216e-05)
)
;

boundaryField
{
    sides
    {
        type            symmetry;
    }
    empty
    {
        type            empty;
    }
    procBoundary1to0
    {
        type            processor;
        value           uniform (0.000779735 2.97804e-05 -1.15479e-05);
    }
    procBoundary1to2
    {
        type            processor;
        value           uniform (0.000906505 1.98356e-05 5.23572e-05);
    }
}


// ************************************************************************* //
