/*--------------------------------*- C++ -*----------------------------------*\
  =========                 |
  \\      /  F ield         | OpenFOAM: The Open Source CFD Toolbox
   \\    /   O peration     | Website:  https://openfoam.org
    \\  /    A nd           | Version:  7
     \\/     M anipulation  |
\*---------------------------------------------------------------------------*/
FoamFile
{
    version     2.0;
    format      ascii;
    class       Cloud<dsmcParcel>;
    location    "0.007/lagrangian/dsmc";
    object      positions;
}
// * * * * * * * * * * * * * * * * * * * * * * * * * * * * * * * * * * * * * //

92197
(
(0.163135 0.418432 0 0.418432) 12 11 2
(0.0751313 0.462434 0 0.462434) 21 20 2
(0.308867 0.345567 0.345567 0) 3 2 1
(0.63919 0.180405 0 0.180405) 50 49 2
(0.0150197 0.49249 0.49249 0) 16 16 2
(0.165756 0.417122 0.417122 0) 29 28 1
(0.191191 0.404405 0.404405 0) 25 24 1
(0.608215 0.195893 0 0.195893) 3 3 1
(0.0934434 0.453278 0.453278 0) 5 5 2
(0.568818 0.215591 0.215591 0) 0 0 2
(0.654798 0.172601 0 0.172601) 5 4 2
(0.90773 0.0461348 0.0461348 0) 2 1 1
(0.168144 0.415928 0.415928 0) 24 23 1
(0.445753 0.277123 0 0.277123) 2 2 1
(0.764701 0.11765 0.11765 0) 3 2 1
(0.265998 0.367001 0.367001 0) 2 2 2
(0.446734 0.276633 0.276633 0) 21 20 1
(0.452795 0.273603 0 0.273603) 13 13 1
(0.820338 0.089831 0.089831 0) 23 22 1
(0.543786 0.228107 0 0.228107) 7 7 1
(0.433892 0.283054 0 0.283054) 24 23 2
(0.24408 0.37796 0 0.37796) 13 12 2
(0.168339 0.41583 0.41583 0) 4 4 2
(0.125457 0.437272 0.437272 0) 15 14 1
(0.616727 0.191637 0 0.191637) 5 5 1
(0.22474 0.38763 0.38763 0) 20 19 1
(0.945837 0.0270813 0 0.0270813) 3 2 2
(0.380813 0.309593 0.309593 0) 26 26 2
(0.378281 0.31086 0.31086 0) 4 3 1
(0.837624 0.0811879 0.0811879 0) 18 18 2
(0.201077 0.399461 0 0.399461) 19 18 2
(0.540448 0.229776 0.229776 0) 33 33 2
(0.136868 0.431566 0.431566 0) 8 7 1
(0.480728 0.259636 0.259636 0) 2 1 1
(0.78528 0.10736 0.10736 0) 10 9 1
(0.0761092 0.461945 0 0.461945) 22 21 2
(0.686432 0.156784 0 0.156784) 10 10 1
(0.170001 0.415 0 0.415) 3 2 2
(0.908482 0.0457592 0 0.0457592) 0 1000 1
(0.759828 0.120086 0.120086 0) 4 3 1
(0.535202 0.232399 0 0.232399) 0 0 1
(0.126123 0.436938 0 0.436938) 16 15 2
(0.629183 0.185409 0.185409 0) 2 2 2
(0.320468 0.339766 0 0.339766) 11 10 2
(0.0475758 0.476212 0 0.476212) 14 14 1
(0.930331 0.0348344 0.0348344 0) 25 24 1
(0.44549 0.277255 0.277255 0) 8 8 2
(0.0840439 0.457978 0 0.457978) 3 3 1
(0.900465 0.0497677 0.0497677 0) 5 4 1
(0.366939 0.316531 0 0.316531) 3 3 1
(0.832726 0.0836368 0.0836368 0) 11 10 1
(0.209773 0.395113 0.395113 0) 7 6 1
(0.688936 0.155532 0 0.155532) 2 2 1
(0.803783 0.0981086 0.0981086 0) 24 24 2
(0.599166 0.200417 0 0.200417) 19 18 2
(0.329625 0.335187 0 0.335187) 1 0 2
(0.883006 0.0584972 0 0.0584972) 58 58 1
(0.16927 0.415365 0 0.415365) 7 7 1
(0.856558 0.071721 0 0.071721) 1 0 2
(0.328673 0.335664 0 0.335664) 2 1 2
(0.473967 0.263016 0.263016 0) 12 12 2
(0.464015 0.267992 0 0.267992) 26 26 1
(0.623986 0.188007 0.188007 0) 1 0 1
(0.267875 0.366063 0.366063 0) 10 9 1
(0.728603 0.135698 0 0.135698) 9 8 2
(0.565594 0.217203 0.217203 0) 5 4 1
(0.807253 0.0963734 0.0963734 0) 1 0 1
(0.841151 0.0794246 0.0794246 0) 12 12 2
(0.194454 0.402773 0.402773 0) 18 18 2
(0.97945 0.0102751 0 0.0102751) 14 14 1
(0.155848 0.422076 0 0.422076) 1 1 1
(0.47019 0.264905 0.264905 0) 27 26 1
(0.172034 0.413983 0.413983 0) 40 40 2
(0.360411 0.319794 0.319794 0) 28 27 1
(0.916656 0.041672 0.041672 0) 9 8 1
(0.620106 0.189947 0.189947 0) 18 17 1
(0.579232 0.210384 0.210384 0) 11 10 1
(0.669595 0.165203 0 0.165203) 9 9 1
(0.60109 0.199455 0.199455 0) 12 11 1
(0.54565 0.227175 0 0.227175) 7 6 2
(0.354378 0.322811 0.322811 0) 6 6 2
(0.401268 0.299366 0.299366 0) 10 10 2
(0.0856458 0.457177 0.457177 0) 12 11 1
(0.175721 0.41214 0 0.41214) 32 31 2
(0.103182 0.448409 0.448409 0) 8 7 1
(0.627704 0.186148 0.186148 0) 9 9 2
(0.714396 0.142802 0.142802 0) 18 18 2
(0.738961 0.13052 0.13052 0) 10 9 1
(0.449098 0.275451 0.275451 0) 54 53 1
(0.376586 0.311707 0.311707 0) 19 18 1
(0.00670497 0.496648 0 0.496648) 4 3 2
(0.928783 0.0356084 0 0.0356084) 20 19 2
(0.237444 0.381278 0 0.381278) 16 15 2
(0.408315 0.295842 0 0.295842) 1 1 1
(0.0952201 0.45239 0.45239 0) 39 39 2
(0.538607 0.230697 0.230697 0) 15 14 1
(0.933281 0.0333596 0 0.0333596) 15 14 2
(0.565285 0.217357 0.217357 0) 3 3 2
(0.63529 0.182355 0 0.182355) 23 22 2
(0.605481 0.197259 0 0.197259) 24 24 1
(0.594946 0.202527 0 0.202527) 11 10 2
(0.180401 0.409799 0.409799 0) 0 0 2
(0.333514 0.333243 0.333243 0) 8 8 2
(0.675861 0.16207 0 0.16207) 50 50 1
(0.344316 0.327842 0.327842 0) 3 2 1
(0.3048 0.3476 0 0.3476) 30 29 2
(0.0105505 0.494725 0.494725 0) 11 10 1
(0.901211 0.0493943 0.0493943 0) 22 21 1
(0.677056 0.161472 0 0.161472) 13 12 2
(0.554535 0.222733 0.222733 0) 4 4 2
(0.544839 0.22758 0 0.22758) 8 8 1
(0.499387 0.250306 0.250306 0) 31 30 1
(0.0920611 0.453969 0.453969 0) 16 16 2
(0.944715 0.0276424 0 0.0276424) 41 41 1
(0.165535 0.417232 0.417232 0) 10 10 2
(0.635162 0.182419 0 0.182419) 45 44 2
(0.0208779 0.489561 0 0.489561) 17 17 1
(0.764282 0.117859 0.117859 0) 8 7 1
(0.399172 0.300414 0 0.300414) 6 5 2
(0.653338 0.173331 0 0.173331) 11 10 2
(0.734203 0.132899 0 0.132899) 4 4 1
(0.503424 0.248288 0.248288 0) 11 10 1
(0.63009 0.184955 0.184955 0) 32 31 1
(0.0146159 0.492692 0 0.492692) 6 6 1
(0.755427 0.122287 0.122287 0) 5 4 1
(0.0902974 0.454851 0.454851 0) 11 10 1
(0.386356 0.306822 0.306822 0) 10 9 1
(0.158928 0.420536 0.420536 0) 6 5 1
(0.839425 0.0802874 0.0802874 0) 10 10 2
(0.740535 0.129732 0 0.129732) 25 24 2
(0.098054 0.450973 0 0.450973) 3 2 2
(0.724265 0.137867 0 0.137867) 19 18 2
(0.963001 0.0184994 0.0184994 0) 19 19 2
(0.588336 0.205832 0 0.205832) 26 25 2
(0.0215516 0.489224 0 0.489224) 12 11 2
(0.98839 0.00580489 0 0.00580489) 20 19 2
(0.49281 0.253595 0.253595 0) 10 10 2
(0.925184 0.037408 0 0.037408) 0 1000 1
(0.212458 0.393771 0.393771 0) 12 12 2
(0.88517 0.0574151 0.0574151 0) 41 41 2
(0.456424 0.271788 0.271788 0) 64 63 1
(0.855548 0.0722258 0 0.0722258) 34 33 2
(0.341687 0.329157 0.329157 0) 28 27 1
(0.758278 0.120861 0 0.120861) 41 41 1
(0.730665 0.134668 0.134668 0) 25 24 1
(0.367723 0.316138 0 0.316138) 31 31 1
(0.022856 0.488572 0.488572 0) 17 17 2
(0.69801 0.150995 0 0.150995) 4 3 2
(0.314795 0.342603 0 0.342603) 3 3 1
(0.210236 0.394882 0.394882 0) 28 27 1
(0.0889884 0.455506 0 0.455506) 18 17 2
(0.461183 0.269408 0 0.269408) 9 9 1
(0.96483 0.0175849 0.0175849 0) 10 10 2
(0.0697831 0.465108 0 0.465108) 11 10 2
(0.0627125 0.468644 0 0.468644) 20 19 2
(0.179345 0.410327 0 0.410327) 20 19 2
(0.201025 0.399487 0.399487 0) 52 52 2
(0.96277 0.0186152 0.0186152 0) 33 33 2
(0.388835 0.305582 0.305582 0) 3 2 1
(0.330124 0.334938 0 0.334938) 33 33 1
(0.268755 0.365623 0 0.365623) 17 17 1
(0.283063 0.358468 0.358468 0) 18 17 1
(0.236273 0.381864 0.381864 0) 3 2 1
(0.704401 0.1478 0 0.1478) 22 22 1
(0.887696 0.0561518 0 0.0561518) 23 23 1
(0.886425 0.0567877 0 0.0567877) 16 15 2
(0.0383583 0.480821 0.480821 0) 34 33 1
(0.34808 0.32596 0.32596 0) 1 1 2
(0.0139402 0.49303 0.49303 0) 7 6 1
(0.913988 0.0430058 0.0430058 0) 8 7 1
(0.621537 0.189231 0 0.189231) 22 22 1
(0.906543 0.0467284 0 0.0467284) 2 1 2
(0.727394 0.136303 0.136303 0) 21 21 2
(0.204143 0.397928 0.397928 0) 19 19 2
(0.413555 0.293223 0 0.293223) 5 4 2
(0.181425 0.409287 0 0.409287) 8 7 2
(0.674631 0.162685 0 0.162685) 28 28 1
(0.0304075 0.484796 0 0.484796) 20 20 1
(0.226114 0.386943 0 0.386943) 10 10 1
(0.0739034 0.463048 0 0.463048) 3 3 1
(0.204248 0.397876 0 0.397876) 5 4 2
(0.992738 0.00363098 0.00363098 0) 3 2 1
(0.421712 0.289144 0.289144 0) 41 40 1
(0.362177 0.318911 0 0.318911) 17 17 1
(0.36773 0.316135 0.316135 0) 20 19 1
(0.599524 0.200238 0 0.200238) 4 4 1
(0.553759 0.223121 0 0.223121) 0 1000 1
(0.788308 0.105846 0.105846 0) 10 9 1
(0.689613 0.155194 0.155194 0) 28 27 1
(0.0720747 0.463963 0.463963 0) 20 19 1
(0.865595 0.0672025 0.0672025 0) 17 17 2
(0.638053 0.180974 0.180974 0) 36 35 1
(0.768451 0.115774 0 0.115774) 8 8 1
(0.99623 0.00188476 0.00188476 0) 30 30 2
(0.0949861 0.452507 0.452507 0) 41 40 1
(0.575284 0.212358 0 0.212358) 1 0 2
(0.938268 0.030866 0 0.030866) 24 23 2
(0.88218 0.05891 0 0.05891) 9 8 2
(0.192368 0.403816 0 0.403816) 18 18 1
(0.407601 0.2962 0 0.2962) 10 9 2
(0.677167 0.161417 0.161417 0) 12 11 1
(0.735003 0.132499 0 0.132499) 58 58 1
(0.030648 0.484676 0 0.484676) 42 41 2
(0.533374 0.233313 0 0.233313) 11 11 1
(0.874953 0.0625234 0 0.0625234) 37 37 1
(0.779507 0.110247 0 0.110247) 63 63 1
(0.514517 0.242742 0.242742 0) 12 11 1
(0.854553 0.0727235 0.0727235 0) 34 34 2
(0.171304 0.414348 0 0.414348) 24 24 1
(0.579209 0.210396 0 0.210396) 6 6 1
(0.828871 0.0855646 0.0855646 0) 40 39 1
(0.66102 0.16949 0 0.16949) 1 1 1
(0.181218 0.409391 0 0.409391) 37 37 1
(0.513835 0.243082 0.243082 0) 24 24 2
(0.10087 0.449565 0 0.449565) 18 17 2
(0.53775 0.231125 0 0.231125) 15 14 2
(0.224766 0.387617 0 0.387617) 1 0 2
(0.493623 0.253188 0 0.253188) 21 20 2
(0.0266029 0.486699 0 0.486699) 3 2 2
(0.600114 0.199943 0.199943 0) 1 0 1
(0.111879 0.444061 0.444061 0) 6 6 2
(0.826486 0.086757 0 0.086757) 23 22 2
(0.83251 0.0837448 0 0.0837448) 6 6 1
(0.645839 0.17708 0.17708 0) 12 11 1
(0.861386 0.0693071 0.0693071 0) 6 5 1
(0.642768 0.178616 0.178616 0) 50 49 1
(0.223826 0.388087 0.388087 0) 6 6 2
(0.0265804 0.48671 0 0.48671) 6 5 2
(0.00856409 0.495718 0 0.495718) 44 43 2
(0.508893 0.245553 0.245553 0) 33 33 2
(0.113109 0.443445 0 0.443445) 15 14 2
(0.826143 0.0869283 0.0869283 0) 21 20 1
(0.0127754 0.493612 0.493612 0) 6 5 1
(0.380002 0.309999 0 0.309999) 52 51 2
(0.907538 0.0462311 0 0.0462311) 3 2 2
(0.654816 0.172592 0.172592 0) 45 45 2
(0.698906 0.150547 0 0.150547) 17 17 1
(0.706455 0.146773 0 0.146773) 5 5 1
(0.549547 0.225227 0 0.225227) 36 36 1
(0.953773 0.0231134 0 0.0231134) 7 6 2
(0.122779 0.438611 0.438611 0) 27 27 2
(0.596704 0.201648 0.201648 0) 17 17 2
(0.10785 0.446075 0 0.446075) 16 15 2
(0.310795 0.344603 0 0.344603) 43 42 2
(0.541978 0.229011 0.229011 0) 23 23 2
(0.640133 0.179934 0.179934 0) 14 13 1
(0.566961 0.216519 0 0.216519) 30 29 2
(0.360571 0.319714 0.319714 0) 0 0 2
(0.440844 0.279578 0 0.279578) 26 26 1
(0.0391024 0.480449 0.480449 0) 23 23 2
(0.0209422 0.489529 0.489529 0) 26 25 1
(0.15373 0.423135 0.423135 0) 28 28 2
(0.802677 0.0986617 0 0.0986617) 4 4 1
(0.122762 0.438619 0 0.438619) 14 14 1
(0.170728 0.414636 0 0.414636) 15 14 2
(0.112444 0.443778 0 0.443778) 4 3 2
(0.942496 0.028752 0 0.028752) 17 17 1
(0.256548 0.371726 0 0.371726) 0 0 1
(0.276522 0.361739 0 0.361739) 23 23 1
(0.706658 0.146671 0 0.146671) 23 23 1
(0.318568 0.340716 0 0.340716) 43 43 1
(0.9205 0.03975 0 0.03975) 20 19 2
(0.987112 0.0064439 0.0064439 0) 2 2 2
(0.607206 0.196397 0 0.196397) 11 11 1
(0.545254 0.227373 0 0.227373) 13 12 2
(0.323941 0.338029 0.338029 0) 18 18 2
(0.504315 0.247843 0.247843 0) 4 3 1
(0.31306 0.34347 0 0.34347) 6 6 1
(0.577175 0.211412 0.211412 0) 14 13 1
(0.833437 0.0832816 0.0832816 0) 50 49 1
(0.166529 0.416736 0.416736 0) 15 15 2
(0.968942 0.015529 0 0.015529) 20 20 1
(0.238105 0.380947 0.380947 0) 19 18 1
(0.672218 0.163891 0 0.163891) 25 25 1
(0.416277 0.291862 0 0.291862) 15 15 1
(0.188691 0.405655 0.405655 0) 22 21 1
(0.170764 0.414618 0.414618 0) 26 25 1
(0.844098 0.0779512 0.0779512 0) 28 28 2
(0.261699 0.369151 0.369151 0) 12 12 2
(0.656583 0.171708 0.171708 0) 2 1 1
(0.288377 0.355811 0.355811 0) 3 2 1
(0.364952 0.317524 0.317524 0) 23 23 2
(0.848037 0.0759813 0.0759813 0) 13 12 1
(0.344745 0.327627 0.327627 0) 17 17 2
(0.692334 0.153833 0 0.153833) 27 27 1
(0.945446 0.0272769 0 0.0272769) 14 13 2
(0.634988 0.182506 0 0.182506) 1 1 1
(0.77206 0.11397 0.11397 0) 6 5 1
(0.694917 0.152541 0.152541 0) 13 12 1
(0.544233 0.227884 0 0.227884) 40 39 2
(0.62109 0.189455 0 0.189455) 76 76 1
(0.146969 0.426516 0.426516 0) 42 41 1
(0.202725 0.398637 0 0.398637) 17 16 2
(0.484608 0.257696 0.257696 0) 8 8 2
(0.967868 0.0160658 0.0160658 0) 10 9 1
(0.0819757 0.459012 0 0.459012) 29 29 1
(0.25858 0.37071 0 0.37071) 51 51 1
(0.50558 0.24721 0.24721 0) 23 22 1
(0.332084 0.333958 0 0.333958) 20 20 1
(0.532825 0.233587 0.233587 0) 21 20 1
(0.898336 0.050832 0.050832 0) 4 4 2
(0.486255 0.256873 0 0.256873) 15 14 2
(0.129138 0.435431 0 0.435431) 30 30 1
(0.700639 0.14968 0.14968 0) 46 46 2
(0.296808 0.351596 0.351596 0) 42 42 2
(0.279925 0.360037 0 0.360037) 46 45 2
(0.500361 0.249819 0 0.249819) 24 23 2
(0.135092 0.432454 0 0.432454) 38 38 1
(0.483018 0.258491 0.258491 0) 17 17 2
(0.486904 0.256548 0 0.256548) 13 13 1
(0.680161 0.15992 0 0.15992) 57 57 1
(0.270166 0.364917 0.364917 0) 27 26 1
(0.0875242 0.456238 0 0.456238) 11 11 1
(0.579116 0.210442 0 0.210442) 2 2 1
(0.0869943 0.456503 0 0.456503) 0 1000 1
(0.366017 0.316992 0 0.316992) 64 64 1
(0.38512 0.30744 0.30744 0) 16 16 2
(0.362296 0.318852 0 0.318852) 5 5 1
(0.508398 0.245801 0.245801 0) 25 25 2
(0.53095 0.234525 0 0.234525) 20 20 1
(0.00620567 0.496897 0 0.496897) 21 20 2
(0.953404 0.023298 0.023298 0) 1 0 1
(0.827506 0.0862471 0.0862471 0) 42 42 2
(0.739261 0.130369 0 0.130369) 10 9 2
(0.555367 0.222316 0 0.222316) 25 25 1
(0.405931 0.297035 0 0.297035) 1 0 2
(0.649575 0.175213 0 0.175213) 1 1 1
(0.757999 0.121001 0 0.121001) 17 17 1
(0.720525 0.139737 0 0.139737) 2 1 2
(0.566591 0.216704 0.216704 0) 17 17 2
(0.0634368 0.468282 0 0.468282) 26 26 1
(0.0842713 0.457864 0 0.457864) 71 71 1
(0.632465 0.183767 0.183767 0) 4 3 1
(0.775721 0.112139 0.112139 0) 2 1 1
(0.435966 0.282017 0.282017 0) 17 17 2
(0.486272 0.256864 0 0.256864) 28 28 1
(0.923022 0.038489 0.038489 0) 18 17 1
(0.103929 0.448036 0 0.448036) 21 20 2
(0.150419 0.42479 0.42479 0) 11 11 2
(0.317944 0.341028 0.341028 0) 26 26 2
(0.278306 0.360847 0 0.360847) 32 31 2
(0.378025 0.310988 0.310988 0) 36 35 1
(0.145075 0.427463 0 0.427463) 27 26 2
(0.509649 0.245175 0 0.245175) 7 7 1
(0.280276 0.359862 0 0.359862) 36 35 2
(0.615829 0.192086 0 0.192086) 7 6 2
(0.602845 0.198577 0.198577 0) 19 18 1
(0.950938 0.0245309 0 0.0245309) 41 40 2
(0.986583 0.00670833 0 0.00670833) 38 38 1
(0.451582 0.274209 0 0.274209) 55 54 2
(0.214119 0.392941 0 0.392941) 18 17 2
(0.730381 0.134809 0 0.134809) 38 38 1
(0.289668 0.355166 0.355166 0) 52 52 2
(0.0488638 0.475568 0.475568 0) 11 11 2
(0.371625 0.314188 0 0.314188) 2 1 2
(0.829125 0.0854376 0 0.0854376) 8 7 2
(0.679525 0.160237 0.160237 0) 51 51 2
(0.647475 0.176263 0 0.176263) 13 13 1
(0.351902 0.324049 0.324049 0) 9 9 2
(0.887305 0.0563473 0.0563473 0) 19 19 2
(0.451446 0.274277 0 0.274277) 6 6 1
(0.98017 0.00991487 0 0.00991487) 46 45 2
(0.624481 0.18776 0 0.18776) 28 28 1
(0.0553196 0.47234 0 0.47234) 56 56 1
(0.211204 0.394398 0 0.394398) 8 8 1
(0.760739 0.119631 0 0.119631) 6 5 2
(0.888093 0.0559535 0.0559535 0) 0 0 2
(0.966348 0.0168258 0.0168258 0) 14 13 1
(0.56716 0.21642 0 0.21642) 0 0 1
(0.833422 0.0832889 0.0832889 0) 34 33 1
(0.218507 0.390746 0 0.390746) 34 34 1
(0.457615 0.271192 0 0.271192) 27 27 1
(0.594113 0.202944 0.202944 0) 25 24 1
(0.22395 0.388025 0 0.388025) 29 29 1
(0.030353 0.484824 0 0.484824) 28 28 1
(0.223252 0.388374 0 0.388374) 6 6 1
(0.797247 0.101376 0 0.101376) 5 4 2
(0.041839 0.479081 0 0.479081) 2 2 1
(0.683283 0.158358 0.158358 0) 7 6 1
(0.555981 0.222009 0.222009 0) 27 27 2
(0.999466 0.00026718 0 0.00026718) 0 1000 1
(0.245016 0.377492 0 0.377492) 14 14 1
(0.952137 0.0239316 0.0239316 0) 28 28 2
(0.816641 0.0916797 0.0916797 0) 4 4 2
(0.388951 0.305525 0.305525 0) 15 15 2
(0.0905288 0.454736 0 0.454736) 21 20 2
(0.127668 0.436166 0.436166 0) 20 19 1
(0.622883 0.188559 0 0.188559) 33 33 1
(0.38284 0.30858 0.30858 0) 35 34 1
(0.110316 0.444842 0 0.444842) 24 24 1
(0.930018 0.0349911 0 0.0349911) 20 19 2
(0.24529 0.377355 0.377355 0) 15 14 1
(0.43271 0.283645 0.283645 0) 0 1000 2
(0.178882 0.410559 0 0.410559) 4 3 2
(0.820989 0.0895054 0.0895054 0) 26 26 2
(0.534843 0.232578 0 0.232578) 35 34 2
(0.869258 0.0653708 0 0.0653708) 28 27 2
(0.771529 0.114236 0.114236 0) 13 12 1
(0.891043 0.0544783 0.0544783 0) 24 24 2
(0.142682 0.428659 0.428659 0) 6 6 2
(0.162098 0.418951 0.418951 0) 15 15 2
(0.973867 0.0130665 0 0.0130665) 5 4 2
(0.847381 0.0763097 0 0.0763097) 39 39 1
(0.0178688 0.491066 0 0.491066) 20 20 1
(0.645666 0.177167 0.177167 0) 20 19 1
(0.288938 0.355531 0 0.355531) 46 46 1
(0.123335 0.438332 0 0.438332) 14 14 1
(0.542662 0.228669 0 0.228669) 1 0 2
(0.244007 0.377996 0.377996 0) 10 10 2
(0.131625 0.434187 0 0.434187) 31 31 1
(0.688179 0.155911 0.155911 0) 8 7 1
(0.217845 0.391078 0.391078 0) 21 20 1
(0.988994 0.00550302 0.00550302 0) 5 5 2
(0.81151 0.0942449 0.0942449 0) 26 25 1
(0.352872 0.323564 0.323564 0) 13 12 1
(0.481182 0.259409 0 0.259409) 35 35 1
(0.84462 0.07769 0.07769 0) 18 18 2
(0.255054 0.372473 0 0.372473) 42 42 1
(0.266357 0.366822 0 0.366822) 9 8 2
(0.863089 0.0684556 0 0.0684556) 38 38 1
(0.923556 0.0382218 0 0.0382218) 35 35 1
(0.707291 0.146354 0 0.146354) 13 13 1
(0.671168 0.164416 0 0.164416) 22 22 1
(0.772898 0.113551 0 0.113551) 43 42 2
(0.962669 0.0186653 0 0.0186653) 5 4 2
(0.654087 0.172956 0.172956 0) 13 13 2
(0.276568 0.361716 0.361716 0) 11 11 2
(0.55058 0.22471 0.22471 0) 19 19 2
(0.733882 0.133059 0 0.133059) 16 15 2
(0.235641 0.38218 0 0.38218) 1 0 2
(0.692153 0.153923 0 0.153923) 7 7 1
(0.773674 0.113163 0 0.113163) 15 15 1
(0.433644 0.283178 0 0.283178) 16 15 2
(0.953125 0.0234376 0 0.0234376) 15 15 1
(0.677128 0.161436 0.161436 0) 42 42 2
(0.0290047 0.485498 0.485498 0) 23 22 1
(0.814126 0.0929368 0 0.0929368) 9 9 1
(0.186933 0.406533 0 0.406533) 4 4 1
(0.394283 0.302858 0.302858 0) 7 7 2
(0.228148 0.385926 0 0.385926) 22 22 1
(0.0258526 0.487074 0.487074 0) 6 6 2
(0.543199 0.2284 0.2284 0) 40 40 2
(0.228374 0.385813 0 0.385813) 14 13 2
(0.152514 0.423743 0 0.423743) 33 32 2
(0.144152 0.427924 0.427924 0) 27 26 1
(0.203143 0.398429 0.398429 0) 5 5 2
(0.0808359 0.459582 0 0.459582) 60 60 1
(0.241312 0.379344 0 0.379344) 17 16 2
(0.472219 0.26389 0 0.26389) 34 33 2
(0.721499 0.139251 0 0.139251) 7 6 2
(0.482906 0.258547 0.258547 0) 52 52 2
(0.556441 0.221779 0 0.221779) 36 35 2
(0.128404 0.435798 0.435798 0) 31 31 2
(0.346508 0.326746 0 0.326746) 25 24 2
(0.9767 0.0116498 0.0116498 0) 38 38 2
(0.360105 0.319947 0.319947 0) 33 33 2
(0.197082 0.401459 0 0.401459) 22 22 1
(0.821431 0.0892845 0.0892845 0) 29 28 1
(0.818109 0.0909455 0 0.0909455) 13 12 2
(0.0867296 0.456635 0.456635 0) 27 27 2
(0.392845 0.303577 0 0.303577) 11 11 1
(0.37488 0.31256 0.31256 0) 8 7 1
(0.565686 0.217157 0 0.217157) 9 9 1
(0.600729 0.199635 0.199635 0) 30 30 2
(0.289432 0.355284 0.355284 0) 9 9 2
(0.593049 0.203475 0.203475 0) 12 12 2
(0.110323 0.444838 0 0.444838) 66 65 2
(0.358735 0.320633 0.320633 0) 5 4 1
(0.976974 0.0115132 0 0.0115132) 11 11 1
(0.313713 0.343144 0.343144 0) 2 1 1
(0.650228 0.174886 0.174886 0) 11 10 1
(0.371261 0.314369 0 0.314369) 16 15 2
(0.51477 0.242615 0.242615 0) 18 17 1
(0.402683 0.298658 0 0.298658) 15 15 1
(0.99026 0.00487021 0 0.00487021) 48 47 2
(0.494641 0.25268 0.25268 0) 33 33 2
(0.138857 0.430571 0 0.430571) 16 15 2
(0.109207 0.445396 0 0.445396) 19 18 2
(0.808877 0.0955615 0 0.0955615) 4 3 2
(0.0352435 0.482378 0.482378 0) 38 37 1
(0.54829 0.225855 0 0.225855) 14 14 1
(0.231078 0.384461 0 0.384461) 67 67 1
(0.239026 0.380487 0.380487 0) 25 25 2
(0.00245151 0.498774 0 0.498774) 14 13 2
(0.70364 0.14818 0 0.14818) 33 32 2
(0.707099 0.146451 0 0.146451) 56 55 2
(0.850113 0.0749433 0 0.0749433) 40 39 2
(0.611158 0.194421 0 0.194421) 6 6 1
(0.408053 0.295974 0 0.295974) 26 25 2
(0.107391 0.446305 0.446305 0) 46 46 2
(0.777463 0.111268 0 0.111268) 15 14 2
(0.0445117 0.477744 0.477744 0) 55 55 2
(0.792428 0.103786 0.103786 0) 2 2 2
(0.607762 0.196119 0.196119 0) 32 32 2
(0.804739 0.0976304 0.0976304 0) 40 39 1
(0.900773 0.0496133 0.0496133 0) 15 15 2
(0.18534 0.40733 0 0.40733) 32 31 2
(0.116448 0.441776 0 0.441776) 53 52 2
(0.686389 0.156806 0 0.156806) 13 13 1
(0.198553 0.400724 0 0.400724) 35 34 2
(0.794583 0.102708 0.102708 0) 10 9 1
(0.957914 0.0210429 0 0.0210429) 10 9 2
(0.343097 0.328452 0 0.328452) 18 17 2
(0.510129 0.244936 0.244936 0) 28 28 2
(0.345518 0.327241 0.327241 0) 15 15 2
(0.285547 0.357227 0.357227 0) 8 8 2
(0.845119 0.0774407 0 0.0774407) 2 2 1
(0.285632 0.357184 0 0.357184) 15 15 1
(0.316669 0.341665 0.341665 0) 27 27 2
(0.654159 0.172921 0.172921 0) 40 40 2
(0.741079 0.12946 0.12946 0) 53 52 1
(0.452899 0.27355 0 0.27355) 52 52 1
(0.678352 0.160824 0 0.160824) 53 53 1
(0.445308 0.277346 0.277346 0) 50 50 2
(0.161986 0.419007 0 0.419007) 12 12 1
(0.930697 0.0346513 0.0346513 0) 47 46 1
(0.948031 0.0259844 0.0259844 0) 15 14 1
(0.0724869 0.463757 0.463757 0) 21 21 2
(0.746597 0.126701 0.126701 0) 63 63 2
(0.374375 0.312813 0.312813 0) 8 7 1
(0.724852 0.137574 0.137574 0) 15 15 2
(0.506303 0.246849 0.246849 0) 19 19 2
(0.967337 0.0163314 0 0.0163314) 11 11 1
(0.782924 0.108538 0 0.108538) 14 13 2
(0.977968 0.011016 0.011016 0) 11 10 1
(0.163218 0.418391 0 0.418391) 25 24 2
(0.441848 0.279076 0.279076 0) 13 12 1
(0.127956 0.436022 0.436022 0) 6 6 2
(0.70415 0.147925 0 0.147925) 17 17 1
(0.0801962 0.459902 0.459902 0) 3 2 1
(0.371768 0.314116 0.314116 0) 2 2 2
(0.250216 0.374892 0 0.374892) 24 23 2
(0.372069 0.313965 0.313965 0) 2 2 2
(0.055642 0.472179 0.472179 0) 13 12 1
(0.610026 0.194987 0.194987 0) 6 5 1
(0.432657 0.283671 0 0.283671) 22 22 1
(0.0754337 0.462283 0.462283 0) 11 10 1
(0.224998 0.387501 0 0.387501) 36 36 1
(0.326614 0.336693 0 0.336693) 17 16 2
(0.572474 0.213763 0.213763 0) 5 5 2
(0.721301 0.13935 0 0.13935) 5 4 2
(0.346167 0.326917 0.326917 0) 65 65 2
(0.978937 0.0105316 0.0105316 0) 13 12 1
(0.136059 0.43197 0 0.43197) 3 2 2
(0.639415 0.180293 0 0.180293) 7 7 1
(0.31011 0.344945 0 0.344945) 4 3 2
(0.722984 0.138508 0.138508 0) 61 60 1
(0.839962 0.0800191 0 0.0800191) 19 19 1
(0.0469923 0.476504 0 0.476504) 28 28 1
(0.835523 0.0822387 0 0.0822387) 12 12 1
(0.183379 0.408311 0 0.408311) 12 12 1
(0.0774379 0.461281 0 0.461281) 23 23 1
(0.755167 0.122416 0 0.122416) 20 19 2
(0.700751 0.149625 0 0.149625) 50 49 2
(0.618593 0.190703 0.190703 0) 34 33 1
(0.0231049 0.488448 0.488448 0) 40 39 1
(0.0573041 0.471348 0 0.471348) 49 48 2
(0.811026 0.094487 0.094487 0) 54 53 1
(0.901945 0.0490276 0.0490276 0) 46 45 1
(0.979962 0.0100189 0 0.0100189) 33 32 2
(0.159017 0.420492 0 0.420492) 8 8 1
(0.916341 0.0418294 0.0418294 0) 19 18 1
(0.684547 0.157726 0 0.157726) 15 14 2
(0.0337805 0.48311 0.48311 0) 29 28 1
(0.970143 0.0149283 0.0149283 0) 15 15 2
(0.72385 0.138075 0 0.138075) 31 30 2
(0.576321 0.211839 0 0.211839) 55 54 2
(0.451872 0.274064 0 0.274064) 23 23 1
(0.824886 0.087557 0.087557 0) 36 35 1
(0.832828 0.0835861 0 0.0835861) 6 6 1
(0.442028 0.278986 0 0.278986) 1 1 1
(0.899568 0.050216 0.050216 0) 45 44 1
(0.925305 0.0373475 0.0373475 0) 20 20 2
(0.454208 0.272896 0.272896 0) 11 11 2
(0.145407 0.427297 0.427297 0) 4 3 1
(0.515087 0.242457 0.242457 0) 8 7 1
(0.564828 0.217586 0.217586 0) 10 9 1
(0.646222 0.176889 0 0.176889) 38 37 2
(0.166353 0.416823 0 0.416823) 3 3 1
(0.334753 0.332624 0.332624 0) 19 19 2
(0.251232 0.374384 0.374384 0) 22 22 2
(0.176117 0.411942 0.411942 0) 55 54 1
(0.982305 0.00884757 0.00884757 0) 6 5 1
(0.808583 0.0957085 0.0957085 0) 18 17 1
(0.345495 0.327252 0 0.327252) 36 36 1
(0.86294 0.0685299 0.0685299 0) 18 18 2
(0.615045 0.192477 0.192477 0) 26 25 1
(0.763175 0.118413 0 0.118413) 23 22 2
(0.373288 0.313356 0 0.313356) 7 7 1
(0.60602 0.19699 0.19699 0) 27 26 1
(0.896019 0.0519907 0 0.0519907) 25 25 1
(0.0423354 0.478832 0.478832 0) 57 57 2
(0.721033 0.139484 0.139484 0) 49 49 2
(0.579982 0.210009 0.210009 0) 21 20 1
(0.899406 0.0502969 0.0502969 0) 13 12 1
(0.037597 0.481202 0 0.481202) 21 20 2
(0.631273 0.184364 0.184364 0) 11 11 2
(0.121209 0.439395 0.439395 0) 27 27 2
(0.653702 0.173149 0 0.173149) 4 3 2
(0.509362 0.245319 0.245319 0) 26 25 1
(0.368947 0.315527 0.315527 0) 16 15 1
(0.247046 0.376477 0 0.376477) 46 46 1
(0.611561 0.194219 0 0.194219) 45 44 2
(0.777268 0.111366 0 0.111366) 9 9 1
(0.978711 0.0106447 0.0106447 0) 0 0 2
(0.323568 0.338216 0 0.338216) 5 4 2
(0.565566 0.217217 0 0.217217) 39 38 2
(0.336289 0.331856 0 0.331856) 23 22 2
(0.535307 0.232346 0.232346 0) 21 21 2
(0.993502 0.003249 0.003249 0) 44 44 2
(0.736272 0.131864 0.131864 0) 63 62 1
(0.175466 0.412267 0.412267 0) 7 7 2
(0.398439 0.300781 0 0.300781) 19 18 2
(0.391932 0.304034 0.304034 0) 52 51 1
(0.5011 0.24945 0.24945 0) 4 3 1
(0.00989891 0.495051 0 0.495051) 4 4 1
(0.0683565 0.465822 0.465822 0) 53 52 1
(0.397203 0.301399 0.301399 0) 22 21 1
(0.764178 0.117911 0.117911 0) 21 21 2
(0.318694 0.340653 0.340653 0) 13 12 1
(0.168019 0.41599 0 0.41599) 0 1000 1
(0.613166 0.193417 0.193417 0) 65 64 1
(0.367664 0.316168 0 0.316168) 35 34 2
(0.489202 0.255399 0.255399 0) 10 10 2
(0.811249 0.0943757 0 0.0943757) 5 4 2
(0.63383 0.183085 0 0.183085) 48 48 1
(0.128106 0.435947 0 0.435947) 17 17 1
(0.587483 0.206258 0 0.206258) 36 36 1
(0.143225 0.428388 0 0.428388) 33 32 2
(0.56778 0.21611 0 0.21611) 14 14 1
(0.722926 0.138537 0.138537 0) 14 13 1
(0.117984 0.441008 0.441008 0) 20 19 1
(0.882281 0.0588595 0 0.0588595) 3 3 1
(0.33742 0.33129 0.33129 0) 5 4 1
(0.920124 0.039938 0.039938 0) 23 22 1
(0.519549 0.240226 0 0.240226) 27 27 1
(0.445251 0.277375 0 0.277375) 14 13 2
(0.638739 0.180631 0.180631 0) 37 37 2
(0.135676 0.432162 0 0.432162) 9 8 2
(0.800506 0.0997472 0.0997472 0) 60 59 1
(0.417568 0.291216 0.291216 0) 50 50 2
(0.0816003 0.4592 0.4592 0) 6 6 2
(0.50098 0.24951 0 0.24951) 7 6 2
(0.746318 0.126841 0.126841 0) 9 8 1
(0.715151 0.142424 0 0.142424) 23 23 1
(0.415246 0.292377 0 0.292377) 17 17 1
(0.784692 0.107654 0.107654 0) 25 24 1
(0.322796 0.338602 0.338602 0) 40 39 1
(0.507709 0.246146 0.246146 0) 21 21 2
(0.416263 0.291868 0 0.291868) 58 57 2
(0.0885302 0.455735 0.455735 0) 22 22 2
(0.735063 0.132469 0 0.132469) 45 45 1
(0.00880839 0.495596 0 0.495596) 26 25 2
(0.69403 0.152985 0.152985 0) 7 7 2
(0.761682 0.119159 0 0.119159) 5 4 2
(0.254215 0.372893 0 0.372893) 44 43 2
(0.226412 0.386794 0 0.386794) 14 13 2
(0.494889 0.252556 0 0.252556) 15 14 2
(0.412131 0.293935 0 0.293935) 20 20 1
(0.850242 0.0748788 0 0.0748788) 1 1 1
(0.467634 0.266183 0 0.266183) 33 33 1
(0.472491 0.263755 0 0.263755) 11 11 1
(0.749211 0.125395 0 0.125395) 14 13 2
(0.250116 0.374942 0 0.374942) 41 40 2
(0.171231 0.414384 0 0.414384) 33 32 2
(0.656409 0.171795 0 0.171795) 16 15 2
(0.760325 0.119838 0 0.119838) 22 22 1
(0.769659 0.11517 0.11517 0) 83 82 1
(0.136461 0.431769 0 0.431769) 36 35 2
(0.898867 0.0505665 0 0.0505665) 14 13 2
(0.923717 0.0381416 0.0381416 0) 11 11 2
(0.193408 0.403296 0.403296 0) 24 23 1
(0.954427 0.0227865 0.0227865 0) 24 24 2
(0.835002 0.082499 0 0.082499) 1 0 2
(0.267385 0.366307 0 0.366307) 5 5 1
(0.612328 0.193836 0 0.193836) 35 35 1
(0.39963 0.300185 0.300185 0) 18 18 2
(0.772076 0.113962 0 0.113962) 60 60 1
(0.417272 0.291364 0.291364 0) 32 32 2
(0.791431 0.104284 0.104284 0) 56 55 1
(0.225824 0.387088 0 0.387088) 10 10 1
(0.237797 0.381102 0 0.381102) 1 1 1
(0.644039 0.17798 0.17798 0) 23 22 1
(0.41039 0.294805 0.294805 0) 6 5 1
(0.198311 0.400845 0.400845 0) 14 13 1
(0.205947 0.397026 0 0.397026) 13 13 1
(0.641101 0.17945 0 0.17945) 39 38 2
(0.808306 0.0958471 0 0.0958471) 26 25 2
(0.409262 0.295369 0.295369 0) 32 31 1
(0.731572 0.134214 0.134214 0) 24 24 2
(0.975661 0.0121695 0 0.0121695) 51 51 1
(0.804129 0.0979353 0 0.0979353) 16 16 1
(0.526353 0.236823 0 0.236823) 48 48 1
(0.179982 0.410009 0 0.410009) 29 29 1
(0.415948 0.292026 0.292026 0) 24 24 2
(0.989016 0.00549182 0 0.00549182) 13 12 2
(0.691094 0.154453 0 0.154453) 3 2 2
(0.707458 0.146271 0 0.146271) 61 60 2
(0.996087 0.0019566 0.0019566 0) 25 24 1
(0.490523 0.254738 0.254738 0) 1 1 2
(0.271582 0.364209 0 0.364209) 55 55 1
(0.772151 0.113924 0.113924 0) 8 8 2
(0.927565 0.0362173 0.0362173 0) 49 48 1
(0.244628 0.377686 0.377686 0) 24 24 2
(0.751739 0.12413 0.12413 0) 57 57 2
(0.705553 0.147223 0.147223 0) 13 13 2
(0.587217 0.206392 0 0.206392) 4 4 1
(0.538838 0.230581 0 0.230581) 37 36 2
(0.254594 0.372703 0.372703 0) 15 14 1
(0.378948 0.310526 0.310526 0) 44 43 1
(0.941596 0.0292022 0 0.0292022) 15 15 1
(0.319544 0.340228 0.340228 0) 18 18 2
(0.565682 0.217159 0 0.217159) 7 6 2
(0.778451 0.110774 0 0.110774) 40 39 2
(0.275197 0.362401 0.362401 0) 0 1000 2
(0.848973 0.0755136 0 0.0755136) 0 1000 1
(0.400429 0.299786 0.299786 0) 29 29 2
(0.243129 0.378435 0 0.378435) 58 57 2
(0.184473 0.407764 0.407764 0) 6 6 2
(0.611562 0.194219 0.194219 0) 35 35 2
(0.0846063 0.457697 0 0.457697) 49 48 2
(0.607507 0.196247 0.196247 0) 39 38 1
(0.773093 0.113453 0 0.113453) 25 25 1
(0.973564 0.0132182 0 0.0132182) 2 2 1
(0.117763 0.441118 0 0.441118) 11 11 1
(0.9454 0.0272998 0.0272998 0) 22 21 1
(0.336873 0.331564 0.331564 0) 7 7 2
(0.885899 0.0570505 0 0.0570505) 24 24 1
(0.139501 0.430249 0.430249 0) 39 38 1
(0.560824 0.219588 0.219588 0) 65 64 1
(0.84268 0.0786602 0.0786602 0) 24 24 2
(0.664839 0.167581 0.167581 0) 58 57 1
(0.782253 0.108874 0.108874 0) 10 9 1
(0.627203 0.186398 0.186398 0) 6 6 2
(0.853982 0.0730092 0 0.0730092) 4 3 2
(0.930904 0.034548 0.034548 0) 63 62 1
(0.622106 0.188947 0 0.188947) 32 32 1
(0.621226 0.189387 0 0.189387) 50 49 2
(0.442621 0.27869 0 0.27869) 7 6 2
(0.0534029 0.473299 0.473299 0) 17 16 1
(0.902391 0.0488047 0.0488047 0) 27 27 2
(0.41713 0.291435 0 0.291435) 17 16 2
(0.683399 0.158301 0 0.158301) 13 12 2
(0.192973 0.403513 0 0.403513) 32 32 1
(0.229448 0.385276 0.385276 0) 8 7 1
(0.424071 0.287964 0.287964 0) 13 12 1
(0.518893 0.240553 0.240553 0) 38 37 1
(0.190621 0.40469 0 0.40469) 32 32 1
(0.957 0.0215 0.0215 0) 23 23 2
(0.37933 0.310335 0 0.310335) 13 12 2
(0.595668 0.202166 0.202166 0) 8 7 1
(0.962943 0.0185283 0 0.0185283) 37 37 1
(0.619843 0.190078 0.190078 0) 39 38 1
(0.331871 0.334065 0 0.334065) 23 22 2
(0.724806 0.137597 0 0.137597) 56 55 2
(0.39854 0.30073 0 0.30073) 9 8 2
(0.4934 0.2533 0 0.2533) 39 39 1
(0.475048 0.262476 0 0.262476) 9 9 1
(0.737734 0.131133 0 0.131133) 49 49 1
(0.143056 0.428472 0 0.428472) 50 49 2