/*--------------------------------*- C++ -*----------------------------------*\
  =========                 |
  \\      /  F ield         | OpenFOAM: The Open Source CFD Toolbox
   \\    /   O peration     | Website:  https://openfoam.org
    \\  /    A nd           | Version:  7
     \\/     M anipulation  |
\*---------------------------------------------------------------------------*/
FoamFile
{
    version     2.0;
    format      ascii;
    class       vectorField;
    location    "0.007/lagrangian/dsmc";
    object      U;
}
// * * * * * * * * * * * * * * * * * * * * * * * * * * * * * * * * * * * * * //


92197
(
(-334.99 -166.661 146.837)
(-214.528 288.997 232.27)
(-448.033 414.755 215.558)
(-334.366 -371.536 264.662)
(-583.37 662.85 -104.205)
(-415.246 -106.263 493.777)
(-217.827 -125.977 -169.647)
(-150.768 -249.856 522.537)
(-402.5 165.542 -120.849)
(-373.06 74.9145 -61.2709)
(-193.37 -468.157 -336.567)
(-284.25 113.619 -53.0585)
(-463.612 -6.05083 -143.473)
(-356.965 359.093 8.3087)
(-176.804 -346.905 216.355)
(-392.696 -67.6002 -430.69)
(-378.735 127.338 -110.13)
(-124.834 409.287 494.316)
(-181.187 -82.8885 287.037)
(95.0749 377.849 318.317)
(-514.834 50.1089 -168.599)
(-792.553 -35.9943 447.417)
(-538.291 -22.5274 -83.0978)
(172.077 358.448 -88.7923)
(-203.268 -67.7102 452.002)
(-396.934 -52.532 -27.1744)
(-294.662 157.885 182.159)
(-489.609 110.855 284.627)
(-466.066 -663.197 -586.849)
(-252.53 9.29249 164.762)
(-612.837 152.211 153.15)
(-107.701 -254.68 256.093)
(-373.011 -240.312 -23.4576)
(-526.971 73.4637 -116.801)
(-322.849 383.248 243.243)
(-220.59 62.3232 -308.728)
(-655.09 -99.5779 -201.619)
(-519.584 -228.739 500.578)
(-364 -102.111 -54.9973)
(-135.646 -148.504 158.629)
(-755.42 76.0343 -70.5871)
(-33.7464 -339.973 127.337)
(-310.272 -78.1063 -170.179)
(-644.248 589.745 127.485)
(-353.75 -63.9872 -11.3964)
(-323.697 58.9775 -85.6094)
(-6.67708 249.88 -62.4058)
(-442.16 163.724 253.985)
(-282.252 558.008 -372.026)
(-177.213 38.8896 164.697)
(-471.543 -313.976 -235.814)
(-463.974 237.611 165.001)
(-453.515 3.36359 -197.407)
(-407.211 154.322 -229.468)
(187.725 -510.702 257.418)
(-336.159 -135.356 -261.694)
(-281.82 348.95 273.904)
(-576.656 -128.417 -131.943)
(-730.787 -218.832 180.213)
(-346.072 -74.2628 -33.6161)
(-304.088 17.1373 12.1647)
(-408.592 -394.643 -17.137)
(-649.294 -357.996 -51.5532)
(-419.969 -299.818 -408.783)
(-416.934 -138.427 87.9574)
(-575.694 -239.819 5.93908)
(-105.966 -78.4909 -20.7589)
(-435.092 282.054 -216.846)
(-637.997 -324.138 -246.037)
(-391.973 117.081 -113.415)
(-635.63 180.165 71.3473)
(-429.319 78.5706 -262.386)
(-23.0361 312.791 -75.0158)
(-582.558 53.4498 20.498)
(-401.393 189.859 -13.557)
(-302.172 -1.4494 181.442)
(-606.601 393.635 261.304)
(-312.693 -20.8559 29.4847)
(-575.13 38.8267 212.114)
(-843.594 457.248 498.957)
(-670.322 -89.1454 267.842)
(-184.923 96.0945 399.839)
(-384.522 161.729 368.234)
(185.196 68.0853 221.237)
(-555.041 178.433 -381.485)
(-109.575 240.8 -175.245)
(164.055 -156.434 -7.5204)
(-18.6147 62.0107 -77.3909)
(-555.05 -28.2366 68.7793)
(-364.924 -203.927 -40.4035)
(-169.684 -322.977 -96.3876)
(47.9782 87.6508 -509.236)
(-557.263 -314.138 43.1616)
(-283.575 -198.048 353.387)
(340.073 -394.49 235.1)
(-200.251 -76.3711 -13.0764)
(152.771 -551.058 17.3065)
(-484.875 163.309 -15.1559)
(-171.084 72.8028 510.64)
(94.4054 187.646 -20.6698)
(-207.933 400.321 110.652)
(-205.397 -584.855 -109.859)
(-524.624 371.583 -209.202)
(34.5998 -47.8389 148.785)
(-23.0361 563.67 -110.447)
(-510.2 71.5 87.1068)
(79.6507 305.653 293.838)
(123.123 138.341 14.7132)
(-137.566 -458.945 109.497)
(416.975 -254.577 -21.8338)
(-162.306 280.418 123.279)
(151.394 116.16 174.972)
(-622.805 36.7836 63.3909)
(-47.2429 -426.164 656.152)
(-325.971 55.6765 -21.6929)
(-558.377 371.341 88.206)
(-175.425 56.2191 -207.394)
(-466.682 -13.097 -444.868)
(-89.6756 -432.216 -216.409)
(-728.504 464.625 259.299)
(-564.922 316.53 -47.7357)
(-91.5953 195.136 -38.0134)
(-334.373 -311.815 -445.014)
(-210.143 97.4233 -331.243)
(-170.377 73.8628 -100.783)
(-85.5866 254.713 256.036)
(59.3216 6.13626 -560.017)
(-344.256 -33.554 -394.554)
(59.8963 -512.755 -163.389)
(-84.3526 384.352 325.353)
(-294.671 -230.781 -383.191)
(-375.49 276.617 -17.7131)
(2.41571 16.2008 342.481)
(-240.955 -123.853 -232.209)
(-609.563 -78.279 -171.752)
(-142.68 130.419 414.046)
(-268.743 -140.656 180.917)
(-755.319 -139.493 24.6749)
(-729.057 -41.3264 -213.075)
(-418.679 -309.534 -273.046)
(25.389 341.596 276.24)
(-503.903 26.5378 -53.9511)
(-207.798 30.6324 139.879)
(-23.5203 -84.7077 -4.43078)
(53.4476 112.842 266.852)
(229.508 274.722 85.9748)
(-260.611 -95.8755 -2.79011)
(-110.122 274.721 777.491)
(-292.131 -43.5583 218.882)
(-399.467 -411.518 288.443)
(415.972 -174.84 206.202)
(-200.095 589.926 -152.118)
(-410.725 44.0287 -91.596)
(-140.239 -524.944 64.5814)
(146.612 -65.6387 140.76)
(-479.645 329.903 -184.112)
(-270.88 -277.031 398.337)
(-621.858 265.35 3.60231)
(-268.334 95.9993 -252.486)
(485.549 -141.611 33.3095)
(-268.48 -138.207 39.1049)
(-503.222 413.597 -100.804)
(-476.187 -135.067 35.2803)
(-194.446 193.541 178.202)
(-525.261 91.879 -275.68)
(-184.904 -239.06 243.625)
(-62.568 99.9217 247.158)
(-13.4332 24.9215 -89.7855)
(-56.3068 580.864 255.623)
(-463.983 -129.909 165.186)
(-281.813 260.119 156.897)
(-387.816 205.721 117.754)
(-166.777 -299.929 -493.836)
(163.999 -125.005 -18.0596)
(-523.229 -261.13 -186.923)
(-291.322 48.9444 -167.323)
(-183.29 -18.7605 -182.522)
(-118.526 125.149 -152.492)
(-894.342 -160.024 276.809)
(-589.425 133.26 -149.943)
(-230.926 136.767 -37.2797)
(135.559 460.873 231.395)
(52.6346 -39.0687 -186.168)
(123.724 -207.06 124.768)
(-330.416 118.85 99.9468)
(-244.774 -48.5525 -66.8999)
(-695.751 267.184 -227.137)
(-301.197 89.3002 27.5009)
(-244.877 233.935 -57.4851)
(-367.553 25.8893 218.89)
(-358.997 379.875 -65.5151)
(-547.114 -385.755 -92.2051)
(-184.776 -236.548 -39.6154)
(-13.7169 -101.418 548.475)
(-109.982 -591.9 -232.729)
(-434.016 46.3183 -407.323)
(-503.428 -3.96096 257.033)
(-432.978 -0.560765 21.0525)
(-491.312 174.063 299.447)
(-470.094 -56.0651 -254.425)
(-279.532 -121.531 474.816)
(-435.667 -99.4738 246.561)
(-439.103 -292.93 89.8747)
(-510.789 214.988 37.983)
(-294.265 -202.964 46.0268)
(-452.776 47.3325 125.26)
(-489.08 -260.979 -120.322)
(114.539 -21.9438 -358.153)
(-199.918 -115.372 172.419)
(-413.413 -180.871 110.646)
(-589.349 -208.416 204.917)
(-182.551 122.229 -250.476)
(-344.393 266.04 219.653)
(-392.875 -399.373 179.594)
(-330.011 197.446 -219.962)
(-492.226 -65.7332 -237.682)
(-295.016 -260.394 288.864)
(-8.69079 993.031 285.016)
(-251.074 267.916 -171.973)
(-147.718 212.612 -83.3651)
(-305.819 156.386 -134.954)
(-425.999 -29.6018 137.272)
(-286.93 181.362 -298.867)
(-49.8677 80.7824 106.566)
(-168.764 427.626 156.519)
(-257.712 -87.8549 -107.421)
(-350.712 -179.523 232.129)
(-282.673 135.794 73.3049)
(61.5792 -266.573 -54.817)
(-11.0134 88.4093 -325.157)
(92.3174 294.504 319.681)
(-120.468 309.69 319.114)
(-293.253 -92.516 -98.5342)
(164.217 -186.828 26.7873)
(-19.9527 -588.873 -88.1359)
(-507.489 -399.103 690.709)
(-486.69 17.1971 320.639)
(84.0018 -213.559 -604.463)
(-33.4905 -179.59 -257.287)
(-348.502 270.883 -64.2154)
(-166.839 -150.093 -449.151)
(-50.7849 -294.636 213.29)
(-227.2 -193.783 441.421)
(104.389 -360.693 180.001)
(-339.543 511.995 -105.602)
(-272.156 -277.149 99.3139)
(-25.2995 -68.6804 -29.3866)
(-186.37 -226.513 225.472)
(155.737 -41.2282 45.1894)
(-25.8494 -139.808 -8.98715)
(-187.601 648.741 -107.465)
(-430.678 100.224 160.613)
(-239.36 -241.869 285.217)
(-167.892 57.8433 278.924)
(-433.565 177.463 -18.1824)
(-843.56 -17.0517 245.914)
(-366.575 -79.2282 365.171)
(-892.366 -146.424 -168.245)
(-197.092 -320.085 -194.31)
(-523.663 -277.482 -652.218)
(-409.523 305.372 584.068)
(-267.675 -36.7703 184.405)
(-380.087 -120.445 -4.61553)
(-376.53 100.458 -286.222)
(-309.322 -840.643 -359.318)
(-695.284 56.3733 -115.719)
(-512.921 -162.708 468.383)
(-442.816 -349.606 229.933)
(-489.171 328.289 -240.207)
(207.47 -429.025 -125.16)
(-569.11 -346.858 121.73)
(-86.4654 420.036 562.928)
(-614.37 130.383 -599.572)
(-160.139 198.561 51.1288)
(-366.938 -403.541 -277.43)
(-452.385 -356.473 -243.1)
(-214.368 -40.2693 -439.173)
(-77.8851 56.8544 -63.9597)
(-202.929 -257.146 128.518)
(-384.032 -50.0268 -57.0086)
(-167.264 117.933 53.6301)
(-713.032 -229.105 -251.167)
(-347.52 190.214 368.868)
(270.439 165.908 -271.736)
(-399.21 -293.321 758.885)
(-308.298 163.99 -173.221)
(-242.649 264.344 -772.881)
(-299.016 -123.557 -138.737)
(-250.906 120.735 -175.436)
(-55.5446 -209.557 -176.596)
(127.47 -207.317 372.403)
(-214.578 -484.202 -464.677)
(-517.34 -9.35057 8.9431)
(-425.571 -416.897 -307.844)
(-306.665 276.415 395.063)
(-406.943 355.854 -287.121)
(155.212 -5.23014 159.47)
(-294.645 179.558 56.6495)
(-119.413 -248.132 412.33)
(-255.669 -142.846 -50.5279)
(-259.84 -200.409 252.501)
(-362.169 255.456 -171.573)
(-198.489 -249.118 -148.389)
(-322.679 158.898 326.674)
(-129.447 -320.133 70.5509)
(-224.382 820.831 -85.7696)
(-352.517 -162.187 -68.7115)
(-64.8294 3.42067 -190.96)
(-452.45 14.2528 43.8356)
(-234.073 341.144 -226.384)
(43.4739 163.366 -270.386)
(-203.82 -200.079 -293.688)
(-428.793 -86.8426 -38.9543)
(96.0192 169.995 83.1198)
(-651.019 183.956 -66.2444)
(-580.702 -119.911 -51.1535)
(-367.308 -92.0113 -224.536)
(-300.935 -295.578 92.2906)
(-378.146 3.08434 -358.106)
(-725.858 -315.976 386.543)
(-251.405 -317.159 -332.492)
(-586.294 145.569 61.5912)
(-46.0494 375.278 103.625)
(-863.404 -339.29 -223.783)
(215.112 -10.7932 -322.972)
(-222.702 -396.98 261.648)
(-507.652 232.455 -273.877)
(-26.9795 155.16 -250.367)
(-581.829 92.4835 -371.4)
(-766.299 221.375 112.457)
(-109.568 472.53 -128.584)
(-554.445 186.67 -103.014)
(-656.024 -222.849 93.0919)
(-432.741 173.468 68.9687)
(189.707 -41.5697 -176.079)
(-367.383 40.3485 -8.11276)
(-341.638 326.002 306.719)
(-459.816 221.939 25.8311)
(-150.1 -163.548 -342.193)
(-315.909 356.848 -18.3813)
(-603.55 -359.623 -97.1394)
(-80.8654 -86.113 406.856)
(-351.692 -131.568 278.677)
(190.528 -76.6488 -40.3458)
(-52.6072 94.8527 -128.658)
(-684.843 -230.545 138.897)
(-267.047 -502.939 -22.127)
(-215.669 18.7187 543.112)
(-308.875 -255.26 -454.425)
(-201.579 228.428 -156.117)
(-421.113 105.43 -233.336)
(-170.174 -178.549 180.124)
(335.37 -732.493 -22.7455)
(-342.412 166.196 88.0821)
(-643.516 -343.668 -154.331)
(-785.651 -295.36 101.645)
(254.866 -21.029 463.944)
(230.521 132.39 -475.873)
(174.191 153.558 -89.1487)
(-260.206 212.702 290.973)
(-428.866 -331.364 -434.47)
(-804.51 188.892 345.12)
(-169.289 -150.656 -34.7705)
(245.59 -129.548 -47.5296)
(-520.414 -96.6122 -301.111)
(-36.8081 297.582 376.575)
(-554.053 126.938 -16.2946)
(-612.59 -32.4106 174.048)
(-417.288 -242.36 106.031)
(-464.245 52.6193 276.635)
(-248.482 -123.477 228.51)
(11.2815 -227.459 293.627)
(-620.318 40.0735 -149.78)
(104.009 -409.904 -113.404)
(77.3192 157.523 329.493)
(-617.527 -5.64748 -17.6418)
(-496.131 222.801 18.8331)
(-174.122 -10.7706 164.187)
(-590.453 -19.9543 142.556)
(-303.242 15.5489 -603.256)
(-545.138 -132.628 -23.9071)
(-132.716 151.562 262.73)
(-607.144 410.587 46.8578)
(-526.617 41.3539 103.199)
(-129.024 48.1868 534.056)
(-610.813 428.199 -292.343)
(-263.314 -358.264 -589.673)
(300.378 14.8455 -36.97)
(-151.263 460.248 133.993)
(-460.4 -369.786 -194.055)
(-258.412 31.8492 511.953)
(-277.567 -324.421 -204.505)
(-705.096 304.532 -140.267)
(-799.033 227.769 -302.378)
(-316.871 -255.037 -68.0797)
(-374.124 277.179 -85.5967)
(-346.794 -316.717 164.92)
(165.817 214.538 -72.484)
(-321.062 -142.365 568.193)
(-624.053 -117.719 111.69)
(-349.007 -51.6239 242.105)
(-910.381 -30.2358 133.881)
(219.893 47.6923 26.5937)
(234.468 -561.154 -262.572)
(279.122 -379.814 150.065)
(117.709 -137.844 427.464)
(-101.783 -92.1491 -340.067)
(-326.671 132.136 -291.237)
(-565.696 180.264 -167.904)
(-471.285 -122.028 -134.987)
(-510.647 -412.92 20.5314)
(-388.524 -264.614 -239.857)
(-100.138 -419.682 -11.2078)
(-125.351 -246.482 319.118)
(-317.531 24.0726 151.233)
(-220.63 -52.83 -326.355)
(-297.567 -1.44814 -285.117)
(-148.751 -46.2073 -324.877)
(-183.206 303.417 -561.257)
(-518.247 -245.232 -13.5697)
(-663.16 38.0567 -4.90401)
(-414.208 -388.032 28.7856)
(-135.924 43.326 162.617)
(-474.928 -102.341 355.41)
(-240.165 26.3891 -343.659)
(-282.454 -329.554 95.6645)
(-131.981 -178.608 370.342)
(-678.147 -455.886 1049.1)
(-708.285 -165.946 -75.7958)
(-349.666 30.1334 -389.374)
(-506.197 -156.648 -199.713)
(-507.917 -30.833 -191.738)
(-279.555 -322.031 70.2437)
(-354.013 100.585 75.8291)
(-72.5257 99.3 85.8074)
(-666.817 329.617 -471.867)
(131.15 115.476 159.44)
(-170.729 213.461 -121.529)
(-191.014 251.438 -200.193)
(-277.31 12.614 530.498)
(-328.996 218.735 12.2953)
(-265.553 501.672 258.693)
(38.3567 -354.692 -122.906)
(-377.45 21.6606 -173.336)
(-541.41 148.796 418.438)
(-458.201 56.4487 77.8141)
(-306.685 -20.9409 370.972)
(-430.882 -3.04178 308.104)
(71.7327 -287.058 306.996)
(36.9064 109.87 -252.629)
(-261.462 141.044 -59.7128)
(-567.845 -18.1151 -28.3815)
(-187.013 -175.751 -64.6048)
(-387.708 64.7348 312.198)
(-309.934 -177.042 -288.795)
(-668.656 153.108 -930.128)
(-322.263 -712.584 -365.543)
(62.298 -175.213 313.216)
(-78.7033 150.932 249.779)
(147.483 349.009 -399.101)
(-557.212 125.526 119.927)
(112.35 64.8235 226.017)
(-215.846 192.993 -123.807)
(-717.484 78.1953 378.46)
(-63.022 -90.2535 -226.816)
(-175.214 240.995 270.519)
(-328.988 -106.987 224.017)
(-722.062 -64.2508 -577.089)
(-199.171 -134.455 -249.803)
(-171.989 20.0605 -53.0092)
(-435.842 340.594 -53.5552)
(-203.804 555.209 273.162)
(-851.537 459.558 -102.017)
(-45.3987 280.843 350.635)
(129.758 69.2349 -28.9074)
(-191.599 -278.942 -228.293)
(-249.722 -112.89 45.1636)
(-648.882 193.735 75.4656)
(-95.3511 -138.852 91.4503)
(102.755 -126.905 675.755)
(-159.535 -15.7959 256.482)
(68.0301 67.215 -85.8455)
(-514.01 250.545 -5.84973)
(-447.009 262.667 314.099)
(-305.15 187.645 560.503)
(-370.916 287.001 -58.6124)
(129.948 35.7982 -0.205814)
(-258.525 55.3014 -40.7027)
(191.412 -138.09 229.33)
(-110.611 -411.176 -296.123)
(17.9561 70.6318 512.946)
(-368.592 -880.968 -496.71)
(-389.936 -34.3563 -53.3055)
(-579.905 -167.066 -126.403)
(-278.03 547.877 114.401)
(-72.9999 304.332 20.5128)
(368.101 -413.953 239.691)
(-93.1156 231.111 601.105)
(-205.174 37.9596 170.81)
(4.1627 200.924 -73.6282)
(-206.653 -335.465 -285.682)
(-457.723 -183.934 103.797)
(79.0873 122.806 535.776)
(-130.919 -240.701 -0.719328)
(-511.143 133.951 -45.1297)
(-731.849 310.455 189.167)
(-22.75 -48.7954 -273.83)
(-676.476 -264.041 4.25171)
(-128.25 130.453 338.361)
(190.089 3.65599 174.018)
(-497.692 -118.452 -153.726)
(-275.055 339.787 240.87)
(77.4119 513.086 -268.021)
(-433.322 -200.224 68.5046)
(457.677 113.717 390.631)
(4.84432 238.398 176.342)
(-429.682 -43.9956 -3.40236)
(-171.978 89.5481 -204.81)
(-604.823 197.255 -541.52)
(3.79573 -50.7892 300.19)
(-509.822 346.526 -116.548)
(-263.85 108.148 46.4076)
(-182.145 46.4926 -528.433)
(-345.16 -85.1603 -63.0582)
(-548.863 -269.001 32.7238)
(-764.566 184.784 154.952)
(-147.092 -205.847 -71.9571)
(-492.442 -147.239 303.419)
(-409.968 194.321 0.0477359)
(-364.977 129.237 -627.206)
(-342.594 -136.589 192.041)
(-234.283 88.4647 -394.917)
(221.301 -34.3145 55.1604)
(-432.811 402.59 182.662)
(-316.967 -37.2315 -272.353)
(-246.083 -144.512 240.228)
(-224.358 -115.966 142.668)
(-295.099 -359.131 -164.179)
(-338.284 7.62016 562.123)
(-171.397 -606.471 -81.9794)
(1.69003 463.481 -93.1229)
(-545.286 150.008 236.012)
(-427.949 46.8144 -14.2656)
(-493.498 -220.5 -49.0708)
(-179.63 256.818 144.078)
(-391.646 -27.5562 387.718)
(-99.4822 165.005 169.591)
(-461.701 -162.981 -79.6642)
(-368.878 187.373 -288.813)
(-278.873 175.145 -4.41653)
(-235.391 40.3567 -95.2487)
(-547.472 144.152 71.4257)
(-809.155 57.3534 -308.788)
(-422.65 58.4231 -386.826)
(-137.372 -429.794 -131.565)
(-492.421 -364.959 -73.701)
(-431.044 -336.562 -37.2123)
(-311.762 38.7454 16.0723)
(-124.535 -351.707 250.266)
(-212.263 -268.699 -129.988)
(-252.575 319.585 264.084)
(-660.836 252.658 232.823)
(-297.817 -2.19666 382.251)
(-11.8004 57.5071 451.855)
(-251.359 -439.985 78.8942)
(10.0477 178.461 -82.7704)
(-5.40265 68.9053 576.331)
(-179.267 407.763 -139.959)
(-408.498 -215.776 -549.678)
(-471.226 -54.2191 -83.4846)
(-765.833 10.0134 -419.73)
(-10.5724 2.79033 51.9365)
(-554.516 -339.47 179.198)
(-84.6252 245.983 130.319)
(-687.498 -377.697 131.342)
(-578.528 -585.064 -390.002)
(-81.1307 35.3858 -633.229)
(-462.523 238.924 -324.626)
(-142.577 -288.03 -223.65)
(-484.13 -436.058 243.574)
(-339.059 170.152 -190.459)
(-18.7245 -31.5805 -42.218)
(-506.791 -358.807 102.932)
(-302.015 211.721 -455.031)
(193.558 -194.798 28.5586)
(-399.357 294.749 27.5708)
(-537.989 285.21 35.7489)
(-516.016 -38.4211 166.706)
(231.36 94.0637 566.86)
(-737.079 -179.086 -262.696)
(-215.728 434.96 -155.917)
(387.739 146.241 31.8626)
(-735.536 -192.196 -124.952)
(-548.314 -30.7818 -57.9301)
(-68.6888 -388.269 -354.802)
(-179.213 -116.919 -194.16)
(-350.577 62.4913 -57.8487)
(-167.356 0.562102 244.884)
(-576.057 -25.1896 -103.821)
(-245.169 -284.517 406.256)
(200.834 -278.855 -134.105)
(-515.627 -532.891 -21.7616)
(83.2861 145.032 -132.776)
(-248.847 -56.991 210.878)
(-146.649 60.9946 391.607)
(-486.841 241.238 93.8808)
(-227.207 -137.712 -63.6365)
(-285.44 -499.337 297.472)
(-315.792 -233.168 -136.475)
(38.8522 -84.2417 -3.32331)
(-407.918 261.716 -63.7204)
(-200.261 -56.9378 183.085)
(-36.89 212.864 -166.684)
(-298.868 -276.029 175.608)
(-672.731 -117.248 -181.957)
(-172.186 484.268 316.931)
(-226.048 315.246 -106.151)
(-134.351 -220.534 529.363)
(-234.676 -279.909 331.254)
(-372.022 89.7175 -82.3695)
(-207.795 233.764 363.657)
(188.036 -315.129 90.9292)
(-63.1484 350.248 207.032)
(-181.452 -315.231 -176.531)
(-344.227 -84.2846 57.5923)
(-498.277 -26.0706 -356.932)
(-506.697 -105.623 64.1037)
(-323.186 -65.0756 129.066)
(-676.064 -30.7767 -134.136)
(-372.858 188.382 49.1928)
(44.8 -17.2008 -156.011)
(-599.253 -493.764 -226.378)
(-56.8161 277.062 170.744)
(-634.222 -200.891 393.943)
(-336.255 -98.2942 7.99108)
(196.1 6.7003 47.6176)
(-421.82 160.017 114.138)
(-159.728 -208.92 -27.8819)
(-470.492 241.571 -48.5009)
(36.8224 -385.267 -144.958)
(-511.841 4.40476 -315.694)
(-18.2381 242.289 102.572)
(63.4156 -454.948 207.217)
(-238.681 -193.768 300.453)
(-182.433 -160.969 236.887)
(-468.622 224.07 362.753)
(-832.648 303.32 -156.754)
(-227.674 -23.4132 -179.012)
(-474.254 81.1335 -49.4737)
(-187.662 -544.079 -96.5891)
(-218.073 -305.737 -230.149)
(-453.567 -224.44 205.138)
(-33.573 -50.1411 95.0058)
(188.493 7.21705 -260.147)
(-410.487 -293.226 -266.569)
(-196.798 125.035 -79.127)
(-193.433 10.9698 -33.4203)
(-813.578 630.107 -32.836)
(0.603822 -54.2427 -241.907)
(-251.284 75.1095 40.4039)
(-54.5506 -264.833 -469.827)
(-667.275 -297.935 -236.335)
(-58.0031 -280.013 12.1964)
(-188.69 134.937 -118.833)
(-180.629 -235.7 -225.175)
(-121.513 -212.25 -462.33)
(-371.037 174.283 209.622)
(-367.709 367.689 195.677)
(11.3915 -386.487 -29.5069)
(-278.948 -230.646 -342.274)
(-84.3618 -121.48 43.3944)
(-145.253 -415.221 -399.66)
(-668.573 143.935 -200.694)
(-663.312 -158.547 -64.8486)
(-658.741 -60.5977 -124.412)
(29.8701 -406.869 130.552)
(-482.947 6.0674 -251.544)
(-232.132 368.936 -108.449)
(128.552 0.185454 -263.699)
(-465.471 -390.444 282.331)
(-299.442 296.944 320.943)
(-654.367 -325.452 385.088)
(-90.8399 209.13 -153.998)
(26.8447 176.265 -64.5589)
(-412.383 -350.061 345.26)
(-383.913 698.617 -152.413)
(-96.5356 215.752 177.697)
(143.174 223.827 144.051)
(-113.229 275.238 -264.984)
(-74.7285 324.915 146.381)
(143.105 -20.8074 -336.056)
(-549.942 198.011 -356.151)
(-386.38 199.031 493.168)
(15.3473 305.936 -35.744)
(-151.139 -222.075 164.701)
(-589.073 -49.0087 144.756)
(32.0833 -337.416 -122.617)
(-292.982 663.994 -64.6198)
(-173.933 -195.729 -88.1185)
(-367.729 153.819 -110.208)
(-742.937 148.357 -384.864)
(107.334 -367.912 106.44)
(-68.8551 -7.74845 -84.5897)
(165.098 139.005 32.2826)
(-137.745 55.6173 -66.4205)
(-149.557 -48.8403 -188.147)
(-298.9 -398.669 274.285)
(-330.059 -513.475 -59.6844)
(-211.538 245.89 6.0697)
(-544.599 -25.1443 115.032)
(99.4511 -23.0394 482.261)
(-460.342 156.765 -344.985)
(-264.736 111.236 -218.618)
(108.306 32.3059 65.9427)
(-78.6859 -57.8297 -272.255)
(-584.748 586.037 306.892)
(66.4423 58.6715 21.6574)
(-301.044 312.685 363.622)
(-589.593 -532.097 -201.901)
(-301.28 -5.11708 -54.4549)
(-362.707 85.7418 183.127)
(-762.578 116.563 140.654)
(-400.286 -282.873 -49.5761)
(-717.676 -238.469 -25.7807)
(-184.01 45.1799 -273.505)
(65.4916 142.555 -559.381)
(-302.09 197.296 -324.061)
(-115.313 64.2259 431.848)
(-453.765 -186.625 -198.168)
(-232.999 -244.381 104.782)
(-535.377 215.883 365.988)
(-270.074 -603.026 22.3279)
(61.2933 158.049 130.488)
(-536.628 -141.571 -163.331)
(-311.947 -65.9478 -46.6352)
(-175.469 -175.259 210.764)
(-561.375 -405.996 -64.1616)
(-456.93 -208.41 -151.693)
(-284.284 169.816 -58.6854)
(-619.487 181.248 -260.342)
(-702.767 343.735 -298.809)
(-354.332 -52.0042 -350.876)
(-96.2212 -163.391 -27.6369)
(-107.773 -23.7247 607.653)
(-188.563 150.867 -245.174)
(-532.46 -229.119 266.796)
(-388.398 566.068 258.711)
(-574.289 68.4554 335.799)
(-358.268 511.896 -282.754)
(-177.075 73.612 44.334)
(-100.908 -362.727 -246.685)
(-349.335 -87.1608 -175.854)
(-125.968 -302.879 332.711)
(-156.776 -182.254 -309.464)
(-124.093 -184.83 -424.776)
(-677.529 234.934 149.822)
(-86.9694 168.384 152.091)
(-290.036 -283.866 -252.834)
(-563.65 128.357 268.664)
(90.4883 249.374 264.083)
(-533.368 -36.9059 93.7074)
(-85.9829 242.721 345.837)
(120.033 -290.76 236.037)
(-656.95 103.555 70.4534)
(-421.51 51.0747 185.344)
(-501.281 184.874 15.7625)
(-463.754 -257.656 305.476)
(64.8398 -473.376 577.578)
(-334.428 265.331 -364.269)
(21.4574 473.827 -120.139)
(-553.881 419.622 313.086)
(-781.907 629.784 -214.711)
(-339.397 382.273 74.3704)
(-162.125 -308.396 104.777)
(-280.271 16.6647 -15.1925)
(-357.832 48.8895 152.87)
(-514.424 -214.921 161.448)
(265.496 -139.62 82.4276)
(-301.016 -90.6362 -120.585)
(-118.135 308.726 -84.4338)
(123.805 119.411 -97.0731)
(-434.565 -325.242 120.695)
(-670.859 -200.125 -54.6428)
(-276.836 -99.0924 290.591)
(-470.684 -90.3688 -118.108)
(-56.4984 144.388 -383.145)
(238.381 57.7469 502.384)
(-663.818 -32.1294 227.417)
(117.055 9.71663 -20.7538)
(-453.113 -142.583 -205.593)
(-290.055 -42.8169 -65.0775)
(-77.7056 58.6202 -277.489)
(-491.74 -238.843 -129.924)
(64.5779 291.517 -204.575)
(-422.325 105.679 -121.283)
(-187.151 -77.0755 81.7227)
(-259.21 -365.964 219.673)
(-90.7433 93.5123 -330.021)
(-323.601 -114.451 270.9)
(-754.699 -124.036 446.459)
(-439.105 65.0793 177.056)
(221.182 -340.806 186.925)
(-182.605 112.868 -115.881)
(-363.17 163.785 27.7482)
(-305.833 -65.8086 -220.569)
(-338.275 -230.553 -54.7664)
(-531.091 -174.293 -78.0667)
(-818.151 -253.873 -320.015)
(-191.871 126.445 150.613)
(-517.849 346.224 -80.5563)
(-275.355 -452.201 177.844)
(-856.901 48.3495 174.963)
(187.991 -184.051 -309.531)
(-559.199 66.0303 165.561)
(-128.029 326.85 295.627)
(-322.858 -240.444 -75.6935)
(-102.685 -112.423 225.137)
(-110.945 141.112 -7.38573)
(-70.1117 -146.209 -654.204)
(-92.2631 -328.609 10.7234)
(-173.391 12.394 -28.9571)
(-476.041 -11.1967 -91.9229)
(-301.563 115.308 -99.212)
(-452.163 -696.563 203.959)
(-137.468 -8.33376 -67.5495)
(-32.0805 -96.3095 252.351)
(-645.309 -34.6664 -178.776)
(-125.959 -150.101 -229.679)
(-103.252 136.22 209.004)
(-315.806 339.703 -137.147)
(-29.6108 2.82275 42.5294)
(-186.332 521.002 151.334)
(-550.003 185.749 -194.087)
(-624.975 324.882 -17.9174)
(-277.635 211.519 -230.467)
(-98.9065 -384.594 -231.168)
(-321.992 58.0929 213.225)
(-139.856 -94.5716 326.547)
(-623.194 -264.972 -469.443)
(-728.294 170.327 -318.316)
(-386.157 359.3 152.765)
(-48.6943 109.286 47.7995)
(-310.163 117.216 198.366)
(-406.022 -84.7053 55.9567)
(224.943 -88.2657 17.1977)
(-87.1793 -445.236 179.376)
(-310.76 -105.971 579.311)
(-448.361 -414.445 736.443)
(-230.039 212.489 117.169)
(-132.877 -158.313 177.399)
(-9.31779 324.831 154.395)
(-725.258 -289.61 8.21837)
(-289.567 438.064 -161.789)
(-401.285 -6.59887 -180.883)
(-638.486 -355.572 -93.6709)
(-117.637 39.0522 507.525)
(-505.667 -369.776 -383.743)
(-399.464 223.464 511.626)
(-411.453 4.76323 123.865)
(-413.484 406.581 -447.264)
(-432.171 265.36 -170.887)
(-317.628 258.561 -41.2255)
(-12.0594 -201.282 280.132)
(-668.125 119.61 373.323)
(-443.249 601.532 67.331)
(-276.228 -424.398 -216.678)
(-287.544 -309.25 306.608)
(279.071 -18.3133 -79.8163)
(-158.742 712.454 456.402)
(-454.385 -86.1332 71.7678)
(-670.189 -341.129 -342.17)
(-443.98 -387.794 36.593)
(184.962 179.693 35.4305)
(-439.924 -515.782 522.164)
(-134.071 -25.0686 178.411)
(-501.249 -11.3401 -419.125)
(103.368 -23.0592 159.837)
(70.7589 316.926 7.72036)
(-292.789 -47.2402 20.3274)
(-216.573 -47.6653 444.134)
(-267.666 -265.819 50.0518)
(-268.087 173.73 34.2222)
(60.7986 -224.644 37.1558)
(32.1426 -55.9756 -75.1216)
(-543.893 50.6132 205.145)
(-551.905 540.568 175.222)
(-577.138 451.514 287.401)
(257.572 -57.0488 142.903)
(334.054 198.639 241.705)
(-519.863 -92.4482 -13.2205)
(-75.9184 8.65072 -24.4332)
(-482.556 -209.668 41.6664)
(-481.462 -91.3654 -341.787)
(-105.295 22.8209 246.678)
(-260.853 393.13 -99.9234)
(-148.374 -155.634 510.369)
(-604.538 199.578 -182.541)
(97.4104 -0.27998 -174.011)
(5.01312 432.569 -41.1578)
(-157.775 -139.22 -13.0302)
(-89.447 522.348 150.033)
(-282.576 108.347 493.342)
(-495.328 -396.05 -78.9891)
(-448.846 -177.483 -613.058)
(-336.496 -226.459 99.0274)
(-81.7726 189.436 -52.1104)
(-419.338 -505.187 116.572)
(-34.4645 27.8411 -19.2507)
(64.8464 -316.295 -427.954)
(-1.03109 -125.329 645.633)
(-232.074 -789.113 911.035)
(-125.108 -89.6105 122.877)
(105.561 125.407 357.36)
(-214.331 -63.2614 184.63)
(-261.508 -17.2098 95.2772)
(241.794 287.361 -62.9273)
(143.884 107.079 109.684)
(-358.683 -36.249 237.727)
(-280.99 47.9007 -227.787)
(-375.553 -85.8334 -200.479)
(112.384 -183.369 257.627)
(-177.786 -15.1053 -301.45)
(-176.408 -286.648 -177.457)
(229.945 -346.97 -62.9694)
(-369.462 -10.2518 47.3543)
(-28.8303 279.937 361.106)
(-33.4943 185.461 -132.821)
(-270.282 221.497 333.578)
(-293.513 -90.0896 186.265)
(-311.724 -156.186 108.212)
(187.481 290.008 -276.222)
(-116.405 -418.885 45.8663)
(-503.281 -257.161 -298.857)
(-557.845 -417.722 79.259)
(-549.128 -15.0595 286.431)
(148.375 259.493 -145.592)
(159.367 -117.28 -477.314)
(-99.5368 -143.411 116.327)
(-163.086 -48.501 91.3337)
(-91.0006 -109.61 106.313)
(-128.294 2.81518 0.269893)
(86.3844 22.9606 -294.583)
(103.143 -82.6942 57.1867)
(-376.952 295.934 -22.2518)
(-216.709 -241.757 -89.1912)
(258.414 -183.118 -70.5)
(-293.865 236.2 -394.109)
(-14.1392 -195.28 244.382)
(-165.76 -104.363 -65.1828)
(-628.982 427.533 -197.08)
(-488.083 -120.736 -357.108)
(-386.86 -305.168 165.467)
(-777.148 70.9347 -86.9775)
(-279.734 352.314 271.218)
(-29.8942 -104.349 8.49707)
(-44.7487 -51.6402 -128.653)
(168.071 -196.967 -316.301)
(-447.227 -145.384 53.6388)
(-309.321 14.8548 115.159)
(-195.581 252.968 565.437)
(266.684 -94.4407 122.658)
(-236.305 -340.481 -75.0207)
(-342.048 337.315 116.065)
(-262.274 122.837 -22.4358)
(-404.446 556.902 -358.501)
(71.5972 -255.652 39.9388)
(-376.775 213.301 -214.505)
(10.1967 -216.212 153.808)
(-385.226 -348.045 248.943)
(-685.569 -199.159 -281.206)
(-235.446 -9.99097 -273.894)
(-436.088 80.9348 -94.4943)
(-275.504 188.309 -9.08918)
(-432.129 -124.004 -18.6592)
(-168.312 -4.10735 27.0294)
(-224.018 163.935 238.079)
(-57.3444 174.331 178.147)
(-142.01 -274.116 242.813)
(-205.859 -236.339 -305.041)
(-330.005 121.183 -113.809)
(-136.377 81.705 224.233)
(-62.7744 -124.195 186.137)
(-433.102 219.039 51.0541)
(-517.565 233.187 40.1414)
(-134.243 45.2605 65.8955)
(-601.459 75.0964 -852.813)
(-153.723 317.278 237.607)
(-654.912 -286.165 -23.2946)
(-734.906 66.313 24.8698)
(233.287 292.163 -52.0929)
(-123.584 290.222 260.727)
(-476.541 172.632 160.254)
(-472.561 -64.7096 -234.771)
(-662.237 325.703 194.138)
(25.6836 -227.619 -91.471)
(-754.866 578.021 342.167)
(-207.788 -5.26978 236.442)
(-137.223 56.0739 165.793)
(-172.176 545.775 -11.9382)
(-435.538 49.6078 -120.192)
(-67.0844 150.391 -274.06)
(-224.548 138.204 72.9357)
(219.806 103.712 -114.524)
(-151.126 -416.584 -321.876)
(-342.625 -195.14 1.2593)
(-69.1528 239.198 -223.368)
(-311.65 263.064 -243.908)
(-70.8714 -250.612 220.912)
(-541.971 298.044 181.178)
(-83.9169 404.785 -46.1041)
(-70.1096 -49.8875 -86.6352)
(-413.704 -236.896 181.887)
(-593.996 -52.3409 30.0637)
(-437.899 -140.536 -440.034)
(-120.45 311.097 -113.033)
(-453.925 492.107 -149.058)
(-64.0005 93.4611 -380.34)
(-138.658 -27.0018 223.741)
(-186.215 149.178 50.3476)
(-81.8812 -215.885 470.288)
(-58.0359 92.0891 330.212)
(-557.014 -245.572 -206.017)
(148.377 -12.3028 107.351)
(-200.952 41.338 114.246)
(-130.066 -166.475 370.683)
(-654.879 531.108 -197.576)
(5.09412 -128.779 179.019)
(-333.661 385.297 145.353)
(-191.283 -78.0835 276.545)
(-520.062 -3.06326 -30.5629)
(-403.824 342.724 341.339)
(-121.394 -206.035 -63.8864)
(-75.8657 244.684 167.034)
(-474.588 196.642 410.708)
(-181.045 -243.242 474.351)
(-458.661 -101.573 414.5)
(-629.304 290.884 -40.1331)
(96.1778 336.071 -122.573)
(-89.486 903.705 21.5053)
(-304.96 -272.603 162.213)
(323.611 294.513 -187.808)
(-476.221 331.233 103.052)
(-476.44 404.045 120.554)
(-69.3973 -386.007 227.587)
(-354.435 289.234 507.307)
(40.3163 311.484 -28.0643)
(-448.455 299.196 -170.744)
(-271.368 238.866 -36.0843)
(-1.81126 266.104 -11.4241)
(-124.754 360.678 -469.874)
(-339.514 399.55 61.8158)
(-689.92 332.37 -434.458)
(-777.512 245.659 -19.1992)
(-467.838 -153.373 -92.0842)
(-205.921 226.604 -288.384)
(-45.3733 177.547 591.826)
(-182.493 140.668 -201.239)
(220.422 93.5489 176.971)
(-249.885 231.894 149.252)
(-581.02 19.0242 125.989)
(160.311 -18.3045 197.197)
(-111.37 -295.118 319.526)
(38.7569 -477.983 -409.454)
(43.262 125.961 -168.506)
(-529.444 149.277 495.037)