/*--------------------------------*- C++ -*----------------------------------*\
  =========                 |
  \\      /  F ield         | OpenFOAM: The Open Source CFD Toolbox
   \\    /   O peration     | Website:  https://openfoam.org
    \\  /    A nd           | Version:  7
     \\/     M anipulation  |
\*---------------------------------------------------------------------------*/
FoamFile
{
    version     2.0;
    format      ascii;
    class       volScalarField;
    location    "0.00288";
    object      dsmcRhoN;
}
// * * * * * * * * * * * * * * * * * * * * * * * * * * * * * * * * * * * * * //

dimensions      [0 -3 0 0 0 0 0];

internalField   nonuniform List<scalar> 
125
(
255
249
274
230
256
205
219
218
236
216
247
258
234
226
234
244
221
229
206
238
223
226
224
229
223
222
225
196
197
228
198
205
199
203
228
203
215
202
181
190
206
166
198
190
174
209
168
192
186
165
197
200
182
197
174
186
161
160
161
171
176
162
180
177
161
151
144
169
148
166
180
154
157
150
137
136
144
128
147
168
157
140
139
150
139
148
145
135
127
138
118
132
129
140
137
108
133
119
142
112
135
122
119
118
134
131
124
128
135
124
136
121
130
130
118
110
135
132
128
130
148
133
126
125
129
)
;

boundaryField
{
    sides
    {
        type            symmetry;
    }
    empty
    {
        type            empty;
    }
    procBoundary1to0
    {
        type            processor;
        value           uniform 264;
    }
    procBoundary1to2
    {
        type            processor;
        value           uniform 133;
    }
}


// ************************************************************************* //
