/*--------------------------------*- C++ -*----------------------------------*\
  =========                 |
  \\      /  F ield         | OpenFOAM: The Open Source CFD Toolbox
   \\    /   O peration     | Website:  https://openfoam.org
    \\  /    A nd           | Version:  7
     \\/     M anipulation  |
\*---------------------------------------------------------------------------*/
FoamFile
{
    version     2.0;
    format      ascii;
    class       volScalarField;
    location    "0.00288";
    object      internalE;
}
// * * * * * * * * * * * * * * * * * * * * * * * * * * * * * * * * * * * * * //

dimensions      [1 -1 -2 0 0 0 0];

internalField   nonuniform List<scalar> 
125
(
1105.53
1211.5
1214.78
958.871
1094.5
994.685
967.08
895.723
1150.4
880.035
1135.6
986.793
960.376
921.583
905.277
849.84
830.761
973.236
972.15
1088.19
1027.07
824.61
959.432
894.815
813.932
1048.8
920.663
935.812
888.468
904.247
740.055
790.988
768.022
809.187
759.59
737.499
708.227
732.941
819.103
824.115
791.699
776.744
695.869
845.308
652.469
819.426
784.554
636.625
687.383
643.225
609.15
671.331
657.083
679.866
650.701
683.491
573.585
703.612
671.92
680.185
596.807
648.009
679.64
676.369
626.489
579.282
613.98
528.636
548.258
687.105
519.185
547.009
514.432
559.62
519.442
594.709
504.681
571.396
445.039
564.925
567.877
529.7
546.363
473.572
498.404
477.954
475.577
537.479
492.381
463.035
494.413
479.186
378.709
445.06
445.507
405.284
415.421
500.615
458.471
433.162
364.11
455.487
505.459
472.983
418.003
358.906
450.741
359.211
403.324
407.908
448.051
461.826
513.268
363.666
427.789
347.405
513.116
465.373
378.183
498.418
381.307
385.632
310.697
425.235
569.739
)
;

boundaryField
{
    sides
    {
        type            symmetry;
    }
    empty
    {
        type            empty;
    }
    procBoundary1to0
    {
        type            processor;
        value           uniform 1081.16;
    }
    procBoundary1to2
    {
        type            processor;
        value           uniform 578.711;
    }
}


// ************************************************************************* //
