/*--------------------------------*- C++ -*----------------------------------*\
  =========                 |
  \\      /  F ield         | OpenFOAM: The Open Source CFD Toolbox
   \\    /   O peration     | Website:  https://openfoam.org
    \\  /    A nd           | Version:  7
     \\/     M anipulation  |
\*---------------------------------------------------------------------------*/
FoamFile
{
    version     2.0;
    format      ascii;
    class       volVectorField;
    location    "0.00288";
    object      momentum;
}
// * * * * * * * * * * * * * * * * * * * * * * * * * * * * * * * * * * * * * //

dimensions      [1 -2 -1 0 0 0 0];

internalField   nonuniform List<vector> 
125
(
(0.0627375 0.264455 -0.0305972)
(0.16732 -0.0913987 0.0402812)
(0.102576 0.0125229 0.00493592)
(-0.108706 -0.096053 0.0257411)
(0.190306 -0.0615277 0.0794231)
(0.101369 -0.142646 0.10064)
(0.149726 0.00926052 -0.0392694)
(0.200844 0.133031 -0.212282)
(0.0826679 -0.0948995 -0.0103044)
(0.231238 -0.0853256 0.147217)
(0.231624 -0.0651749 -0.298216)
(0.271661 -0.0897463 -0.123049)
(0.229626 0.015601 0.113345)
(0.365093 -0.158732 0.21062)
(0.447171 0.00600551 -0.0128378)
(0.195974 0.0754049 0.0543685)
(0.24371 -0.136497 0.115619)
(0.367501 0.273925 0.0969454)
(0.252664 -0.247008 -0.0178685)
(0.29561 -0.0843794 -0.0591687)
(0.393792 0.0866254 -0.204344)
(0.361658 -0.0817197 0.13447)
(0.352503 -0.162319 -0.211204)
(0.346515 -0.189424 0.0805381)
(0.365006 0.0231882 -0.0914861)
(0.49618 -0.0169289 0.0782581)
(0.54449 -0.102295 0.312108)
(0.305129 0.256806 -0.0843094)
(0.433444 -0.0270703 0.0761011)
(0.371249 0.0758231 0.152083)
(0.282532 0.220191 0.206233)
(0.382008 -0.00739714 -0.125681)
(0.47407 0.0605945 0.06059)
(0.339474 -0.12734 -0.0276011)
(0.630497 -0.0991372 0.11139)
(0.382683 -0.175899 0.0760835)
(0.515297 0.0737721 0.156536)
(0.595508 -0.0204987 -0.074074)
(0.409234 -0.189003 -0.027113)
(0.553517 0.13021 0.117517)
(0.352222 -0.158427 0.185825)
(0.459758 0.0318294 -0.0760294)
(0.573071 -0.0958029 -0.199424)
(0.46534 0.101025 -0.0880672)
(0.669672 -0.0210664 0.00272738)
(0.661424 0.113995 -0.0411292)
(0.674755 -0.0750341 -0.0377047)
(0.698635 -0.124647 0.14916)
(0.545555 0.118068 -0.294263)
(0.664574 -0.0461557 -0.0420529)
(0.761787 -0.0696605 -0.0829481)
(0.636352 -0.0128259 0.0284915)
(0.491108 -0.0858904 0.0053185)
(0.668623 0.105522 -0.0726604)
(0.648446 -0.00672615 0.0734666)
(0.843336 0.329618 -0.22005)
(0.440591 0.0780769 0.111715)
(0.683867 -0.0699797 -0.0495376)
(0.612597 -0.0317241 -0.082126)
(0.589798 0.126007 -0.281854)
(0.723401 0.12118 -0.13165)
(0.622549 0.0148581 -0.0999898)
(0.786757 0.104211 0.0357693)
(0.733061 -0.126335 0.130307)
(0.649055 -0.00635008 0.115605)
(0.71358 -0.108632 -0.123661)
(0.709153 0.0403129 0.0768915)
(0.860173 -0.0652724 -0.111162)
(0.652923 -0.0911077 0.0786223)
(0.725107 0.064652 0.0026051)
(0.917254 -0.0393689 -0.191463)
(0.711548 -0.106658 -0.06284)
(0.808036 0.157073 0.0312033)
(0.748216 0.0648781 0.177243)
(0.602947 0.0344734 0.0805225)
(0.744487 0.127482 0.0890023)
(0.746417 -0.0298041 -0.0172341)
(0.614744 -0.0407748 0.0121641)
(0.735427 0.0824333 -0.0283515)
(0.751768 -0.130039 0.00333843)
(0.788412 0.014739 0.00602918)
(0.942587 0.0335145 0.15611)
(0.706613 0.0753142 0.119919)
(0.64186 -0.0186751 -0.0487319)
(0.935495 -0.0597926 -0.000104779)
(0.766944 0.0571506 0.100108)
(0.818385 0.0904424 0.195303)
(0.795675 0.105673 -0.0210418)
(0.744555 -0.0646385 -0.0558524)
(0.878394 0.058263 0.077565)
(0.723033 0.0240326 -0.0413772)
(0.684607 -0.0825837 0.0139507)
(0.850004 0.131909 -0.0364855)
(0.891603 -0.0462065 -0.0646864)
(0.789271 0.219646 0.0230479)
(0.675684 0.149095 0.00356834)
(0.920503 -0.0589784 0.0546692)
(0.624678 -0.0398772 0.0339319)
(0.89097 -0.0711248 0.0561464)
(0.528405 0.0605064 0.0151197)
(0.779994 -0.0104257 -0.0730638)
(0.923656 0.0297034 -0.064584)
(0.764684 -0.116339 0.000978306)
(0.588035 0.02657 -0.11595)
(0.79339 -0.198627 -0.0753338)
(0.995465 0.0552753 -0.148576)
(0.852232 0.116025 0.0441277)
(0.808717 0.0693832 0.133874)
(0.98847 0.000595687 0.0222991)
(0.805368 -0.0530652 -0.0572912)
(0.949228 -0.0509081 0.16553)
(0.764683 0.0623571 -0.0460787)
(0.839981 -0.0205074 -0.0173839)
(0.821045 0.0346374 0.0445689)
(0.644364 -0.0628911 -0.0062165)
(0.722474 -0.0174857 -0.0495268)
(0.879194 0.0506981 -0.0913403)
(0.83174 -0.0668345 0.076848)
(0.856354 0.137105 0.0267337)
(0.85808 0.0744772 -0.170167)
(1.00121 -0.0896108 0.107326)
(0.841421 -0.161347 0.175257)
(0.597003 0.0577003 0.105134)
(0.773523 -0.0248888 0.0599286)
(0.884077 0.061037 0.0849253)
)
;

boundaryField
{
    sides
    {
        type            symmetry;
    }
    empty
    {
        type            empty;
    }
    procBoundary1to0
    {
        type            processor;
        value           uniform (0.14358 0.158661 -0.155036);
    }
    procBoundary1to2
    {
        type            processor;
        value           uniform (0.841464 -0.0297235 -0.160385);
    }
}


// ************************************************************************* //
