/*--------------------------------*- C++ -*----------------------------------*\
  =========                 |
  \\      /  F ield         | OpenFOAM: The Open Source CFD Toolbox
   \\    /   O peration     | Website:  https://openfoam.org
    \\  /    A nd           | Version:  7
     \\/     M anipulation  |
\*---------------------------------------------------------------------------*/
FoamFile
{
    version     2.0;
    format      ascii;
    class       volVectorField;
    location    "0.00288";
    object      momentum;
}
// * * * * * * * * * * * * * * * * * * * * * * * * * * * * * * * * * * * * * //

dimensions      [1 -2 -1 0 0 0 0];

internalField   nonuniform List<vector> 
125
(
(0.117807 0.0656017 0.114609)
(0.213095 -0.242286 0.196635)
(0.00340108 -0.0899296 0.0832872)
(0.0815489 -0.242978 -0.150969)
(0.24193 0.0589727 0.00656858)
(0.0857387 0.0133708 0.0753069)
(0.201657 0.285367 -0.190795)
(0.220828 0.0706764 0.287352)
(0.126865 -0.123368 0.12121)
(-0.0300066 -0.0605381 -0.103403)
(0.310693 0.15028 -0.160755)
(0.349055 -0.229565 0.12343)
(0.299149 -0.0105355 -0.159074)
(0.34111 -0.0828043 0.113518)
(0.145188 -0.156357 0.0765267)
(0.148862 -0.033 -0.0090654)
(0.249635 -0.00611543 -0.0477161)
(0.241083 0.131397 0.110849)
(0.445902 -0.0397711 0.0631104)
(0.306246 0.0693082 0.0318478)
(0.429506 0.00186819 -0.0471148)
(0.289203 0.205835 0.0145195)
(0.060491 -0.00881085 -0.00645855)
(0.555121 -0.0960882 0.028792)
(0.440736 0.00241964 -0.0660562)
(0.418715 0.0745698 -0.0362118)
(0.668651 0.0221988 0.0493719)
(0.555803 -0.0183225 0.112488)
(0.483194 0.0649473 -0.21629)
(0.645427 0.0688502 0.0252867)
(0.357632 -0.0999231 -0.0413875)
(0.260723 -0.0945301 0.083205)
(0.438991 0.0172189 0.0736697)
(0.443884 0.144372 0.0886957)
(0.48847 -0.0683743 -0.138508)
(0.519242 -0.108819 0.0520012)
(0.385432 -0.000922902 0.0185641)
(0.516643 0.0387592 -0.126523)
(0.539961 0.0389338 -0.121666)
(0.556644 -0.187801 -0.107019)
(0.712486 -0.200234 0.0700768)
(0.472269 0.194734 0.118737)
(0.525409 0.147073 0.204135)
(0.596018 0.0106694 -0.089613)
(0.282672 -0.0126685 0.058737)
(0.817514 0.00886129 -0.283258)
(0.391032 -0.286473 -0.10377)
(0.506969 -0.00791059 0.232124)
(0.691847 -0.0635504 0.0166615)
(0.67088 0.092965 -0.186319)
(0.368624 -0.0975005 -0.147169)
(0.759885 0.0297069 -0.179193)
(0.531818 0.105107 0.0713647)
(0.52823 0.0352126 -0.10064)
(0.692903 -0.0238886 -0.0332813)
(0.721186 0.039584 0.0560287)
(0.549749 0.0119772 0.0774712)
(0.547675 -0.024101 0.0099996)
(0.76309 0.109163 -0.147563)
(0.832298 -0.0327675 0.0592491)
(0.648842 0.0188802 0.0244895)
(0.735105 -0.0768434 0.133391)
(0.847856 -0.0221989 -0.175106)
(0.85199 -0.0157534 -0.0215383)
(0.624964 0.0708217 -0.0545616)
(0.587411 0.000725998 0.0828118)
(0.642354 -0.0413338 0.156713)
(0.677354 0.0897213 0.0657293)
(0.674328 0.0235945 0.0289481)
(0.758596 -0.00771653 0.0301048)
(0.653123 0.0678774 -0.0319889)
(0.648791 -0.00151379 -0.0918511)
(0.585143 -0.0278074 0.0170735)
(0.969491 0.0786523 0.0330937)
(0.631698 0.0216032 -0.00925399)
(0.765947 0.240338 0.13212)
(0.849638 -0.116612 -0.0457373)
(0.632425 -0.10099 -0.105226)
(0.893959 0.0481692 -0.029371)
(0.684464 -0.0224215 -0.00739738)
(0.726717 0.0175545 0.273126)
(0.739476 -0.0313747 -0.00838977)
(0.689418 -0.196393 0.26069)
(0.887453 0.108681 0.0472147)
(0.844136 -0.125458 0.0179544)
(0.866734 -0.0209483 -0.19081)
(0.734174 0.0267087 -0.0480994)
(0.787049 0.0706624 0.0432484)
(0.916372 0.190677 -0.125578)
(0.894786 -0.166271 0.0244828)
(0.794588 0.0410177 -0.020708)
(0.694474 0.105491 0.0348915)
(0.733565 -0.050137 0.0342188)
(0.940515 0.113515 -0.0309858)
(0.895301 -0.158592 -0.0304032)
(0.776069 0.132717 0.0488993)
(0.884634 -0.0598127 0.114886)
(0.880837 -0.0251593 -0.0143123)
(0.813152 -0.103202 -0.0624907)
(0.820958 -0.0870733 0.0693887)
(0.809575 0.0339868 0.0131609)
(0.746367 -0.0293908 -0.0117647)
(0.765689 0.0179429 -0.0248705)
(0.662449 -0.172456 -0.0813191)
(0.696836 -0.0995626 -0.0115219)
(0.612136 -0.0224726 -0.0509119)
(0.922114 0.0170763 -0.0885638)
(0.731142 0.0375639 0.0219804)
(0.753626 0.0462171 0.102307)
(0.809153 -0.0772865 0.00353038)
(0.691657 0.0169301 -0.091203)
(0.889924 -0.0808456 -0.00730442)
(1.01735 0.0226545 -0.135277)
(0.757798 0.090565 -0.0305898)
(0.853083 -0.0153296 -0.226895)
(0.796436 0.00765776 -0.00359226)
(1.02485 0.175572 0.129877)
(0.984844 0.0710191 0.0562844)
(0.706644 0.0694521 0.0694764)
(1.06255 0.162226 0.0995761)
(0.851904 -0.0228181 -0.0596173)
(0.731891 -0.0309514 0.119523)
(0.675719 0.0457007 -0.0300233)
(0.898906 -0.0198807 -0.156027)
(0.831089 0.0200471 0.0483602)
)
;

boundaryField
{
    sides
    {
        type            symmetry;
    }
    empty
    {
        type            empty;
    }
    procBoundary1to0
    {
        type            processor;
        value           uniform (0.277233 0.18275 -0.0150221);
    }
    procBoundary1to2
    {
        type            processor;
        value           uniform (0.874054 0.00911156 0.0768766);
    }
}


// ************************************************************************* //
