/*--------------------------------*- C++ -*----------------------------------*\
  =========                 |
  \\      /  F ield         | OpenFOAM: The Open Source CFD Toolbox
   \\    /   O peration     | Website:  https://openfoam.org
    \\  /    A nd           | Version:  7
     \\/     M anipulation  |
\*---------------------------------------------------------------------------*/
FoamFile
{
    version     2.0;
    format      ascii;
    class       volScalarField;
    location    "0.00288";
    object      rhoN;
}
// * * * * * * * * * * * * * * * * * * * * * * * * * * * * * * * * * * * * * //

dimensions      [0 -3 0 0 0 0 0];

internalField   nonuniform List<scalar> 
125
(
9.14286e+22
9.03571e+22
9.92857e+22
8.5e+22
8.71429e+22
8.92857e+22
8.75e+22
7.5e+22
8.57143e+22
7.64286e+22
8.71429e+22
8.10714e+22
8.67857e+22
8.21429e+22
7.64286e+22
7.53571e+22
7.92857e+22
7.53571e+22
7.67857e+22
8.60714e+22
8.32143e+22
7.10714e+22
8.07143e+22
8.32143e+22
6.60714e+22
8.96429e+22
8.25e+22
8.10714e+22
7.85714e+22
8.03571e+22
6.5e+22
6.92857e+22
6.89286e+22
7.32143e+22
7.17857e+22
6.71429e+22
6.85714e+22
7e+22
7.35714e+22
6.78571e+22
6.64286e+22
7.35714e+22
6.82143e+22
7.57143e+22
6.17857e+22
7.53571e+22
7.07143e+22
5.96429e+22
6.42857e+22
6.71429e+22
5.64286e+22
6.46429e+22
5.85714e+22
6.25e+22
6.85714e+22
6.10714e+22
5.57143e+22
6e+22
6.57143e+22
6.5e+22
5.46429e+22
5.75e+22
6.57143e+22
6.25e+22
6.07143e+22
5.64286e+22
5.82143e+22
5.42857e+22
5.42857e+22
6.21429e+22
5.03571e+22
5.32143e+22
5.17857e+22
5.75e+22
5.28571e+22
5.60714e+22
5.17857e+22
5.03571e+22
4.89286e+22
5.82143e+22
5.85714e+22
5.17857e+22
5.42857e+22
5.07143e+22
5.21429e+22
5.42857e+22
4.39286e+22
5.07143e+22
5.17857e+22
4.92857e+22
4.96429e+22
4.42857e+22
3.89286e+22
5e+22
4.67857e+22
4.75e+22
4.78571e+22
5.32143e+22
4.85714e+22
4.39286e+22
4.32143e+22
4.75e+22
4.71429e+22
4.32143e+22
4.10714e+22
3.96429e+22
4.75e+22
3.57143e+22
4.5e+22
4.57143e+22
4.32143e+22
4.39286e+22
4.89286e+22
4.03571e+22
5.07143e+22
4.07143e+22
4.96429e+22
5e+22
4.39286e+22
5.39286e+22
4.42857e+22
4.17857e+22
3.78571e+22
5.07143e+22
5.17857e+22
)
;

boundaryField
{
    sides
    {
        type            symmetry;
    }
    empty
    {
        type            empty;
    }
    procBoundary1to0
    {
        type            processor;
        value           uniform 9.03571e+22;
    }
    procBoundary1to2
    {
        type            processor;
        value           uniform 4.82143e+22;
    }
}


// ************************************************************************* //
