/*--------------------------------*- C++ -*----------------------------------*\
  =========                 |
  \\      /  F ield         | OpenFOAM: The Open Source CFD Toolbox
   \\    /   O peration     | Website:  https://openfoam.org
    \\  /    A nd           | Version:  7
     \\/     M anipulation  |
\*---------------------------------------------------------------------------*/
FoamFile
{
    version     2.0;
    format      ascii;
    class       volScalarField;
    location    "0.1";
    object      alpha.water;
}
// * * * * * * * * * * * * * * * * * * * * * * * * * * * * * * * * * * * * * //

dimensions      [0 0 0 0 0 0 0];

internalField   nonuniform List<scalar> 
1915
(
5.08291e-09
5.08859e-09
6.35857e-09
4.16229e-09
3.8474e-09
2.36495e-09
1.9673e-09
1.20344e-09
1.0127e-09
6.54284e-10
5.48509e-10
3.8613e-10
3.2682e-10
2.37048e-10
4.06468e-10
1.81303e-10
4.92955e-10
1.63209e-10
4.73931e-10
1.52993e-10
8.34804e-27
7.84723e-27
4.02675e-27
8.54761e-28
6.30243e-29
1.60782e-30
6.68865e-32
4.1673e-33
3.35034e-34
5.28192e-35
6.34439e-36
7.56474e-37
8.56726e-38
7.3031e-39
5.51434e-40
4.06909e-41
2.91954e-42
2.01693e-43
1.33726e-44
8.48679e-46
5.13976e-47
2.96061e-48
1.61642e-49
8.33437e-51
4.04253e-52
1.83673e-53
7.77955e-55
3.05423e-56
1.10371e-57
3.63896e-59
1.08208e-60
2.85756e-62
6.56114e-64
1.27121e-65
1.98981e-67
2.35568e-69
1.89744e-71
8.65541e-74
1.49502e-76
3.12808e-77
2.57103e-26
2.73694e-25
2.98545e-25
8.34741e-26
4.86106e-27
9.67979e-29
2.13917e-30
6.68865e-32
7.71314e-33
9.49832e-34
2.56638e-34
3.80875e-35
3.88214e-36
3.02685e-37
2.15733e-38
1.50802e-39
1.02439e-40
6.70187e-42
4.21015e-43
2.53364e-44
1.4569e-45
7.98329e-47
4.15649e-48
2.04955e-49
9.53655e-51
4.1697e-52
1.70476e-53
6.47892e-55
2.2724e-56
7.28904e-58
2.11349e-59
5.45549e-61
1.22809e-62
2.34324e-64
3.63815e-66
4.3234e-68
3.5658e-70
1.7296e-72
3.42575e-75
3.12808e-77
4.66091e-24
2.24971e-23
1.86665e-23
3.7494e-24
2.02859e-25
4.67163e-27
1.47834e-28
6.21542e-30
4.71176e-31
4.56422e-32
8.24641e-33
9.38714e-34
8.56631e-35
6.09769e-36
3.99096e-37
2.56374e-38
1.60087e-39
9.63824e-41
5.57846e-42
3.09643e-43
1.64427e-44
8.33183e-46
4.01768e-47
1.838e-48
7.9492e-50
3.23698e-51
1.23511e-52
4.39062e-54
1.44402e-55
4.35626e-57
1.19248e-58
2.92111e-60
6.28704e-62
1.15963e-63
1.76932e-65
2.1171e-67
1.81894e-69
9.45203e-72
2.29235e-74
2.08015e-75
2.82083e-22
1.04396e-21
6.90933e-22
1.07465e-22
5.55027e-24
1.70695e-25
5.63044e-27
2.63561e-28
1.78973e-29
1.63774e-30
1.84444e-31
1.75674e-32
1.37362e-33
8.77658e-35
5.282e-36
3.11997e-37
1.79071e-38
9.92181e-40
5.29138e-41
2.70922e-42
1.32838e-43
6.2214e-45
2.77565e-46
1.17609e-47
4.71659e-49
1.78318e-50
6.32594e-52
2.09422e-53
6.42729e-55
1.81411e-56
4.66264e-58
1.07769e-59
2.20382e-61
3.90041e-63
5.78991e-65
6.86882e-67
5.98548e-69
3.38095e-71
1.17206e-73
2.39461e-74
9.87835e-21
3.293e-20
1.78154e-20
2.24559e-21
1.12187e-22
4.30813e-24
1.62085e-25
7.70249e-27
5.20277e-28
3.96664e-29
3.3043e-30
2.70657e-31
1.79795e-32
1.0341e-33
5.75213e-35
3.13696e-36
1.66122e-37
8.50126e-39
4.19183e-40
1.98613e-41
9.01889e-43
3.91475e-44
1.61982e-45
6.36993e-47
2.37269e-48
8.33877e-50
2.75277e-51
8.49109e-53
2.43214e-54
6.42113e-56
1.54835e-57
3.37126e-59
6.52982e-61
1.10245e-62
1.57493e-64
1.81466e-66
1.53397e-68
1.04768e-70
4.12854e-73
1.28475e-73
2.39388e-19
7.63131e-19
3.48002e-19
3.66346e-20
1.77144e-21
8.25438e-23
3.75414e-24
1.88303e-25
1.13359e-26
7.51957e-28
4.99971e-29
3.50221e-30
2.00915e-31
1.05748e-32
5.47853e-34
2.77612e-35
1.36507e-36
6.49076e-38
2.97569e-39
1.31163e-40
5.54367e-42
2.24067e-43
8.63665e-45
3.16514e-46
1.09919e-47
3.60357e-49
1.11045e-50
3.20023e-52
8.57478e-54
2.1211e-55
4.80227e-57
9.84333e-59
1.8004e-60
2.87932e-62
3.89964e-64
4.2707e-66
4.14215e-68
2.91972e-70
1.19284e-72
4.687e-73
5.01386e-18
1.44048e-17
5.62469e-18
4.87551e-19
2.2342e-20
1.14422e-21
6.0779e-23
3.29031e-24
1.85097e-25
1.05919e-26
6.3406e-28
3.68449e-29
1.91162e-30
9.48751e-32
4.61672e-33
2.1904e-34
1.00832e-35
4.48939e-37
1.92766e-38
7.95994e-40
3.1524e-41
1.19411e-42
4.31423e-44
1.4822e-45
4.82638e-47
1.48401e-48
4.29064e-50
1.16083e-51
2.92214e-53
6.79741e-55
1.44882e-56
2.79863e-58
4.82602e-60
7.25075e-62
9.64285e-64
1.15001e-65
1.11236e-67
7.69217e-70
3.0551e-72
1.40609e-72
1.30611e-16
2.65046e-16
7.89427e-17
5.30649e-18
2.35449e-19
1.25998e-20
6.973e-22
3.78754e-23
2.0259e-24
1.09996e-25
6.12121e-27
3.17212e-28
1.54204e-29
7.29012e-31
3.36615e-32
1.51154e-33
6.57974e-35
2.76889e-36
1.12336e-37
4.38202e-39
1.63912e-40
5.86348e-42
2.00028e-43
6.48814e-45
1.99446e-46
5.78932e-48
1.58027e-49
4.03709e-51
9.59809e-53
2.10907e-54
4.24602e-56
7.73519e-58
1.25329e-59
1.93869e-61
2.65992e-63
3.10794e-65
2.91963e-67
1.95789e-69
6.66691e-72
3.8264e-72
3.91756e-15
3.80197e-15
7.00781e-16
3.97963e-17
1.98657e-18
1.12974e-19
6.36144e-21
3.45125e-22
1.81684e-23
9.38095e-25
4.81249e-26
2.34287e-27
1.09767e-28
5.00509e-30
2.21871e-31
9.53896e-33
3.96897e-34
1.59449e-35
6.16977e-37
2.29365e-38
8.17126e-40
2.78234e-41
9.03023e-43
2.78532e-44
8.13845e-46
2.24459e-47
5.81935e-49
1.41147e-50
3.18451e-52
6.63498e-54
1.26307e-55
2.28003e-57
3.82033e-59
5.771e-61
7.67295e-63
8.68282e-65
7.88316e-67
5.07674e-69
1.32884e-71
9.8359e-72
4.98628e-14
1.9881e-14
2.50524e-15
1.55921e-16
9.52466e-18
5.91871e-19
3.5104e-20
1.96233e-21
1.04043e-22
5.37575e-24
2.68528e-25
1.28915e-26
5.97596e-28
2.68072e-29
1.16338e-30
4.87993e-32
1.97565e-33
7.70625e-35
2.89031e-36
1.04011e-37
3.58305e-39
1.17878e-40
3.69412e-42
1.09978e-43
3.10108e-45
8.25415e-47
2.06597e-48
4.84087e-50
1.05622e-51
2.13118e-53
3.93841e-55
6.68896e-57
1.08517e-58
1.59325e-60
2.05753e-62
2.26147e-64
1.9888e-66
1.23219e-68
4.2932e-71
2.5136e-71
3.7717e-10
1.49815e-10
2.21941e-10
1.20772e-10
9.01591e-11
6.48698e-11
2.78941e-11
2.07807e-11
7.29645e-12
4.91651e-12
1.73777e-12
1.03632e-12
3.9225e-13
2.09278e-13
8.68709e-14
4.13813e-14
1.95282e-14
8.18013e-15
4.5954e-15
1.68697e-15
2.50148e-16
5.65399e-17
1.71324e-17
5.55678e-18
1.83043e-18
6.11489e-19
2.06719e-19
7.00714e-20
2.3541e-20
7.75323e-21
2.48009e-21
7.64616e-22
2.25752e-22
6.34706e-23
1.69017e-23
4.24026e-24
9.96879e-25
2.18438e-25
4.4365e-26
8.30448e-27
1.42461e-27
2.2278e-28
3.16311e-29
4.22265e-11
8.36812e-12
1.76291e-12
4.94743e-13
4.80959e-11
1.5728e-11
4.55728e-12
1.17042e-12
3.31967e-11
1.19193e-11
3.09813e-12
6.5343e-13
1.20334e-11
4.59003e-12
1.16326e-12
2.24191e-13
2.76516e-12
1.09247e-12
2.91471e-13
5.8502e-14
5.41176e-13
2.14833e-13
6.05735e-14
1.29251e-14
1.01227e-13
3.96284e-14
1.15526e-14
2.59141e-15
1.85035e-14
7.06247e-15
2.09562e-15
4.88535e-16
3.35e-15
1.23464e-15
3.68336e-16
8.82944e-17
6.19922e-16
2.15792e-16
6.36336e-17
1.55028e-17
1.0049e-16
3.77362e-17
1.1152e-17
2.69547e-18
1.78676e-17
6.38671e-18
1.89493e-18
4.61568e-19
3.92019e-18
1.15181e-18
3.20913e-19
7.78418e-20
1.02684e-18
2.40026e-19
5.819e-20
1.33441e-20
2.98832e-19
5.81405e-20
1.18838e-20
2.43718e-21
9.18561e-20
1.57641e-20
2.75893e-21
4.91873e-22
2.89971e-20
4.57048e-21
7.10157e-22
1.10681e-22
9.24385e-21
1.36665e-21
1.94826e-22
2.72279e-23
2.93711e-21
4.1136e-22
5.49407e-23
7.07407e-24
9.19295e-22
1.2261e-22
1.55143e-23
1.87649e-24
2.80508e-22
3.57471e-23
4.31055e-24
4.95386e-25
8.2715e-23
1.00945e-23
1.16402e-24
1.27914e-25
2.34e-23
2.73865e-24
3.02669e-25
3.19218e-26
6.31154e-24
7.08952e-25
7.52078e-26
7.63144e-27
1.61395e-24
1.74061e-25
1.77435e-26
1.73534e-27
3.89175e-25
4.03059e-26
3.9518e-27
3.73062e-28
8.80293e-26
8.75629e-27
8.2646e-28
7.5414e-29
1.85818e-26
1.77554e-27
1.61493e-28
1.42648e-29
3.64159e-27
3.34382e-28
2.9346e-29
2.51345e-30
6.59218e-28
5.82067e-29
4.93734e-30
4.10861e-31
1.09693e-28
9.32333e-30
7.66037e-31
6.20843e-32
1.67034e-29
1.36867e-30
1.09226e-31
8.64632e-33
2.31997e-30
1.83601e-31
1.42784e-32
1.10759e-33
1.76345e-13
3.41152e-14
3.68673e-15
2.98826e-16
2.17843e-17
1.4892e-18
9.54057e-20
5.7157e-21
3.24045e-22
1.75149e-23
9.00512e-25
4.42571e-26
2.08778e-27
9.46899e-29
4.13147e-30
1.73402e-31
6.99634e-33
2.71075e-34
1.00719e-35
3.58294e-37
1.21816e-38
3.95061e-40
1.21958e-41
3.57564e-43
9.93125e-45
2.60588e-46
6.43945e-48
1.4932e-49
3.23522e-51
6.51483e-53
1.21099e-54
2.05951e-56
3.17124e-58
4.33448e-60
5.10199e-62
4.90165e-64
3.86571e-66
2.28672e-68
1.05639e-70
6.11321e-71
2.54391e-13
3.50582e-14
3.73016e-15
3.40607e-16
2.74867e-17
2.03744e-18
1.41004e-19
9.12374e-21
5.4987e-22
3.1078e-23
1.66546e-24
8.50516e-26
4.1481e-27
1.93484e-28
8.63789e-30
3.69164e-31
1.50994e-32
5.90694e-34
2.20817e-35
7.87929e-37
2.68018e-38
8.67817e-40
2.67027e-41
7.79382e-43
2.15355e-44
5.62085e-46
1.3823e-47
3.19373e-49
6.91022e-51
1.39449e-52
2.60889e-54
4.49088e-56
7.04964e-58
9.95079e-60
1.23616e-61
1.30626e-63
1.11566e-65
7.0036e-68
2.67645e-70
9.18059e-71
1.18721e-13
1.43408e-14
1.54706e-15
1.54229e-16
1.35502e-17
1.07867e-18
7.87768e-20
5.37965e-21
3.47985e-22
2.11695e-23
1.21085e-24
6.53849e-26
3.34448e-27
1.6243e-28
7.50283e-30
3.29973e-31
1.38258e-32
5.51987e-34
2.09949e-35
7.60375e-37
2.62023e-38
8.5826e-40
2.66922e-41
7.87132e-43
2.19739e-44
5.79664e-46
1.44206e-47
3.37555e-49
7.41256e-51
1.52201e-52
2.91403e-54
5.17958e-56
8.46908e-58
1.26052e-59
1.68164e-61
1.96376e-63
1.93187e-65
1.49917e-67
7.90266e-70
4.63266e-71
3.77917e-14
4.45299e-15
4.88281e-16
4.98368e-17
4.48516e-18
3.64027e-19
2.74938e-20
1.95862e-21
1.31445e-22
8.31558e-24
4.96974e-25
2.81021e-26
1.50512e-27
7.64171e-29
3.68031e-30
1.68218e-31
7.29964e-33
3.0077e-34
1.17666e-35
4.36959e-37
1.53959e-38
5.14352e-40
1.6278e-41
4.8748e-43
1.37975e-44
3.6856e-46
9.27606e-48
2.1954e-49
4.87594e-51
1.01349e-52
1.9629e-54
3.523e-56
5.82775e-58
8.79915e-60
1.19487e-61
1.42624e-63
1.44179e-65
1.15738e-67
6.36048e-70
1.6679e-71
1.00143e-14
1.18571e-15
1.29799e-16
1.34108e-17
1.24501e-18
1.05209e-19
8.20535e-21
5.96283e-22
4.06102e-23
2.60389e-24
1.5772e-25
9.04494e-27
4.91804e-28
2.53746e-29
1.24281e-30
5.77929e-32
2.55143e-33
1.06918e-34
4.25145e-36
1.60341e-37
5.7322e-39
1.94112e-40
6.22104e-42
1.88498e-43
5.39352e-45
1.45534e-46
3.69749e-48
8.82909e-50
1.9774e-51
4.14316e-53
8.09307e-55
1.46711e-56
2.45303e-58
3.74795e-60
5.15924e-62
6.25795e-64
6.4497e-66
5.30014e-68
3.01538e-70
5.42102e-72
2.30087e-15
2.85703e-16
3.27344e-17
3.50622e-18
3.37073e-19
2.944e-20
2.36369e-21
1.75957e-22
1.22244e-23
7.96606e-25
4.88794e-26
2.83214e-27
1.55277e-28
8.06718e-30
3.97512e-31
1.85872e-32
8.24893e-34
3.47439e-35
1.38849e-36
5.26268e-38
1.89064e-39
6.43312e-41
2.07137e-42
6.30465e-44
1.81179e-45
4.90911e-47
1.25218e-48
3.00137e-50
6.74586e-52
1.41806e-53
2.77885e-55
5.05373e-57
8.47595e-59
1.29893e-60
1.7936e-62
2.18307e-64
2.25927e-66
1.86627e-68
1.07331e-70
1.62675e-72
4.81271e-16
6.3196e-17
7.62597e-18
8.5125e-19
8.5073e-20
7.70094e-21
6.38776e-22
4.89696e-23
3.49184e-24
2.32767e-25
1.45627e-26
8.57712e-28
4.76692e-29
2.50431e-30
1.24521e-31
5.86509e-33
2.61822e-34
1.10799e-35
4.44477e-37
1.68983e-38
6.08583e-40
2.07494e-41
6.69183e-43
2.03944e-44
5.86679e-46
1.59085e-47
4.06e-49
9.73444e-51
2.18807e-52
4.59883e-54
9.00785e-56
1.63696e-57
2.74262e-59
4.19766e-61
5.78788e-63
7.03433e-65
7.27051e-67
6.00085e-69
3.45796e-71
4.59101e-73
9.41235e-17
1.29764e-17
1.63949e-18
1.90219e-19
1.97359e-20
1.85151e-21
1.58792e-22
1.2554e-23
9.20728e-25
6.29592e-26
4.02989e-27
2.42207e-28
1.37024e-29
7.31042e-31
3.68334e-32
1.75449e-33
7.90644e-35
3.37222e-36
1.36153e-37
5.20341e-39
1.88178e-40
6.4366e-42
2.08089e-43
6.35273e-45
1.82947e-46
4.96348e-48
1.26675e-49
3.03583e-51
6.81752e-53
1.4309e-54
2.79757e-56
5.07215e-58
8.47452e-60
1.29291e-61
1.77639e-63
2.15079e-65
2.21449e-67
1.82112e-69
1.04766e-71
1.23604e-73
1.7534e-17
2.51969e-18
3.31311e-19
3.98047e-20
4.27417e-21
4.14541e-22
3.6692e-23
2.98766e-24
2.2519e-25
1.57909e-26
1.03429e-27
6.34792e-29
3.65984e-30
1.98603e-31
1.01593e-32
4.90444e-34
2.23628e-35
9.63629e-37
3.9252e-38
1.51148e-39
5.50115e-41
1.89167e-42
6.14207e-44
1.88155e-45
5.43264e-47
1.47662e-48
3.77277e-50
9.04547e-52
2.03084e-53
4.25868e-55
8.31347e-57
1.50403e-58
2.50595e-60
3.81034e-62
5.21481e-64
6.28646e-66
6.44241e-68
5.2725e-70
3.02269e-72
3.18971e-74
3.15232e-18
4.68922e-19
6.38077e-20
7.90736e-21
8.75697e-22
8.75366e-23
7.97582e-24
6.67456e-25
5.16138e-26
3.7065e-27
2.48175e-28
1.55434e-29
9.12929e-31
5.03868e-32
2.61745e-33
1.2813e-34
5.91604e-36
2.57802e-37
1.06065e-38
4.12045e-40
1.51131e-41
5.2319e-43
1.70855e-44
5.25939e-46
1.52463e-47
4.15721e-49
1.06471e-50
2.55689e-52
5.74576e-54
1.2051e-55
2.35127e-57
4.24867e-59
7.06581e-61
1.07171e-62
1.46229e-64
1.75657e-66
1.79302e-68
1.46117e-70
8.34907e-73
7.89189e-75
5.52885e-19
8.44095e-20
1.18217e-20
1.50501e-21
1.71268e-22
1.75881e-23
1.64496e-24
1.41136e-25
1.11742e-26
8.20358e-28
5.607e-29
3.57932e-30
2.13966e-31
1.20024e-32
6.32846e-34
3.14043e-35
1.46813e-36
6.47023e-38
2.68931e-39
1.05439e-40
3.89925e-42
1.35974e-43
4.46906e-45
1.3834e-46
4.02952e-48
1.10313e-49
2.83442e-51
6.82389e-53
1.53618e-54
3.22545e-56
6.29584e-58
1.1374e-59
1.89007e-61
2.86302e-63
3.89952e-65
4.67418e-67
4.7594e-69
3.86799e-71
2.20596e-73
1.86948e-75
9.53457e-20
1.48211e-20
2.12245e-21
2.76341e-22
3.21913e-23
3.38459e-24
3.23959e-25
2.8423e-26
2.29874e-27
1.7219e-28
1.1993e-29
7.79201e-31
4.73487e-32
2.69667e-33
1.44195e-34
7.24864e-36
3.42919e-37
1.52782e-38
6.41367e-40
2.5374e-41
9.46048e-43
3.32336e-44
1.09946e-45
3.42314e-47
1.00212e-48
2.7553e-50
7.10521e-52
1.71561e-53
3.87095e-55
8.14108e-57
1.59076e-58
2.87538e-60
4.77852e-62
7.23617e-64
9.85016e-66
1.17979e-67
1.20025e-69
9.74576e-72
5.55796e-74
4.23295e-76
1.61986e-20
2.55129e-21
3.71392e-22
4.92244e-23
5.84656e-24
6.27134e-25
6.12385e-26
5.47886e-27
4.5153e-28
3.44349e-29
2.43943e-30
1.61041e-31
9.933e-33
5.73649e-34
3.10733e-35
1.58088e-36
7.56212e-38
3.40373e-39
1.44229e-40
5.75508e-42
2.16251e-43
7.65034e-45
2.54701e-46
7.97483e-48
2.34621e-49
6.47864e-51
1.67679e-52
4.06105e-54
9.18544e-56
1.93548e-57
3.78725e-59
6.85243e-61
1.13955e-62
1.72644e-64
2.35098e-66
2.81702e-68
2.86753e-70
2.33027e-72
1.33139e-74
9.14842e-77
2.7458e-21
4.33455e-22
6.37079e-23
8.55271e-24
1.03124e-24
1.12422e-25
1.11618e-26
1.0153e-27
8.50397e-29
6.58738e-30
4.73668e-31
3.17143e-32
1.98233e-33
1.15921e-34
6.35284e-36
3.26736e-37
1.57876e-38
7.17259e-40
3.06552e-41
1.23289e-42
4.66611e-44
1.66155e-45
5.56441e-47
1.75142e-48
5.17669e-50
1.43524e-51
3.72754e-53
9.0541e-55
2.0528e-56
4.33383e-58
8.49324e-60
1.53862e-61
2.5614e-63
3.88446e-65
5.29557e-67
6.35407e-69
6.47957e-71
5.27784e-73
3.02614e-75
1.88554e-77
4.77976e-22
7.37816e-23
1.08137e-23
1.45968e-24
1.77678e-25
1.95963e-26
1.97057e-27
1.81634e-28
1.54167e-29
1.2099e-30
8.81044e-32
5.97085e-33
3.77535e-34
2.23187e-35
1.23571e-36
6.41661e-38
3.12827e-39
1.43305e-40
6.17189e-42
2.49976e-43
9.52201e-45
3.41061e-46
1.14824e-47
3.63123e-49
1.07777e-50
2.99897e-52
7.81311e-54
1.90278e-55
4.32353e-57
9.14427e-59
1.79476e-60
3.25565e-62
5.42671e-64
8.24122e-66
1.12538e-67
1.35323e-69
1.38385e-71
1.13129e-73
6.51909e-76
3.70438e-78
8.85299e-23
1.28932e-23
1.84465e-24
2.47273e-25
3.01344e-26
3.34179e-27
3.38709e-28
3.15092e-29
2.70103e-30
2.14135e-31
1.57514e-32
1.07806e-33
6.88182e-35
4.10554e-36
2.29284e-37
1.20033e-38
5.89683e-40
2.72064e-41
1.17949e-42
4.80641e-44
1.84108e-45
6.62792e-47
2.24161e-48
7.11784e-50
2.12019e-51
5.91797e-53
1.54589e-54
3.77325e-56
8.58971e-58
1.81958e-59
3.57622e-61
6.49561e-63
1.08422e-64
1.64924e-66
2.25686e-68
2.72136e-70
2.7932e-72
2.29433e-74
1.33053e-76
6.93665e-79
1.79059e-23
2.37802e-24
3.23057e-25
4.2203e-26
5.08457e-27
5.61985e-28
5.70379e-29
5.32798e-30
4.59356e-31
3.6661e-32
2.71605e-33
1.87258e-34
1.20411e-35
7.23485e-37
4.06837e-38
2.14389e-39
1.05979e-40
4.9182e-42
2.14384e-43
8.78007e-45
3.37869e-46
1.22143e-47
4.14648e-49
1.32103e-50
3.94641e-52
1.1043e-53
2.89075e-55
7.06833e-57
1.61146e-58
3.41792e-60
6.72537e-62
1.22301e-63
2.04424e-65
3.11515e-67
4.27324e-69
5.16987e-71
5.32995e-73
4.40339e-75
2.57301e-77
1.23831e-79
3.96741e-24
4.72e-25
5.93709e-26
7.38982e-27
8.65249e-28
9.41545e-29
9.48423e-30
8.8363e-31
7.62191e-32
6.09768e-33
4.53382e-34
3.13937e-35
2.02822e-36
1.22462e-37
6.92024e-39
3.6643e-40
1.8198e-41
8.48257e-43
3.7129e-44
1.52649e-45
5.89494e-47
2.13791e-48
7.2785e-50
2.32469e-51
6.95976e-53
1.95106e-54
5.11507e-56
1.25226e-57
2.85784e-59
6.0669e-61
1.19482e-62
2.17499e-64
3.64037e-66
5.55798e-68
7.64482e-70
9.28386e-72
9.62055e-74
8.00169e-76
4.71643e-78
2.10822e-80
9.43891e-25
1.00908e-25
1.1601e-26
1.34931e-27
1.507e-28
1.59032e-29
1.57174e-30
1.44791e-31
1.24116e-32
9.90067e-34
7.35629e-35
5.09758e-36
3.29894e-37
1.99646e-38
1.13118e-39
6.00668e-41
2.99171e-42
1.39849e-43
6.13811e-45
2.53007e-46
9.79375e-48
3.5595e-49
1.21413e-50
3.88413e-52
1.16442e-53
3.26786e-55
8.5746e-57
2.10058e-58
4.79631e-60
1.01869e-61
2.00732e-63
3.65696e-65
6.12847e-67
9.37495e-69
1.29326e-70
1.57712e-72
1.64377e-74
1.37762e-76
8.20001e-79
3.42482e-81
2.33648e-25
2.28222e-26
2.40343e-27
2.58746e-28
2.71627e-29
2.73841e-30
2.62122e-31
2.36285e-32
1.99641e-33
1.57763e-34
1.16527e-35
8.04651e-37
5.19777e-38
3.14341e-39
1.7812e-40
9.46407e-42
4.71812e-43
2.20797e-44
9.70254e-46
4.00404e-47
1.55168e-48
5.64518e-50
1.92719e-51
6.1695e-53
1.85047e-54
5.19484e-56
1.36329e-57
3.33984e-59
7.62574e-61
1.61965e-62
3.19215e-64
5.81869e-66
9.76219e-68
1.4963e-69
2.07053e-71
2.53659e-73
2.66074e-75
2.24894e-77
1.35329e-79
5.31223e-82
5.83861e-26
5.31172e-27
5.18685e-28
5.17835e-29
5.07755e-30
4.83791e-31
4.43267e-32
3.86799e-33
3.19204e-34
2.48025e-35
1.81012e-36
1.23938e-37
7.95844e-39
4.7931e-40
2.70832e-41
1.43629e-42
7.15143e-44
3.34406e-45
1.46876e-46
6.05935e-48
2.34763e-49
8.53913e-51
2.91442e-52
9.32698e-54
2.79638e-55
7.84633e-57
2.05792e-58
5.0384e-60
1.14971e-61
2.44077e-63
4.80958e-65
8.76943e-67
1.47272e-68
2.26176e-70
3.14006e-72
3.86599e-74
4.08376e-76
3.48426e-78
2.12194e-80
7.87277e-83
1.43943e-26
1.23845e-27
1.13769e-28
1.06301e-29
9.75844e-31
8.75407e-32
7.61945e-33
6.37901e-34
5.0972e-35
3.8644e-36
2.76842e-37
1.8692e-38
1.18768e-39
7.09615e-41
3.98534e-42
2.10367e-43
1.04364e-44
4.86614e-46
2.13233e-47
8.7799e-49
3.396e-50
1.23339e-51
4.20367e-53
1.34346e-54
4.02247e-56
1.12713e-57
2.95221e-59
7.21847e-61
1.64522e-62
3.48934e-64
6.87181e-66
1.25295e-67
2.10594e-69
3.24063e-71
4.5147e-73
5.58834e-75
5.94857e-77
5.12791e-79
3.16428e-81
1.11974e-83
3.44611e-27
2.83265e-28
2.47746e-29
2.19023e-30
1.89667e-31
1.60615e-32
1.32536e-33
1.05912e-34
8.14088e-36
5.98143e-37
4.17978e-38
2.76749e-39
1.73168e-40
1.02222e-41
5.68627e-43
2.9786e-44
1.46856e-45
6.8126e-47
2.97255e-48
1.2195e-49
4.70195e-51
1.70283e-52
5.78848e-54
1.84543e-55
5.51256e-57
1.54121e-58
4.02821e-60
9.82973e-62
2.23637e-63
4.73615e-65
9.31808e-67
1.69851e-68
2.85679e-70
4.40482e-72
6.15924e-74
7.66836e-76
8.23127e-78
7.17628e-80
4.4924e-82
1.52768e-84
7.92406e-28
6.26319e-29
5.2586e-30
4.43958e-31
3.65852e-32
2.94293e-33
2.30846e-34
1.75949e-35
1.29669e-36
9.19037e-38
6.23256e-39
4.02668e-40
2.46991e-41
1.43467e-42
7.87666e-44
4.08196e-45
1.9948e-46
9.18548e-48
3.9828e-49
1.62514e-50
6.23625e-52
2.24894e-53
7.61549e-55
2.41928e-56
7.20279e-58
2.0075e-59
5.23162e-61
1.2732e-62
2.88976e-64
6.10786e-66
1.20004e-67
2.18624e-69
3.67921e-71
5.68449e-73
7.97992e-75
9.99788e-77
1.08303e-78
9.55958e-81
6.07895e-83
1.99594e-85
1.73574e-28
1.32499e-29
1.07375e-30
8.71517e-32
6.88617e-33
5.29889e-34
3.97164e-35
2.89473e-36
2.04548e-37
1.39578e-38
9.15724e-40
5.75151e-41
3.44525e-42
1.96208e-43
1.05969e-44
5.41708e-46
2.61707e-47
1.19345e-48
5.132e-50
2.07905e-51
7.92786e-53
2.84292e-54
9.57803e-56
3.02861e-57
8.97817e-59
2.49234e-60
6.47113e-62
1.56955e-63
3.55181e-65
7.48883e-67
1.4688e-68
2.67376e-70
4.50183e-72
6.97031e-74
9.82656e-76
1.23962e-77
1.35631e-79
1.21346e-81
7.84898e-84
2.58661e-86
3.59804e-29
2.66152e-30
2.08949e-31
1.63805e-32
1.2481e-33
9.24409e-35
6.65815e-36
4.66047e-37
3.16526e-38
2.08057e-39
1.31919e-40
8.03852e-42
4.69022e-43
2.61156e-44
1.38368e-45
6.95912e-47
3.31582e-48
1.49429e-49
6.36036e-51
2.55387e-52
9.6625e-54
3.44088e-55
1.15199e-56
3.62184e-58
1.06805e-59
2.95057e-61
7.62689e-63
1.84245e-64
4.15467e-66
8.73457e-68
1.70958e-69
3.109e-71
5.23694e-73
8.12704e-75
1.15103e-76
1.46296e-78
1.61828e-80
1.4694e-82
9.68239e-85
3.26135e-87
7.01841e-30
5.04559e-31
3.84816e-32
2.92354e-33
2.1571e-34
1.54526e-35
1.07496e-36
7.25963e-38
4.75598e-39
3.01804e-40
1.85088e-41
1.0938e-42
6.20874e-44
3.37419e-45
1.75034e-46
8.64343e-48
4.0537e-49
1.80197e-50
7.57914e-52
3.01165e-53
1.12899e-54
3.98749e-56
1.32515e-57
4.13831e-59
1.21287e-60
3.3318e-62
8.56811e-64
2.06026e-65
4.62711e-67
9.69572e-69
1.89322e-70
3.43908e-72
5.79562e-74
9.01662e-76
1.28354e-77
1.64489e-79
1.8415e-81
1.69937e-83
1.14263e-85
3.93595e-88
1.28187e-30
8.98204e-32
6.67068e-33
4.92426e-34
3.52965e-35
2.45477e-36
1.65616e-37
1.08366e-38
6.87412e-40
4.22398e-41
2.51055e-42
1.44023e-43
7.95364e-45
4.21616e-46
2.13901e-47
1.03573e-48
4.77438e-50
2.09044e-51
8.67631e-53
3.4074e-54
1.26411e-55
4.4233e-57
1.45769e-58
4.51764e-60
1.31487e-61
3.58913e-63
9.17671e-65
2.19522e-66
4.90816e-68
1.02472e-69
1.99576e-71
3.62096e-73
6.10556e-75
9.52563e-77
1.36368e-78
1.76361e-80
2.00065e-82
1.87924e-84
1.29169e-86
4.5514e-89
2.1825e-31
1.49507e-32
1.0836e-33
7.79044e-35
5.43906e-36
3.68339e-37
2.41822e-38
1.53852e-39
9.48323e-41
5.66057e-42
3.26896e-43
1.82369e-44
9.80828e-46
5.073e-47
2.51657e-48
1.19413e-49
5.40582e-51
2.32912e-52
9.52967e-54
3.6952e-55
1.35538e-56
4.69448e-58
1.53285e-59
4.71095e-61
1.3607e-62
3.68846e-64
9.37134e-66
2.2292e-67
4.96002e-69
1.03151e-70
2.00352e-72
3.63069e-74
6.12655e-76
9.58929e-78
1.38151e-79
1.80483e-81
2.07742e-83
1.98959e-85
1.40067e-87
5.05671e-90
3.45039e-32
2.31847e-33
1.64356e-34
1.15333e-35
7.86138e-37
5.19712e-38
3.32943e-39
2.06582e-40
1.24114e-41
7.21809e-43
4.06108e-44
2.20808e-45
1.1584e-46
5.85184e-48
2.83984e-49
1.32059e-50
5.86963e-52
2.48742e-53
1.00269e-54
3.83635e-56
1.39031e-57
4.76341e-59
1.5401e-60
4.69099e-62
1.34389e-63
3.61587e-65
9.12522e-67
2.1577e-68
4.77641e-70
9.89281e-72
1.91618e-73
3.46859e-75
5.85911e-77
9.20518e-79
1.33567e-80
1.76468e-82
2.06406e-84
2.01926e-86
1.45904e-88
5.40672e-91
5.04798e-33
3.3396e-34
2.32091e-35
1.59313e-36
1.06251e-37
6.87255e-39
4.30649e-40
2.61259e-41
1.53403e-42
8.71579e-44
4.78974e-45
2.54398e-46
1.30433e-47
6.44482e-49
3.06267e-50
1.39657e-51
6.09601e-53
2.54092e-54
1.00893e-55
3.80776e-57
1.36292e-58
4.61719e-60
1.47757e-61
4.45852e-63
1.2664e-64
3.38089e-66
8.47235e-68
1.99089e-69
4.38388e-71
9.04217e-73
1.74665e-74
3.15889e-76
5.34366e-78
8.43237e-80
1.23346e-81
1.65018e-83
1.96462e-85
1.9672e-87
1.46217e-89
5.57214e-92
6.81561e-34
4.45792e-35
3.04449e-36
2.04883e-37
1.33984e-38
8.497e-40
5.21918e-41
3.10278e-42
1.78471e-43
9.93011e-45
5.34287e-46
2.77828e-47
1.3949e-48
6.75276e-50
3.14652e-51
1.40831e-52
6.04087e-54
2.4775e-55
9.69194e-57
3.60812e-58
1.27541e-59
4.27158e-61
1.35272e-62
4.04281e-64
1.13828e-65
3.01461e-67
7.50014e-69
1.75127e-70
3.83566e-72
7.87888e-74
1.51804e-75
2.74386e-77
4.6507e-79
7.37691e-81
1.08899e-82
1.47739e-84
1.79356e-86
1.84217e-88
1.41185e-90
5.54447e-93
8.47701e-35
5.50683e-36
3.70476e-37
2.44981e-38
1.57415e-39
9.80738e-41
5.91672e-42
3.45393e-43
1.95027e-44
1.06495e-45
5.6222e-47
2.86827e-48
1.41297e-49
6.71351e-51
3.07188e-52
1.35113e-53
5.70058e-55
2.30193e-56
8.8759e-58
3.26039e-59
1.13834e-60
3.76936e-62
1.18123e-63
3.49641e-65
9.75759e-67
2.5634e-68
6.33138e-70
1.46898e-71
3.20038e-73
6.54784e-75
1.25869e-76
2.27474e-78
3.86562e-80
6.16899e-82
9.20168e-84
1.2679e-85
1.5726e-87
1.66057e-89
1.31554e-91
5.33493e-94
)
;

boundaryField
{
    leftWall
    {
        type            zeroGradient;
    }
    rightWall
    {
        type            zeroGradient;
    }
    lowerWall
    {
        type            zeroGradient;
    }
    atmosphere
    {
        type            inletOutlet;
        inletValue      nonuniform 0();
        value           nonuniform 0();
    }
    defaultFaces
    {
        type            empty;
    }
    procBoundary1to0
    {
        type            processor;
        value           nonuniform List<scalar> 
44
(
3.35862e-08
6.56317e-08
3.85859e-08
1.98402e-08
7.7501e-09
3.31442e-09
4.17121e-09
3.26356e-09
2.04394e-09
1.21888e-09
6.81653e-10
3.18515e-10
1.22853e-10
3.96529e-11
1.12383e-11
2.95027e-12
7.48289e-13
1.90269e-13
5.01516e-14
1.40733e-14
1.18382e-15
1.18382e-15
3.30959e-16
1.00124e-16
3.25657e-17
1.11922e-17
3.97457e-18
1.42965e-18
5.13032e-19
1.81542e-19
6.27392e-20
2.10038e-20
6.76628e-21
2.08569e-21
6.11998e-22
1.70058e-22
4.45135e-23
1.09169e-23
2.49468e-24
5.2807e-25
1.02902e-25
1.83413e-26
2.9719e-27
4.35512e-28
)
;
    }
    procBoundary1to3
    {
        type            processor;
        value           nonuniform List<scalar> 
45
(
4.02795e-30
2.90802e-31
2.22963e-32
1.69699e-33
1.29522e-34
9.6459e-36
6.25616e-37
4.15697e-38
2.70742e-39
1.71286e-40
1.05028e-41
6.23358e-43
3.57863e-44
1.98654e-45
1.06609e-46
5.52983e-48
2.77139e-49
1.34115e-50
6.26091e-52
2.81584e-53
1.21808e-54
5.05834e-56
2.01226e-57
7.65112e-59
2.77418e-60
9.5701e-62
3.13397e-63
9.72148e-65
2.85069e-66
7.8877e-68
2.05614e-69
5.04349e-71
1.16322e-72
2.5221e-74
5.14278e-76
9.87093e-78
1.78541e-79
3.04583e-81
4.89812e-83
7.3968e-85
1.03762e-86
1.31854e-88
1.43578e-90
1.17945e-92
4.95097e-95
)
;
    }
}


// ************************************************************************* //
