/*--------------------------------*- C++ -*----------------------------------*\
  =========                 |
  \\      /  F ield         | OpenFOAM: The Open Source CFD Toolbox
   \\    /   O peration     | Website:  https://openfoam.org
    \\  /    A nd           | Version:  7
     \\/     M anipulation  |
\*---------------------------------------------------------------------------*/
FoamFile
{
    version     2.0;
    format      ascii;
    class       volScalarField;
    location    "0.1";
    object      epsilon;
}
// * * * * * * * * * * * * * * * * * * * * * * * * * * * * * * * * * * * * * //

dimensions      [0 2 -3 0 0 0 0];

internalField   nonuniform List<scalar> 
1915
(
0.372051
0.0785954
0.368799
0.342533
0.400878
0.505618
0.415378
0.648184
0.422602
0.774129
0.429653
0.893154
0.441821
1.01828
0.466495
1.17056
0.515256
1.38855
0.603316
1.72955
0.0737656
0.0846391
0.458829
0.550623
0.60879
0.64259
0.659826
0.666391
0.666515
0.663071
0.657882
0.652484
0.64889
0.645505
0.642188
0.638975
0.635878
0.632879
0.629955
0.627091
0.624281
0.621528
0.618836
0.6162
0.613605
0.611016
0.608373
0.605573
0.602451
0.598746
0.594041
0.587678
0.578632
0.565323
0.545344
0.515034
0.468806
0.398341
0.365808
0.124728
0.246639
0.255785
0.28889
0.30633
0.315756
0.320392
0.322309
0.322785
0.32256
0.322038
0.321441
0.320997
0.321077
0.321176
0.321175
0.321069
0.320877
0.320617
0.320301
0.319938
0.319535
0.319098
0.318634
0.318149
0.317652
0.317147
0.316639
0.316128
0.315607
0.315058
0.314437
0.313662
0.312571
0.310863
0.307989
0.302958
0.294015
0.27792
0.245894
0.247988
0.322396
0.275728
0.270663
0.265625
0.259998
0.254789
0.25059
0.24755
0.245559
0.244395
0.24383
0.243692
0.24394
0.244302
0.244646
0.244919
0.245108
0.245219
0.24526
0.245242
0.245174
0.245065
0.244925
0.244763
0.244591
0.244422
0.244275
0.244173
0.244149
0.24425
0.244536
0.245087
0.245995
0.247349
0.249205
0.251528
0.254118
0.25671
0.261235
0.328162
0.375351
0.292155
0.269179
0.251459
0.236781
0.225325
0.216945
0.211189
0.207494
0.205311
0.204176
0.203729
0.203764
0.20402
0.204343
0.204649
0.204902
0.205091
0.205219
0.20529
0.205316
0.205303
0.205263
0.205206
0.205148
0.205105
0.205106
0.205189
0.20541
0.205852
0.206633
0.207918
0.209928
0.212955
0.217377
0.223692
0.232638
0.245789
0.270011
0.389314
0.41602
0.309479
0.275482
0.247876
0.22559
0.208776
0.196764
0.188581
0.183271
0.180019
0.17818
0.17727
0.17698
0.177023
0.177216
0.177451
0.177673
0.177857
0.177994
0.178086
0.17814
0.178162
0.178164
0.178157
0.178157
0.178188
0.178284
0.178494
0.178894
0.179591
0.18074
0.182559
0.18535
0.189526
0.195665
0.204605
0.217703
0.237792
0.275127
0.434554
0.452468
0.334797
0.291464
0.252883
0.222108
0.199572
0.183862
0.17329
0.16641
0.162102
0.15954
0.158135
0.157489
0.157282
0.157305
0.157429
0.157582
0.157726
0.157843
0.157928
0.157986
0.15802
0.158042
0.158063
0.158103
0.158188
0.158359
0.158676
0.159226
0.160137
0.16159
0.163838
0.167234
0.172273
0.179663
0.190471
0.206483
0.231429
0.278103
0.467717
0.495042
0.378814
0.321294
0.266942
0.224933
0.195492
0.175689
0.16265
0.154222
0.148897
0.145639
0.143754
0.142758
0.142296
0.142139
0.142139
0.142208
0.142296
0.142379
0.142446
0.142496
0.142532
0.142564
0.142604
0.142675
0.142805
0.143042
0.143453
0.144138
0.145237
0.14695
0.149556
0.153442
0.159158
0.167502
0.179702
0.197846
0.226311
0.279785
0.491907
0.571743
0.454362
0.368389
0.290083
0.232845
0.194998
0.170677
0.155125
0.145209
0.138941
0.135045
0.132721
0.131399
0.130698
0.130366
0.130241
0.130222
0.130251
0.130295
0.130337
0.130374
0.130407
0.130444
0.130499
0.130595
0.130766
0.131063
0.131561
0.132366
0.133633
0.135573
0.138483
0.142776
0.149039
0.158134
0.171404
0.191154
0.222226
0.280697
0.509483
0.762166
0.57306
0.432475
0.319465
0.243416
0.19634
0.167498
0.149602
0.138364
0.13128
0.126846
0.124137
0.12253
0.121615
0.121123
0.120881
0.120778
0.120748
0.120751
0.120767
0.120789
0.120816
0.120856
0.120923
0.121042
0.12125
0.121602
0.122179
0.123095
0.124512
0.126651
0.129824
0.134459
0.141173
0.150874
0.164986
0.185971
0.219004
0.281164
0.522205
1.15857
0.725382
0.500632
0.345739
0.251988
0.197234
0.164847
0.145171
0.132939
0.125234
0.120391
0.117377
0.115536
0.11444
0.113811
0.113465
0.113286
0.1132
0.113164
0.113155
0.113161
0.113181
0.113223
0.113301
0.113441
0.113683
0.114086
0.114736
0.115752
0.117303
0.119619
0.123019
0.127947
0.135038
0.145236
0.160024
0.181974
0.216498
0.281388
0.531391
0.622819
1.30931
0.570175
1.11341
0.493302
0.893732
0.406956
0.651724
0.329663
0.47125
0.267993
0.34979
0.221119
0.269221
0.186356
0.215425
0.16082
0.178891
0.142068
0.153589
0.135739
0.122951
0.113677
0.106887
0.101886
0.0981883
0.0954494
0.09342
0.0919165
0.090803
0.0899779
0.0893655
0.0889093
0.0885678
0.0883106
0.0881156
0.0879671
0.087854
0.0877682
0.0877039
0.0876569
0.0876232
0.0876001
2.4485
1.65974
1.46132
1.53866
1.40638
1.15498
0.963521
0.808177
1.07099
0.971895
0.839072
0.712552
0.786648
0.772486
0.688278
0.587878
0.564112
0.574535
0.529091
0.46346
0.407949
0.421848
0.400041
0.361037
0.3046
0.316307
0.306577
0.284214
0.237058
0.245665
0.241568
0.228833
0.192358
0.198355
0.196756
0.189435
0.162145
0.166241
0.1657
0.161404
0.141279
0.144052
0.143927
0.141331
0.126588
0.128452
0.128461
0.126832
0.116078
0.117317
0.117341
0.11627
0.108471
0.109273
0.109266
0.10852
0.102916
0.103411
0.103357
0.102803
0.098837
0.0991134
0.0990121
0.0985708
0.095832
0.095951
0.0958071
0.0954323
0.0936146
0.0936194
0.093439
0.0931026
0.0919771
0.0918983
0.0916875
0.0913727
0.0907668
0.0906262
0.0903905
0.0900871
0.089871
0.0896843
0.0894282
0.0891298
0.0892061
0.0889842
0.0887113
0.0884144
0.08871
0.0884609
0.088174
0.0878762
0.0883373
0.0880665
0.0877676
0.0874676
0.0880547
0.0877658
0.0874565
0.0871534
0.0878381
0.0875337
0.0872148
0.0869081
0.0876703
0.0873517
0.087024
0.0867132
0.0875388
0.087207
0.0868706
0.0865554
0.0874349
0.08709
0.0867451
0.0864252
0.0873523
0.0869943
0.0866406
0.0863158
0.0872862
0.0869146
0.0865521
0.0862221
0.087233
0.0868474
0.0864758
0.0861404
0.0871889
0.0867897
0.0864088
0.086068
0.951743
0.719583
0.510951
0.350301
0.252411
0.195282
0.161538
0.141065
0.128325
0.120274
0.115167
0.11194
0.109924
0.108686
0.107944
0.10751
0.107263
0.107128
0.107057
0.107023
0.107014
0.107027
0.10707
0.107157
0.107317
0.107591
0.108042
0.108759
0.109867
0.11154
0.114013
0.117614
0.122795
0.130208
0.140822
0.156164
0.178885
0.214562
0.28149
0.538079
0.700345
0.590871
0.451233
0.326725
0.241948
0.189167
0.156828
0.136779
0.124126
0.116041
0.110843
0.107506
0.10538
0.104043
0.103215
0.102711
0.102409
0.102231
0.102128
0.102073
0.10205
0.102057
0.1021
0.102197
0.102375
0.102678
0.103174
0.103953
0.105145
0.106928
0.109543
0.11332
0.118723
0.126414
0.137379
0.153179
0.17652
0.213092
0.281541
0.542948
0.603264
0.493916
0.384622
0.291666
0.224373
0.179578
0.150687
0.132133
0.120137
0.112317
0.107202
0.103861
0.101694
0.100301
0.0994164
0.0988612
0.0985163
0.0983041
0.0981754
0.098101
0.0980663
0.0980679
0.0981124
0.0982171
0.0984121
0.0987437
0.0992797
0.100116
0.101384
0.103266
0.106006
0.109939
0.115535
0.123463
0.134725
0.150903
0.17474
0.212005
0.28158
0.546498
0.493752
0.404736
0.323032
0.255153
0.204042
0.168029
0.143574
0.127199
0.116262
0.108954
0.104075
0.100828
0.0986827
0.0972768
0.0963644
0.0957774
0.0954025
0.0951645
0.0950153
0.0949259
0.0948815
0.0948788
0.0949247
0.0950374
0.0952482
0.0956053
0.0961785
0.097066
0.0984029
0.100372
0.103222
0.107292
0.113055
0.121186
0.132698
0.149188
0.173423
0.211221
0.281629
0.549106
0.394237
0.328734
0.270488
0.222005
0.184167
0.156141
0.136137
0.122161
0.112505
0.105875
0.101348
0.098276
0.0962079
0.0948274
0.0939136
0.0933132
0.0929208
0.0926655
0.0925014
0.0924006
0.0923488
0.0923431
0.0923909
0.0925113
0.0927367
0.0931169
0.0937237
0.0946573
0.0960549
0.098102
0.101049
0.105237
0.111143
0.119447
0.131168
0.147913
0.172465
0.210673
0.281696
0.551055
0.31528
0.269911
0.229027
0.19436
0.166435
0.1449
0.128866
0.117224
0.108911
0.103046
0.0989469
0.0961093
0.094163
0.09284
0.0919481
0.0913506
0.0909521
0.0906876
0.0905141
0.0904055
0.0903486
0.0903411
0.0903913
0.090519
0.0907578
0.0911589
0.0917956
0.09277
0.094221
0.0963358
0.0993666
0.103657
0.109685
0.118135
0.130029
0.146981
0.171784
0.210306
0.281783
0.552546
0.255243
0.22478
0.196451
0.171735
0.151182
0.134762
0.122084
0.112555
0.105541
0.100459
0.0968257
0.0942595
0.0924665
0.0912259
0.0903745
0.0897939
0.0893994
0.0891327
0.0889548
0.0888418
0.088782
0.088774
0.0888269
0.0889615
0.0892125
0.0896321
0.0902951
0.0913052
0.0928025
0.0949758
0.0980784
0.102455
0.108586
0.117158
0.129194
0.146313
0.171313
0.210074
0.281889
0.553726
0.210754
0.190557
0.171042
0.153451
0.138352
0.125897
0.115965
0.108269
0.102443
0.098116
0.0949542
0.0926763
0.0910555
0.0899143
0.0891176
0.0885647
0.0881826
0.0879198
0.0877418
0.0876275
0.0875666
0.0875592
0.0876153
0.0877563
0.0880181
0.0884539
0.0891399
0.0901806
0.0917176
0.0939406
0.0971039
0.101554
0.10777
0.116441
0.128593
0.145845
0.170999
0.209941
0.282009
0.554696
0.178138
0.16477
0.151333
0.138808
0.127725
0.118308
0.110582
0.104429
0.0996511
0.0960202
0.0933112
0.091322
0.0898811
0.0888491
0.0881163
0.0875991
0.0872356
0.0869815
0.0868071
0.0866939
0.0866338
0.0866279
0.0866873
0.0868343
0.0871056
0.0875555
0.0882611
0.0893278
0.0908982
0.0931628
0.0963766
0.100886
0.107173
0.115925
0.12817
0.145527
0.170799
0.20988
0.282142
0.555523
0.154269
0.145375
0.136092
0.127157
0.119019
0.111917
0.105937
0.101057
0.0971798
0.0941698
0.0918796
0.0901668
0.0889043
0.0879846
0.0873206
0.0868441
0.0865036
0.086262
0.0860939
0.085984
0.085926
0.0859223
0.0859851
0.0861376
0.0864172
0.0868792
0.0876011
0.0886896
0.0902878
0.0925866
0.0958419
0.100401
0.106744
0.115561
0.127879
0.145318
0.170683
0.209868
0.282282
0.556255
0.136749
0.130775
0.124326
0.117932
0.111952
0.106603
0.101994
0.0981479
0.0950279
0.0925578
0.0906432
0.089186
0.0880934
0.0872841
0.08669
0.0862565
0.0859417
0.085715
0.0855552
0.08545
0.0853951
0.0853943
0.0854605
0.085618
0.0859048
0.0863768
0.0871124
0.0882188
0.0898395
0.0921663
0.0954551
0.100053
0.106442
0.11531
0.127686
0.14519
0.170625
0.209892
0.282427
0.55692
0.123826
0.119766
0.115252
0.110659
0.106258
0.102233
0.0986905
0.0956753
0.0931819
0.0911715
0.0895857
0.088358
0.0874221
0.0867173
0.0861912
0.0858009
0.0855128
0.0853022
0.085152
0.0850527
0.0850017
0.0850041
0.0850738
0.0852357
0.0855286
0.0860089
0.0867557
0.0878765
0.0895155
0.0918646
0.0951801
0.0998093
0.106234
0.115143
0.127564
0.145117
0.170608
0.20994
0.282576
0.557537
0.114247
0.111448
0.108263
0.104947
0.101701
0.0986731
0.0959568
0.0936018
0.0916197
0.089994
0.0886899
0.0876635
0.0868681
0.0862591
0.0857968
0.0854481
0.0851867
0.0849927
0.0848528
0.0847599
0.0847133
0.084719
0.0847921
0.084958
0.0852561
0.0857433
0.0864991
0.0876315
0.089285
0.0916518
0.0949884
0.0996422
0.106095
0.115036
0.127493
0.145085
0.170619
0.210003
0.282725
0.558117
0.107119
0.105157
0.102887
0.10048
0.0980799
0.0957998
0.0937188
0.091884
0.0903139
0.089005
0.087938
0.0870845
0.0864122
0.0858888
0.0854848
0.085175
0.084939
0.0847613
0.0846319
0.0845458
0.0845037
0.084513
0.0845893
0.0847588
0.0850612
0.085554
0.086317
0.0874587
0.0891236
0.0915044
0.0948575
0.0995307
0.106006
0.114972
0.127456
0.14508
0.170649
0.210076
0.282873
0.558665
0.101799
0.100398
0.0987615
0.0970018
0.0952198
0.0934996
0.0919046
0.0904759
0.0892342
0.0881827
0.087312
0.0866043
0.0860377
0.0855892
0.0852372
0.0849628
0.0847503
0.0845883
0.0844691
0.0843898
0.0843523
0.0843652
0.0844445
0.0846172
0.0849233
0.0854207
0.0861896
0.0873385
0.0890125
0.0914042
0.0947704
0.0994587
0.105951
0.114937
0.127444
0.145093
0.170692
0.210155
0.283021
0.559183
0.097823
0.0967993
0.0956035
0.0943057
0.0929749
0.0916722
0.0904467
0.0893327
0.0883499
0.087505
0.0867945
0.0862078
0.0857304
0.0853462
0.0850396
0.0847966
0.0846056
0.0844581
0.0843486
0.0842759
0.084243
0.0842593
0.0843417
0.0845172
0.0848265
0.0853277
0.0861012
0.087256
0.0889372
0.0913375
0.094714
0.0994145
0.105921
0.114923
0.127449
0.145119
0.170743
0.210239
0.283166
0.559672
0.0948506
0.0940825
0.0931934
0.0922252
0.091223
0.0902303
0.0892839
0.0884117
0.0876312
0.0869502
0.0863688
0.0858811
0.0854778
0.0851479
0.0848803
0.0846648
0.0844931
0.0843587
0.0842584
0.0841919
0.0841635
0.0841832
0.0842683
0.0844464
0.0847585
0.0852629
0.0860404
0.0871998
0.0888868
0.0912941
0.094679
0.0993894
0.105908
0.114923
0.127465
0.145154
0.1708
0.210325
0.283308
0.560131
0.0926293
0.0920346
0.0913593
0.0906259
0.0898625
0.0890988
0.0883622
0.0876744
0.0870504
0.0864981
0.0860195
0.0856119
0.0852694
0.0849848
0.0847503
0.0845587
0.0844038
0.0842813
0.0841893
0.0841287
0.0841046
0.0841275
0.0842153
0.0843959
0.0847105
0.0852177
0.0859983
0.0871618
0.0888535
0.0912667
0.0946585
0.0993773
0.105905
0.114933
0.127489
0.145194
0.170861
0.210413
0.283446
0.560559
0.0909699
0.090493
0.0899668
0.0894004
0.0888097
0.0882145
0.0876344
0.0870863
0.0865825
0.0861304
0.085733
0.0853895
0.0850965
0.0848493
0.0846426
0.0844712
0.0843311
0.0842192
0.0841347
0.0840797
0.0840596
0.0840857
0.084176
0.0843589
0.0846758
0.0851855
0.085969
0.0871358
0.0888317
0.0912498
0.0946477
0.0993738
0.105911
0.114949
0.127517
0.145239
0.170924
0.210502
0.283581
0.560955
0.0897301
0.0893332
0.0889106
0.0884626
0.0879966
0.0875247
0.0870609
0.0866178
0.0862057
0.0858311
0.0854973
0.0852047
0.0849517
0.0847351
0.0845516
0.0843975
0.0842701
0.0841675
0.08409
0.08404
0.0840238
0.0840528
0.0841457
0.0843308
0.0846498
0.0851618
0.0859479
0.0871178
0.0888174
0.09124
0.0946434
0.0993761
0.105921
0.114969
0.12755
0.145286
0.170989
0.210591
0.283712
0.561316
0.0888024
0.0884595
0.0881088
0.0877446
0.0873681
0.0869862
0.0866083
0.086244
0.0859014
0.0855864
0.0853023
0.08505
0.084829
0.0846375
0.0844732
0.0843337
0.0842173
0.084123
0.0840517
0.0840064
0.0839938
0.0840257
0.084121
0.0843082
0.0846294
0.0851435
0.0859321
0.0871049
0.0888079
0.0912347
0.0946433
0.0993823
0.105935
0.114993
0.127585
0.145335
0.171057
0.21068
0.283839
0.561641
0.0881056
0.0877991
0.0874982
0.0871929
0.0868806
0.086564
0.0862495
0.085944
0.0856542
0.0853849
0.0851393
0.0849189
0.0847236
0.0845526
0.0844042
0.0842772
0.0841702
0.0840833
0.0840175
0.0839765
0.0839674
0.0840021
0.0840997
0.0842891
0.0846123
0.0851286
0.0859196
0.0870952
0.0888015
0.0912324
0.0946459
0.0993911
0.105951
0.115018
0.127622
0.145387
0.171125
0.21077
0.283961
0.561928
0.087579
0.0872968
0.08703
0.0867663
0.0864998
0.0862307
0.0859628
0.0857013
0.0854513
0.0852171
0.0850017
0.0848064
0.0846318
0.0844775
0.0843425
0.0842259
0.0841272
0.0840467
0.083986
0.083949
0.0839431
0.0839805
0.0840804
0.0842719
0.0845971
0.0851156
0.0859091
0.0870874
0.0887971
0.0912321
0.0946505
0.0994018
0.10597
0.115046
0.127661
0.14544
0.171195
0.210859
0.284078
0.562178
0.0871771
0.0869109
0.0866676
0.086433
0.0861993
0.0859647
0.0857312
0.0855025
0.0852828
0.0850757
0.0848837
0.0847085
0.0845506
0.08441
0.0842861
0.0841785
0.084087
0.0840123
0.0839562
0.0839229
0.08392
0.08396
0.0840621
0.0842557
0.0845831
0.0851038
0.0858997
0.0870809
0.0887939
0.091233
0.0946565
0.0994139
0.105989
0.115075
0.127702
0.145494
0.171265
0.210949
0.284191
0.562387
0.0868665
0.0866106
0.0863833
0.086169
0.0859588
0.0857493
0.0855413
0.0853373
0.0851407
0.0849546
0.0847812
0.084622
0.0844777
0.0843485
0.084234
0.0841341
0.084049
0.0839793
0.0839274
0.0838976
0.0838976
0.0839401
0.0840445
0.0842402
0.0845696
0.0850926
0.085891
0.0870751
0.0887916
0.0912349
0.0946635
0.0994272
0.10601
0.115105
0.127744
0.14555
0.171337
0.211038
0.284298
0.562557
0.0866226
0.0863731
0.0861565
0.0859565
0.0857632
0.0855721
0.0853831
0.0851978
0.0850191
0.0848494
0.0846907
0.0845445
0.0844114
0.0842917
0.0841853
0.0840921
0.0840125
0.0839474
0.0838994
0.0838728
0.0838756
0.0839205
0.0840271
0.0842249
0.0845565
0.0850817
0.0858827
0.0870698
0.08879
0.0912375
0.0946714
0.0994415
0.106033
0.115137
0.127787
0.145607
0.17141
0.211127
0.284401
0.562686
0.0864276
0.0861818
0.0859724
0.0857823
0.0856011
0.0854236
0.0852489
0.0850781
0.0849132
0.0847565
0.0846098
0.0844742
0.0843504
0.0842388
0.0841393
0.084052
0.0839773
0.0839165
0.0838719
0.0838484
0.0838538
0.083901
0.0840098
0.0842097
0.0845435
0.0850712
0.0858748
0.087065
0.0887888
0.0912408
0.0946801
0.0994568
0.106056
0.11517
0.127832
0.145665
0.171484
0.211215
0.284497
0.562774
0.0862686
0.0860247
0.0858198
0.0856367
0.0854642
0.0852969
0.0851331
0.0849734
0.0848196
0.0846734
0.0845364
0.0844096
0.0842938
0.084189
0.0840955
0.0840134
0.0839432
0.0838862
0.083845
0.0838243
0.0838322
0.0838817
0.0839927
0.0841947
0.0845307
0.0850608
0.0858671
0.0870606
0.0887882
0.0912448
0.0946896
0.099473
0.10608
0.115204
0.127878
0.145725
0.171558
0.211303
0.284589
0.562821
0.0861365
0.0858931
0.0856909
0.0855125
0.0853464
0.0851867
0.0850314
0.0848806
0.0847356
0.084598
0.0844691
0.0843498
0.0842407
0.084142
0.0840538
0.0839764
0.0839102
0.0838567
0.0838185
0.0838005
0.0838109
0.0838626
0.0839757
0.0841799
0.0845181
0.0850506
0.0858598
0.0870566
0.0887882
0.0912495
0.0946999
0.0994902
0.106106
0.11524
0.127925
0.145785
0.171633
0.211391
0.284674
0.562828
0.0860246
0.0857807
0.08558
0.0854047
0.0852433
0.0850894
0.0849407
0.084797
0.0846593
0.0845289
0.0844068
0.084294
0.0841907
0.0840973
0.0840139
0.0839406
0.0838781
0.0838279
0.0837926
0.0837772
0.0837898
0.0838437
0.0839589
0.0841652
0.0845057
0.0850408
0.0858529
0.087053
0.0887887
0.0912548
0.0947111
0.0995084
0.106132
0.115276
0.127973
0.145847
0.171709
0.211478
0.284754
0.562795
0.085928
0.0856829
0.0854828
0.0853095
0.0851515
0.0850021
0.0848587
0.0847208
0.0845892
0.0844649
0.0843487
0.0842414
0.0841434
0.0840547
0.0839755
0.0839061
0.083847
0.0837998
0.0837672
0.0837542
0.0837691
0.0838251
0.0839423
0.0841508
0.0844937
0.0850313
0.0858463
0.08705
0.0887898
0.0912609
0.0947231
0.0995275
0.10616
0.115314
0.128022
0.14591
0.171785
0.211563
0.284828
0.562724
0.0858432
0.0855965
0.0853961
0.0852241
0.0850685
0.0849226
0.0847836
0.0846506
0.0845242
0.0844051
0.0842941
0.0841918
0.0840984
0.084014
0.0839387
0.0838727
0.0838168
0.0837724
0.0837423
0.0837317
0.0837488
0.0838068
0.0839261
0.0841368
0.0844819
0.0850221
0.0858402
0.0870475
0.0887915
0.0912677
0.0947361
0.0995476
0.106188
0.115353
0.128073
0.145973
0.171862
0.211648
0.284896
0.562615
0.0857674
0.0855188
0.0853178
0.0851464
0.0849926
0.0848495
0.0847141
0.0845853
0.0844634
0.0843489
0.0842425
0.0841446
0.0840554
0.0839749
0.0839032
0.0838405
0.0837875
0.0837458
0.0837181
0.0837097
0.0837289
0.083789
0.0839103
0.0841231
0.0844706
0.0850135
0.0858347
0.0870456
0.088794
0.0912754
0.0947498
0.0995688
0.106218
0.115393
0.128124
0.146038
0.171939
0.211731
0.284959
0.562465
)
;

boundaryField
{
    leftWall
    {
        type            epsilonWallFunction;
        value           nonuniform 0();
    }
    rightWall
    {
        type            epsilonWallFunction;
        value           nonuniform List<scalar> 
43
(
0.124728
0.247988
0.328162
0.389314
0.434554
0.467717
0.491907
0.509483
0.522205
0.531391
0.538079
0.542948
0.546498
0.549106
0.551055
0.552546
0.553726
0.554696
0.555523
0.556255
0.55692
0.557537
0.558117
0.558665
0.559183
0.559672
0.560131
0.560559
0.560955
0.561316
0.561641
0.561928
0.562178
0.562387
0.562557
0.562686
0.562774
0.562821
0.562828
0.562795
0.562724
0.562615
0.562465
)
;
    }
    lowerWall
    {
        type            epsilonWallFunction;
        value           nonuniform List<scalar> 
66
(
0.372051
0.0785954
0.0785954
0.342533
0.505618
0.648184
0.774129
0.893154
1.01828
1.17056
1.38855
1.72955
2.4485
1.65974
1.46132
1.53866
0.0737656
0.246639
0.322396
0.375351
0.41602
0.452468
0.495042
0.571743
0.762166
1.15857
0.0737656
0.0846391
0.458829
0.550623
0.60879
0.64259
0.659826
0.666391
0.666515
0.663071
0.657882
0.652484
0.64889
0.645505
0.642188
0.638975
0.635878
0.632879
0.629955
0.627091
0.624281
0.621528
0.618836
0.6162
0.613605
0.611016
0.608373
0.605573
0.602451
0.598746
0.594041
0.587678
0.578632
0.565323
0.545344
0.515034
0.468806
0.398341
0.365808
0.124728
)
;
    }
    atmosphere
    {
        type            inletOutlet;
        inletValue      nonuniform 0();
        value           nonuniform 0();
    }
    defaultFaces
    {
        type            empty;
    }
    procBoundary1to0
    {
        type            processor;
        value           nonuniform List<scalar> 
44
(
0.471569
0.449414
0.43823
0.412586
0.384236
0.360099
0.342691
0.33328
0.333051
0.341958
0.345703
0.330674
0.302412
0.269169
0.236138
0.206256
0.1808
0.160002
0.143467
0.13053
0.128245
0.128245
0.118003
0.11038
0.104686
0.100424
0.0972339
0.0948474
0.0930653
0.091737
0.0907488
0.0900144
0.0894685
0.0890622
0.0887593
0.0885332
0.0883646
0.0882398
0.088149
0.0880856
0.0880444
0.0880221
0.0880148
0.0880201
)
;
    }
    procBoundary1to3
    {
        type            processor;
        value           nonuniform List<scalar> 
45
(
0.0875849
0.0871521
0.0867384
0.0863486
0.0860025
0.0856986
0.0854478
0.0852459
0.0850747
0.0849222
0.0847814
0.084649
0.0845239
0.084406
0.0842957
0.0841935
0.0840996
0.0840142
0.0839373
0.0838689
0.0838093
0.0837591
0.0837199
0.0836945
0.0836882
0.0837094
0.0837715
0.0838948
0.0841098
0.0844596
0.0850052
0.0858296
0.0870442
0.088797
0.0912837
0.0947645
0.0995908
0.106249
0.115433
0.128177
0.146103
0.172015
0.211813
0.285014
0.562266
)
;
    }
}


// ************************************************************************* //
