/*--------------------------------*- C++ -*----------------------------------*\
  =========                 |
  \\      /  F ield         | OpenFOAM: The Open Source CFD Toolbox
   \\    /   O peration     | Website:  https://openfoam.org
    \\  /    A nd           | Version:  7
     \\/     M anipulation  |
\*---------------------------------------------------------------------------*/
FoamFile
{
    version     2.0;
    format      ascii;
    class       volVectorField;
    location    "0.0036";
    object      momentum;
}
// * * * * * * * * * * * * * * * * * * * * * * * * * * * * * * * * * * * * * //

dimensions      [1 -2 -1 0 0 0 0];

internalField   nonuniform List<vector> 
125
(
(0.359638 0.00324151 0.020167)
(0.466918 0.0867474 0.103557)
(0.390875 -0.167845 0.054053)
(0.255443 0.0194588 0.211924)
(0.370846 0.139232 0.13959)
(0.299651 -0.0757304 0.118909)
(0.35904 -0.0672347 0.0755251)
(0.467746 -0.190029 -0.114367)
(0.827582 -0.0134282 -0.0807294)
(0.445331 -0.0106495 -0.16723)
(0.583789 0.198095 0.0384491)
(0.431266 -0.050045 0.191545)
(0.479266 0.0665627 -0.0828399)
(0.494078 0.0297326 -0.134592)
(0.486602 -0.0440659 -0.0308972)
(0.408751 0.172883 0.00038058)
(0.468905 -0.268565 0.189082)
(0.337696 -0.081769 0.0317381)
(0.480013 -0.0548354 -0.0313225)
(0.538976 0.0043583 -0.0324249)
(0.615771 -0.0619224 0.0385396)
(0.589 -0.0663367 0.104523)
(0.388632 0.00775065 -0.0368312)
(0.616549 -0.062786 -0.0463217)
(0.374112 0.130517 0.158407)
(0.505703 0.0852907 -0.000510186)
(0.633886 -0.00598965 0.0547758)
(0.404082 0.0157512 0.137241)
(0.508868 0.0750972 -0.0914179)
(0.500191 0.0214492 -0.111169)
(0.644491 -0.155013 0.123402)
(0.598571 -0.0632151 -0.0646057)
(0.626163 0.0298705 0.0180173)
(0.695443 0.0634395 0.0305539)
(0.64078 0.00418834 0.0841001)
(0.594269 -0.0533386 -0.0909309)
(0.611768 0.0466452 -0.0154984)
(0.759719 0.273378 -0.184104)
(0.79446 0.0164137 -0.0371509)
(0.868177 0.0356294 -0.0325347)
(0.7579 -0.0912607 -0.0567901)
(0.63591 -0.0228272 0.191515)
(0.618615 0.143708 -0.213388)
(0.674262 -0.0525849 -0.0258286)
(0.646184 -0.0493511 -0.0291879)
(0.556342 0.0088189 0.0456109)
(0.891969 -0.0139353 -0.079924)
(0.413875 -0.0881932 0.032372)
(0.781434 -0.0787839 0.0235002)
(0.765567 -0.0479727 0.0194481)
(0.581386 -0.0129323 0.0275586)
(0.697914 -0.0181992 0.0404772)
(0.938317 -0.125861 0.0775545)
(0.789517 0.0290629 0.150657)
(0.763743 0.0407887 -0.0487523)
(0.751784 -0.122935 -0.14769)
(0.531901 0.0395724 -0.153405)
(0.699766 -0.0814699 -0.13482)
(0.673776 0.0137997 -0.0185774)
(0.894456 0.103848 0.100425)
(0.864557 0.0233417 0.000255865)
(0.680107 0.0162737 0.0227102)
(0.832109 -0.112433 -0.139392)
(0.855209 -0.00937412 -0.082137)
(0.776044 0.00162573 0.031072)
(0.807634 0.0390287 0.096284)
(0.773701 0.0328261 -0.110599)
(0.702444 -0.1177 -0.0637468)
(0.780558 -0.0266796 -0.0387475)
(0.865574 0.10238 0.252406)
(0.668191 0.0774072 -0.189822)
(0.99377 0.0675434 -0.255678)
(0.784784 -0.019327 0.0396782)
(0.861227 0.0886557 0.0693299)
(0.677797 -0.0149062 -0.0186224)
(0.842429 -0.0295084 0.202071)
(0.746904 0.113658 -0.049861)
(0.68774 -0.0940036 -0.0433638)
(0.743922 0.0786976 0.0669524)
(0.765638 0.0649213 -0.158945)
(0.854592 0.0637374 -0.138455)
(0.874312 -0.10469 -0.0348067)
(0.808372 -0.0715244 0.173296)
(0.774832 -0.00703021 0.0820781)
(0.904845 0.0478407 0.0782243)
(0.860494 0.0468212 0.132993)
(0.767245 0.0586693 -0.0608504)
(0.759917 0.113964 0.0699498)
(1.01408 -0.0789151 -0.0508256)
(0.92951 0.00400929 -0.033424)
(0.782799 -0.0218589 0.0797479)
(0.752102 0.0574916 -0.0661792)
(0.888011 -0.133693 -0.0248144)
(0.791049 0.0131419 -0.0279259)
(0.664707 0.0263145 0.115049)
(0.775612 0.0300471 -0.0558534)
(0.952051 0.0519387 0.09469)
(0.832326 -0.0396275 -0.00333857)
(0.956618 0.0811923 0.0313486)
(0.636281 -0.0710988 0.0641848)
(0.826506 0.00063459 0.000476007)
(0.808196 -0.150749 0.0227333)
(1.03005 0.108446 0.143823)
(0.934241 0.023487 -0.0146844)
(0.735554 -0.106626 0.0743209)
(0.858063 0.0717051 -0.0449117)
(0.74561 0.139713 -0.132489)
(0.79533 -0.155258 0.0171333)
(0.863023 -0.0473475 -0.0433447)
(1.07525 0.0818598 -0.0623927)
(0.889113 -0.159516 -0.118805)
(0.844143 -0.00848016 0.0994674)
(0.936546 0.0717874 -0.0539534)
(0.788478 0.0537105 0.111014)
(0.711696 -0.093099 0.0184619)
(0.925827 -0.200932 0.0415353)
(0.934259 0.202018 -0.0387864)
(0.777475 0.0858209 0.0120261)
(0.73325 0.00116686 -0.0133811)
(0.766851 0.052291 0.102968)
(0.786326 -0.0868583 -0.0306312)
(0.904226 -0.0441274 -0.0762074)
(0.753333 -0.14154 -0.0743816)
(0.829999 -0.0380302 -0.0334931)
(0.887666 -0.0402737 -0.0544877)
)
;

boundaryField
{
    sides
    {
        type            symmetry;
    }
    empty
    {
        type            empty;
    }
    procBoundary1to0
    {
        type            processor;
        value           uniform (0.334746 0.0462823 -0.0361316);
    }
    procBoundary1to2
    {
        type            processor;
        value           uniform (0.813419 -0.0742308 0.0113203);
    }
}


// ************************************************************************* //
