/*--------------------------------*- C++ -*----------------------------------*\
  =========                 |
  \\      /  F ield         | OpenFOAM: The Open Source CFD Toolbox
   \\    /   O peration     | Website:  https://openfoam.org
    \\  /    A nd           | Version:  7
     \\/     M anipulation  |
\*---------------------------------------------------------------------------*/
FoamFile
{
    version     2.0;
    format      ascii;
    class       volScalarField;
    location    "0.0036";
    object      rhoN;
}
// * * * * * * * * * * * * * * * * * * * * * * * * * * * * * * * * * * * * * //

dimensions      [0 -3 0 0 0 0 0];

internalField   nonuniform List<scalar> 
125
(
8.85714e+22
7.78571e+22
7.39286e+22
7.10714e+22
7.57143e+22
6.42857e+22
7.46429e+22
7.39286e+22
7.85714e+22
8.17857e+22
7.46429e+22
7.14286e+22
6.89286e+22
6.35714e+22
6.64286e+22
7.53571e+22
7.64286e+22
6.21429e+22
6.28571e+22
7.14286e+22
6.96429e+22
6.53571e+22
6.67857e+22
7.17857e+22
6.10714e+22
6.85714e+22
6.21429e+22
6.85714e+22
6.46429e+22
5.71429e+22
5.78571e+22
6.64286e+22
6.21429e+22
5.60714e+22
6.60714e+22
6.71429e+22
6.57143e+22
7.14286e+22
6.67857e+22
7.07143e+22
5.5e+22
6.21429e+22
6.39286e+22
6.14286e+22
6.32143e+22
5.17857e+22
5.82143e+22
5.42857e+22
6.28571e+22
6.28571e+22
6.14286e+22
5.28571e+22
6.25e+22
6.25e+22
5.96429e+22
5.21429e+22
5.21429e+22
5.78571e+22
5.10714e+22
5.96429e+22
6.21429e+22
5.32143e+22
5.21429e+22
5.71429e+22
5.67857e+22
5.5e+22
4.85714e+22
5.21429e+22
5.42857e+22
5.85714e+22
4.78571e+22
5.89286e+22
4.78571e+22
5.17857e+22
4.5e+22
4.92857e+22
5.25e+22
4.75e+22
4.42857e+22
4.46429e+22
4.71429e+22
5.46429e+22
4.32143e+22
4.17857e+22
4.42857e+22
4.89286e+22
4.71429e+22
4.28571e+22
5.10714e+22
5.28571e+22
4.75e+22
4.64286e+22
5.10714e+22
4.57143e+22
4.28571e+22
4.25e+22
4.85714e+22
4.5e+22
4.42857e+22
4.85714e+22
4.53571e+22
4.35714e+22
5.21429e+22
4.92857e+22
4.53571e+22
4.32143e+22
4.57143e+22
4.35714e+22
4.28571e+22
4.60714e+22
4.85714e+22
4.75e+22
4.46429e+22
4.42857e+22
4.42857e+22
5.17857e+22
5.21429e+22
4.39286e+22
4.67857e+22
4.71429e+22
4.75e+22
5.17857e+22
4.5e+22
4.35714e+22
4.67857e+22
)
;

boundaryField
{
    sides
    {
        type            symmetry;
    }
    empty
    {
        type            empty;
    }
    procBoundary1to0
    {
        type            processor;
        value           uniform 7.46429e+22;
    }
    procBoundary1to2
    {
        type            processor;
        value           uniform 4.03571e+22;
    }
}


// ************************************************************************* //
