/*--------------------------------*- C++ -*----------------------------------*\
  =========                 |
  \\      /  F ield         | OpenFOAM: The Open Source CFD Toolbox
   \\    /   O peration     | Website:  https://openfoam.org
    \\  /    A nd           | Version:  7
     \\/     M anipulation  |
\*---------------------------------------------------------------------------*/
FoamFile
{
    version     2.0;
    format      ascii;
    class       volScalarField;
    location    "0.02";
    object      rhoN;
}
// * * * * * * * * * * * * * * * * * * * * * * * * * * * * * * * * * * * * * //

dimensions      [0 -3 0 0 0 0 0];

internalField   nonuniform List<scalar> 
250
(
1.671e+20
1.728e+20
1.56e+20
1.587e+20
1.7235e+20
1.8225e+20
1.6875e+20
1.7205e+20
1.605e+20
1.785e+20
1.806e+20
1.719e+20
1.626e+20
1.5915e+20
1.707e+20
1.641e+20
1.791e+20
1.737e+20
1.7895e+20
1.605e+20
1.671e+20
1.6785e+20
1.788e+20
1.713e+20
1.7775e+20
1.6725e+20
1.6365e+20
1.6425e+20
1.68e+20
1.6665e+20
1.671e+20
1.6935e+20
1.704e+20
1.65e+20
1.749e+20
1.7235e+20
1.674e+20
1.7445e+20
1.794e+20
1.6725e+20
1.749e+20
1.7715e+20
1.6875e+20
1.755e+20
1.65e+20
1.7355e+20
1.6635e+20
1.638e+20
1.65e+20
1.599e+20
1.677e+20
1.674e+20
1.659e+20
1.653e+20
1.674e+20
1.6515e+20
1.7655e+20
1.716e+20
1.653e+20
1.608e+20
1.6215e+20
1.707e+20
1.6215e+20
1.7145e+20
1.6005e+20
1.653e+20
1.671e+20
1.6575e+20
1.7865e+20
1.668e+20
1.7475e+20
1.6005e+20
1.716e+20
1.617e+20
1.6365e+20
1.6665e+20
1.6215e+20
1.7445e+20
1.671e+20
1.7895e+20
1.6635e+20
1.6065e+20
1.728e+20
1.6185e+20
1.707e+20
1.644e+20
1.8345e+20
1.6425e+20
1.737e+20
1.767e+20
1.659e+20
1.7325e+20
1.6875e+20
1.7055e+20
1.6815e+20
1.593e+20
1.6305e+20
1.692e+20
1.6395e+20
1.677e+20
1.6605e+20
1.7115e+20
1.629e+20
1.68e+20
1.683e+20
1.6545e+20
1.6935e+20
1.629e+20
1.764e+20
1.671e+20
1.608e+20
1.6635e+20
1.7235e+20
1.6275e+20
1.6845e+20
1.635e+20
1.6605e+20
1.6965e+20
1.6425e+20
1.6485e+20
1.7925e+20
1.7055e+20
1.7685e+20
1.6815e+20
1.644e+20
1.635e+20
1.6635e+20
1.6545e+20
1.6875e+20
1.668e+20
1.662e+20
1.698e+20
1.7925e+20
1.6875e+20
1.659e+20
1.683e+20
1.632e+20
1.6665e+20
1.725e+20
1.626e+20
1.716e+20
1.6305e+20
1.6875e+20
1.743e+20
1.734e+20
1.7805e+20
1.6335e+20
1.575e+20
1.686e+20
1.6485e+20
1.668e+20
1.6875e+20
1.6515e+20
1.65e+20
1.6845e+20
1.6785e+20
1.773e+20
1.7505e+20
1.629e+20
1.725e+20
1.704e+20
1.608e+20
1.8315e+20
1.704e+20
1.803e+20
1.602e+20
1.7685e+20
1.725e+20
1.596e+20
1.6815e+20
1.7235e+20
1.611e+20
1.7175e+20
1.752e+20
1.716e+20
1.722e+20
1.722e+20
1.6155e+20
1.617e+20
1.6665e+20
1.71e+20
1.611e+20
1.656e+20
1.6665e+20
1.6065e+20
1.6635e+20
1.7115e+20
1.683e+20
1.6125e+20
1.614e+20
1.6875e+20
1.6695e+20
1.7055e+20
1.6815e+20
1.6275e+20
1.6905e+20
1.6455e+20
1.7205e+20
1.6545e+20
1.71e+20
1.6845e+20
1.7085e+20
1.6275e+20
1.7565e+20
1.716e+20
1.605e+20
1.6275e+20
1.6935e+20
1.6935e+20
1.6515e+20
1.6965e+20
1.641e+20
1.6995e+20
1.602e+20
1.668e+20
1.68e+20
1.692e+20
1.677e+20
1.6785e+20
1.653e+20
1.701e+20
1.608e+20
1.677e+20
1.671e+20
1.632e+20
1.659e+20
1.6695e+20
1.6995e+20
1.656e+20
1.644e+20
1.6305e+20
1.5795e+20
1.7265e+20
1.6245e+20
1.7145e+20
1.629e+20
1.7715e+20
1.674e+20
1.698e+20
1.599e+20
1.6875e+20
1.677e+20
1.665e+20
1.6785e+20
1.6395e+20
1.6515e+20
1.6425e+20
1.767e+20
1.692e+20
1.6545e+20
)
;

boundaryField
{
    sides
    {
        type            symmetry;
    }
    empty
    {
        type            empty;
    }
    procBoundary0to1
    {
        type            processor;
        value           uniform 1.644e+20;
    }
}


// ************************************************************************* //
