/*--------------------------------*- C++ -*----------------------------------*\
  =========                 |
  \\      /  F ield         | OpenFOAM: The Open Source CFD Toolbox
   \\    /   O peration     | Website:  https://openfoam.org
    \\  /    A nd           | Version:  7
     \\/     M anipulation  |
\*---------------------------------------------------------------------------*/
FoamFile
{
    version     2.0;
    format      ascii;
    class       volScalarField;
    location    "0.00072/particle";
    object      internalT;
}
// * * * * * * * * * * * * * * * * * * * * * * * * * * * * * * * * * * * * * //

dimensions      [1 2 -2 0 0 0 0];

internalField   nonuniform List<scalar> 
600
(
896.809024206438
950.983344484162
827.866568079625
965.984732563579
891.938641486015
849.521837566387
897.594186769344
870.693233293974
841.02292770852
899.133274911229
808.28610836725
899.531678457974
856.89750580164
915.743132416424
879.426652118103
1053.87208046352
995.133086495906
948.665341848672
927.429767446339
1013.99156446991
949.995166165719
817.974849942233
943.020296568171
899.841334612512
865.43565849084
961.485586044871
1013.9028252903
825.114811668676
994.749059858646
869.489694427141
873.587486357176
915.217292361116
933.513173546346
846.213175330685
944.87403120105
915.77246711186
1018.1087787613
825.081602796104
856.659704322598
907.226102552218
852.657570071137
963.854877068553
882.645437304709
978.165389391888
795.89002087617
942.207658213376
902.93035354883
940.271911589009
850.209918793987
935.853432374675
930.508274270996
893.610159675095
826.141563575077
952.934699316845
927.554715250749
857.281602376194
964.217910672487
975.699079557318
908.343715096262
896.562515094791
812.473327000566
882.142948096895
928.665885035465
1061.65584946156
892.071061452549
938.799700274265
830.949824976743
965.977057040146
871.164028793061
858.974089299251
926.185948838069
892.264932052267
879.494413137023
885.529563696538
950.566296296452
845.548797264377
873.251214050539
983.636685375135
846.807267480343
809.305238635823
876.188526472534
911.669602055789
940.745649378941
897.553423795822
797.294303773545
818.484659674481
859.222805951099
902.574047609338
926.079101273369
961.102936751498
900.705156564051
972.344313580457
854.74647271016
847.581335941177
923.339150708333
883.209572642061
950.545734054796
981.346489797865
837.569845750995
852.889004324094
925.086823605416
989.412583083522
938.886587503378
885.903054745102
904.763570770883
867.659030561039
846.944333964173
857.785914422771
896.01627871146
1027.6677636687
782.341952585037
858.550383228927
845.644952595379
932.891376502061
939.801840460442
972.264394924151
955.526906581183
828.244608076242
909.679943518543
836.086040038277
822.460795863232
883.788863395362
933.972923211324
934.672907804321
900.84440113004
985.450000615688
911.749830190123
921.482005398043
876.7800240466
881.534637201902
873.989323863616
915.186723314591
881.219183321053
950.909186360443
869.659043642735
938.277384867871
838.753412497743
897.525336974455
782.472550045688
887.941949472678
913.063438610442
842.673964595894
860.013649889049
925.334567915344
936.250271052533
837.736610857031
785.224038161436
766.222826612273
913.604803573297
964.474846553782
835.352854471585
951.537841508097
1037.43345959967
840.704780026244
821.887018689057
910.508073611729
910.192529363378
889.663257667153
820.047887629233
942.699334642716
879.312429355411
843.030454722461
928.412952210109
870.067646473947
877.411513175307
914.756535358434
1008.01218747554
845.784428501597
871.542852263065
909.846924639602
940.496306868687
802.492162975157
908.387097550872
795.72536173817
858.03601019037
854.941409437258
876.045453293753
865.034636208072
861.206463120113
1021.25864423965
880.368192127243
889.271111272355
907.672832365774
920.009399680007
973.844131526374
884.858677435636
879.952644522426
864.980508583164
861.790014139865
904.863102001559
862.255502116561
933.76871517335
937.616373333942
944.803140518084
955.220197180211
835.12849446286
922.087381257619
844.425718101727
825.294073023624
850.770521528205
872.987746681925
915.135841469383
802.359007106049
827.748113422417
958.604316141165
886.615290147931
831.205032825111
941.923713471849
1039.30206594738
911.797167585997
937.302033740632
908.381790246321
831.818424010739
896.482373614235
875.892755727856
877.265160969368
863.755707207868
892.166882984256
873.430621038306
870.117053862057
1032.39540841016
856.141552850958
900.684104103459
945.522300857816
881.736054298912
979.071374091729
805.3132120896
946.813459971751
928.693153724018
866.451019970719
857.630828546881
924.641215784832
962.061690944666
926.931434725222
971.51355213913
907.414844216622
787.506259587845
973.751586222414
778.612946995845
793.082294855376
894.209054074773
1032.89009477988
862.967185907822
844.185964223341
820.340668342753
920.107229253788
1010.52861786284
870.688351072468
925.645821444921
854.448159991875
859.50191679764
936.18219842788
876.323453678398
874.939676641031
975.250283611575
911.238089183223
870.998683939557
909.717064648684
882.809038108412
826.850656145626
964.626930264182
935.858870844581
873.291421366416
843.355363232386
854.47396065395
885.452669788713
895.475556600473
673.950415824635
842.515594021701
852.04455190545
730.170709208626
714.579119318842
793.97312766194
753.3699216775
711.183713938547
777.211223683306
681.132092339229
729.665625817632
826.104658651043
835.499125633412
775.810218930949
699.650957515074
758.109341797111
629.475101422845
692.136370882013
711.107812503892
774.116640406262
719.421865918016
754.881688966142
651.65592869573
692.566013493215
673.372160223855
698.363840879694
624.138600931275
783.786045947937
634.345065114828
682.320048188835
626.581315185311
703.323404219881
623.42246583211
654.50967590202
645.335752156325
671.977855607078
755.280859254029
714.828174300028
666.041192777139
686.299808452062
677.743081094664
569.751764719864
721.914121507276
622.030595314289
678.775370469322
649.69623642973
608.15836635977
704.547484718836
662.994168864551
717.404640114371
617.45522013376
598.784942560846
773.583214957599
631.612638855472
763.966053160099
688.500015324988
697.661858378091
702.398032906491
643.620494576332
504.745910483774
599.103714799798
571.604486760941
506.603450410252
599.347966395603
535.366186775346
445.286229789413
557.380470143335
443.283661805393
475.629218222003
503.460462726029
442.152808827734
456.926418354763
499.300228841448
481.543880259614
489.423269182262
539.998921395477
552.491362146781
468.722340959856
443.778912112824
470.081806492098
451.670612096286
378.740504347763
307.014090278845
304.248492999781
288.323958136759
265.112465620244
281.053437101008
353.292590179177
275.214762472516
319.896087020816
289.431169780637
218.243896353022
214.093275160329
263.335758889962
243.644016649738
264.737525324489
309.848408051331
308.748356019148
298.221987897863
357.029630514699
302.174109132068
256.953511520323
251.952747459845
362.196586418797
303.678665427764
277.531015611986
294.605556463962
254.829748163093
310.322362833255
379.262318677024
297.896662272687
254.511525871208
280.819941108515
244.031767026454
365.250965654347
262.339548250685
287.854452177333
347.21730875193
285.502806968445
266.1962580697
294.092001358931
254.302736159249
307.058421336086
293.679061199228
341.50607906585
297.867494176831
335.399868787487
288.571555623926
323.744819716802
285.445966188575
320.269443194743
262.369950037343
422.930347074926
294.216923422716
290.713255094726
282.044868122886
261.641434665368
266.086846051706
288.912206925479
322.696472431344
374.245102793821
384.716472988347
324.785112569457
262.560852396946
279.399587174547
319.753497527586
287.83022371895
272.451074371392
286.194596916775
252.57790460256
303.306865947067
297.588611431355
256.344168639033
358.400097264298
258.140367088105
336.769640607445
288.885204847087
305.70176014869
346.656513998457
257.647126729201
291.484314003644
290.788311392035
269.401084229875
338.476774092229
350.689669428255
283.162745964553
287.893525689558
292.868811002126
234.742473750713
282.657722794041
262.086595161566
399.597351827546
294.196552321737
312.140793391852
297.372533623287
282.000476718752
304.988506917973
283.292984379864
291.69298608481
366.423520189007
263.074268214194
269.313572121773
271.317336723594
374.247818547367
275.231603113352
314.430071751419
324.63654417714
277.230529450704
267.085551347224
300.31688409797
285.316051465549
250.788161954789
309.180287058142
313.147049727278
292.407318871625
254.018679272238
312.226864655412
253.70419631236
296.2814039149
318.893971835798
287.981196256811
306.786480884664
319.169130502069
322.426679390307
276.573735997263
344.180094044214
316.960193997987
312.883140892646
286.666009330703
267.488233379926
277.735361230096
285.544876681248
284.133854947112
356.797470774314
275.196333846679
229.244982625067
296.453517677302
386.972668451004
297.620131844131
315.901740385207
262.824221140246
293.642373310143
343.987623766549
304.046068094999
312.372367933493
293.891293972017
320.525174398664
311.599591440551
335.695860705304
367.337437499746
373.017106444719
313.290433200881
325.584382591402
277.608058703674
338.673641351914
313.597335193072
328.219098329305
277.801858400211
310.478149901705
288.665363385238
278.671080757518
295.237608025116
266.808660887259
291.37283290337
316.105833045153
250.092964479623
381.651764420541
344.876856271872
327.559026605383
270.62617611352
229.24331000771
225.008589189884
321.055343787761
227.501694456678
336.891092067344
251.628742382813
311.662602360023
351.616304514868
309.21266249248
211.115712733015
269.921231762333
298.257386464418
367.452762567767
301.931781551146
292.364611780805
230.130049974818
312.444828758056
346.021142912998
335.079557052518
243.314565017433
239.100444328762
326.822373799871
331.450299579444
403.768107456105
324.528718178923
292.996083349146
322.617874436256
272.655538044394
306.741493375771
301.492472060467
285.255143889432
246.896028146087
302.013916579974
282.990419926264
382.730268421885
268.50837590909
322.280842064449
316.751809571047
273.298316790267
321.775412782402
286.383873038962
299.391316661906
307.609236240242
328.137104932321
326.668504784029
288.312175105696
299.086520588836
232.101954759921
281.729371832685
307.443293151453
280.312115107382
349.790540578473
240.021303722937
355.310286028394
302.521708468837
311.694219530003
291.284763081891
361.907089116832
314.117812818509
324.221882133327
309.120529810557
338.606856297409
336.772884181899
296.660119914938
291.737742045172
302.386343437233
332.947367527347
291.776328692867
384.048162585864
378.089241222269
403.775071279159
306.745404684181
358.070505497456
340.827107649592
312.066634755324
337.754987277982
383.760356062291
266.29570035333
320.06656794335
312.558553693962
269.689608959832
278.156924847079
253.355274251622
)
;

boundaryField
{
    DSMCSide
    {
        type            symmetry;
    }
    DSMCBound
    {
        type            symmetry;
    }
    nullDims
    {
        type            empty;
    }
}


// ************************************************************************* //
