/*--------------------------------*- C++ -*----------------------------------*\
  =========                 |
  \\      /  F ield         | OpenFOAM: The Open Source CFD Toolbox
   \\    /   O peration     | Website:  https://openfoam.org
    \\  /    A nd           | Version:  7
     \\/     M anipulation  |
\*---------------------------------------------------------------------------*/
FoamFile
{
    version     2.0;
    format      ascii;
    class       volScalarField;
    location    "0.00072/particle";
    object      internalE;
}
// * * * * * * * * * * * * * * * * * * * * * * * * * * * * * * * * * * * * * //

dimensions      [1 -1 -2 0 0 0 0];

internalField   nonuniform List<scalar> 
600
(
97.0732633348164
109.764722921388
103.32665554061
110.962743508356
136.445223458737
114.943447853531
105.089537504071
114.442072714504
120.76046373464
105.766287931727
99.5436512241388
104.819601961237
115.941403055736
129.466445390923
106.847875837723
126.296472749023
135.194760793663
117.355822458414
106.533931580942
121.517174962531
113.847819711269
108.416349750983
130.198097245684
100.383167841528
108.493627764099
114.693846425814
132.705299907873
106.17295207287
128.000906980825
105.640563301753
106.620880972651
116.756155334131
118.574656601221
109.355147040701
112.190468481285
117.33272462343
122.572844406599
99.3337853793206
95.0928765501487
125.256171848873
113.013280715397
120.831758231042
110.163647840533
111.281533296786
93.1821032609643
115.516279494131
108.20755280004
110.08620796956
108.463030772982
122.489756725486
121.27626989354
106.103606558166
103.111356417394
113.673826881659
119.866819888385
118.834026769798
112.357285486425
116.389347914085
119.390772223577
105.959021521457
103.648896020516
111.075276309645
113.343169789003
133.67869354859
113.803342975889
108.876919719428
122.985293891563
127.499446995517
122.201697821479
102.465438600184
120.201431244747
108.407690902541
111.713204457783
110.523617847433
116.541062899974
102.731811330989
107.062100834684
129.287120615936
116.446787603134
108.608099394632
112.744943021726
123.855748990107
121.571469004286
126.399127725497
94.2271429712232
108.935937494592
102.495107551943
105.174119685409
117.118945783454
119.955987974187
123.858434011252
132.635757042631
91.576203681669
109.063867580742
119.831970651994
101.942115584746
120.738129030493
122.482601215005
110.550961200452
93.732279824076
109.841016578933
134.964009304022
127.034829169584
102.253003591825
114.423223077012
114.522436916015
108.514166867015
105.166028500001
122.223985670057
119.750897623533
94.6203005148821
97.6734651362512
96.2052715931888
115.404484515493
107.436097633428
126.718485398827
126.647829462848
104.288651734408
109.518806342448
102.967323453151
111.736200984366
107.865953531417
117.601462138575
103.236492012799
111.440073688851
135.511929717668
108.257436662469
118.064255333863
118.147370803511
112.946025947943
102.808570271343
103.611309062634
111.445622315418
126.035785742263
109.023084081363
104.152786781995
96.3476715938865
116.977492853015
89.4505561310632
112.786208833632
119.002625847248
93.0750247375476
119.212735710217
121.112988629035
122.024643627185
113.811511495131
97.137113318567
90.5550027001293
112.009520318344
111.321943660381
101.031700862897
105.09925767025
131.774590551661
108.179015883427
111.204354610601
116.658227786012
112.596495483635
113.004849056226
102.803679737824
120.262096080998
112.175697996477
100.097979768878
119.97772885509
105.230279298732
123.562616977882
113.666274948832
133.604354557261
99.9578824156361
104.927379718797
113.558686147929
124.655637703517
99.2732881111216
99.3298399817042
104.149007320821
92.8763575295978
91.1249389557353
112.242727992351
115.131490794339
106.061003534963
119.004063061108
112.79657596593
109.026167788304
109.778436250104
124.480675811486
136.067235499416
102.132459118928
106.425819794605
108.436568797122
120.410834761846
118.4335681206
99.9997369557636
117.575749226295
121.167076290949
116.878044053686
131.354946617588
109.767518839794
122.215674521597
103.994387998588
105.740241906178
104.305929264657
103.654985791253
109.164870678932
99.2568158992247
113.825911106545
118.055936777967
112.128054671393
97.3167537827372
110.279599480412
126.846255925765
114.809195659795
116.467744759563
126.41905772532
98.7667092114974
110.405372310439
112.706884253838
106.585260715323
106.374953090366
109.381194380906
113.837147566812
91.3008603915112
112.889836273226
121.512872632207
117.886597389728
113.311789654163
101.285091096203
120.576536423468
113.409279999691
123.92426673275
111.294977593408
99.5292979801217
109.883366718603
107.234895144162
123.794808139772
121.321995531503
115.353535975434
121.774328013701
96.5496219362356
115.081506915539
86.4293540076923
99.8611792197594
113.088419314559
126.634102190979
110.090501618661
103.964861354244
98.7630115747729
124.49391251479
131.147515607716
105.786196727924
119.62013575617
115.609997505095
111.547104214109
92.5458605817746
112.762304993127
110.168274367362
113.64285326337
108.196674633448
124.58359289685
108.016074416416
102.38342507101
106.852951146936
110.274047781096
103.884321422537
90.6693770283981
92.684535146844
78.805928848297
88.5090165465668
89.0163595598738
63.6454914860051
83.7517791517982
92.6983744743528
78.2293507183087
66.2984220250824
75.4184911110059
81.5469902973377
64.0196058111328
63.52495521792
62.8190555556474
51.5795377297989
73.4521539646449
67.3662610798594
71.1225259501282
52.9353255782277
53.1715300678088
54.5785253633507
43.9575117010786
52.2312812709432
48.3090431088757
45.6904107622669
48.7762425011673
42.4662533754184
54.69414044548
44.9970576138333
44.3530176978843
43.7752215362898
59.3009543977221
35.0323405660328
41.8268057492161
40.1401524664127
54.7668510332384
37.5277507168689
36.1459513613657
35.639312248586
39.3372879969804
46.2993662138106
48.9516049348302
40.461070003541
36.0065135604925
44.9148472758417
36.4995287117671
37.8750078106436
38.4745330556436
46.1078397897351
48.0793666331111
39.9675231892978
46.6912072692944
40.6421127263831
44.7699091801015
35.463565266592
40.3435666301941
46.1396591595879
40.4624699283835
51.8946707797377
41.4451810125054
41.6113996940524
51.591542907842
34.4782478704691
32.8926152298055
40.6959051568448
43.563052552486
51.7587119818623
46.008431201107
39.9142795916519
36.887065989526
43.4024703202324
35.9867517550918
43.0780426970635
44.7646130983596
41.5111627345444
46.1786196355124
39.1555833019531
39.3587386502026
48.3817121403097
49.5044875187589
46.9883074675121
48.1473276034388
32.840899828461
44.9120764724251
39.6608983455682
22.3804657096277
10.5121992928387
11.4256505465963
12.4199235514076
10.8344147594939
10.0889471262711
18.9256084876791
10.0313469117227
12.3666069112673
9.91015798502959
7.71375194879505
8.03999034552311
11.1980950777511
7.66962614419451
9.64946041855628
9.41142850067401
12.4471837979436
11.1993331024805
13.2106033111195
11.6815071456495
7.66287789869926
9.18346600460341
12.8017079562019
11.068832264763
10.1157723930031
9.11113641831629
11.3993144143648
9.59720317350464
13.404890119205
11.5161487494695
7.44949636971451
9.92547972330218
9.29905987240398
14.1199448804579
10.1415747241848
9.53822998556744
13.0392877033314
9.93332215111211
9.11459181985796
11.8563131529452
11.3757395547764
8.98753243965367
9.24467030525967
12.0704094223943
10.6925196517165
11.8545876183405
10.5181908023853
13.0517659319871
10.4042656929619
10.0817041538269
10.1427500025338
15.1818883759142
8.28669614460106
9.15131022874117
9.96877432765049
11.4150337979553
10.8742349984387
11.9665991547498
11.5838030012199
12.4008360281352
12.7478111623529
13.2730711438033
9.71512437509674
8.64086809672929
9.35911452686291
11.4449125932746
7.97458300761349
10.273498826062
9.20625245732366
11.0552804860034
12.4903177777296
8.91882372607326
11.4799421874811
10.5494843354776
14.8787521377484
10.6891627963333
13.3373214707178
10.146559900302
10.9561915699753
8.53168174433725
12.2048972165517
10.1170021088223
12.7110484616917
13.5570313786904
9.85190585944239
11.4474296518069
11.1600413399189
6.61158280623137
10.1465360093659
6.51329743697664
9.93067350841313
11.8605281229186
14.3077785883628
10.3462981913847
9.18851741308909
12.464038509458
8.91772886255648
11.2763257946644
12.7487463553535
8.28126753574577
11.4522957271783
10.18896444177
12.4009260162584
10.7919577646122
13.0235363569074
14.3427022309813
11.0234399180006
6.9325313295898
9.78532714230409
9.1389812697773
10.1105197334443
11.4401096571595
12.2786398674483
11.1424557484836
7.15450214655915
13.1047110288701
10.2280796002479
13.9080712907139
12.3278669420233
12.8822801310276
12.5375167430685
10.2233319526421
10.683801477606
9.92813974372008
13.1153060128423
12.6031994450883
12.4410847240347
11.5569344328474
9.45427531304966
11.1968955332837
10.723260924527
10.1995245776515
12.4138331862187
9.42275549446972
8.10258138268942
12.6063953147802
14.1048287079983
11.8341859688801
10.8165134989989
8.56369095764776
9.89218316214032
10.0684420703687
9.90683641240273
11.7307319462173
10.549786390584
9.91274103755037
11.0133753836133
10.9380923659541
10.1432886616804
11.5361359234882
11.7652086754879
11.3278555611854
10.7318278549786
12.5314056465918
12.9890448250289
11.2382613130871
11.5064140740081
10.6308091100123
8.60859001348853
10.311225700963
10.7611628129249
9.13556056581952
11.4248628096432
10.648929048809
9.39191115831905
15.8078252564174
11.8086249439705
13.0246378583827
10.0135528053708
8.35572608540056
9.44400650341606
14.7164000052989
7.28712497527778
12.8375517408526
10.0054432273192
13.4252655247897
10.4859154978945
10.245947099286
6.87885504732232
8.04960177046526
11.200662448921
12.7845561473082
10.6716701234838
11.463750915646
6.99003917695025
10.6981484300555
12.6121800014194
12.398419423913
7.92800119891553
8.05478229448505
10.6489645251288
12.4471784863094
17.1698430768259
12.9041445529081
12.7829913422414
11.2246436821781
10.0886420785065
13.2132824562735
11.6551562834079
13.3904754899712
8.04469722973394
11.6753143899318
10.7836159622852
12.4706304642818
8.74889970509334
8.89914089192555
10.4957612612229
12.3764017313085
11.728443504571
11.2292433984395
8.10175057844568
12.7410207604534
10.6918028566245
14.2520699277109
11.7825228549664
11.0666259646467
7.6908375321421
11.0467382650709
8.4894316537915
8.35947910921688
14.1017986476098
9.67645405916406
10.7923012209128
12.3632272652059
12.9102187258221
14.156113246846
13.7908098234606
12.8371280447293
10.7432865976173
10.4136091313835
11.0329423250695
12.833047318263
11.4683462476956
12.8892068337485
10.5207405676789
12.6872724101553
11.1184112745912
14.8466106788754
13.9898388119472
13.6023180727422
13.0440477236989
16.0175894066465
9.78770928046952
11.029882861439
12.1243570028189
14.6235491024877
9.11799673558197
12.5499573596806
10.8746559723706
7.74481673909564
9.06328165564727
10.2140128143486
)
;

boundaryField
{
    DSMCSide
    {
        type            symmetry;
    }
    DSMCBound
    {
        type            symmetry;
    }
    nullDims
    {
        type            empty;
    }
}


// ************************************************************************* //
