/*--------------------------------*- C++ -*----------------------------------*\
  =========                 |
  \\      /  F ield         | OpenFOAM: The Open Source CFD Toolbox
   \\    /   O peration     | Website:  https://openfoam.org
    \\  /    A nd           | Version:  7
     \\/     M anipulation  |
\*---------------------------------------------------------------------------*/
FoamFile
{
    version     2.0;
    format      ascii;
    class       volScalarField;
    location    "0.00072/particle";
    object      internalE;
}
// * * * * * * * * * * * * * * * * * * * * * * * * * * * * * * * * * * * * * //

dimensions      [1 -1 -2 0 0 0 0];

internalField   nonuniform List<scalar> 
600
(
102.471631624025
120.76189283358
106.587537359079
120.296121709996
97.1965382685884
115.194454057564
87.5191491628408
123.524778609281
106.079261992998
118.772613816889
109.419290084824
106.045001839159
127.070179689272
113.838800082988
111.704509577564
109.566307777908
142.192062133069
125.410708761935
118.288147528108
92.7438045036634
109.505952656297
126.627648736167
120.717183435997
102.098429641503
125.242088402859
137.408489204982
110.948663341895
121.394908714273
138.279092694402
109.53316476661
111.331868258782
103.754903476663
131.678892914473
108.741543124833
114.606871146987
115.806871027799
124.136471697507
118.528499044506
101.001369671897
119.433640344053
117.238208475554
116.968091969042
111.115759442357
128.794575647135
110.144269805628
115.940832862233
97.044774010192
112.881739824357
114.182983532611
112.316882799272
121.58740767227
89.5194415247231
130.416043041355
115.112104954617
117.250238452108
103.221361613303
111.399488359652
115.179119649408
108.980000440373
120.810895007903
104.148191356818
114.35927842978
125.339351552949
107.461189003115
124.059675653411
112.63400637828
101.304919447599
119.446439134445
112.7931834712
113.295750556357
107.894919172132
120.004648842897
114.16679726589
108.339875169432
125.24043235569
119.656166491125
103.580848515537
125.54699047161
121.434655036843
99.3151803794691
121.511771635693
109.641733614095
94.5486155700796
133.98440955358
121.429688792458
133.127890190358
110.210003538998
112.654117385591
133.052699864195
122.594025576248
116.691958227587
100.936332979672
122.7623464738
106.548698351474
121.108747123575
111.567063585104
108.454490570998
121.017871268877
123.716678976092
101.945942330297
99.3288585685873
110.373809311857
107.02713461767
110.031138701488
110.288027900283
101.379319506003
99.8174009674232
105.481153054327
102.861308123849
117.871365953063
129.126376887964
93.6906109429307
99.1201136429683
115.22121561619
96.1693168016519
112.892745217055
121.423499045671
135.738901962187
102.931794845136
135.222238457088
109.855232109701
111.628142423307
106.922032531698
110.489835158789
106.017642086256
104.763144903996
119.367990898306
115.088886092114
102.619617492459
112.579355052805
102.203926436045
114.056957584683
127.954361781745
115.59686278443
124.895113974495
114.14085951414
122.259072631128
102.589983264436
110.189771181581
116.385940330961
96.178816879912
92.0631452105731
105.530533675186
113.975000751567
116.672571770077
115.64144483517
110.349856878784
112.632495320729
115.257496740261
96.6475731879314
106.487483974821
120.281491220297
105.147677093284
106.861436085037
103.901211052274
103.16898822334
129.05551893187
110.518493693741
115.097927115415
107.755793801825
84.8213747762689
111.285538877013
115.234046091924
119.128385262975
107.491145834555
125.083936793148
108.073295363067
118.111101041145
99.1370963593515
101.06474095413
123.481796632693
101.140409259547
120.161792488535
116.156337196018
122.751233251144
101.847308704345
118.733281460636
121.111066169913
115.113147749134
116.425074718741
105.530709766878
103.303662208042
119.865793736026
112.173536696632
104.488194702356
101.425738405535
103.99376178674
111.111262387253
107.848783866285
125.535805710794
139.54385568433
125.156686212002
122.555926028733
112.554372534538
117.894499827108
106.799793737448
120.16531931135
102.714157181459
96.2428854221005
111.850159073679
96.7370036693058
115.295120400677
91.5966725572094
118.526330804823
107.527755683412
126.295534342531
105.325835051418
124.391490164274
121.35135597283
104.688455763623
111.97276324249
138.729512845914
113.632172556086
115.787784714564
102.668660277019
103.035059281148
106.903846604271
113.111537610813
125.628070569939
108.119078270147
113.434940089853
138.109959112379
111.997987704772
91.2967088139028
102.172896297386
103.91822881634
109.284157405071
120.259702672439
102.210165877265
114.204811105657
116.038185573427
107.818825456873
95.5472865044581
109.382709593288
95.0308466476862
117.865270433556
102.785319803036
109.250374069876
121.425044434894
113.202872050031
107.89250758469
117.014522744444
107.56552688253
94.0816839963551
109.244334526876
102.434696969793
101.490309254329
114.687538025361
118.553474861142
104.377451451387
136.69150646878
124.205738207362
109.505119518817
96.9402750710071
91.629454165396
96.3725956129151
96.2689774971488
111.701783088312
108.760427799292
121.811679315877
104.030011100852
90.930813658633
89.6735739602952
98.9448296014607
105.253993709846
103.253466253055
95.0788588344362
76.5034943484781
84.4006530257822
83.9076327013827
81.2426617517144
66.3223683645216
61.659729858723
80.8435287645109
62.1268053958927
71.8818860292003
57.7514865635133
52.7563534262606
65.2408497467919
59.8818691706687
62.4235974510079
60.5069100324207
70.4733591329374
49.9590153526463
61.1380060305849
53.0339755437588
44.2307041655833
53.006772888872
60.0129439136793
42.0493282938765
40.9790641624349
54.4539571049115
42.6554554819461
43.3041176936984
41.4470643532181
43.6856533182985
42.4906777605721
45.1805609123756
43.0386830248863
39.9734472108341
31.3197764331718
34.6909307525945
28.7341782939977
38.9841616786458
40.3229933315564
44.8313928682867
35.7484377902105
49.9848870604546
43.0328015832549
48.0767796899247
49.3685353349435
45.4603888061507
40.5190886879814
43.9210675939358
36.1640574204834
32.4417402204835
47.4719803322118
44.0298480507663
43.9548517782881
43.9181931493629
31.8645781189867
45.6262527974399
41.9631104103898
38.6743542058515
43.8964852243685
49.655535595986
42.7709978691156
47.0044380959414
44.3625940445948
44.2945780492353
30.3210849033026
42.7770263153269
48.0557124924942
42.4128385395222
39.173947409889
44.1286762277238
51.8731225436317
45.8942411515259
43.005027275997
48.4523210582996
53.1420182306335
40.886540021484
44.3901904489387
45.6759868168282
42.2149679145099
42.4465202787714
41.5895671516412
29.3579251722114
11.8063968057237
15.7338403764948
11.678302216327
12.5740927097699
11.5345689650294
10.3221931612645
12.9505774062435
13.2418614494695
15.8848385320168
11.7847447300828
11.1072126305466
8.07361081844326
9.36724480610369
10.8792192675103
7.58533980960774
13.2190819695839
14.635254194382
9.26921642938119
11.4800583021759
10.0749235042546
15.3194977892836
9.28974930067864
8.53710560904494
12.1310415311468
9.29262156645179
14.248957471663
13.3577278485189
8.39533687078365
10.2180214832838
9.28026873942587
9.11150055651843
8.68010240567566
7.76190284543436
11.3217595370016
11.0721452808575
11.6619424166107
14.3011758153925
9.41883191067681
12.5102490450935
9.74365421260292
8.69211298276086
9.17771566798232
15.3684688413382
10.4438171595068
11.5975275606217
9.7542145003313
10.1839575510346
10.9418985140257
9.00189828103696
9.65691882412618
10.0473330786771
9.53491766898145
11.8923121890352
12.05103852735
11.540818860462
9.84080482490782
11.2761557816005
11.7842060161893
10.286255326584
9.74254800460546
9.65417018621972
8.97556826934366
10.7030488783042
12.1620040099957
11.1602643599096
12.8907209878268
13.5116132124386
12.6833682383679
11.0439176876939
11.5273286648517
9.2469092915231
8.77462754170747
13.0914755301684
9.09600027385467
12.2961246135183
10.1655342156252
13.3146634905933
10.7360316544764
10.9630710265664
12.8918236911743
7.8136252158121
12.0735462773901
11.8909853782267
10.6671541810849
10.8896411858781
11.7292677157741
9.42445819224666
9.70493901683133
10.9071844640426
11.5477318108865
10.2096645626513
9.3661160924884
13.0650794333168
9.84651728608756
10.785763745631
9.87904635851263
12.7716095460538
10.2987830247403
11.1811869739447
12.1757638369966
11.4043097257842
9.90557796160994
11.2637233938041
11.958159640613
8.64698687631367
8.41172580897076
12.3262287942061
9.24356555083219
10.2446786911834
9.21446053589194
11.5593125602528
11.6244960017695
11.3931767376012
8.9880437648858
13.1057189922247
10.0169335310249
11.4629289491124
12.8183006015423
11.340361293376
13.5790869456653
10.9027128646254
13.0118633381632
10.5733233744988
11.9059049226479
11.1809669534153
12.9853257612361
14.0287575228082
11.2202286801567
12.3759422494232
12.2201429845171
10.0419391156568
10.8866550065025
13.2261026251967
7.35561364562813
9.53939051102273
15.0010285477311
10.0871307911629
12.4624248644277
8.69801533389917
11.5494542911438
12.7562355947886
9.59698559694559
11.502504728923
7.58061788161788
10.4481020051109
8.66492298992668
7.70414706829509
11.3448433401721
12.2029540992431
11.1145357341264
10.3741858662551
8.44865988715799
12.6107586316862
12.7298207193209
11.9862750772672
13.7510638611999
9.13191132310726
9.60407966756118
8.84848517564422
11.3384809894535
9.47334534044997
7.66325988899146
14.416704498845
9.30380145888754
12.9678355823945
10.6455108972868
12.3631739762478
9.81896044959811
12.6406189611985
11.3567288031567
11.420128304224
13.1998356321536
10.2927411762882
9.58788485301199
10.3252996424105
8.9338207885824
7.6404610531007
9.08034626855414
9.10872586771479
9.93311592728212
11.7306536635473
11.3733183342848
7.0376731327031
8.96648837790918
12.3156129824578
13.7908775530142
9.04020130950739
12.1389050224347
9.85431665739788
10.8418688838118
10.9018259315355
12.0758406692635
9.83679990119097
15.650286672487
10.9471269034479
12.0727932277458
11.8187686916733
11.2724217303889
13.327209249026
11.5336343965322
13.0824133426521
11.5456188925155
7.84693983026047
10.0738768781552
14.2057267615027
9.11170200659191
8.45571013657901
8.99635367479936
9.43893818142283
9.46596402571088
8.56335496512349
8.11814285561323
12.5916141712856
12.2270759349416
8.97894153822083
10.6934300318953
13.2537998829177
10.7541866096676
11.3017805685256
10.334214367722
11.6792042696992
10.9855444176427
9.16023208982497
13.5207681779746
17.2481765170729
13.4900905273982
11.1837222678703
8.65226160583128
15.6549862521913
10.6864119628113
11.6569596690998
14.3792782918855
6.95038836443548
13.6427575997429
15.9560534995517
10.7547475920096
11.5537422795872
11.9712116658417
10.8941926249506
15.9365066171478
11.0273799789808
13.2650980008279
10.1159736030567
10.2286557404399
9.69897116990177
8.89393628844192
11.0537854403954
11.0243936074507
13.1792455140762
11.5092736634477
8.98984077698337
12.496701886372
)
;

boundaryField
{
    DSMCSide
    {
        type            symmetry;
    }
    DSMCBound
    {
        type            zeroGradient;
    }
    nullDims
    {
        type            empty;
    }
}


// ************************************************************************* //
