/*--------------------------------*- C++ -*----------------------------------*\
  =========                 |
  \\      /  F ield         | OpenFOAM: The Open Source CFD Toolbox
   \\    /   O peration     | Website:  https://openfoam.org
    \\  /    A nd           | Version:  7
     \\/     M anipulation  |
\*---------------------------------------------------------------------------*/
FoamFile
{
    version     2.0;
    format      ascii;
    class       volScalarField;
    location    "0.00072/particle";
    object      overallT;
}
// * * * * * * * * * * * * * * * * * * * * * * * * * * * * * * * * * * * * * //

dimensions      [1 2 -2 0 0 0 0];

internalField   nonuniform List<scalar> 
600
(
895.063722761104
886.215615394419
943.160166574171
890.446050782427
848.49390157151
870.637644740264
840.398658424533
927.303130355285
852.191323429679
873.541440033522
886.557513674027
846.298593256442
918.351169258114
936.746544592054
939.47001121518
880.054874106334
934.962754894864
894.632072819284
913.59201969112
841.486222887773
928.282366944919
933.365094644599
906.703943228451
899.130567046293
969.560587294106
914.17855562224
884.289305507505
933.672683502407
918.097746435678
960.652664714713
911.099736189043
862.277484678793
954.134585658719
965.007900015681
932.733570948399
860.019105415559
935.378714284081
949.04684121839
873.94348858281
957.413864904094
940.101485335239
939.517766431455
955.512378576099
924.706062149067
883.188444763413
919.19975264148
878.24528436229
920.794300377984
936.198831770856
924.65622991603
938.897612071989
796.849873958665
872.209166767576
936.325645248892
883.344219829206
842.291777218015
893.576604613425
904.284706276133
868.078944667381
970.40628819315
859.000961747931
905.279039034129
907.962591318212
887.760793191277
914.150747535019
911.893333903903
863.499496836073
905.148246504489
969.02231034655
871.399050602461
860.990037576597
935.064565592322
891.418146091428
886.619234166082
971.189386106021
903.435864985275
888.284782823798
864.564873927454
868.469735491442
918.326672435251
888.819286870023
850.241180753474
908.554283293843
902.22543652245
918.634211292875
949.002065474701
926.641175021268
881.365384217472
964.468840141175
924.580520926133
958.448465270832
840.968830656618
920.865789205432
925.78250894999
981.203410157926
893.230558204055
926.113126657936
881.673597681095
983.621703031748
833.822908534199
868.879371584001
910.800451738937
924.643514991767
875.848312174378
923.117898938427
878.417153026081
892.634800306775
863.095350365512
839.943919633072
898.575232841891
921.816590612784
854.436320960519
909.248306326805
970.119492732395
850.709919322712
900.302311792458
935.528822088155
922.005397319394
908.82166278593
932.306935298741
810.183194218569
913.317854721405
836.722896351649
933.804564230497
904.52261509411
874.547910873947
880.958536433323
864.184526627159
893.121677064506
926.176528154789
911.180129151173
933.588926256373
918.647978036525
898.317906136106
923.344246345923
883.921718406867
918.680646700856
889.410999447104
827.912352521998
870.331027576353
844.065989394842
890.109005946295
880.10571588071
908.979489368347
939.75017852554
913.879836266539
866.097848721014
856.615135549575
907.366078627236
917.0958847169
962.816701351445
883.235665375226
879.14050920777
882.190082920297
851.38363863142
844.829109397963
897.215148732796
849.055680321929
875.059379550838
926.379646714288
926.380563509738
849.174689363655
861.424891224448
938.352687253221
820.74271805463
951.288211516069
871.808018430787
842.044755250725
917.915329014635
873.524631117872
888.454965839905
854.801388621074
909.435377591588
875.358307507766
993.971581930808
824.840004243761
891.247973887318
918.773505019524
920.097647342305
893.547927713202
837.579230633708
917.256846583115
914.805820029857
891.713645214318
885.375297282444
867.757259162133
848.905533302925
876.349652762604
898.14182211454
896.285247248336
904.865939699027
870.411785280382
881.316009360604
930.74369569713
928.853011510947
882.763396302378
950.085461476923
894.17449614231
823.082928072332
899.409622897799
867.032979240849
908.616468696053
865.104626597958
916.178340521417
836.859708720441
856.566504253028
891.361361597028
966.025790611902
894.272439318537
900.62808217757
896.736985323579
964.067616775074
900.08370568082
875.081449671339
854.592198206052
911.122442962133
898.976729421469
894.506909275454
877.814644502115
928.25336813141
899.803948967966
887.76894833801
937.463357407226
926.137333428113
883.719395771334
903.771197268204
891.663091874382
948.900304969014
849.474597334087
869.273892379459
885.753187080416
920.756113130343
886.580353200764
960.146784251036
822.475552325831
884.987702505671
897.614479885402
920.368222249709
852.671181495205
893.725307658686
905.407196466269
896.186290981276
938.294067426861
938.842277676848
802.365568834536
845.467220164216
872.472558642117
868.465599698428
826.614909434138
934.787719069965
965.758520879652
955.479253513168
889.816829411812
850.757758434622
830.858892544437
848.070329454885
825.374553420742
919.791821327423
850.991284645676
912.213479955588
877.352243366026
844.656620010691
817.36470292247
889.773603814462
872.223539657512
852.253393587701
834.858218344648
835.171286586601
791.99899566317
775.134297590049
826.640590144544
735.422481765601
704.292868594706
775.4579970436
775.552755701196
807.212535838963
795.468283061771
754.155575620611
861.947679304184
735.333759158406
762.463520144674
804.883322754748
745.348139545348
721.453839678672
715.372851358033
754.044613748568
654.082364430145
729.345311516052
690.839745718313
681.506203400037
653.936279193528
726.482457190404
730.834041045097
742.756554385515
616.144752689515
684.821227780882
685.237984679946
668.79424466984
672.504690056133
618.603873099007
677.58623022909
669.636774984308
611.51946900168
654.234373132352
653.514815108835
639.914024072752
686.436059708613
642.044916532948
727.792819202105
664.00933009416
720.110234381972
664.365666383071
723.980056292396
673.144743274839
690.135314131653
587.854219470266
677.944416635935
638.831183541377
712.07087553229
708.632612077718
661.37477644825
768.639073911597
656.637410597703
646.518712016014
636.358000036865
635.739516293858
620.792432928294
626.469541624523
573.958117822216
524.311982974829
475.018285347825
524.456065577616
478.298717801242
457.199713152508
496.30050505317
449.630665738694
541.117494066789
512.855677967696
501.308854542144
538.037727077008
462.40619765646
447.767988818959
474.438315332064
506.087038925269
449.726213409024
467.593513831399
464.426777110558
463.892754998066
281.427539215557
306.997487854166
308.90272962689
302.598439650125
264.447680419369
294.991839323801
366.356009916565
288.556962151026
321.186430386715
290.244837998091
281.806680328631
278.690925421947
321.390839401868
301.924560485508
267.463688266494
274.692785690902
336.838763083711
289.785666201473
327.572018288919
271.949077336669
312.163294242443
255.961174599939
317.303011452097
286.765437231587
331.848102757629
331.506261346749
301.17178472774
298.426088542079
296.021852513881
288.014260329991
250.697439864836
289.135265337717
279.412908471515
276.05141248734
354.225738495361
309.063923708384
305.313442819959
308.951484385848
337.322240106833
266.613615043537
283.616356087475
256.968228970273
315.937500711487
275.12884373569
267.945967361711
257.038010775295
293.495696116519
311.503511923872
286.153251984161
264.208105361399
317.586213033297
291.728617961909
291.53338072171
354.111752577842
295.850971738913
292.75289466589
306.721982574395
297.93826211639
319.353864011857
276.976209289598
286.303426399253
282.656572253899
302.120420747814
282.411139061649
285.666254164847
286.955280211419
351.615833645997
270.093703243813
303.289361259
294.56409107768
287.508764747954
293.856566371148
319.896406483698
277.936287448681
302.243491422869
300.084472064171
283.29909188122
310.644780996633
308.234217097348
292.857121564629
307.487840963809
281.989376042068
288.318286812317
283.177065970912
274.205082911155
327.864170419655
300.628381069196
299.745396007125
270.412623300067
296.37559261185
284.398423142042
299.959508144248
296.525723750714
326.427306930219
305.493631762648
319.917549045368
312.461450123543
292.245092789821
332.892362328025
281.115818231329
334.944824713317
279.626146099572
297.921464136284
312.185303744175
272.071779098907
266.795900951011
301.084851281536
266.468054604674
294.340752549162
268.542447054363
263.513464690781
295.253945072588
313.590187518108
257.723875588773
310.079441928731
293.074235840022
289.670221763875
329.270970383708
303.63394827997
322.731697987327
259.963299071521
324.121089987683
323.055798955865
293.102728484402
297.801788963266
318.72378108394
289.63085885924
320.576629954211
276.81731819274
299.178183477597
254.296000932036
296.209086582871
326.311976564595
273.677304239121
292.97926508666
332.59321784688
299.6577207605
289.723947882012
301.181578907021
322.780039926919
345.810650639698
331.632500668041
292.068649742261
266.923275598672
324.499701928816
313.208222323976
285.986333513418
336.64245051199
328.592046824301
263.92702827281
303.630915576728
309.222825558238
278.863521516585
311.106344646502
313.219222865802
296.831276133363
296.375570679682
302.151771297544
280.171844693792
298.284383292928
277.264153848371
247.287910086857
355.409783109229
306.587155171701
307.485197926118
328.442356745374
284.937189429268
295.165826447352
302.670846132456
277.25815661527
278.072175877037
296.023259742834
291.944922160743
305.890340529471
327.508122302149
301.15490345055
279.623839822603
285.991672738979
281.751577850121
308.907939542642
332.726718367463
324.377672496577
266.718186239271
350.98087217181
309.898500411778
315.589694809525
239.388620850518
287.804526378751
285.410580775479
255.374718302057
290.850970614815
321.107394024652
314.195004344332
335.513907844317
288.911931806541
318.873853407088
293.879949404835
319.893948682329
303.246639127037
328.115484821331
283.644577041841
282.886708734032
238.636376922293
326.510892615245
323.878745451286
294.48420119493
307.605899557242
298.97786613291
274.324139382219
270.811385496584
277.014577860087
312.658186573441
305.615672705201
351.097263297578
291.68310269215
286.571338315463
333.391307256882
293.313284655356
302.91325538922
273.377374800323
301.040726596408
283.75016584134
312.685487012043
324.486977498465
352.882000084015
285.911681201303
289.048070068395
291.115785554311
319.030315716251
291.674755371136
302.711171682162
337.439008552417
219.880031341683
296.957446366092
315.977328406069
303.553190488952
294.604009116879
316.60202270313
295.24445118546
329.411117365156
303.901030363383
348.519982968362
308.888867166712
283.991593417518
335.199875762125
279.700596024921
267.389800320748
294.05033519518
314.310688001258
283.290958584796
300.775823133938
303.711557119126
)
;

boundaryField
{
    DSMCSide
    {
        type            symmetry;
    }
    DSMCBound
    {
        type            calculated;
        value           uniform 895.063722761104;
    }
    nullDims
    {
        type            empty;
    }
}


// ************************************************************************* //
