/*--------------------------------*- C++ -*----------------------------------*\
  =========                 |
  \\      /  F ield         | OpenFOAM: The Open Source CFD Toolbox
   \\    /   O peration     | Website:  https://openfoam.org
    \\  /    A nd           | Version:  7
     \\/     M anipulation  |
\*---------------------------------------------------------------------------*/
FoamFile
{
    version     2.0;
    format      ascii;
    class       volScalarField;
    location    "0.00072/particle";
    object      p_Mean;
}
// * * * * * * * * * * * * * * * * * * * * * * * * * * * * * * * * * * * * * //

dimensions      [1 -1 -2 0 0 0 0];

internalField   nonuniform List<scalar> 
600
(
107.98872689708
98.9465978887778
117.322825909813
122.242853515435
116.390148092602
117.935127297082
99.4542120126282
120.788076879248
110.473496411418
113.787055724572
132.690112660798
113.917192246388
116.463431511836
121.554185108103
103.662546830126
101.922672533356
135.838289099432
105.786172430528
121.275565403126
96.1753186912392
114.114456851153
120.906550031311
118.147284518648
103.245457439159
119.083679891697
115.388682672467
109.982258239176
106.415655206564
125.836262625754
135.653039464297
121.174084646992
93.5321969425353
122.986217900703
126.468136052171
123.630362503388
102.486406502456
106.65217674352
128.882175354404
99.9823509670457
110.724470275463
119.99506468412
111.404471837281
135.240362628095
126.919520352928
114.354102240691
129.991324044305
108.293858191156
101.031698363702
123.794408820652
106.403058718184
122.891195680684
95.0777284898494
110.54732742578
105.103742327466
116.154386437674
109.498647397594
105.856289144189
114.650691124149
107.123645616338
133.826034015084
100.558292918799
123.740241885607
113.67012443272
104.85812656447
135.219987872603
111.243481069735
104.138830599101
116.9873943521
125.486642269528
100.923740847192
112.71880963429
117.949757619108
113.422217186515
126.079373549239
125.682508074193
122.296476111941
94.4674857103988
125.590654824547
104.497053809471
99.4605418659239
108.79109679805
102.988333855029
110.074164649636
118.286651786733
129.586719892731
132.241836226099
115.873000774714
107.425822734255
129.679600369646
119.961140818069
119.815454302317
106.097598009762
133.447709933524
112.173566773076
118.853079184174
111.429932317717
108.411189435268
113.275121807802
128.47067528244
99.346329452846
109.724778929638
107.496977150602
115.033500991671
104.807263436994
114.251383202764
103.012441349778
109.279782506601
115.573916192323
99.964293807988
113.301323825802
125.184957329066
98.762185264375
106.321828818559
111.594153444036
98.755649614558
109.531191356027
117.102140429345
116.576656986138
106.209341705651
129.532194346185
109.464485019521
108.842545420728
98.151126783231
131.76176850317
109.152969330774
107.24977412573
110.974285922303
120.539288564309
100.931067903994
113.346005174745
117.212453585354
112.150122728118
119.321213526844
121.377443547475
119.007274433508
111.845617817084
103.676911069904
113.345541688936
98.7607690983758
106.658161540268
109.907838513245
113.132487726106
111.103925740057
112.264045965087
122.028062419729
119.738422010082
105.002942643085
98.3722371976739
103.558385449583
112.834665194197
113.339729866084
115.735590158113
107.114208833987
104.150428879654
111.753800349331
113.958759733918
128.677937195734
113.880800210001
106.906959911011
109.781664543636
111.428712167101
111.832508948016
115.848159328571
97.6377503043573
106.622829676288
126.754079881306
95.6613389546998
113.470689073602
95.2806568336189
96.6438283761693
112.306530887328
116.681380296782
114.930528540138
99.8184141342025
94.7385677435106
97.6096253339695
108.701043672094
121.374361813092
113.807824021046
126.351205325189
122.380154284482
114.338301431969
116.279611318538
104.964731064961
92.5120618213644
109.697061922586
104.132956309599
109.028890152285
111.623697747769
115.127429935364
136.009675478772
120.856994521054
113.793473678184
113.435006551734
120.606381521806
105.930555986283
126.269504594825
100.244637685878
107.81167900791
109.215171870587
85.5413225966721
119.67199437536
103.763676602851
112.407252174035
109.329118783429
120.00177905238
100.434028158325
121.579677754419
126.524872900101
113.409647975261
116.015798664875
114.268531128334
112.307237624175
96.7862368260003
103.818563376156
106.583101134571
98.357639198842
118.075792665068
116.624478056777
109.052426949667
110.723854928165
113.02685914457
125.521100184686
98.5432422956169
112.460598999957
113.730630637001
103.597927914094
114.594946851958
114.039032718198
111.888995853382
122.384015448998
125.587029114932
108.485850157315
105.595916838206
92.5950885626347
113.662187754707
97.5415053062479
128.785163873202
118.396022743245
102.216164460047
104.745457950097
118.311695123111
104.471624515209
112.699647940388
108.847351357015
106.026153436424
101.78393998833
117.787260212659
97.4801387144165
125.728051568284
124.878998320921
125.626998683767
110.456410746221
95.1185730415138
92.6284914419328
98.8953727751423
106.753688245623
120.251766585526
91.9820045342559
114.42639850705
91.3479649900069
91.7596787834975
100.463847306571
98.6512143639541
109.663161744309
95.1128240993462
87.2266353336307
90.4420568183083
83.6974948931963
91.7476833786175
78.2291798696973
67.4748031964474
65.8555278203012
71.0118572457833
56.3788410465826
65.7554973830208
66.2001087952023
54.3744387271595
69.1639835069679
67.6940406719224
62.9519974353749
61.8981786580319
64.8428140078478
49.7002600776007
56.6923759993847
45.1535607926608
40.3494123617809
52.6042508535176
52.8286724970093
42.8498704633115
42.5015748042082
51.9629463278149
41.5221669800124
47.0166141283174
42.6915246627174
51.5587636553815
39.1594809060672
52.9829957097254
45.5870326761529
42.8158374341691
34.0033688654798
38.5083137237439
33.1901311397174
35.4328296149347
39.8863714271534
41.9701849378066
43.7723016095395
47.0472397633821
45.6686751426875
48.6240879203681
47.950885644789
48.5771294563306
48.9540671267391
33.9169439772763
41.9538773406114
29.7748319667483
43.2323298181327
45.3229604605994
44.7585214386805
36.5983613686744
37.1970813672882
45.9904488275548
44.5515083350728
37.2952987514074
40.4369652219937
40.6259457090513
38.339573077342
45.9312500255577
46.4987237392421
41.8942267775409
31.8154403872588
44.3737359950438
45.4454649735935
45.789420958764
41.9489527620403
40.1085313238844
56.5633702226144
43.5156046392605
44.6959812385086
49.4110492955681
43.7362063287505
36.2119563586693
42.0235094676205
42.6829848126925
43.0548836606095
40.5645048670969
41.9518654057612
24.8342147835629
12.5928565491305
13.2467136522651
12.6858197647653
12.2278766214991
10.5657718551965
12.9395213966605
14.2963089999781
10.8263034101816
10.6955178107647
14.8513405295956
9.45516861811734
9.4955450001455
9.13774989316306
10.5328786508582
7.49841399456931
11.4141903970328
11.0156847789781
10.6244107421376
11.6431528993752
9.80391004999168
12.7730415909209
9.59171200799022
9.78757849153808
10.3890316885455
10.2988979463012
13.6905304184635
12.4399064296514
9.78526264091442
12.2607723092314
8.65863801196732
8.69368423056139
8.58427081007029
8.45598870324593
11.0005055976625
12.5070816241426
11.5695178730751
14.0716190601839
9.07671793523796
10.9097572698166
8.96443420454536
11.4345545809092
9.25546091888193
11.8551090305456
9.49790954482197
9.28553655213139
8.8753032814447
9.95957472349869
10.7686485876336
12.1722988974974
8.3963968910483
11.7177449585747
10.0229096205032
11.6603958958572
13.8037037885485
8.91709762103216
9.06811576551915
11.6801281165414
10.5174272736047
10.7791329428616
10.0759468090097
8.58470991752938
9.88644621071993
10.661863261096
10.8676630317498
9.91364876781875
10.687179979146
10.4105938873062
12.1784907243128
12.1784228505756
9.39609054198131
12.3596793546162
9.29686952431371
13.0611550114003
8.77366558104958
11.554427475481
10.0716499947031
10.9411601606991
10.2842420502582
11.6997921909397
14.0481092262891
10.9231738526058
9.34098137919167
9.58760869276206
8.7879461353404
8.64065161370897
10.5888919763401
9.76611407899956
8.42840597134485
11.1469063163616
10.8515024006685
13.3498306810012
10.5975791317266
10.9410625882841
8.75883842725812
11.3678012747423
11.3761984339634
13.6307885597682
7.92871152005031
12.155809859426
9.73646161295765
10.5864953576021
10.6405554836126
12.5086808511727
13.291479793902
9.51120208951514
11.090795943396
9.51874026719589
11.2515146267024
10.2382397261706
10.1706040085324
7.81677253424575
11.0018845249868
11.166074845462
6.58050605546134
14.6662652604567
9.50736206115194
13.1545733345276
14.1848645286523
12.0029956367449
10.2557211853584
11.6345567437053
14.2969772963211
10.7921973034716
9.05896589901146
9.81474370820487
13.9321435613255
13.5738821144109
11.994429008999
8.8204282565903
12.2308823885595
8.05131241774157
12.3723616144168
11.3059424096966
10.9660655136853
9.55081133809979
11.1222763076466
8.4450686520516
10.0920557146383
12.2204648105139
10.126214290908
13.4582427778708
9.47478121967553
11.4185736940066
7.96756400167622
10.059378175044
11.5206219594455
9.34162643786418
11.3380440113943
13.0359923747431
10.566924855434
10.1316690485319
10.0216048591505
9.04674666338784
11.2717856916513
12.7665637108719
11.5968425631386
8.91572661208901
12.2306878774997
9.83165968287978
11.110473138998
9.50703293881149
9.91355440870889
14.5965585085557
11.5756270371638
9.46803232178249
10.134622449082
11.9523419192228
8.6681324362243
11.35269253494
12.0790664596802
9.79097031349995
12.9976836353078
11.1421336853704
11.6273833738111
13.0121268235426
10.6757001722393
11.3783658878453
9.7406119396471
8.70952809462368
12.1436475712447
10.8609827353392
10.6304371407953
8.3195223002353
12.1133927515157
12.3269368455176
13.7539443372996
7.85469890084104
9.92092846200708
11.2941515934965
8.9909102326838
9.06236067720383
12.6384959866287
9.05869337813444
15.1983848715541
10.5188349506765
15.1381389620441
10.2441132680627
12.5070438176628
10.3743575602767
15.2635510376512
9.81478167542629
10.7897840339018
7.28869270414166
10.7149096182808
13.4838925742397
10.7308226406362
13.0494876587914
12.1649176820286
9.86718779534091
11.3870889804571
10.8643710232276
10.1280796734597
11.0152113644144
10.2688286331016
10.391004854284
10.0160844360313
13.8721043573539
9.29903704290492
11.7034701794278
11.7308217324097
12.9954577789662
9.65255593522141
7.99567971646118
13.6849704525017
14.4855641041361
13.6385935070356
8.24110439372357
8.96922260471664
12.1740950420799
8.98375539825155
10.060722532407
10.9127618270247
7.71188727809997
13.3178499086221
12.3386801860615
10.432398194834
11.0077763055549
9.2124444734769
10.9446448183384
14.5413429970925
11.9491373956225
14.5742282377289
8.8931561279323
8.86461591111671
11.1201801419625
7.71533399356874
9.61270918579361
11.8668191052958
12.9114888933959
8.49367825246452
9.51004204984705
12.6348334759112
)
;

boundaryField
{
    DSMCSide
    {
        type            symmetry;
    }
    DSMCBound
    {
        type            calculated;
        value           uniform 107.98872689708;
    }
    nullDims
    {
        type            empty;
    }
}


// ************************************************************************* //
