/*--------------------------------*- C++ -*----------------------------------*\
  =========                 |
  \\      /  F ield         | OpenFOAM: The Open Source CFD Toolbox
   \\    /   O peration     | Website:  https://openfoam.org
    \\  /    A nd           | Version:  7
     \\/     M anipulation  |
\*---------------------------------------------------------------------------*/
FoamFile
{
    version     2.0;
    format      ascii;
    class       volScalarField;
    location    "0.00072/particle";
    object      rhoM;
}
// * * * * * * * * * * * * * * * * * * * * * * * * * * * * * * * * * * * * * //

dimensions      [1 -3 0 0 0 0 0];

internalField   nonuniform List<scalar> 
600
(
0.00037014
0.000435239999999999
0.000425940000000002
0.000444539999999996
0.000431519999999999
0.000448259999999999
0.000440820000000002
0.000416639999999996
0.000437099999999999
0.000405479999999999
0.000442680000000002
0.000448259999999996
0.000463140000000009
0.000479879999999999
0.000398039999999999
0.000424080000000002
0.000433379999999996
0.000416639999999999
0.000446399999999999
0.000476160000000002
0.000420359999999996
0.000453839999999999
0.000433379999999999
0.000437100000000002
0.000381299999999997
0.000372
0.000433379999999999
0.000448260000000002
0.000323639999999998
0.000425939999999999
0.000461279999999999
0.000401760000000002
0.000390599999999997
0.000442679999999999
0.00037758
0.000453840000000002
0.000448259999999996
0.000442680000000009
0.000411059999999999
0.000405480000000002
0.000435239999999999
0.000386879999999997
0.000414779999999999
0.000472439999999999
0.000398040000000002
0.000425939999999996
0.000457559999999999
0.000422220000000002
0.000414779999999999
0.000381299999999997
0.000502199999999998
0.000401759999999999
0.000420360000000002
0.000429659999999996
0.000435239999999999
0.000438960000000002
0.000424079999999999
0.000383159999999997
0.000438959999999999
0.000472439999999999
0.000407340000000002
0.000390599999999997
0.000457560000000009
0.000425939999999999
0.000451980000000002
0.000388739999999999
0.000427799999999996
0.000385019999999999
0.000433379999999999
0.000427800000000002
0.000407339999999996
0.000420359999999999
0.000451980000000002
0.000405479999999999
0.000457559999999995
0.000424079999999999
0.000405479999999999
0.000453840000000002
0.000407339999999996
0.000431519999999999
0.000461280000000002
0.000407339999999999
0.000437099999999996
0.000427799999999999
0.000431519999999999
0.000450120000000002
0.000425939999999996
0.000465000000000009
0.000459419999999999
0.000442680000000002
0.000416639999999999
0.000414779999999996
0.000396179999999999
0.000403619999999999
0.000427800000000002
0.000444539999999996
0.000386879999999999
0.000403620000000002
0.000396179999999999
0.000399899999999996
0.000392460000000008
0.00041849999999999
0.000440820000000009
0.00041663999999999
0.000386880000000008
0.000422219999999996
0.000411060000000008
0.000424079999999983
0.000463140000000009
0.00040547999999999
0.000392460000000008
0.000438959999999989
0.000418500000000008
0.000403619999999996
0.000455700000000009
0.000442679999999983
0.000466860000000009
0.00042035999999999
0.000450120000000009
0.00041291999999999
0.000390600000000008
0.000405479999999996
0.000409200000000008
0.000388739999999985
0.000446400000000009
0.000403620000000008
0.000433379999999989
0.000455700000000009
0.00040361999999999
0.000394320000000008
0.000433379999999996
0.000388740000000008
0.000398039999999985
0.000414780000000008
0.000431519999999989
0.000386880000000008
0.00040733999999999
0.000451980000000009
0.000453839999999996
0.000383160000000008
0.000444539999999982
0.000479880000000009
0.00042221999999999
0.000373860000000008
0.000433379999999989
0.000388740000000008
0.000358979999999997
0.000435240000000009
0.000414779999999984
0.000440820000000009
0.000468720000000009
0.00042779999999999
0.000398040000000008
0.00041105999999999
0.000398040000000008
0.000433379999999996
0.000435240000000009
0.000386879999999985
0.000470580000000009
0.000464999999999988
0.000446400000000009
0.000379439999999991
0.000412920000000008
0.000442679999999996
0.000440820000000009
0.000444539999999982
0.000375720000000008
0.000355259999999992
0.000440820000000009
0.00040361999999999
0.000425940000000015
0.000385019999999991
0.000360840000000008
0.000433379999999983
0.000431520000000009
0.000476160000000009
0.000450119999999989
0.000401760000000008
0.000394319999999991
0.000450120000000016
0.000385019999999991
0.000435240000000009
0.000386879999999985
0.000364560000000008
0.000435239999999989
0.000468720000000009
0.000483599999999995
0.000427800000000002
0.000418499999999996
0.000407340000000008
0.000383159999999985
0.000425940000000009
0.000466859999999988
0.000453840000000009
0.000468719999999988
0.000438960000000015
0.00042593999999999
0.000429660000000009
0.000370139999999986
0.000396180000000008
0.000444540000000009
0.00040919999999999
0.000418500000000008
0.00040361999999999
0.000409200000000014
0.000435239999999989
0.000411060000000008
0.000398039999999985
0.000411060000000008
0.000444539999999989
0.000500340000000009
0.000425939999999996
0.000392460000000002
0.000442679999999996
0.000399900000000008
0.000424079999999983
0.000353400000000008
0.00041663999999999
0.000448260000000009
0.00039803999999999
0.000388740000000014
0.000455699999999989
0.000433380000000009
0.000394319999999985
0.000407340000000008
0.000448260000000009
0.000459419999999988
0.000345960000000008
0.000396179999999991
0.000385020000000014
0.000381299999999991
0.000440820000000009
0.000437099999999983
0.000433380000000009
0.000431519999999989
0.000407340000000008
0.000424079999999996
0.000411060000000002
0.000414779999999996
0.000414780000000008
0.000412919999999984
0.000411060000000008
0.000431519999999989
0.000450120000000009
0.00040361999999999
0.000416640000000015
0.000455699999999989
0.000398040000000008
0.000444539999999982
0.000411060000000008
0.000427800000000009
0.000461279999999988
0.000401760000000008
0.000386879999999991
0.000416640000000015
0.000379439999999991
0.000370140000000008
0.000331079999999988
0.000435240000000009
0.000440819999999989
0.000442680000000009
0.000366419999999997
0.000353400000000002
0.000340379999999997
0.000357120000000008
0.000424079999999983
0.000358980000000008
0.000340379999999992
0.000362700000000008
0.000308759999999993
0.000344100000000013
0.000345959999999992
0.000347820000000008
0.00028271999999999
0.000312480000000007
0.000297600000000007
0.000306899999999993
0.000258540000000006
0.000290159999999994
0.000267840000000011
0.000225059999999995
0.000217620000000005
0.00028085999999999
0.000305040000000007
0.000251099999999995
0.000232500000000006
0.000260399999999999
0.000200880000000002
0.000238079999999999
0.000223200000000005
0.000228779999999992
0.000225060000000005
0.000230639999999995
0.000191580000000004
0.000234359999999995
0.00024552000000001
0.000215759999999996
0.000187860000000004
0.000219479999999992
0.000186000000000004
0.000215760000000005
0.000206460000000005
0.000249239999999991
0.000228779999999999
0.000219480000000012
0.000206459999999999
0.000199019999999987
0.000204600000000005
0.000187860000000004
0.000223200000000005
0.000241799999999984
0.000178560000000009
0.000210179999999999
0.000249240000000013
0.000191579999999982
0.000176700000000004
0.000219480000000005
0.000202740000000005
0.000241799999999992
0.000226919999999999
0.000217620000000012
0.000208319999999999
0.000206459999999986
0.000186000000000004
0.000208320000000005
0.000204600000000005
0.000256680000000006
0.000252959999999991
0.000226919999999999
0.000241800000000013
0.000312479999999998
0.00030131999999998
0.000267840000000007
0.000310620000000007
0.000275280000000007
0.000310619999999979
0.000321780000000017
0.000329219999999998
0.000260400000000014
0.000288299999999973
0.000319920000000007
0.000351540000000008
0.000277140000000007
0.00028457999999999
0.000275279999999999
0.000345960000000018
0.000319919999999998
0.000221339999999986
0.000124620000000003
0.000152520000000003
0.000109740000000002
0.000146940000000003
0.000139499999999995
0.000133919999999999
0.000135780000000007
0.000128339999999999
0.000115319999999992
0.000126480000000003
0.000117180000000002
0.000128340000000003
0.00014135999999999
0.000128340000000006
9.85799999999991e-05
0.000109740000000006
0.000128339999999987
0.000102300000000002
0.000107880000000002
0.000120900000000002
0.000130199999999995
0.000128339999999999
0.000150660000000008
0.000117179999999999
0.000120899999999992
0.000139500000000003
0.000119040000000002
0.000113460000000002
0.000130200000000003
0.000122759999999995
0.000126479999999999
0.000115320000000006
8.92799999999992e-05
0.000117179999999992
0.000122760000000003
0.000135780000000003
0.000109740000000002
0.000109739999999993
0.000132060000000007
0.000152519999999999
0.000141360000000007
0.000119039999999988
0.000120900000000002
0.000113460000000002
0.000120900000000002
0.000107879999999996
0.000117179999999999
0.000119040000000006
0.000132059999999999
0.000119039999999992
0.000106020000000002
0.000122760000000003
0.000109740000000002
0.000100440000000002
0.000117179999999995
0.000132059999999999
0.000135780000000007
0.000109739999999999
0.000128339999999991
0.000132060000000003
0.000119040000000002
0.000124620000000003
0.000119039999999992
0.000106020000000005
0.000137639999999999
0.000143220000000007
0.00010043999999999
0.000139500000000003
0.000117180000000002
0.000132060000000003
0.000133919999999995
0.000111599999999999
0.000115320000000006
0.000119039999999999
0.000130199999999991
0.000139500000000003
0.000117180000000002
0.000111600000000002
0.000133920000000003
0.000145079999999994
9.29999999999992e-05
0.000143220000000007
0.000109739999999999
0.000124619999999991
0.000115320000000002
0.000117180000000002
0.000120900000000006
0.000130199999999987
0.000126480000000006
0.000115319999999999
0.000128340000000006
0.00010229999999999
0.000100440000000002
0.000119040000000006
0.000122759999999999
0.000143219999999995
0.000119039999999999
0.000117180000000006
0.000132059999999999
0.000111599999999992
0.000111600000000006
0.000126479999999999
0.000137640000000003
0.000104160000000002
0.000111599999999996
0.000124619999999999
0.000145080000000007
0.000113459999999999
0.000126479999999991
0.000124620000000003
0.000117180000000002
0.000113460000000006
0.000115319999999989
0.000145080000000007
0.000113459999999999
0.000143220000000007
0.000130199999999987
0.000146940000000003
0.000128340000000006
0.000117179999999999
0.000133919999999995
0.000122759999999999
0.000143220000000007
0.000141359999999999
0.000117179999999992
0.000120900000000006
0.000113459999999999
0.000163680000000004
0.000145080000000003
0.000122759999999995
0.000122759999999999
0.000122760000000006
0.000126479999999999
0.000117179999999992
9.6720000000002e-05
0.000128340000000003
0.000148800000000008
0.000113459999999989
0.000111600000000006
0.000130199999999999
0.000126480000000006
8.92799999999913e-05
8.55600000000018e-05
0.000117180000000006
0.000135779999999999
0.000115319999999996
0.000107879999999999
0.000102300000000005
0.000115319999999999
0.000128339999999991
0.000113460000000006
0.000119039999999999
0.000119040000000002
0.000119040000000002
0.000135779999999995
0.000137639999999999
0.000137640000000007
0.000133919999999999
0.000113459999999992
0.000111600000000002
0.000128340000000003
0.000100440000000005
0.000126479999999988
0.000113460000000006
0.000133919999999999
0.000119040000000006
0.000133919999999987
0.000124620000000003
0.000133920000000007
0.000124619999999999
0.000150659999999994
0.000115319999999999
0.000132060000000007
0.000120899999999999
0.000102299999999993
0.000119040000000006
0.000111599999999999
0.000107880000000002
0.000102300000000002
0.000122759999999995
0.000100439999999999
0.000120900000000006
0.000117179999999999
0.000126479999999991
0.000111600000000002
0.000115320000000002
0.000135780000000007
0.00010415999999999
0.000165540000000009
0.000126479999999999
0.000124620000000006
0.000132059999999987
0.000128340000000003
0.000146940000000008
0.000111599999999999
0.000117179999999995
0.000122759999999999
0.000128340000000006
0.000117179999999999
0.000111599999999992
0.000146940000000008
0.000137639999999999
0.000113460000000002
0.000143220000000003
0.000117179999999995
0.000133919999999999
0.000119040000000006
0.000143219999999999
0.000113459999999992
8.37000000000017e-05
0.000119040000000002
0.000111600000000006
0.000135779999999987
0.000124620000000006
0.000132059999999999
0.000119040000000006
0.000141359999999986
0.000117180000000002
0.000120900000000006
0.000120899999999999
0.000128339999999995
0.000106019999999999
0.000145080000000007
0.000126479999999999
0.000111599999999992
0.000135780000000007
0.000128339999999999
0.000128340000000003
0.000135780000000003
0.000115319999999996
0.000137639999999999
0.000130200000000007
0.000120899999999999
0.000122759999999992
0.000150660000000003
0.000104160000000002
0.000124620000000006
0.000126479999999988
0.000133920000000007
0.000132059999999999
0.000122760000000006
0.000115319999999989
0.000146940000000003
0.000126480000000006
0.000119039999999999
8.92799999999966e-05
0.000104159999999999
0.000130200000000007
0.000120899999999999
0.000128339999999991
0.000122760000000006
0.000124619999999999
)
;

boundaryField
{
    DSMCSide
    {
        type            symmetry;
    }
    DSMCBound
    {
        type            zeroGradient;
    }
    nullDims
    {
        type            empty;
    }
}


// ************************************************************************* //
