/*--------------------------------*- C++ -*----------------------------------*\
  =========                 |
  \\      /  F ield         | OpenFOAM: The Open Source CFD Toolbox
   \\    /   O peration     | Website:  https://openfoam.org
    \\  /    A nd           | Version:  7
     \\/     M anipulation  |
\*---------------------------------------------------------------------------*/
FoamFile
{
    version     2.0;
    format      ascii;
    class       volScalarField;
    location    "0.004";
    object      dsmcRhoNMean;
}
// * * * * * * * * * * * * * * * * * * * * * * * * * * * * * * * * * * * * * //

dimensions      [0 -3 0 0 0 0 0];

internalField   nonuniform List<scalar> 
1000
(
39.744
44.2495
46.429
48.7835
51.941
54.8545
55.7743
56.8687
57.289
60.0288
60.1253
60.8413
61.262
61.712
63.0513
64.82
65.4943
67.1932
68.1063
69.261
67.384
69.7092
71.6145
72.2563
71.3605
71.756
73.692
75.1535
76.0585
78.171
76.3363
76.9403
78.145
80.511
79.837
79.5855
79.2163
79.569
79.9443
83.169
86.0873
85.8248
85.004
84.2328
85.2423
86.1503
86.7595
87.9218
83.877
86.1485
87.5738
90.1428
90.5318
91.2797
91.9373
92.2813
94.3602
93.3783
93.6125
92.9208
92.7285
93.5818
95.2007
93.7548
92.7723
94.1248
96.5298
95.889
96.3198
98.3693
97.3622
98.6398
97.1765
97.085
99.609
100.617
99.3643
99.3333
98.3488
100.779
102.279
101.766
100.954
104.761
104.252
102.388
102.624
102.91
102.938
102.865
103.127
104.88
106.957
106.086
104.796
107.16
110.094
110.843
108.03
105.744
104.436
104.7
106.199
108.645
109.397
107.985
107.702
108.787
107.381
106.431
108.775
110.799
110.094
110.67
111.329
111.785
109.856
112.348
112.33
111.232
110.758
110.928
111.505
111.987
111.224
111.411
110.116
108.297
108.995
109.886
111.491
113.055
111.715
111.636
110.287
110.535
109.42
109.781
110.751
109.545
108.338
108.681
109.258
108.669
112.204
112.505
111.974
112.603
111.784
111.439
112.789
113.195
112.228
111.336
112.702
110.822
111.909
111.421
111.287
107.816
110.217
110.194
111.856
109.566
109.85
110.818
111.249
110.053
109.393
111.742
109.276
110.026
110.038
110.437
111.044
112.594
110.754
111.258
108.608
107.975
107.292
107.489
109.242
111.203
110.377
110.793
110.627
110.22
107.872
109.163
109.89
111.172
112.39
111.841
112.627
112.897
112.354
111.976
110.506
110.677
110.928
110.702
109.069
110.508
110.138
110.771
111.317
113.361
112.544
113.193
113.191
112.431
112.803
114.432
110.299
112.53
111.357
109.222
112.331
110.895
109.065
109.639
111.463
112.069
109.688
108.75
108.072
107.19
106.323
110.054
110.671
113.188
113.225
109.714
108.873
107.914
111.548
110.938
111.205
109.737
110.515
110.195
109.935
111.661
109.563
111.146
110.738
112.83
109.94
109.208
110.199
109.929
110.321
111.036
109.76
110.633
109.387
109.597
110.671
110.872
109.409
109.502
109.819
108.47
108.604
109.018
107.43
108.952
109.417
109.226
109.365
108.502
109.637
111.088
109.594
108.982
109.088
110.375
110.796
110.735
112.439
110.688
114.035
109.318
110.185
113.163
113.741
112.247
112.255
112.541
111.838
112.294
113.421
111.416
113.488
112.215
111.536
110.127
110.676
110.684
110.467
112.822
110.765
112.666
114.654
115.007
113.098
114.633
114.718
113.388
113.569
112.154
110.54
112.095
111.334
111.296
111.637
109.763
108.922
110.354
111.423
113.3
113.003
113.709
113.421
112.787
111.988
116.655
114.801
112.935
111.49
111.125
111.332
111.236
113.436
111.691
109.956
110.246
109.786
109.836
112.829
110.078
111.092
113.076
112.581
111.76
113.473
112.429
110.52
110.7
112.981
113.438
113.527
110.397
110.702
109.159
111.328
112.08
109.937
110.076
112.621
112.126
111.098
112.489
113.421
111.852
111.913
113.137
112.601
111.009
111.813
111.886
112.059
110.198
108.816
109.343
108.506
110.181
111.368
112.9
111.851
111.486
111.75
109.823
109.205
109.023
108.62
108.185
108.884
110.343
109.449
109.664
111.216
111.349
110.365
108.992
109.929
109.474
110.497
113.269
111.323
113.771
111.634
111.673
111.573
113.065
113.053
108.35
108.07
108.488
110.116
110.066
111.014
111.937
112.282
113.562
112.627
112.602
113.55
115.656
116.171
113.789
112.987
112.501
111.405
110.227
107.826
106.937
106.562
106.422
105.461
108.078
109.766
111.886
112.137
111.137
109.768
112.173
109.02
111.806
110.676
113.455
111.468
111.862
110.419
112.449
111.401
109.288
111.191
109.063
108.08
109.28
110.559
108.683
107.775
109.433
111.007
111.077
110.429
111.106
111.418
113.562
111.978
109.582
111.346
109.292
110.992
111.699
109.924
107.977
106.829
109.036
109.353
108.467
108.097
108.208
108.362
106.859
107.971
107.807
108.051
108.531
109.098
109.007
108.72
110.1
111.358
112.659
112.581
109.964
110.671
110.706
110.582
108.605
110.133
109.585
110.719
110.421
111.948
112.01
109.814
112.688
113.006
113.408
112.299
111.662
111.058
110.748
111.956
112.352
110.577
110.958
112.125
111.596
111.443
108.112
109.9
108.561
109.841
108.988
108.88
112.531
109.055
107.812
107.918
107.974
109.046
109.267
110.526
109.14
108.154
107.046
109.704
109.318
109.708
108.984
108.062
108.068
109.738
109.638
108.688
108.44
109.1
107.621
108.003
109.654
111.351
110.526
106.597
109.393
110.213
112.974
112.883
111.698
111.91
109.16
110.569
111.476
109.483
110.148
110.948
110.647
107.904
107.95
107.79
110.299
109.408
109.65
112.42
111.052
112.058
110.921
110.167
112.091
112.073
112.328
113.146
114.145
115.653
112.448
110.834
111.354
111.952
113.264
112.029
112.735
113.414
113.574
112.133
110.264
111.619
110.431
110.438
111.929
107.877
108.974
109.93
109.008
108.753
110.688
111.176
109.602
110.638
110.916
111.348
111.29
110.674
110.162
111.251
111.575
110.206
112.329
110.689
113.631
112.189
114.89
114.316
113.93
111.964
113.43
112.975
113.623
114.194
111.122
111.695
110.778
109.572
112.355
113.552
114.483
112
112.598
112.042
109.687
112.522
112.391
113.006
109.471
110.526
112.063
110.415
109.108
105.94
106.668
109.22
110.886
112.582
111.77
110.139
108.997
108.706
109.483
108.62
110.224
111.005
108.405
108.391
109.605
110.53
109.506
110.641
109.546
110.262
109.149
108.808
109.428
108.514
108.92
108.584
110.043
111.679
112.189
111.891
110.312
110.079
112.648
113.218
114.623
112.923
114.267
114.087
111.866
110.776
107.503
109.512
109.349
110.196
109.904
111.083
111.213
110.226
109.844
110.118
108.941
109.01
111.091
111.938
111.136
113.165
113.229
112.017
111.954
111.962
111.096
110.977
113.696
112.762
112.671
113.145
114.314
114.111
113.474
112.897
110.209
111.401
110.098
113.01
112.342
113.487
112.854
110.7
111.243
110.993
113.268
111.113
112.689
114.686
110.966
111.796
112.575
116.01
111.519
112.546
110.093
111.322
111.755
110.164
110.938
110.936
111.161
110.28
108.306
109.99
112.271
111.641
110.771
112.279
113.824
112.118
115.164
114.027
114.069
111.735
112.654
112.135
111.972
110.879
110.769
112.036
109.679
107.819
108.451
111.759
111.473
109.652
110.295
111.008
112.016
112.065
112.484
110.116
109.979
110.96
110.582
109.601
112.168
109.791
111.526
108.925
110.363
112.156
109.838
109.431
110.035
108.882
112.081
112.144
112.808
109.721
110.85
109.007
108.745
110.71
112.489
111.597
111.961
113
111.169
108.842
110.669
110.224
110.087
109.142
110.26
109.499
108.213
107.134
108.338
109.617
112.323
112.846
111.015
112.248
111.187
111.123
110.426
111.104
111.241
111.416
111.171
111.765
112.63
110.696
111.358
110.941
112.82
112.714
111.079
112.336
112.769
112.022
110.369
110.169
112.674
111.339
109.201
111.507
111.423
112.089
113.612
112.097
113.077
112.844
113.598
114.719
112.878
114.395
112.905
112.619
112.906
112.745
112.254
111.677
108.543
109.971
110.614
111.673
113.871
112.643
110.264
110.974
112.092
114.027
114.782
113.87
111.552
111.324
111.365
110.638
109.43
111.902
111.957
111.268
109.883
112.299
110.995
111.871
111.224
110.476
109.538
110.133
109.799
107.932
107.815
107.459
107.714
108.908
110.124
108.582
107.636
107.342
107.519
109.402
111.155
109.149
107.423
106.788
108.812
107.052
107.15
105.112
106.608
105.364
104.914
104.529
107.021
104.284
102.958
106.539
104.83
104.031
102.255
99.714
101.25
100.876
99.147
98.8738
100.867
100.202
101.192
98.738
97.9315
97.3568
99.3633
99.2555
98.492
99.884
99.6758
100.274
99.2568
97.4
96.6183
95.5158
93.951
92.6338
92.9068
93.1625
94.6483
94.183
92.1878
91.3558
91.5213
91.752
90.9328
91.9698
92.685
90.858
90.21
85.4525
86.8512
86.0143
86.2278
87.1128
85.4053
85.4895
84.482
84.0688
84.1925
82.6638
81.5035
82.7523
82.0708
81.1255
79.9615
78.1313
78.1515
77.9863
77.3223
76.6185
76.4907
78.1683
74.685
73.4183
72.5248
73.1467
72.4153
70.6087
68.949
69.0775
68.936
67.8725
67.2987
65.6547
64.7057
63.1972
63.2522
60.318
58.737
58.0185
57.2513
56.6952
55.5338
53.8133
51.5932
49.4305
48.6188
47.4793
45.9258
42.0925
39.0095
)
;

boundaryField
{
    sides
    {
        type            calculated;
        value           nonuniform List<scalar> 2(39.0095 39.744);
    }
    empty
    {
        type            empty;
    }
}


// ************************************************************************* //
