/*--------------------------------*- C++ -*----------------------------------*\
  =========                 |
  \\      /  F ield         | OpenFOAM: The Open Source CFD Toolbox
   \\    /   O peration     | Website:  https://openfoam.org
    \\  /    A nd           | Version:  7
     \\/     M anipulation  |
\*---------------------------------------------------------------------------*/
FoamFile
{
    version     2.0;
    format      ascii;
    class       volScalarField;
    location    "0.004";
    object      linearKEMean;
}
// * * * * * * * * * * * * * * * * * * * * * * * * * * * * * * * * * * * * * //

dimensions      [1 -1 -2 0 0 0 0];

internalField   nonuniform List<scalar> 
1000
(
0.659394
0.700935
0.720389
0.757902
0.784549
0.817458
0.82819
0.854515
0.851509
0.88622
0.894331
0.890312
0.895276
0.910821
0.924629
0.956499
0.964316
0.977817
1.01736
1.0224
1.001
1.03518
1.04895
1.06968
1.06027
1.08307
1.0954
1.10573
1.10244
1.12993
1.12235
1.1432
1.17085
1.18852
1.1759
1.18645
1.17504
1.17927
1.20646
1.24489
1.27118
1.27198
1.24974
1.25047
1.27866
1.28096
1.28578
1.3252
1.28432
1.30699
1.3323
1.34478
1.35314
1.35853
1.36826
1.36764
1.40506
1.38624
1.39403
1.39295
1.39497
1.41613
1.42589
1.42057
1.40261
1.42893
1.46989
1.45495
1.45573
1.478
1.47386
1.50456
1.4821
1.48764
1.52401
1.52346
1.51697
1.52401
1.52481
1.53746
1.54163
1.5471
1.55915
1.57225
1.58294
1.57482
1.57134
1.57169
1.59068
1.59264
1.56933
1.59864
1.6316
1.64629
1.62767
1.64675
1.64192
1.64668
1.65123
1.65558
1.63617
1.62713
1.63945
1.67231
1.66845
1.6761
1.678
1.66889
1.67257
1.65197
1.67504
1.68871
1.6652
1.66375
1.68181
1.69059
1.67534
1.6973
1.71904
1.71006
1.71365
1.70525
1.70603
1.70599
1.70921
1.69125
1.70703
1.72253
1.71496
1.70456
1.73624
1.74628
1.73301
1.7435
1.7258
1.73441
1.71519
1.70973
1.73412
1.73451
1.72139
1.71916
1.73392
1.73799
1.73535
1.71776
1.73769
1.7284
1.75304
1.72794
1.7405
1.74883
1.75021
1.73767
1.72097
1.72839
1.71861
1.71299
1.73315
1.71441
1.73045
1.74632
1.77597
1.72376
1.72301
1.72947
1.72684
1.712
1.71661
1.74205
1.71539
1.71151
1.7029
1.72453
1.72221
1.74406
1.74515
1.73383
1.71625
1.70957
1.70799
1.72448
1.74127
1.72954
1.75081
1.74265
1.72027
1.75898
1.70136
1.73917
1.72257
1.72586
1.73852
1.70972
1.71409
1.74033
1.71158
1.73778
1.71225
1.73548
1.72545
1.73564
1.71611
1.73527
1.72577
1.71902
1.7057
1.72256
1.71115
1.71195
1.71702
1.71746
1.71754
1.73839
1.7076
1.72352
1.71104
1.71509
1.72808
1.71582
1.69335
1.69145
1.70984
1.71012
1.70822
1.71375
1.71251
1.70476
1.69984
1.73532
1.70942
1.72374
1.71163
1.70787
1.71026
1.70263
1.70873
1.71797
1.7132
1.71585
1.71755
1.70265
1.70898
1.72711
1.71531
1.72843
1.72647
1.7368
1.71802
1.71786
1.71306
1.73072
1.72386
1.70193
1.72814
1.71298
1.70744
1.69946
1.70952
1.72277
1.72524
1.70832
1.71215
1.68706
1.70677
1.70853
1.73447
1.75001
1.73871
1.7228
1.71985
1.70292
1.72281
1.74133
1.72205
1.70256
1.69952
1.71144
1.73069
1.71375
1.72065
1.71872
1.75249
1.71561
1.72666
1.72784
1.73136
1.70394
1.71503
1.72287
1.71024
1.73183
1.75119
1.73457
1.74199
1.72403
1.7436
1.7306
1.72016
1.73087
1.73939
1.76158
1.72409
1.73015
1.71376
1.73446
1.7193
1.71793
1.70199
1.72194
1.7187
1.71658
1.71723
1.75336
1.73218
1.72182
1.73293
1.72148
1.69908
1.72671
1.71873
1.74701
1.7235
1.7195
1.71108
1.71323
1.70773
1.71845
1.70478
1.70429
1.70676
1.70839
1.71209
1.71571
1.73379
1.73198
1.72453
1.72314
1.71693
1.70938
1.73822
1.70946
1.72083
1.7281
1.72683
1.70863
1.733
1.73831
1.73348
1.71931
1.74958
1.75928
1.75896
1.70436
1.7334
1.71942
1.7259
1.73462
1.69876
1.70554
1.73861
1.73469
1.71371
1.74524
1.7378
1.73641
1.73679
1.73827
1.74634
1.73481
1.71537
1.71334
1.72006
1.70373
1.7089
1.71253
1.6987
1.70234
1.70397
1.72105
1.71927
1.71555
1.71831
1.70951
1.71801
1.72005
1.73953
1.74182
1.72781
1.7132
1.6911
1.69078
1.72413
1.72024
1.72318
1.70457
1.69874
1.69569
1.69965
1.74882
1.72091
1.73897
1.71198
1.71377
1.72443
1.72407
1.72621
1.69401
1.69768
1.71155
1.70008
1.70346
1.68462
1.68699
1.69411
1.69956
1.69092
1.70929
1.70517
1.70208
1.72052
1.69298
1.70712
1.70518
1.72643
1.72037
1.69612
1.68284
1.69073
1.70818
1.68219
1.68649
1.67887
1.69992
1.68272
1.6926
1.70166
1.69519
1.668
1.7019
1.70427
1.70399
1.70017
1.68053
1.70009
1.69665
1.70159
1.6926
1.7097
1.66094
1.64352
1.66004
1.68546
1.67254
1.67198
1.6843
1.70536
1.70462
1.67781
1.68318
1.66924
1.70602
1.67589
1.68474
1.69779
1.67045
1.71112
1.70905
1.70122
1.69943
1.68561
1.72672
1.71782
1.68381
1.70469
1.70548
1.70545
1.7002
1.7197
1.71799
1.71764
1.71707
1.70016
1.69651
1.70223
1.69942
1.70464
1.71616
1.71224
1.69142
1.72863
1.71322
1.72779
1.70628
1.72717
1.69494
1.70863
1.69799
1.70578
1.70553
1.66518
1.71384
1.69497
1.68788
1.6905
1.69815
1.68878
1.68249
1.70327
1.68059
1.68425
1.69586
1.71359
1.69787
1.69884
1.68763
1.70234
1.69298
1.70175
1.69431
1.66781
1.71859
1.6904
1.70128
1.67583
1.70014
1.71274
1.71922
1.7125
1.72559
1.71389
1.71084
1.73642
1.73004
1.71747
1.7153
1.71541
1.70902
1.73774
1.73098
1.70971
1.70289
1.71952
1.70136
1.70044
1.72087
1.72451
1.73378
1.68666
1.71188
1.71785
1.7337
1.74521
1.73016
1.7241
1.70456
1.71616
1.7221
1.71947
1.72419
1.742
1.75339
1.73904
1.73768
1.7055
1.72011
1.70787
1.71966
1.73859
1.73041
1.72717
1.72646
1.72332
1.75191
1.71764
1.72282
1.74121
1.74424
1.74685
1.7402
1.70443
1.7246
1.72456
1.7397
1.71026
1.70871
1.72514
1.72729
1.72051
1.71958
1.7345
1.72002
1.72297
1.74011
1.70785
1.70227
1.73004
1.72571
1.73361
1.7287
1.72348
1.71115
1.72101
1.73295
1.73514
1.73175
1.73986
1.72643
1.73568
1.73658
1.7208
1.73793
1.70205
1.70986
1.71365
1.72586
1.72591
1.70959
1.67732
1.72606
1.74856
1.73771
1.72608
1.71386
1.70251
1.71705
1.6941
1.76966
1.7397
1.74128
1.73855
1.73444
1.72318
1.723
1.74949
1.73356
1.74357
1.70742
1.71508
1.72864
1.72796
1.71398
1.71076
1.72653
1.7424
1.74444
1.7544
1.75794
1.73308
1.72213
1.73676
1.72446
1.7266
1.73358
1.75161
1.74866
1.72745
1.75752
1.7596
1.74117
1.74995
1.74278
1.72967
1.72131
1.74867
1.73554
1.72003
1.73154
1.70798
1.72509
1.7232
1.74232
1.73617
1.71066
1.72759
1.73103
1.72108
1.76806
1.7352
1.73115
1.7572
1.7711
1.78365
1.7355
1.74592
1.73976
1.73773
1.75111
1.74743
1.7295
1.75128
1.75251
1.72573
1.74711
1.73427
1.75882
1.75565
1.72657
1.74058
1.75102
1.7443
1.73714
1.76667
1.76772
1.74335
1.7468
1.73462
1.74127
1.7407
1.75197
1.74558
1.72863
1.75415
1.72009
1.74364
1.73339
1.76147
1.73344
1.75739
1.75906
1.743
1.76417
1.74895
1.78528
1.74045
1.74755
1.77232
1.75035
1.73732
1.73827
1.77068
1.7416
1.75083
1.72721
1.73006
1.73821
1.74955
1.77449
1.76699
1.76428
1.74848
1.71565
1.76097
1.74913
1.72288
1.73817
1.73879
1.75885
1.73408
1.74287
1.72617
1.74906
1.73601
1.73093
1.74466
1.75421
1.73218
1.73672
1.76034
1.74303
1.73332
1.74789
1.7647
1.75829
1.74889
1.7445
1.74207
1.75381
1.74939
1.75687
1.75144
1.73235
1.75476
1.73136
1.71433
1.75181
1.73801
1.75271
1.71478
1.74876
1.77017
1.75114
1.74564
1.75262
1.7376
1.75343
1.73716
1.73977
1.71632
1.75436
1.73017
1.73465
1.73793
1.72639
1.75794
1.74529
1.7609
1.76414
1.75543
1.76289
1.75362
1.75537
1.73209
1.74671
1.74425
1.72312
1.70853
1.72982
1.75027
1.76749
1.77134
1.72006
1.73905
1.76134
1.74024
1.72353
1.72675
1.73627
1.73445
1.72815
1.72452
1.76521
1.73624
1.74247
1.73178
1.74025
1.7484
1.70223
1.72837
1.74346
1.72243
1.73153
1.73999
1.75345
1.74027
1.73337
1.74044
1.75059
1.77422
1.79
1.74466
1.74629
1.74299
1.74408
1.76169
1.73729
1.75097
1.75989
1.75027
1.73619
1.73461
1.72747
1.7418
1.73163
1.75691
1.76043
1.73373
1.76653
1.74986
1.73338
1.7362
1.73416
1.7575
1.75226
1.7312
1.71803
1.72143
1.72496
1.72333
1.70763
1.73162
1.7303
1.73857
1.72596
1.73815
1.69828
1.71796
1.70766
1.70326
1.7053
1.70436
1.70301
1.67398
1.67033
1.67303
1.68011
1.6735
1.6813
1.67842
1.6763
1.66466
1.64626
1.67167
1.6804
1.65894
1.60762
1.61364
1.64457
1.62233
1.63036
1.61531
1.6109
1.5885
1.60031
1.59827
1.60995
1.58087
1.59664
1.61308
1.5906
1.59585
1.59532
1.57922
1.57771
1.56022
1.53305
1.55586
1.5364
1.54204
1.544
1.53222
1.50025
1.48763
1.50949
1.51216
1.50166
1.48799
1.49532
1.49319
1.47119
1.47102
1.4696
1.44308
1.43162
1.42265
1.42683
1.42086
1.4089
1.42221
1.37505
1.38494
1.38342
1.36634
1.36487
1.38194
1.36606
1.35685
1.34651
1.3073
1.33151
1.31722
1.31313
1.32442
1.28745
1.27392
1.26002
1.25961
1.24727
1.2262
1.21285
1.21328
1.21124
1.20972
1.19253
1.17309
1.17968
1.16391
1.14986
1.14443
1.12593
1.15081
1.09824
1.07635
1.07496
1.07427
1.06227
1.04291
1.03846
1.03023
1.01639
0.987754
0.985329
0.97093
0.96752
0.952413
0.950897
0.917491
0.896627
0.881295
0.876523
0.862317
0.840246
0.815555
0.792566
0.76079
0.746651
0.734477
0.72176
0.68367
0.653418
)
;

boundaryField
{
    sides
    {
        type            calculated;
        value           nonuniform List<scalar> 2(0.653418 0.659394);
    }
    empty
    {
        type            empty;
    }
}


// ************************************************************************* //
