/*--------------------------------*- C++ -*----------------------------------*\
  =========                 |
  \\      /  F ield         | OpenFOAM: The Open Source CFD Toolbox
   \\    /   O peration     | Website:  https://openfoam.org
    \\  /    A nd           | Version:  7
     \\/     M anipulation  |
\*---------------------------------------------------------------------------*/
FoamFile
{
    version     2.0;
    format      ascii;
    class       volScalarField;
    location    "0.004";
    object      translationalT;
}
// * * * * * * * * * * * * * * * * * * * * * * * * * * * * * * * * * * * * * //

dimensions      [1 2 -2 0 0 0 0];

internalField   nonuniform List<scalar> 
1000
(
192.073
205.416
210.647
221.587
224.2
228.843
231.106
237.862
236.94
240.595
243.947
241.239
242.665
247.129
247.804
252.543
253.52
252.589
261.677
259.815
261.119
263.467
261.413
265.395
266.501
272.113
269.319
267.6
264.306
264.79
269.353
272.814
276.019
273.002
272.505
276.388
275.243
275.526
281.174
279.94
276.816
278.144
275.991
278.793
282.222
279.904
279.327
284.707
289.178
286.99
288.272
283.056
283.86
282.903
283.123
282.111
283.55
282.893
283.833
285.982
286.971
289.079
286.26
289.489
289.048
290.525
291.611
290.714
289.72
288.189
290.415
292.796
292.643
294.17
293.987
290.94
293.358
294.99
298.137
293.428
290.057
292.584
297.328
289.038
292.478
296.267
294.886
294.17
297.852
298.475
293.388
293.886
294.055
298.984
299.114
296.024
286.881
286.408
294.413
301.727
302.115
299.613
297.629
296.982
294.315
299.583
300.747
296.067
300.692
299.574
297.32
294.283
292.039
290.23
291.595
291.885
294.291
291.443
295.173
296.654
298.704
296.829
295.399
294.072
296.786
293.177
299.383
307.13
303.8
299.431
300.591
298.233
299.588
301.621
302.179
303.021
302.735
300.676
302.174
305.411
306.628
305.08
306.266
308.663
298.392
294.813
299.519
296.218
302.623
299.365
297.916
298.26
301.06
301.447
294.929
301.201
296.592
296.874
300.564
306.727
302.823
305.836
306.446
303.728
302.849
301.398
299.684
300.401
303.057
300.911
303.149
300.411
298.809
301.507
299.333
298.8
303.871
300.893
305.16
305.788
307.454
309.798
307.754
300.312
306.258
303.738
300.331
308.172
304.584
307.616
302.64
299.667
298.475
294.824
293.429
297.191
294.045
299.554
299.244
302.86
300.374
302.82
303.859
303.221
302.561
299.599
295.91
293.436
293.582
292.02
292.772
294.939
293.948
293.232
298.914
295.67
296.427
302.74
296.48
298.221
299.697
297.4
295.975
294.605
300.463
303.878
305.82
306.929
308.65
304.238
298.012
294.064
291.897
300.627
303.397
304.699
295.772
299.08
297.55
301.986
300.162
298.424
300.218
298.51
302.069
299.964
300.554
297.042
301.584
303.715
300.217
304.043
301.782
296.017
304.071
299.007
301.428
299.366
298.259
300.005
304.335
301.233
301.041
300.374
303.458
302.687
311.821
310.222
306.919
304.591
303.668
303.05
303.187
302.418
303.282
301.497
300.485
299.059
301.446
298.456
295.252
299.407
296.645
303.064
302.667
294.839
293.961
293.183
294.982
295.64
294.977
297.517
298.136
300.278
296.364
296.739
301.921
303.14
299.938
301.94
304.064
301.423
300.569
296.509
288.679
291.262
293.609
289.431
286.418
293.068
292.168
295.439
299.992
302.003
300.451
298.788
299.608
302.574
301.139
302.091
297.775
297.717
294.549
292.011
291.287
293.243
294.459
284.416
286.81
291.45
295.65
296.846
296.93
297.65
294.857
299.162
302.614
301.807
301.949
300.311
297.224
299.88
299.171
295.156
296.227
295.165
294.875
298.358
302.584
299.537
298.756
299.096
299.118
298.011
302.342
304.209
299.394
298.788
298.379
299.259
298.108
298.711
297.889
299.615
295.75
299.816
299.606
296.554
299.33
301.451
295.961
295.437
296.095
298.059
302.319
302.189
302.296
298.41
295.478
294.389
296.503
296.734
296.237
299.91
303.441
304.356
309.001
310.866
306.252
299.579
298.325
297.742
299.338
298.147
301.341
301.985
298.418
299.094
297.084
298.088
298.371
295.077
296.006
296.278
298.378
294.287
294.664
301.866
303.222
304.322
297.938
298.644
292.83
290.9
291.273
288.98
289.799
293.158
289.851
284.139
286.031
287.294
291.772
292.616
299.161
301.167
303.576
303.766
306.22
309.717
307.848
301.275
295.275
293.114
289.552
293.793
299.356
291.74
295.398
293.906
297.266
289.795
294.235
289.58
296.652
290.726
294.639
298.716
296.783
293.884
293.571
293.327
294.416
297.225
299.604
297.068
296.567
296.223
293.28
292.592
289.184
289.977
289.021
296.807
294.442
295.15
297.676
295.494
298.841
303.976
304.62
305.637
303.168
299.581
304.444
304.145
303.7
307.177
307.574
307.683
306.973
305.455
300.994
300.598
302.4
298.08
295.646
294.204
293.716
297.076
301.68
298.846
301.689
303.438
302.899
298.589
297.985
296.93
294.281
293.987
292.83
293.75
289.635
287.43
290.747
293.682
293.424
293.195
293.727
288.852
294.151
295.17
295.096
293.807
294.276
301.489
299.143
301.2
299.215
300.191
295.683
294.683
299.174
304.694
299.895
304.032
303.257
303.879
299.175
305.004
305.444
308.468
305.502
305.586
302.349
303.924
306.439
305.402
305.637
304.614
303.292
303.164
304.286
305.304
304.08
303.077
299.097
302.921
305.607
302.246
301.039
296.345
298.423
298.996
297.352
301.205
299.377
297.953
302.723
302.024
303.007
305.876
310.979
310.608
305.342
301.119
301.437
302.803
298.474
300.815
297.665
300.565
302.048
301.81
295.987
296.231
297.21
295.058
291.566
298.763
296.763
298.967
297.392
296.601
294.688
292.733
293.787
293.695
296.319
300.99
299.881
300.588
301.025
300.033
305.399
301.522
303.715
305.511
307.288
301.318
299.129
301.483
300.358
301.627
300.723
300.278
303.318
302.35
301.235
300.41
301.323
298.707
296.909
290.606
294.848
289.95
291.225
289.213
288.69
292.794
298.11
295.069
291.747
297.591
294.146
299.255
298.498
304.161
295.665
293.617
299.777
297.5
297.031
303.34
300.197
297.836
297.937
301.234
299.707
297.898
302.229
303.4
311.886
312.485
307.939
303.8
300.922
303.738
303.905
305.154
308.517
304.183
306.637
303.48
304.72
311.416
307.639
309.143
307.224
306.742
305.137
306.975
302.902
304.585
310.364
306.108
305.96
306.76
303.394
302.384
297.836
299.693
299.09
299.022
302.625
296.439
293.224
297.688
296.504
292.399
297.373
305.501
310.037
311.007
307.301
306.95
304.337
307.567
303.781
300.329
306.831
308.137
302.652
309.744
307.112
305.74
302.837
300.02
296.976
298.483
300.243
299.43
304.585
307.119
303.326
296.388
296.716
298.278
296.639
295.835
295.35
294.017
299.895
301.366
302.153
303.996
300.974
297.919
299.087
301.016
304.081
306.174
304.141
304.411
302.393
299.397
298.205
304.413
300.01
298.074
294.644
301.49
300.458
302.844
299.991
300.245
306.614
308.567
307.254
306.388
306.089
305.772
309.085
300.881
297.84
302.987
299.017
298.303
298.434
292.276
292.334
296.103
299.764
296.754
300.492
302.434
301.662
302.725
303.44
306.898
310.456
311.031
304.609
304.566
308.057
305.48
303.057
302.37
301.509
301.653
307.125
304.026
305.29
302.073
301.937
301.476
305.585
303.532
304.049
305.953
304.795
307.903
308.041
307.623
308.192
302.16
299.181
297.821
302.054
305.565
306.374
307.946
302.98
296.096
303.755
300.738
300.611
306.113
311.172
307.504
307.165
307.962
306.485
305.853
307.658
307.383
307.937
308.305
308.372
303.859
303.113
299.194
299.197
305.829
302.35
301.366
300.157
301.394
300.398
299.933
297.772
302.642
302.874
302.207
301.481
297.836
299.458
295.763
296.942
298.383
296.664
302.828
304.848
300.444
301.892
306.576
301.403
303.214
305.462
304.19
300.422
298.137
298.324
296.392
296.299
297.067
295.301
300.64
299.857
296.901
297.143
297.156
301.017
307.918
308.377
307.378
299.851
299.599
300.012
303.501
302.106
298.784
297.684
294.803
293.443
297.26
298.51
298.946
300.597
301.03
298.483
298.257
301.698
303.367
298.881
295.469
296.527
296.454
297.742
300.623
298.764
299.555
299.452
299.178
300.645
301.148
296.74
294.778
298.484
300.702
299.453
295.498
294.917
291.774
293.279
288.903
291.668
291.759
292.548
293.666
296.521
291.566
290.804
294.3
294.857
290.02
292.156
298.822
291.438
292.219
295.38
300.647
304.654
299.672
297.504
297.555
302.849
293.281
296.348
293.671
298.659
294.792
293.915
292.151
292.871
292.852
286.123
288.254
286.053
284.635
289.958
291.765
289.697
292.061
294.123
293.962
291.926
284.816
288.774
284.985
289.548
288.539
284.006
286.101
286.408
280.722
284.17
283.688
290.207
290.735
289.992
288.271
287.687
284.684
281.182
281.054
281.978
278.381
278.262
278.597
274.376
275.794
278.191
277.429
278.613
279.771
276
274.395
274.753
270.116
270.376
268.118
266.143
268.247
265.199
263.83
264.005
268.316
264.886
260.813
255.602
255.931
256.543
257.69
257.538
255.946
255.058
252.677
249.027
248.839
244.657
239.672
235.278
232.462
225.193
219.745
216.152
212.63
202.459
190.463
)
;

boundaryField
{
    sides
    {
        type            calculated;
        value           nonuniform List<scalar> 2(190.463 192.073);
    }
    empty
    {
        type            empty;
    }
}


// ************************************************************************* //
