/*--------------------------------*- C++ -*----------------------------------*\
  =========                 |
  \\      /  F ield         | OpenFOAM: The Open Source CFD Toolbox
   \\    /   O peration     | Website:  https://openfoam.org
    \\  /    A nd           | Version:  7
     \\/     M anipulation  |
\*---------------------------------------------------------------------------*/
FoamFile
{
    version     2.0;
    format      ascii;
    class       volVectorField;
    location    "0.004";
    object      UMean;
}
// * * * * * * * * * * * * * * * * * * * * * * * * * * * * * * * * * * * * * //

dimensions      [0 1 -1 0 0 0 0];

internalField   nonuniform List<vector> 
1000
(
(-338.083 5.65178 -4.21843)
(-299.201 4.55812 -3.26493)
(-281.614 -0.920725 -1.08698)
(-264.399 -0.17235 -1.57381)
(-245.195 -3.68082 -5.04506)
(-229.187 -2.96873 2.73041)
(-222.703 -3.71808 0.0946185)
(-215.955 -1.37989 -1.29394)
(-211.243 -4.6901 -4.08485)
(-199.192 0.823023 -2.37794)
(-196.368 7.0925 0.352379)
(-191.981 1.49083 -3.99972)
(-187.801 -0.368965 0.990677)
(-183.803 -2.38852 2.25233)
(-177.534 -6.87784 -1.08557)
(-169.934 -0.0861449 -6.4873)
(-165.719 4.54526 -2.44063)
(-159.24 2.52737 -2.60698)
(-154.546 -0.266961 -5.05039)
(-149.854 0.0708723 -8.87795)
(-150.957 -8.58047 -11.0406)
(-143.933 -0.887818 -9.24708)
(-138.293 0.0624664 -4.15492)
(-134.688 6.40982 -10.5427)
(-134.722 -1.38616 -9.26953)
(-131.24 5.86768 -6.0551)
(-125.78 -0.535694 -4.42067)
(-121.397 1.26768 -5.03822)
(-118.035 2.63964 -1.42466)
(-113.143 -0.39323 -4.48604)
(-113.899 4.99386 -5.3667)
(-111.176 4.18171 -15.5572)
(-107.836 0.135846 -16.8219)
(-103.202 -0.735526 -12.1928)
(-102.252 -0.618679 -14.4809)
(-100.94 -0.390761 -10.0436)
(-99.8799 -3.80477 -5.98678)
(-97.73 -2.37311 0.855039)
(-95.7642 -1.24045 -2.94042)
(-90.2757 -3.07845 -2.1213)
(-85.7888 3.84843 -9.83211)
(-84.8485 1.87123 -4.75529)
(-83.9779 3.06657 -6.44398)
(-83.6682 5.64281 -6.38778)
(-81.0632 -2.8283 -10.2035)
(-78.8633 2.37747 -16.2108)
(-76.453 9.10295 -15.2516)
(-74.0104 3.73158 -14.821)
(-75.9015 1.36972 -9.30078)
(-72.5664 6.91419 -8.0603)
(-70.0907 0.705372 -6.91147)
(-66.7273 -1.5181 -8.64371)
(-65.2271 -4.98565 -4.44751)
(-63.5559 -3.80712 2.5999)
(-61.977 -1.70803 3.08374)
(-60.5883 -3.58634 1.38052)
(-58.5099 -13.5057 1.60864)
(-57.5908 -7.35116 -7.03405)
(-56.4322 2.56231 -13.5705)
(-55.795 -7.12541 -2.25881)
(-54.7962 -13.5805 3.10288)
(-52.8444 -7.39519 1.44363)
(-51.2072 0.65126 -8.68237)
(-50.9128 -0.768547 -15.0723)
(-50.4382 -1.66746 -9.81428)
(-48.3448 -5.20803 -5.9497)
(-46.0538 -4.26251 -9.25978)
(-45.2892 -3.05005 -5.75633)
(-44.093 -1.48136 -2.15615)
(-42.0214 -1.39148 4.94528)
(-41.5071 -5.36305 -0.633576)
(-39.6808 -5.52191 2.72171)
(-39.2343 -13.5815 0.711972)
(-38.1352 -9.81242 6.52053)
(-36.2427 -2.58779 6.17168)
(-34.829 1.85571 11.2105)
(-34.5023 10.2354 7.20986)
(-33.8473 1.86764 6.8311)
(-33.2237 -0.354641 8.35553)
(-31.6486 3.66456 9.06037)
(-30.2441 1.93592 5.64417)
(-29.7102 -1.40723 6.86443)
(-29.1224 -0.0830877 3.68418)
(-26.9109 0.873123 4.2655)
(-26.1151 2.45092 -4.03367)
(-25.8463 -3.62503 -6.24358)
(-24.8929 -11.8136 0.304418)
(-23.7973 -12.4665 -1.56327)
(-23.0843 -3.34598 1.41479)
(-22.1048 -0.0108577 4.43027)
(-20.9901 4.0294 4.18129)
(-20.1185 -0.0643142 7.51333)
(-19.1092 10.8692 6.09457)
(-18.9517 10.6416 13.9393)
(-18.4261 20.2582 5.38693)
(-17.4561 18.8566 6.45829)
(-16.7836 26.7291 6.94099)
(-16.0904 10.0421 10.5916)
(-16.1188 18.7529 10.4343)
(-15.7841 18.4143 2.91178)
(-15.2366 13.9464 1.36139)
(-14.5003 15.2959 -6.91286)
(-13.6422 13.2833 -10.9135)
(-12.6666 9.50007 -5.67434)
(-12.0453 -1.31661 -9.05664)
(-11.718 -7.04159 -0.528921)
(-10.9485 -4.55323 -3.69086)
(-10.6179 -9.81254 1.29607)
(-10.6805 -3.14193 3.55483)
(-10.6074 -8.68876 2.25858)
(-9.66067 0.99653 -1.5517)
(-9.16133 -0.0615265 0.781295)
(-9.09182 -2.35823 -0.718525)
(-8.49975 -6.39032 2.57363)
(-8.10606 -9.25442 3.65021)
(-7.63451 -11.7144 0.363474)
(-7.77926 -13.1219 -0.929423)
(-6.9708 -16.0634 -2.74884)
(-6.70133 -17.3219 4.3753)
(-6.46666 -14.0351 3.88558)
(-6.54115 -8.00557 3.12765)
(-6.08195 -6.20733 -1.21572)
(-5.61379 -6.76378 -4.85065)
(-5.25335 -6.25785 -8.93787)
(-4.89953 0.377849 0.854342)
(-4.69918 -0.947211 0.505398)
(-4.58345 -2.88938 -0.720933)
(-4.89672 -6.23099 2.75819)
(-4.61189 -4.06652 7.36291)
(-4.22326 -11.6542 2.14744)
(-3.95268 -11.3091 5.32923)
(-3.71345 -8.84474 1.6333)
(-3.64796 4.20848 0.774454)
(-3.78597 2.41963 -2.13001)
(-3.3602 -5.88513 -2.71111)
(-3.00863 -4.25144 -3.67494)
(-2.63323 -3.96992 -1.33658)
(-2.32734 -10.1022 -2.93101)
(-2.08076 -14.7895 -0.971711)
(-1.83555 -19.0903 0.605119)
(-1.82479 -13.5201 -6.82612)
(-1.42103 -16.2261 -11.4582)
(-1.12024 -14.1324 -5.08914)
(-0.90081 -14.6029 1.345)
(-0.781147 -16.3236 4.83316)
(-0.612741 -5.85108 6.62804)
(-0.238871 -6.8583 12.0995)
(-0.118535 -0.749125 14.8895)
(-0.0710636 -0.939164 15.6754)
(0.25019 -0.495758 10.313)
(0.223369 -8.15606 7.2861)
(-0.0477468 -10.9728 2.96018)
(0.283742 -7.36022 9.13829)
(-0.104085 -1.94288 -0.0314101)
(-0.638565 -0.729977 1.93618)
(-1.1118 -4.99824 -1.08862)
(-1.22112 -1.95043 -4.27187)
(-1.10821 -6.92251 -3.41673)
(-0.960795 -14.4446 0.742636)
(-0.540726 -18.8166 -1.32929)
(-0.529023 -18.9852 -3.99943)
(-0.976279 -14.9726 1.27791)
(-1.20571 -13.8424 1.27231)
(-1.27242 -10.4929 3.70859)
(-1.55666 -8.3564 4.46642)
(-1.80423 4.36259 2.65187)
(-1.59138 10.0293 2.52303)
(-1.49689 6.34847 -2.96524)
(-1.38211 4.42377 -2.22713)
(-1.00778 11.1411 7.27844)
(-1.03426 5.06854 3.7179)
(-1.03702 -0.970548 5.55581)
(-1.07111 -6.54486 6.46206)
(-0.953188 -3.23838 8.71466)
(-1.06279 -0.908437 13.9474)
(-1.02463 -4.00046 17.8816)
(-0.820336 -3.70024 20.0458)
(-1.10784 -6.61768 6.95304)
(-0.981749 -6.86359 0.513352)
(-0.96529 -3.43247 1.78822)
(-0.51379 -1.10819 3.61886)
(-0.639823 2.67374 7.62672)
(-0.382933 6.67823 7.3816)
(-0.668938 -0.486713 8.80511)
(-0.858982 0.946952 9.80283)
(-0.828174 6.64908 2.68941)
(-1.12393 3.44692 -0.214116)
(-1.19659 7.53238 0.615571)
(-1.26812 5.0054 -3.84865)
(-1.16514 9.21366 2.21987)
(-0.644768 8.27496 6.413)
(-0.786365 11.0429 5.76965)
(-0.991696 14.547 6.96729)
(-0.977556 17.3893 9.41139)
(-1.15563 21.1862 3.897)
(-1.21322 21.8282 2.87882)
(-1.4369 11.4496 6.12349)
(-1.39432 11.8548 5.41067)
(-1.3518 4.60293 1.10761)
(-0.79735 0.331042 -1.56133)
(-0.938874 2.23041 -6.82971)
(-0.652959 0.907437 -0.0125006)
(-0.691887 -5.12611 2.93258)
(-0.819833 -3.94717 6.70012)
(-0.632515 -8.49091 0.479938)
(-0.704887 -3.67141 -10.4667)
(-0.690047 -0.60675 -6.42225)
(-0.795137 -6.76266 1.60922)
(-0.514851 -7.11199 4.59847)
(-0.531807 -4.34075 8.10049)
(-0.494648 -7.86617 11.4145)
(-0.2174 -5.06318 8.24308)
(-0.62622 -6.81322 8.6496)
(-0.388275 -9.7335 8.25433)
(-0.115802 -8.42797 4.69016)
(-0.179525 -6.34819 9.82335)
(-0.123958 -12.5966 12.3257)
(-0.0418297 -17.1744 14.0816)
(-0.224257 -18.0786 15.9197)
(-0.0273549 -17.0366 16.2645)
(-0.180502 -2.06863 12.494)
(0.263191 -9.51874 20.5006)
(0.453214 -3.92862 16.1483)
(0.224976 -3.51053 10.0156)
(0.118876 0.127827 17.2401)
(0.253045 5.38937 20.2596)
(0.295896 8.30172 12.0219)
(0.115757 12.047 8.98073)
(0.140574 6.63879 9.0469)
(0.458079 5.65606 15.6379)
(0.0449495 4.98468 16.1419)
(0.185053 4.26943 7.1601)
(0.142706 0.6385 8.51018)
(0.482559 3.16797 4.40739)
(0.513971 1.76059 2.32736)
(0.565701 -1.70891 5.75007)
(0.414926 8.73246 2.95202)
(0.558093 2.46196 -3.76419)
(0.656794 -1.83139 1.95381)
(0.632205 1.40822 -3.69467)
(0.297654 -1.03405 -2.99587)
(0.416884 2.21688 -1.93872)
(-0.232675 -0.0516191 -5.58106)
(-0.419218 1.38923 -14.4545)
(-0.567317 -6.785 -15.4276)
(-0.814076 -11.9673 -14.4446)
(-0.633319 -15.3965 -16.4576)
(-0.497585 -11.5143 -10.3799)
(-0.629004 -5.877 -13.535)
(-0.767104 -4.37131 -8.70791)
(-0.577187 -1.5628 -4.93892)
(-0.207142 -6.20573 0.737303)
(-0.0752501 0.973012 4.62029)
(-0.0762403 5.45089 0.301151)
(0.355154 0.252867 5.20025)
(0.459522 -3.53537 5.67077)
(0.679381 -6.87111 -0.922207)
(0.35981 -9.86664 4.78466)
(0.095161 -8.67035 2.14048)
(0.0171066 -2.72424 9.61774)
(-0.249097 -2.42561 14.143)
(0.107318 4.18106 7.89373)
(0.305733 -7.04994 5.13825)
(0.772226 -1.28037 4.91379)
(0.915812 -0.970611 8.42379)
(1.19508 -0.922529 2.80876)
(0.857036 -2.94431 -1.81002)
(0.872237 -2.49968 -2.26309)
(0.926283 1.14866 -0.388632)
(0.852928 -6.89827 0.316615)
(0.909285 -7.08897 -3.27517)
(0.911384 -3.64916 -8.12172)
(0.707278 -10.0203 -13.4744)
(0.495682 -5.63873 -16.4747)
(0.221726 -6.53435 -11.8515)
(0.293865 -8.88242 -11.7194)
(0.312746 -15.3477 -11.8318)
(0.452127 -15.0907 -12.2905)
(0.464229 -10.5023 -10.8326)
(0.445375 -20.215 -0.992563)
(0.545488 -16.7417 -1.14107)
(0.446185 -20.5115 5.17541)
(0.517284 -11.7152 4.94004)
(0.650294 -3.71527 5.93401)
(0.593101 0.415457 1.09059)
(0.85038 5.83287 4.91643)
(0.803488 5.26466 3.31799)
(0.374515 3.28387 2.45547)
(0.218097 8.75664 3.93448)
(-0.0389943 -4.16162 4.56094)
(0.0241008 -16.4647 8.3645)
(-0.0807605 -16.4839 6.8062)
(0.0860557 -8.00667 -1.74002)
(0.167809 -18.8649 -4.24796)
(0.199429 -9.65071 -0.0392466)
(-0.0107865 1.13784 -1.21797)
(-0.173082 2.80026 2.46158)
(-0.137908 8.37158 16.3996)
(-0.127209 6.69484 13.5358)
(-0.103617 4.70215 8.17458)
(0.129391 6.36578 3.44029)
(-0.164582 4.5293 10.6811)
(-0.119689 3.07933 7.13658)
(-0.388109 0.82245 9.13411)
(-0.40016 4.27484 1.05357)
(-0.479704 4.19946 -2.60111)
(-0.37989 2.25494 -1.49066)
(-0.159213 -1.82261 -4.04091)
(-0.35637 -5.91938 -9.42282)
(-0.128173 2.08771 -14.7421)
(0.225781 7.39843 -7.82407)
(0.536467 11.8669 -4.64819)
(0.676129 7.12707 1.1146)
(0.978064 -2.52655 9.64289)
(1.0366 -5.25847 4.41378)
(1.22883 -3.85759 -1.37267)
(1.33354 -10.706 8.40242)
(1.36173 -13.6405 11.0554)
(1.47014 -10.4722 4.77341)
(1.4826 -9.11916 -4.99117)
(1.52673 -11.711 0.174121)
(1.21161 -8.49244 -4.09383)
(1.11434 -2.06392 4.89145)
(0.905915 7.26376 1.93471)
(0.680273 9.13477 -0.0277961)
(0.891316 9.95791 -5.25537)
(0.894154 5.863 -5.49147)
(0.854752 2.86671 -9.27649)
(0.615674 2.61314 0.296591)
(0.136135 0.402528 4.52334)
(-0.0285157 2.32091 4.46253)
(-0.12623 -0.0151582 8.81591)
(-0.178938 2.3429 8.83664)
(-0.257431 4.79288 14.3811)
(0.0138284 4.41725 17.1246)
(-0.0292988 7.67216 15.8358)
(-0.264183 10.7994 12.7595)
(-0.0938942 0.0650734 8.45652)
(-0.125133 -3.89426 9.16934)
(0.137593 -3.38075 15.4513)
(-0.0247594 0.941359 17.1732)
(0.112551 6.43792 4.32179)
(0.168813 0.0164117 -3.61651)
(0.199191 2.58835 -3.71648)
(0.219957 4.91856 -1.49201)
(0.150751 9.89781 -3.69634)
(0.140681 5.79518 -7.70787)
(-0.208425 15.466 -2.00751)
(0.0236594 17.9102 -0.551257)
(0.241262 19.8336 0.563439)
(0.057653 16.3725 -6.13529)
(-0.190343 17.0092 -10.5188)
(-0.202022 9.47694 -5.72233)
(-0.514242 12.1231 -2.9713)
(-0.432796 8.9593 0.655765)
(-0.0345456 4.46735 -1.63575)
(0.110864 5.19126 -2.2336)
(0.0182699 10.9918 1.50011)
(0.0211596 7.68134 -2.34294)
(0.167359 -0.268431 2.24069)
(-0.023555 -7.63166 0.544751)
(0.274193 -9.09901 2.92417)
(0.211444 -5.57008 2.58276)
(0.480785 -6.12174 2.12443)
(0.632389 -8.06121 9.83081)
(0.0975969 4.78641 1.05848)
(-0.00898536 10.5978 3.47228)
(0.140491 11.652 6.52403)
(0.215866 13.9845 1.37008)
(0.150781 17.381 -6.74075)
(0.17049 12.717 -12.3756)
(0.365221 12.8173 -11.487)
(0.564214 14.2581 -11.3921)
(0.463805 16.9911 -14.3816)
(0.662698 19.6313 -22.592)
(0.399459 6.39386 -15.5023)
(0.331501 -2.87409 -7.90424)
(0.407326 0.381375 -2.2155)
(1.00243 5.49715 2.23666)
(1.12978 6.12813 0.462231)
(1.33932 14.9926 10.7011)
(1.25428 16.3882 12.5508)
(1.19312 19.017 17.4923)
(1.17685 17.1777 19.0513)
(1.30789 6.85006 17.9493)
(1.23162 4.5046 17.5229)
(1.08983 2.4207 16.6222)
(0.682726 2.33049 9.31518)
(0.428504 2.66157 14.2628)
(0.200402 0.66483 16.3141)
(-0.0736298 -2.75261 9.24561)
(-0.47543 6.42932 0.0187034)
(-0.697784 -3.62516 -8.01495)
(-0.858889 -14.3723 -3.49881)
(-0.919375 -13.5534 -4.07495)
(-0.639561 -8.59207 -0.848356)
(-0.713284 -4.47084 -5.08789)
(-0.304703 -7.50803 -3.3272)
(-0.518912 -3.0671 -0.00302063)
(-0.878169 -8.05492 6.48075)
(-1.29042 -10.0186 9.10475)
(-1.24214 -6.38106 9.18238)
(-1.07115 -9.31099 9.27241)
(-1.27904 -7.27762 7.8382)
(-1.63768 -4.61379 10.0612)
(-1.47629 5.24214 13.2118)
(-1.24798 3.82509 14.3441)
(-1.04108 9.29348 3.28817)
(-0.859863 13.0385 0.532266)
(-0.902184 17.7688 -5.79672)
(-0.962816 14.4411 -4.51401)
(-1.20849 14.8492 -5.29445)
(-1.07819 15.2659 -1.45914)
(-1.15325 10.1756 7.88212)
(-1.12138 10.8925 2.92287)
(-1.156 8.24833 -1.42149)
(-1.24004 10.3049 7.1025)
(-1.09997 5.02873 -2.07627)
(-1.36025 5.755 -11.7801)
(-1.05856 1.67707 -9.72765)
(-1.09315 -3.81715 -2.26938)
(-1.22649 -0.845788 -7.95078)
(-1.36721 -3.48435 -5.65356)
(-1.67539 -5.44541 -9.43059)
(-1.42461 1.41337 -11.5884)
(-1.1792 3.66598 -15.4841)
(-0.859624 -9.08959 -11.5785)
(-0.962484 -4.4972 -11.8342)
(-0.902376 -10.8406 -9.22959)
(-0.945495 -9.63061 -13.2008)
(-0.86464 -10.575 -9.84732)
(-0.554532 -4.75143 -8.94709)
(-0.554378 -2.81221 -10.7804)
(-0.433185 0.345719 -17.3681)
(-0.219079 -2.65118 -15.612)
(0.0213903 0.575954 -17.9922)
(-0.0478323 1.85551 -7.33516)
(0.219666 7.44121 -8.64348)
(0.346281 9.20621 -4.19453)
(0.180226 3.26385 -8.73179)
(-0.21054 7.51728 -8.86932)
(-0.39419 15.9826 -2.2462)
(-0.538524 14.1735 -10.9533)
(-0.309198 21.717 -7.19477)
(-0.412053 19.8157 -16.0323)
(-0.879373 20.7922 -13.6301)
(-0.949735 13.5003 -12.5024)
(-0.884988 14.1732 -13.1032)
(-0.769957 11.3323 -7.16501)
(-0.949012 6.14965 -13.895)
(-0.882534 8.47374 -6.99129)
(-1.07328 6.2564 -5.10434)
(-0.858524 4.71634 2.29362)
(-0.789456 0.500091 2.63633)
(-0.590966 -5.45127 1.26037)
(-0.453459 -12.5169 -5.11308)
(-0.835262 -11.4904 -2.51188)
(-1.01386 -12.001 -4.46183)
(-1.00528 -10.4525 -7.00439)
(-1.01977 -1.80772 -2.00441)
(-0.815345 -7.84017 -9.96618)
(-0.945523 -9.95194 -7.83757)
(-1.15005 -3.64434 -4.94479)
(-1.10652 -9.33824 -6.15881)
(-1.03968 -3.7494 -6.56636)
(-1.37274 2.20788 -6.80484)
(-1.15866 3.86742 -7.99544)
(-1.2382 -0.879666 -4.90339)
(-1.21944 -4.27307 7.05418)
(-1.0337 -2.4559 2.12922)
(-0.870775 -8.21847 7.22984)
(-0.680135 -13.017 6.11523)
(-0.924443 -14.7211 0.0866801)
(-0.840864 -14.7174 2.79748)
(-0.458103 -9.28938 6.65667)
(-0.338958 -4.89671 14.8203)
(-0.251459 1.02485 15.7643)
(-0.0357528 1.18756 10.7247)
(-0.308343 2.39767 6.79088)
(-0.477955 6.95296 7.10822)
(-0.108339 7.32071 1.72732)
(0.013088 9.67049 3.48785)
(0.290606 -0.912977 -0.596016)
(0.325688 0.600659 0.674544)
(0.0106213 1.72349 -1.64401)
(0.032312 0.251851 -6.30021)
(-0.0881308 -1.459 -3.46545)
(-0.246756 -3.01891 -2.82948)
(-0.0623698 -2.639 -5.25825)
(-0.13514 -3.43411 -0.671187)
(0.164462 2.05736 0.377709)
(0.168127 -4.40556 -5.53252)
(-0.0393988 -4.40611 -7.91455)
(-0.189229 2.63881 -0.898263)
(-0.163083 -1.17177 -0.769027)
(-0.138471 -0.589077 11.4777)
(-0.5232 -2.21095 8.07559)
(-0.105195 1.40462 8.2557)
(0.159985 -1.75638 3.74538)
(-0.103175 3.71963 9.14787)
(0.222842 6.17048 -2.51177)
(-0.125316 0.640606 -0.745007)
(-0.426871 4.62993 5.88081)
(-0.214032 2.23167 5.02034)
(-0.090768 -0.540938 2.19384)
(-0.137075 2.38517 6.53262)
(-0.025855 3.03559 15.439)
(-0.166554 -1.05774 14.3675)
(-0.0173337 -0.914502 10.3354)
(-0.0352838 -1.09986 7.23989)
(-0.322098 5.81286 0.287646)
(-0.535342 4.27101 2.54337)
(-0.630715 4.47363 7.56903)
(-0.285887 6.21819 3.05802)
(-0.24144 11.051 4.08705)
(0.0141108 1.60118 2.88373)
(0.415667 -5.57752 1.43824)
(0.495792 1.32208 -1.82288)
(0.485663 2.4838 3.78512)
(0.403529 -5.52079 -5.78265)
(0.785552 5.04278 -11.4621)
(0.678402 16.1376 -0.984122)
(0.708623 12.1068 6.45219)
(0.629977 5.35006 7.13257)
(0.724231 4.41292 3.54678)
(0.867356 7.32725 5.28893)
(0.872192 9.71529 1.48191)
(0.785196 -3.92706 0.728002)
(0.597131 -5.63334 6.75343)
(0.761318 -11.7317 13.9664)
(0.74809 3.25611 23.4645)
(0.728696 0.481859 14.0911)
(0.932188 -1.47054 13.6479)
(1.01227 -4.27664 7.20621)
(0.985997 -2.87828 -2.78627)
(0.74594 4.26403 -6.39874)
(0.51023 -5.19929 -10.9364)
(0.894185 0.632988 -6.25079)
(0.726925 8.24092 -11.0605)
(0.86598 9.9014 -13.9192)
(1.17051 12.407 -17.9043)
(1.06598 -4.9297 -10.1143)
(0.886754 -5.2243 -9.36494)
(0.868669 -5.36245 1.6935)
(0.92139 -2.99754 2.06889)
(0.940217 -0.136576 -5.90634)
(1.39456 4.20295 2.83938)
(1.28588 -3.54279 -6.25502)
(1.50314 0.242648 -1.07465)
(1.51315 1.40676 -0.899702)
(1.25133 0.782432 -2.62702)
(1.281 0.894748 6.85311)
(1.30867 -1.33607 12.7391)
(1.37065 -7.88021 9.80905)
(1.02786 5.09003 12.7284)
(0.801722 10.1825 15.8039)
(1.19963 2.30549 18.8931)
(1.09888 4.6141 18.7857)
(0.783111 5.64709 22.7351)
(0.987815 4.52122 16.1083)
(0.762485 -0.893238 14.8813)
(0.723436 6.64575 11.469)
(0.882575 11.717 11.5769)
(1.42125 12.4747 10.4872)
(1.50502 14.8548 3.2324)
(1.69898 7.51336 -4.75466)
(1.89156 7.26788 -0.96033)
(1.93403 8.91808 -3.8546)
(1.65556 13.5091 -4.45916)
(1.74052 11.2833 -0.0503886)
(1.7793 5.10175 -0.385292)
(1.7536 -1.79435 -6.87849)
(1.89379 -6.82193 -5.26883)
(1.81745 -4.15178 -6.0334)
(1.89706 -4.89177 0.547392)
(1.95322 0.161825 -0.52992)
(1.56373 -1.136 3.97687)
(1.9081 -7.47392 -4.31051)
(1.92352 2.39381 -11.7963)
(1.8888 0.551171 -11.0107)
(1.8628 6.1604 -13.799)
(1.78726 5.69126 -10.6571)
(1.82323 1.51318 -10.9157)
(1.51894 3.8138 -6.26792)
(1.32329 10.6086 -6.26662)
(1.45564 1.04795 -3.14841)
(1.22666 1.97937 -0.296819)
(1.26301 -6.0341 2.42216)
(1.28205 -4.1002 -3.24636)
(1.56785 -9.35081 -10.3541)
(1.55728 -10.8509 -10.3802)
(1.46431 -12.6517 -7.52639)
(1.52677 -15.1731 -6.31348)
(1.81879 -13.9449 4.37718)
(2.13513 -18.1627 1.62223)
(2.01849 -12.5539 -2.53723)
(2.0168 -14.8026 0.583652)
(2.13789 -15.0052 0.577422)
(2.09726 -22.6072 -4.41076)
(1.89687 -17.1466 -0.280588)
(2.02591 -15.3821 4.16346)
(1.94621 -3.77294 6.16941)
(1.86452 -8.55445 0.437704)
(1.89631 -10.1057 -4.6832)
(1.66995 -14.2426 -4.82122)
(1.51973 -8.55066 -12.8921)
(1.48434 -6.47847 -15.5218)
(1.32633 3.83437 -17.0039)
(1.59744 5.4336 -7.64208)
(1.56453 10.9167 -7.87043)
(1.43327 12.0218 -9.34322)
(1.70652 9.94826 -2.95848)
(1.64075 6.37467 -6.0577)
(1.16747 4.5176 2.07539)
(1.04249 12.4456 -0.325475)
(0.94746 12.9543 1.11134)
(0.8189 18.4236 -0.0635809)
(0.852052 22.7385 5.47981)
(0.929397 23.4701 5.91894)
(0.852833 29.0873 12.1388)
(0.628906 21.7486 16.3062)
(0.906745 12.8386 10.9952)
(0.936901 7.66032 10.9002)
(1.3086 11.7793 11.384)
(1.67997 10.6571 10.609)
(1.54469 5.86499 8.29318)
(1.46132 5.73241 8.82626)
(1.63767 -0.35704 6.76291)
(1.93665 -3.6319 14.3152)
(1.84065 3.91547 11.026)
(1.71238 4.50839 3.20082)
(1.39185 0.987899 3.62783)
(1.46963 -0.291158 -4.24722)
(1.38056 0.515922 -7.18113)
(1.23485 7.94367 -5.48256)
(1.08568 5.82463 -5.86116)
(0.469671 3.85913 -6.79531)
(0.504747 -2.61181 -2.63721)
(0.323901 1.46849 1.90894)
(0.454716 5.12858 3.01054)
(0.888875 4.94966 3.19583)
(0.4609 -0.322188 3.36057)
(0.841842 3.24884 -0.383414)
(0.768152 6.87033 -8.87913)
(0.877131 8.26725 -9.87506)
(1.03308 5.55896 -4.15753)
(0.994895 4.97377 -5.48637)
(0.727326 -1.3774 -6.10752)
(0.886834 2.79593 2.55855)
(1.27257 2.49737 1.52579)
(1.39113 -5.10545 5.34109)
(0.99234 2.0803 -5.53593)
(1.24043 10.6345 -15.1065)
(1.42692 9.99376 -12.6648)
(1.27566 5.84238 -3.63309)
(1.51432 -0.96005 -11.2044)
(1.4651 4.92734 -11.685)
(1.35538 9.7436 -20.2134)
(1.35412 8.17762 -12.6639)
(1.43502 11.4621 -13.8726)
(1.45712 12.6105 -12.3539)
(1.13727 4.4499 -15.7713)
(0.942769 4.76384 -7.17293)
(1.24913 -2.03354 -2.04573)
(1.05284 3.1793 -5.06415)
(1.1932 10.8331 -8.88341)
(0.924614 9.33472 -9.11269)
(0.485588 15.8146 2.71725)
(0.513229 18.8095 4.203)
(0.52858 16.8736 -8.52261)
(0.64616 9.65031 -8.62042)
(0.681546 13.0465 -8.11766)
(0.716699 22.5074 -5.75487)
(1.0171 18.8051 -9.3883)
(1.15115 20.561 -4.43653)
(1.35596 16.6841 -6.58377)
(1.25331 16.5444 -8.21586)
(1.0783 14.1446 -3.4793)
(0.675415 15.9781 -0.653545)
(0.760649 13.6432 2.57285)
(0.605783 9.79531 2.48488)
(0.589521 11.841 10.9497)
(0.579029 16.5547 24.0255)
(0.80085 12.7017 23.4878)
(1.03208 9.56778 21.5666)
(0.94443 4.36316 16.9666)
(0.516839 -0.0586491 14.7223)
(0.685572 7.56533 9.76999)
(0.902224 0.951371 6.72311)
(1.15751 -2.79018 4.83996)
(1.14856 -3.86882 4.53011)
(1.38621 -0.926779 3.51396)
(1.33931 -5.33206 2.1227)
(1.13456 2.16448 1.16848)
(1.24205 9.25408 7.92859)
(1.19548 3.74385 5.67397)
(0.650674 6.74667 6.19488)
(0.294793 6.25053 0.154997)
(0.491095 9.37539 -0.980425)
(0.572382 6.73163 -11.6927)
(0.324605 3.95566 -21.1275)
(0.160958 12.8642 -8.42406)
(-0.055845 5.43286 -11.5554)
(-0.44645 10.7574 -8.32268)
(-0.272943 2.19653 -8.56226)
(-0.178166 -0.292984 -17.8374)
(-0.0108217 3.74919 -18.514)
(-0.415519 4.41361 -13.2401)
(-0.102243 10.5745 -18.5054)
(-0.011613 8.72652 -9.0798)
(-0.0804039 -1.18615 -9.75862)
(0.00390807 -7.10734 -11.8759)
(0.0998524 -7.91553 -11.0788)
(-0.219173 2.37592 -8.52486)
(0.182848 6.45493 -9.88988)
(0.00721822 5.02186 -7.63862)
(0.197019 3.91619 -7.45426)
(-0.0510338 6.31297 -7.33687)
(0.416606 2.13369 -1.12723)
(0.253135 6.00593 0.55962)
(0.041699 0.054071 5.30159)
(-0.376144 -7.04924 8.1129)
(-0.457197 -10.1154 8.90969)
(-0.224487 -3.10952 1.99095)
(0.125757 9.89506 -5.70115)
(0.0771897 10.6701 0.375584)
(0.0576639 14.3306 6.35071)
(0.0675858 6.14276 13.6114)
(-0.0531934 6.35236 9.18781)
(-0.389834 8.33691 8.58686)
(-0.0818416 8.44499 8.34941)
(0.0199869 6.64726 9.30572)
(0.459644 2.49823 1.90343)
(0.499176 6.91558 10.3968)
(0.469889 12.5812 0.51283)
(0.233688 10.7231 -6.04532)
(0.167614 8.95166 -5.7079)
(-0.113927 13.049 -12.8814)
(-0.0946372 9.08411 -16.2986)
(-0.420438 3.18723 -11.5662)
(-0.43644 8.1017 -7.7744)
(-0.830088 12.8028 1.08545)
(-0.738521 8.78828 -7.23442)
(-0.464741 1.15221 -5.10262)
(-0.526323 10.9005 9.18409)
(-0.815529 6.10925 6.5292)
(-0.792056 6.74297 6.10729)
(-0.927086 -10.1512 5.63353)
(-1.2807 -12.6263 10.2132)
(-1.1147 -4.00982 2.28494)
(-1.37781 -3.71313 5.81616)
(-1.1192 -4.71403 5.14064)
(-1.11523 -16.7836 2.1415)
(-0.911171 -3.51383 -0.0618442)
(-0.573782 -2.04553 -3.01164)
(-0.265888 8.20935 -8.62231)
(0.0276572 7.32301 -3.33932)
(0.289077 9.22792 2.56976)
(0.196167 5.54866 0.710398)
(0.147739 6.4404 1.65682)
(0.143207 3.93591 5.42506)
(-0.0786873 14.9837 2.7592)
(0.271066 18.0012 2.63155)
(-0.358694 8.7635 -0.767375)
(-0.275894 -0.311889 0.806897)
(-0.15072 -0.90806 3.3443)
(-0.00271903 -0.0536224 6.70859)
(-0.0913531 -0.313622 5.57204)
(-0.164843 0.820136 0.54848)
(-0.125864 -4.01459 -0.791543)
(0.281472 8.19794 2.01279)
(0.707361 11.8766 6.73402)
(0.663582 11.7941 -0.202054)
(0.952158 17.1713 0.756039)
(1.06241 12.3265 0.19096)
(0.928237 11.7905 3.82311)
(1.2805 5.77774 10.7339)
(1.03897 -2.17325 2.33584)
(1.18512 3.42699 1.18415)
(1.21278 7.41546 -5.42007)
(1.13709 3.02971 -5.72126)
(1.02762 4.75455 -0.552485)
(1.13768 -3.06255 -6.75685)
(0.973444 -3.4264 1.40998)
(0.71984 -0.950239 5.79373)
(0.289364 0.676243 2.00544)
(0.12323 2.42584 -1.21585)
(0.257979 5.31652 -4.52968)
(0.530064 3.53057 -7.50499)
(0.602109 4.43735 -9.14922)
(0.392933 -0.949526 -12.875)
(0.588535 -1.19356 -11.5778)
(0.571333 -1.55765 -13.9397)
(0.655421 -1.79555 -16.9508)
(0.557129 -10.4461 -18.3491)
(0.288462 -9.75423 -14.618)
(0.102539 -4.95228 -17.4762)
(-0.234278 -8.13665 -16.7843)
(-0.47416 -12.5927 -11.9099)
(-0.620417 -8.72669 -8.47196)
(-0.593684 -9.42895 -4.30745)
(-0.540266 -3.39887 1.5448)
(-0.499588 -5.66238 -1.03856)
(-0.495394 -10.3676 -1.25272)
(-0.661513 -1.48933 2.88965)
(-0.803082 -5.15706 11.2376)
(-0.972393 -8.33297 2.22082)
(-0.835009 -8.63692 -2.05691)
(-0.76044 -4.31575 1.65888)
(-0.703121 -7.42559 -2.46273)
(-0.633945 -6.92568 -3.4491)
(-0.705185 -5.08509 -5.46574)
(-0.627435 -4.40656 -4.30369)
(-0.676927 -10.3754 -3.90861)
(-0.975765 -10.148 -2.76284)
(-0.778226 -8.13929 -4.45652)
(-0.633582 -3.1479 -3.4018)
(-0.319208 -6.17495 -4.92297)
(-0.11062 -14.8434 -5.14116)
(-0.202173 -15.8931 -4.80642)
(-0.601343 -14.4217 3.74924)
(-1.17583 -7.24369 -2.5359)
(-1.39425 -6.22456 -4.65747)
(-1.54177 -0.13476 -3.72272)
(-1.32167 1.84883 3.14141)
(-1.07641 8.56416 2.7981)
(-1.08611 5.96418 9.61186)
(-1.27659 9.70021 10.2051)
(-1.24311 14.082 1.57001)
(-0.994894 14.2115 -0.0174504)
(-0.794151 16.5904 -2.0655)
(-1.26774 12.9095 0.425822)
(-1.1966 11.4489 7.03728)
(-0.75471 10.2637 3.45)
(-0.729238 1.61328 -0.393573)
(-1.0705 -0.750391 2.45003)
(-1.33269 -4.39951 6.05028)
(-1.13023 -7.71936 -12.4342)
(-0.973151 -4.53647 -14.5368)
(-0.972427 -3.02079 -9.77019)
(-0.849129 2.35763 -12.6782)
(-0.766326 -1.94668 -11.1847)
(-0.65582 2.6475 -0.971568)
(-0.80007 -2.7258 -11.0018)
(-0.957632 -0.316157 -16.5415)
(-1.18925 -2.95903 -12.9859)
(-1.10806 -8.4571 -15.0611)
(-0.902249 -4.92185 -18.7528)
(-1.04922 -5.34034 -15.9939)
(-1.00926 -7.09359 -6.45799)
(-0.913669 -0.114034 -3.71667)
(-0.964254 3.48557 -7.17726)
(-1.05239 5.44608 -13.105)
(-1.34274 4.79512 -12.8656)
(-1.11821 5.53837 -11.8883)
(-1.2177 3.40547 -1.06531)
(-1.02961 1.52025 2.13957)
(-0.843038 -3.0609 4.61497)
(-1.00833 -4.17855 2.75905)
(-0.830103 1.76153 -10.5961)
(-0.871569 6.39671 -4.71455)
(-0.448229 3.23882 -4.18076)
(-0.554872 -0.368515 -3.29112)
(-0.346803 3.17711 -6.09402)
(0.0478648 13.2655 -2.51229)
(0.17217 13.5388 0.666933)
(0.34884 7.67428 8.93093)
(0.534123 14.0212 0.240229)
(0.823107 14.9524 1.18249)
(0.965981 18.1375 -0.184785)
(0.947099 17.9947 -5.60819)
(1.08255 13.0553 -7.0931)
(1.03035 8.94076 1.4676)
(1.23925 2.73046 0.933821)
(1.4604 7.69328 -0.35318)
(1.98068 6.07344 2.68722)
(2.47356 5.02709 6.34302)
(2.40478 7.24107 4.56947)
(2.89462 4.00999 3.4871)
(3.12512 6.34219 3.43249)
(3.17529 8.2343 6.75027)
(3.73345 2.12252 0.31923)
(4.10307 3.74553 8.20504)
(4.62596 5.23725 0.704383)
(4.66186 2.53392 5.3668)
(4.88052 3.29847 8.44171)
(5.04666 -2.0497 4.03519)
(5.71338 -5.64999 5.22053)
(6.46814 -3.2071 3.7563)
(6.85194 -6.04536 2.06456)
(7.20518 -4.15086 0.192514)
(7.86161 -10.4482 6.10883)
(8.33356 -5.99679 9.1665)
(9.00349 -7.86844 6.9377)
(9.68698 -8.88364 8.78171)
(10.4528 0.692369 4.57999)
(10.895 -2.38355 6.59106)
(11.0344 -1.58152 4.29236)
(11.7213 0.534896 1.29546)
(12.5977 -2.9984 5.20443)
(13.2774 -6.93275 6.26625)
(13.6166 -7.75676 -3.09942)
(14.3442 -9.0353 7.62617)
(15.3521 -6.59481 -1.76433)
(15.7597 -12.8296 -1.28489)
(15.8557 -13.4104 -6.64744)
(17.0141 -16.4265 3.24525)
(18.0572 -16.6002 4.87048)
(18.0219 -23.6312 -2.42958)
(18.8004 -19.9261 -1.31278)
(19.729 -16.2967 -12.4605)
(21.1123 -11.0525 -6.74838)
(22.7676 -19.6104 -14.2051)
(23.1226 -24.4662 -4.42719)
(24.3649 -21.9658 -4.5006)
(25.8631 -17.2348 -3.04094)
(27.0652 -15.0284 2.40982)
(27.2169 -8.76518 -0.595052)
(27.9571 -2.19498 2.69784)
(28.4033 -3.76844 -10.0031)
(29.9353 -1.59913 -7.046)
(30.9882 -1.68263 -3.55596)
(32.2891 -0.983692 -6.29184)
(32.7233 -7.13729 -2.92085)
(33.587 -9.21541 4.76731)
(34.7699 -12.3039 9.46786)
(35.1926 -12.9241 5.23835)
(35.9411 -6.15361 2.53944)
(36.4735 -3.45462 7.00455)
(37.4043 -0.515137 8.24274)
(38.8903 0.830297 6.58889)
(40.7409 7.39203 9.10515)
(42.3633 9.34544 -0.775722)
(44.4705 -5.33047 -1.49589)
(46.487 -7.76958 3.37001)
(47.603 -10.1305 2.36331)
(48.429 -3.57476 -0.642528)
(48.7475 -4.30304 2.05048)
(50.0978 -4.46597 -6.33375)
(52.1325 -6.62606 2.50816)
(53.8158 -2.49492 0.607229)
(54.4129 0.177644 9.16026)
(55.307 2.28676 12.6186)
(57.3586 5.09067 8.51914)
(57.928 4.18201 4.84284)
(59.0758 -3.2373 4.22312)
(61.3298 -4.52886 4.62068)
(63.3044 -1.00579 9.82709)
(68.4293 -2.25869 3.58783)
(68.7695 -5.83636 4.98174)
(70.9842 -7.32267 8.10435)
(71.8242 -7.96384 0.753973)
(72.7732 -1.88494 3.26649)
(75.6222 3.42813 6.14475)
(76.5367 -6.37238 3.34014)
(78.9954 -1.74982 2.35271)
(81.2026 -2.13353 -2.51222)
(82.5954 -7.15221 -5.82046)
(85.4016 -5.74602 -3.81127)
(88.2388 -0.875298 -8.44505)
(88.3955 5.27649 -1.99134)
(90.6898 4.67244 1.43937)
(93.4778 0.434612 3.3501)
(96.7639 7.61268 6.52807)
(100.616 1.06171 3.88078)
(102.375 2.61673 2.16463)
(104.344 3.36422 4.75265)
(106.829 -3.56302 -2.07946)
(110.152 7.70359 7.00872)
(112.25 3.69189 5.07522)
(111.53 2.83758 1.67167)
(118.839 0.562254 6.38068)
(123.103 -0.988007 2.0704)
(126.719 -0.569673 -2.31075)
(127.708 1.13874 -11.6981)
(131.029 -4.30923 -13.4784)
(136.562 -1.132 -17.3346)
(141.489 -0.411881 -9.87026)
(143.568 -3.4572 -4.27871)
(146.083 -0.738593 -1.27561)
(150.618 -0.80455 -3.7807)
(154.553 3.29281 -4.93406)
(160.708 2.02285 -8.91992)
(166.019 2.15936 -12.0972)
(172.262 3.94882 -13.687)
(174.288 7.81069 -14.8381)
(185.28 4.27884 -12.4584)
(193.39 9.33775 -8.28409)
(198.737 3.09268 -2.6288)
(204.107 -1.51815 -9.29501)
(209.048 -6.46985 1.73152)
(216.328 -4.83943 -0.852389)
(226.15 -3.05835 -3.32244)
(239.126 -6.60865 0.507579)
(253.256 -7.03654 -4.01941)
(261.522 -8.99649 0.0518227)
(271.182 -7.55335 -2.8207)
(284.474 -3.1096 -6.75803)
(314.779 1.72682 -2.53941)
(344.262 -2.26914 -1.15252)
)
;

boundaryField
{
    sides
    {
        type            calculated;
        value           nonuniform List<vector> 2((344.262 -2.26914 -1.15252) (-338.083 5.65178 -4.21843));
    }
    empty
    {
        type            empty;
    }
}


// ************************************************************************* //
