/*--------------------------------*- C++ -*----------------------------------*\
  =========                 |
  \\      /  F ield         | OpenFOAM: The Open Source CFD Toolbox
   \\    /   O peration     | Website:  https://openfoam.org
    \\  /    A nd           | Version:  7
     \\/     M anipulation  |
\*---------------------------------------------------------------------------*/
FoamFile
{
    version     2.0;
    format      ascii;
    class       volScalarField;
    location    "0.0036";
    object      dsmcRhoNMean;
}
// * * * * * * * * * * * * * * * * * * * * * * * * * * * * * * * * * * * * * //

dimensions      [0 -3 0 0 0 0 0];

internalField   nonuniform List<scalar> 
1000
(
18.2094
19.7081
20.5358
22.2739
21.7858
23.2486
24.8222
25.2842
25.6153
26.5861
27.5478
27.7472
27.4856
29.3272
30.2231
31.7606
31.4922
31.6764
31.3561
31.2439
32.2928
31.9658
32.0917
33.8336
34.6456
35.1567
35.0633
36.3989
34.8311
35.735
35.2075
35.4061
36.2528
36.8775
37.4939
38.01
38.0931
38.5047
37.0944
37.8778
38.6675
38.3897
39.0189
39.5669
38.805
39.3192
39.2483
40.7453
39.6442
38.7086
39.6683
39.4578
39.9992
39.6514
40.7094
40.5547
40.4433
41.3772
41.8842
42.15
41.0233
42.5531
43.4297
45.0875
44.39
44.2711
44.3192
43.2378
43.4819
44.1539
44.3542
44.6972
45.8431
44.5039
46.0533
45.4681
46.085
46.4019
47.4886
46.7814
47.9228
46.765
46.6908
45.6867
46.1303
45.1972
45.4047
45.2464
46.2597
45.2503
46.8683
47.165
47.2528
47.1086
46.0386
47.2922
46.8581
47.0583
45.1978
44.9231
46.1075
47.2569
46.8439
45.9167
46.1697
45.8075
46.6547
48.2644
46.1628
46.3661
45.6967
45.5997
47.2667
45.9878
46.0603
47.0231
46.5789
46.8678
47.5222
47.8367
47.9064
48.2844
48.3903
47.8603
47.0303
46.98
47.3244
46.4814
46.3567
47.0414
47.3058
48.4647
47.7011
48.6664
48.2789
46.6047
48.0414
50.2397
50.6486
48.4286
49.7089
49.2922
49.1194
49.1469
49.7167
48.4261
49.3861
50.8939
49.0175
49.0911
48.2631
49.0881
48.4806
48.6775
49.6394
49.6519
49.4644
47.6611
48.3047
49.2372
49.5642
49.4858
49.1139
48.4161
48.8575
48.3256
47.7
47.21
47.3539
47.7278
48.3642
48.4514
49.0025
48.9683
49.4308
50.5033
49.5761
49.0983
49.0264
48.7658
49.0806
48.1597
47.4089
46.675
46.8367
46.6983
47.8372
47.5797
47.1778
46.9664
49.0003
46.6144
46.8686
48.695
50.3592
49.5594
48.8894
49.8797
49.7986
48.6589
48.3869
48.0728
47.5789
49.3164
48.8483
48.3931
47.4425
47.7581
49.8167
50.7617
48.9603
49.3272
49.9467
47.8956
50.19
48.5708
49.4728
49.3114
48.3458
48.6253
48.9
49.2592
49.0519
47.5811
47.6592
48.5086
50.4719
48.4636
47.7694
48.1242
48.9472
47.8517
47.8119
45.6267
47.0881
46.5214
47.2236
47.9711
47.5531
48.9961
48.4642
49.7686
50.6197
49.1714
49.3747
49.1561
49.2692
48.8436
48.7833
50.5161
50.4397
50.5142
50.7281
49.1536
49.2669
49.4864
48.8725
49.2844
49.8719
50.2908
52.0394
51.1908
51.2497
50.2486
50.8031
49.8869
49.7158
49.6322
49.5597
51.1614
51.395
50.9456
51.5558
49.8292
49.5572
50.5308
51.4925
51.2642
50.8439
51.6819
50.6297
50.6208
49.8239
49.3189
49.1233
48.9003
47.8117
49.4142
48.2553
49.0881
49.6794
49.635
49.8739
49.0442
49.0247
49.4792
50.4119
49.9194
49.0997
48.3422
48.3847
49.325
47.7928
47.5278
47.7247
48.3636
47.9631
49.9503
50.1344
48.7997
47.9272
48.8119
49.1775
49.1406
48.9367
49.5717
50.1369
50.1728
51.6536
50.8267
51.4653
52.7781
51.5633
49.0975
49.5264
49.4739
49.1528
49.0089
50.1328
48.9675
49.3125
47.9839
48.9969
49.1147
50.8858
50.7633
50.6236
49.3739
50.4189
50.0589
51.2167
50.415
50.725
51.0258
50.0983
50.3594
49.6122
50.3592
50.0222
50.2558
48.8419
49.7975
50.8789
52.2275
52.1036
53.52
53.7036
53.17
54.7039
52.5436
52.8692
53.4683
52.6881
52.145
53.2953
53.5583
52.8086
53.7964
55.3725
54.3633
53.68
54.4461
54.1089
53.85
55.0708
52.6869
53.0153
53.0758
52.7064
53.1272
53.5825
55.4961
55.5172
55.5883
54.2461
54.5981
54.4306
55.7311
55.8839
54.9528
55.3756
56.7994
56.7317
56.9531
57.6772
57.0614
57.3308
56.2703
56.6692
55.6825
56.8897
55.6564
57.2403
59.4086
59.825
58.0111
58.53
59.785
60.6186
60.045
60.2689
61.1739
60.6981
60.7336
60.3461
60.1344
59.9289
60.8942
61.1381
62.2947
60.6847
62.1217
62.9622
63.3642
64.3331
65.1603
64.2436
64.0042
63.2614
63.9108
65.2181
64.6886
63.8656
65.1408
66.9294
66.1639
65.3322
67.1003
65.5072
64.8431
63.1361
64.1575
66.6303
66.8336
67.5428
68.3133
69.72
70.4883
68.5403
68.5875
69.0306
69.2103
70.8606
72.6261
72.5492
74.5764
74.8064
74.6036
73.2639
75.2547
75.7114
76.9206
78.5653
79.9814
79.6883
80.3186
79.2058
81.9989
82.5856
82.0542
84.1678
85.0789
83.9667
85.7992
86.6578
87.8278
88.8819
88.7142
88.9619
90.4625
89.0119
88.315
91.8164
95.5547
93.7369
92.1292
94.5369
95.0989
95.5147
97.5539
98.9761
98.3147
100.639
102.267
103.248
102.948
105.11
103.081
105.099
106.827
108.304
107.019
108.143
110.915
112.107
114.167
113.208
114.644
115.928
116.45
117.141
117.373
116.723
117.295
118.331
117.596
118.943
120.106
121.606
121.449
122.441
121.537
123.364
125.002
129.146
127.427
128.567
130.118
129.636
128.207
131.656
129.856
129.624
130.15
129.432
130.659
134.223
136.492
134.287
134.168
138.697
139.871
138.794
136.658
137.799
136.507
137.649
140.101
141.152
142.232
142.338
143.986
144.411
140.743
143.913
145.892
144.734
143.683
145.078
143.489
146.777
146.162
146.614
146.117
145.005
147.49
148.659
150.426
150.846
150.344
151.383
153.013
154.321
153.618
155.048
158.392
159.227
159.577
157.563
159.826
158.626
157.666
157.456
159.828
159.913
160.593
158.346
158.424
160.594
161.548
162.56
163.903
164.231
164.738
165.79
161.891
163.659
164.379
161.689
164.191
165.568
163.171
163.646
162.779
164.204
163.23
168.033
169.112
167.348
168.098
166.371
166.313
164.461
166.701
169.174
168.392
167.694
169.201
169.113
169.737
168.546
166.775
169.09
167.443
171.732
170.942
168.629
167.622
167.816
169.428
169.725
169.808
168.96
168.044
168.035
169.07
166.391
167.582
167.76
166.821
167.329
168.589
168.745
168.413
165.525
164.929
167.867
167.295
165.931
168.704
168.323
168.287
166.76
167.159
165.967
166.002
166.316
168.362
168.788
169.348
170.183
165.572
167.123
165.177
164.089
161.695
163.527
163.341
165.333
164.638
165.952
164.247
165.003
164.48
164.789
165.324
165.733
166.374
166.642
170.639
171.314
169.995
169.073
169.025
170.172
170.964
173.021
171.942
169.663
169.945
168.994
167.931
165.919
165.202
168.83
164.329
165.489
169.443
171.169
170.763
173.394
173.899
175.782
175.617
176.137
174.082
171.815
172.407
172.976
170.264
169.978
169.664
166.468
168.694
169.814
171.069
170.846
168.682
170.6
173.012
172.873
169.66
171.877
169.141
168.937
170.087
167.494
171.853
173.19
173.571
171.809
168.843
168.106
170.607
167.959
167.387
169.366
172.617
173.585
171.296
171.067
171.486
171.407
168.814
169.024
166.77
167.759
169.786
169.145
170.573
169.516
171.461
172.569
169.998
169.58
169.941
170.638
169.732
173.745
174.138
173.421
174.959
175.047
176.908
172.733
171.389
172.168
169.702
169.234
171.05
169.283
171.917
171.171
168.434
171.623
169.906
165.302
166.951
165.438
164.169
164.026
164.037
167.457
167.119
168.432
168.84
168.762
167.127
165.834
165.299
167.318
170.459
171.445
169.853
171.031
170.436
172.191
171.892
171.395
169.98
170.502
171.936
172.198
173.838
175.16
174.372
175.426
174.701
174.968
172.892
171.1
171.534
173.09
171.297
170.666
168.001
166.088
169.52
169.708
169.578
171.479
167.029
166.885
168.38
165.331
166.535
169.309
168.12
168.862
168.511
168.989
169.128
170.081
169.929
169.773
169.713
171.195
168.735
168.114
171.315
168.682
169.971
171.316
167.924
167.906
165.166
165.864
169.267
167.486
169.453
171.856
170.672
171.649
168.369
168.711
170.714
171.945
173.18
172.658
170.993
171.224
172.064
169.396
170.274
167.774
168.595
167.184
167.759
166.011
166.442
166.309
164.559
163.795
164.84
166.375
167.008
166.627
167.037
165.558
167.835
167.733
167.05
170.534
170.118
167.167
167.515
167.329
165.621
167.306
167.948
168.191
167.274
169.324
167.35
168.038
167.974
167.193
165.766
166.629
166.533
163.352
164.799
165.041
160.443
159.694
161.991
162.035
160.423
161.069
161.211
163.003
161.892
162.289
164.218
162.182
163.413
162.376
163.378
161.46
160.231
158.108
155.981
155.581
153.138
152.456
155.384
155.755
152.486
153.203
154.137
152.367
153.336
152.367
154.022
152.046
149.553
147.367
146.451
146.646
148.181
148.406
146.941
147.002
144.926
143.066
143.477
143.209
141.895
142.857
143.304
141.019
138.854
137.641
138.116
139.174
136.706
136.46
133.744
130.493
131.7
130.76
128.512
130.05
127.589
125.091
124.77
123.373
123.922
122.274
120.247
118.928
118.863
118.398
117.014
116.035
113.988
112.552
110.918
110.985
107.317
103.317
103.937
102.546
101.351
100.238
96.9392
95.0083
93.0592
91.5072
90.4769
89.2122
87.4378
85.5214
84.0361
81.6919
76.7975
74.1717
70.5836
65.7694
60.2144
)
;

boundaryField
{
    sides
    {
        type            calculated;
        value           nonuniform List<scalar> 2(60.2144 18.2094);
    }
    empty
    {
        type            empty;
    }
}


// ************************************************************************* //
