/*--------------------------------*- C++ -*----------------------------------*\
  =========                 |
  \\      /  F ield         | OpenFOAM: The Open Source CFD Toolbox
   \\    /   O peration     | Website:  https://openfoam.org
    \\  /    A nd           | Version:  7
     \\/     M anipulation  |
\*---------------------------------------------------------------------------*/
FoamFile
{
    version     2.0;
    format      ascii;
    class       volVectorField;
    location    "0.0036";
    object      momentum;
}
// * * * * * * * * * * * * * * * * * * * * * * * * * * * * * * * * * * * * * //

dimensions      [1 -2 -1 0 0 0 0];

internalField   nonuniform List<vector> 
1000
(
(-0.000421427 9.71448e-05 -0.000108009)
(-0.000613096 0.000133477 -9.81774e-05)
(-0.00126434 -0.000108598 -0.000169546)
(-0.000783781 0.00011693 0.000149788)
(-0.000773744 3.22624e-05 -3.07827e-05)
(-0.000547912 -6.01164e-06 -3.3985e-05)
(-0.000693703 0.000100379 0.000155769)
(-0.000915517 -8.60881e-05 -8.52438e-05)
(-0.00105155 -2.6162e-05 -9.23305e-05)
(-0.000622897 0.000226257 7.31815e-05)
(-0.000477642 9.17304e-05 1.42481e-05)
(-0.000681501 -0.00010836 6.71437e-05)
(-0.0010258 -7.07863e-05 -5.27747e-05)
(-0.000700272 9.40586e-05 0.000225521)
(-0.000706879 -7.82723e-05 0.000198065)
(-0.000572704 6.92501e-05 -0.00010944)
(-0.000625746 0.000171825 -5.02212e-05)
(-0.000527851 4.31028e-05 -3.56464e-05)
(-0.000827805 -0.000153146 0.000122409)
(-0.000589891 0.000136527 0.000143858)
(-0.000688593 -8.38902e-05 -0.000235931)
(-0.000506271 0.000145489 8.85405e-05)
(-0.000638493 -1.88525e-05 -0.000101782)
(-0.000688946 -4.76081e-05 0.000147022)
(-0.000840921 -1.90644e-05 2.35775e-05)
(-0.000983559 3.18114e-05 0.000253296)
(-0.000427653 -0.000134606 -0.000147036)
(-0.00072764 0.000108512 -8.0513e-05)
(-0.000979124 -0.000234371 8.10072e-05)
(-0.000640828 5.31949e-05 -4.85975e-05)
(-0.000496581 6.85911e-05 9.2283e-05)
(-0.000693542 -0.00028755 1.58224e-05)
(-0.000582357 9.48433e-05 -2.63577e-05)
(-0.000601324 5.86937e-05 -9.47197e-05)
(-0.00040586 -9.60422e-08 0.000185033)
(-0.000428398 8.29322e-05 -0.000113294)
(-0.000756383 -0.000137135 0.000158811)
(-0.00048724 -7.19045e-05 -0.000114211)
(-0.000765599 6.4409e-05 -3.01989e-05)
(-0.000510533 1.79941e-05 6.16709e-05)
(-0.000685851 -0.000131347 -0.000344366)
(-0.000552904 -0.000115901 -0.000142942)
(-0.000425685 6.63582e-05 0.00014198)
(-0.000605043 7.99813e-05 -0.000124215)
(-0.00047365 -8.81973e-05 3.48215e-06)
(-0.000649309 0.000144098 -0.000168091)
(-0.000518795 0.000209217 -0.000108105)
(-0.000337585 -0.000160561 0.00037998)
(-0.000495906 -0.000246164 8.16681e-05)
(-0.00101933 0.000251202 0.000348843)
(-0.000291448 0.000118877 4.67596e-05)
(-0.0006524 -5.8433e-05 0.000225222)
(-0.000655059 -2.22255e-05 0.000107532)
(-0.000454484 -8.21185e-06 8.67756e-05)
(-0.000873742 5.24892e-05 -4.41826e-05)
(-0.000866713 0.000122102 2.9837e-05)
(-0.000923825 0.000277849 -1.15692e-05)
(-0.000562353 -6.5932e-06 -0.000141935)
(-0.000830154 -2.53298e-05 0.000361433)
(-0.000321024 -0.000197457 2.88718e-07)
(-0.000507193 1.87006e-05 -4.2874e-05)
(-0.000400086 -0.000164514 0.000319727)
(-0.000550755 -0.000172872 -0.000167191)
(-0.000458802 0.00024756 0.000182729)
(-0.000566439 0.000205894 -5.89518e-05)
(-0.000734196 -0.000158508 1.29234e-05)
(-0.00064152 0.000150609 -3.09227e-07)
(-9.71398e-05 -0.000355597 7.62018e-05)
(-0.000341522 0.00043349 0.000103985)
(-0.00058968 3.44455e-05 8.60959e-05)
(-0.000634174 -9.85051e-05 -7.66394e-05)
(-0.000632361 8.93842e-06 0.000341726)
(-0.000515422 6.6449e-05 8.77749e-05)
(-0.000370688 -0.000126219 -0.000155574)
(-0.000688173 1.73429e-05 6.18607e-05)
(-0.000791367 0.000334097 -8.62652e-05)
(-0.000381061 -5.61997e-05 2.37542e-05)
(-0.000765631 -8.46978e-05 0.000103542)
(-0.000718712 0.000141455 -2.43918e-07)
(-0.000546724 -0.000157603 -2.34274e-06)
(-0.000451445 -0.000140994 0.000126776)
(-0.000561307 -3.80396e-06 2.83041e-05)
(-0.000266687 5.26523e-05 -0.000230741)
(-0.0001548 -0.000129903 0.000190434)
(-0.000516018 -0.000121533 -8.7149e-06)
(-0.000620926 0.000252954 -0.000160297)
(-0.000610707 9.11865e-05 -0.000103078)
(-0.000431414 -0.000330245 0.000483807)
(-0.000515965 0.000247466 -2.18046e-05)
(-0.000634473 -0.000205989 0.000136248)
(-0.000493997 -0.000532281 0.000205503)
(-0.000297159 -0.000101257 0.000108948)
(-7.86645e-05 8.10933e-05 0.000185565)
(-0.000432893 -0.000103575 -8.36458e-05)
(-0.000444146 -2.71358e-05 2.91554e-05)
(-0.000201613 -3.01072e-05 0.000127094)
(-0.000171041 5.37973e-05 0.000221942)
(-0.000237642 1.39068e-05 2.41452e-05)
(2.60733e-06 0.000147294 -0.000325356)
(-0.000392332 -0.000191308 0.000203309)
(-0.000358926 1.73211e-05 0.000333677)
(1.25813e-05 -0.000368146 -3.23126e-05)
(-0.00045847 5.50114e-05 7.69612e-05)
(-8.27144e-05 0.000315085 -9.74393e-05)
(-0.000476464 -0.000255024 0.000271163)
(-3.10831e-05 2.6399e-05 -0.000153449)
(-0.000228548 1.16596e-05 -0.000345815)
(-0.000440663 7.78576e-05 -0.000354919)
(-0.000168592 0.000333777 -2.84865e-05)
(-0.000169526 -5.98051e-05 -7.29002e-05)
(-0.000116677 -4.82399e-05 -0.000130835)
(-0.000659578 0.000140137 0.000240941)
(9.06557e-06 -0.000195978 -7.60582e-05)
(-0.000274321 0.000226405 0.000158603)
(-0.000177419 -0.000109777 2.11922e-05)
(-9.81063e-05 -0.000191426 -0.000112511)
(-3.59981e-05 -0.000107391 0.000328697)
(-0.000160257 0.00020268 -7.31982e-05)
(0.000120475 -0.000131781 0.000190559)
(-0.000336426 -0.000438322 0.000186484)
(3.2253e-05 -0.000180879 -0.000545026)
(0.000494493 -4.01086e-05 5.80398e-05)
(-0.000242962 0.000309917 0.000137075)
(-0.000286952 0.000527372 -7.80834e-05)
(-0.000216781 1.4971e-05 0.000364058)
(-0.000503267 1.28539e-05 2.90417e-05)
(1.39269e-05 -0.000139025 -0.000530476)
(-0.000329015 0.000274597 0.000190435)
(5.6937e-05 0.000364446 6.38637e-05)
(-0.000188954 -0.000291319 -6.43698e-05)
(-0.00016946 7.43255e-05 1.23293e-05)
(-0.000179092 0.000228799 0.00046758)
(-0.000374158 0.000286197 6.91115e-05)
(3.31759e-05 -0.000122715 -0.000133177)
(-0.000283219 0.000188207 4.95224e-05)
(5.72647e-05 5.86404e-05 -1.5548e-05)
(-8.29854e-05 0.000236653 -0.000495744)
(0.000146148 0.000416615 0.000280076)
(7.82724e-05 -1.96666e-05 5.056e-05)
(-0.000533821 -0.000105525 -0.000341703)
(0.000153518 2.62477e-05 -0.000165983)
(-0.000125657 -0.000202038 -0.000106656)
(-0.000237918 0.000167143 0.000120472)
(-0.000535163 -2.04292e-05 -0.000247418)
(-6.2167e-05 -5.45101e-05 0.000269203)
(0.000176383 -0.000113459 -0.000215742)
(0.000115889 4.28758e-05 0.000333444)
(-8.68951e-05 3.40102e-05 0.00014786)
(-0.000222998 -0.000218876 -0.000254227)
(-9.13961e-05 -0.000247585 -4.44076e-06)
(-0.000131851 0.000174354 5.74111e-05)
(0.000360743 -0.000742121 4.14035e-05)
(-0.000329961 -8.07756e-05 -0.000120546)
(-5.39813e-05 -4.12859e-05 -0.000356867)
(-0.000151696 0.000166185 7.71949e-05)
(-0.00026958 2.11527e-05 0.000110393)
(0.000164692 -6.99879e-05 7.71265e-05)
(0.000164123 7.20642e-05 -0.000203847)
(9.28383e-07 -0.000536079 -0.000411588)
(-4.33283e-05 8.99317e-05 1.87423e-05)
(0.000384801 0.000374607 -0.000169838)
(0.000288421 9.30527e-05 0.000197663)
(-0.000373571 2.99081e-05 -0.000143551)
(-0.000201619 2.33863e-05 -0.000176225)
(0.000349537 3.92852e-05 -0.000121679)
(-0.000421037 -0.00029489 0.000380675)
(0.000154633 -1.47041e-05 4.92323e-05)
(-0.000244961 0.000193229 -0.000255576)
(-0.000234469 -0.00016661 -0.000336724)
(-0.000229295 -0.000362382 -0.000195437)
(-6.34595e-06 8.65699e-05 -0.000236819)
(-0.000635582 -1.75122e-05 9.96287e-05)
(-0.00012226 0.000698805 -2.91967e-05)
(-2.2957e-05 -5.38659e-05 0.000100433)
(0.000306923 -6.78434e-05 0.000294798)
(-0.000301279 -0.000162636 0.00041694)
(-0.000184178 0.000177937 -0.000559654)
(-0.000102907 0.000352889 0.000369953)
(-7.13636e-05 6.57113e-06 0.000158584)
(-0.000296029 -0.000253273 0.000465193)
(2.10506e-05 2.12887e-05 -0.000117623)
(0.00028405 0.000273662 1.96774e-05)
(-0.000182641 0.000272956 0.00030224)
(0.000318608 5.33205e-05 0.000102026)
(0.000631523 0.000314731 -6.31085e-05)
(-0.000141405 0.000489542 0.000358035)
(3.89226e-05 -9.72394e-05 -0.000155368)
(-0.000476606 0.00011132 0.000253257)
(0.000418419 -5.52197e-05 -0.000168634)
(-0.00042343 -9.15676e-05 0.000247078)
(7.40673e-05 0.000239914 3.20444e-05)
(0.000301718 -3.648e-05 0.000253796)
(-5.13952e-05 -0.000145622 5.29535e-05)
(-0.000451139 -0.000417504 0.00032027)
(-0.000136105 0.000194798 0.000303846)
(-0.000192108 6.38162e-05 0.000209025)
(8.89767e-05 -9.37268e-05 9.87525e-05)
(-0.000140227 -7.69066e-05 4.14979e-05)
(-3.41729e-05 0.000184848 -0.00021447)
(0.000302494 -0.000100495 2.77405e-05)
(-4.13282e-05 -9.76456e-05 7.78146e-05)
(-0.000221919 5.54019e-05 1.39683e-05)
(3.27573e-05 3.77233e-05 0.00013095)
(0.000108009 1.55486e-05 -0.000125345)
(-2.83142e-05 0.000127263 2.99613e-05)
(-0.000108867 -1.40951e-05 5.83578e-05)
(9.71029e-07 -0.000293252 0.000122323)
(-0.000434028 7.45456e-05 8.06615e-05)
(-0.000201618 9.1507e-05 -0.000351154)
(0.000137843 0.000534936 0.00019308)
(-0.000352506 -0.000313873 3.49399e-05)
(0.000135785 0.000241479 0.000294087)
(-0.000570513 0.000316594 0.000199179)
(0.000249603 -0.00011012 -0.00021097)
(0.000183402 0.000222225 -4.90469e-07)
(-0.000560033 -9.68837e-06 -0.000259781)
(0.000264145 0.000440412 6.15682e-05)
(9.7002e-05 0.000400217 0.000242719)
(0.000155037 -6.02332e-05 3.59891e-05)
(-0.000426338 -0.000162504 4.76264e-05)
(-0.000284847 0.000142526 0.000103214)
(7.53195e-05 0.000371377 4.4213e-05)
(0.000228585 -0.000689507 1.67683e-05)
(0.000374214 5.16241e-05 0.000243596)
(0.000106978 -0.000127354 3.23229e-06)
(0.000138143 -8.5696e-05 -0.000185724)
(-6.24004e-05 6.83445e-05 -0.000284101)
(-0.000278349 -0.000225041 0.000165683)
(-0.000496567 -3.1283e-05 -0.000105663)
(-0.000508133 5.2494e-05 0.000194438)
(5.12656e-05 2.01559e-05 5.82656e-05)
(0.000411437 -5.0741e-05 -0.000419801)
(-0.000150444 -9.74033e-05 7.45774e-05)
(0.000114703 0.000144624 -0.000145725)
(8.01232e-05 -0.000241903 -0.000213244)
(-0.00027293 0.000241793 0.000443389)
(-0.000324483 0.000160075 7.16625e-05)
(1.25319e-05 -0.00035039 0.00013004)
(-6.3839e-05 -0.000176227 -1.21997e-05)
(0.000198969 -1.80384e-05 0.000178872)
(0.000299022 0.000252348 -0.000281796)
(-7.5102e-05 5.21545e-05 0.000107236)
(0.000454292 -0.000159958 0.000137763)
(0.000313553 1.69255e-05 0.000276313)
(-0.000245566 0.000244076 -0.000206224)
(0.000243689 -8.53524e-05 -3.7818e-05)
(8.39914e-05 0.00039065 0.000211065)
(-0.000148877 4.17312e-06 -0.000138883)
(7.72668e-05 8.60981e-05 -4.2019e-06)
(-0.000229337 -0.000227635 -8.42862e-05)
(-1.69943e-05 0.000233997 -8.73234e-06)
(0.000280369 -0.000142336 5.95242e-05)
(-2.16072e-05 0.000159071 0.000626409)
(-0.000525654 -9.10489e-05 0.000295276)
(0.000120944 6.2879e-05 -6.73161e-05)
(9.07808e-05 -2.43159e-05 -0.000406949)
(-0.000181703 0.000184279 0.000275262)
(0.000171961 0.00017791 -5.39798e-07)
(0.000152941 -9.25048e-05 0.00022449)
(-0.000278886 -0.000282658 -6.57922e-05)
(-0.000286372 -0.000237727 4.27842e-05)
(0.000368521 -0.000303123 -0.000328119)
(-0.000182963 -0.000225809 -0.000212197)
(-5.59033e-05 -0.000204473 -4.20551e-05)
(-0.000204558 -3.44292e-05 5.36596e-05)
(0.000119919 -6.16385e-05 -0.000248337)
(-0.000305698 0.000123279 0.000379751)
(-0.000296885 -0.000134253 -0.000329299)
(-0.000193518 0.000108797 0.000218746)
(6.77995e-05 1.5907e-05 -2.01386e-05)
(0.000644112 -0.000174165 0.000114611)
(-0.000289062 -1.98642e-05 -0.000501604)
(-0.000111228 0.000146739 -0.000240007)
(-8.91965e-05 -0.000293424 9.74456e-05)
(0.000134688 -0.000104114 0.000207365)
(-0.000353492 -8.75495e-05 -5.99663e-05)
(0.0001797 0.000220714 5.82337e-06)
(-0.00050273 -1.24827e-05 -0.00040435)
(-1.78987e-05 0.000224366 -0.000158496)
(-0.0001583 -6.86519e-05 -4.03305e-05)
(0.000931917 -1.45555e-05 0.000294482)
(0.000192058 0.000355784 0.000778007)
(0.000395133 -4.66242e-05 -0.000358854)
(-0.000148339 -0.000191611 0.000180891)
(3.5808e-05 0.000157479 -0.000116491)
(-0.000411354 -0.000183216 -0.000231555)
(-3.95231e-05 -0.000283185 5.53893e-05)
(4.5695e-05 -0.000183551 -0.000447908)
(-6.50307e-05 0.000509711 -2.45218e-06)
(-0.000485778 0.000291408 -1.34339e-05)
(-0.000161948 -0.00048843 -2.98661e-05)
(0.000194939 3.50164e-05 -3.59914e-05)
(-0.000177071 -7.00112e-05 -0.000209622)
(0.000204366 -0.000153925 -0.00013444)
(-0.000209296 -0.000123271 -2.35659e-05)
(0.000382453 0.000211648 0.00011948)
(-2.22386e-05 0.000204658 1.07562e-05)
(0.000289701 0.000189841 -1.87858e-05)
(-4.85226e-05 0.000283539 -4.15792e-05)
(-0.000463977 -0.000206204 -0.000174513)
(0.000392435 6.82879e-06 -2.71501e-05)
(-0.000122237 4.03428e-05 -9.04407e-05)
(0.000434608 -0.000516561 4.77651e-05)
(-0.000168939 7.91127e-05 3.09563e-05)
(-0.000483062 0.000107114 0.000296646)
(-6.11128e-05 -0.000250081 -0.000590459)
(-0.000144401 -0.000160863 -3.08451e-05)
(3.195e-05 -0.000224842 0.000271189)
(-0.000101082 -0.000414864 -0.000187517)
(0.00011074 5.48432e-06 1.17058e-05)
(-1.61706e-05 -0.000731136 0.00047364)
(0.000387303 8.05557e-05 -0.000164501)
(-0.00018346 -0.000241047 0.000293793)
(0.000102522 0.000139224 -0.000139229)
(0.00066503 -6.42565e-05 0.000306612)
(-5.68615e-05 0.000137878 -0.000201465)
(5.84979e-06 -0.00054158 -0.00037041)
(-0.000165373 -0.000214333 0.000411469)
(-0.000327064 -3.76038e-05 0.000110302)
(6.17693e-05 -0.000163842 -0.000356058)
(0.000134927 6.86123e-05 3.44299e-05)
(3.10826e-05 -4.51283e-05 -0.000307391)
(0.000517521 -0.000233097 1.90573e-05)
(8.7042e-05 -0.000156241 -0.000301782)
(1.2535e-05 0.000462419 -2.0923e-06)
(-0.000338291 0.000107041 -0.000419554)
(4.53962e-05 0.000206095 -8.50243e-05)
(-7.17594e-05 3.37015e-06 0.000230034)
(-0.000275195 -0.000143534 7.60745e-05)
(-0.000326574 4.80856e-05 0.000257444)
(5.38678e-05 -0.00035399 0.000236719)
(-0.000913547 -0.000188464 4.58871e-05)
(-1.50999e-05 -0.000234754 4.65247e-05)
(-0.000606699 -0.000240636 -0.000461211)
(-0.000441068 3.09299e-06 -0.00063731)
(-0.00085456 6.69189e-05 -6.76585e-05)
(-0.00080909 0.000183499 -9.5409e-05)
(-0.000853693 -2.10563e-06 -0.000164239)
(-0.000305501 -0.000232224 0.000392892)
(-0.000319323 -0.000259999 -0.000279431)
(-0.000442374 0.00013431 0.000634103)
(-0.00172831 0.00040579 2.96356e-05)
(-0.00146234 0.00068405 0.000244246)
(-0.00151597 -0.000122001 -0.000212903)
(-0.0016225 0.00030861 5.60166e-05)
(-0.000639925 -3.53702e-05 -0.00013074)
(-0.000862654 -0.000245695 0.000272727)
(-0.00120123 0.000253401 -0.000288547)
(-0.00169099 -0.000235598 -0.000192184)
(-0.00135527 -0.000623414 -9.49513e-05)
(-0.000838491 0.000855087 0.000439098)
(-0.00132402 2.93152e-05 -0.000272956)
(-0.00156596 0.000229819 0.000428601)
(-0.00136294 -4.80842e-06 -0.000137068)
(-0.00137626 -0.000110473 0.000167226)
(-0.00119384 -0.000645651 2.54493e-05)
(-0.00121473 4.48155e-05 -0.000103144)
(-0.000859351 0.000353755 -8.73837e-05)
(-0.00159508 -0.000145973 0.000380079)
(-0.00124405 9.74443e-05 -1.53728e-07)
(-0.00154832 0.000837831 0.000110535)
(-0.000809738 -0.000174744 2.8839e-06)
(-0.00101472 -0.000186683 0.00018975)
(-0.00127386 0.000498721 0.000107438)
(-0.00160939 5.83285e-05 0.000179805)
(-0.00154302 8.07739e-05 -8.56301e-05)
(-0.00110765 0.000111933 0.00051416)
(-0.00160972 -0.000150282 -0.000130696)
(-0.00134203 0.000427358 -0.000186567)
(-0.00124428 -0.00104967 0.000686587)
(-0.00120473 0.000348686 -0.00035397)
(-0.00120299 -0.000701177 0.000128291)
(-0.00191628 -0.000346647 -6.44852e-05)
(-0.00193926 0.000549527 0.000124068)
(-0.00219643 -0.000217672 0.00022076)
(-0.00111231 0.000128567 -0.000149566)
(-0.00160407 -0.000129329 0.000194056)
(-0.00154964 -0.000206981 0.000168451)
(-0.00149059 -5.12222e-05 -0.000182403)
(-0.000998813 0.000330161 7.0226e-05)
(-0.00106849 -7.73361e-05 -0.000288721)
(-0.00163868 -0.000366276 0.000534266)
(-0.00160623 2.0411e-05 2.02615e-05)
(-0.0019264 -0.00026326 0.000329048)
(-0.00111266 -0.000528909 3.66623e-05)
(-0.00160502 1.17847e-05 -0.000224696)
(-0.00190779 0.000326533 8.85953e-05)
(-0.00142625 -1.86285e-06 0.000796041)
(-0.00135204 0.000131987 3.77171e-05)
(-0.00149645 0.000114293 -0.000307332)
(-0.00116419 0.000367274 -0.000380842)
(-0.00125079 -0.000364955 -0.000264532)
(-0.000943332 -0.000388824 -0.000282023)
(-0.0010422 0.00032064 0.000113268)
(-0.00149289 -0.000340817 0.000170688)
(-0.000964657 -0.000715937 0.000233804)
(-0.00141044 0.000663256 -0.000177083)
(-0.000808745 -0.000143609 0.000469354)
(-0.00139762 0.000111781 -0.000304936)
(-0.00112739 0.000168184 0.0002088)
(-0.00214097 -0.000411986 0.000678563)
(-0.00108553 0.000775847 -0.000137431)
(-0.00166463 0.000284308 -0.000238606)
(-0.00149244 -0.000216851 -7.59748e-05)
(-0.001554 0.000334163 -0.000296955)
(-0.00068998 0.000287007 0.00054466)
(-0.00125676 0.000574862 -0.000681878)
(-0.00158381 -0.000154225 0.000275012)
(-0.00131668 0.000208732 2.52708e-05)
(-0.00132495 5.06972e-05 0.000372849)
(-0.000944971 3.78151e-05 3.11384e-05)
(-0.00148808 3.74866e-05 -0.000628189)
(-0.0011056 -0.000344403 0.000297195)
(-0.00217613 -0.000177148 9.77454e-05)
(-0.00112749 3.23533e-05 -6.42187e-05)
(-0.00183693 -0.000205009 5.06639e-05)
(-0.00101113 -0.00018479 2.9739e-05)
(-0.00104718 0.000300674 0.000148066)
(-0.00204826 -0.000289182 -6.4328e-05)
(-0.00147555 0.000402191 -0.00042195)
(-0.00115332 0.000142491 0.000295758)
(-0.00113433 -0.000222485 1.27505e-05)
(-0.00123414 0.000513401 0.000633356)
(-0.00113525 3.25118e-06 3.89702e-05)
(-0.00172864 0.000317205 0.000330279)
(-0.00128235 -7.95918e-05 7.91153e-05)
(-0.00121281 0.000640114 0.000277981)
(-0.00144705 -0.000188367 -8.37803e-05)
(-0.00103966 -0.000815304 -0.000313048)
(-0.00155152 0.000136592 -0.000122824)
(-0.0013214 -0.000436137 -5.47394e-05)
(-0.00137261 -0.000258571 0.000484223)
(-0.00162036 -0.000476813 -0.000170586)
(-0.00103348 0.000328873 4.61396e-05)
(-0.00203488 -9.23034e-05 0.000305759)
(-0.00153531 0.000560453 0.000308872)
(-0.00168333 0.000614651 9.65633e-06)
(-0.00111421 0.00015212 -0.000259262)
(-0.00129013 -0.000125944 0.000506659)
(-0.00124669 0.000230419 0.000318251)
(-0.0015486 -0.000308354 -2.21027e-05)
(-0.00180534 0.000275312 0.000220018)
(-0.0013893 0.000154123 -0.00047188)
(-0.00209293 0.000384788 -0.000618875)
(-0.00158135 -0.000503279 -0.000332749)
(-0.00129198 -0.000496334 -0.000420224)
(-0.00162908 3.12544e-05 8.17455e-05)
(-0.001715 -6.65463e-05 -0.000158583)
(-0.00120229 5.19383e-05 0.000260159)
(-0.00160664 -2.06071e-05 -0.000239947)
(-0.0023457 -4.18757e-05 0.000311391)
(-0.00129402 9.56622e-05 0.000383868)
(-0.00143561 0.000200112 -0.000475235)
(-0.00237345 -0.000131206 2.94852e-05)
(-0.00129883 9.35394e-05 -6.59055e-05)
(-0.00208345 0.000123261 -0.000156568)
(-0.00187014 0.000323586 -0.000103703)
(-0.00175052 8.45235e-05 -6.82111e-05)
(-0.00208327 -0.000274748 -4.14036e-05)
(-0.00186611 -0.000698435 -0.000402869)
(-0.00196079 -0.000432615 -0.000271908)
(-0.00144152 -0.000294765 -0.000133412)
(-0.00144873 -0.000416768 0.00056123)
(-0.00259653 0.00041738 3.23488e-05)
(-0.00185284 -3.22729e-05 -0.000264853)
(-0.00230233 -0.000747527 3.54657e-05)
(-0.00165178 0.00019416 0.000219102)
(-0.00177311 -1.53743e-05 -0.000401452)
(-0.00196525 -4.42048e-05 -0.000215406)
(-0.00229567 -0.000640149 -0.000415915)
(-0.00117201 -8.21435e-05 0.000151267)
(-0.00168572 -0.000326862 6.02613e-05)
(-0.00194612 0.000291652 -7.36023e-05)
(-0.00187693 0.000344609 0.000263869)
(-0.00208004 -0.000671228 0.000244474)
(-0.00149005 0.00021171 -2.95969e-05)
(-0.00154519 0.000443098 -1.74604e-05)
(-0.00217875 0.00051405 0.00020209)
(-0.00228071 -0.000312288 0.000272419)
(-0.00234345 0.000328029 0.000451643)
(-0.00193216 4.87555e-05 -0.000292213)
(-0.0017773 -0.000194986 -0.00048479)
(-0.00170034 0.000624652 3.31321e-06)
(-0.00216439 -0.00024896 -6.08935e-05)
(-0.00151746 0.000148921 0.000165154)
(-0.00198173 -0.00027167 -0.000171704)
(-0.00134081 -8.32427e-05 0.000222311)
(-0.00205498 -0.000601155 0.000144009)
(-0.00189301 -8.31724e-06 0.00014623)
(-0.00177612 -0.000591697 9.41438e-05)
(-0.00196358 0.000598824 -0.000591768)
(-0.00160875 -4.22485e-05 -0.000234687)
(-0.00138917 8.46678e-05 -0.00021803)
(-0.00191889 0.000168361 1.36656e-05)
(-0.00200438 -0.000146706 -0.000142384)
(-0.00226963 -0.000731408 -0.000129337)
(-0.00216881 3.94161e-05 -5.81952e-05)
(-0.00130657 -0.000560306 9.26308e-05)
(-0.0018393 0.000116543 9.1303e-05)
(-0.00134305 0.000284731 -0.000255542)
(-0.00233823 -0.000293016 -3.5273e-05)
(-0.0014876 3.74659e-06 -0.000332665)
(-0.00244828 0.000415465 -0.000152723)
(-0.00233758 -0.000468172 2.24731e-05)
(-0.00171589 0.000140624 0.000319196)
(-0.00202621 -0.000197596 0.00060351)
(-0.00160024 -9.52203e-05 9.194e-05)
(-0.00121882 -0.000137682 -0.000192378)
(-0.00223216 0.000381385 -0.000168581)
(-0.00167252 0.000293432 0.000212891)
(-0.00213547 -6.87053e-06 -7.25363e-05)
(-0.00152474 -0.000556775 -0.000377969)
(-0.00237254 -0.000127785 0.000207412)
(-0.00201054 -0.000314605 -0.000226177)
(-0.00212019 0.000628304 0.000180497)
(-0.000944552 0.00026961 0.000330135)
(-0.00224977 0.000147122 -0.000114555)
(-0.00189963 0.000359818 3.55721e-05)
(-0.00180628 0.00017809 0.000206396)
(-0.00253051 -0.000640898 0.000241454)
(-0.00177351 0.0002779 -0.000244492)
(-0.0014983 0.000220512 0.000259068)
(-0.00199473 -8.71852e-05 -0.000730965)
(-0.00191224 -0.000304397 -0.000319904)
(-0.00155267 -0.000271156 -0.000367092)
(-0.00247164 -0.000195527 0.000441407)
(-0.00193118 0.000345812 0.000591578)
(-0.00204272 -8.33585e-05 0.000367864)
(-0.00142498 0.00041867 -0.000315899)
(-0.00213654 0.000521716 -0.000242864)
(-0.00186124 -0.000422408 -7.79691e-05)
(-0.00179327 -0.000674655 -0.00026439)
(-0.00201666 7.65152e-06 0.000438627)
(-0.00185572 3.71627e-05 0.000244072)
(-0.00156222 0.00040539 -0.000302269)
(-0.00169518 0.000202066 0.000114248)
(-0.00185944 -0.000545551 0.000541595)
(-0.00212694 0.000223276 -0.000311302)
(-0.0019681 -0.000290957 6.20551e-05)
(-0.00204808 6.18841e-05 3.87405e-05)
(-0.001437 0.00075603 0.000215392)
(-0.00169663 0.000349717 0.000467514)
(-0.00230912 0.000463291 -0.000527361)
(-0.00124881 -0.000261016 0.00060153)
(-0.00180017 0.000347456 -0.000125688)
(-0.00238221 -0.000589904 -1.42831e-05)
(-0.00170369 -9.62471e-05 -5.28737e-05)
(-0.00181744 0.000725712 -1.13526e-05)
(-0.00173524 -0.000463357 5.14063e-05)
(-0.00171769 -4.55199e-05 0.000442344)
(-0.00204003 -0.000163791 2.65265e-05)
(-0.0019805 -2.53879e-05 0.000554498)
(-0.0015396 0.000103676 0.000410519)
(-0.00190306 0.000199519 -0.000201896)
(-0.00119342 0.000786237 -0.000526037)
(-0.00189925 -0.000291641 0.000499701)
(-0.00144697 -3.7386e-05 0.000490264)
(-0.00173607 -0.000587883 -1.02272e-05)
(-0.00200613 6.12324e-06 0.000276536)
(-0.00175941 0.000286199 -0.000653937)
(-0.00190495 0.000118527 0.000322865)
(-0.00139183 -0.000531778 0.000446047)
(-0.00125627 -0.000107679 -0.000160773)
(-0.00136273 -0.000422235 0.000481606)
(-0.00165393 0.000138833 0.000157172)
(-0.00135251 0.000293602 -0.000131999)
(-0.00176283 0.000255243 -0.000110437)
(-0.00165934 -1.81658e-05 -0.000724689)
(-0.00156383 -5.43023e-05 0.000154958)
(-0.00199467 0.00043822 5.92718e-05)
(-0.00188706 0.000256523 -0.000865871)
(-0.00119977 -0.000619529 -6.46972e-05)
(-0.00193912 -0.000324151 0.000407163)
(-0.00081653 -1.35047e-05 -0.000372835)
(-0.000735477 -0.000252428 0.000576673)
(-0.00130327 -7.72685e-05 -0.000408396)
(-0.00153675 0.000554812 -0.000372175)
(-0.00227879 0.000756346 5.73264e-05)
(-0.00137199 -5.96077e-05 0.000164192)
(-0.00167586 -6.09307e-05 -0.000665364)
(-0.00121428 0.000218232 -9.2987e-05)
(-0.0015421 0.000284322 -0.000102405)
(-0.00177947 -0.000525898 -0.000145461)
(-0.00161602 -0.000194493 5.5823e-06)
(-0.0013061 -0.000474629 -9.57333e-05)
(-0.00106427 0.000220625 -0.00027257)
(-0.00148979 -2.14679e-05 3.99708e-05)
(-0.00104035 -0.000685175 -7.21745e-05)
(-0.00138232 0.000447012 -0.000792076)
(-0.00122916 0.000154755 0.000736972)
(-0.00120036 0.000478157 -6.34209e-06)
(-0.000823623 0.00021307 -0.0013197)
(-0.00132209 0.000374223 0.000241733)
(-0.00134456 2.29645e-05 -0.00142858)
(-0.000409188 3.40521e-05 0.000397416)
(-0.0017521 0.000109997 0.000383282)
(-0.00060059 -0.000106768 6.27727e-05)
(-0.000904841 0.000118887 7.66675e-05)
(-0.000990088 -3.51233e-05 0.000837711)
(-0.000988015 -0.000453805 9.04778e-05)
(-0.000904123 3.90227e-05 -0.000396056)
(-0.000655287 -0.000139655 0.000752077)
(-0.00089864 0.000644635 0.00012495)
(-0.00136327 0.000108852 0.00027645)
(-0.0015657 6.20464e-05 0.000153697)
(-0.00090756 4.12183e-05 0.000317418)
(-0.00113372 0.00024993 0.000316952)
(-0.000547874 -0.000118644 0.000211082)
(-0.000827741 -0.000237713 0.000401355)
(-0.000561762 0.000265297 -0.000184319)
(-0.000601769 -0.000447666 0.000647177)
(-0.000617997 -0.000102129 -0.0010781)
(-0.000563012 0.000757035 -0.000477203)
(-0.000874705 -0.000342538 9.2645e-05)
(-0.000585873 0.000379868 -0.00047356)
(-0.000583948 0.000153301 0.00077859)
(-0.000560764 0.000397141 0.000216285)
(-0.000697894 -0.00119658 -0.000265271)
(-0.000233755 -0.000124229 0.000154062)
(-0.000252403 0.000769748 -0.00103362)
(-0.000958225 0.00051449 0.000101377)
(-0.000226364 -0.00034348 -0.000775695)
(-0.000798434 -0.000970469 -0.000466074)
(9.86418e-05 -0.000189759 0.000175803)
(-7.28634e-05 -9.20771e-06 -2.64446e-05)
(-0.000723795 -0.000234271 0.000266252)
(-0.00053369 -0.000207798 0.00018721)
(1.99689e-05 0.000179609 0.000635706)
(-0.000681238 -0.000167575 0.000188019)
(0.000174615 -0.000437742 0.000204048)
(-0.000726501 0.000174262 -6.30259e-05)
(-0.000255777 -0.000142737 0.000268588)
(-0.000104732 0.000109726 0.000260837)
(-0.000166918 0.000330369 0.000482693)
(-0.000445455 0.00022598 -0.000288884)
(0.000392339 0.000954102 -4.34034e-05)
(-7.86053e-05 -0.000147164 -0.000371537)
(0.000976926 3.62613e-06 -0.000882252)
(0.000478644 2.69492e-05 -0.000438257)
(-0.000179845 -0.000440019 0.000739526)
(0.000161263 -1.13926e-05 -0.000451654)
(0.000117971 -0.000173731 -0.000289328)
(-0.000244373 0.000189412 -0.000129863)
(-0.000488979 8.89385e-05 -0.000292558)
(8.40426e-06 0.000128685 0.000159161)
(0.000109614 0.000427439 -0.00121311)
(1.79572e-05 -0.000686807 -0.00011294)
(0.000334143 -0.000264486 0.000340914)
(0.000136703 -0.000239254 -6.76603e-05)
(0.000227419 0.000627558 -0.000458303)
(7.9374e-05 7.20974e-05 0.000192576)
(0.000329056 -1.26745e-05 -0.00062857)
(-0.000668838 -0.00034233 0.00129071)
(0.000176335 -0.000249233 -5.97911e-05)
(0.000606114 -0.000378348 0.000769461)
(0.000194719 9.60822e-05 0.000401756)
(-0.000674349 0.000657069 4.71871e-05)
(-0.000182104 -8.13803e-05 -0.00016233)
(-0.00126826 -0.000807148 -0.00015577)
(0.000190501 -9.30246e-05 0.000584466)
(-0.000212211 -0.000195303 0.000600777)
(0.000178885 0.000352186 -0.000215011)
(0.000192989 0.000789269 0.00019202)
(0.000229125 -0.000104141 0.000546081)
(0.000357269 0.000106259 0.000335582)
(0.000433033 0.000155891 -0.000426908)
(-0.000184453 2.15053e-05 -0.000311294)
(-0.0016387 -0.000273019 0.000121665)
(-0.000102451 -0.000132168 -3.70156e-05)
(-0.000383021 -0.000586145 -6.93887e-05)
(0.000210496 0.000812045 -0.000508856)
(0.000206709 0.000308715 0.000194105)
(0.000181351 -9.0753e-05 -0.00014485)
(-0.000110771 0.000419513 -5.89795e-05)
(0.000190179 0.000121961 6.73937e-05)
(-0.000450002 -0.000461842 -0.000282803)
(-0.000176169 -0.000657672 -0.000260563)
(0.0001038 -0.000543242 7.05857e-05)
(-0.000168087 -0.00011939 -0.000143151)
(0.00122476 -0.00038173 -0.000151037)
(0.000641177 0.000122003 -0.000814091)
(0.00038045 -7.26316e-05 0.000576527)
(-0.000351598 0.000241509 0.000327755)
(-0.00033711 4.35006e-05 0.000332717)
(-4.74544e-05 0.000450125 -0.000296372)
(-0.000556277 -0.000119422 -8.8575e-05)
(-0.000449185 0.000519977 0.000335307)
(-0.000351577 0.000156242 -0.000300939)
(0.000447884 -0.000444575 0.000150494)
(-0.000378155 0.000158474 -0.000582653)
(0.000416685 4.89301e-05 0.000295461)
(-0.000352167 -0.000247628 0.000536926)
(-0.000334175 0.000492347 0.000275685)
(-0.000253936 7.50295e-05 -0.000370678)
(-8.16317e-05 3.19895e-05 -0.000487803)
(0.000498126 -0.00011569 -0.000215237)
(0.00024724 0.000629731 -0.000193441)
(5.94835e-05 0.000331661 1.62671e-05)
(-0.000150014 0.000626331 -0.000286544)
(-9.77876e-05 0.000635968 -0.000610598)
(-3.6863e-05 0.000163847 0.00028482)
(-0.000166209 -0.00043836 -0.000351982)
(0.000398029 0.000173849 0.00105636)
(4.29295e-05 -0.00040256 0.000253348)
(0.000302612 7.60342e-05 -0.000203267)
(-0.000429024 -0.000502246 -0.000792089)
(-0.00037611 -0.000433575 -0.000167505)
(-4.97127e-05 0.000689298 -0.000760639)
(-8.28251e-05 0.000560663 -0.00103904)
(-0.000126634 -0.000433188 -0.000509999)
(-0.0001565 -0.00022325 0.00195562)
(-0.000526155 -0.000305342 0.000439869)
(0.000113172 0.000304199 -0.000377372)
(-0.000105863 -0.000508197 -0.000145016)
(0.000138425 0.000171815 0.000922965)
(0.000717994 -0.000315259 0.000197766)
(0.000110081 -0.000292029 5.17174e-05)
(-0.00170856 3.07143e-06 0.000339534)
(9.38596e-05 -0.00010664 0.00027091)
(-9.49505e-05 -5.2155e-06 -0.000635734)
(0.000193915 -0.000212003 -8.66698e-05)
(-0.000621344 -0.000756906 0.000181147)
(0.000270224 -0.000803293 0.000365457)
(-0.000833718 0.000196919 9.60546e-05)
(0.000737078 -0.000624294 0.00075384)
(0.00091575 0.000953283 -0.000598417)
(-0.000164323 9.36177e-07 0.000327886)
(-0.00113369 0.000933311 1.17205e-05)
(0.000720584 -0.000369243 0.000161053)
(-5.15048e-05 -0.000660585 -0.000389082)
(0.000770912 2.88954e-05 -1.02879e-05)
(-4.1022e-05 0.000476837 0.00053785)
(5.51215e-06 5.78702e-05 0.000253228)
(-9.27082e-05 0.000681787 3.46628e-05)
(0.000434939 0.000369878 0.000291626)
(-0.00073073 5.9271e-05 2.1012e-05)
(-0.000177696 0.000343384 -0.000295007)
(0.000247268 0.000596039 0.000281657)
(9.73202e-05 0.000972274 -7.55262e-05)
(-0.00045674 0.000280878 0.000414216)
(-8.08071e-05 -0.000655175 -0.000625616)
(-1.43274e-05 -0.000879374 -0.000388215)
(0.000155192 0.000404897 -0.000288032)
(-0.000174733 -0.000163751 4.9498e-05)
(-0.000336719 0.00032018 -3.38616e-05)
(-0.000472329 -3.59219e-05 0.000209139)
(8.07064e-05 -0.000235941 -0.00019503)
(0.000177004 -5.6607e-05 -0.000286063)
(-4.05089e-05 -0.000257222 -0.000619108)