/*--------------------------------*- C++ -*----------------------------------*\
  =========                 |
  \\      /  F ield         | OpenFOAM: The Open Source CFD Toolbox
   \\    /   O peration     | Website:  https://openfoam.org
    \\  /    A nd           | Version:  7
     \\/     M anipulation  |
\*---------------------------------------------------------------------------*/
FoamFile
{
    version     2.0;
    format      ascii;
    class       volScalarField;
    location    "0.0036";
    object      rhoMMean;
}
// * * * * * * * * * * * * * * * * * * * * * * * * * * * * * * * * * * * * * //

dimensions      [1 -3 0 0 0 0 0];

internalField   nonuniform List<scalar> 
1000
(
2.11685e-06
2.29106e-06
2.38729e-06
2.58934e-06
2.5326e-06
2.70265e-06
2.88558e-06
2.93928e-06
2.97778e-06
3.09064e-06
3.20243e-06
3.22561e-06
3.1952e-06
3.40929e-06
3.51343e-06
3.69216e-06
3.66097e-06
3.68238e-06
3.64515e-06
3.6321e-06
3.75404e-06
3.71603e-06
3.73066e-06
3.93316e-06
4.02755e-06
4.08696e-06
4.07611e-06
4.23137e-06
4.04912e-06
4.15419e-06
4.09287e-06
4.11596e-06
4.21439e-06
4.28701e-06
4.35866e-06
4.41866e-06
4.42832e-06
4.47617e-06
4.31223e-06
4.40329e-06
4.4951e-06
4.46281e-06
4.53595e-06
4.59966e-06
4.51108e-06
4.57085e-06
4.56262e-06
4.73664e-06
4.60863e-06
4.49988e-06
4.61144e-06
4.58697e-06
4.6499e-06
4.60947e-06
4.73247e-06
4.71449e-06
4.70154e-06
4.8101e-06
4.86903e-06
4.89994e-06
4.76896e-06
4.94679e-06
5.04871e-06
5.24142e-06
5.16034e-06
5.14652e-06
5.1521e-06
5.02639e-06
5.05478e-06
5.13289e-06
5.15617e-06
5.19605e-06
5.32926e-06
5.17358e-06
5.3537e-06
5.28566e-06
5.35738e-06
5.39423e-06
5.52055e-06
5.43834e-06
5.57102e-06
5.43643e-06
5.42781e-06
5.31108e-06
5.36264e-06
5.25418e-06
5.2783e-06
5.25989e-06
5.37769e-06
5.26034e-06
5.44844e-06
5.48293e-06
5.49314e-06
5.47638e-06
5.35199e-06
5.49772e-06
5.44725e-06
5.47053e-06
5.25424e-06
5.22231e-06
5.36e-06
5.49362e-06
5.4456e-06
5.33781e-06
5.36723e-06
5.32512e-06
5.42361e-06
5.61074e-06
5.36642e-06
5.39006e-06
5.31224e-06
5.30097e-06
5.49475e-06
5.34608e-06
5.35451e-06
5.46643e-06
5.4148e-06
5.44838e-06
5.52446e-06
5.56101e-06
5.56912e-06
5.61307e-06
5.62537e-06
5.56376e-06
5.46727e-06
5.46143e-06
5.50147e-06
5.40346e-06
5.38896e-06
5.46856e-06
5.4993e-06
5.63402e-06
5.54525e-06
5.65747e-06
5.61242e-06
5.4178e-06
5.58481e-06
5.84037e-06
5.8879e-06
5.62983e-06
5.77866e-06
5.73022e-06
5.71014e-06
5.71333e-06
5.77956e-06
5.62954e-06
5.74114e-06
5.91641e-06
5.69828e-06
5.70684e-06
5.61058e-06
5.70649e-06
5.63586e-06
5.65876e-06
5.77059e-06
5.77204e-06
5.75024e-06
5.5406e-06
5.61542e-06
5.72383e-06
5.76183e-06
5.75273e-06
5.70949e-06
5.62837e-06
5.67968e-06
5.61785e-06
5.54513e-06
5.48816e-06
5.50489e-06
5.54835e-06
5.62233e-06
5.63247e-06
5.69654e-06
5.69257e-06
5.74633e-06
5.87101e-06
5.76322e-06
5.70768e-06
5.69932e-06
5.66903e-06
5.70561e-06
5.59857e-06
5.51128e-06
5.42597e-06
5.44476e-06
5.42868e-06
5.56108e-06
5.53114e-06
5.48442e-06
5.45984e-06
5.69628e-06
5.41893e-06
5.44848e-06
5.66079e-06
5.85425e-06
5.76129e-06
5.6834e-06
5.79852e-06
5.78909e-06
5.6566e-06
5.62498e-06
5.58846e-06
5.53105e-06
5.73303e-06
5.67862e-06
5.62569e-06
5.51519e-06
5.55187e-06
5.79119e-06
5.90104e-06
5.69163e-06
5.73429e-06
5.8063e-06
5.56786e-06
5.83459e-06
5.64636e-06
5.75121e-06
5.73245e-06
5.6202e-06
5.65269e-06
5.68463e-06
5.72638e-06
5.70229e-06
5.5313e-06
5.54038e-06
5.63913e-06
5.86736e-06
5.63389e-06
5.5532e-06
5.59443e-06
5.69011e-06
5.56276e-06
5.55814e-06
5.3041e-06
5.47399e-06
5.40811e-06
5.48974e-06
5.57664e-06
5.52804e-06
5.6958e-06
5.63396e-06
5.7856e-06
5.88454e-06
5.71617e-06
5.73981e-06
5.7144e-06
5.72754e-06
5.67807e-06
5.67106e-06
5.8725e-06
5.86362e-06
5.87227e-06
5.89714e-06
5.71411e-06
5.72728e-06
5.75279e-06
5.68143e-06
5.72932e-06
5.79761e-06
5.84631e-06
6.04959e-06
5.95093e-06
5.95778e-06
5.8414e-06
5.90586e-06
5.79936e-06
5.77947e-06
5.76975e-06
5.76132e-06
5.94751e-06
5.97467e-06
5.92242e-06
5.99337e-06
5.79264e-06
5.76103e-06
5.87421e-06
5.986e-06
5.95946e-06
5.9106e-06
6.00803e-06
5.88571e-06
5.88467e-06
5.79203e-06
5.73332e-06
5.71059e-06
5.68466e-06
5.55811e-06
5.7444e-06
5.60968e-06
5.70649e-06
5.77524e-06
5.77007e-06
5.79784e-06
5.70138e-06
5.69912e-06
5.75195e-06
5.86039e-06
5.80314e-06
5.70784e-06
5.61978e-06
5.62472e-06
5.73403e-06
5.55591e-06
5.5251e-06
5.548e-06
5.62227e-06
5.57571e-06
5.80672e-06
5.82813e-06
5.67297e-06
5.57154e-06
5.67439e-06
5.71688e-06
5.71259e-06
5.68889e-06
5.76271e-06
5.82842e-06
5.83259e-06
6.00473e-06
5.9086e-06
5.98284e-06
6.13545e-06
5.99424e-06
5.70758e-06
5.75744e-06
5.75134e-06
5.71401e-06
5.69728e-06
5.82794e-06
5.69247e-06
5.73258e-06
5.57813e-06
5.69589e-06
5.70959e-06
5.91548e-06
5.90124e-06
5.88499e-06
5.73971e-06
5.8612e-06
5.81935e-06
5.95394e-06
5.86074e-06
5.89678e-06
5.93175e-06
5.82393e-06
5.85429e-06
5.76742e-06
5.85425e-06
5.81508e-06
5.84224e-06
5.67788e-06
5.78896e-06
5.91467e-06
6.07145e-06
6.05704e-06
6.2217e-06
6.24304e-06
6.18101e-06
6.35933e-06
6.10819e-06
6.14604e-06
6.21569e-06
6.12499e-06
6.06186e-06
6.19558e-06
6.22616e-06
6.139e-06
6.25383e-06
6.43705e-06
6.31974e-06
6.2403e-06
6.32936e-06
6.29016e-06
6.26006e-06
6.40198e-06
6.12486e-06
6.16303e-06
6.17007e-06
6.12712e-06
6.17604e-06
6.22897e-06
6.45142e-06
6.45388e-06
6.46214e-06
6.30611e-06
6.34702e-06
6.32755e-06
6.47874e-06
6.4965e-06
6.38826e-06
6.43741e-06
6.60294e-06
6.59506e-06
6.62079e-06
6.70498e-06
6.63339e-06
6.66471e-06
6.54142e-06
6.58779e-06
6.47309e-06
6.61343e-06
6.47006e-06
6.65418e-06
6.90625e-06
6.95466e-06
6.74379e-06
6.80411e-06
6.95001e-06
7.04691e-06
6.98023e-06
7.00626e-06
7.11146e-06
7.05615e-06
7.06028e-06
7.01524e-06
6.99063e-06
6.96673e-06
7.07895e-06
7.1073e-06
7.24176e-06
7.0546e-06
7.22164e-06
7.31936e-06
7.36608e-06
7.47872e-06
7.57488e-06
7.46832e-06
7.44048e-06
7.35414e-06
7.42963e-06
7.5816e-06
7.52005e-06
7.42437e-06
7.57262e-06
7.78055e-06
7.69155e-06
7.59487e-06
7.80041e-06
7.61521e-06
7.53801e-06
7.33957e-06
7.45831e-06
7.74577e-06
7.76941e-06
7.85185e-06
7.94143e-06
8.10495e-06
8.19427e-06
7.96781e-06
7.9733e-06
8.0248e-06
8.04569e-06
8.23754e-06
8.44279e-06
8.43384e-06
8.66951e-06
8.69624e-06
8.67267e-06
8.51693e-06
8.74836e-06
8.80145e-06
8.94201e-06
9.13321e-06
9.29784e-06
9.26377e-06
9.33704e-06
9.20768e-06
9.53237e-06
9.60057e-06
9.5388e-06
9.7845e-06
9.89042e-06
9.76113e-06
9.97415e-06
1.0074e-05
1.021e-05
1.03325e-05
1.0313e-05
1.03418e-05
1.05163e-05
1.03476e-05
1.02666e-05
1.06737e-05
1.11082e-05
1.08969e-05
1.071e-05
1.09899e-05
1.10552e-05
1.11036e-05
1.13406e-05
1.1506e-05
1.14291e-05
1.16993e-05
1.18885e-05
1.20026e-05
1.19676e-05
1.2219e-05
1.19831e-05
1.22178e-05
1.24186e-05
1.25903e-05
1.2441e-05
1.25717e-05
1.28938e-05
1.30325e-05
1.32719e-05
1.31604e-05
1.33274e-05
1.34766e-05
1.35373e-05
1.36177e-05
1.36446e-05
1.35691e-05
1.36356e-05
1.3756e-05
1.36706e-05
1.38271e-05
1.39623e-05
1.41366e-05
1.41185e-05
1.42338e-05
1.41286e-05
1.43411e-05
1.45314e-05
1.50132e-05
1.48134e-05
1.4946e-05
1.51263e-05
1.50702e-05
1.49041e-05
1.5305e-05
1.50958e-05
1.50687e-05
1.51299e-05
1.50465e-05
1.51892e-05
1.56034e-05
1.58672e-05
1.56109e-05
1.5597e-05
1.61236e-05
1.626e-05
1.61348e-05
1.58864e-05
1.60191e-05
1.58689e-05
1.60017e-05
1.62868e-05
1.64089e-05
1.65344e-05
1.65467e-05
1.67384e-05
1.67878e-05
1.63614e-05
1.67299e-05
1.69599e-05
1.68253e-05
1.67032e-05
1.68654e-05
1.66806e-05
1.70629e-05
1.69914e-05
1.70439e-05
1.69861e-05
1.68568e-05
1.71457e-05
1.72816e-05
1.7487e-05
1.75359e-05
1.74774e-05
1.75982e-05
1.77877e-05
1.79398e-05
1.78581e-05
1.80243e-05
1.84131e-05
1.85101e-05
1.85508e-05
1.83167e-05
1.85798e-05
1.84403e-05
1.83287e-05
1.83043e-05
1.858e-05
1.85899e-05
1.86689e-05
1.84077e-05
1.84168e-05
1.86691e-05
1.87799e-05
1.88976e-05
1.90537e-05
1.90919e-05
1.91508e-05
1.92731e-05
1.88198e-05
1.90253e-05
1.91091e-05
1.87964e-05
1.90872e-05
1.92473e-05
1.89686e-05
1.90239e-05
1.89231e-05
1.90887e-05
1.89755e-05
1.95338e-05
1.96593e-05
1.94542e-05
1.95414e-05
1.93406e-05
1.93339e-05
1.91186e-05
1.9379e-05
1.96665e-05
1.95755e-05
1.94945e-05
1.96696e-05
1.96594e-05
1.97319e-05
1.95935e-05
1.93876e-05
1.96567e-05
1.94652e-05
1.99638e-05
1.9872e-05
1.96031e-05
1.94861e-05
1.95086e-05
1.96959e-05
1.97305e-05
1.97402e-05
1.96416e-05
1.95351e-05
1.9534e-05
1.96544e-05
1.9343e-05
1.94814e-05
1.95021e-05
1.93929e-05
1.9452e-05
1.95985e-05
1.96166e-05
1.95781e-05
1.92423e-05
1.9173e-05
1.95146e-05
1.9448e-05
1.92895e-05
1.96118e-05
1.95676e-05
1.95633e-05
1.93859e-05
1.94322e-05
1.92937e-05
1.92978e-05
1.93343e-05
1.95721e-05
1.96216e-05
1.96867e-05
1.97837e-05
1.92477e-05
1.9428e-05
1.92018e-05
1.90753e-05
1.8797e-05
1.901e-05
1.89884e-05
1.92199e-05
1.91391e-05
1.9292e-05
1.90937e-05
1.91816e-05
1.91208e-05
1.91568e-05
1.92189e-05
1.92665e-05
1.9341e-05
1.93721e-05
1.98368e-05
1.99153e-05
1.97619e-05
1.96547e-05
1.96491e-05
1.97825e-05
1.98745e-05
2.01137e-05
1.99883e-05
1.97234e-05
1.97561e-05
1.96455e-05
1.95219e-05
1.9288e-05
1.92047e-05
1.96265e-05
1.91033e-05
1.92381e-05
1.96978e-05
1.98984e-05
1.98512e-05
2.01571e-05
2.02158e-05
2.04347e-05
2.04154e-05
2.0476e-05
2.0237e-05
1.99735e-05
2.00423e-05
2.01084e-05
1.97932e-05
1.97599e-05
1.97235e-05
1.93519e-05
1.96106e-05
1.97409e-05
1.98867e-05
1.98608e-05
1.96092e-05
1.98323e-05
2.01127e-05
2.00965e-05
1.97229e-05
1.99808e-05
1.96626e-05
1.96389e-05
1.97726e-05
1.94711e-05
1.99779e-05
2.01333e-05
2.01776e-05
1.99728e-05
1.9628e-05
1.95423e-05
1.98331e-05
1.95252e-05
1.94587e-05
1.96888e-05
2.00668e-05
2.01793e-05
1.99132e-05
1.98865e-05
1.99353e-05
1.99261e-05
1.96247e-05
1.96491e-05
1.9387e-05
1.9502e-05
1.97377e-05
1.96631e-05
1.98291e-05
1.97063e-05
1.99324e-05
2.00612e-05
1.97623e-05
1.97137e-05
1.97556e-05
1.98367e-05
1.97313e-05
2.01978e-05
2.02435e-05
2.01602e-05
2.03389e-05
2.03492e-05
2.05656e-05
2.00803e-05
1.9924e-05
2.00145e-05
1.97279e-05
1.96735e-05
1.98846e-05
1.96792e-05
1.99854e-05
1.98986e-05
1.95805e-05
1.99511e-05
1.97515e-05
1.92164e-05
1.9408e-05
1.92322e-05
1.90847e-05
1.9068e-05
1.90694e-05
1.94669e-05
1.94276e-05
1.95802e-05
1.96277e-05
1.96186e-05
1.94286e-05
1.92782e-05
1.9216e-05
1.94507e-05
1.98159e-05
1.99305e-05
1.97454e-05
1.98823e-05
1.98132e-05
2.00172e-05
1.99825e-05
1.99247e-05
1.97602e-05
1.98209e-05
1.99875e-05
2.0018e-05
2.02086e-05
2.03624e-05
2.02707e-05
2.03933e-05
2.0309e-05
2.034e-05
2.00987e-05
1.98904e-05
1.99408e-05
2.01217e-05
1.99133e-05
1.98399e-05
1.95301e-05
1.93077e-05
1.97067e-05
1.97286e-05
1.97134e-05
1.99344e-05
1.94172e-05
1.94004e-05
1.95742e-05
1.92197e-05
1.93597e-05
1.96822e-05
1.9544e-05
1.96302e-05
1.95894e-05
1.9645e-05
1.96612e-05
1.97719e-05
1.97542e-05
1.97361e-05
1.97291e-05
1.99014e-05
1.96155e-05
1.95432e-05
1.99154e-05
1.96093e-05
1.97591e-05
1.99155e-05
1.95211e-05
1.95191e-05
1.92005e-05
1.92817e-05
1.96773e-05
1.94702e-05
1.96989e-05
1.99782e-05
1.98406e-05
1.99542e-05
1.95729e-05
1.96127e-05
1.98455e-05
1.99886e-05
2.01322e-05
2.00715e-05
1.9878e-05
1.99048e-05
2.00024e-05
1.96923e-05
1.97944e-05
1.95038e-05
1.95992e-05
1.94351e-05
1.9502e-05
1.92988e-05
1.93489e-05
1.93335e-05
1.913e-05
1.90412e-05
1.91626e-05
1.93411e-05
1.94147e-05
1.93704e-05
1.9418e-05
1.92461e-05
1.95108e-05
1.9499e-05
1.94195e-05
1.98246e-05
1.97762e-05
1.94332e-05
1.94736e-05
1.9452e-05
1.92534e-05
1.94493e-05
1.95239e-05
1.95522e-05
1.94456e-05
1.96839e-05
1.94544e-05
1.95344e-05
1.9527e-05
1.94361e-05
1.92703e-05
1.93706e-05
1.93595e-05
1.89897e-05
1.91579e-05
1.9186e-05
1.86515e-05
1.85644e-05
1.88314e-05
1.88365e-05
1.86491e-05
1.87243e-05
1.87407e-05
1.89491e-05
1.882e-05
1.88661e-05
1.90903e-05
1.88537e-05
1.89967e-05
1.88763e-05
1.89927e-05
1.87698e-05
1.86268e-05
1.83801e-05
1.81328e-05
1.80863e-05
1.78023e-05
1.77231e-05
1.80633e-05
1.81065e-05
1.77265e-05
1.78099e-05
1.79184e-05
1.77127e-05
1.78253e-05
1.77126e-05
1.7905e-05
1.76753e-05
1.73855e-05
1.71314e-05
1.70249e-05
1.70475e-05
1.7226e-05
1.72522e-05
1.70819e-05
1.7089e-05
1.68477e-05
1.66314e-05
1.66792e-05
1.66481e-05
1.64953e-05
1.66071e-05
1.66591e-05
1.63935e-05
1.61418e-05
1.60007e-05
1.6056e-05
1.6179e-05
1.5892e-05
1.58634e-05
1.55478e-05
1.51698e-05
1.53101e-05
1.52009e-05
1.49395e-05
1.51183e-05
1.48322e-05
1.45419e-05
1.45045e-05
1.43421e-05
1.44059e-05
1.42143e-05
1.39787e-05
1.38253e-05
1.38178e-05
1.37638e-05
1.36029e-05
1.34891e-05
1.32511e-05
1.30842e-05
1.28943e-05
1.2902e-05
1.24756e-05
1.20106e-05
1.20827e-05
1.1921e-05
1.17821e-05
1.16527e-05
1.12692e-05
1.10447e-05
1.08181e-05
1.06377e-05
1.05179e-05
1.03709e-05
1.01646e-05
9.94186e-06
9.7692e-06
9.49669e-06
8.92771e-06
8.62246e-06
8.20534e-06
7.6457e-06
6.99993e-06
)
;

boundaryField
{
    sides
    {
        type            calculated;
        value           nonuniform List<scalar> 2(6.99993e-06 2.11685e-06);
    }
    empty
    {
        type            empty;
    }
}


// ************************************************************************* //
