/*--------------------------------*- C++ -*----------------------------------*\
  =========                 |
  \\      /  F ield         | OpenFOAM: The Open Source CFD Toolbox
   \\    /   O peration     | Website:  https://openfoam.org
    \\  /    A nd           | Version:  7
     \\/     M anipulation  |
\*---------------------------------------------------------------------------*/
FoamFile
{
    version     2.0;
    format      ascii;
    class       volScalarField;
    location    "0.0036";
    object      translationalT;
}
// * * * * * * * * * * * * * * * * * * * * * * * * * * * * * * * * * * * * * //

dimensions      [1 2 -2 0 0 0 0];

internalField   nonuniform List<scalar> 
1000
(
188.686
200.874
208.718
220.466
229.44
227.743
230.389
236.979
241.707
241.46
244.969
245.059
247.778
245.132
252.28
246.883
249.247
251.229
250.595
255.502
255.786
261.721
263.964
257.281
251.652
256.892
259.673
264.692
272.945
269.204
273.882
276.518
270.652
272.096
264.93
267.482
261.351
264.306
263.653
269.102
270.361
274.21
271.61
276.87
275.819
277.131
278.134
280.426
276.122
273.073
279.271
283.451
283.493
288.176
286.228
284.455
286.544
287.324
278.816
281.941
281.788
281.263
281.254
284.128
280.195
281.173
286.52
289.062
284.76
279.056
286.454
286.097
281.442
285.647
284.519
292.084
289.005
281.455
280.199
279.675
274.813
283.704
282.315
289.723
288.317
295.184
292.688
300.254
300.613
300.528
296.267
295.467
298.183
298.511
302.853
298.197
301.842
301.064
298.856
298.484
297.065
295.348
299.565
298.839
299.287
302.03
300.124
295.899
299.355
296.457
309.432
307.205
301.69
306.279
305.679
301.106
302.892
291.591
290.023
295.787
294.807
297.097
295.724
296.307
295.221
292.386
297.104
301.438
305.033
299.363
300.849
296.822
299.058
296.34
297.302
301.05
294.516
287.088
294.27
299.556
294.502
294.299
292.437
293.467
289.791
292.53
294.526
286.006
298.027
298.464
302.401
291.427
292.468
289.838
294.184
294.233
292.645
295.401
295.912
295.431
292.571
295.617
294.473
297.967
296.912
306.284
301.909
306.373
303.932
301.038
298.101
305.017
296.078
292.439
293.319
291.16
293.78
292.424
288.542
292.732
299.306
302.362
305.764
311.709
316.425
308.962
309.523
309.253
307.74
300.614
298.354
302.587
299.237
296.511
291.362
297.969
287.188
289.325
289.074
291.408
297.757
301.611
295.755
291.865
295.881
293.549
299.019
297.359
296.893
291.664
296.582
303.47
304.518
307.664
294.334
304.038
302.314
299.399
301.015
299.096
300.784
304.705
303.865
298.792
305.283
304.311
299.644
299.196
304.633
300.798
304.247
306.46
308.601
314.547
314.624
323.727
319.649
317.938
309.863
309.794
309.782
301.965
294.938
300.393
301.062
299.306
303.859
302.512
306.554
302.642
297.146
299.861
293.899
301.513
296.085
305.45
307.105
305.823
307.17
302.333
294.042
296.606
305.288
305.131
294.228
297.361
303.787
310.537
311.099
297.592
294.007
296.221
292.212
294.019
294.587
292.38
292.82
295.069
291.891
290.518
292.192
294.517
298.296
303.19
302.994
300.271
304.406
300.351
306.103
303.662
302.63
298.147
301.338
299.551
308.353
302.782
301.819
298.232
302.098
307.887
305.68
303.283
306.212
308.47
304.862
302.741
305.123
299.133
298.389
302.831
306.958
302.001
300.877
298.996
298.446
296.846
293.56
289.492
289.444
291.216
294.92
286.022
296.254
303.11
297.555
292.443
295.413
300.357
297.247
304.775
304.306
304.343
302.616
295.555
294.89
298.825
299.154
305.42
304.423
305.809
299.925
305.907
303.863
303.109
304.853
298.95
307.846
306.29
310.862
312.537
319.999
314.785
310.313
309.862
313.9
309.42
306.989
310.181
302.466
306.88
312.022
310.005
309.788
317.259
314.278
323.093
322.879
319.279
319.25
322.732
319.044
319.747
319.451
320.852
317.274
331.522
329.082
335.708
337.425
341.37
336.08
321.77
324.012
327.781
328.736
335.225
339.283
336.876
337.675
343.261
338.295
338.082
340.315
349.178
335.04
338.112
337.492
336.71
340.22
338.334
335.213
342.004
345.92
341.142
333.888
342.709
341.83
330.948
338.054
339.121
335.141
342.103
337.703
335.558
341.87
346.47
342.943
342.235
343.978
340.831
345.289
338.058
333.326
331.186
334.958
330.932
337.599
339.158
344.657
335.2
338.5
341.231
337.079
335.457
335.036
339.962
340.196
339.842
340.835
344.972
350.435
346.809
338.328
336.995
341.182
339.089
327.881
326.19
330.516
338.995
336.257
335.893
330.09
323.307
319.645
320.048
319.112
319.022
319.901
319.213
317.424
309.938
312.699
310.254
307.543
307
302.083
298.971
298.495
297.357
292.032
292.075
295.218
294.019
292.001
288.476
285.23
284.948
283.884
284.052
286.957
289.478
282.584
275.729
277.264
277.773
277.217
272.047
271.782
270.77
268.35
267.111
266.713
261.243
260.178
258.272
254.288
255.166
251.232
254.151
254.743
252.626
257.27
255.796
256.153
257.568
259.013
260.225
258.15
259.173
260.353
260.007
264.862
263.711
267.224
267.051
268.163
264.183
269.917
270.903
268.857
274.627
270.312
268.605
266.749
271.087
270.706
268.211
270.612
274.118
275.362
277.252
277.559
280.082
280.062
279.764
279.309
276.103
277.991
283.573
276.305
273.207
278.811
280.841
283.098
285.363
284.551
281.946
281.539
281.751
281.324
281.304
284.36
284.812
286.057
283.675
283.311
289.108
285.718
290.971
289.14
289.168
290.236
290.44
295.921
294.452
291.027
292.717
290.702
291.91
291.647
291.483
291.164
292.459
289.935
285.438
285.494
287.525
287.851
285.777
289.015
289.881
291.792
288.714
292.029
291.721
293.981
295.74
291.081
290.02
289.123
290.869
291.177
290.35
289.046
291.892
290.138
290.229
294.996
295.066
292.785
294.517
297.534
293.525
295.135
296.615
292.507
291.073
293.121
291.266
295.008
296.361
296.576
294.84
291.96
293.908
296.01
293.948
293.523
293.537
294.374
297.514
298.618
298.452
290.928
292.909
293.495
297.738
296.634
293.72
293.43
293.7
296.086
296.95
295.837
294.996
299.5
295.247
295.602
298.226
298.676
297.091
292.645
292.68
295.779
296.34
298.081
300.209
298.177
296.411
296.37
297.291
298.576
298.246
302.58
302.828
298.528
295.13
296.407
295.731
295.72
301.01
301.248
302.074
305.178
307.677
304.756
306.361
302.66
301.681
302.228
306.964
305.133
306.956
305.771
303.467
305.685
302.61
298.727
297.292
295.138
297.4
298.652
298.169
295.404
293.976
293.327
295.52
299.052
297.23
299.278
300.887
301.121
303.294
299.409
306.243
304.066
302.659
300.008
297.068
294.7
292.638
291.199
291.501
288.695
290.438
293.786
295.723
296.36
298.471
296.499
297.541
301.637
300.56
302.238
297.885
298.956
303.982
298.284
293.675
293.383
296.507
298.356
300.649
300.017
298.503
302.273
297.897
296.113
293.526
296.678
299.767
300.661
301.659
300.318
303.25
302.362
297.564
295.32
297.646
301.696
299.269
298.249
302.867
301.882
305.133
302.648
301.942
299.957
297.048
299.213
296.596
298.166
300.315
298.717
300.336
298.564
298.624
295.635
292.114
295.565
291.757
292.208
294.278
296.585
300.352
301.21
302.191
302.16
301.29
300.903
300.817
302.738
304.032
297.515
300.835
307.906
309.299
310.458
310.039
313.405
310.357
309.734
305.749
302.436
304.615
300.01
305.807
308.523
309.354
308.752
301.55
300.566
302.927
302.113
301.071
298.523
295.947
299.268
300.622
300.509
298.017
298.904
296.198
296.767
296.777
294.14
297.902
296.231
298.935
300.698
301.075
298.038
297.576
300.187
304.701
307.354
302.367
302.4
300.945
299.557
302.933
307.557
306.414
307.019
307.649
306.606
306.816
307.232
303.892
303.691
302.304
301.569
304.164
301.844
300.381
307.247
304.442
302.675
303.428
303.467
302.11
301.613
304.439
305.25
304.939
306.853
306.282
305.783
303.785
298.424
299.056
297.87
302.738
300.595
299.361
297.679
294.047
294.606
298.777
298.941
298.764
300.955
304.256
302.207
301.133
305.182
304.542
306
307.223
306.069
308.176
311.949
311.126
306.959
307.459
305.668
304.252
303.577
304.299
306.554
303.898
298.996
298.369
302.144
299.968
299.606
299.515
299.331
298.493
297.892
301.009
297.357
298.533
296.167
294.942
294.529
294.174
298.166
297.052
298.447
297.529
299.281
301.965
304.41
301.892
304.295
306.929
302.819
298.923
297.842
297.357
296.568
292.525
293.269
290.925
289.94
288.931
290.069
290.612
296.054
294.083
295.455
298.83
301.411
293.923
293.455
295.845
294.753
289.425
291.236
288.829
289.541
285.722
287.668
290.308
292.189
291.277
291.925
287.327
287.328
286.185
281.718
284.542
285.89
281.684
283.604
283.577
281.72
283.019
284.903
284.736
281.031
279.827
276.672
278.599
275.295
277.337
278.655
280.051
279.404
280.858
279.051
278.223
275.596
275.561
278.927
277.397
271.12
272.596
273.029
269.012
268.787
266.391
264.73
266.964
270.303
267.208
264.072
267.061
266.5
262.736
263.714
259.98
259.393
259.373
257.561
252.572
253.261
250.334
243.951
237.371
235.391
234.745
232.488
228.263
220.112
214.655
205.585
192.992
)
;

boundaryField
{
    sides
    {
        type            calculated;
        value           nonuniform List<scalar> 2(192.992 188.686);
    }
    empty
    {
        type            empty;
    }
}


// ************************************************************************* //
