/*--------------------------------*- C++ -*----------------------------------*\
  =========                 |
  \\      /  F ield         | OpenFOAM: The Open Source CFD Toolbox
   \\    /   O peration     | Website:  https://openfoam.org
    \\  /    A nd           | Version:  7
     \\/     M anipulation  |
\*---------------------------------------------------------------------------*/
FoamFile
{
    version     2.0;
    format      ascii;
    class       volScalarField;
    location    "0.001";
    object      dsmcSigmaTcRMax;
}
// * * * * * * * * * * * * * * * * * * * * * * * * * * * * * * * * * * * * * //

dimensions      [0 3 -1 0 0 0 0];

internalField   nonuniform List<scalar> 
654
(
7.312072369e-16
7.456694877e-16
7.000714873e-16
7.024164796e-16
7.681799173e-16
7.666809331e-16
7.24111826e-16
7.500421677e-16
7.757725867e-16
7.558503676e-16
8.008335997e-16
7.361891361e-16
7.431670714e-16
7.876884868e-16
7.872683509e-16
7.492347103e-16
7.458772534e-16
7.934735455e-16
6.862139569e-16
7.539991578e-16
7.171764389e-16
6.885234225e-16
7.777765945e-16
7.281008358e-16
7.276156383e-16
6.83932393e-16
7.383455811e-16
7.469838874e-16
7.246087077e-16
7.725744434e-16
7.42144078e-16
7.255241654e-16
7.33080406e-16
7.412769457e-16
7.513252674e-16
7.092848416e-16
7.469610911e-16
7.344508361e-16
7.873895743e-16
7.08509406e-16
7.150930084e-16
7.400195603e-16
7.882609572e-16
7.179526195e-16
7.00767597e-16
7.330944466e-16
6.881737868e-16
7.863313642e-16
6.892619633e-16
7.129826876e-16
6.90454615e-16
6.951224157e-16
7.625561938e-16
7.221304372e-16
7.373688605e-16
7.246304088e-16
6.297178739e-16
7.181776504e-16
6.539811228e-16
7.009396064e-16
6.274130539e-16
7.497649924e-16
6.681683691e-16
7.671778879e-16
6.506580598e-16
6.842159602e-16
6.729299902e-16
6.665481548e-16
7.424412175e-16
7.195680409e-16
7.729257804e-16
6.696877254e-16
7.309127745e-16
7.001415091e-16
6.913365865e-16
7.088145878e-16
7.067328126e-16
7.584409795e-16
7.565390115e-16
8.053331575e-16
7.47468985e-16
7.647261181e-16
7.535152935e-16
7.705265703e-16
5.731211678e-16
5.754712875e-16
8.198927468e-16
6.516647207e-16
6.452250539e-16
6.499117606e-16
6.822753658e-16
5.953299472e-16
6.940841987e-16
6.358887317e-16
6.557587426e-16
6.868767572e-16
6.267137516e-16
6.900401244e-16
8.140850437e-16
7.577024116e-16
6.889910089e-16
7.704177342e-16
6.848747213e-16
6.743916358e-16
6.857134272e-16
7.201113851e-16
7.264545782e-16
7.007993314e-16
7.19953912e-16
7.493270096e-16
7.524892916e-16
7.8451081e-16
7.120344715e-16
7.399584077e-16
6.151585509e-16
5.836897928e-16
5.905334688e-16
5.804768947e-16
6.859646757e-16
6.926761523e-16
7.640661221e-16
7.362759295e-16
7.103633627e-16
6.791291498e-16
6.315437037e-16
7.368557566e-16
7.08688903e-16
6.898177551e-16
7.814902786e-16
7.171212407e-16
7.735538363e-16
6.900803349e-16
7.137249965e-16
7.031341216e-16
7.346140821e-16
7.401184946e-16
6.917919412e-16
7.388361337e-16
6.879414616e-16
6.828921573e-16
7.0969765e-16
6.819992969e-16
7.458967768e-16
7.775406164e-16
6.450929533e-16
6.491876238e-16
5.773016044e-16
6.91259798e-16
6.171774625e-16
7.781608874e-16
6.507900039e-16
6.164088468e-16
6.027866149e-16
6.559289244e-16
6.873463949e-16
6.451867964e-16
6.638239548e-16
6.854322753e-16
6.932460245e-16
6.284293386e-16
6.364311018e-16
7.347283263e-16
6.584113289e-16
7.126083888e-16
6.852887902e-16
7.914434637e-16
7.244495006e-16
7.040123904e-16
7.349553013e-16
7.034895038e-16
6.752271103e-16
6.857136811e-16
7.518208296e-16
7.769730639e-16
5.146340994e-16
5.914086813e-16
5.711656117e-16
6.540513718e-16
5.603291308e-16
6.420427715e-16
7.213254995e-16
6.591287006e-16
6.681500029e-16
6.250314188e-16
6.160118669e-16
7.071723239e-16
6.49148729e-16
6.331278379e-16
6.91023463e-16
7.168308647e-16
6.75113744e-16
6.610403685e-16
6.789231988e-16
6.497828452e-16
6.899402486e-16
7.190121094e-16
7.062053801e-16
7.627980981e-16
7.211393853e-16
6.713881466e-16
7.308410474e-16
7.135401217e-16
7.477269208e-16
7.304324207e-16
6.082990428e-16
6.171927657e-16
6.491808203e-16
5.729858703e-16
5.528514322e-16
5.9147285e-16
5.25568854e-16
6.687205244e-16
5.600871157e-16
6.577761246e-16
6.393232728e-16
6.356070877e-16
6.119268045e-16
7.135729519e-16
6.266333483e-16
6.154460861e-16
7.086310347e-16
7.233292703e-16
6.873430137e-16
6.722462397e-16
6.796114659e-16
7.143290055e-16
6.307953926e-16
6.779923554e-16
6.727020161e-16
7.196396961e-16
6.929577574e-16
6.857977322e-16
6.824270866e-16
6.729007634e-16
5.801000179e-16
6.740671206e-16
6.265683936e-16
5.540504675e-16
5.748097141e-16
5.45863841e-16
6.562393088e-16
6.288842255e-16
6.141344437e-16
6.170975919e-16
6.493371935e-16
6.614728418e-16
6.008338556e-16
6.650041195e-16
6.109449958e-16
6.340885508e-16
7.040379474e-16
6.4064745e-16
6.383750226e-16
6.317274557e-16
6.680198965e-16
6.499142727e-16
6.708531191e-16
7.215093371e-16
6.548650212e-16
6.829549936e-16
7.21029323e-16
7.006889547e-16
7.018506763e-16
7.494827849e-16
5.52214375e-16
5.918718274e-16
5.326736751e-16
5.436604074e-16
5.629481275e-16
5.34004038e-16
6.020433829e-16
5.701834098e-16
5.692901857e-16
6.74652793e-16
5.424824416e-16
6.960210058e-16
7.20111291e-16
6.438864732e-16
6.619472917e-16
6.050417104e-16
6.965195529e-16
6.231709267e-16
6.381808276e-16
7.029874059e-16
6.864037321e-16
6.315673924e-16
6.081410585e-16
6.965573647e-16
7.282620872e-16
7.423903118e-16
6.310717219e-16
6.780925895e-16
7.421645227e-16
7.375697723e-16
5.82865932e-16
5.155520544e-16
5.754461278e-16
6.774685958e-16
5.834671819e-16
5.28302295e-16
6.009865181e-16
6.226746854e-16
6.498802791e-16
6.227364869e-16
5.890715701e-16
6.77444347e-16
6.434678156e-16
6.306484437e-16
7.73492286e-16
6.729863808e-16
6.149483031e-16
6.485757372e-16
6.396148805e-16
6.058804331e-16
5.940278962e-16
5.845779858e-16
6.606361038e-16
7.288786513e-16
6.905129154e-16
6.7126864e-16
7.07570414e-16
6.397215213e-16
6.763041311e-16
7.47063558e-16
6.058201155e-16
6.763847728e-16
6.367784625e-16
5.316412183e-16
5.822886579e-16
7.052156782e-16
6.77430196e-16
5.964617419e-16
5.534885291e-16
5.537583046e-16
5.995198987e-16
5.374854788e-16
6.245420251e-16
6.67336111e-16
6.411456953e-16
6.257702604e-16
5.810579732e-16
6.253945537e-16
6.584249174e-16
5.742636354e-16
5.851026638e-16
7.224046905e-16
6.52416527e-16
5.797437437e-16
5.79857658e-16
5.959670534e-16
6.71189736e-16
6.520251383e-16
6.960875677e-16
6.748027967e-16
6.226837646e-16
5.649111893e-16
5.511525491e-16
5.543181926e-16
5.665427457e-16
5.765101984e-16
5.869022231e-16
6.441361521e-16
6.013143984e-16
5.583280853e-16
5.831720975e-16
6.388324735e-16
5.917931939e-16
5.958831565e-16
6.023919598e-16
6.19269757e-16
6.036039698e-16
5.747924224e-16
6.168129538e-16
6.353532103e-16
6.917986172e-16
5.667108652e-16
6.691120025e-16
6.146853727e-16
6.415356271e-16
6.942332713e-16
6.780533466e-16
6.189916771e-16
6.890179793e-16
6.540171962e-16
6.503084226e-16
5.973032971e-16
5.756398203e-16
6.151479018e-16
5.871525598e-16
6.02700352e-16
5.525430651e-16
5.377178422e-16
5.905434566e-16
5.771743868e-16
5.47194842e-16
5.859056109e-16
6.047553568e-16
5.593134744e-16
5.617412649e-16
6.589745827e-16
5.88592291e-16
5.626764271e-16
7.261662799e-16
6.53323624e-16
6.784664246e-16
5.40493235e-16
6.527345642e-16
6.207894927e-16
6.441570919e-16
6.482321668e-16
6.547594617e-16
6.290920792e-16
6.406179898e-16
6.63876833e-16
5.424599836e-16
6.029756728e-16
6.025715792e-16
5.635512711e-16
6.274567908e-16
5.828819385e-16
5.399120782e-16
5.318255623e-16
6.033262406e-16
5.802589621e-16
5.907036767e-16
5.87198939e-16
6.148370482e-16
6.793951632e-16
5.830240566e-16
6.376208515e-16
5.875798775e-16
6.324824751e-16
6.759853357e-16
6.396638845e-16
5.780601325e-16
6.927712954e-16
6.572515812e-16
5.981002186e-16
6.361192056e-16
7.624075869e-16
6.17729675e-16
6.908773704e-16
5.844380171e-16
6.630123712e-16
5.465810384e-16
5.146572296e-16
5.309888218e-16
5.545128233e-16
5.782353402e-16
6.039470542e-16
5.63536491e-16
5.537800934e-16
6.439054488e-16
6.05128505e-16
6.05128505e-16
5.792439914e-16
5.865964935e-16
5.851603464e-16
5.657910931e-16
5.16308346e-16
5.51468446e-16
5.488205268e-16
5.555043949e-16
6.37785835e-16
6.376481271e-16
6.454421384e-16
5.968258496e-16
6.00775859e-16
5.575711908e-16
6.818399054e-16
6.097963484e-16
8.01768591e-16
6.354115176e-16
6.761201096e-16
5.855847358e-16
5.71462284e-16
5.786408022e-16
5.737755051e-16
6.072367474e-16
5.62458918e-16
5.781954797e-16
5.503006306e-16
5.381125686e-16
5.740761396e-16
5.909138718e-16
5.733640621e-16
6.318735515e-16
6.016026673e-16
6.986455146e-16
5.717568946e-16
5.717568946e-16
7.090323594e-16
5.755897159e-16
6.084065555e-16
6.150425127e-16
5.965708939e-16
6.489121742e-16
5.932768654e-16
5.056754642e-16
6.739402572e-16
6.459349497e-16
6.270279464e-16
6.586585314e-16
5.736815756e-16
5.5436482e-16
5.555058329e-16
5.408129453e-16
5.871504808e-16
5.8803823e-16
5.565856538e-16
6.223224223e-16
5.681926827e-16
6.232692736e-16
5.3542957e-16
5.408129453e-16
5.71048252e-16
5.573881016e-16
5.937407888e-16
5.453983992e-16
5.523674677e-16
5.832775889e-16
5.771970599e-16
5.376166359e-16
5.992394514e-16
6.597243246e-16
6.274201794e-16
5.378239256e-16
5.499491089e-16
6.343325113e-16
6.44221797e-16
5.74541331e-16
6.267332756e-16
6.124835958e-16
6.872122576e-16
5.295141703e-16
6.001106323e-16
6.493655572e-16
5.232702426e-16
5.271041597e-16
6.179788312e-16
5.19851475e-16
5.245654165e-16
5.525810777e-16
5.27351242e-16
5.723669615e-16
6.457689012e-16
6.129761551e-16
5.691508375e-16
5.852668708e-16
5.460430863e-16
5.645646831e-16
5.713451639e-16
6.045548603e-16
5.254694359e-16
6.885624411e-16
5.90551863e-16
5.454683343e-16
5.275118548e-16
5.438976196e-16
6.454939452e-16
6.162067134e-16
6.327554268e-16
5.92114526e-16
6.538516749e-16
5.581388395e-16
5.139212698e-16
5.249873587e-16
5.446110597e-16
5.773170801e-16
5.790817534e-16
5.71065829e-16
5.836977131e-16
6.121536536e-16
5.456782308e-16
6.012302569e-16
5.663325087e-16
5.462827893e-16
5.374057852e-16
5.139088613e-16
5.523479973e-16
5.759023722e-16
6.394538676e-16
5.640533249e-16
6.196862106e-16
5.991183486e-16
5.105549749e-16
6.17422309e-16
6.201831469e-16
6.527309001e-16
6.135982891e-16
5.960785103e-16
6.252784682e-16
6.410533403e-16
5.686559768e-16
5.458580874e-16
5.770804739e-16
5.68853551e-16
5.68853551e-16
5.352386572e-16
5.720047115e-16
6.000162929e-16
5.634886613e-16
6.062138234e-16
6.630244225e-16
5.522278194e-16
5.330047447e-16
5.633382594e-16
5.401040238e-16
6.067797379e-16
5.617263535e-16
5.874258725e-16
5.555899088e-16
5.506664626e-16
5.820144676e-16
5.750243709e-16
5.634986059e-16
6.106211321e-16
5.763395121e-16
5.998015922e-16
5.759391898e-16
6.92617475e-16
6.609141574e-16
5.929611722e-16
6.056206e-16
5.856911042e-16
5.481783678e-16
5.628702942e-16
5.56812788e-16
5.164468918e-16
5.299117656e-16
5.615536656e-16
6.741753811e-16
5.71421707e-16
5.774647171e-16
5.627277474e-16
6.09740794e-16
6.164951025e-16
5.720628732e-16
6.105766175e-16
5.742287078e-16
5.603692864e-16
5.432986963e-16
5.636117715e-16
5.451161273e-16
5.77526876e-16
6.603740594e-16
5.904093757e-16
6.387834097e-16
5.600670538e-16
5.357174105e-16
5.607272211e-16
6.188444261e-16
6.51217982e-16
6.47704188e-16
)
;

boundaryField
{
    flow
    {
        type            zeroGradient;
    }
    obstacle
    {
        type            zeroGradient;
    }
    frontAndBack
    {
        type            empty;
    }
    procBoundary3to1
    {
        type            processor;
        value           nonuniform List<scalar> 
36
(
7.339058656e-16
7.590275999e-16
7.877351737e-16
7.159256392e-16
7.239655349e-16
7.22811519e-16
7.22811519e-16
7.270232503e-16
7.685737407e-16
7.646402985e-16
7.193826295e-16
7.405558615e-16
7.405558615e-16
7.754961232e-16
6.935847058e-16
7.290836633e-16
7.360341142e-16
7.724615793e-16
7.724615793e-16
7.510390455e-16
7.752193287e-16
7.25478046e-16
6.793245878e-16
6.987480316e-16
7.856591858e-16
7.856591858e-16
6.225547863e-16
5.723435309e-16
7.632512121e-16
7.17731303e-16
6.944744905e-16
6.995984207e-16
6.995984207e-16
6.238433129e-16
5.685351419e-16
5.685351419e-16
)
;
    }
    procBoundary3to2
    {
        type            processor;
        value           nonuniform List<scalar> 
19
(
5.751716958e-16
6.493726346e-16
6.262341273e-16
5.774411574e-16
5.76818009e-16
6.061862085e-16
5.5188833e-16
5.64174163e-16
6.3154921e-16
5.7460559e-16
5.504061039e-16
6.064381457e-16
5.516466525e-16
6.082992099e-16
5.577102138e-16
5.850364258e-16
6.276323297e-16
5.380863462e-16
5.621146017e-16
)
;
    }
}


// ************************************************************************* //
