/*--------------------------------*- C++ -*----------------------------------*\
  =========                 |
  \\      /  F ield         | OpenFOAM: The Open Source CFD Toolbox
   \\    /   O peration     | Website:  https://openfoam.org
    \\  /    A nd           | Version:  7
     \\/     M anipulation  |
\*---------------------------------------------------------------------------*/
FoamFile
{
    version     2.0;
    format      ascii;
    class       volScalarField;
    location    "0.001";
    object      dsmcRhoNMean;
}
// * * * * * * * * * * * * * * * * * * * * * * * * * * * * * * * * * * * * * //

dimensions      [0 -3 0 0 0 0 0];

internalField   nonuniform List<scalar> 
654
(
14.592
14.65
14.508
14.806
14.574
14.89
14.684
12.954
13.034
13.116
13.474
13.906
14.554
14.47
14.52
14.586
14.448
14.408
10.482
10.71
10.802
11.336
11.686
12.22
12.826
13.164
13.49
13.512
13.822
14.086
14.206
14.27
14.124
13.938
9.34
9.394
9.38
9.46
9.566
9.614
9.852
10.23
10.614
10.6
11.092
11.364
11.984
12.278
12.598
13.016
13.08
13.37
13.502
13.55
13.742
13.64
8.78
8.788
8.882
8.926
8.824
8.776
8.894
8.846
8.886
9.202
9.098
9.202
9.364
9.474
9.832
10
10.426
10.524
10.902
11.52
11.964
11.972
12.494
12.58
12.954
13.214
13.48
13.792
8.996
8.888
9.036
8.844
8.62
8.578
8.678
8.836
8.922
8.77
8.926
8.894
8.93
8.89
9.166
9.328
9.354
9.694
10
10.43
10.576
10.454
10.834
11.028
11.248
12.014
12
12.48
12.472
12.784
8.942
8.838
8.698
8.844
8.762
8.706
8.554
8.49
8.376
8.414
8.496
8.494
8.95
9.184
9.18
9.262
9.428
9.466
9.416
9.422
9.672
9.94
9.93
10.588
10.582
10.632
11.068
11.358
11.94
12.254
8.936
8.606
8.578
8.488
8.532
8.42
8.354
8.238
8.318
8.418
8.584
8.606
8.632
8.472
8.438
8.472
8.58
8.7
8.68
8.916
9.098
9.284
9.628
9.682
10.182
10.642
11.016
11.208
11.498
11.804
8.888
8.988
8.92
8.78
8.688
8.738
8.8
8.79
8.706
8.656
8.528
8.344
8.228
8.25
8.272
8.358
8.336
8.224
8.664
8.484
8.688
8.834
9.068
9.356
9.536
9.818
10.032
10.468
10.594
10.692
9.04
8.898
8.91
8.95
8.988
8.714
8.7
8.684
8.578
8.522
8.484
8.504
8.328
8.408
8.25
8.054
8.302
8.212
8.14
8.244
8.306
8.344
8.882
9.196
9.33
9.394
9.356
9.618
9.71
10.154
8.974
9.018
8.826
8.814
8.902
8.632
8.628
8.746
8.736
8.718
8.678
8.574
8.528
8.438
8.232
8.246
8.08
8.172
8.356
8.486
8.614
8.676
8.588
8.698
9.086
9.206
9.41
9.698
9.912
9.986
8.784
8.89
8.85
8.67
8.632
8.746
8.606
8.55
8.488
8.392
8.244
8.234
8.23
8.096
8.184
8.178
8.288
8.25
8.256
8.248
8.264
8.258
8.268
8.198
8.63
8.82
8.842
9.144
9.352
9.682
9.186
9.03
8.904
8.778
8.76
8.822
8.904
8.616
8.618
8.41
8.208
8.176
8.082
8.314
8.172
8.114
8.18
8.09
7.93
8.122
8.276
8.358
8.29
8.338
8.17
8.364
8.516
8.628
8.78
9.142
8.892
8.986
8.91
8.85
8.654
8.478
8.484
8.358
8.23
8.356
8.298
8.202
8.116
8.092
8.05
8.184
8.014
8.25
8.366
8.316
8.346
8.154
8.242
8.064
8.194
8.112
8.458
8.484
8.574
8.782
9.122
9.088
8.796
8.732
8.578
8.374
8.234
8.196
8.09
8.144
8.232
8.418
8.382
8.308
8.368
8.396
8.332
8.142
8.008
7.898
7.918
7.856
7.818
8.092
8.254
8.198
8.068
8.088
8.096
8.088
8.824
8.628
8.61
8.438
8.36
8.434
8.316
8.328
8.32
8.308
7.982
7.972
8.048
8.02
7.962
7.976
7.792
7.808
7.858
7.75
7.728
7.83
8.026
7.83
7.6
7.584
7.514
7.636
7.784
7.9
8.54
8.422
8.35
8.472
8.606
8.396
8.55
8.418
8.158
8.174
8.42
8.368
8.26
8.18
8.046
8.158
8.066
8.062
8.086
7.984
7.84
7.632
7.314
7.438
7.42
7.408
7.398
7.452
7.5
7.462
8.656
8.676
8.7
8.76
8.684
8.598
8.396
8.594
8.59
8.538
8.398
8.348
8.27
8.142
8.18
8.01
7.968
7.736
7.84
7.692
7.734
7.628
7.584
7.488
7.332
7.368
7.5
7.358
7.47
7.544
9.272
9.128
9.072
8.75
8.834
8.888
8.876
8.656
8.684
8.562
8.48
8.462
8.266
8.098
8.02
7.918
7.766
7.608
7.496
7.58
7.508
7.622
7.594
7.784
7.734
7.618
7.556
7.562
7.57
7.598
9.06
8.982
8.832
8.88
8.848
8.716
8.79
8.738
8.506
8.338
8.178
8.012
8.096
8.116
7.962
7.93
7.936
8
7.966
7.872
7.746
7.778
7.856
7.744
7.676
7.786
7.844
7.716
7.582
7.49
9.246
9.278
9.174
8.954
8.92
8.836
8.526
8.488
8.5
8.61
8.512
8.402
8.176
8.17
8.174
8.094
8.054
7.77
7.742
7.59
7.628
7.64
7.66
7.45
7.42
7.202
7.408
7.482
7.684
7.47
8.636
8.472
8.556
8.552
8.73
8.578
8.526
8.444
8.472
8.378
8.288
8.26
8.424
8.192
8.156
8.1
7.952
8.03
7.994
7.884
7.75
7.738
7.554
7.51
7.51
7.504
7.322
7.108
7.104
7.174
9.148
9.284
9.264
9.056
8.856
8.882
8.72
8.644
8.366
8.44
8.346
8.282
8.112
8.048
8.052
7.976
7.93
8.008
7.786
7.796
7.74
7.61
7.526
7.378
7.25
7.226
7.218
7.038
7.006
7.062
8.774
8.486
8.536
8.436
8.43
8.254
8.362
8.36
8.302
8.358
8.196
8.126
7.984
7.982
7.802
7.798
7.558
7.546
7.582
7.544
7.476
7.396
7.502
7.516
7.566
7.326
7.142
7.206
7.1
7.174
)
;

boundaryField
{
    flow
    {
        type            calculated;
        value           nonuniform List<scalar> 
55
(
14.592
14.684
14.408
13.938
13.64
13.792
12.784
12.254
11.804
10.692
10.154
9.986
9.682
9.142
8.782
8.088
7.9
7.462
7.544
7.598
7.49
7.47
7.174
7.062
7.174
8.774
8.486
8.536
8.436
8.43
8.254
8.362
8.36
8.302
8.358
8.196
8.126
7.984
7.982
7.802
7.798
7.558
7.546
7.582
7.544
7.476
7.396
7.502
7.516
7.566
7.326
7.142
7.206
7.1
7.174
)
;
    }
    obstacle
    {
        type            calculated;
        value           nonuniform 0();
    }
    frontAndBack
    {
        type            empty;
    }
    procBoundary3to1
    {
        type            processor;
        value           nonuniform List<scalar> 
36
(
14.52
14.998
15.272
15.282
15.374
14.88
14.88
13.73
14.03
14.178
14.168
14.456
14.456
10.772
11.286
11.814
12.19
12.71
12.71
8.72
8.74
8.894
9.19
9.668
10.046
10.046
8.678
8.724
8.918
8.902
9.098
9.272
9.272
8.684
8.824
8.824
)
;
    }
    procBoundary3to2
    {
        type            processor;
        value           nonuniform List<scalar> 
19
(
9.074
8.886
9.048
8.938
9.068
8.976
8.796
9.24
9.096
9.252
9.03
8.566
8.684
9.29
9.126
9.442
8.788
9.09
8.868
)
;
    }
}


// ************************************************************************* //
