/*--------------------------------*- C++ -*----------------------------------*\
  =========                 |
  \\      /  F ield         | OpenFOAM: The Open Source CFD Toolbox
   \\    /   O peration     | Website:  https://openfoam.org
    \\  /    A nd           | Version:  7
     \\/     M anipulation  |
\*---------------------------------------------------------------------------*/
FoamFile
{
    version     2.0;
    format      ascii;
    class       volScalarField;
    location    "0.001";
    object      iDof;
}
// * * * * * * * * * * * * * * * * * * * * * * * * * * * * * * * * * * * * * //

dimensions      [0 -3 0 0 0 0 0];

internalField   nonuniform List<scalar> 
654
(
5.982840782e+20
5.172319272e+20
4.669395758e+20
2.49441833e+20
5.034425464e+20
3.669506496e+20
5.69794355e+20
4.691455034e+20
4.468873938e+20
2.916674972e+20
5.081918661e+20
4.047410873e+20
5.444546507e+20
6.592088013e+20
3.880206256e+20
7.271947893e+20
4.234045957e+20
3.418766161e+20
1.74994531e+20
2.52050902e+20
4.066300929e+20
2.050174096e+20
3.876534743e+20
2.345727537e+20
3.417374188e+20
3.446979483e+20
3.477102242e+20
3.237928699e+20
4.355637205e+20
7.141428743e+20
4.711679067e+20
2.517212732e+20
3.104967063e+20
3.133868981e+20
3.098070848e+20
3.602749113e+20
1.694580927e+20
1.464077987e+20
2.95168833e+20
2.479668304e+20
1.999937497e+20
2.520509041e+20
4.066300962e+20
2.050174096e+20
2.325920846e+20
3.648909471e+20
3.417374188e+20
2.121218161e+20
4.546979854e+20
3.777583482e+20
5.716773882e+20
5.218736435e+20
6.374624564e+20
1.957832107e+20
5.92766434e+20
3.418766161e+20
2.276766275e+20
1.376297699e+20
2.311150415e+20
1.630114445e+20
7.039767198e+19
1.655303355e+20
2.859757706e+20
1.441099656e+20
1.936663947e+20
2.196116998e+20
2.95168833e+20
1.983734659e+20
1.999937513e+20
3.780763531e+20
1.27071903e+20
2.050174062e+20
3.101227769e+20
3.909545862e+20
3.94312403e+20
3.977283985e+20
2.94216341e+20
3.237928699e+20
3.811182555e+20
4.944066009e+20
7.206097333e+20
5.873496375e+20
5.64539461e+20
4.843252017e+20
1.794712164e+20
1.129977501e+20
1.366059745e+20
2.981978327e+20
3.004495539e+20
1.862987924e+20
1.642612322e+20
1.891775234e+20
1.668191983e+20
1.200916371e+20
2.420829896e+20
1.952103968e+20
3.689610354e+20
2.727635113e+20
3.499890648e+20
2.016407249e+20
2.033150481e+20
1.025087048e+20
2.067485213e+20
2.606363951e+20
2.891624337e+20
2.386370432e+20
3.744571645e+20
4.317238302e+20
4.083409951e+20
6.042747451e+20
3.603048699e+20
4.754735161e+20
3.104967035e+20
3.418766161e+20
2.019051184e+20
2.711946022e+20
1.593736392e+20
1.605680649e+20
1.61780529e+20
3.027355376e+20
3.050565763e+20
2.128247171e+20
2.383131422e+20
1.441099645e+20
9.683319584e+19
2.196116981e+20
1.229870137e+20
7.439004912e+19
1.999937497e+20
2.772559923e+20
1.779006656e+20
1.28135881e+20
2.067485196e+20
2.606363908e+20
4.731748836e+20
3.181827215e+20
3.477102242e+20
3.50775609e+20
2.450045928e+20
4.944066053e+20
5.265994252e+20
5.034425464e+20
5.363124928e+20
4.273457701e+20
1.12169511e+20
1.807964015e+20
2.276766258e+20
2.293829499e+20
2.542265456e+20
2.794481907e+20
2.346589049e+20
1.891775249e+20
1.668191995e+20
3.362565839e+20
3.147078889e+20
2.684142998e+20
2.459740275e+20
1.735767813e+20
1.499953123e+20
2.520509041e+20
1.524862861e+20
2.56271762e+20
3.876534743e+20
1.563818345e+20
3.417374188e+20
2.386370432e+20
3.209632838e+20
1.618964349e+20
3.266727933e+20
3.296044035e+20
3.880206256e+20
3.635973946e+20
4.516315688e+20
4.273457701e+20
1.346034123e+20
2.48595052e+20
1.138383137e+20
2.752595399e+20
3.235610581e+20
1.862987924e+20
2.111930144e+20
2.364719079e+20
2.14481828e+20
2.642016037e+20
2.178746923e+20
2.684142956e+20
2.459740255e+20
7.439004912e+19
1.249960946e+20
2.016407233e+20
2.795581866e+20
3.075261119e+20
2.067485196e+20
1.824454751e+20
3.417374217e+20
2.916674947e+20
2.94216341e+20
3.777583482e+20
1.905591277e+20
4.669395717e+20
2.771575922e+20
5.314115768e+20
5.92766434e+20
2.564074597e+20
2.243390205e+20
2.259955002e+20
2.049089618e+20
3.211361275e+20
3.004495562e+20
1.862987952e+20
2.11193016e+20
2.601190987e+20
2.14481828e+20
2.88219929e+20
1.210414957e+20
2.196116998e+20
2.95168833e+20
2.975601965e+20
1.999937497e+20
1.764356329e+20
2.287294291e+20
2.306445858e+20
1.550613897e+20
1.824454736e+20
2.891624289e+20
2.651522679e+20
1.872285822e+20
2.698273915e+20
2.177818603e+20
2.746703339e+20
2.771575873e+20
3.915664215e+20
3.387236766e+20
2.848971801e+20
1.794712177e+20
1.355973021e+20
1.82141302e+20
1.835063586e+20
1.386690239e+20
1.630114433e+20
2.815906837e+20
2.601190947e+20
2.621444544e+20
1.921466194e+20
1.694580927e+20
2.928155952e+20
3.197662332e+20
2.727635134e+20
1.74994531e+20
1.764356314e+20
2.795581889e+20
1.28135881e+20
1.550613897e+20
2.606363908e+20
1.577249625e+20
1.590913621e+20
1.604816419e+20
1.349136958e+20
3.53895526e+20
5.218736435e+20
2.217260738e+20
3.635973946e+20
3.104967063e+20
2.848971801e+20
1.12169511e+20
1.807964015e+20
2.049089647e+20
1.376297699e+20
2.080035373e+20
2.328734905e+20
2.581247953e+20
2.364719079e+20
1.668191995e+20
9.607330968e+19
1.936663932e+20
1.220064999e+20
7.379220824e+19
2.231701474e+20
1.999937513e+20
3.276661779e+20
2.287294272e+20
7.688152797e+19
2.067485196e+20
2.345727537e+20
3.154499251e+20
1.590913608e+20
3.209632838e+20
2.158619151e+20
2.177818622e+20
1.922692354e+20
1.108630369e+20
3.635973979e+20
2.258157864e+20
1.709383065e+20
2.692068246e+20
1.355973001e+20
1.593736381e+20
1.835063599e+20
1.386690249e+20
3.027355399e+20
3.050565763e+20
2.837662873e+20
2.383131422e+20
1.441099645e+20
2.662912886e+20
1.464077987e+20
2.951688306e+20
1.487800971e+20
1.999937497e+20
1.512305412e+20
3.049725697e+20
3.075261144e+20
2.584356517e+20
1.563818358e+20
1.577249625e+20
1.590913621e+20
1.604816419e+20
2.158619132e+20
2.177818622e+20
2.472033026e+20
3.048733487e+20
2.517212732e+20
2.540427574e+20
2.564074621e+20
2.467729243e+20
2.485950538e+20
2.73211951e+20
2.52321243e+20
2.542265456e+20
3.260228867e+20
1.642612334e+20
1.655303355e+20
2.14481828e+20
3.122382589e+20
1.936663947e+20
1.464077987e+20
2.705714281e+20
2.727635134e+20
1.74994531e+20
2.016407233e+20
1.524862861e+20
1.537630572e+20
2.842792145e+20
2.345727537e+20
2.365874438e+20
2.121218125e+20
1.604816405e+20
2.428446524e+20
2.177818603e+20
1.922692354e+20
1.940103145e+20
1.398451518e+20
3.104967035e+20
3.41876613e+20
1.346034123e+20
2.033959502e+20
2.276766258e+20
2.293829499e+20
1.848920332e+20
2.794481907e+20
3.050565786e+20
1.418831447e+20
1.906505138e+20
4.803665484e+19
1.694580927e+20
1.708090985e+20
1.475844165e+20
2.727635134e+20
1.499953123e+20
1.26025451e+20
1.524862848e+20
1.025087048e+20
2.325920846e+20
1.824454736e+20
3.680249126e+20
1.856065891e+20
2.407224629e+20
1.349136958e+20
3.811182555e+20
2.197362671e+20
1.940103128e+20
2.237522429e+20
2.540427597e+20
2.564074644e+20
2.467729225e+20
4.067919033e+20
1.82141302e+20
1.376297699e+20
2.080035389e+20
1.164367461e+20
2.815906837e+20
9.458876244e+19
1.906505138e+20
1.921466194e+20
1.936663917e+20
7.320389936e+19
1.475844165e+20
1.239834152e+20
2.749914081e+20
2.520509061e+20
1.27071904e+20
1.281358799e+20
2.325920846e+20
1.303181954e+20
3.154499251e+20
1.590913621e+20
2.407224629e+20
1.349136958e+20
1.361136639e+20
1.922692371e+20
1.662945538e+20
4.195354516e+20
3.669506496e+20
3.988560485e+20
1.570373155e+20
2.937941524e+20
2.73211951e+20
1.835063599e+20
1.61780529e+20
1.164367452e+20
1.173294524e+20
1.655303343e+20
1.668191983e+20
2.161649468e+20
1.69458094e+20
2.440129979e+20
2.459740255e+20
1.983734643e+20
2.249929685e+20
2.772559923e+20
1.524862848e+20
2.56271762e+20
3.101227794e+20
2.867000323e+20
1.05149975e+20
2.386370411e+20
1.872285822e+20
2.428446545e+20
1.633363966e+20
1.648022018e+20
1.662945553e+20
2.237522429e+20
2.258157844e+20
2.279177441e+20
1.570373143e+20
2.48595052e+20
2.049089632e+20
3.211361275e+20
9.24460166e+19
3.493102383e+20
2.346589049e+20
2.601190967e+20
2.383131422e+20
1.921466208e+20
1.69458094e+20
1.464077987e+20
2.213766247e+20
1.239834162e+20
2.99990627e+20
2.520509041e+20
1.779006671e+20
1.537630559e+20
1.550613884e+20
1.303181954e+20
2.365874438e+20
2.121218143e+20
2.674694009e+20
1.079309566e+20
8.166819831e+19
2.472033026e+20
1.940103128e+20
1.678141821e+20
3.669506496e+20
2.564074597e+20
2.243390205e+20
2.485950502e+20
1.821413007e+20
9.175317996e+19
1.386690249e+20
2.095861414e+20
1.642612334e+20
2.128247171e+20
1.668191995e+20
2.401832742e+20
1.452497949e+20
1.220064999e+20
9.838961099e+19
2.727635134e+20
2.249929703e+20
1.512305424e+20
2.287294254e+20
2.306445839e+20
1.033742598e+20
1.042545563e+20
2.365874418e+20
2.121218143e+20
1.604816419e+20
3.237928699e+20
1.361136627e+20
2.19736269e+20
3.325891106e+20
1.118761214e+20
3.387236796e+20
3.13386901e+20
1.346034142e+20
2.033959531e+20
2.049089647e+20
9.175317996e+19
1.386690249e+20
2.561608395e+20
1.407953429e+20
1.182359539e+20
2.14481828e+20
3.362565839e+20
1.694580927e+20
2.684142956e+20
1.721818179e+20
2.231701474e+20
1.74994531e+20
2.772559945e+20
2.541438101e+20
2.050174096e+20
1.809049547e+20
2.60636393e+20
1.577249639e+20
2.121218161e+20
1.872285822e+20
2.428446524e+20
1.905591277e+20
1.373351681e+20
1.662945553e+20
1.957832125e+20
1.693618383e+20
1.994280242e+20
3.140746287e+20
3.163937003e+20
1.366059755e+20
3.899510148e+20
1.61780529e+20
3.958849368e+20
1.877271239e+20
1.18235953e+20
1.191565711e+20
2.401832742e+20
1.210414957e+20
1.952103998e+20
2.459740255e+20
2.479668284e+20
2.249929685e+20
1.764356314e+20
1.779006656e+20
2.050174096e+20
1.292178258e+20
1.824454751e+20
2.365874418e+20
1.32576134e+20
2.942163435e+20
2.968101307e+20
1.088909311e+20
2.472033026e+20
1.385787949e+20
2.237522429e+20
1.411348652e+20
1.4244859e+20
3.140746287e+20
1.355973011e+20
3.415149387e+20
1.605680637e+20
1.617805302e+20
3.027355399e+20
2.581247953e+20
2.364719061e+20
2.383131404e+20
2.882199313e+20
1.210414957e+20
9.760519915e+19
1.475844165e+20
2.727635134e+20
1.499953123e+20
1.512305424e+20
2.033150481e+20
1.025087048e+20
1.809049547e+20
1.824454736e+20
2.1029995e+20
1.856065875e+20
1.872285806e+20
2.968101333e+20
2.450045949e+20
2.472033026e+20
2.494418308e+20
2.237522409e+20
1.129078922e+20
2.564074597e+20
2.019051199e+20
2.937941524e+20
1.593736381e+20
1.146914749e+20
2.080035373e+20
1.630114445e+20
1.407953429e+20
3.310606685e+20
2.14481828e+20
1.441099645e+20
1.936663932e+20
2.684142977e+20
1.475844153e+20
1.735767813e+20
2.249929703e+20
2.268458137e+20
2.795581866e+20
2.562717599e+20
3.876534743e+20
1.303181965e+20
2.1029995e+20
2.121218143e+20
1.337347016e+20
2.158619132e+20
2.994500605e+20
2.19736269e+20
1.940103128e+20
3.356283643e+20
1.693618398e+20
2.279177462e+20
2.019051184e+20
9.039820073e+19
2.049089647e+20
1.835063599e+20
1.61780529e+20
9.314939619e+19
2.346589049e+20
2.364719079e+20
2.383131422e+20
2.642016016e+20
1.452497938e+20
2.684142977e+20
1.721818192e+20
1.487800982e+20
2.999906246e+20
4.032814465e+20
2.033150481e+20
1.793902334e+20
2.067485196e+20
1.824454736e+20
2.628749375e+20
5.303045403e+19
3.209632838e+20
1.888791741e+20
1.905591277e+20
1.922692354e+20
1.940103145e+20
1.957832125e+20
1.693618383e+20
1.13958871e+20
)
;

boundaryField
{
    flow
    {
        type            zeroGradient;
    }
    obstacle
    {
        type            calculated;
        value           nonuniform 0();
    }
    frontAndBack
    {
        type            empty;
    }
    procBoundary3to1
    {
        type            processor;
        value           nonuniform List<scalar> 
36
(
3.988560521e+20
4.08340988e+20
5.493406677e+20
4.988836615e+20
4.195354554e+20
4.516315688e+20
4.516315688e+20
4.952091425e+20
5.257498707e+20
6.363654376e+20
3.477102212e+20
4.587065696e+20
4.587065696e+20
2.249929703e+20
3.528712686e+20
3.812157121e+20
3.587804638e+20
2.325920846e+20
2.325920846e+20
3.813010275e+20
2.642016016e+20
1.452497949e+20
1.952103983e+20
1.967792204e+20
9.918673216e+19
9.918673216e+19
2.049089632e+20
1.835063599e+20
2.311150432e+20
1.164367461e+20
1.642612334e+20
2.128247171e+20
2.128247171e+20
1.794712177e+20
1.355973021e+20
1.355973021e+20
)
;
    }
    procBoundary3to2
    {
        type            processor;
        value           nonuniform List<scalar> 
19
(
2.672479765e+20
2.672479765e+20
1.781653177e+20
2.4497731e+20
1.55894653e+20
1.336239882e+20
1.781653189e+20
2.004359824e+20
2.227066471e+20
6.681199412e+19
2.004359824e+20
2.004359824e+20
1.781653177e+20
1.558946518e+20
2.449773135e+20
2.672479765e+20
1.55894653e+20
1.781653177e+20
1.55894653e+20
)
;
    }
}


// ************************************************************************* //
