/*--------------------------------*- C++ -*----------------------------------*\
  =========                 |
  \\      /  F ield         | OpenFOAM: The Open Source CFD Toolbox
   \\    /   O peration     | Website:  https://openfoam.org
    \\  /    A nd           | Version:  7
     \\/     M anipulation  |
\*---------------------------------------------------------------------------*/
FoamFile
{
    version     2.0;
    format      ascii;
    class       volScalarField;
    location    "0.001";
    object      iDofMean;
}
// * * * * * * * * * * * * * * * * * * * * * * * * * * * * * * * * * * * * * //

dimensions      [0 -3 0 0 0 0 0];

internalField   nonuniform List<scalar> 
654
(
1.956673833e+20
1.416126571e+20
1.388183892e+20
1.511617508e+20
1.590878447e+20
1.707731869e+20
1.91678821e+20
1.105098297e+20
1.110383736e+20
1.187351866e+20
1.262455583e+20
1.337264552e+20
1.34861417e+20
1.383789142e+20
1.349203147e+20
1.475086661e+20
1.713377264e+20
2.033026277e+20
9.839692487e+19
9.482154935e+19
1.002851467e+20
1.033800288e+20
1.034776341e+20
1.209352863e+20
1.199235465e+20
1.267427841e+20
1.275829053e+20
1.340502481e+20
1.423748912e+20
1.386535857e+20
1.457848935e+20
1.570740745e+20
1.602163005e+20
2.066644144e+20
8.155075726e+19
8.843548156e+19
9.30567012e+19
8.613658825e+19
8.869823431e+19
9.110301349e+19
9.464704206e+19
9.088955601e+19
8.747629944e+19
9.441051712e+19
1.039945054e+20
1.160874485e+20
1.228677458e+20
1.17144273e+20
1.200402682e+20
1.174828463e+20
1.253334617e+20
1.406312134e+20
1.364723972e+20
1.555078074e+20
1.703215554e+20
1.878612006e+20
8.706354235e+19
9.11109077e+19
9.461849799e+19
9.943698117e+19
9.409822155e+19
8.711625086e+19
8.417220182e+19
8.934817869e+19
9.213678727e+19
8.501412912e+19
9.558550708e+19
9.963307325e+19
9.889691004e+19
9.023422293e+19
8.706966793e+19
9.410298946e+19
1.062170511e+20
1.030035016e+20
1.141402969e+20
1.158715401e+20
1.1608172e+20
1.276823217e+20
1.363314445e+20
1.303036064e+20
1.542104829e+20
1.706670232e+20
1.685150291e+20
1.835307617e+20
8.273623075e+19
8.416072427e+19
8.747335901e+19
9.377174923e+19
8.3571199e+19
9.207817813e+19
9.639787739e+19
8.082609689e+19
9.227484795e+19
9.165393743e+19
8.787612523e+19
9.05776241e+19
9.238784326e+19
8.897049804e+19
9.404706157e+19
9.698918867e+19
9.230503184e+19
1.070190878e+20
9.64481852e+19
1.055056128e+20
1.214482222e+20
1.175154861e+20
1.201472559e+20
1.282219776e+20
1.339902919e+20
1.383789166e+20
1.485010379e+20
1.498021266e+20
1.598775754e+20
2.027328334e+20
7.923654203e+19
8.71890646e+19
8.665372442e+19
1.005156086e+20
8.953396707e+19
8.546457101e+19
9.489606112e+19
9.397393619e+19
8.464882811e+19
8.343966946e+19
9.044220492e+19
9.443303018e+19
9.027246808e+19
9.60623501e+19
9.334708269e+19
9.678754639e+19
9.006856557e+19
9.989473282e+19
9.923928942e+19
1.05505611e+20
1.188720458e+20
1.158715411e+20
1.185959334e+20
1.324852492e+20
1.232100874e+20
1.368407615e+20
1.481130173e+20
1.543890476e+20
1.576194189e+20
2.005676148e+20
7.470489435e+19
8.70534673e+19
8.84751368e+19
9.634083896e+19
9.216867855e+19
9.384801736e+19
9.574083318e+19
9.288616471e+19
9.370472751e+19
8.055747017e+19
9.678477999e+19
1.008261715e+20
9.868477982e+19
9.278918794e+19
9.184712957e+19
9.104078655e+19
8.991608002e+19
9.533309546e+19
1.092665926e+20
1.099364296e+20
1.254964952e+20
1.322579524e+20
1.325578362e+20
1.35507316e+20
1.331736087e+20
1.335996516e+20
1.43623063e+20
1.580250215e+20
1.529901939e+20
2.000547999e+20
8.094151859e+19
8.230756176e+19
9.389384118e+19
9.29459713e+19
8.149116363e+19
8.280981321e+19
8.931117919e+19
9.463605754e+19
8.63170201e+19
8.267108361e+19
9.078112181e+19
9.931328936e+19
9.691376606e+19
9.769893118e+19
9.754695222e+19
8.771371462e+19
9.266083166e+19
1.104018742e+20
1.082845372e+20
1.134810855e+20
1.210801973e+20
1.201670078e+20
1.246407408e+20
1.243904275e+20
1.310502344e+20
1.389282561e+20
1.572592178e+20
1.550043662e+20
1.669907726e+20
1.946987311e+20
8.973560819e+19
8.176517197e+19
9.166260889e+19
7.895361077e+19
8.162983326e+19
7.754687348e+19
9.02028837e+19
8.044774306e+19
9.461031745e+19
9.016480113e+19
9.121687119e+19
1.043399587e+20
1.024727798e+20
9.874039187e+19
9.834692643e+19
9.759411006e+19
9.70321067e+19
1.060452551e+20
1.140734957e+20
1.19371467e+20
1.198183955e+20
1.217579214e+20
1.23249901e+20
1.276283562e+20
1.374203538e+20
1.524420353e+20
1.488336244e+20
1.482358596e+20
1.682892133e+20
1.957813422e+20
8.991508005e+19
8.375393358e+19
8.460463478e+19
8.175208274e+19
8.814727617e+19
8.774673121e+19
9.39574248e+19
8.063691937e+19
9.365706417e+19
9.367147694e+19
9.218520244e+19
1.023390505e+20
8.850145439e+19
1.026582678e+20
9.1897128e+19
9.910641468e+19
1.028774135e+20
1.106581468e+20
1.159859195e+20
1.167651031e+20
1.211853462e+20
1.249927802e+20
1.241058031e+20
1.227714632e+20
1.428649016e+20
1.45190741e+20
1.519932236e+20
1.505293214e+20
1.709425503e+20
1.976616635e+20
9.301095856e+19
9.017220523e+19
8.50144527e+19
7.904536453e+19
8.773126975e+19
9.557128049e+19
1.009971926e+20
8.588659694e+19
9.775605093e+19
8.968443459e+19
9.94476929e+19
1.064384705e+20
9.58314811e+19
1.105932064e+20
9.854692097e+19
1.002658505e+20
9.809950991e+19
1.077366479e+20
1.163477294e+20
1.142629947e+20
1.260222451e+20
1.241442918e+20
1.220730356e+20
1.277362883e+20
1.356781001e+20
1.395325308e+20
1.499976889e+20
1.435370651e+20
1.584097742e+20
1.77547921e+20
8.569750582e+19
8.181037107e+19
8.779210692e+19
9.597382624e+19
9.313936172e+19
9.142613304e+19
1.009502609e+20
9.742642531e+19
1.025223138e+20
9.97721321e+19
1.042893519e+20
9.740998875e+19
9.337174009e+19
1.012200594e+20
1.064966717e+20
1.147839808e+20
1.099934401e+20
1.207039999e+20
1.159342333e+20
1.185374315e+20
1.308591439e+20
1.297124906e+20
1.221265295e+20
1.264411157e+20
1.321935903e+20
1.45355542e+20
1.493879409e+20
1.518158968e+20
1.726361672e+20
1.862087969e+20
8.83895747e+19
9.15281789e+19
8.833853082e+19
8.996399229e+19
9.434115994e+19
9.901780815e+19
9.911992141e+19
9.449417439e+19
9.732708727e+19
8.838744558e+19
9.281461965e+19
9.750759395e+19
1.018824414e+20
9.551682307e+19
1.046467296e+20
1.011228227e+20
1.042497909e+20
1.273158114e+20
1.186219631e+20
1.192672134e+20
1.227100208e+20
1.33530681e+20
1.214846019e+20
1.245523239e+20
1.297435433e+20
1.436525859e+20
1.556517038e+20
1.596472253e+20
1.771524829e+20
1.915078827e+20
8.843444187e+19
9.659047678e+19
9.867504963e+19
9.877229822e+19
9.919457581e+19
9.682879806e+19
9.968310353e+19
1.001695002e+20
9.337108911e+19
1.018377083e+20
1.040472689e+20
1.024854591e+20
1.031123123e+20
1.050883427e+20
1.040467483e+20
1.087347591e+20
1.249879248e+20
1.25521909e+20
1.230670563e+20
1.183289214e+20
1.251810453e+20
1.246745974e+20
1.346440976e+20
1.237968072e+20
1.270757155e+20
1.408509472e+20
1.427915902e+20
1.57577517e+20
1.770395766e+20
1.959522823e+20
9.830535877e+19
9.089539083e+19
9.685363733e+19
9.404700946e+19
1.028461942e+20
1.032561064e+20
1.113221836e+20
8.721083897e+19
8.941509095e+19
1.005887552e+20
9.843094357e+19
1.096594412e+20
1.086221305e+20
9.933551226e+19
1.014468304e+20
1.145319317e+20
1.152796313e+20
1.076853935e+20
1.063204262e+20
1.014918106e+20
1.331724434e+20
1.247806583e+20
1.405819183e+20
1.308123194e+20
1.306146718e+20
1.409608178e+20
1.471706802e+20
1.587522149e+20
1.903627062e+20
2.02276996e+20
1.005936175e+20
8.926822322e+19
1.00268786e+20
9.450577536e+19
9.91483528e+19
1.088450694e+20
9.836901291e+19
9.212945461e+19
9.747007441e+19
1.025582581e+20
9.693002979e+19
1.005333551e+20
9.529033749e+19
9.705421742e+19
1.000468733e+20
1.089363999e+20
1.082144335e+20
1.146559863e+20
1.176399077e+20
1.329245604e+20
1.371681424e+20
1.214397387e+20
1.360349385e+20
1.28275943e+20
1.311591265e+20
1.476078387e+20
1.420709818e+20
1.684295008e+20
1.69644108e+20
1.801119973e+20
1.01221766e+20
8.958461692e+19
1.078731853e+20
9.858879114e+19
1.00119036e+20
1.067957835e+20
1.008563973e+20
1.023923353e+20
1.095763828e+20
1.067374479e+20
1.051124349e+20
1.062920619e+20
1.054244682e+20
1.022119283e+20
1.05746696e+20
1.095917331e+20
1.238696931e+20
1.19986438e+20
1.216198157e+20
1.491361428e+20
1.327518435e+20
1.129018357e+20
1.325578351e+20
1.419831734e+20
1.342080726e+20
1.476078387e+20
1.537115993e+20
1.692685717e+20
1.699828317e+20
1.874053634e+20
1.130219985e+20
1.060370887e+20
1.122901119e+20
9.835940891e+19
9.110554936e+19
1.016725659e+20
1.085532094e+20
1.162968843e+20
1.02236338e+20
1.084667666e+20
1.172650011e+20
1.064872731e+20
1.14820676e+20
1.12031414e+20
1.203962383e+20
1.107511673e+20
1.187359862e+20
1.252143819e+20
1.344382249e+20
1.280245952e+20
1.339084921e+20
1.122124398e+20
1.34911567e+20
1.513731667e+20
1.469483102e+20
1.524969707e+20
1.563723135e+20
1.657444739e+20
1.790719186e+20
1.978326037e+20
1.159384074e+20
1.169300735e+20
1.187105936e+20
1.105167053e+20
1.104729898e+20
1.100094369e+20
1.125893425e+20
1.102432035e+20
1.172024033e+20
1.09523573e+20
1.243338235e+20
1.073657182e+20
1.165424933e+20
1.241321953e+20
1.159963748e+20
1.185647453e+20
1.181768717e+20
1.161936169e+20
1.223951236e+20
1.344883788e+20
1.35433169e+20
1.247806583e+20
1.4432649e+20
1.417673115e+20
1.436815823e+20
1.414002891e+20
1.546539364e+20
1.857702996e+20
1.87427101e+20
1.978895795e+20
1.270656212e+20
1.189640313e+20
1.140659895e+20
1.07305344e+20
1.083467315e+20
1.150395052e+20
1.303295558e+20
1.210263215e+20
1.175360417e+20
1.092353531e+20
1.048219353e+20
1.181510945e+20
1.115246232e+20
1.106923922e+20
1.18646292e+20
1.334357475e+20
1.38813348e+20
1.340813859e+20
1.279773347e+20
1.315692512e+20
1.445812144e+20
1.256291445e+20
1.387631264e+20
1.422530008e+20
1.522839671e+20
1.449710035e+20
1.48113016e+20
1.578012693e+20
1.732571606e+20
1.968639514e+20
1.249568344e+20
1.326141605e+20
1.139749189e+20
1.082687516e+20
1.110276668e+20
1.264037316e+20
1.216941081e+20
1.308162585e+20
1.215397016e+20
1.144233127e+20
1.14505255e+20
1.232265639e+20
1.161981306e+20
1.188752985e+20
1.204462358e+20
1.238074041e+20
1.263603024e+20
1.219341044e+20
1.34489912e+20
1.351660323e+20
1.34486818e+20
1.243564137e+20
1.282783247e+20
1.355073172e+20
1.362225548e+20
1.443667287e+20
1.542104829e+20
1.623322507e+20
1.690231146e+20
1.92989348e+20
1.262580016e+20
1.326141605e+20
1.290471115e+20
1.230868909e+20
1.303026604e+20
1.287324665e+20
1.222103576e+20
1.330390944e+20
1.330740586e+20
1.247511926e+20
1.307248154e+20
1.264475355e+20
1.195925712e+20
1.244297555e+20
1.353957697e+20
1.312177007e+20
1.334254981e+20
1.339276217e+20
1.351618447e+20
1.311001057e+20
1.505747642e+20
1.266897536e+20
1.381211998e+20
1.293552515e+20
1.483638936e+20
1.457950145e+20
1.503302767e+20
1.734639263e+20
1.641680767e+20
1.89000791e+20
1.350072225e+20
1.407047994e+20
1.434362753e+20
1.353359404e+20
1.304413294e+20
1.283132933e+20
1.503224944e+20
1.386671268e+20
1.300236504e+20
1.40843472e+20
1.258831546e+20
1.366472788e+20
1.276113255e+20
1.403988194e+20
1.397956311e+20
1.314697516e+20
1.511139095e+20
1.471512457e+20
1.486521856e+20
1.296405408e+20
1.522045888e+20
1.437125304e+20
1.598932092e+20
1.5061765e+20
1.562040393e+20
1.587045203e+20
1.657956717e+20
1.69548262e+20
1.666520489e+20
1.821632553e+20
)
;

boundaryField
{
    flow
    {
        type            calculated;
        value           nonuniform List<scalar> 
55
(
1.956673833e+20
1.91678821e+20
2.033026277e+20
2.066644144e+20
1.878612006e+20
1.835307617e+20
2.027328334e+20
2.005676148e+20
2.000547999e+20
1.946987311e+20
1.957813422e+20
1.976616635e+20
1.77547921e+20
1.862087969e+20
1.915078827e+20
1.959522823e+20
2.02276996e+20
1.801119973e+20
1.874053634e+20
1.978326037e+20
1.978895795e+20
1.968639514e+20
1.92989348e+20
1.89000791e+20
1.821632553e+20
1.350072225e+20
1.407047994e+20
1.434362753e+20
1.353359404e+20
1.304413294e+20
1.283132933e+20
1.503224944e+20
1.386671268e+20
1.300236504e+20
1.40843472e+20
1.258831546e+20
1.366472788e+20
1.276113255e+20
1.403988194e+20
1.397956311e+20
1.314697516e+20
1.511139095e+20
1.471512457e+20
1.486521856e+20
1.296405408e+20
1.522045888e+20
1.437125304e+20
1.598932092e+20
1.5061765e+20
1.562040393e+20
1.587045203e+20
1.657956717e+20
1.69548262e+20
1.666520489e+20
1.821632553e+20
)
;
    }
    obstacle
    {
        type            calculated;
        value           nonuniform 0();
    }
    frontAndBack
    {
        type            empty;
    }
    procBoundary3to1
    {
        type            processor;
        value           nonuniform List<scalar> 
36
(
1.852971259e+20
1.310502344e+20
1.393127933e+20
1.6834552e+20
1.548924901e+20
1.594823977e+20
1.594823977e+20
1.139502301e+20
1.103023229e+20
1.223412554e+20
1.218590591e+20
1.315678373e+20
1.315678373e+20
9.204712405e+19
1.001146199e+20
1.065370843e+20
9.630692737e+19
1.045113767e+20
1.045113767e+20
8.054984206e+19
9.078927765e+19
9.257253594e+19
9.052882221e+19
8.756675309e+19
1.011208734e+20
1.011208734e+20
8.036984892e+19
8.115568767e+19
9.281580135e+19
9.682879806e+19
9.376969838e+19
8.172469136e+19
8.172469136e+19
7.842892212e+19
7.620568376e+19
7.620568376e+19
)
;
    }
    procBoundary3to2
    {
        type            processor;
        value           nonuniform List<scalar> 
19
(
8.409402993e+19
8.618747242e+19
7.701195856e+19
8.320320275e+19
8.257962473e+19
8.698921635e+19
8.28468733e+19
9.001802675e+19
1.015987724e+20
9.66101435e+19
9.424945304e+19
9.910445795e+19
1.136249313e+20
1.021332676e+20
1.07255522e+20
1.105515796e+20
1.175445683e+20
1.395925264e+20
1.273436608e+20
)
;
    }
}


// ************************************************************************* //
