/*--------------------------------*- C++ -*----------------------------------*\
  =========                 |
  \\      /  F ield         | OpenFOAM: The Open Source CFD Toolbox
   \\    /   O peration     | Website:  https://openfoam.org
    \\  /    A nd           | Version:  7
     \\/     M anipulation  |
\*---------------------------------------------------------------------------*/
FoamFile
{
    version     2.0;
    format      ascii;
    class       volScalarField;
    location    "0.001";
    object      internalEMean;
}
// * * * * * * * * * * * * * * * * * * * * * * * * * * * * * * * * * * * * * //

dimensions      [1 -1 -2 0 0 0 0];

internalField   nonuniform List<scalar> 
654
(
1.815872466
1.558865526
1.61470491
1.633624055
1.702568752
1.79661261
1.827108021
1.172876741
1.221294866
1.218066781
1.343673988
1.452838882
1.544508232
1.521717099
1.580596971
1.624633295
1.657832811
1.686360886
0.7331737629
0.7664383566
0.7849172674
0.8707510078
0.9625907902
1.066802472
1.13401999
1.209892452
1.254939315
1.283373613
1.39861148
1.464270818
1.540132564
1.55343034
1.542271557
1.565776266
0.5037827675
0.5195807802
0.5538800371
0.5744314563
0.5929582917
0.6085349002
0.6514468416
0.7088635165
0.770810523
0.8079653054
0.8268268968
0.9019967053
0.9883844839
1.051767907
1.149274973
1.219415743
1.232836777
1.337731206
1.376734775
1.397747313
1.449718197
1.459808407
0.4234097954
0.4123586178
0.4280580685
0.436623615
0.4441211426
0.4547207226
0.4747614381
0.4765412708
0.4982475139
0.5437564545
0.5455639321
0.5707658837
0.6051637079
0.6133004979
0.6696188054
0.7019739216
0.7706221545
0.7830077429
0.8505240763
0.9274827767
0.9875860099
1.042896621
1.124462992
1.171627383
1.218081396
1.308073677
1.340151597
1.455770472
0.4098059375
0.4041996231
0.4229754526
0.4248609143
0.4144501043
0.4147185274
0.4306424187
0.4410538705
0.4626255064
0.4657560406
0.4768487574
0.4865159949
0.5116027067
0.5325740199
0.5512988897
0.5903872254
0.6065461727
0.6286299552
0.6656853992
0.7454989333
0.7830798659
0.8028835379
0.8750072133
0.9167276691
0.9705489114
1.088215091
1.100959868
1.203914046
1.276206958
1.303459002
0.4120897311
0.4124637917
0.3994551226
0.4121198559
0.4179161152
0.4167682949
0.4085188482
0.4195637766
0.4048070867
0.4375387854
0.4459501768
0.450944399
0.4867697129
0.5040272956
0.5212653649
0.5289867127
0.573123512
0.6097889269
0.599845927
0.6193004992
0.6661844943
0.693023926
0.6965608099
0.7978196771
0.8514115191
0.8814795574
0.9701543538
0.9914934354
1.100158181
1.159635995
0.4039303469
0.3943107883
0.3962584825
0.3980617601
0.3971049685
0.3992287268
0.3938158798
0.4074298822
0.4330824029
0.4302058983
0.4491681329
0.46360309
0.4732727549
0.4740207111
0.4814783057
0.4770742189
0.4968153074
0.5121424552
0.5633127408
0.5765471794
0.589934055
0.6542093823
0.6868544314
0.7097229494
0.7829655438
0.8567765023
0.9029055887
0.9449145601
0.9793143155
1.081116579
0.41204687
0.416350262
0.4182439114
0.4120299657
0.415242234
0.4256522155
0.4272701023
0.4371160296
0.426718934
0.4277860817
0.4309198781
0.4221760319
0.4155537245
0.4198627696
0.440896389
0.4668700213
0.4792500952
0.4829868347
0.5274374758
0.5286127405
0.5705939774
0.5939516712
0.6488112309
0.6739842465
0.6773552973
0.7252572804
0.7720921926
0.8619365203
0.8986369749
0.9367645007
0.4260298172
0.4192442717
0.4251744422
0.4310561686
0.4291906185
0.417875008
0.4298204025
0.427368328
0.4243650315
0.4287851982
0.4232648097
0.4335232252
0.4350942635
0.4531658264
0.4425317068
0.445078426
0.4786652593
0.4731649195
0.4583229638
0.4848869534
0.5034872008
0.5115302959
0.5651138331
0.6115752424
0.6634459772
0.6828457574
0.6862431517
0.7435248441
0.7968470944
0.8853090769
0.4288628519
0.4328372873
0.4219165236
0.414171123
0.4228420707
0.4157434496
0.4254167455
0.4340898029
0.441705601
0.4436597009
0.4441444457
0.4433421471
0.4455973265
0.4503915308
0.4497115435
0.4506710982
0.4414902943
0.4490886501
0.4661802042
0.4876221557
0.4994286682
0.5191329932
0.5245078938
0.5384065758
0.5994298987
0.6267643528
0.6761161868
0.7176466731
0.7742340238
0.8294880622
0.4139171582
0.4175070447
0.4178162147
0.4183864679
0.4222608557
0.4241912125
0.4154175629
0.422075115
0.4259816072
0.426816852
0.4274781759
0.4302394981
0.4496213885
0.4353408249
0.4463981174
0.4578507367
0.4572960461
0.4632221595
0.4687718793
0.4680274503
0.489371849
0.4912643613
0.5061631611
0.5117702132
0.5559115235
0.5988391582
0.6016051377
0.6604048025
0.6930013287
0.7429707302
0.4303335176
0.4292011961
0.4274748643
0.4220654347
0.4240236325
0.4300871153
0.4440130999
0.4295197908
0.4379650834
0.4240147333
0.4112217633
0.4172128598
0.4268142034
0.4367704994
0.432238099
0.4347887631
0.4533627571
0.4542620566
0.4440840851
0.4734266276
0.4866510613
0.5077595972
0.5323188827
0.5357369385
0.5322160437
0.5559924278
0.58606351
0.5985658569
0.6228584475
0.6852733589
0.4108845672
0.4172789937
0.4174299235
0.4213674374
0.405385263
0.3963452978
0.4001058821
0.4013498567
0.382870193
0.39605726
0.4057619494
0.4132934938
0.4058436164
0.4158963763
0.4180242544
0.4386163173
0.439643011
0.4741077331
0.4951675759
0.4960826124
0.4994763085
0.4849056538
0.4890634709
0.4844686191
0.506041677
0.5111311393
0.5487383514
0.5653858488
0.5894005858
0.6304375531
0.4164316255
0.4144700712
0.4121773924
0.4026013278
0.4056145479
0.4056682682
0.395786416
0.3870669761
0.3865842064
0.393280198
0.4105864015
0.4319701976
0.4227293987
0.4262189709
0.4432626891
0.4516148595
0.457151251
0.4441557795
0.4368954311
0.4355819301
0.4394818108
0.4489671829
0.4511879998
0.4796760255
0.4917579978
0.5000746845
0.5079778602
0.5088256026
0.5274174098
0.5400719906
0.4051655933
0.4044220497
0.3979883238
0.3988489104
0.3885714828
0.3951244451
0.3963579429
0.4043239713
0.4159553411
0.4202280277
0.4113349933
0.4165072024
0.4353737123
0.4351094346
0.4215191653
0.4256551084
0.409146858
0.4164177806
0.4282941536
0.4245746194
0.4275339848
0.4315626674
0.4533226743
0.4478745291
0.4495897887
0.4646893966
0.4666606927
0.4764827935
0.4942424912
0.5148248933
0.3812527329
0.3810337606
0.3963578807
0.410207934
0.4272515449
0.421005911
0.4369570205
0.4301623121
0.420928435
0.4118428386
0.4298159746
0.4263279986
0.4154620327
0.4144179037
0.4134761483
0.4194851045
0.4234222212
0.4180683795
0.4246385799
0.4320168529
0.4307586658
0.4346258439
0.4089736961
0.4225522484
0.4338665717
0.4439881896
0.4462634412
0.4576398109
0.4683221862
0.4782147455
0.396897423
0.4019027295
0.396907808
0.4140982711
0.408631447
0.4159003901
0.4084213792
0.4207836081
0.4192649976
0.4224057607
0.4231029339
0.4162882881
0.4258739493
0.4197647012
0.4267089723
0.4159623756
0.4189161902
0.4202931194
0.4380425333
0.4430291358
0.4503502783
0.4354086982
0.4502050118
0.4427229015
0.429627137
0.4423139178
0.4689676104
0.4618358078
0.4699114906
0.473992279
0.4368102243
0.4257008058
0.4283970807
0.4210386818
0.4208594265
0.431323911
0.4286246334
0.4288286022
0.4410065525
0.4334918771
0.4323872798
0.4344189437
0.4304455187
0.4198837873
0.4278703105
0.4225259803
0.4157440244
0.4144866803
0.4105377931
0.4097042455
0.4168000129
0.4294259781
0.4302562262
0.4581203474
0.4550090038
0.4565589855
0.4651456202
0.4741788903
0.4814409146
0.4798771242
0.4466921399
0.4380207645
0.4378554604
0.4402366786
0.4438031774
0.4333038392
0.4408268971
0.4414092244
0.420827237
0.4183174173
0.4174983785
0.4179077811
0.4309586582
0.4309214988
0.4201972363
0.4195007246
0.4268771811
0.426966293
0.4342986871
0.4277382887
0.4310221162
0.4518173095
0.4631189992
0.4657155848
0.4654666892
0.4609778869
0.4570802126
0.462885107
0.4638947589
0.4728408794
0.4349101816
0.4420511154
0.4441394422
0.4335123172
0.4301099417
0.4243432263
0.4090539094
0.4132317277
0.4172613235
0.4199957766
0.4232197128
0.4139453129
0.3996251342
0.4028009658
0.4155077831
0.419010032
0.4196524135
0.4073469527
0.4198061811
0.4157401362
0.4223507532
0.4268162457
0.4359894767
0.4204958189
0.4199697844
0.4253968979
0.4323803459
0.4433555969
0.4633372211
0.4500140566
0.4024495579
0.3905219314
0.3928478161
0.3974259556
0.4137147266
0.412505447
0.4150954661
0.4142920154
0.4208590621
0.4184127798
0.418425884
0.4187612879
0.4348233241
0.4244720653
0.4188948996
0.4210736622
0.4137715218
0.4247604998
0.4231584616
0.4234631872
0.41924663
0.416234801
0.4090636512
0.4155251323
0.403031241
0.4147937765
0.4078552183
0.396907121
0.4043574103
0.4199130975
0.4186244385
0.4355998622
0.4403622883
0.4255167878
0.4156418544
0.4239999656
0.4221685437
0.4207618718
0.4127245472
0.4197600847
0.4160145599
0.4248679147
0.4132881133
0.4147996657
0.4258550312
0.4263359232
0.4298113754
0.4368446245
0.4131994665
0.4202829702
0.4168995047
0.4143323904
0.4074319057
0.4079987754
0.409899763
0.4024381756
0.4058056139
0.4026388228
0.4088890531
0.4140515335
0.418692184
0.3999742758
0.3959833269
0.3941939481
0.4011900713
0.3983357648
0.3992318893
0.3982485603
0.4010409769
0.4127094075
0.3985620701
0.3985605768
0.4062904515
0.4092411924
0.4058476631
0.4159291311
0.4086568326
0.4028250696
0.4186388039
0.4043184674
0.4009578426
0.3989207533
0.4084100892
0.4116490795
0.4229706693
0.421116319
0.4230325252
0.4270428263
0.4244542209
0.4235366823
)
;

boundaryField
{
    flow
    {
        type            calculated;
        value           nonuniform List<scalar> 
55
(
1.815872466
1.827108021
1.686360886
1.565776266
1.459808407
1.455770472
1.303459002
1.159635995
1.081116579
0.9367645007
0.8853090769
0.8294880622
0.7429707302
0.6852733589
0.6304375531
0.5400719906
0.5148248933
0.4782147455
0.473992279
0.4798771242
0.4728408794
0.4500140566
0.4199130975
0.4140515335
0.4235366823
0.418692184
0.3999742758
0.3959833269
0.3941939481
0.4011900713
0.3983357648
0.3992318893
0.3982485603
0.4010409769
0.4127094075
0.3985620701
0.3985605768
0.4062904515
0.4092411924
0.4058476631
0.4159291311
0.4086568326
0.4028250696
0.4186388039
0.4043184674
0.4009578426
0.3989207533
0.4084100892
0.4116490795
0.4229706693
0.421116319
0.4230325252
0.4270428263
0.4244542209
0.4235366823
)
;
    }
    obstacle
    {
        type            calculated;
        value           nonuniform 0();
    }
    frontAndBack
    {
        type            empty;
    }
    procBoundary3to1
    {
        type            processor;
        value           nonuniform List<scalar> 
36
(
1.783853722
1.668438945
1.752388909
1.781298408
1.84001597
1.792682822
1.792682822
1.256866628
1.342653067
1.407406091
1.428674402
1.517363294
1.517363294
0.7871615836
0.848041758
0.9516979139
1.039095621
1.127387981
1.127387981
0.4841318407
0.4979628384
0.5315003832
0.5661568469
0.6203495262
0.6657729533
0.6657729533
0.4229923019
0.4453223028
0.4603956586
0.467362076
0.4817094
0.4993287351
0.4993287351
0.4073285954
0.4177511754
0.4177511754
)
;
    }
    procBoundary3to2
    {
        type            processor;
        value           nonuniform List<scalar> 
19
(
0.4185526426
0.4010189305
0.4123207282
0.4141113183
0.4248089498
0.4192855437
0.4051901083
0.429978464
0.4206127552
0.4219501054
0.4092709381
0.3897418993
0.3846360166
0.4354941579
0.4404113331
0.4414086532
0.4025804779
0.4130686713
0.4177456661
)
;
    }
}


// ************************************************************************* //
