/*--------------------------------*- C++ -*----------------------------------*\
  =========                 |
  \\      /  F ield         | OpenFOAM: The Open Source CFD Toolbox
   \\    /   O peration     | Website:  https://openfoam.org
    \\  /    A nd           | Version:  7
     \\/     M anipulation  |
\*---------------------------------------------------------------------------*/
FoamFile
{
    version     2.0;
    format      ascii;
    class       volScalarField;
    location    "0.001";
    object      internalT;
}
// * * * * * * * * * * * * * * * * * * * * * * * * * * * * * * * * * * * * * //

dimensions      [1 2 -2 0 0 0 0];

internalField   nonuniform List<scalar> 
654
(
632.7450703
566.2206483
586.9758783
576.6788096
605.0550378
619.2155237
632.6712508
503.22224
516.3450652
507.365275
540.094378
560.8872822
564.706178
554.6257546
568.9500651
576.8835144
588.8641124
595.1207164
405.3057098
411.2878713
414.1775699
434.1899752
461.7105487
485.2037506
487.2217761
502.1228049
503.8288881
509.9103563
538.4444222
548.2370255
566.6382817
563.8152236
560.3833542
571.1990724
327.8648335
333.5847277
353.341785
360.4794532
365.0487925
369.7721347
383.1550394
398.2402299
413.9381111
430.8563426
417.8291273
441.1487689
454.4868632
467.9972862
494.0769975
502.9613593
501.5480149
527.6817649
532.9320036
534.2670158
541.3968639
544.1764436
306.827537
296.3263638
302.071746
304.2822935
310.7028985
317.4058851
324.47162
324.9056157
335.5219592
350.7968062
353.1480924
362.3502635
374.482415
372.0472333
388.1974165
396.7954002
414.3026872
413.5200414
429.9101056
439.849832
447.0651516
467.6650505
478.914898
491.1832124
491.4643721
512.7042197
510.2066629
536.6905018
294.1510336
291.4999367
297.8289406
303.3774618
301.358312
300.7417631
306.3419852
305.775567
315.1851615
320.3041313
319.6729561
324.7382448
337.394911
349.9701688
348.5196135
363.7529715
369.6011918
366.5537781
373.1324371
397.2592845
408.0203536
419.5861133
437.41643
446.2764214
459.1523314
477.7071616
479.5234621
499.631584
525.1303216
518.428492
297.5765511
299.1427184
292.1975299
294.2795412
298.9537851
297.7846834
294.816789
302.7311696
293.7716237
313.630064
314.0898926
315.1694968
320.3005315
320.608468
329.0304948
328.2450073
346.4938391
364.131858
357.0814103
365.3168259
379.5556423
380.9016872
379.9111831
404.5304095
428.1406329
437.2521123
458.1327146
452.1233813
472.8603415
481.1738967
291.8803769
293.6864577
293.9141412
296.1626947
291.7243368
294.9416019
291.0101335
302.9688212
316.482738
308.227282
313.11318
319.7999671
322.8919506
326.8618076
330.6413495
323.6369798
330.0460522
332.749315
363.7674417
359.3983984
357.3178818
384.9751395
386.367789
393.5356981
409.1892693
424.5989656
428.3887295
436.6499421
437.1010891
465.6949992
299.3533708
296.9220032
298.3271105
296.3599761
299.571086
303.0185415
299.7292945
304.6314242
297.9350899
298.06641
302.3649577
300.3673475
297.4336124
297.3077467
308.8488403
321.0345396
327.696174
331.9692355
341.2294589
346.2966642
361.9133334
367.320161
387.5066331
386.7407151
377.9766499
389.5863289
402.2548194
426.4622131
435.3177794
445.4815542
304.3078421
302.0100133
303.6109296
304.1557963
299.2990515
298.3013244
304.9840516
301.4736521
300.7128271
303.4603068
298.5338789
302.6373684
307.6803686
314.8598299
310.821038
317.6018746
328.636685
325.6936126
315.6030486
326.8992026
334.0363485
334.9254251
344.5858655
357.0354152
378.3890879
383.3599172
383.3605653
400.3867564
421.1510166
443.3186537
308.5843807
307.652916
304.1519181
296.750895
297.7205354
299.5989792
304.3783837
304.0443663
307.3397189
306.9281735
306.2574866
306.9650862
307.7177402
311.819666
316.5546052
314.1047611
311.441631
310.6342687
312.7154751
319.368257
319.4962879
326.8963989
330.7746988
332.3160489
351.0591905
359.0607659
375.535786
383.2635202
400.8602981
422.3542087
304.272483
301.0292179
300.3792774
304.750058
306.6108922
301.7022438
297.9839486
302.4060503
305.0590281
306.7465739
310.283074
310.1936121
321.7394193
314.1316562
316.0652084
321.7621435
314.4955968
317.381074
318.2627741
315.3799029
326.3216517
325.0060408
331.5601714
335.1409146
342.7753314
358.0768508
355.6154693
374.0614816
380.2871538
390.1798867
302.4964704
304.663046
305.4593222
303.6473359
303.3920128
303.2604122
307.8364139
305.3826332
308.909599
304.0805129
299.7925717
302.9355498
311.0120149
306.8994345
306.4888283
307.9650627
315.9071114
317.3975607
313.8961545
323.9671964
324.0368553
331.8996715
347.7680108
344.9451668
346.641523
350.5819012
359.6902383
359.3112309
364.0633264
381.1367963
298.3746699
297.650563
298.0806785
300.6789108
293.608925
290.8081968
291.127771
294.1626901
282.7809359
285.8664454
292.6038294
299.1384516
294.4922232
300.2493459
300.9023384
308.0188551
312.6926675
324.8394257
331.7632796
331.5514003
329.7871495
324.890937
321.3696864
322.5339948
328.6283368
332.3066537
339.0917721
345.1542795
352.7842386
365.011791
294.7781001
292.3287058
298.1445662
291.1700767
296.377799
301.3453011
296.7285794
289.3017182
290.4651219
291.2513536
298.4566942
304.6339499
297.0105949
299.7016238
306.9442256
309.1390981
312.7357405
308.3541964
305.8069951
306.5237083
305.8599574
312.2224817
312.5605511
318.2383412
317.0309409
321.7078059
329.0777485
325.834301
334.3228404
339.5226529
296.4890358
300.4493666
294.1000702
298.5067484
291.328405
291.4248923
294.2269483
297.4100364
303.8937613
305.0648459
308.3656955
310.1620537
318.5894437
316.9399169
306.7715715
306.7120509
299.2934014
301.4637572
305.5090632
304.483436
304.8602105
301.1155303
305.9007745
307.0824281
314.7875337
323.1462153
324.6008503
323.1843294
325.8512134
331.352841
288.2681566
289.9978801
302.0153203
305.775985
311.1719828
311.9192007
315.4873613
313.0331149
313.6338812
303.878884
305.4587583
302.4514157
296.2159529
295.9634039
297.7764828
295.5227949
299.2142644
293.1231849
294.3606062
300.7402126
302.7716282
311.1202203
302.8396323
304.9892996
311.1479639
316.0858709
315.2801305
318.0679717
320.4538982
325.8561832
296.0755948
296.925855
290.2674528
298.5276617
294.9376109
300.8972575
300.2931299
299.9371844
296.6838106
298.3852261
301.4756829
296.0364517
303.2722769
301.1810349
302.2723552
298.4555591
299.6709755
307.1011666
313.1801297
320.1137716
320.8806167
311.8440547
321.5024557
317.4143199
311.805612
316.6034384
326.8144181
325.0849072
322.8327257
319.4683506
304.2012199
298.9340922
300.4494498
303.8779648
298.6055334
301.8740868
298.1049531
303.4822811
308.6907621
305.3580531
305.1119222
304.7678622
306.6761031
302.9033951
309.1418081
306.6874888
305.1374401
307.9539096
306.9852735
300.4087679
305.9149345
307.8012799
306.851931
315.9636467
313.0621079
316.0753048
321.7485552
324.7689723
326.3842564
321.1360064
318.3623383
312.5850825
315.4275759
313.0823049
314.3862043
309.2442699
309.5911725
309.454076
300.7300786
302.5852085
305.4849444
309.651336
313.4889668
310.1765285
305.8095056
304.0308592
306.5971706
301.681895
305.5921481
301.9982205
306.63327
317.3554602
319.2738969
322.8611509
322.6772319
312.2484798
304.5611154
310.7062411
313.9914162
320.9899613
303.7297026
305.3969736
308.0268389
305.752218
302.2266894
298.7362392
296.1723957
298.2326136
298.3922993
294.2018568
297.5201568
292.4783518
287.8518746
288.0190793
294.5537065
297.5221909
296.9921465
296.3391948
303.9412429
304.4328545
305.112365
305.209913
308.2616702
303.0161476
301.1818652
311.51276
305.0595276
306.9046578
309.4510234
306.3117987
300.9126187
295.4650285
292.1336058
293.476819
297.0331497
299.1368997
300.5467392
300.5558497
301.9598109
301.2091906
302.1001361
300.9677194
303.9846261
302.6996916
297.610204
298.7660171
296.5863007
299.0020882
296.7104639
298.5247832
298.10214
293.8736961
293.2825363
297.0419034
285.5705732
291.5238196
291.136007
289.2081076
292.1087347
297.6160171
295.4881018
300.7455467
302.4402061
296.7327968
294.1709975
296.9486772
298.8675369
298.1868359
299.8754033
299.9592989
298.2718523
304.545472
300.0420488
301.0947878
306.4629481
307.2026245
308.9381823
308.3532843
297.4673671
299.6272471
296.816223
297.4508957
293.1994228
296.8797476
300.8529949
293.7215785
293.8466849
296.3025392
299.5142134
298.1157547
308.133419
302.1173291
295.1552023
295.0928224
298.2914389
300.200342
294.7300513
291.8198166
293.632705
297.8143631
290.9887109
291.1729045
299.6906777
299.5162748
301.4234705
306.5450071
308.1901391
301.7486484
309.4921783
297.8744435
295.5470547
294.6732932
294.8435911
294.0361588
297.4805651
303.1585326
309.5804539
306.9348211
306.7994649
300.1842553
)
;

boundaryField
{
    flow
    {
        type            calculated;
        value           nonuniform List<scalar> 
55
(
632.7450703
632.6712508
595.1207164
571.1990724
544.1764436
536.6905018
518.428492
481.1738967
465.6949992
445.4815542
443.3186537
422.3542087
390.1798867
381.1367963
365.011791
339.5226529
331.352841
325.8561832
319.4683506
321.1360064
320.9899613
306.3117987
297.6160171
298.1157547
300.1842553
308.133419
302.1173291
295.1552023
295.0928224
298.2914389
300.200342
294.7300513
291.8198166
293.632705
297.8143631
290.9887109
291.1729045
299.6906777
299.5162748
301.4234705
306.5450071
308.1901391
301.7486484
309.4921783
297.8744435
295.5470547
294.6732932
294.8435911
294.0361588
297.4805651
303.1585326
309.5804539
306.9348211
306.7994649
300.1842553
)
;
    }
    obstacle
    {
        type            calculated;
        value           nonuniform 0();
    }
    frontAndBack
    {
        type            empty;
    }
    procBoundary3to1
    {
        type            processor;
        value           nonuniform List<scalar> 
36
(
624.6703179
591.9590323
605.1586194
609.222742
619.8744041
618.2763233
618.2763233
508.7799677
527.3553504
542.3198618
546.131226
563.5102162
563.5102162
423.4357332
431.8523897
459.1652535
481.8340153
497.189361
497.189361
337.478078
343.6284702
357.5926453
365.7250352
377.8826592
387.1558109
387.1558109
310.127851
322.3621578
323.5801974
326.5819827
326.8500439
329.8982255
329.8982255
302.8772552
303.4581328
303.4581328
)
;
    }
    procBoundary3to2
    {
        type            processor;
        value           nonuniform List<scalar> 
19
(
300.0298965
293.5430379
296.4120092
301.363029
304.7160747
303.8367234
299.6310594
302.6829456
300.7774035
296.6461351
294.8060389
295.9458444
288.1000625
304.9157385
313.8999435
304.0815466
297.9722921
295.5776509
306.4075678
)
;
    }
}


// ************************************************************************* //
