/*--------------------------------*- C++ -*----------------------------------*\
  =========                 |
  \\      /  F ield         | OpenFOAM: The Open Source CFD Toolbox
   \\    /   O peration     | Website:  https://openfoam.org
    \\  /    A nd           | Version:  7
     \\/     M anipulation  |
\*---------------------------------------------------------------------------*/
FoamFile
{
    version     2.0;
    format      ascii;
    class       volScalarField;
    location    "0.001";
    object      linearKEMean;
}
// * * * * * * * * * * * * * * * * * * * * * * * * * * * * * * * * * * * * * //

dimensions      [1 -1 -2 0 0 0 0];

internalField   nonuniform List<scalar> 
654
(
3.307092077
2.574628763
2.565952615
2.559716081
2.805027078
2.953971339
2.964967119
2.090413407
2.152970773
2.303272879
2.342614867
2.470356067
2.438341224
2.592662673
2.523130498
2.713993594
2.972486867
3.32562872
1.965497531
1.953968374
1.957247108
1.993507236
2.121837174
2.253311204
2.28824764
2.352253821
2.463369109
2.548875223
2.683415406
2.609491734
2.826299512
2.879855281
2.941142963
3.080201522
1.622333331
1.615303073
1.694669381
1.681095903
1.659132704
1.767063131
1.783826624
1.867469618
1.894610875
1.987740141
2.118618459
2.156918745
2.187045744
2.121725669
2.275657058
2.289675526
2.417797542
2.53557287
2.488905624
2.656679125
2.772708929
3.071953337
1.348127511
1.438362888
1.537893263
1.599784123
1.615061844
1.612544261
1.689919429
1.633217809
1.649522006
1.775443356
1.763811029
1.792182577
1.869712592
1.84578629
1.887759439
1.961896614
2.051081908
2.117329991
2.15644385
2.239002162
2.242854918
2.372593268
2.453350298
2.458506156
2.679232883
2.860962745
2.761483877
2.794164072
1.427675401
1.458663413
1.452869363
1.461647999
1.416844685
1.569907561
1.596630814
1.549908338
1.673329403
1.735741828
1.761967745
1.822624018
1.840629711
1.805622984
1.885591181
1.935827703
1.912902612
1.957156445
1.965659889
1.996539194
2.175757075
2.247719415
2.227094797
2.245888319
2.378395518
2.433785643
2.474995484
2.370212254
2.527487222
2.823404524
1.349096415
1.383558188
1.422088871
1.505190985
1.526633009
1.477159084
1.580408031
1.624486936
1.539174795
1.581790221
1.666680523
1.721137427
1.735950144
1.870296477
1.881744466
1.935819293
1.859211922
2.005325989
1.988103679
1.984974721
2.122291339
2.100982966
2.221781044
2.35857273
2.423958552
2.403562302
2.561685697
2.66044545
2.732750672
3.042881454
1.254009243
1.348614973
1.411768308
1.469704523
1.494708955
1.552152676
1.536685739
1.596577743
1.667062452
1.620382354
1.696041357
1.77262259
1.782287343
1.875684723
1.86488904
1.884740041
1.873586742
1.892583667
2.105248503
2.24635551
2.453569081
2.550006678
2.586943127
2.462636798
2.515321893
2.579130175
2.712211132
2.761611783
2.768865439
2.955889494
1.431573264
1.436145872
1.489467192
1.448374237
1.428772015
1.477181202
1.569495023
1.57764692
1.556422303
1.633263656
1.68335989
1.746177007
1.779796019
1.790976914
1.841290756
1.841063876
1.984325012
2.201790657
2.120558018
2.149592506
2.159795646
2.121177244
2.232522983
2.295200581
2.442412276
2.373842342
2.494319277
2.592633798
2.687842604
2.958872033
1.316621651
1.347811725
1.404898217
1.399308931
1.421589517
1.429832577
1.579251049
1.623162616
1.688144687
1.774644712
1.768965467
1.815566014
1.897457634
1.876348287
1.904110651
1.919388091
1.910544508
1.956861179
2.023400521
2.044441711
2.082307154
2.114884982
2.199620427
2.304032289
2.431272075
2.425924481
2.430385041
2.493828851
2.582530788
2.770411647
1.252924133
1.280558144
1.351131472
1.39504676
1.407196574
1.486537037
1.544875806
1.518972798
1.646737808
1.674227626
1.672328471
1.700338719
1.631936222
1.796759149
1.782921269
1.926421072
1.92841221
2.048120349
2.074337653
2.11892216
2.148870435
2.228848902
2.240935202
2.259864321
2.429544639
2.392399374
2.500282862
2.466790145
2.479084315
2.657696745
1.451176546
1.450185203
1.382051382
1.391841019
1.493568118
1.543816679
1.565849347
1.581008957
1.560361263
1.555661842
1.720565896
1.834017791
1.850974468
1.871446659
1.802048371
1.901995447
1.831220005
1.953465734
2.076244497
2.049075863
2.146829885
2.134544802
2.175926858
2.225088474
2.27359394
2.314825416
2.327590544
2.300188495
2.442461602
2.665627493
1.316216248
1.343849799
1.409710154
1.446094767
1.537793483
1.500927099
1.599854775
1.605377157
1.76108036
1.839576261
1.834259986
1.798015355
1.739095765
1.779419753
1.913818358
2.033788635
1.992839571
2.074661037
2.094305989
2.158125124
2.301550193
2.39596452
2.255274365
2.28415748
2.268810705
2.255766062
2.318347804
2.498647258
2.678183376
2.807167419
1.351114259
1.379433913
1.406066719
1.418110157
1.517135613
1.585150615
1.617636856
1.587777641
1.525507978
1.529063032
1.547971249
1.561353543
1.693487073
1.677978285
1.791169343
1.781320804
1.871014836
2.050805692
2.02590221
2.035326237
1.998670615
2.029662909
2.083353677
2.147423891
2.176845501
2.349803194
2.429037051
2.479784023
2.652007849
2.744798193
1.383221981
1.494161095
1.532280919
1.550545981
1.529467224
1.460435321
1.536760958
1.504781718
1.54125705
1.687470751
1.720227603
1.723005667
1.744909255
1.81266783
1.8510979
2.020357084
2.054743441
2.056087524
2.117674707
2.142890889
2.122632853
2.138958282
2.098181769
2.218920264
2.272360099
2.320966952
2.347067061
2.53304001
2.580954868
2.786436886
1.329736031
1.368067226
1.36690465
1.349527428
1.465367549
1.421622374
1.530263756
1.538810955
1.521779863
1.630043858
1.66020331
1.790938598
1.861100979
1.841620409
1.820541345
1.891001862
1.818815614
1.767987013
1.795071938
1.775821443
1.998487281
1.959093436
2.122107988
2.17675045
2.261577708
2.361550849
2.422869973
2.397429145
2.577295416
2.580728367
1.31833796
1.276922228
1.34012929
1.343983378
1.42866344
1.4984223
1.501240315
1.521359379
1.624687958
1.601115434
1.651157791
1.640865926
1.684957143
1.700098555
1.76265652
1.799219369
1.727126874
1.822979202
1.892498609
1.9621949
2.067320777
2.038684353
2.121617665
2.122698008
2.189421575
2.233342039
2.191387347
2.332134057
2.286704007
2.334295883
1.301548629
1.286015015
1.484589713
1.418587152
1.505578539
1.487151934
1.482084333
1.486381786
1.566905305
1.606113735
1.663337995
1.704990813
1.772245396
1.770354106
1.723988239
1.738824441
1.752455587
1.785102718
1.922743495
2.102444406
2.035814637
2.060005591
2.082253502
2.188716445
2.121201573
2.171033942
2.190255574
2.225329061
2.173216767
2.324493003
1.306934377
1.232702845
1.328113048
1.346613316
1.358298227
1.47143229
1.554703753
1.60553619
1.583590859
1.656928486
1.674567296
1.65247532
1.719371662
1.732580316
1.794244204
1.811458267
1.938955286
1.897048805
1.85831151
1.803661359
1.835289955
1.845418744
1.998802064
2.033936138
1.997415585
2.031627734
2.018588435
2.101471532
2.286922449
2.348837146
1.325562358
1.385245185
1.492495583
1.459718864
1.458015535
1.461729665
1.50146054
1.538829811
1.593370865
1.536340378
1.569215704
1.561850592
1.633720863
1.702920864
1.650278267
1.618229523
1.650982225
1.722060591
1.761880371
1.905273858
1.803791799
1.676188398
1.732310465
1.883697038
1.921513598
2.032842338
2.070620204
2.137604192
2.18376751
2.138035118
1.37973148
1.401817323
1.371766231
1.343149371
1.39008283
1.411192451
1.45946302
1.515512813
1.509728394
1.511198024
1.42570052
1.59408008
1.547789103
1.586787869
1.69996707
1.729894583
1.743696883
1.714885499
1.702359912
1.616494518
1.684353587
1.686034772
1.744828386
1.715250911
1.822140134
1.738147795
1.738048916
1.752018707
1.903182099
1.945631829
1.265087227
1.233008786
1.174757921
1.216326212
1.270278196
1.266489044
1.304682255
1.349146578
1.300069
1.358169758
1.27597177
1.386466532
1.419171914
1.33002836
1.406664988
1.377524185
1.398888048
1.357129105
1.406155522
1.448913973
1.438659764
1.453060798
1.488405657
1.558252378
1.545235794
1.594583035
1.6780919
1.694253262
1.725151735
1.914439778
1.098852348
1.165242217
1.118953942
1.166916726
1.220598552
1.206600061
1.186923731
1.21380881
1.224374967
1.178505447
1.196504543
1.175734449
1.168177224
1.226308662
1.287381498
1.288547593
1.304310938
1.299757832
1.327092632
1.285686065
1.351079951
1.264695814
1.27135276
1.300803689
1.355993004
1.417178624
1.455393418
1.57101399
1.563928894
1.526472896
0.8749765301
0.9204453534
0.9618454558
0.9527067756
0.9651653822
0.9690295009
1.022848056
0.9868959123
0.9763739397
0.9700029472
0.9569613294
0.9817281342
1.020696042
1.075563767
1.082016167
0.9953353079
1.061835861
1.06038436
1.059455836
1.044435373
1.128739288
1.127909299
1.166791692
1.151174396
1.212151507
1.185235011
1.199982837
1.147089991
1.148718241
1.330494996
)
;

boundaryField
{
    flow
    {
        type            calculated;
        value           nonuniform List<scalar> 
55
(
3.307092077
2.964967119
3.32562872
3.080201522
3.071953337
2.794164072
2.823404524
3.042881454
2.955889494
2.958872033
2.770411647
2.657696745
2.665627493
2.807167419
2.744798193
2.786436886
2.580728367
2.334295883
2.324493003
2.348837146
2.138035118
1.945631829
1.914439778
1.526472896
1.330494996
0.8749765301
0.9204453534
0.9618454558
0.9527067756
0.9651653822
0.9690295009
1.022848056
0.9868959123
0.9763739397
0.9700029472
0.9569613294
0.9817281342
1.020696042
1.075563767
1.082016167
0.9953353079
1.061835861
1.06038436
1.059455836
1.044435373
1.128739288
1.127909299
1.166791692
1.151174396
1.212151507
1.185235011
1.199982837
1.147089991
1.148718241
1.330494996
)
;
    }
    obstacle
    {
        type            calculated;
        value           nonuniform 0();
    }
    frontAndBack
    {
        type            empty;
    }
    procBoundary3to1
    {
        type            processor;
        value           nonuniform List<scalar> 
36
(
3.09343876
2.653806901
2.784525001
2.99712559
3.003458858
3.101901261
3.101901261
2.377046626
2.338404504
2.384867358
2.526055469
2.497468187
2.497468187
1.93620881
1.966690353
2.070121782
2.061511853
2.122491713
2.122491713
1.563766468
1.691177494
1.75378142
1.779780129
1.835388218
1.925559036
1.925559036
1.355033802
1.410046562
1.4658818
1.557463191
1.605066634
1.589745695
1.589745695
1.198985471
1.248630811
1.248630811
)
;
    }
    procBoundary3to2
    {
        type            processor;
        value           nonuniform List<scalar> 
19
(
1.383940581
1.306407905
1.209241002
1.407107546
1.261390603
1.217396523
1.352276833
1.251028636
1.376877321
1.344709819
1.331509239
1.333746727
1.314484102
1.241077326
1.277090827
1.26681621
1.2384814
1.07762219
0.8672196198
)
;
    }
}


// ************************************************************************* //
