/*--------------------------------*- C++ -*----------------------------------*\
  =========                 |
  \\      /  F ield         | OpenFOAM: The Open Source CFD Toolbox
   \\    /   O peration     | Website:  https://openfoam.org
    \\  /    A nd           | Version:  7
     \\/     M anipulation  |
\*---------------------------------------------------------------------------*/
FoamFile
{
    version     2.0;
    format      ascii;
    class       volVectorField;
    location    "0.001";
    object      momentum;
}
// * * * * * * * * * * * * * * * * * * * * * * * * * * * * * * * * * * * * * //

dimensions      [1 -2 -1 0 0 0 0];

internalField   nonuniform List<vector> 
654
(
(-6.108214747e-05 -0.0001819962529 -0.0005326000636)
(0.0005361807198 -0.000154904086 0.0001535072313)
(0.0004801538162 -0.001407630714 -0.00114062193)
(-0.0003391248842 0.0006328386948 -0.0004197717183)
(-0.0001461073009 0.0003057178751 -0.0004895294447)
(-3.366205576e-05 0.0003977652145 8.926885947e-05)
(0.0002750174967 0.0003697940065 0.0001096705598)
(-0.0006661986348 -0.0004462301483 -0.0003819488053)
(-0.0004286114976 0.0004107430909 -0.0002416988013)
(-0.000347125163 0.0006281316136 -0.0003205124699)
(0.0001207011447 -0.0003772008115 -0.0007296900753)
(0.0002167249278 -0.0002888254357 -0.000159926301)
(0.0006141070724 -0.0006082624196 7.512029084e-05)
(-0.0008362611931 0.0003053000239 0.0002002677442)
(0.0004868796217 -8.105938807e-05 0.001036778001)
(-0.0009232424784 0.0005488430157 -2.332537803e-05)
(-0.001161613727 -5.042761954e-05 -0.0005159995991)
(0.0002980635834 -0.000288304458 0.0002146144936)
(-0.0002718961757 -0.0001755635339 0.0004857632085)
(-0.0001386229661 -0.0004518448001 -0.000515122398)
(-0.0003380616233 5.450896532e-05 0.0003876380772)
(-0.0007180128042 0.0005248877855 0.001242226745)
(-0.0003574084195 0.0005510076846 0.0002260095147)
(-0.000247230024 -0.0009693348821 -0.000189508317)
(0.0003706460203 0.0003462742027 -0.0004812874255)
(5.6659835e-05 -0.0008407487081 0.0004727219727)
(-0.0007666853112 -0.0003233621548 0.0007652134273)
(-0.0005872402834 -0.0002651856836 -0.000261476791)
(0.0002135752443 0.0006657004199 -0.0003298038343)
(-0.0005094795039 0.0003276962128 -0.0005570785872)
(0.0002927057938 -0.0002974392306 -0.0003143737884)
(-0.0005641424359 0.0001982172555 6.663608428e-05)
(-0.0004968753047 0.0007686725202 -6.208033162e-05)
(-0.0003258284151 -0.0005395678297 0.0008250539459)
(-0.0005059569003 -0.0004025328472 0.0003256842433)
(-3.616115541e-06 -0.0002502262767 -0.0003719582241)
(-0.0002201296941 -0.000140975671 0.0006863835196)
(0.0008493934748 -0.0009047382183 0.0002486073824)
(-0.000422802871 0.000642811281 0.0004392794672)
(-9.456323521e-06 0.0002177135688 0.0004876027052)
(-0.0005069888383 -0.000668851139 1.324232542e-05)
(-0.0006355087512 -0.000281109124 0.000505225895)
(0.0004696838293 0.0006120478878 -0.001210945296)
(-0.0009904403627 -0.0008103865293 7.730453993e-06)
(-0.0001072665362 -8.223463999e-05 0.0001421256877)
(-0.0001966258076 -0.00111755152 0.0001290537469)
(-0.0004813773914 0.001027401896 -7.948794836e-05)
(0.0002374914006 -0.000367201598 0.000696277486)
(-1.813745079e-05 -1.935776319e-05 -6.23591668e-05)
(0.0001847894799 0.0001614369448 -0.0004729464626)
(0.0005208085429 -0.0002341042416 -0.0004291140037)
(-0.0001855629449 -0.000269775448 -0.0003597288453)
(-0.0004366229089 0.0004074751459 -0.0008340708769)
(0.0004729450836 -0.0003553401982 -0.000498145106)
(-0.0008263437996 7.436441724e-05 -4.434865426e-05)
(-0.0001058251732 -0.0005602134325 0.0004417295989)
(0.001114391696 0.0003326796231 0.0003329526658)
(-0.0005204048512 -6.106871087e-05 0.0001619542939)
(-0.000139443165 0.0004092185315 6.221432928e-05)
(-0.0003497507993 -0.0005493661085 -8.90271802e-05)
(-0.0002267159023 -3.970930245e-05 -0.0007601846231)
(0.001092587809 -0.0008739359684 0.0009902133206)
(0.0004238867957 -0.000163198013 -0.0002661749722)
(6.209197762e-05 -5.240118196e-05 0.0004233677549)
(-0.0002378033222 0.0004628117862 -0.0001264503518)
(0.0004767056802 -7.972873677e-05 0.0006077319908)
(-4.872541117e-05 -0.00022670582 8.128447191e-05)
(-3.408497912e-05 -0.001073745842 0.0001859275709)
(-1.811964905e-05 8.223251704e-05 0.0002927848231)
(0.0005537563778 0.0003206911625 0.0007059546381)
(-0.0007353194899 -0.0005965377222 -0.0001923434957)
(-8.390304248e-05 -0.0009003808991 -0.0002851236742)
(-0.0003060558202 -5.670950445e-05 0.0003867117257)
(-0.0005320814586 -6.912003862e-05 0.0003003657278)
(-0.0006486722661 0.0001604196337 -5.327800941e-05)
(0.0001336813929 -3.470483548e-05 -0.0001243700076)
(0.0001357585747 -0.001049234799 -0.0002473272631)
(0.0003299897261 0.0003044200794 -0.0002488941618)
(-0.0001135517191 -1.967877656e-05 0.0001923510637)
(-0.0004421366217 0.0004438205485 0.0005053305728)
(0.0001162026003 0.0003007331786 -0.0004771080529)
(-0.0008588205954 0.0009922284617 -4.585091214e-05)
(0.0003252176505 0.0001006347755 0.0001184514574)
(4.185062123e-05 -7.476347453e-05 5.712464821e-05)
(-8.369935081e-05 -0.0001284393153 -2.953118745e-05)
(0.0002101336232 0.0003394681781 0.0001771051065)
(0.0006705201129 -0.000678781031 0.0002730204143)
(-0.0003008186649 -0.0008595303823 -0.0006289914537)
(-6.101514127e-05 -0.000821343858 0.0002879757121)
(-1.917908773e-05 -0.0008170077211 1.602417556e-05)
(0.0003703803937 -0.0006037626892 -0.0004132464421)
(-0.0003258581707 -0.0001278777786 -0.0005416132612)
(-2.460115437e-05 -0.0002764033438 0.0002639049844)
(-0.0003003785598 -0.0003952348942 0.0008711470311)
(0.0003400828103 0.0003342747249 -0.000339276093)
(0.0005655014697 -0.0003897660312 -0.0002138810812)
(-0.0001292494067 -0.0003495587332 -0.000570093559)
(0.0002378737164 0.0003331101209 3.47744273e-05)
(-0.0002677748605 0.0001521243685 2.706167127e-05)
(-0.0002637960163 -0.000225945432 -2.059180857e-05)
(0.0003961371571 -0.000440169834 -0.0002578161347)
(-8.792905319e-06 -0.000559884109 0.0001781511011)
(-0.0002815274087 -2.413498909e-05 0.0008278087774)
(0.001090435032 -0.0005538409118 6.998813295e-05)
(0.001148036653 -0.001142735128 -0.0007718987391)
(-1.037586788e-05 -0.0006743062907 -6.705000709e-06)
(0.0004801668813 0.0002338952682 7.882303181e-05)
(-0.001214280206 -0.0001807801541 -0.0005413399407)
(-0.0005134984525 0.0001764569655 0.0001418222914)
(0.0001139184964 0.0003781331631 -0.0003416485134)
(-0.0009060721363 -0.001013682447 -0.0005559117169)
(-0.0001818413352 -0.0004117042044 0.0008869834201)
(-3.983102723e-05 8.900031596e-06 -0.0005494460882)
(0.0002997726198 -0.0002897056892 -0.0002303641044)
(2.578428476e-05 0.0001784864551 -2.705353522e-05)
(-7.601790145e-05 0.0006432418396 -0.00042367153)
(-7.099340445e-06 -0.0009321030367 -0.0002811187185)
(-0.0007926512291 0.0004447490248 0.0001312180133)
(-0.0001725781069 0.0002194335304 -0.0002792518987)
(0.0002293055549 -0.000650778906 -0.0001956954361)
(0.0008068374182 1.092498509e-05 -0.000438012038)
(0.0002002668787 -0.0003432227521 -0.0004817687393)
(0.0005508425963 -0.0002916426161 0.0002038980587)
(2.800497873e-05 -0.000610389337 1.359884025e-05)
(1.560821211e-06 -0.000331802313 -0.0005300940648)
(-0.0005550993136 -0.001054806483 0.0002186533999)
(-0.0009361247473 0.0001675563552 0.0005491039567)
(8.077947412e-05 -0.000304754455 0.0004028295991)
(0.000114920881 -6.010985527e-05 1.969562484e-05)
(-0.0001545561486 -0.0003483414973 -0.0002738679096)
(0.0001632392806 -6.180392943e-05 -0.0005848378555)
(0.0001997183289 -0.0001355570604 0.0003119559552)
(-0.0004810128275 -0.0003811303733 0.0005838079103)
(4.971286403e-05 0.0003533259531 0.0002091849156)
(-0.0009370580446 0.0006823532526 0.0001817741855)
(0.0001328513679 0.0003721363376 -0.0001954207493)
(7.045278007e-05 5.647246717e-06 -0.0001812001812)
(0.0001098583071 -0.0001720363146 0.0001350272443)
(0.0007513132268 0.000198372486 -0.0004335187837)
(-0.0005058875106 0.0005830749998 -0.000491484809)
(-0.0001004161141 0.0003818773353 -0.0008414428522)
(-0.0005004035888 0.0001292258303 -0.0006635496383)
(-0.0001558441274 -0.0003291623877 0.0008634668506)
(-0.0006373493402 9.966365804e-05 -0.0007915316473)
(0.0006981899591 -0.0002614087906 0.0003930613188)
(0.0003047530458 0.0007024446766 -0.0003808959811)
(-0.0001508960993 -0.0005762900388 -0.0001083565549)
(-0.001267509165 -0.0001046732113 -0.0002631056266)
(-0.0005545208405 0.0002769493862 2.897648406e-05)
(0.0005897865689 8.300285675e-05 -0.0001310172731)
(0.0005615718151 0.0004547577716 0.0001522291076)
(-0.0002183090411 -0.0007510386685 -0.0001956061076)
(-4.505626267e-05 -0.0003067961379 -0.0003137048139)
(-0.0004535049044 -0.000390627996 0.0001878867054)
(6.429160202e-05 -0.0002939521719 9.311270214e-05)
(-0.0003766222842 9.691410091e-05 -0.0007376873397)
(0.0001037465243 -0.0006573770582 0.0005397911707)
(8.636027892e-05 -0.0002342649875 -3.191403862e-05)
(2.418797991e-05 -2.471725052e-05 0.0002661679606)
(0.0005707826146 0.0001022042921 4.422979178e-05)
(0.0006099291985 0.000281116801 0.0001957507457)
(-0.0001618663642 -0.000502308676 0.0008291655368)
(-0.0005561438354 0.0002561391968 0.0001144418644)
(0.000184300801 0.000104956437 0.0003088346644)
(-0.0005370443006 0.0003169008559 0.0005576830956)
(0.0003368198763 2.41675191e-05 1.021340087e-05)
(-0.0008077804725 -0.000137622598 -0.0006130888647)
(-0.0001499051759 0.0001447522313 -0.0002786659108)
(-0.0003959617682 -0.0001942855114 -0.0003012554206)
(8.582646068e-05 -0.0002069811702 -3.075339926e-05)
(-6.760930499e-05 0.0009190066064 9.843291533e-05)
(0.0004962089025 -2.652624239e-05 0.000593055081)
(-0.000191810695 -0.001354102421 -0.0001533867235)
(0.0003513834473 0.0008185712643 0.0002369386554)
(-0.0001512592445 -0.0002548509822 0.000358762885)
(-6.647136594e-06 -0.000825585406 0.0008091593271)
(-0.0004292677605 0.0002843258249 0.0004550993797)
(-0.0007364631026 -6.326745904e-05 0.0002732056719)
(0.0005898849454 -0.0002385264211 0.0002180615408)
(0.0005069571296 5.529304927e-05 -0.0003663351187)
(-0.0005596020126 0.0003007878162 0.0002552594638)
(0.0004944680566 3.169718168e-05 -5.62820139e-05)
(-0.0007608042234 0.0001483923045 -0.0005674388467)
(0.0009195876842 -0.0008355085685 -0.0004653821557)
(-0.000201680718 -7.105228013e-07 -0.0001646387422)
(-1.300146779e-05 -0.0006850946441 -6.776374422e-05)
(-0.0008302032089 0.0002084611175 -0.0002998308819)
(-0.0004789601395 -6.081515968e-05 -0.0002373504227)
(0.0001986763266 -0.0004886036567 0.0008312389513)
(0.0007031105853 -0.0001351076539 -0.0009367262505)
(6.405596627e-05 -0.0005824937654 0.0001550642115)
(-0.0002440557359 -0.0002612408198 0.0001790325029)
(-0.001920199355 -1.281567039e-05 -0.0003553554187)
(-6.429860121e-05 -0.0004809262389 0.0006402834455)
(0 0 0)
(-0.0002294166045 -0.0008261823765 -0.0003240969152)
(-0.001255855709 -0.002007583817 -0.001316049266)
(-9.586998604e-05 -0.000221570906 0.0001669898811)
(-7.895893011e-05 -0.0004559560436 0.0003463907962)
(0.001296569861 0.0005042016797 0.0008724443896)
(0.0006295228539 -0.000282121223 -0.0005306501245)
(-0.0002638339377 -0.0004409936106 -0.0004949481076)
(-0.0005595541988 0.0002601845693 4.032541585e-05)
(8.432564391e-05 6.843133677e-05 0.00066789166)
(0.0003016567001 -0.0004100690823 6.528848082e-05)
(0.0004030188099 -0.0004527559355 -0.0006568965577)
(-0.0004322257542 -2.142593636e-05 4.780949458e-06)
(5.693972693e-05 -0.0001611571601 -0.0002649245586)
(-0.0001522219845 -0.0003846893302 0.000207937443)
(-0.0004828014662 -1.262305179e-05 0.001088478094)
(0.0004243869493 -2.71745092e-05 0.0004096834837)
(0.0001383244133 -0.0002649553426 0.0003508148628)
(9.553724464e-05 0.0003494669893 -0.0005305176653)
(0.0005025418652 -0.0007347171332 -0.0006024581463)
(-0.000391683139 0.0007854067432 8.89857908e-05)
(-0.0001554837408 -0.0003496376146 -4.387960681e-05)
(-0.0004145100253 0.0003974754539 0.0003081254234)
(-0.0006129510731 -0.0007800996085 -0.0005484998883)
(0.0008555317507 -0.0003612480733 7.587263184e-05)
(0.0004544510713 -0.0002393424051 0.0007543710788)
(0.0004591469438 -0.0003105580283 0.0002272585715)
(-0.0008696192312 -0.0003578487616 -9.619610203e-05)
(0.0001556781492 -0.0006026684859 -0.0002549463686)
(0.000221257827 -0.0005640472734 -0.0006060635974)
(-0.0004132885607 0.0001363381157 0.0001149844477)
(-0.0007329130176 2.02796612e-05 -0.000394467817)
(5.2711203e-05 0.0002528958513 -0.0001543306125)
(-0.000343315612 0.0001073927811 0.0004238636825)
(-0.0008744277524 -0.001465004836 -0.001539528448)
(0.0002078498437 -0.0002927797296 -0.0004910564375)
(0.0001412843677 -0.0009376939027 0.001096609204)
(-0.0004262709782 6.139194253e-05 0.0003724812299)
(1.847780805e-06 0.0001377822476 0.0006015160631)
(0.0002963414947 -0.0005419446729 -4.23627757e-05)
(0.001248427009 0.0002295159859 -0.0001976298295)
(-0.0003209804196 -0.0002640309273 -0.0002350134985)
(-5.297403722e-05 -9.46543308e-05 0.0001815378531)
(-0.0002764147761 0.0004837997652 1.295577078e-05)
(0.0008647160331 0.000320674569 -0.0003725190891)
(-0.0005716358589 -0.0003505911217 -7.87297877e-05)
(0.0002998389767 -0.001064274273 0.0004041199585)
(0.0004783147094 -0.0004052157273 0.0001631704666)
(0.0003607612967 0.000109391966 9.627834407e-05)
(0.0006583078008 -0.0001476596674 0.000659389199)
(-0.0005060957574 -0.0005533935053 9.274315572e-05)
(-0.0003589288653 -0.0002807802333 -0.0004871376502)
(0.0005125882768 0.0003687083264 0.0002244255359)
(3.419271373e-05 -2.052953509e-05 -0.0001488003033)
(-0.0004118689792 -0.0002877674522 -8.629988653e-05)
(-0.0008210818257 -0.001058355619 0.0002650946294)
(-0.0002179248086 -0.0003286468892 0.0004862516208)
(0.0008161351415 -0.001139875728 -0.0005785254296)
(0.0001349564505 -0.0008691555349 0.0004901485211)
(-0.0005676635823 -0.001156450515 0.0007802501408)
(-0.001167459236 -7.586375641e-07 0.0002352136837)
(0.0002786948496 -0.0005526471354 8.500744617e-05)
(0.0001310652544 0.0002091145708 -9.65495861e-05)
(-0.0003952157478 0.0003033731141 0.001209669793)
(0.0008704942161 0.000600137422 -0.0006121642645)
(-0.0005500353392 5.413332241e-05 0.0001761814723)
(-0.0004540484589 0.00106663547 0.0005691422102)
(0.0003588754752 -0.0003790689408 0.0002797759932)
(-0.000464853485 -0.0001072707775 0.0002038419503)
(-0.0005862618567 0.0002305672045 0.0001857553263)
(0.0006788971037 -0.0004481326918 -0.0002553629295)
(-0.0001126651619 -0.0006147047845 -0.0002860426453)
(-4.987584592e-05 0.0004181224898 4.796759812e-05)
(-0.0004947197642 0.0003657579167 -0.0008464113786)
(-0.0007208829987 -0.0002209069574 0.0004200259787)
(9.12474889e-05 -0.0008176783339 0.0002096527131)
(-0.0002868140746 0.0004186244545 -0.0002227727768)
(0.0008492101593 -0.0002588218255 6.158625488e-05)
(-0.0002878001231 -5.54325611e-05 6.466363148e-06)
(0.0009937399663 -0.0008408293482 0.0005900423858)
(-0.0004903562447 -0.0001154982052 0.0004356071147)
(0.0005366560731 -0.0001285018277 0.0004204101847)
(0.0003546052202 -0.0003029175415 -0.0001190561809)
(0.0001721929688 -0.0005786381132 -0.000403891721)
(0 0 0)
(0.0003092845468 6.353048858e-05 -0.0002515733238)
(-0.0006639917713 0.0006006109577 0.0002656624164)
(-0.0003696747796 -0.0006057511723 -2.526322985e-05)
(0.0004604082373 -0.0001244782411 -0.0002385005857)
(-0.0002215135036 -0.0003588697096 -8.649582256e-05)
(-0.0003927589412 -0.0002177201267 8.362559997e-05)
(-0.0001081846397 0.0003559799921 0.0006759896696)
(-6.09287434e-05 -0.0003938431049 -0.0005016022892)
(-0.0004234687345 3.354641971e-05 -0.0006388283266)
(-1.575720408e-05 -0.0004139872839 -3.759836358e-05)
(-0.0006169421727 -9.706806472e-05 0.0001921806799)
(0.0003646732275 -0.0001825362034 0.0002658203503)
(-0.0001779094318 0.0002829124749 -0.000533879681)
(-0.0004831699051 -6.710079876e-05 0.0001715055586)
(0.0001159047827 7.170636311e-05 3.171667903e-05)
(0.0002468067369 0.0006779073019 5.035398817e-05)
(-0.000100155332 0.0002228111963 3.858388821e-05)
(0.0001521574908 -0.0005694637575 -8.11544707e-05)
(-0.0005759764484 -0.0003869673365 -0.000137864736)
(-1.924189149e-05 -0.0001288753701 -0.000279265415)
(-8.467448189e-05 -0.0003809860828 2.158807817e-05)
(-0.0001362832007 -0.0001698776632 -0.0002173135889)
(-0.0002013210722 -0.0007298533052 0.0002040769244)
(0.0003344980588 -0.0006060204994 -0.000244753572)
(-0.002104156033 0.0001232313346 6.366899897e-05)
(-0.0009327184213 -0.00031969403 -0.0001228543574)
(0.0006393060057 -0.000296199781 0.0001244452759)
(0.0003478244389 -0.0002289702356 0.0003793642398)
(0.0002173603342 -0.0001036364683 0.000212544816)
(0.0001649530475 0.000448534001 0.0002865929209)
(-0.0002461605155 6.924340092e-06 0.0004408090793)
(-0.0002451410188 -0.001066199747 0.0003682692821)
(2.160551775e-05 -0.0009194960869 0.0003838818743)
(0.0003778680075 -0.0008371419836 0.001133938913)
(-0.0002177099623 -5.314163781e-05 2.512273541e-05)
(0.0004621646722 -0.0002952453877 0.0002827101547)
(4.210781193e-05 0.000615832654 8.614904247e-05)
(6.114025887e-05 -0.0007646800265 -7.506375599e-05)
(0.0001387345488 0.0006326872682 -0.000165976809)
(-0.0003800708319 -0.0003335986561 -0.0004388493305)
(-0.0004815615628 -0.0001845007361 0.0001088567923)
(-0.0002906575298 0.000291349251 0.000316254907)
(-0.0004492979353 -0.0004245546283 0.0001254890252)
(0.0001148405499 -0.000549680393 0.0006819429361)
(-6.660753128e-05 -0.0002415779322 -6.415269572e-05)
(0.001037044997 0.0002664813336 0.0003257841393)
(0.0002580784808 -0.0002512950253 0.001025734205)
(0.0008599103455 0.0003274473095 0.0006952833505)
(-8.251296765e-05 -0.0001657847622 -0.0001615274045)
(0.0008614259228 -0.0001225681325 0.0001924102695)
(-0.000576824495 0.0002136666359 -0.0009497959771)
(3.687642271e-05 -0.0001199103428 3.300273061e-05)
(0.0003647986368 -0.0001870338632 -0.0003076702125)
(6.674848142e-05 0.0001301962445 0.0001411404406)
(0.0004789417448 0.0003873451296 -1.53431071e-06)
(0.000194075745 -0.0005330742493 -0.0003576263665)
(-0.0003884868646 -0.0004635147207 0.0002032959611)
(5.069643952e-05 -5.268301236e-05 0.000294101039)
(-0.0002269860397 -0.0004436879223 -0.0004192012409)
(-0.0001634510085 -0.0001394119493 0.0006531066512)
(0.0006002292865 -0.0002211510271 -9.938241298e-05)
(0.0004752469947 -0.0001805472542 -3.521497244e-05)
(0.0002755296989 -0.0006590719369 0.0003603594575)
(4.009614691e-05 -0.0003639284587 9.770195597e-05)
(7.083584095e-05 7.891533892e-05 -7.058710878e-05)
(-4.601088964e-05 -0.0003811553776 0.0003152485894)
(0.0007977972669 0.0007495880073 5.66524039e-05)
(-0.0002866083348 -3.854694923e-05 0.0003166745123)
(-0.0001656665596 0.0004253696241 -0.0002114053826)
(-0.0006365223144 0.0006399236954 -6.642490084e-05)
(-0.0003122309579 -0.0004753913406 -0.0003033976521)
(0.0002937533176 6.819717126e-05 0.0004618575189)
(-0.0006990547463 -7.22296884e-05 0.0001348004151)
(-0.0001671782528 0.0003321787042 -0.0005790803438)
(-0.0003140008063 -0.0006598167405 0.0002608051288)
(0.0003153512778 -7.585441175e-05 0.0004530131777)
(0.0001232168148 -0.0001916792892 0.0002092154173)
(0.0001960589718 -0.0001626205582 0.0004323656336)
(0.0007940533605 -0.0005079944861 0.0002653788873)
(0.0005782307351 -0.0002518273583 0.0004455431791)
(-4.09014502e-05 0.0003701922139 0.0003150667591)
(-0.0001046894854 0.0002409273283 -0.0002571495925)
(-0.001003312447 -0.0004762615035 0.0002670336324)
(-0.0001422315948 -7.789664134e-05 -7.755418466e-05)
(-0.001012469907 0.0004157662423 -0.0002811204675)
(-0.000259061145 9.747432433e-06 -0.0003831285265)
(3.756566068e-06 -0.0007892642079 -0.0004668210466)
(0.0001980504373 7.890804602e-05 -0.000150338657)
(0.0003049802674 -0.0003162388417 0.0002590029487)
(-0.0006168348751 -0.000289812797 0.0004364713445)
(-0.0001040521409 0.0003750261109 0.0001855101151)
(0.0001844525603 -0.000153580069 -0.0001751185686)
(0.0001951758217 -5.399068548e-05 0.0006973219027)
(-0.0009957371787 -1.203341574e-05 0.0008552049869)
(0.0001545450552 -0.0001564910065 -6.577788809e-05)
(0.0001415002811 -2.310524551e-05 0.0001727100661)
(0.0001751665695 0.0006408007921 5.817669663e-05)
(-0.0006806117352 0.000547124974 -4.401211807e-05)
(0.0003391517449 -0.0002097931211 8.995600701e-05)
(-0.000743021732 -0.0008283022608 0.0009987792199)
(-0.0003277278828 0.0003299222793 -0.0005823057644)
(-0.0002914655989 -0.0002608222808 -0.0002495451126)
(-0.0001046479238 0.0005239389376 -0.0003333372965)
(-0.001109327684 0.0002702447987 7.688357462e-05)
(1.388598448e-05 -0.0008702510597 0.0001554367329)
(0.0004042234503 0.0001970181917 -0.0008253234395)
(-0.0004709140057 0.0004835593952 0.0003432426988)
(0.0002252249211 -0.000849319213 0.0002637642556)
(-0.0002768191025 -0.000461668225 0.0003353998419)
(0.0006202387559 -0.0003122255526 0.0002331702487)
(-0.0006998360307 -0.000500620742 -4.190340231e-05)
(-9.384977978e-05 -0.0001669220461 0.0001012401429)
(0.0001091235909 -0.0003389289667 -0.0002468064002)
(-0.0003824020065 -0.0007499877099 -4.887407698e-05)
(-0.001085589585 -0.0001301994028 0.0004888105254)
(-0.000740196857 -0.0004021352034 -0.000517445449)
(0.0001736414977 -0.0005602555691 1.870674256e-05)
(-0.0004080839069 -0.0007184303375 7.457448419e-06)
(0.0002629405307 6.433947852e-05 -0.0001162850121)
(0.0006961211107 0.0004283924801 0.0002461837131)
(0.0007589450412 -9.419898057e-05 0.0004948171108)
(-0.0003331184956 -0.0004787865417 -0.0005237127279)
(8.677257555e-05 -0.0007708740172 0.0002291224892)
(5.027753777e-05 -0.0002707886625 -0.0006805955658)
(-0.0003503479301 -0.0002126050358 -2.563852773e-05)
(-2.09503722e-05 0.0002370824431 0.0001484401314)
(-0.0007588662642 -0.0002492224019 0.0002587166171)
(-0.0001941927925 -0.0001769771984 7.680918644e-05)
(-0.0002493325158 -8.247674235e-05 0.0002823805104)
(-0.0003286123606 0.0002090547021 0.0001145197164)
(0.0003430484196 -0.000361205447 -2.092183369e-05)
(0.0009849174882 -3.649298274e-06 -0.000700319662)
(-0.0002972564954 -0.0003216781019 -0.0001665740028)
(0.0002561756082 0.001047555616 -0.0001664340193)
(-0.0005685809892 -1.918434642e-05 -0.0006468444765)
(0.0002247970685 -3.04824956e-05 0.000953624825)
(0.0004493227095 -0.0003630801317 3.77604473e-05)
(0.0005102273633 -0.0008265555518 -0.0001352363018)
(0.0008046254668 -0.0003620113985 0.0002171459721)
(0.0007710995598 -0.0006300168548 0.0003332734867)
(-0.0001138819147 8.771889538e-05 -0.0001757048129)
(6.963808612e-05 5.002287394e-05 -0.0002212302398)
(-0.0001287503901 0.0005478402566 0.0006229945506)
(-0.0003025444824 -0.0003185857059 -6.118299725e-05)
(0.0005282586285 7.589342299e-05 0.000125448412)
(0.0004202303294 0.0005878489192 -0.0007689180084)
(-6.191841728e-05 -0.0002088272449 -0.0008687286071)
(0.0002740047244 -0.0001381405052 -0.0001698364016)
(-0.0004815313314 7.928732501e-05 8.024759709e-05)
(-0.0003914379916 0.0002874022634 0.0005551221112)
(-0.0006152388331 -0.000511261502 -4.724010812e-05)
(2.791477754e-05 8.162257543e-05 -0.0001712505366)
(-0.0005048796603 -0.0002841138696 -0.00100363906)
(0.0001372950502 0.0007830062401 0.0007202002035)
(0.0005243749178 -0.001204055528 0.0004087621231)
(-0.0007642519315 -0.0003982287618 -0.0007259962416)
(-0.0003966004452 6.48930084e-05 0.0001700862752)
(0.0002461701417 -0.0001589086603 -0.0004332280897)
(-0.000305655501 0.0004136398803 -6.756113313e-05)
(-0.0004073250611 -0.0003993337203 -0.0003394276295)
(8.992782094e-05 -0.0003634743953 -0.0002784570205)
(0.0003785767618 -0.0001608312745 -3.96433169e-05)
(-0.0005528192294 0.0003371936337 -0.0002014698424)
(-0.0004654361967 -0.0005277082131 -0.001028168658)
(-0.0001106321703 -0.0001116399363 -0.0003531575722)
(-0.0005303143824 -0.0002376441846 0.001052433645)
(-0.0002712453992 -0.0005703785071 8.287537054e-05)
(0.0002038543892 0.0002856308653 0.000488202706)
(-0.0001815074909 0.0001521632232 -0.0001358701305)
(-0.0002849113845 -0.0007723260598 6.380641991e-05)
(-0.0005118739303 -0.001214093125 -9.387311505e-05)
(-0.0003221622949 5.986941707e-05 -0.0001885373309)
(-0.0003524055699 7.869329257e-05 -0.0001508872689)
(-0.0001538627464 -0.0004770069219 -6.52593285e-06)
(-0.000504643383 -0.0002735025843 0.0001363806544)
(0.0004106584825 -0.0007957508323 0.001220270535)
(-5.553423366e-07 -0.0001805285695 0.0002820482823)
(-0.0007103977177 -0.0009148979862 2.710950456e-06)
(0.0002548596179 -3.401855525e-05 -0.000122092148)
(0.0004170213035 0.0001051854471 -0.0002015473988)
(0.0001870734612 0.0001430898715 -0.0003235335567)
(-0.0006448859781 -0.0004941054786 -0.0002879612074)
(0.0003519846855 -0.0005278491092 7.653673599e-05)
(0.0001319504104 8.707193128e-05 -0.0006258013434)
(0.0004715122014 -0.0007219958614 0.0005891316491)
(0.0001882031266 -0.0002456421254 -0.0002591979889)
(4.249670298e-05 -0.0001454443143 0.0005363977862)
(-0.0001268963052 -0.0003735744169 0.0002554165096)
(-0.0005943101593 -0.0001518516353 0.0004533742371)
(-0.00113524332 0.0004358327716 -0.001201311348)
(0.0003130348783 0.0003403335782 -0.0001053077662)
(0.0001693028528 -0.0009221862769 0.000148111867)
(0.0001598816561 -4.301724694e-06 0.0001719280178)
(-7.807746078e-05 -0.0004942520918 0.0004225311518)
(-6.294435137e-05 0.0002494762199 0.0002156620972)
(-0.0002111536513 -6.515917988e-05 -0.0002202569859)
(6.751419263e-07 -0.0007613238245 0.0001328607786)
(-1.186711253e-05 -0.0007477803314 0.0002237305432)
(0.0004385406218 -0.0005911124226 -0.0005974395023)
(-0.0004468501421 -0.0006574749542 0.0003152276983)
(9.836611746e-05 -0.0002295552454 -0.0002545062199)
(-0.0002157548595 -0.0005118567827 0.0001284030647)
(-0.0005489469505 -0.0009045059518 -0.0006701797509)
(0.0001714661329 9.770008979e-05 -0.0004394160838)
(2.214501374e-05 -0.0002684108556 0.0004617527438)
(-0.000789878344 0.0003240293921 0.0002922402735)
(-0.00028851552 -6.90339104e-05 -0.0005357855156)
(-0.0008694689439 2.476864017e-05 -4.712039663e-05)
(0.0003060340821 -0.0005889611369 0.0001386364116)
(-0.0002131910398 2.062637051e-05 -0.0002323311838)
(0.0003879303645 -0.000643770884 -0.0006166446049)
(-0.0006530315224 -0.0003422492307 -0.0006037179589)
(-1.74687475e-05 6.316349234e-05 0.0007316400872)
(-0.0005419243532 -0.0001816037192 0.0002359312732)
(-0.0008791748945 -0.0004041359388 -0.0004358078415)
(-7.611684478e-05 -0.0003004682778 2.546963646e-05)
(-2.454125202e-05 -0.0001660298351 0.0005430989351)
(-0.0007107853887 -0.0006878979731 0.0002015104393)
(-0.0009294214462 -0.001024131169 0.0003062323644)
(-0.00144340852 -0.0004123135722 -0.0002371311766)
(0.001415340023 -0.001437470755 0.0002114931784)
(-0.0004249820805 0.0004541089346 -0.0007132335211)
(-0.0005282858911 0.0007475715816 0.0002100268626)
(-0.0002800685948 -8.440277201e-05 -0.0003075103547)
(-0.0006216788615 0.0003990178638 -0.0002946836332)
(-0.0001943582367 0.0001790328755 -1.437446691e-05)
(0.0008148877666 1.122041287e-05 0.0001676116693)
(-0.0001026348583 -0.0001332362747 -0.0005829975356)
(0.0003137933681 -0.000122270167 0.000706848483)
(-0.0002398345686 -0.001359489594 0.0009108861991)
(-0.0001250288894 -0.000267183785 -0.0002220363559)
(-0.0006647259843 -0.0004012878298 0.0001509970085)
(0.0002486175605 -0.0004769894743 0.0007203001909)
(-0.0008323643196 -0.0002115680909 0.0003071233722)
(-0.0001149700478 -0.0002907551795 -0.0002624293073)
(-8.414452885e-05 -0.0002007297175 -0.0003177324071)
(0.0006707203246 -0.0001221736071 -0.001043475222)
(-0.0005305984127 8.797677811e-05 -0.0002799784922)
(-0.0004431576033 0.0002607918705 0.000744562565)
(-0.0001586674081 -0.0001172283723 0.0004915840809)
(0.0006008918821 -0.0004412769144 0.0001194507083)
(0.0007003181753 -0.0004393927428 -0.0006013954093)
(-0.0002525336864 -0.0001605003588 0.0003793935015)
(0.0001647972336 -0.0006467268895 0.0008127648186)
(-0.0008418179847 0.0003379693836 0.0003876499839)
(0.0005023433411 -0.0008448578671 0.0002462510011)
(0.001270723952 -0.0002169664662 0.0003445454038)
(-0.0004986762024 -0.0003165467117 0.0003740325224)
(-0.0001452536487 -0.0001485110135 -0.0003537992689)
(0.000367476966 -0.0003576875503 -3.086021544e-05)
(0 0 0)
(-0.0002823468671 -0.0001157850463 -0.0001929343159)
(0.0002447157353 -1.452503241e-06 0.0002241779106)
(-0.0003716123703 -0.0005855828585 -0.0008184744443)
(-2.885768446e-05 -0.0001070885261 -0.0004503019362)
(-6.995551423e-05 -3.379690511e-06 -0.000705403753)
(-0.0003007218424 -0.0004095117883 -0.0002189312241)
(0.0004118956739 -0.000125221051 0.0001928007939)
(0.0005268481321 -0.0002022003453 0.0002297714149)
(-3.098363605e-05 6.754264828e-05 0.0003485930822)
(-0.0002813462354 -0.0006157478783 2.246017955e-05)
(-1.23347326e-05 -0.0002007908792 -0.0002954629152)
(-0.0003761595352 -0.0003364045258 -0.0001901585174)
(-0.001170353142 -0.0004619233927 -7.574044457e-06)
(-0.0005266483392 -0.0002663240295 -0.0002744881673)
(-0.0004416022748 -0.0005003368377 -0.0007024129238)
(5.736166659e-05 -0.0004335770955 -0.0004857949046)
(0.000181337695 0.0002005007425 -9.78007246e-06)
(-0.0002090326343 0.0001714328252 -0.0002993860794)
(-0.0001976165803 -0.0005183842214 9.055526423e-05)
(-5.29450773e-05 -0.0006447447785 9.88984365e-05)
(0.0008684665075 -0.0002005249916 3.102328961e-05)
(-0.0001551338564 4.941811457e-05 9.885058214e-05)
(-0.0005661213676 -0.000763105119 -0.0003527534495)
(0.0001611668663 -0.0001580874317 0.0002370493746)
(-0.000414526018 0.0006445276728 -0.0007622154625)
(-0.0001223890914 -5.103320562e-05 0.0001218066749)
(8.927558302e-05 -8.062687111e-05 0.0001950418317)
(-2.089518222e-06 -0.0008864507868 -0.001311926634)
(-0.000228102515 0.0001137605948 0.001648933286)
(-0.0001014027883 -0.0001555211154 -0.0002888621761)
(-0.0001299676688 -1.19454641e-06 0.0002101549307)
(0.0003070826532 0.0002677758173 0.0004286789896)
(-3.655929183e-05 0.0001769076483 -0.0003185431264)
(0.001223168538 0.0008133952809 1.85076885e-05)
(-0.0002454314628 0.0001164896946 -0.0002456869122)
(-0.0001260241702 -0.00013004544 -0.0003937268068)
(0.000353876532 -0.0005262449786 8.467179976e-07)
(1.444610878e-05 -0.0001083599068 -2.75798487e-05)
(-0.0004850915122 0.0001302139004 -0.000156806107)
(-0.001186471355 -0.0009382340408 0.0003237840706)
(0.0004899642416 -0.0004154205485 -0.000421612777)
(0.0006789295402 -0.001345345429 0.0008233050632)
(-0.0002297889681 -0.0006735010033 -0.0001073818084)