/*--------------------------------*- C++ -*----------------------------------*\
  =========                 |
  \\      /  F ield         | OpenFOAM: The Open Source CFD Toolbox
   \\    /   O peration     | Website:  https://openfoam.org
    \\  /    A nd           | Version:  7
     \\/     M anipulation  |
\*---------------------------------------------------------------------------*/
FoamFile
{
    version     2.0;
    format      ascii;
    class       volScalarField;
    location    "0.001";
    object      overallT;
}
// * * * * * * * * * * * * * * * * * * * * * * * * * * * * * * * * * * * * * //

dimensions      [1 2 -2 0 0 0 0];

internalField   nonuniform List<scalar> 
654
(
896.2475809
909.0948373
883.6582942
873.5230394
916.934522
913.8027059
855.2505821
892.5982259
905.9731061
908.6088168
850.9258554
886.9979002
886.8682427
877.5016223
885.8867224
915.5777024
911.8159491
868.8186536
889.1617362
847.903343
867.9055545
900.0700932
948.4014136
912.6088751
900.8814391
880.4942026
906.2785686
892.5996606
902.8513165
903.582788
927.1471592
918.6426677
928.0342086
843.1840099
902.1804675
881.8057156
885.882778
892.511053
850.4623816
877.8333737
903.7557191
932.8228342
918.0151906
916.5517054
927.4995046
916.0797322
889.6496599
904.6626972
919.8962745
937.0728426
921.290825
902.9039306
909.6542282
896.7250025
889.7607615
876.6991699
813.518148
799.1287494
846.4322964
820.857174
832.5273414
861.2914309
927.3727441
870.6968877
855.5676941
894.8443335
904.5090589
886.2227932
910.7673337
910.2972967
961.9678634
943.9339436
925.6449849
937.6194234
936.3587581
957.9674412
936.864885
925.8800277
921.4701733
924.9176049
916.0281384
882.5194622
887.6386037
873.6276181
818.9953873
806.9519753
789.2210945
812.0390046
818.3632609
860.7463602
858.5173841
924.2626184
934.3452369
898.8944158
893.5706878
895.2810817
912.9112093
910.3776796
907.8084356
936.4531897
937.6450996
903.7567986
913.1905166
857.5009612
902.7231863
921.564368
892.4456949
914.9518029
915.4420032
902.9972852
890.8663809
879.8322246
881.6153066
818.1019673
811.0362452
807.3573957
810.4978928
821.9670265
843.9834482
836.4369936
872.5690256
884.5148782
885.5841609
870.7344671
894.4863496
903.2655455
925.2639078
922.7184895
922.9900511
929.1653153
902.855928
892.7000509
904.494843
892.024757
904.5452666
906.1681793
914.3857494
881.2557825
923.976053
905.2379316
896.564943
908.1764664
892.1810597
849.0782752
813.0466996
819.1956781
827.7184566
825.843964
843.3333771
839.2973744
814.7194195
856.0156008
886.0072621
899.2092115
881.9300252
862.7191709
880.5427522
928.8312584
930.3595064
910.835033
907.9693486
918.4192747
910.8553768
901.5260042
929.2866845
956.5906646
942.5705098
887.3618797
909.1889374
931.541831
892.6545955
868.7292705
900.9717423
849.5161227
872.2248896
833.7976109
844.9345464
825.0272573
847.6298549
845.841519
860.5279381
841.7234878
867.0993977
872.5036747
896.5810809
858.4092988
892.4918999
874.5999036
858.1058981
910.3654785
942.5976695
937.7055732
899.526497
928.5820728
900.3809534
891.2815944
920.385906
920.3784373
927.1330223
870.4324108
838.0316193
844.6650726
845.1164321
827.9000814
770.1698074
826.4374722
793.878872
848.2271764
839.0308456
862.7572284
821.7428447
850.5094292
828.3064474
883.4835255
868.2002279
816.7032346
860.0360097
864.194693
889.9889391
903.7694242
905.0661737
867.4266858
903.7269507
906.2464937
903.4545622
878.776453
894.4707955
937.1147357
915.3610954
854.7159892
872.5035436
859.0975829
836.7173222
807.2001154
763.3447828
778.899525
810.9150921
841.5669467
828.4302418
822.1952286
802.4393729
831.439193
802.0855963
816.3152284
833.1540238
813.2500885
848.1117298
859.342836
868.9930435
883.1146999
864.8900961
903.6360589
899.3174872
926.6010742
906.6249988
903.0736279
921.6928354
921.6232708
917.8612627
858.3136865
853.1002204
840.5022764
812.7414091
796.8558565
786.2084045
797.695332
813.6330046
818.6667875
808.386669
807.6145849
787.3275783
850.6885002
794.7067028
801.4883394
836.4495309
836.9819606
889.9348931
842.9083759
852.1651724
879.3716145
870.3740058
860.2237496
893.612981
882.0201922
878.5211864
916.9271504
880.8993642
863.8441758
846.483105
850.9323814
823.0392143
844.2555331
844.5644695
838.7918611
798.3082913
849.1193945
784.0515009
771.491131
840.1161307
807.3575576
815.1805663
826.9572818
834.8248768
875.0794351
885.412574
896.4440446
884.1317134
848.2429397
891.2777314
877.5370927
888.215566
864.075716
879.1200975
912.5118453
886.7729462
902.8026376
914.2687464
905.3361771
897.0145328
847.9810086
836.2266847
862.4924929
856.6577998
844.8076974
774.4223503
785.1081053
783.1106683
783.7804354
814.931668
788.844379
833.3197159
833.5242027
832.6161611
842.224211
831.6918456
810.4424528
826.1575284
835.8429079
857.7934574
909.8816862
907.7896404
854.0481976
878.5943409
887.3059715
872.7870638
828.3165478
847.5920023
860.257169
866.4981083
855.7627319
842.822389
838.4891136
838.7498912
826.9736263
810.2901923
788.7074338
794.7463516
792.1081498
811.51036
800.2744672
799.4976218
809.3941633
835.7298557
864.3492682
858.4294838
856.866571
835.7299208
853.6247927
893.665649
903.2696922
829.9488908
840.7638868
887.1710324
872.9782518
847.5209217
846.8287362
822.9187949
875.6324094
862.6274416
866.8486001
875.7388604
891.1627631
833.553507
812.5486474
737.045906
798.1336564
776.6613198
789.5698821
768.4777728
734.2171387
741.1580711
811.7388147
846.166663
833.0971526
845.1025419
823.2571585
840.3973823
866.78139
848.667552
829.2439644
814.9183694
845.1212258
871.581092
860.7053215
815.0998822
824.2802617
811.8769757
845.8695833
862.7288954
872.4444059
885.4898719
843.1414089
804.4995363
785.890842
750.4340483
762.0935544
744.2640076
758.9809355
777.5302505
753.9146037
801.1944252
825.7546187
801.0850862
805.2903957
824.90274
821.041285
859.133908
856.0272592
889.9200648
859.2774366
816.189571
833.7663946
838.100236
782.2010163
799.1664272
799.4692012
798.6720799
825.9617293
843.0064639
813.0737979
853.8813548
797.2078114
812.5025226
799.7178671
734.7259096
731.6273074
755.3490702
771.8332735
789.8258517
770.5844977
789.0462265
757.5326562
777.5508093
784.4285914
803.7255591
807.9331554
863.3293599
868.1703448
832.9070845
814.6401129
761.1187401
774.6287343
805.4543201
759.2192463
793.5710141
834.0827403
812.632361
853.7492966
859.2434005
838.8797713
804.7690521
784.9629021
761.3663814
754.1139447
684.504835
675.9983455
706.4064379
747.8097918
766.7176681
789.2040581
781.9755202
756.9592845
802.6207935
813.7734961
781.5588235
826.1993119
785.4674558
797.994861
801.8468428
828.8878034
834.1488872
793.8830145
759.4444836
790.2015411
777.2808401
844.4297921
847.9804396
801.0119515
797.8008738
794.88211
791.3653445
749.9304077
778.4015486
725.1436392
701.4831388
700.338379
734.3814373
737.2052671
768.4317435
731.3917788
733.7659394
757.3776331
732.2183378
746.9311274
710.2951973
796.1888279
780.3782653
757.14853
765.6985089
758.9911647
769.9240002
779.7886574
769.8773421
788.8187363
745.1667964
746.5511588
702.6411365
758.8484113
785.0504286
828.3185454
792.7752655
727.6512339
739.0538904
693.2769257
657.611928
684.6007086
688.4497409
698.685508
722.615202
687.3538209
667.0699667
722.6653842
718.1981965
759.5086497
760.9213374
763.669151
752.0910444
767.6080596
746.4798657
724.8891077
711.7109655
724.8063192
760.0144749
725.4813006
705.5709311
762.4669007
759.9535031
724.0338025
734.9165617
741.0231396
706.8834563
713.6884473
721.9779773
678.9165441
644.8867238
604.209578
639.5333606
699.0751034
699.9381686
634.2669981
659.5585886
645.0604936
662.4887297
710.3430164
665.2657203
676.8535353
720.8737135
671.3447862
701.1415902
668.4245669
677.4936304
689.9344676
662.1281328
668.7289232
679.0180804
721.2548694
723.6385764
721.4347843
714.3028644
689.292068
707.7545185
685.6750072
674.296283
656.8594854
571.9424527
573.0702276
573.9600034
614.7809171
610.2967597
616.5660528
632.2625189
596.5165229
596.4794274
606.9885316
597.8614998
597.3188466
618.0946352
630.8741773
621.6858114
657.4304772
658.6335754
629.9608572
641.8089639
647.2902309
600.7766159
644.1450717
608.0946796
663.720706
620.1863685
650.8774544
661.0338732
624.4925469
628.506995
583.0835077
474.6455311
466.9796775
503.2160179
520.2559461
535.966523
533.5483094
500.4604448
504.2432773
537.373269
512.1336167
541.6952545
517.9472267
560.6930525
537.7410822
535.0380388
555.0530241
519.7364831
529.9458171
534.1430315
573.2923303
537.732202
552.4161608
534.2529952
549.8288167
565.8199927
545.9111938
545.4052829
493.9163161
505.7860438
534.8179578
)
;

boundaryField
{
    flow
    {
        type            calculated;
        value           nonuniform List<scalar> 
55
(
896.2475809
855.2505821
868.8186536
843.1840099
876.6991699
873.6276181
818.1019673
849.0782752
849.5161227
827.9000814
807.2001154
796.8558565
838.7918611
844.8076974
826.9736263
812.5486474
785.890842
799.7178671
754.1139447
725.1436392
693.2769257
678.9165441
656.8594854
583.0835077
534.8179578
474.6455311
466.9796775
503.2160179
520.2559461
535.966523
533.5483094
500.4604448
504.2432773
537.373269
512.1336167
541.6952545
517.9472267
560.6930525
537.7410822
535.0380388
555.0530241
519.7364831
529.9458171
534.1430315
573.2923303
537.732202
552.4161608
534.2529952
549.8288167
565.8199927
545.9111938
545.4052829
493.9163161
505.7860438
534.8179578
)
;
    }
    obstacle
    {
        type            calculated;
        value           nonuniform 0();
    }
    frontAndBack
    {
        type            empty;
    }
    procBoundary3to1
    {
        type            processor;
        value           nonuniform List<scalar> 
36
(
901.9444489
932.1307315
929.0379369
902.2099359
929.9841731
915.263545
915.263545
901.1163189
875.7892686
895.3077325
919.1887352
936.7956377
936.7956377
924.7178871
897.6762734
896.4285976
907.7417996
913.5693746
913.5693746
908.8669467
866.3221009
902.4876047
915.1838003
915.5232802
869.5427198
869.5427198
815.3730876
859.9051399
832.9997536
830.591789
849.4991403
884.578082
884.578082
750.5600203
813.6530696
813.6530696
)
;
    }
    procBoundary3to2
    {
        type            processor;
        value           nonuniform List<scalar> 
19
(
795.8052963
786.1748598
775.3596449
830.9484741
750.8721933
746.1442775
780.5533988
739.5671705
744.1880059
757.5140114
755.150098
759.666629
675.2997951
704.1335363
692.7110466
685.40835
647.2710023
520.7699397
490.3109695
)
;
    }
}


// ************************************************************************* //
