/*--------------------------------*- C++ -*----------------------------------*\
  =========                 |
  \\      /  F ield         | OpenFOAM: The Open Source CFD Toolbox
   \\    /   O peration     | Website:  https://openfoam.org
    \\  /    A nd           | Version:  7
     \\/     M anipulation  |
\*---------------------------------------------------------------------------*/
FoamFile
{
    version     2.0;
    format      ascii;
    class       volScalarField;
    location    "0.001";
    object      overallT;
}
// * * * * * * * * * * * * * * * * * * * * * * * * * * * * * * * * * * * * * //

dimensions      [1 2 -2 0 0 0 0];

internalField   nonuniform List<scalar> 
654
(
704.9121274
674.0324567
673.5103983
671.1279965
677.4244896
673.5249749
673.6872264
631.3005142
640.7105589
628.4238397
646.6270775
664.1451796
664.8607223
656.201957
667.0601778
672.7191408
681.4533225
667.2925335
537.7700849
542.5371936
543.4229113
559.6796111
584.1840503
610.646746
616.111516
611.4356383
619.3217664
618.3211117
647.8367165
648.9606853
660.236797
658.2302464
652.7074667
658.4227631
381.3113894
395.4622592
422.7969121
424.5496685
451.7580384
464.505298
479.8439468
511.0829869
532.4605191
536.2047968
549.1428991
563.932949
580.9553301
599.4070597
607.6538938
612.8849665
614.5039372
640.0403628
632.5233042
623.7402821
625.6418446
633.6920399
328.6018326
321.0361998
333.2507312
339.5911868
350.928153
357.3169394
374.9572951
378.2271343
395.6096698
421.5353006
412.6431437
435.5398984
451.8785705
449.6051222
486.9219437
494.1379586
535.7484802
531.0023191
544.7959702
569.4501007
580.5372096
587.9835254
597.0330167
606.6692971
603.3524537
619.0049627
616.2387438
623.9299515
312.4685914
311.3623589
315.3009185
321.2778943
319.1622485
333.3731708
338.0173658
345.4455091
352.1450921
358.2404608
366.0294308
375.9639347
396.8850257
406.0278231
426.545021
447.5154621
450.9790615
464.2553041
477.6201561
492.7410787
506.5129722
534.4325742
565.9378752
579.7412045
566.0622609
594.5539021
592.8781754
604.1503971
617.5784236
624.8503972
311.2374318
307.4852487
303.7021038
305.1937995
311.8840355
318.4340958
323.7683523
328.5562017
328.5715994
351.399387
349.6449977
359.4025415
372.3756487
382.4845101
386.1349172
403.4777153
425.9452743
435.1872224
453.1623058
457.0738841
485.1553178
501.4787769
501.0193246
534.4099558
554.0413572
561.2570443
577.6034302
572.4349839
585.1956179
596.8059307
308.2750036
304.8067719
305.8263107
306.0940882
311.6204812
316.6311633
323.4884328
325.7886816
329.6010641
330.0589048
340.9408719
344.606476
357.8108881
375.9820183
389.0762168
394.517646
405.4570072
421.5647528
441.4532802
452.5637434
452.7664947
475.2476492
491.710189
507.6928757
518.7385106
530.090305
549.9366456
551.9843934
561.2819274
578.5945253
310.3672425
305.0052124
309.9287292
307.4965216
306.7488876
314.5849385
322.2811014
319.8399043
313.8884133
320.7433499
348.0209903
340.7459949
340.1356617
352.8889939
366.6684606
368.916508
388.4989069
399.2247947
419.1719948
414.3335767
427.5007065
440.8013669
465.492955
496.4669695
489.1256208
507.519571
522.9351704
534.4932324
536.9298777
557.1741716
304.956828
306.7775548
307.8314112
309.2669616
308.7262275
308.3973652
314.455705
327.596759
315.8011097
321.538156
327.5115175
340.8403256
337.4381905
341.266663
344.6504463
356.0790539
372.4083047
376.7285617
383.0721831
406.7547179
422.2179676
417.4600582
427.5761678
459.8048439
480.2214503
488.7592057
498.8057042
520.4593759
522.3351958
545.5740851
305.340619
306.5682494
306.4024443
306.1700131
306.5125756
308.6064927
311.2578815
321.5817857
320.9599347
322.715687
320.486455
331.9406051
329.2034392
329.7618629
327.3352079
340.3400849
343.5330519
359.4265622
361.6174208
374.4130585
385.8281613
395.8087793
403.3503244
415.9599441
454.3312963
461.3885813
472.5585842
494.6818812
521.1542823
520.3549671
307.410462
304.3544148
309.5975764
309.1664832
307.790742
309.2534018
308.4424652
320.5553904
317.7914733
316.3363667
319.3531774
320.2663599
341.5145623
329.4072345
333.2127629
329.0909489
333.4042622
349.5832035
347.2620645
348.1880936
378.0758915
385.0082592
391.6003005
389.1339306
420.8478822
433.6940442
445.1158963
457.0373195
483.1886897
499.3169085
304.9994231
304.3099287
298.5899737
299.2436437
302.0665548
303.6239795
308.5884422
312.0994836
315.5575609
310.3901346
305.2758472
310.4231043
315.6534212
326.7518183
326.2556452
324.4695289
334.7009283
339.5358258
335.3354881
350.4361816
352.6075972
366.2139175
376.1890192
386.1514833
379.3391004
403.6920296
426.1486047
440.4815259
452.2056915
474.5058928
298.7735828
302.6541954
304.9411928
306.6818046
303.2318349
300.0522367
301.6220477
297.9802688
292.8609354
297.4912183
300.7116943
303.5362806
302.8335294
307.7996257
320.726078
324.6584401
316.8654601
334.7755643
342.3800768
344.7098551
339.7666592
352.6126048
353.5832127
358.4349889
375.3155209
368.5102689
389.9490632
400.0393617
414.539314
431.7502969
297.7513418
294.7907876
295.3576674
291.5646205
298.1142188
292.2747588
291.0423681
293.1768963
298.9739329
295.8702445
301.9040329
313.1640462
304.0316848
307.2488392
309.9518587
319.6363271
328.8221541
321.0292728
323.002433
322.5104811
323.8113038
331.4364994
344.6482127
351.0008023
363.6640586
372.461116
364.830681
374.9501031
396.5363861
406.9282989
302.9038347
304.6682853
305.0468847
306.5883619
300.7025865
306.2084762
301.1428958
298.854025
303.9911061
300.8231785
302.9373928
306.5717092
321.1576675
316.4144863
315.6639103
326.0487706
318.5282178
316.2496255
321.372126
322.1451195
319.7520545
317.2756258
334.6167333
341.131286
348.2242614
353.9509267
357.8354559
369.5888976
378.5882313
389.3270626
299.2425193
304.6702691
306.3574832
307.2563677
309.170172
310.8697139
313.2074502
311.3182157
311.3345333
306.6501753
307.7262442
304.4630531
303.5998108
304.6038219
308.6861184
308.4554477
311.873138
314.3556114
313.012428
316.6905297
323.4807792
332.0905555
327.3228182
331.9661988
338.5815213
346.9146947
346.2653286
351.488339
367.5985312
383.8470643
299.7744993
297.0527396
292.7935462
299.7079198
299.6520645
302.5273683
301.8779478
307.6640034
307.1576827
301.7912128
307.5368227
303.5816375
303.8624261
305.0810869
304.9713587
300.0073162
307.4451275
311.9761588
322.8382013
324.0064636
329.5587979
323.1496799
331.0394189
333.1241624
338.2649718
343.4082924
355.1545652
355.3663128
359.9948477
363.3066784
304.1238286
301.8163141
301.2504899
299.542632
298.375403
299.8376322
301.1806736
300.0910095
311.4120907
309.858835
305.9969272
309.2176806
311.0014083
309.6332009
315.379919
308.7439666
306.4144569
308.0827143
302.3176682
308.4932406
308.1445391
315.1947252
311.8140502
323.8691898
321.9878042
330.8036687
339.0134291
340.4321645
340.602149
351.308275
297.3432896
298.0219403
303.7100908
302.1908802
301.7049614
300.5309855
308.1625539
308.7329204
303.5970681
301.429658
304.6593441
302.8625133
302.9733488
305.2897196
305.4948184
308.7873954
306.6326385
305.9133984
306.7336128
305.7867874
301.9632997
310.8248239
310.4740361
313.2265804
317.8731081
317.288475
321.598964
328.9266405
330.3259125
339.6837044
304.8785427
304.3275838
301.9480971
296.2634825
297.6738898
301.4839242
304.6227179
302.5534493
301.5939212
299.8487509
301.80666
300.4207176
297.2845168
295.9627867
301.5066449
299.3328594
302.1039368
301.069665
304.8713581
306.4358442
308.8057866
308.3194398
313.0922577
308.8159647
304.515762
317.0764963
314.024294
319.8773471
327.7025313
327.8441895
301.632941
298.8720058
300.7587994
306.046314
308.2545232
304.6279723
304.4485133
302.5349188
304.6636581
307.166771
303.6251036
302.1654622
306.0349977
300.4506725
298.8602844
298.2646242
297.5498146
299.4480699
301.5667455
302.5238495
300.9039424
300.9017174
306.8288226
312.3138035
303.732593
299.8333077
307.8485825
306.7198409
313.7918413
321.0500235
300.0465641
300.2132921
301.1263816
301.7179638
298.0857287
296.8150463
299.6075631
296.181406
296.2597313
296.3960852
294.7052662
295.7146466
295.7760529
299.567784
302.4015227
307.5880685
302.008289
305.7859886
299.5210722
306.4098547
304.1189783
303.5725142
301.9176456
309.287994
309.6529499
308.4352704
312.8471145
315.5168829
318.7149783
323.2223172
299.7229882
298.6676255
296.0555579
294.9382434
291.3352537
294.4671637
293.6062265
290.996752
293.7861268
299.1801967
292.9076238
293.2825831
297.8952965
298.5468799
300.7458704
302.3751718
302.3678814
301.6272896
307.514882
307.7542987
302.407118
302.375849
301.4910672
302.3467008
306.440524
304.2059532
305.7062624
309.3538385
314.9875777
311.184771
)
;

boundaryField
{
    flow
    {
        type            calculated;
        value           nonuniform List<scalar> 
55
(
704.9121274
673.6872264
667.2925335
658.4227631
633.6920399
623.9299515
624.8503972
596.8059307
578.5945253
557.1741716
545.5740851
520.3549671
499.3169085
474.5058928
431.7502969
406.9282989
389.3270626
383.8470643
363.3066784
351.308275
339.6837044
327.8441895
321.0500235
323.2223172
311.184771
299.7229882
298.6676255
296.0555579
294.9382434
291.3352537
294.4671637
293.6062265
290.996752
293.7861268
299.1801967
292.9076238
293.2825831
297.8952965
298.5468799
300.7458704
302.3751718
302.3678814
301.6272896
307.514882
307.7542987
302.407118
302.375849
301.4910672
302.3467008
306.440524
304.2059532
305.7062624
309.3538385
314.9875777
311.184771
)
;
    }
    obstacle
    {
        type            calculated;
        value           nonuniform 0();
    }
    frontAndBack
    {
        type            empty;
    }
    procBoundary3to1
    {
        type            processor;
        value           nonuniform List<scalar> 
36
(
693.810758
682.6491903
693.4550045
671.5658672
686.631222
694.6119752
694.6119752
642.4951677
647.8907941
650.0958713
652.09633
666.317041
666.317041
563.2489293
569.2983605
584.0016941
606.6732056
627.1787439
627.1787439
420.6087729
437.3881722
462.7010464
466.7288817
497.0791732
517.5083774
517.5083774
332.9176778
338.0396638
358.3462656
366.0638327
382.8892218
381.433353
381.433353
311.458871
315.3393532
315.3393532
)
;
    }
    procBoundary3to2
    {
        type            processor;
        value           nonuniform List<scalar> 
19
(
315.8166132
315.1671642
307.2713631
306.6154805
302.8999199
300.8228989
304.218093
306.9513898
302.8030594
297.6131106
303.5006421
296.2617949
299.4155868
306.0758185
296.3069154
303.999989
300.959968
297.8262772
297.9336877
)
;
    }
}


// ************************************************************************* //
