/*--------------------------------*- C++ -*----------------------------------*\
  =========                 |
  \\      /  F ield         | OpenFOAM: The Open Source CFD Toolbox
   \\    /   O peration     | Website:  https://openfoam.org
    \\  /    A nd           | Version:  7
     \\/     M anipulation  |
\*---------------------------------------------------------------------------*/
FoamFile
{
    version     2.0;
    format      ascii;
    class       volScalarField;
    location    "0.001";
    object      rhoMMean;
}
// * * * * * * * * * * * * * * * * * * * * * * * * * * * * * * * * * * * * * //

dimensions      [1 -3 0 0 0 0 0];

internalField   nonuniform List<scalar> 
654
(
9.972579638e-06
9.565972555e-06
9.55859096e-06
9.84506616e-06
9.785833429e-06
1.008215822e-05
1.00380455e-05
8.10798162e-06
8.224773739e-06
8.334992673e-06
8.632938212e-06
8.989170032e-06
9.505571678e-06
9.52523208e-06
9.649944913e-06
9.78141656e-06
9.791149418e-06
9.849946217e-06
6.27600586e-06
6.463303978e-06
6.581428009e-06
6.962343051e-06
7.233486163e-06
7.628856935e-06
8.102172023e-06
8.385120699e-06
8.664135843e-06
8.762357984e-06
9.028391478e-06
9.2863706e-06
9.443753053e-06
9.568336739e-06
9.556652797e-06
9.518067212e-06
5.329697073e-06
5.400404191e-06
5.440847631e-06
5.533972731e-06
5.639392905e-06
5.718335799e-06
5.916780587e-06
6.197199271e-06
6.475052613e-06
6.510238659e-06
6.873665175e-06
7.105479711e-06
7.541786798e-06
7.812064139e-06
8.076142876e-06
8.420112158e-06
8.55064893e-06
8.808943643e-06
8.975423161e-06
9.084582072e-06
9.29137957e-06
9.316904162e-06
4.792369886e-06
4.836500962e-06
4.927662965e-06
4.982811811e-06
4.964588378e-06
4.98172105e-06
5.092517348e-06
5.103290795e-06
5.161360962e-06
5.387763113e-06
5.3681662e-06
5.473585638e-06
5.611790664e-06
5.723634392e-06
5.991950547e-06
6.15002502e-06
6.46339646e-06
6.585069115e-06
6.88518403e-06
7.330730447e-06
7.674442817e-06
7.733186124e-06
8.14461091e-06
8.282622941e-06
8.598077537e-06
8.859607663e-06
9.127843779e-06
9.420038565e-06
4.835819172e-06
4.813132837e-06
4.930897381e-06
4.859836972e-06
4.775710372e-06
4.790385614e-06
4.88384593e-06
5.006255408e-06
5.093043982e-06
5.052582302e-06
5.183073306e-06
5.198163955e-06
5.264761096e-06
5.282876247e-06
5.487273554e-06
5.63624037e-06
5.694702519e-06
5.953619467e-06
6.198532587e-06
6.517927204e-06
6.665403346e-06
6.648111961e-06
6.948538411e-06
7.13668201e-06
7.333815706e-06
7.903896636e-06
7.974154299e-06
8.362120283e-06
8.437165879e-06
8.739151484e-06
4.811069194e-06
4.789553857e-06
4.744441679e-06
4.864544404e-06
4.84895304e-06
4.855988871e-06
4.806717808e-06
4.808198437e-06
4.781051604e-06
4.836133459e-06
4.926467273e-06
4.971716517e-06
5.279292833e-06
5.461402489e-06
5.504016487e-06
5.602568799e-06
5.75390629e-06
5.814376768e-06
5.830691255e-06
5.890708227e-06
6.09200991e-06
6.326326824e-06
6.386902414e-06
6.856361509e-06
6.9075996e-06
7.01042967e-06
7.359820638e-06
7.615657069e-06
8.073077517e-06
8.3652661e-06
4.812098047e-06
4.664210876e-06
4.683180694e-06
4.666332303e-06
4.727659244e-06
4.707152007e-06
4.707232758e-06
4.675754743e-06
4.755225609e-06
4.846476231e-06
4.981927072e-06
5.032996029e-06
5.094338074e-06
5.039591569e-06
5.061323322e-06
5.112917114e-06
5.21868303e-06
5.343209858e-06
5.373571829e-06
5.569589077e-06
5.724832032e-06
5.895938077e-06
6.173601449e-06
6.274229418e-06
6.651544813e-06
7.005542186e-06
7.323927002e-06
7.52422519e-06
7.79795196e-06
8.075868115e-06
4.775032271e-06
4.868669007e-06
4.870397398e-06
4.828741855e-06
4.81974657e-06
4.878247851e-06
4.948542834e-06
4.980808269e-06
4.97430974e-06
4.990034773e-06
4.951529679e-06
4.88548619e-06
4.851733361e-06
4.901425938e-06
4.958219084e-06
5.053619619e-06
5.081236892e-06
5.056370471e-06
5.36891947e-06
5.30245715e-06
5.479815286e-06
5.611676765e-06
5.805879115e-06
6.050243542e-06
6.224110831e-06
6.473328308e-06
6.677919837e-06
7.022650975e-06
7.169360417e-06
7.30138589e-06
4.876145008e-06
4.829907127e-06
4.873092107e-06
4.927605411e-06
4.982938324e-06
4.868336828e-06
4.902839295e-06
4.931609342e-06
4.911433678e-06
4.91695465e-06
4.930610804e-06
4.974805273e-06
4.914947248e-06
5.007618725e-06
4.948741841e-06
4.872800316e-06
5.057613799e-06
5.044300625e-06
5.04636852e-06
5.150983055e-06
5.236075451e-06
5.306969082e-06
5.70508546e-06
5.956119653e-06
6.096070342e-06
6.190739171e-06
6.221211131e-06
6.453249007e-06
6.572767534e-06
6.940307271e-06
4.833700549e-06
4.892361507e-06
4.824255997e-06
4.862363395e-06
4.944529704e-06
4.831339212e-06
4.868372991e-06
4.972741191e-06
5.001502185e-06
5.029109191e-06
5.043007477e-06
5.024856653e-06
5.034535845e-06
5.019661483e-06
4.936459224e-06
4.981978646e-06
4.926100945e-06
5.019958396e-06
5.178379001e-06
5.302633817e-06
5.427974725e-06
5.514273126e-06
5.501717239e-06
5.624944306e-06
5.928840604e-06
6.064316763e-06
6.254907507e-06
6.508048786e-06
6.716360465e-06
6.826008801e-06
4.72568804e-06
4.815380623e-06
4.832589417e-06
4.770077165e-06
4.788890401e-06
4.891983195e-06
4.840525117e-06
4.843847523e-06
4.847210192e-06
4.836250188e-06
4.783829592e-06
4.818233843e-06
4.857273718e-06
4.812313107e-06
4.905746723e-06
4.951139794e-06
5.053379214e-06
5.072201403e-06
5.116068615e-06
5.150818897e-06
5.197354017e-06
5.239382829e-06
5.289086017e-06
5.286619658e-06
5.623285029e-06
5.799085145e-06
5.86705927e-06
6.123353287e-06
6.324179414e-06
6.610686871e-06
4.936703083e-06
4.893280785e-06
4.857707578e-06
4.821449312e-06
4.848949342e-06
4.916328292e-06
5.002331818e-06
4.885143521e-06
4.928390611e-06
4.845665853e-06
4.771580156e-06
4.787428629e-06
4.766120625e-06
4.946038604e-06
4.898440913e-06
4.897282485e-06
4.982161003e-06
4.969234013e-06
4.915739161e-06
5.076881044e-06
5.217913991e-06
5.319988103e-06
5.325785494e-06
5.398562902e-06
5.338625623e-06
5.51769857e-06
5.670198062e-06
5.799658694e-06
5.945051591e-06
6.241493804e-06
4.779494857e-06
4.864625982e-06
4.862240164e-06
4.867744261e-06
4.797651972e-06
4.741792369e-06
4.778313756e-06
4.739695363e-06
4.697158705e-06
4.804380787e-06
4.807171756e-06
4.792325481e-06
4.779539984e-06
4.807708859e-06
4.820579846e-06
4.942141537e-06
4.881382349e-06
5.067790495e-06
5.183361123e-06
5.202205447e-06
5.266961723e-06
5.183869976e-06
5.288676209e-06
5.21755945e-06
5.347508354e-06
5.340404361e-06
5.6142921e-06
5.679170908e-06
5.798833613e-06
6.000394382e-06
4.900648213e-06
4.919866444e-06
4.797674261e-06
4.797068657e-06
4.747481056e-06
4.672533965e-06
4.624985785e-06
4.641861732e-06
4.621480937e-06
4.688379434e-06
4.77851777e-06
4.933607055e-06
4.946806296e-06
4.948653205e-06
5.026760402e-06
5.084398018e-06
5.092837582e-06
5.009717776e-06
4.96825221e-06
4.938208367e-06
4.989190714e-06
4.998052944e-06
5.019515909e-06
5.240483985e-06
5.393593718e-06
5.400961432e-06
5.363713319e-06
5.427214695e-06
5.474482031e-06
5.521084041e-06
4.757392942e-06
4.679211554e-06
4.701928533e-06
4.641944308e-06
4.628657452e-06
4.702553221e-06
4.678733398e-06
4.720383613e-06
4.753336262e-06
4.784890357e-06
4.6336403e-06
4.659901092e-06
4.749118938e-06
4.766199211e-06
4.772741379e-06
4.818914897e-06
4.746504632e-06
4.802057653e-06
4.873845668e-06
4.848350844e-06
4.875502035e-06
4.981322366e-06
5.150280631e-06
5.062543074e-06
4.962357911e-06
4.997582316e-06
4.993877003e-06
5.12254912e-06
5.267854894e-06
5.395046569e-06
4.597232413e-06
4.570821399e-06
4.563996534e-06
4.665999239e-06
4.781345419e-06
4.701403257e-06
4.818827146e-06
4.780353834e-06
4.664679925e-06
4.714195293e-06
4.895229891e-06
4.90685591e-06
4.873127689e-06
4.864188264e-06
4.822226794e-06
4.922399862e-06
4.909079918e-06
4.939826828e-06
5.001432763e-06
4.983593545e-06
4.946913064e-06
4.859961601e-06
4.698127349e-06
4.818587314e-06
4.85185485e-06
4.885005339e-06
4.923164168e-06
4.99826878e-06
5.080164153e-06
5.105675982e-06
4.647489256e-06
4.694857674e-06
4.748364057e-06
4.817316254e-06
4.807040327e-06
4.79797686e-06
4.721137236e-06
4.87007364e-06
4.90546155e-06
4.910943381e-06
4.871308702e-06
4.875155694e-06
4.870053544e-06
4.839818122e-06
4.898787941e-06
4.844178928e-06
4.858239505e-06
4.75915776e-06
4.860634914e-06
4.809925742e-06
4.869945911e-06
4.846261713e-06
4.864968837e-06
4.838701285e-06
4.786065127e-06
4.85255139e-06
4.987791177e-06
4.951399398e-06
5.07224818e-06
5.163952223e-06
4.992846615e-06
4.952254311e-06
4.95929871e-06
4.810768324e-06
4.898045572e-06
4.965783133e-06
4.999483059e-06
4.909170523e-06
4.964959762e-06
4.924822574e-06
4.917301565e-06
4.952431233e-06
4.87737324e-06
4.81822662e-06
4.813238114e-06
4.793602394e-06
4.74056322e-06
4.687980841e-06
4.653767037e-06
4.74395398e-06
4.739649279e-06
4.848004294e-06
4.87632242e-06
5.049582724e-06
5.056000801e-06
5.025659074e-06
5.026262358e-06
5.075169069e-06
5.127224773e-06
5.19104547e-06
4.878111634e-06
4.870303893e-06
4.82381476e-06
4.890880778e-06
4.910923303e-06
4.872194537e-06
4.945727866e-06
4.958480591e-06
4.868069265e-06
4.814204246e-06
4.762868073e-06
4.698424851e-06
4.790899065e-06
4.835334347e-06
4.78846335e-06
4.796963744e-06
4.840508908e-06
4.921716616e-06
4.941134041e-06
4.92538614e-06
4.889809834e-06
4.950845234e-06
5.035887177e-06
5.003232315e-06
5.005054001e-06
5.124399214e-06
5.211296647e-06
5.175682493e-06
5.133792014e-06
5.114415442e-06
4.984483257e-06
5.035109685e-06
5.02097904e-06
4.939609057e-06
4.955884885e-06
4.950270069e-06
4.807752654e-06
4.82322288e-06
4.867269009e-06
4.963711128e-06
4.950216621e-06
4.925337493e-06
4.825088962e-06
4.863511772e-06
4.905726685e-06
4.899077592e-06
4.914607546e-06
4.777549911e-06
4.798841996e-06
4.740524044e-06
4.80829276e-06
4.856643485e-06
4.917188535e-06
4.828258965e-06
4.846448415e-06
4.740723758e-06
4.920801079e-06
5.012222529e-06
5.202414044e-06
5.108334643e-06
4.666759978e-06
4.609062098e-06
4.684647843e-06
4.717016266e-06
4.846292942e-06
4.798710412e-06
4.815519864e-06
4.803728136e-06
4.858854135e-06
4.839562353e-06
4.820614103e-06
4.841868905e-06
4.978641731e-06
4.876687776e-06
4.894271543e-06
4.89908973e-06
4.850636031e-06
4.946886603e-06
4.964288324e-06
4.937316469e-06
4.89173246e-06
4.919866922e-06
4.846489911e-06
4.862684665e-06
4.903592198e-06
4.946311758e-06
4.86960342e-06
4.774942742e-06
4.82158645e-06
4.907930514e-06
4.914506567e-06
5.030632299e-06
5.05656262e-06
4.98565539e-06
4.917211018e-06
4.965926154e-06
4.911886767e-06
4.903355642e-06
4.786080965e-06
4.871163709e-06
4.853258994e-06
4.855965535e-06
4.79435008e-06
4.795638329e-06
4.834650945e-06
4.824254304e-06
4.834944605e-06
4.916473768e-06
4.820831729e-06
4.865528386e-06
4.87813762e-06
4.849909678e-06
4.836868543e-06
4.787019626e-06
4.746419572e-06
4.768414922e-06
4.804054542e-06
4.721831834e-06
4.737463903e-06
4.824124679e-06
4.718244437e-06
4.593228853e-06
4.654467063e-06
4.632222141e-06
4.665353402e-06
4.604941468e-06
4.70258745e-06
4.737977158e-06
4.742731804e-06
4.809154633e-06
4.756652834e-06
4.756154459e-06
4.707958628e-06
4.742485647e-06
4.678089299e-06
4.715104164e-06
4.60924719e-06
4.638485064e-06
4.699111123e-06
4.715237062e-06
4.715044751e-06
4.696041857e-06
4.809018024e-06
4.860732692e-06
4.938675724e-06
4.825911664e-06
4.747925183e-06
4.833485881e-06
4.807189e-06
4.901895252e-06
)
;

boundaryField
{
    flow
    {
        type            calculated;
        value           nonuniform List<scalar> 
55
(
9.972579638e-06
1.00380455e-05
9.849946217e-06
9.518067212e-06
9.316904162e-06
9.420038565e-06
8.739151484e-06
8.3652661e-06
8.075868115e-06
7.30138589e-06
6.940307271e-06
6.826008801e-06
6.610686871e-06
6.241493804e-06
6.000394382e-06
5.521084041e-06
5.395046569e-06
5.105675982e-06
5.163952223e-06
5.19104547e-06
5.114415442e-06
5.108334643e-06
4.907930514e-06
4.824124679e-06
4.901895252e-06
4.718244437e-06
4.593228853e-06
4.654467063e-06
4.632222141e-06
4.665353402e-06
4.604941468e-06
4.70258745e-06
4.737977158e-06
4.742731804e-06
4.809154633e-06
4.756652834e-06
4.756154459e-06
4.707958628e-06
4.742485647e-06
4.678089299e-06
4.715104164e-06
4.60924719e-06
4.638485064e-06
4.699111123e-06
4.715237062e-06
4.715044751e-06
4.696041857e-06
4.809018024e-06
4.860732692e-06
4.938675724e-06
4.825911664e-06
4.747925183e-06
4.833485881e-06
4.807189e-06
4.901895252e-06
)
;
    }
    obstacle
    {
        type            calculated;
        value           nonuniform 0();
    }
    frontAndBack
    {
        type            empty;
    }
    procBoundary3to1
    {
        type            processor;
        value           nonuniform List<scalar> 
36
(
9.920927209e-06
9.790917094e-06
1.005248815e-05
1.01694103e-05
1.031790731e-05
1.007297937e-05
1.007297937e-05
8.582362788e-06
8.83525339e-06
9.007070798e-06
9.085407029e-06
9.355825604e-06
9.355825604e-06
6.455982287e-06
6.827047314e-06
7.191516486e-06
7.478308766e-06
7.884526397e-06
7.884526397e-06
4.987746312e-06
5.039009546e-06
5.16522263e-06
5.382247401e-06
5.70717002e-06
5.969035224e-06
5.969035224e-06
4.740486446e-06
4.802976185e-06
4.94287638e-06
4.971050768e-06
5.118738122e-06
5.253011555e-06
5.253011555e-06
4.675014342e-06
4.784292265e-06
4.784292265e-06
)
;
    }
    procBoundary3to2
    {
        type            processor;
        value           nonuniform List<scalar> 
19
(
4.840577524e-06
4.742347858e-06
4.838172292e-06
4.769715353e-06
4.852213947e-06
4.801628359e-06
4.695599094e-06
4.932575858e-06
4.850936947e-06
4.936725329e-06
4.834896723e-06
4.57562209e-06
4.635689636e-06
4.967016515e-06
4.874726951e-06
5.054272124e-06
4.708706237e-06
4.848862211e-06
4.733175017e-06
)
;
    }
}


// ************************************************************************* //
