/*--------------------------------*- C++ -*----------------------------------*\
  =========                 |
  \\      /  F ield         | OpenFOAM: The Open Source CFD Toolbox
   \\    /   O peration     | Website:  https://openfoam.org
    \\  /    A nd           | Version:  7
     \\/     M anipulation  |
\*---------------------------------------------------------------------------*/
FoamFile
{
    version     2.0;
    format      ascii;
    class       volScalarField;
    location    "0.001";
    object      rhoM;
}
// * * * * * * * * * * * * * * * * * * * * * * * * * * * * * * * * * * * * * //

dimensions      [1 -3 0 0 0 0 0];

internalField   nonuniform List<scalar> 
654
(
1.987157831e-06
2.621821416e-06
2.55443415e-06
5.155131215e-06
3.994257225e-06
4.687371145e-06
3.311929688e-06
3.029898043e-06
1.22236846e-06
1.937202486e-06
3.37492893e-06
3.226056293e-06
1.988892839e-06
5.10886821e-06
4.141565863e-06
3.251399779e-06
4.031094021e-06
3.974315662e-06
1.16246367e-06
3.096949433e-06
5.908843537e-07
4.851480726e-06
2.403451541e-06
3.808418974e-06
1.833552689e-06
3.170160515e-06
5.063463272e-06
3.942717845e-06
1.265857063e-06
1.368132945e-06
3.866348411e-06
2.601119823e-06
3.374816928e-06
4.162917596e-06
1.187037761e-06
2.871631226e-06
3.054603163e-06
2.430857485e-06
2.531810665e-06
1.153045761e-06
1.743695506e-06
2.344073408e-06
3.545306151e-06
3.063985186e-06
1.888130855e-06
4.24185726e-06
4.015151796e-06
3.78663957e-06
1.95413146e-06
3.226056293e-06
1.988892856e-06
4.652091526e-06
2.669304747e-06
2.69369729e-06
6.749633796e-06
5.58199045e-06
4.76413343e-06
3.73320751e-06
2.225868965e-06
4.408528081e-06
3.428835943e-06
5.654516261e-06
2.295193872e-06
5.584261168e-07
1.688528879e-06
3.48474965e-06
4.003227297e-06
4.694260104e-06
2.407674774e-06
2.344073389e-06
2.954421745e-06
4.340474762e-06
1.88813084e-06
5.020378159e-06
3.22994433e-06
1.320723435e-06
3.197864157e-06
3.226056293e-06
3.164642657e-06
2.006741459e-06
1.288782792e-06
5.294817137e-06
2.718539774e-06
1.324771875e-06
2.607941113e-06
2.176562662e-06
3.780798021e-06
3.275817883e-06
2.686712357e-06
2.784235452e-06
3.351163795e-06
2.27746091e-06
4.59038771e-06
4.626410228e-06
1.768658322e-06
4.052079811e-06
1.14377921e-06
1.893722669e-06
1.16246368e-06
3.013520633e-06
1.856774677e-06
1.191663693e-06
4.206040231e-06
3.808419006e-06
4.36530125e-06
3.170160542e-06
1.95413146e-06
4.659379437e-06
3.254749958e-06
2.006741494e-06
6.719131508e-06
6.037674583e-06
2.625108494e-06
3.311929719e-06
3.725373774e-06
4.353125356e-06
3.705437112e-06
2.818428305e-06
1.612027414e-06
2.707154327e-06
5.143253877e-06
2.199188743e-06
2.452957173e-06
3.030632554e-06
1.768658322e-06
3.40398132e-06
4.81936912e-06
5.270782947e-06
2.490422169e-06
2.427502238e-06
2.447659015e-06
3.063985186e-06
2.403451541e-06
1.298229863e-06
4.45231278e-06
2.729212294e-06
4.353064537e-06
2.598707608e-06
4.520606965e-06
3.831651191e-06
4.694218139e-06
2.693697314e-06
1.40598554e-06
3.500531652e-06
1.191688885e-06
1.125683595e-06
2.11739262e-06
3.809133266e-06
2.225868965e-06
2.165723478e-06
2.883253964e-06
4.083396874e-06
2.295193872e-06
2.871631226e-06
2.894344246e-06
2.350089201e-06
3.594172489e-06
1.153045761e-06
3.652885839e-06
4.855004514e-06
3.122664995e-06
1.78749554e-06
1.20172577e-06
1.211959217e-06
6.372877111e-06
1.232958056e-06
3.197864185e-06
3.764092112e-06
3.25474993e-06
1.277217064e-06
2.761043909e-06
3.43655476e-06
4.031094021e-06
3.311929719e-06
1.117432661e-06
2.70200222e-06
4.234785271e-06
4.342448624e-06
2.763211436e-06
1.082861731e-06
2.182327815e-06
1.177866573e-06
3.482231634e-06
3.430057365e-06
5.628429552e-07
2.836651078e-06
3.022282852e-06
2.388168544e-06
2.988906614e-06
4.352415012e-06
3.629427693e-06
3.063985161e-06
5.664392566e-06
1.211959227e-06
2.924580783e-289
2.553681492e-06
7.816525772e-06
3.31536916e-06
2.62182137e-06
3.193042659e-06
6.719131508e-06
3.994257225e-06
3.468248179e-06
4.825303495e-06
2.682197329e-06
1.651123124e-06
2.192753567e-06
3.885058994e-06
3.453552091e-06
5.10412124e-06
4.987909719e-06
1.099594372e-06
3.878546389e-06
4.067984115e-06
2.251371821e-06
1.134660449e-06
5.309841331e-06
2.306091523e-06
3.652885839e-06
3.263807157e-06
2.954421793e-06
2.637805246e-06
4.977987481e-06
3.808418942e-06
4.365301176e-06
4.403118561e-06
1.865599087e-06
1.254697371e-06
4.700821454e-06
2.554434105e-06
3.313696114e-06
1.95083985e-06
3.561679459e-06
3.311929719e-06
2.086352905e-06
3.227441785e-06
1.058696318e-06
3.427669395e-06
3.377052961e-06
2.319885712e-06
2.805581845e-06
1.256138756e-06
2.216312205e-06
4.067984115e-06
3.457187175e-06
2.430857466e-06
1.797086231e-06
3.459137284e-06
2.407674755e-06
5.441022822e-06
2.531780616e-06
4.25564888e-06
4.377124596e-06
3.029898043e-06
3.841128587e-06
5.107363028e-06
2.575997822e-06
3.31536916e-06
2.531714148e-06
4.652091526e-06
3.958087574e-06
2.601119823e-06
4.87423375e-06
5.393388516e-06
5.512907129e-06
2.101758167e-06
2.268114563e-06
5.485005098e-06
2.149369886e-06
1.624292596e-06
1.636745861e-06
4.55492189e-06
3.324468334e-06
3.509558003e-06
5.225845537e-06
1.701990673e-06
1.143779228e-06
2.306091523e-06
2.781255425e-289
5.860183567e-07
1.772653061e-06
3.829468908e-06
2.403451541e-06
4.241857295e-06
3.841128587e-06
1.320723447e-06
3.197864185e-06
2.509394763e-06
1.355964319e-06
2.554434127e-06
1.933174206e-06
7.245657069e-06
4.031094058e-06
5.487689433e-06
1.564764668e-06
3.227441738e-06
3.251449893e-06
3.42766942e-06
2.149369886e-06
1.159942865e-06
2.805581866e-06
4.083396874e-06
2.849271928e-06
6.381189229e-06
3.377057705e-06
2.26932088e-06
4.16606207e-06
1.153045752e-06
2.324927341e-06
2.510931086e-06
3.038543369e-06
3.659817033e-06
5.493308212e-06
3.288710006e-06
2.531748524e-06
3.170160542e-06
3.90826292e-06
1.971358923e-06
2.531714148e-06
2.006741477e-06
2.577565585e-06
4.737114672e-06
6.749633796e-06
4.068616629e-06
1.564764679e-06
4.353125388e-06
4.536229093e-06
1.599946064e-06
2.149369886e-06
2.938397703e-06
2.883253964e-06
2.905530332e-06
5.540780556e-07
2.951131913e-06
4.100159658e-06
2.430857485e-06
1.225196621e-06
1.235122782e-06
3.487391011e-06
4.688146816e-06
2.447659035e-06
2.46815334e-06
2.403451541e-06
3.89468962e-06
3.667105379e-06
3.698874106e-06
3.286396529e-06
1.254697371e-06
1.898785594e-06
1.915825595e-06
2.66930477e-06
4.737114672e-06
5.437079549e-06
4.825303495e-06
3.203785551e-06
4.278320814e-06
2.646740775e-06
2.285112947e-06
3.914395458e-06
1.624292608e-06
3.896745803e-06
3.926852502e-06
1.108156111e-06
3.589058666e-06
2.411630742e-06
3.40398132e-06
2.287558455e-06
2.306091523e-06
2.98890659e-06
1.172036695e-06
4.388555277e-06
3.14881114e-06
2.574535941e-06
1.817938826e-06
3.142932753e-06
1.849437084e-06
3.90826292e-06
1.882046056e-06
5.153535496e-06
5.838392616e-06
4.602478935e-06
5.294817137e-06
8.905327808e-06
2.743844767e-06
4.694294003e-06
3.15263725e-06
2.722101758e-06
5.027615496e-06
2.30236806e-06
3.248585216e-06
3.974417842e-06
3.377055291e-06
3.007035228e-06
3.350556675e-06
2.814214754e-06
2.350089183e-06
1.797086245e-06
3.623291326e-06
2.906159199e-06
4.268986197e-06
2.954421769e-06
2.46815332e-06
3.004314426e-06
3.029898043e-06
3.229944358e-06
2.465916113e-06
4.530129282e-06
1.254697371e-06
2.531714148e-06
3.283958569e-06
3.497174467e-06
3.25139975e-06
4.124525302e-06
5.487689433e-06
3.203785574e-06
2.70200222e-06
3.780798049e-06
7.084951173e-06
3.990894536e-06
4.949958914e-06
1.091163908e-06
5.261263439e-06
2.849271906e-06
2.792130563e-06
3.697575612e-06
3.646286227e-06
5.718896094e-07
2.964691424e-06
2.407674755e-06
3.013520585e-06
1.181768707e-06
3.659817033e-06
3.089856626e-06
4.328127942e-06
4.365301213e-06
1.849437069e-06
5.151995644e-06
2.509394763e-06
1.898785611e-06
3.28395854e-06
2.577565607e-06
2.786274804e-06
2.155693932e-06
4.068616629e-06
4.172705781e-06
3.827685814e-06
2.192753583e-06
1.599946064e-06
2.225868965e-06
4.485609207e-06
2.259999913e-06
2.355733129e-06
3.403349984e-06
2.47220646e-06
2.894344246e-06
1.70199066e-06
4.003227297e-06
1.811645677e-06
4.234117708e-06
3.013520609e-06
3.038543394e-06
3.744642956e-06
2.48899372e-06
6.404878667e-06
4.452312817e-06
4.403118561e-06
2.5759978e-06
3.764092112e-06
7.142428397e-06
6.386085318e-07
4.78595726e-06
3.43655476e-06
2.249125213e-06
3.406230654e-06
4.694294003e-06
6.454883476e-06
4.914855322e-06
3.885059022e-06
4.912581322e-06
5.414308654e-07
4.052089969e-06
6.204313447e-06
5.540780556e-07
1.196352889e-06
3.457187201e-06
2.998187728e-06
4.0846447e-06
3.459137284e-06
2.490422189e-06
3.013520609e-06
2.363537396e-06
4.340474797e-06
3.089856626e-06
1.904209471e-06
1.833552674e-06
1.849437069e-06
4.353064537e-06
5.824763901e-06
4.520606965e-06
6.111140312e-06
3.405435335e-06
3.251399779e-06
2.06226267e-06
1.987157849e-06
2.08635292e-06
3.902490354e-06
4.310146235e-06
2.133261434e-06
4.298739772e-06
2.319885712e-06
2.805581866e-06
2.905530332e-06
2.295193872e-06
3.908982788e-06
2.251371803e-06
4.213616414e-06
3.431337656e-06
3.541214305e-06
1.909190333e-06
1.172036704e-06
4.304433712e-06
4.936306679e-06
5.407765966e-06
5.106648847e-06
3.66710541e-06
7.573279141e-06
3.286396557e-06
3.404682027e-06
3.164642657e-06
3.055808925e-289
6.443914019e-07
4.737114672e-06
4.031094021e-06
2.081458779e-06
4.172705781e-06
3.302246249e-06
2.797462702e-06
4.342448624e-06
4.989080401e-06
3.944178338e-06
2.883253964e-06
2.90553031e-06
4.036309689e-06
2.792130563e-06
2.814214776e-06
1.134660449e-06
3.512755059e-06
6.585998963e-07
2.98890659e-06
2.930091736e-06
3.797670924e-06
2.552979293e-06
3.605177341e-06
3.89468962e-06
3.142932727e-06
1.232958046e-06
6.218663624e-07
8.423471509e-06
5.966678569e-06
6.386085318e-07
2.669304747e-06
8.173669431e-06
4.031094021e-06
6.150075427e-06
2.08635289e-06
2.627197709e-06
3.780798049e-06
1.066630709e-06
1.15118403e-06
5.181202328e-06
5.611163733e-06
5.732788419e-06
1.662234154e-06
3.908982818e-06
2.251371821e-06
1.13466044e-06
4.656534314e-06
5.765228807e-07
6.393550187e-06
2.427502257e-06
2.954421793e-06
3.744642986e-06
5.493308166e-06
3.288709979e-06
3.667105379e-06
4.403118561e-06
2.042663815e-06
6.362799775e-06
4.067892958e-06
3.465790303e-06
3.313696143e-06
3.9016797e-06
6.656202515e-06
2.743844716e-06
2.756453564e-06
3.15263725e-06
4.914855322e-06
2.133261434e-06
3.453552065e-06
2.242804603e-06
3.428835918e-06
3.29878309e-06
1.187037761e-06
3.430057339e-06
5.305975007e-06
5.834838805e-06
4.084644668e-06
4.199814206e-06
2.407674774e-06
3.599538961e-06
2.447658995e-06
4.936306639e-06
3.175398826e-06
4.58693988e-06
1.396391668e-06
3.786639538e-06
4.353064537e-06
5.197415216e-06
1.988892856e-06
3.922567072e-06
4.602478935e-06
4.086834716e-06
2.06226267e-06
3.406230716e-06
4.768550219e-06
6.004248492e-06
2.797462722e-06
4.418374381e-06
3.300553908e-06
2.165723461e-06
2.259999913e-06
3.455327518e-06
3.957428039e-06
2.23370445e-06
1.848787792e-06
2.350089183e-06
6.453620559e-06
3.541214305e-06
4.15137026e-06
3.013520609e-06
4.979439672e-06
5.447312573e-06
3.605177311e-06
2.596459725e-06
4.278289609e-06
3.082395141e-06
3.819730547e-06
3.942717845e-06
3.887678433e-06
1.277217064e-06
1.288782804e-06
5.202239646e-06
8.625033885e-06
4.068616592e-06
)
;

boundaryField
{
    flow
    {
        type            zeroGradient;
    }
    obstacle
    {
        type            calculated;
        value           nonuniform 0();
    }
    frontAndBack
    {
        type            empty;
    }
    procBoundary3to1
    {
        type            processor;
        value           nonuniform List<scalar> 
36
(
3.500531652e-06
3.887678433e-06
3.922567038e-06
2.577565585e-06
3.343977269e-06
2.155693932e-06
2.155693932e-06
3.029898043e-06
4.278289573e-06
3.962170306e-06
5.063463229e-06
1.882046072e-06
1.882046072e-06
2.407674774e-06
3.51611014e-06
3.20678657e-06
5.616964433e-06
3.605177311e-06
3.605177311e-06
3.324468334e-06
5.18483634e-06
2.251371821e-06
5.834838805e-06
1.878503633e-06
2.388168544e-06
2.388168544e-06
2.192753583e-06
2.666576793e-06
1.074684951e-06
2.165723478e-06
2.259999913e-06
4.083396905e-06
4.083396905e-06
5.438650912e-06
3.75288133e-06
3.75288133e-06
)
;
    }
    procBoundary3to2
    {
        type            processor;
        value           nonuniform List<scalar> 
19
(
4.363491336e-06
1.035585909e-06
3.180473627e-06
2.071171803e-06
3.254189527e-06
3.106757727e-06
2.144887733e-06
2.736396573e-06
5.399077245e-06
2.588964772e-06
1.627094764e-06
2.588964772e-06
2.662680672e-06
6.434663108e-06
3.18047365e-06
5.325361345e-06
4.289775436e-06
5.399077245e-06
3.845698382e-06
)
;
    }
}


// ************************************************************************* //
