/*--------------------------------*- C++ -*----------------------------------*\
  =========                 |
  \\      /  F ield         | OpenFOAM: The Open Source CFD Toolbox
   \\    /   O peration     | Website:  https://openfoam.org
    \\  /    A nd           | Version:  7
     \\/     M anipulation  |
\*---------------------------------------------------------------------------*/
FoamFile
{
    version     2.0;
    format      ascii;
    class       volScalarField;
    location    "0.001";
    object      rhoNMean;
}
// * * * * * * * * * * * * * * * * * * * * * * * * * * * * * * * * * * * * * //

dimensions      [0 -3 0 0 0 0 0];

internalField   nonuniform List<scalar> 
654
(
2.078609826e+20
1.994065193e+20
1.992458637e+20
2.051797655e+20
2.038103242e+20
2.101498144e+20
2.091715077e+20
1.688141903e+20
1.713155968e+20
1.738868588e+20
1.801941369e+20
1.876109853e+20
1.980998246e+20
1.987239865e+20
2.012164102e+20
2.039781384e+20
2.039116533e+20
2.052399285e+20
1.310209053e+20
1.34973258e+20
1.372630707e+20
1.452548347e+20
1.5100395e+20
1.592488361e+20
1.685816974e+20
1.745232227e+20
1.804081125e+20
1.822953857e+20
1.881363045e+20
1.934503178e+20
1.968650377e+20
1.995590316e+20
1.993388855e+20
1.985448448e+20
1.112922374e+20
1.128140839e+20
1.135369221e+20
1.15418148e+20
1.176493773e+20
1.191976554e+20
1.231461514e+20
1.289240374e+20
1.3487412e+20
1.358240339e+20
1.433284112e+20
1.480935972e+20
1.575146626e+20
1.627769787e+20
1.684789771e+20
1.756036664e+20
1.780366723e+20
1.836171214e+20
1.871090888e+20
1.89490179e+20
1.939475318e+20
1.942998768e+20
9.995003947e+19
1.007908682e+20
1.026381899e+20
1.039314396e+20
1.035315096e+20
1.037638732e+20
1.059778543e+20
1.06233063e+20
1.075574739e+20
1.122703812e+20
1.118935851e+20
1.140895396e+20
1.17046343e+20
1.193965123e+20
1.24937095e+20
1.281358789e+20
1.34722503e+20
1.371468688e+20
1.432931273e+20
1.52727705e+20
1.600001956e+20
1.615186766e+20
1.700604101e+20
1.7276764e+20
1.795149709e+20
1.847913836e+20
1.902497984e+20
1.964650936e+20
1.009076914e+20
1.004324003e+20
1.028642988e+20
1.014331397e+20
9.961058288e+19
9.987944007e+19
1.018184981e+20
1.044732873e+20
1.063114919e+20
1.053203657e+20
1.080416383e+20
1.085125793e+20
1.098274015e+20
1.102212552e+20
1.145714203e+20
1.175565426e+20
1.1886306e+20
1.24214923e+20
1.292178258e+20
1.359218801e+20
1.390082681e+20
1.385950916e+20
1.448881757e+20
1.48782825e+20
1.531006504e+20
1.649944724e+20
1.662945553e+20
1.745267494e+20
1.760234039e+20
1.821062775e+20
1.003019761e+20
9.986741225e+19
9.90165653e+19
1.014331404e+20
1.012514997e+20
1.013698304e+20
1.003636136e+20
1.003823249e+20
9.980554395e+19
1.010451035e+20
1.02836854e+20
1.036323202e+20
1.100733773e+20
1.138663685e+20
1.147464139e+20
1.167247727e+20
1.198033911e+20
1.21293425e+20
1.216715038e+20
1.227858037e+20
1.271263187e+20
1.317806772e+20
1.327985587e+20
1.428466211e+20
1.440354778e+20
1.460147508e+20
1.533790115e+20
1.588361234e+20
1.685150306e+20
1.745565022e+20
1.002346751e+20
9.724586443e+19
9.765050482e+19
9.735012393e+19
9.85936767e+19
9.803974022e+19
9.801702456e+19
9.740277812e+19
9.911443584e+19
1.010931401e+20
1.039020199e+20
1.049987938e+20
1.061623903e+20
1.050387494e+20
1.054717038e+20
1.06768763e+20
1.090276945e+20
1.114782165e+20
1.121610719e+20
1.16191703e+20
1.195818091e+20
1.230836838e+20
1.287597707e+20
1.306234402e+20
1.385909325e+20
1.461520859e+20
1.526584004e+20
1.567384461e+20
1.622768681e+20
1.681463157e+20
9.96962607e+19
1.015623785e+20
1.015437759e+20
1.00699115e+20
1.00396374e+20
1.01742428e+20
1.032499181e+20
1.039294035e+20
1.037377108e+20
1.039513219e+20
1.032241876e+20
1.018022219e+20
1.011937141e+20
1.022863175e+20
1.033967694e+20
1.053320728e+20
1.059271383e+20
1.053789477e+20
1.119543234e+20
1.105619579e+20
1.141928738e+20
1.171177567e+20
1.212706264e+20
1.262252538e+20
1.297979887e+20
1.348356681e+20
1.390222482e+20
1.463899049e+20
1.495182762e+20
1.523060311e+20
1.014012373e+20
1.00545398e+20
1.014299361e+20
1.026488693e+20
1.038631004e+20
1.014629813e+20
1.020766244e+20
1.026761024e+20
1.022125067e+20
1.023420931e+20
1.02691605e+20
1.037543275e+20
1.02423585e+20
1.042452555e+20
1.031217772e+20
1.015008991e+20
1.054950956e+20
1.052251855e+20
1.051833094e+20
1.074343203e+20
1.091719606e+20
1.106215262e+20
1.18783162e+20
1.240666346e+20
1.269940473e+20
1.290126558e+20
1.296543193e+20
1.345030658e+20
1.370419542e+20
1.446422983e+20
1.006609192e+20
1.019013725e+20
1.004736957e+20
1.010890653e+20
1.028693042e+20
1.005081985e+20
1.012318508e+20
1.034091638e+20
1.040951797e+20
1.046958892e+20
1.050398092e+20
1.046083714e+20
1.048833245e+20
1.046172057e+20
1.028967842e+20
1.039205869e+20
1.026740985e+20
1.04712642e+20
1.079744144e+20
1.105880206e+20
1.132202356e+20
1.150230548e+20
1.148513617e+20
1.173479326e+20
1.23672875e+20
1.264307569e+20
1.304026471e+20
1.356218282e+20
1.398928797e+20
1.42249162e+20
9.85296985e+19
1.004550006e+20
1.007469077e+20
9.943750878e+19
9.974925191e+19
1.018355774e+20
1.009737268e+20
1.010917406e+20
1.011400975e+20
1.007809019e+20
9.978660909e+19
1.00460152e+20
1.012183123e+20
1.003769729e+20
1.022968038e+20
1.030636155e+20
1.053171941e+20
1.05712101e+20
1.066822361e+20
1.074864485e+20
1.086199242e+20
1.094813714e+20
1.105718513e+20
1.106022487e+20
1.174660919e+20
1.211296183e+20
1.225313715e+20
1.278744079e+20
1.319893272e+20
1.379187236e+20
1.030389121e+20
1.020369683e+20
1.013616338e+20
1.006761767e+20
1.012283882e+20
1.027204974e+20
1.044701444e+20
1.018720971e+20
1.02689133e+20
1.009970668e+20
9.935085893e+19
9.975251353e+19
9.939810372e+19
1.030798106e+20
1.021468077e+20
1.02257051e+20
1.039448175e+20
1.036619277e+20
1.024697359e+20
1.058444392e+20
1.087776492e+20
1.108071337e+20
1.108660676e+20
1.124910395e+20
1.112048634e+20
1.148671346e+20
1.180137017e+20
1.20658397e+20
1.239164117e+20
1.30226501e+20
9.974112922e+19
1.015397797e+20
1.014299368e+20
1.015019546e+20
1.000034785e+20
9.871507261e+19
9.954230744e+19
9.88216103e+19
9.806585801e+19
1.003485727e+20
1.004402339e+20
1.000697304e+20
9.981625956e+19
1.003273796e+20
1.006218553e+20
1.031392299e+20
1.018354247e+20
1.057121018e+20
1.081036322e+20
1.083726122e+20
1.096977114e+20
1.081025787e+20
1.102241401e+20
1.087944043e+20
1.115315352e+20
1.114062884e+20
1.172099457e+20
1.186446268e+20
1.210090335e+20
1.250983506e+20
1.023210272e+20
1.026923553e+20
1.0013218e+20
1.001485959e+20
9.91252413e+19
9.750413119e+19
9.660907185e+19
9.690618785e+19
9.639766602e+19
9.780262925e+19
9.964135852e+19
1.027050708e+20
1.030877149e+20
1.030054213e+20
1.045967311e+20
1.058109687e+20
1.058763104e+20
1.043282343e+20
1.034776341e+20
1.029253107e+20
1.040721878e+20
1.041518117e+20
1.045537897e+20
1.091721626e+20
1.123482172e+20
1.125873698e+20
1.118053717e+20
1.131067588e+20
1.142627879e+20
1.152124207e+20
9.897837583e+19
9.749445948e+19
9.801478813e+19
9.677666656e+19
9.660608806e+19
9.820275167e+19
9.757117191e+19
9.84669017e+19
9.913826715e+19
9.97721321e+19
9.661532115e+19
9.726358095e+19
9.897994865e+19
9.943469899e+19
9.952189051e+19
1.005179014e+20
9.901442762e+19
1.000484951e+20
1.015393667e+20
1.009966014e+20
1.015748759e+20
1.038071138e+20
1.073354715e+20
1.056374238e+20
1.034463845e+20
1.041549924e+20
1.041281065e+20
1.067857569e+20
1.098593791e+20
1.125343851e+20
9.579276243e+19
9.516670582e+19
9.505499128e+19
9.716661757e+19
9.944880235e+19
9.77602913e+19
1.003166818e+20
9.953102528e+19
9.720792996e+19
9.816290417e+19
1.019169394e+20
1.020950383e+20
1.015872725e+20
1.014184336e+20
1.005718569e+20
1.028115629e+20
1.024961978e+20
1.033031473e+20
1.044855331e+20
1.040460481e+20
1.030469755e+20
1.011821054e+20
9.781356075e+19
1.003488078e+20
1.009963386e+20
1.017378926e+20
1.025205934e+20
1.042126071e+20
1.058511489e+20
1.062951379e+20
9.709392806e+19
9.803684869e+19
9.903933224e+19
1.004697313e+20
1.00350151e+20
1.001123143e+20
9.850980826e+19
1.01611978e+20
1.023554946e+20
1.025342405e+20
1.016506481e+20
1.018510253e+20
1.017102604e+20
1.009472975e+20
1.022468054e+20
1.009463871e+20
1.01250894e+20
9.912591673e+19
1.013067738e+20
1.002407559e+20
1.016537383e+20
1.01129075e+20
1.014243968e+20
1.010233754e+20
9.979853834e+19
1.011885519e+20
1.039340962e+20
1.028980627e+20
1.054277443e+20
1.074632154e+20
1.040035699e+20
1.031443463e+20
1.032741175e+20
1.003550406e+20
1.020835138e+20
1.034889792e+20
1.04141622e+20
1.023450417e+20
1.034755663e+20
1.028224597e+20
1.026431884e+20
1.032419002e+20
1.016610656e+20
1.004017696e+20
1.002468679e+20
9.978695293e+19
9.868403986e+19
9.748577746e+19
9.686168144e+19
9.878119211e+19
9.868325073e+19
1.010495293e+20
1.015581324e+20
1.050168208e+20
1.052703067e+20
1.046219311e+20
1.047101383e+20
1.057509038e+20
1.06839094e+20
1.082324397e+20
1.016255777e+20
1.014945806e+20
1.005419987e+20
1.018460298e+20
1.022452944e+20
1.014862671e+20
1.031325887e+20
1.033145766e+20
1.013545794e+20
1.00132407e+20
9.898773445e+19
9.775160619e+19
9.957028554e+19
1.006249398e+20
9.952188971e+19
9.993818347e+19
1.008442639e+20
1.025087048e+20
1.029349192e+20
1.025864843e+20
1.018114642e+20
1.031177179e+20
1.050619816e+20
1.04477166e+20
1.044808475e+20
1.069291619e+20
1.087012077e+20
1.079045191e+20
1.070084548e+20
1.06693993e+20
1.037119292e+20
1.048393125e+20
1.044352683e+20
1.026947467e+20
1.030773085e+20
1.028835089e+20
1.000350911e+20
1.003586769e+20
1.012830854e+20
1.033988995e+20
1.030305212e+20
1.025098612e+20
1.005541816e+20
1.012944494e+20
1.021718069e+20
1.020050001e+20
1.023437115e+20
9.956157953e+19
1.000404408e+20
9.891151113e+19
1.002605003e+20
1.012881663e+20
1.024407814e+20
1.005107034e+20
1.009963386e+20
9.890878809e+19
1.026591712e+20
1.046321426e+20
1.084480305e+20
1.064090968e+20
9.686958904e+19
9.573169457e+19
9.740006053e+19
9.808414865e+19
1.008817164e+20
9.987944081e+19
1.000350911e+20
9.983843875e+19
1.009494463e+20
1.006127743e+20
1.003191917e+20
1.007773681e+20
1.036042604e+20
1.015672137e+20
1.019468139e+20
1.020806162e+20
1.010475789e+20
1.028931124e+20
1.032967291e+20
1.027428652e+20
1.018640383e+20
1.025874125e+20
1.010231927e+20
1.013201864e+20
1.022213616e+20
1.030563102e+20
1.014673936e+20
9.9401933e+19
1.002622083e+20
1.021926176e+20
1.026126687e+20
1.049071119e+20
1.054598131e+20
1.038645997e+20
1.023377404e+20
1.034191179e+20
1.023112825e+20
1.022031578e+20
9.968638738e+19
1.013573417e+20
1.010212323e+20
1.010457824e+20
9.976706476e+19
9.978185255e+19
1.006468554e+20
1.005179005e+20
1.007680191e+20
1.026112127e+20
1.006089984e+20
1.01596066e+20
1.017326008e+20
1.008904379e+20
1.006487364e+20
9.953932474e+19
9.868240629e+19
9.923839249e+19
1.000261741e+20
9.842301783e+19
9.887908748e+19
1.005971952e+20
9.841752828e+19
9.588989142e+19
9.717238461e+19
9.675372827e+19
9.741498999e+19
9.610688952e+19
9.811088812e+19
9.88452575e+19
9.892378532e+19
1.003725903e+20
9.920560914e+19
9.914248104e+19
9.819283177e+19
9.896356201e+19
9.752195222e+19
9.82746475e+19
9.604094584e+19
9.66913358e+19
9.797295474e+19
9.83120466e+19
9.826265166e+19
9.805330951e+19
1.003277731e+20
1.014011337e+20
1.029835972e+20
1.006117442e+20
9.897297617e+19
1.007724164e+20
1.002057543e+20
1.021926176e+20
)
;

boundaryField
{
    flow
    {
        type            calculated;
        value           nonuniform List<scalar> 
55
(
2.078609826e+20
2.091715077e+20
2.052399285e+20
1.985448448e+20
1.942998768e+20
1.964650936e+20
1.821062775e+20
1.745565022e+20
1.681463157e+20
1.523060311e+20
1.446422983e+20
1.42249162e+20
1.379187236e+20
1.30226501e+20
1.250983506e+20
1.152124207e+20
1.125343851e+20
1.062951379e+20
1.074632154e+20
1.082324397e+20
1.06693993e+20
1.064090968e+20
1.021926176e+20
1.005971952e+20
1.021926176e+20
9.841752828e+19
9.588989142e+19
9.717238461e+19
9.675372827e+19
9.741498999e+19
9.610688952e+19
9.811088812e+19
9.88452575e+19
9.892378532e+19
1.003725903e+20
9.920560914e+19
9.914248104e+19
9.819283177e+19
9.896356201e+19
9.752195222e+19
9.82746475e+19
9.604094584e+19
9.66913358e+19
9.797295474e+19
9.83120466e+19
9.826265166e+19
9.805330951e+19
1.003277731e+20
1.014011337e+20
1.029835972e+20
1.006117442e+20
9.897297617e+19
1.007724164e+20
1.002057543e+20
1.021926176e+20
)
;
    }
    obstacle
    {
        type            calculated;
        value           nonuniform 0();
    }
    frontAndBack
    {
        type            empty;
    }
    procBoundary3to1
    {
        type            processor;
        value           nonuniform List<scalar> 
36
(
2.068353527e+20
2.041432713e+20
2.097382669e+20
2.117761143e+20
2.149979364e+20
2.100086795e+20
2.100086795e+20
1.789268823e+20
1.844067671e+20
1.879664411e+20
1.894753236e+20
1.950312403e+20
1.950312403e+20
1.346457931e+20
1.422323263e+20
1.501227474e+20
1.561976377e+20
1.642358553e+20
1.642358553e+20
1.0390453e+20
1.049600908e+20
1.076543063e+20
1.121239725e+20
1.189038439e+20
1.245537389e+20
1.245537389e+20
9.878888795e+19
1.000568427e+20
1.030541978e+20
1.036519914e+20
1.067463358e+20
1.096283765e+20
1.096283765e+20
9.740800339e+19
9.970921612e+19
9.970921612e+19
)
;
    }
    procBoundary3to2
    {
        type            processor;
        value           nonuniform List<scalar> 
19
(
1.010420058e+20
9.894856329e+19
1.007524871e+20
9.952759987e+19
1.009751938e+20
9.995074321e+19
9.794638408e+19
1.028904709e+20
1.012869831e+20
1.030240949e+20
1.005520512e+20
9.538525694e+19
9.669922616e+19
1.034472368e+20
1.016210438e+20
1.051398081e+20
9.785730072e+19
1.012201711e+20
9.874812731e+19
)
;
    }
}


// ************************************************************************* //
