/*--------------------------------*- C++ -*----------------------------------*\
  =========                 |
  \\      /  F ield         | OpenFOAM: The Open Source CFD Toolbox
   \\    /   O peration     | Website:  https://openfoam.org
    \\  /    A nd           | Version:  7
     \\/     M anipulation  |
\*---------------------------------------------------------------------------*/
FoamFile
{
    version     2.0;
    format      ascii;
    class       volScalarField;
    location    "0.001";
    object      translationalT;
}
// * * * * * * * * * * * * * * * * * * * * * * * * * * * * * * * * * * * * * //

dimensions      [1 2 -2 0 0 0 0];

internalField   nonuniform List<scalar> 
654
(
1222.199338
1226.972314
1197.920963
1171.002281
1225.658567
1238.887315
1167.021189
1210.226586
1228.201499
1246.644916
1165.755655
1178.588731
1216.708082
1219.676773
1233.159633
1257.2701
1228.607159
1188.906604
1220.780737
1149.068523
1178.714037
1238.191386
1305.193196
1250.05314
1257.499098
1204.794021
1242.274088
1214.480774
1230.461598
1247.524467
1293.595228
1267.20141
1275.300208
1151.624155
1270.376782
1203.340135
1232.857922
1234.170408
1176.420231
1211.001246
1232.019492
1272.1566
1254.356177
1263.275299
1281.528628
1274.827869
1213.794176
1236.908795
1273.747858
1283.036719
1272.379971
1248.812412
1268.287466
1237.613348
1218.841208
1208.987256
1074.759031
1047.997968
1109.134287
1105.208632
1138.505352
1170.109313
1260.454218
1200.03552
1168.42809
1236.409949
1205.856399
1207.563266
1245.360511
1256.664996
1324.3076
1305.040451
1287.752899
1305.482751
1282.976834
1331.924401
1306.453504
1288.448915
1251.787504
1278.430602
1262.013425
1225.456213
1199.136247
1172.797421
1117.01043
1101.236466
1063.717441
1069.9503
1090.965257
1145.503793
1179.332755
1300.584311
1257.118977
1211.28726
1229.43861
1251.447651
1262.164185
1252.301714
1243.55115
1284.638083
1289.486065
1255.95827
1266.177246
1187.819884
1222.000952
1259.523041
1227.963568
1263.439404
1281.626418
1258.527664
1220.373196
1190.192629
1204.458131
1101.644113
1122.070046
1080.780186
1103.917341
1070.957336
1150.835145
1147.115166
1172.538092
1195.611125
1193.010811
1218.801788
1222.973744
1241.493295
1262.139518
1264.947508
1275.378851
1281.446769
1259.811172
1239.144575
1246.246672
1244.230735
1228.221078
1218.114814
1275.775349
1243.650981
1279.943221
1239.710699
1226.509757
1223.783093
1201.578018
1128.051303
1125.968093
1090.877531
1115.746337
1103.440723
1132.144747
1155.920288
1104.929253
1155.626477
1196.973257
1233.228177
1192.813591
1211.131153
1198.69837
1302.189855
1320.20526
1286.092531
1268.290266
1282.436543
1291.433414
1262.419593
1275.464943
1305.571101
1321.015627
1214.993996
1263.455341
1273.325183
1225.212406
1190.680552
1241.399511
1145.065116
1193.936595
1156.803471
1153.05806
1107.812546
1173.360188
1164.105516
1194.485162
1149.262751
1188.791199
1216.862571
1237.79201
1193.314363
1207.383231
1229.117381
1211.589255
1285.824604
1311.093379
1294.076639
1230.951871
1272.267778
1237.088726
1214.414233
1260.124097
1277.711213
1287.829244
1191.024316
1146.633914
1178.514142
1155.131581
1138.937656
1028.271268
1140.293043
1068.562953
1143.937932
1150.442553
1180.544311
1147.079943
1192.906191
1148.147208
1218.519056
1200.273161
1116.200696
1195.34608
1204.469319
1217.470319
1256.480141
1265.26896
1202.467102
1236.129282
1236.44335
1223.045008
1191.003676
1220.89795
1297.529295
1280.416059
1167.159548
1204.444405
1200.68802
1142.647628
1112.187222
1023.140239
1055.033546
1082.797514
1127.799524
1124.90943
1139.884671
1098.275319
1143.217762
1120.89648
1138.041307
1135.473343
1115.245448
1164.272249
1166.280078
1203.624986
1220.857694
1179.908481
1253.329229
1221.626957
1263.176862
1239.188283
1243.112583
1271.834568
1256.791582
1240.357735
1175.098872
1164.630388
1177.893809
1123.39329
1088.654061
1081.047739
1089.828421
1106.954079
1097.703612
1095.314674
1100.761243
1072.940858
1171.03296
1076.305127
1104.194645
1136.48809
1146.079615
1226.594964
1141.394925
1162.199184
1225.770433
1196.128335
1195.658139
1225.38351
1185.413144
1174.548271
1250.96247
1207.909272
1170.355858
1156.287738
1149.439924
1132.590049
1182.18116
1172.139618
1164.114326
1072.129391
1084.651645
1073.095
1052.572477
1141.279692
1122.054415
1113.045782
1141.482466
1167.404941
1216.553291
1224.466763
1253.295063
1229.939492
1166.601262
1235.211995
1202.729516
1235.540149
1206.889799
1209.085712
1263.686458
1229.463129
1237.244636
1261.062289
1230.394569
1210.696601
1158.372421
1138.214862
1196.977519
1162.842351
1150.096948
1042.896004
1058.963483
1055.271815
1067.268643
1103.848184
1088.470698
1128.830419
1139.017479
1097.505366
1147.798566
1148.834694
1111.941685
1129.878907
1171.65028
1147.619871
1241.078372
1221.496989
1145.222108
1202.120634
1199.48135
1184.059429
1122.541772
1161.374778
1179.484299
1170.515286
1137.829207
1126.148701
1143.445136
1153.483269
1128.860822
1104.498838
1062.214495
1105.902788
1083.618321
1087.808716
1094.853327
1098.688107
1112.992699
1156.728987
1181.811439
1170.263916
1167.392722
1160.914394
1184.681962
1213.526475
1233.639128
1150.359182
1145.767365
1227.400769
1210.695757
1169.794175
1155.479315
1118.850517
1211.406166
1171.702254
1161.554246
1181.747782
1201.403802
1118.797475
1100.09388
986.1312976
1069.961241
1031.040695
1060.091766
1035.647648
972.3583837
987.1708581
1112.402837
1164.228215
1125.331573
1168.783636
1134.897308
1151.248611
1206.642236
1174.857204
1136.247793
1116.580826
1142.67301
1174.963477
1181.428531
1110.852699
1129.569446
1090.842179
1146.618982
1196.944983
1202.847319
1199.512878
1142.991399
1060.999894
1039.380052
974.4988423
1038.291848
998.0447074
1023.076428
1052.875384
1007.443128
1092.583422
1144.926972
1096.955599
1102.730937
1145.020904
1144.201266
1213.322288
1206.018447
1225.433118
1187.604273
1120.222516
1152.878792
1140.026673
1065.832845
1076.397477
1101.464746
1082.640433
1125.908776
1147.486326
1100.999041
1136.096167
1055.683206
1072.906427
1051.715564
979.097697
1003.055884
1015.285026
1031.907011
1078.464231
1047.068984
1090.87435
1045.270588
1064.049693
1081.899324
1116.578224
1125.77682
1214.61522
1196.332188
1154.382588
1124.553947
1026.921701
1039.353871
1092.389982
1023.436136
1051.526844
1142.586573
1103.315253
1154.407916
1165.18881
1127.816286
1069.970514
1052.257071
1003.911237
1002.571804
892.4456254
892.378679
939.1290786
1013.974965
1036.712531
1083.223071
1068.379718
1028.338446
1108.658885
1109.776515
1075.033929
1117.534969
1072.954773
1108.03368
1108.453434
1157.117538
1164.667792
1095.865187
1023.223614
1067.944438
1037.186086
1156.669322
1113.402925
1067.168003
1053.066482
1052.75779
1017.455854
995.5093772
1018.592731
967.6675316
891.2333053
911.6625797
973.2052473
993.9796405
1039.426002
991.2415017
994.2718724
1048.50806
1008.186083
1003.654692
953.4071006
1077.633971
1052.12505
1040.23136
1056.346568
1033.562098
1062.194861
1082.78373
1056.089314
1065.955839
1010.554418
1016.273571
942.8863449
1009.622295
1051.500389
1097.877396
1052.454468
945.2446589
972.0319853
918.2532027
872.4232098
909.8050883
917.6729493
951.5375233
974.7308674
929.7661838
890.0054062
981.7763089
980.6146034
1037.369835
992.2595801
1015.14015
1041.267079
1062.039338
1042.147884
977.186024
947.7920067
988.744881
1032.511074
971.7144056
938.5444115
1033.209399
1012.967977
968.5242729
975.656762
982.6395626
939.6265054
925.902915
942.60623
860.8270567
834.3045492
773.7783321
844.1547577
907.0350804
925.3909314
827.857194
864.778317
854.4277989
869.757684
956.1723608
883.7865841
884.9968492
950.8976512
887.2468621
936.5207588
888.8716476
897.9833736
913.4973431
871.7936944
874.890833
883.0444408
966.91742
955.5641068
951.2113825
943.4435887
912.1236411
913.7445042
883.3724935
873.9978584
851.4416796
738.2407171
749.3882272
738.1854846
797.824195
772.0648281
788.2037994
825.3167136
772.5666375
776.0451921
791.596243
779.3870474
782.4485038
803.1244076
836.4789182
800.7989688
834.1680567
832.1051035
815.1565559
835.593737
834.6662213
775.6742324
836.175293
788.9436531
871.5538463
785.7914439
829.536644
853.6873501
794.197984
818.66765
723.4831141
578.3462467
579.3720592
594.4513816
624.5932705
649.7554545
663.6792994
597.9474833
621.5058921
671.6195939
621.5062111
668.3870332
633.4385843
709.0153201
678.7762119
688.585957
674.3028346
630.2785446
653.1692519
650.6236255
714.4633559
672.0842757
697.6621752
659.2998331
691.5255635
696.7452922
682.512842
657.4748471
616.1308336
624.1454217
662.4085232
)
;

boundaryField
{
    flow
    {
        type            calculated;
        value           nonuniform List<scalar> 
55
(
1222.199338
1167.021189
1188.906604
1151.624155
1208.987256
1172.797421
1101.644113
1128.051303
1145.065116
1138.937656
1112.187222
1088.654061
1164.114326
1150.096948
1128.860822
1100.09388
1039.380052
1051.715564
1002.571804
967.6675316
918.2532027
860.8270567
851.4416796
723.4831141
662.4085232
578.3462467
579.3720592
594.4513816
624.5932705
649.7554545
663.6792994
597.9474833
621.5058921
671.6195939
621.5062111
668.3870332
633.4385843
709.0153201
678.7762119
688.585957
674.3028346
630.2785446
653.1692519
650.6236255
714.4633559
672.0842757
697.6621752
659.2998331
691.5255635
696.7452922
682.512842
657.4748471
616.1308336
624.1454217
662.4085232
)
;
    }
    obstacle
    {
        type            calculated;
        value           nonuniform 0();
    }
    frontAndBack
    {
        type            empty;
    }
    procBoundary3to1
    {
        type            processor;
        value           nonuniform List<scalar> 
36
(
1212.23229
1275.467877
1255.524179
1225.302281
1255.193207
1255.634332
1255.634332
1233.553414
1193.389084
1228.79443
1272.929314
1267.866623
1267.866623
1246.357925
1227.18781
1238.623149
1258.463381
1256.873173
1256.873173
1244.094818
1208.572418
1237.072702
1267.542778
1265.854247
1192.624801
1192.624801
1075.343334
1128.969098
1088.929464
1119.093186
1168.230375
1220.686689
1220.686689
1021.936596
1104.988404
1104.988404
)
;
    }
    procBoundary3to2
    {
        type            processor;
        value           nonuniform List<scalar> 
19
(
1072.93277
1057.94666
1072.163836
1154.842597
1046.924019
1024.4492
1077.724675
990.3647696
987.6013012
1002.837918
1011.391513
1020.033298
903.1927334
931.2808353
916.9710422
899.7227459
840.6242495
665.6384638
607.5347388
)
;
    }
}


// ************************************************************************* //
