/*--------------------------------*- C++ -*----------------------------------*\
  =========                 |
  \\      /  F ield         | OpenFOAM: The Open Source CFD Toolbox
   \\    /   O peration     | Website:  https://openfoam.org
    \\  /    A nd           | Version:  7
     \\/     M anipulation  |
\*---------------------------------------------------------------------------*/
FoamFile
{
    version     2.0;
    format      ascii;
    class       volScalarField;
    location    "0.007";
    object      iDof;
}
// * * * * * * * * * * * * * * * * * * * * * * * * * * * * * * * * * * * * * //

dimensions      [0 -3 0 0 0 0 0];

internalField   nonuniform List<scalar> 
2400
(
2.499359539e+20
1.666239693e+20
2.499359539e+20
1.041399808e+20
2.915919462e+20
2.291079578e+20
2.707639501e+20
2.291079578e+20
2.082799616e+20
3.124199424e+20
1.457959731e+20
8.331198464e+19
1.24967977e+20
3.124199424e+20
1.666239693e+20
2.915919462e+20
1.041399808e+20
1.666239693e+20
2.707639501e+20
1.24967977e+20
2.082799616e+20
1.457959731e+20
2.915919462e+20
1.24967977e+20
1.24967977e+20
1.666239693e+20
8.331198464e+19
2.291079578e+20
1.874519654e+20
1.457959731e+20
2.499359539e+20
1.457959731e+20
2.291079578e+20
1.041399808e+20
2.291079578e+20
1.24967977e+20
1.457959731e+20
1.874519654e+20
1.874519654e+20
1.24967977e+20
1.666239693e+20
1.041399808e+20
8.331198464e+19
1.24967977e+20
2.915919462e+20
1.24967977e+20
1.041399808e+20
1.874519654e+20
2.291079578e+20
1.24967977e+20
2.707639501e+20
2.499359539e+20
1.666239693e+20
1.24967977e+20
1.666239693e+20
2.707639501e+20
1.874519654e+20
2.291079578e+20
1.874519654e+20
1.24967977e+20
1.24967977e+20
1.457959731e+20
2.707639501e+20
1.666239693e+20
8.331198464e+19
1.666239693e+20
1.457959731e+20
1.666239693e+20
1.457959731e+20
2.707639501e+20
1.24967977e+20
2.707639501e+20
1.874519654e+20
1.457959731e+20
1.041399808e+20
1.457959731e+20
1.457959731e+20
2.291079578e+20
8.331198464e+19
1.24967977e+20
2.082799616e+20
1.041399808e+20
2.082799616e+20
2.082799616e+20
2.082799616e+20
2.915919462e+20
1.666239693e+20
2.499359539e+20
2.291079578e+20
8.331198464e+19
1.666239693e+20
2.082799616e+20
2.082799616e+20
2.082799616e+20
2.082799616e+20
6.248398848e+19
8.331198464e+19
1.041399808e+20
2.082799616e+20
1.666239693e+20
1.874519654e+20
2.499359539e+20
1.24967977e+20
1.666239693e+20
2.499359539e+20
2.291079578e+20
2.499359539e+20
1.041399808e+20
1.666239693e+20
1.666239693e+20
1.24967977e+20
2.291079578e+20
1.666239693e+20
1.24967977e+20
1.457959731e+20
2.499359539e+20
6.248398848e+19
2.082799616e+20
1.041399808e+20
2.082799616e+20
1.24967977e+20
1.874519654e+20
1.874519654e+20
2.707639501e+20
2.499359539e+20
1.457959731e+20
2.915919462e+20
1.041399808e+20
2.291079578e+20
2.082799616e+20
2.082799616e+20
3.540759347e+20
2.291079578e+20
1.24967977e+20
1.457959731e+20
2.291079578e+20
1.666239693e+20
2.499359539e+20
2.082799616e+20
1.874519654e+20
8.331198464e+19
2.499359539e+20
1.666239693e+20
1.457959731e+20
1.457959731e+20
1.666239693e+20
1.457959731e+20
1.457959731e+20
1.666239693e+20
1.874519654e+20
1.24967977e+20
1.24967977e+20
2.707639501e+20
2.915919462e+20
2.082799616e+20
2.082799616e+20
1.457959731e+20
1.457959731e+20
1.457959731e+20
1.874519654e+20
2.291079578e+20
2.915919462e+20
2.291079578e+20
2.082799616e+20
2.082799616e+20
1.457959731e+20
1.24967977e+20
1.24967977e+20
1.457959731e+20
2.499359539e+20
1.666239693e+20
1.666239693e+20
1.24967977e+20
1.666239693e+20
1.041399808e+20
8.331198464e+19
1.874519654e+20
1.041399808e+20
2.082799616e+20
8.331198464e+19
2.082799616e+20
1.874519654e+20
1.457959731e+20
2.082799616e+20
3.540759347e+20
1.666239693e+20
1.666239693e+20
2.291079578e+20
2.082799616e+20
2.499359539e+20
2.082799616e+20
1.041399808e+20
1.874519654e+20
1.24967977e+20
1.457959731e+20
1.666239693e+20
1.457959731e+20
1.457959731e+20
2.082799616e+20
1.041399808e+20
3.749039309e+20
2.499359539e+20
2.082799616e+20
2.082799616e+20
1.457959731e+20
2.707639501e+20
1.666239693e+20
1.666239693e+20
3.124199424e+20
1.874519654e+20
1.874519654e+20
1.874519654e+20
1.666239693e+20
3.540759347e+20
2.082799616e+20
1.666239693e+20
1.457959731e+20
8.331198464e+19
1.457959731e+20
1.666239693e+20
1.666239693e+20
2.707639501e+20
2.707639501e+20
1.24967977e+20
1.24967977e+20
1.457959731e+20
1.666239693e+20
1.666239693e+20
1.874519654e+20
2.082799616e+20
2.291079578e+20
2.082799616e+20
2.082799616e+20
1.457959731e+20
1.457959731e+20
2.499359539e+20
8.331198464e+19
2.082799616e+20
1.874519654e+20
1.874519654e+20
1.666239693e+20
2.291079578e+20
3.332479385e+20
2.291079578e+20
1.041399808e+20
2.082799616e+20
1.666239693e+20
2.291079578e+20
1.874519654e+20
1.24967977e+20
1.666239693e+20
1.457959731e+20
1.666239693e+20
8.331198464e+19
1.24967977e+20
2.499359539e+20
1.874519654e+20
1.666239693e+20
1.457959731e+20
1.041399808e+20
2.082799616e+20
1.666239693e+20
1.041399808e+20
2.707639501e+20
3.124199424e+20
8.331198464e+19
1.666239693e+20
2.291079578e+20
1.041399808e+20
2.082799616e+20
1.457959731e+20
2.291079578e+20
1.457959731e+20
1.666239693e+20
6.248398848e+19
2.291079578e+20
1.24967977e+20
1.24967977e+20
1.874519654e+20
2.082799616e+20
2.291079578e+20
1.24967977e+20
1.874519654e+20
3.540759347e+20
2.499359539e+20
3.124199424e+20
1.666239693e+20
2.707639501e+20
1.666239693e+20
1.874519654e+20
8.331198464e+19
1.041399808e+20
1.874519654e+20
1.874519654e+20
1.666239693e+20
6.248398848e+19
1.24967977e+20
1.874519654e+20
1.041399808e+20
1.666239693e+20
1.874519654e+20
1.24967977e+20
2.291079578e+20
1.874519654e+20
1.666239693e+20
1.041399808e+20
1.24967977e+20
1.874519654e+20
2.291079578e+20
2.082799616e+20
1.666239693e+20
1.457959731e+20
1.24967977e+20
6.248398848e+19
2.707639501e+20
1.24967977e+20
1.041399808e+20
1.041399808e+20
2.291079578e+20
1.041399808e+20
1.666239693e+20
2.499359539e+20
2.915919462e+20
1.874519654e+20
2.499359539e+20
2.499359539e+20
1.041399808e+20
1.041399808e+20
2.291079578e+20
2.915919462e+20
1.457959731e+20
1.666239693e+20
2.707639501e+20
2.499359539e+20
1.457959731e+20
1.24967977e+20
2.082799616e+20
8.331198464e+19
1.457959731e+20
1.041399808e+20
1.874519654e+20
2.499359539e+20
1.666239693e+20
1.457959731e+20
2.291079578e+20
2.082799616e+20
1.041399808e+20
2.707639501e+20
1.24967977e+20
2.082799616e+20
8.331198464e+19
1.457959731e+20
1.457959731e+20
1.874519654e+20
2.291079578e+20
1.666239693e+20
1.666239693e+20
1.457959731e+20
1.041399808e+20
1.24967977e+20
3.124199424e+20
1.457959731e+20
1.666239693e+20
6.248398848e+19
1.24967977e+20
1.874519654e+20
1.874519654e+20
1.041399808e+20
3.332479385e+20
1.666239693e+20
2.499359539e+20
1.874519654e+20
2.499359539e+20
2.291079578e+20
1.666239693e+20
1.874519654e+20
1.666239693e+20
2.707639501e+20
1.041399808e+20
1.666239693e+20
2.915919462e+20
2.707639501e+20
2.291079578e+20
2.291079578e+20
2.082799616e+20
1.666239693e+20
2.707639501e+20
2.082799616e+20
1.24967977e+20
1.24967977e+20
1.666239693e+20
2.707639501e+20
1.874519654e+20
1.24967977e+20
1.457959731e+20
1.041399808e+20
1.874519654e+20
3.540759347e+20
1.041399808e+20
1.041399808e+20
1.874519654e+20
1.666239693e+20
1.874519654e+20
1.24967977e+20
1.874519654e+20
1.874519654e+20
1.041399808e+20
1.666239693e+20
2.291079578e+20
1.666239693e+20
2.082799616e+20
3.332479385e+20
1.666239693e+20
1.457959731e+20
8.331198464e+19
2.291079578e+20
2.082799616e+20
1.041399808e+20
1.24967977e+20
2.291079578e+20
1.457959731e+20
2.082799616e+20
1.24967977e+20
1.24967977e+20
2.707639501e+20
2.291079578e+20
2.082799616e+20
2.082799616e+20
2.291079578e+20
1.24967977e+20
1.24967977e+20
8.331198464e+19
1.874519654e+20
1.874519654e+20
1.874519654e+20
1.666239693e+20
1.874519654e+20
8.331198464e+19
1.874519654e+20
1.457959731e+20
2.082799616e+20
8.331198464e+19
1.24967977e+20
2.291079578e+20
1.874519654e+20
2.291079578e+20
1.874519654e+20
1.874519654e+20
1.666239693e+20
1.24967977e+20
2.707639501e+20
1.457959731e+20
2.082799616e+20
2.707639501e+20
1.24967977e+20
1.24967977e+20
2.082799616e+20
1.457959731e+20
2.082799616e+20
1.041399808e+20
1.457959731e+20
2.915919462e+20
1.457959731e+20
2.499359539e+20
2.499359539e+20
2.082799616e+20
1.666239693e+20
2.499359539e+20
1.24967977e+20
2.915919462e+20
2.291079578e+20
2.499359539e+20
1.666239693e+20
1.041399808e+20
2.082799616e+20
1.457959731e+20
1.457959731e+20
8.331198464e+19
2.707639501e+20
1.24967977e+20
1.874519654e+20
3.124199424e+20
8.331198464e+19
3.332479385e+20
2.291079578e+20
1.666239693e+20
1.457959731e+20
8.331198464e+19
1.666239693e+20
2.291079578e+20
1.874519654e+20
2.499359539e+20
1.666239693e+20
1.457959731e+20
1.874519654e+20
1.24967977e+20
2.499359539e+20
2.291079578e+20
2.082799616e+20
2.707639501e+20
1.666239693e+20
1.666239693e+20
2.291079578e+20
1.666239693e+20
2.082799616e+20
1.666239693e+20
1.666239693e+20
1.666239693e+20
3.332479385e+20
6.248398848e+19
1.666239693e+20
1.24967977e+20
1.457959731e+20
2.082799616e+20
1.457959731e+20
2.707639501e+20
2.291079578e+20
1.874519654e+20
1.874519654e+20
6.248398848e+19
2.707639501e+20
2.707639501e+20
2.291079578e+20
2.707639501e+20
1.457959731e+20
1.24967977e+20
1.457959731e+20
2.915919462e+20
2.915919462e+20
1.041399808e+20
2.082799616e+20
1.666239693e+20
1.457959731e+20
2.499359539e+20
1.874519654e+20
2.499359539e+20
1.24967977e+20
1.24967977e+20
2.291079578e+20
2.499359539e+20
1.24967977e+20
2.707639501e+20
1.874519654e+20
2.499359539e+20
2.082799616e+20
1.874519654e+20
2.915919462e+20
2.291079578e+20
1.666239693e+20
1.457959731e+20
2.915919462e+20
2.291079578e+20
2.707639501e+20
1.666239693e+20
1.24967977e+20
1.666239693e+20
1.666239693e+20
8.331198464e+19
2.499359539e+20
1.24967977e+20
2.291079578e+20
2.291079578e+20
2.499359539e+20
2.291079578e+20
1.457959731e+20
3.95731927e+20
2.291079578e+20
2.082799616e+20
2.082799616e+20
1.874519654e+20
1.457959731e+20
1.457959731e+20
1.24967977e+20
1.041399808e+20
2.082799616e+20
1.041399808e+20
1.666239693e+20
1.874519654e+20
2.499359539e+20
1.041399808e+20
2.707639501e+20
1.666239693e+20
1.666239693e+20
6.248398848e+19
1.457959731e+20
1.874519654e+20
1.666239693e+20
3.124199424e+20
1.24967977e+20
2.499359539e+20
2.915919462e+20
2.291079578e+20
1.874519654e+20
2.707639501e+20
1.874519654e+20
3.749039309e+20
1.666239693e+20
2.291079578e+20
2.082799616e+20
1.24967977e+20
1.041399808e+20
2.082799616e+20
2.499359539e+20
1.24967977e+20
1.457959731e+20
1.666239693e+20
1.874519654e+20
1.874519654e+20
1.666239693e+20
2.499359539e+20
1.874519654e+20
3.124199424e+20
1.24967977e+20
1.874519654e+20
1.666239693e+20
1.041399808e+20
2.291079578e+20
1.457959731e+20
2.499359539e+20
1.874519654e+20
1.874519654e+20
1.24967977e+20
2.291079578e+20
1.457959731e+20
1.666239693e+20
1.666239693e+20
2.499359539e+20
2.291079578e+20
1.874519654e+20
2.082799616e+20
1.874519654e+20
2.082799616e+20
1.666239693e+20
1.666239693e+20
1.874519654e+20
4.165599232e+19
2.082799616e+20
1.666239693e+20
1.457959731e+20
1.874519654e+20
2.291079578e+20
1.24967977e+20
1.666239693e+20
1.874519654e+20
2.499359539e+20
1.041399808e+20
3.124199424e+20
8.331198464e+19
2.291079578e+20
2.291079578e+20
1.457959731e+20
4.165599232e+19
3.332479385e+20
3.124199424e+20
2.082799616e+20
2.082799616e+20
2.499359539e+20
2.499359539e+20
2.082799616e+20
2.499359539e+20
2.291079578e+20
1.874519654e+20
1.666239693e+20
1.457959731e+20
1.666239693e+20
2.082799616e+20
2.082799616e+20
1.041399808e+20
2.499359539e+20
1.874519654e+20
1.874519654e+20
1.457959731e+20
1.874519654e+20
1.457959731e+20
1.041399808e+20
1.457959731e+20
1.24967977e+20
1.666239693e+20
6.248398848e+19
2.499359539e+20
1.457959731e+20
8.331198464e+19
2.499359539e+20
2.082799616e+20
2.915919462e+20
2.499359539e+20
2.291079578e+20
2.499359539e+20
1.666239693e+20
1.457959731e+20
2.082799616e+20
3.332479385e+20
2.291079578e+20
2.082799616e+20
2.291079578e+20
1.666239693e+20
2.499359539e+20
6.248398848e+19
1.24967977e+20
2.915919462e+20
1.666239693e+20
2.291079578e+20
1.041399808e+20
2.291079578e+20
8.331198464e+19
2.707639501e+20
2.082799616e+20
2.291079578e+20
1.457959731e+20
1.666239693e+20
1.457959731e+20
2.082799616e+20
1.666239693e+20
1.666239693e+20
2.082799616e+20
1.874519654e+20
1.874519654e+20
2.291079578e+20
1.874519654e+20
1.666239693e+20
2.499359539e+20
2.082799616e+20
1.666239693e+20
3.540759347e+20
2.499359539e+20
2.082799616e+20
3.124199424e+20
1.24967977e+20
2.499359539e+20
1.874519654e+20
8.331198464e+19
8.331198464e+19
3.749039309e+20
1.24967977e+20
2.291079578e+20
1.24967977e+20
2.499359539e+20
1.874519654e+20
2.291079578e+20
2.915919462e+20
2.291079578e+20
2.915919462e+20
2.291079578e+20
3.540759347e+20
2.082799616e+20
1.874519654e+20
2.291079578e+20
2.499359539e+20
1.457959731e+20
1.666239693e+20
1.874519654e+20
2.291079578e+20
2.499359539e+20
2.499359539e+20
2.291079578e+20
1.24967977e+20
1.666239693e+20
1.874519654e+20
1.666239693e+20
2.082799616e+20
2.499359539e+20
1.041399808e+20
1.874519654e+20
3.332479385e+20
3.124199424e+20
1.666239693e+20
3.332479385e+20
2.499359539e+20
2.499359539e+20
2.915919462e+20
3.332479385e+20
1.24967977e+20
1.041399808e+20
2.915919462e+20
2.291079578e+20
2.499359539e+20
2.915919462e+20
1.666239693e+20
3.332479385e+20
3.124199424e+20
2.291079578e+20
1.874519654e+20
1.874519654e+20
2.082799616e+20
2.291079578e+20
2.291079578e+20
2.499359539e+20
2.082799616e+20
1.874519654e+20
8.331198464e+19
1.874519654e+20
2.291079578e+20
1.457959731e+20
2.915919462e+20
8.331198464e+19
1.666239693e+20
1.24967977e+20
1.666239693e+20
1.24967977e+20
1.24967977e+20
6.27055727e+19
1.052279049e+20
1.695303565e+20
6.401711999e+19
1.289331603e+20
6.49223962e+19
4.35898026e+19
1.317072859e+20
8.843914278e+19
1.336239882e+20
1.570373148e+20
1.129977508e+20
9.107065053e+19
1.605680646e+20
1.38669025e+20
1.862987931e+20
7.039767146e+19
1.418831441e+20
1.668191993e+20
4.803665495e+19
7.262489728e+19
1.22006499e+20
7.379220801e+19
7.439004912e+19
4.999843759e+19
2.016407229e+20
1.270719042e+20
5.125435227e+19
1.550613898e+20
1.56381835e+20
1.840124561e+20
1.060609074e+20
2.942163428e+20
1.618964352e+20
5.444546535e+19
2.19736269e+20
8.314727722e+19
1.398451515e+20
2.25815785e+20
1.424485897e+20
1.045092879e+20
3.788204575e+20
1.271477675e+20
1.2803424e+20
2.148886006e+20
1.082039937e+20
8.717960526e+19
8.780485732e+19
8.843914278e+19
1.55894653e+20
1.121695106e+20
2.259955017e+19
4.553532527e+19
2.064446544e+20
2.311150417e+19
6.986204746e+19
9.386356194e+19
9.458876272e+19
9.532525673e+19
7.205498237e+19
2.178746918e+20
1.22006499e+20
1.229870133e+20
7.439004906e+19
9.999687511e+19
2.804159384e-289
1.779006659e+20
5.125435223e+19
1.550613897e+20
7.819091756e+19
7.886248126e+19
7.954568065e+19
2.139755222e+20
8.09482176e+19
8.166819803e+19
1.373351683e+20
1.385787955e+20
1.118761213e+20
1.411348656e+20
5.697943586e+19
1.254111454e+20
4.209116193e+19
8.476517826e+19
1.4937328e+20
8.595544028e+19
6.49223962e+19
8.71796052e+19
1.756097146e+20
1.989880713e+20
2.004359824e+20
1.121695106e+20
4.519910033e+19
9.107065053e+19
2.064446544e+20
1.155575209e+20
2.328734913e+19
1.173294523e+20
7.094157204e+19
7.14939426e+19
9.60733099e+19
7.262489722e+19
1.22006499e+20
9.83896106e+19
1.983734642e+20
2.249929692e+20
1.008203615e+20
1.016575234e+20
1.025087045e+20
1.809049548e+20
1.303181959e+20
1.051499748e+20
1.85606588e+20
2.139755222e+20
2.428446528e+20
1.361136634e+20
2.19736269e+20
5.543151814e+19
1.678141818e+20
1.693618388e+20
8.546915387e+19
2.299204332e+20
1.262734859e+20
1.059564729e+20
1.2803424e+20
2.148886004e+19
1.731263899e+20
1.743592105e+20
2.63414572e+20
4.421957139e+19
8.908265883e+19
1.346034127e+20
2.033959513e+20
6.83029879e+19
1.146914748e+20
9.244601666e+19
1.397240948e+20
1.877271239e+20
9.458876272e+19
1.429878851e+20
7.205498243e+19
1.210414955e+20
1.708090985e+20
1.721818186e+20
1.735767813e+20
1.499953128e+20
5.041018073e+19
7.624314254e+19
7.688152835e+19
1.550613897e+20
7.819091756e+19
7.886248126e+19
1.060609075e+20
1.872285818e+20
1.079309567e+20
1.088909307e+20
1.373351681e+20
1.940103137e+20
1.678141821e+20
1.693618389e+20
1.139588714e+20
1.672148605e+20
8.418232386e+19
2.54295535e+20
1.280342401e+20
1.289331604e+20
1.082039937e+20
1.525643092e+20
1.756097146e+20
1.105489286e+20
6.681199417e+19
1.794712169e+20
9.03982006e+19
9.107065046e+19
2.523212441e+20
1.617805292e+20
1.630114441e+20
9.386356194e+19
9.458876272e+19
1.429878851e+20
1.200916373e+20
7.262489728e+19
7.320389948e+19
1.47584416e+20
1.239834152e+20
1.24996094e+20
7.56152711e+19
1.779006661e+20
5.125435231e+19
1.292178249e+20
1.56381835e+20
1.577249623e+20
1.856065879e+20
1.872285818e+20
8.09482176e+19
1.361136636e+20
1.922692351e+20
1.108630359e+20
1.118761216e+20
1.693618389e+20
1.13958872e+20
1.045092878e+20
2.525469716e+20
1.271477674e+20
6.401711998e+19
2.148886004e+19
1.731263898e+20
1.089745064e+20
1.756097144e+20
4.421957136e+19
1.113533236e+20
2.243390214e+20
1.807964015e+20
1.138383132e+20
1.605680647e+20
1.617805293e+20
1.862987932e+20
1.173294524e+20
9.458876272e+19
2.144818276e+20
1.441099647e+20
1.452497944e+20
1.708090985e+20
9.838961052e+19
2.97560196e+20
7.499765633e+19
2.016407229e+20
2.033150468e+20
5.125435223e+19
1.033742599e+20
1.30318196e+20
1.577249625e+20
1.060609077e+20
1.604816425e+20
8.09482176e+19
1.905591274e+20
8.240110088e+19
1.940103145e+20
2.237522429e+20
2.258157844e+20
1.709383065e+20
1.46313003e+20
2.104558097e+20
8.476517832e+19
1.066952001e+20
8.595544028e+19
1.7312639e+20
2.179490132e+20
2.414633576e+20
1.768782856e+20
6.681199412e+19
1.570373148e+20
1.355973009e+20
1.821413009e+20
6.881488477e+19
1.848920333e+20
1.164367458e+20
9.386356194e+19
1.891775254e+20
1.668191993e+20
2.882199297e+20
1.452497947e+20
1.46407799e+20
1.967792214e+20
1.239834152e+20
1.499953127e+20
2.520509035e+19
7.624314254e+19
7.688152835e+19
1.033742602e+20
1.824454757e+20
1.577249636e+20
1.590913621e+20
1.604816419e+20
1.079309575e+20
1.08890932e+20
2.197362709e+20
1.662945553e+20
8.390709107e+19
2.82269733e+20
1.709383096e+20
1.46313003e+20
1.052279049e+20
8.476517832e+19
1.2803424e+20
1.289331602e+20
1.298447924e+20
2.397439145e+20
1.756097146e+20
1.768782856e+20
2.672479765e+20
1.346034127e+20
2.033959515e+20
9.10706506e+19
1.146914748e+20
1.155575208e+20
1.630114439e+20
1.407953429e+20
4.729438136e+19
1.429878852e+20
4.803665495e+19
3.14707888e+20
1.708090985e+20
1.967792212e+20
9.918673216e+19
2.249929697e+20
7.561527128e+19
1.779006656e+20
1.281358799e+20
7.753069454e+19
1.824454736e+20
1.577249612e+20
2.121218125e+20
1.604816405e+20
8.094821746e+19
1.088909301e+20
1.648022003e+20
1.108630349e+20
8.390709032e+19
2.822697305e+20
2.848971775e+19
6.27055727e+19
2.525469716e+20
1.695303565e+20
2.347294401e+20
1.504220205e+20
1.514855911e+20
1.307694078e+20
8.780485732e+19
1.989880713e+20
8.908265883e+19
8.973560851e+19
1.35597301e+20
9.107065046e+19
2.523212443e+20
9.244601673e+19
2.095861424e+20
9.386356194e+19
7.094157204e+19
4.766262837e+19
1.681282922e+20
1.452497942e+20
1.952103986e+20
1.229870134e+20
9.918673232e+19
1.249960941e+20
1.512305412e+20
1.27071904e+20
1.537630572e+20
1.809049547e+20
7.819091724e+19
2.365874438e+20
1.325761351e+20
1.872285822e+20
1.618964349e+20
2.450045928e+20
1.648022018e+20
1.385787961e+20
3.076593339e+20
2.258157844e+20
1.709383081e+20
1.672148606e+20
1.683646478e+20
2.119129458e+20
6.401712002e+19
1.289331603e+20
1.298447925e+20
2.833337171e+20
1.31707286e+20
2.432076426e+20
8.908265883e+19
1.570373148e+20
1.355973009e+20
6.83029879e+19
4.587658988e+19
9.244601666e+19
2.095861422e+20
1.642612332e+20
1.891775257e+20
2.383131416e+20
2.401832738e+20
2.178746927e+20
1.708090985e+20
7.379220766e+19
1.735767813e+20
2.499921872e+20
1.008203616e+20
1.01657524e+20
7.68815286e+19
5.168712991e+19
1.042545572e+20
1.577249625e+20
7.954568038e+19
2.139755226e+20
5.396547831e+19
8.166819831e+19
1.922692354e+20
1.108630359e+20
1.118761214e+20
2.258157844e+20
1.424485887e+20
1.881167181e+20
1.683646477e+20
1.695303565e+20
1.920513601e+20
1.504220204e+20
4.328159747e+19
2.17949013e+20
1.975609288e+20
1.105489285e+20
1.55894653e+20
8.973560845e+19
1.807964008e+20
1.138383127e+20
1.605680642e+20
1.38669025e+20
1.630114443e+20
1.407953435e+20
2.630837303e-289
2.383131422e+20
2.401832742e+19
9.683319584e+19
1.220064989e+20
1.96779222e+20
1.735767813e+20
7.499765675e+19
1.512305424e+20
2.54143806e+20
2.050174079e+20
1.550613897e+20
1.824454736e+20
1.314374688e+20
2.121218161e+20
2.139755226e+20
1.079309566e+20
2.722273253e+20
2.746703363e+19
1.940103145e+20
2.796903036e+20
2.258157864e+20
1.994280279e+20
1.46313003e+20
1.683646478e+20
1.907216512e+20
1.493732799e+20
3.008440408e+20
1.514855912e+20
2.397439153e+20
1.756097158e+20
1.326587148e+20
1.558946536e+20
2.467729241e+20
1.581968518e+20
4.55353255e+19
9.175317996e+19
1.61780529e+20
9.314939619e+19
1.173294515e+20
9.458876172e+19
7.149394211e+19
1.681282932e+20
1.210414967e+20
1.464077999e+20
7.379220824e+19
9.918673216e+19
9.999687487e+19
2.268458137e+20
1.270719051e+20
2.050174096e+20
1.550613897e+20
5.212727816e+19
2.102999483e+20
1.590913594e+20
1.604816392e+20
1.349136958e+20
1.63336398e+20
2.197362709e+20
1.662945553e+20
2.517212732e+20
2.540427574e+20
1.424485887e+20
1.672148605e+20
1.473190672e+20
1.271477679e+20
1.707123201e+20
2.363774596e+20
1.298447922e+20
8.717960508e+19
2.195121415e+20
1.989880704e+20
8.908265883e+19
1.570373143e+20
2.259955002e+19
6.830298775e+19
1.376297699e+20
1.155575207e+20
2.328734922e+19
1.173294533e+20
1.418831447e+20
2.14481828e+20
1.200916371e+20
4.841659792e+19
1.464077976e+20
1.229870128e+20
9.918673216e+19
9.999687487e+19
2.016407216e+20
1.27071904e+20
2.818989382e+20
2.325920846e+20
1.824454751e+20
1.577249639e+20
7.954568105e+19
1.337347016e+20
1.079309566e+20
8.16681976e+19
1.098681335e+20
3.603048667e+20
1.398451518e+20
3.104967035e+20
2.848971775e+20
1.045092875e+20
1.683646467e+20
1.48339061e+20
1.707123195e+20
1.933997406e+20
1.514855908e+20
1.961541108e+20
2.19512143e+20
6.63293568e+19
2.004359809e+20
1.570373143e+20
2.48595052e+20
1.593736381e+20
1.376297689e+20
2.080035373e+20
1.862987924e+20
1.407953419e+20
9.458876244e+19
1.668191995e+20
1.441099645e+20
2.178746906e+20
1.220064989e+20
9.838961021e+19
1.735767799e+20
7.499765615e+19
2.016407233e+20
1.27071904e+20
7.688152797e+19
1.809049547e+20
2.345727517e+20
1.051499741e+20
5.303045358e+19
1.872285822e+20
1.349136958e+20
1.361136627e+20
1.373351681e+20
1.662945538e+20
1.957832107e+20
2.822697305e+20
1.4244859e+20
1.045092884e+20
2.104558102e+20
1.695303565e+20
8.535616032e+19
1.289331613e+20
4.328159768e+19
1.525643094e+20
6.585364336e+19
1.768782861e+20
8.908265883e+19
2.243390221e+20
1.807964028e+20
1.593736392e+20
1.146914749e+20
1.617805302e+20
1.630114445e+20
9.386356194e+19
9.458876315e+19
1.668191995e+20
1.200916371e+20
1.210414957e+20
1.464077999e+20
2.213766247e+20
1.735767813e+20
7.499765675e+19
1.26025452e+20
2.033150464e+20
1.793902334e+20
1.033742607e+20
1.042545572e+20
1.840124563e+20
1.060609081e+20
8.024082096e+19
1.618964349e+20
1.361136639e+20
1.373351693e+20
2.217260738e+20
1.118761214e+20
1.693618398e+20
1.4244859e+20
2.508222905e+20
1.894102292e+20
2.542955365e+20
1.920513607e+20
1.289331604e+20
2.813303849e+20
1.961541121e+20
1.53658499e+20
1.10548928e+20
2.227066471e+20
8.973560819e+19
9.039820007e+19
1.366059755e+20
1.376297699e+20
1.155575207e+20
1.164367461e+20
1.40795344e+20
2.364719079e+20
9.53252576e+19
2.40183276e+20
1.694580927e+20
1.464077976e+20
7.379220766e+19
9.918673216e+19
9.999687487e+19
5.041018082e+19
2.541438101e+20
1.793902334e+20
1.809049547e+20
1.824454751e+20
2.365874458e+20
1.856065891e+20
3.209632838e+20
1.349136958e+20
1.088909301e+20
2.197362671e+20
2.217260718e+20
2.237522429e+20
2.258157844e+20
2.564074621e+20
1.881167178e+20
1.052279044e+20
1.695303554e+20
2.133903993e+20
1.074443004e+20
1.947671882e+20
1.743592108e+20
1.317072867e+20
2.210978576e+20
2.449773118e+20
1.346034123e+20
1.355973011e+20
1.138383137e+20
1.146914749e+20
1.155575207e+20
2.328734905e+20
2.346589031e+20
1.891775234e+20
2.144818263e+20
1.681282932e+20
1.936663947e+20
2.684142998e+20
1.229870137e+20
2.231701474e+20
7.499765615e+19
2.268458118e+20
1.524862848e+20
1.537630572e+20
1.809049547e+20
1.824454736e+20
1.314374677e+20
2.121218125e+20
1.872285806e+20
1.349136969e+20
1.36113665e+20
1.648022032e+20
1.385787961e+20
1.118761214e+20
8.468091915e+19
1.424485887e+20
1.672148603e+20
2.315013913e+20
1.907216524e+20
8.535615974e+19
1.504220195e+20
2.380487856e+20
1.307694072e+20
2.634145716e+20
8.843914303e+19
1.336239882e+20
8.973560883e+19
4.519910036e+19
1.138383121e+20
6.881488446e+19
1.155575207e+20
2.09586143e+20
9.386356265e+19
1.891775263e+20
1.429878853e+20
1.200916371e+20
1.694580927e+20
3.41618197e+20
1.229870137e+20
9.918673216e+19
1.749945324e+20
3.528712686e+20
2.287294272e+20
2.050174079e+20
2.584356495e+20
1.824454736e+20
1.577249625e+20
1.325761351e+20
2.407224629e+20
1.888791741e+20
2.450045928e+20
1.648022003e+20
1.662945538e+20
2.517212732e+20
2.822697305e+19
3.988560521e+20
2.299204345e+20
2.315013913e+20
2.542955348e+20
6.401712024e+19
6.446658021e+19
2.164079869e+19
2.179490135e+20
1.317072858e+20
8.84391424e+19
1.781653189e+20
6.730170662e+19
2.033959516e+20
2.049089647e+20
1.146914749e+20
9.24460166e+19
9.314939619e+19
1.877271225e+20
9.458876244e+19
2.383131422e+20
1.441099645e+20
1.210414957e+20
2.684142977e+20
9.838961021e+19
2.231701474e+20
1.499953123e+20
1.26025451e+20
1.016575232e+20
1.537630572e+20
2.584356495e+20
2.867000323e+20
1.314374688e+20
1.856065875e+20
2.674694032e+19
1.349136958e+20
1.361136627e+20
1.922692354e+20
1.940103145e+20
1.398451518e+20
5.645394661e+19
1.994280261e+20
1.463130028e+20
2.104558102e+20
6.35738837e+19
1.493732795e+20
2.148886007e+20
2.596895861e+20
1.089745067e+20
2.414633573e+20
1.105489288e+20
8.908265883e+19
8.973560819e+19
1.355973001e+20
2.276766258e+20
1.376297699e+20
1.155575216e+20
2.561608414e+20
9.386356194e+19
1.182359539e+20
1.429878853e+20
1.681282919e+20
1.210414948e+20
1.708090985e+20
2.459740275e+20
1.735767813e+20
1.74994531e+20
1.512305424e+20
2.795581911e+20
1.537630572e+20
7.753069486e+19
1.042545563e+20
1.577249625e+20
2.386370432e+20
1.604816419e+20
1.618964349e+20
2.994500605e+20
1.648022032e+20
8.314727692e+19
2.237522409e+20
5.64539461e+19
2.279177441e+20
2.299204329e+20
1.894102279e+20
1.48339062e+20
1.707123206e+20
8.595544028e+19
4.328159738e+19
2.615388162e+20
1.317072867e+20
1.989880718e+20
1.336239882e+20
1.570373155e+20
2.033959531e+20
1.366059765e+20
2.523212449e+20
1.386690249e+20
3.493102383e+20
2.11193016e+20
1.655303355e+20
3.098070848e+20
1.20091638e+20
1.210414967e+20
2.196116998e+20
2.213766247e+20
1.487800994e+20
2.249929703e+20
2.268458118e+20
1.27071903e+20
1.281358789e+20
2.584356474e+19
1.824454736e+20
1.051499741e+20
2.121218125e+20
1.604816405e+20
1.888791741e+20
1.905591277e+20
8.240110016e+19
2.494418308e+20
2.237522429e+20
8.468091915e+19
2.564074597e+20
8.360743015e+19
2.946381323e+20
1.48339062e+20
1.493732806e+20
1.719108806e+20
8.656319476e+19
2.179490119e+20
1.756097144e+20
1.326587145e+20
1.781653177e+20
2.019051184e+20
1.355973001e+20
1.366059745e+20
1.146914741e+20
6.933451245e+19
1.164367452e+20
2.111930128e+20
2.364719043e+19
2.144818263e+20
4.803665484e+19
3.147078865e+20
1.464077976e+20
2.213766212e+20
1.487800971e+20
1.249960946e+20
1.260254531e+20
1.270719051e+20
1.537630572e+20
1.55061391e+20
1.824454766e+20
1.840124578e+20
2.651522702e+20
1.337347016e+20
1.349136969e+20
1.905591311e+20
1.648022032e+20
1.662945553e+20
1.957832125e+20
2.540427574e+20
1.709383081e+20
2.508222905e+20
2.525469723e+20
1.48339062e+20
1.920513594e+20
1.504220205e+20
1.082039934e+20
1.525643094e+20
1.756097144e+20
1.10548928e+20
2.004359824e+20
1.570373143e+20
1.807964015e+20
1.593736392e+20
1.376297699e+20
1.386690249e+20
2.328734905e+20
3.050565763e+20
2.128247171e+20
2.14481828e+20
2.161649468e+20
1.210414948e+20
2.440129979e+20
1.229870137e+20
1.487800982e+20
3.249898433e+20
1.008203608e+20
1.27071904e+20
1.537630572e+20
2.584356495e+20
1.303181954e+20
1.577249612e+20
2.121218143e+20
5.349388064e+19
2.428446524e+20
2.177818603e+20
1.098681345e+20
2.217260738e+20
5.593806071e+19
3.104967063e+20
1.994280261e+20
4.180371536e+19
1.683646482e+20
1.907216511e+20
1.493732795e+20
1.504220195e+20
2.380487872e+20
1.307694081e+20
1.975609287e+20
1.768782861e+20
1.55894653e+20
2.467729243e+20
1.807964015e+20
2.959796136e+20
9.175317996e+19
1.61780529e+20
1.862987938e+20
1.877271239e+20
2.128247155e+20
1.429878853e+20
1.921466194e+20
1.69458094e+20
1.708090998e+20
4.919480549e+19
7.439004912e+19
1.499953123e+20
1.764356329e+20
3.049725721e+20
1.28135881e+20
1.550613897e+20
1.563818345e+20
7.886248126e+19
1.590913621e+20
2.139755226e+20
1.349136958e+20
1.088909311e+20
2.472033026e+20
1.385787949e+20
2.237522429e+20
2.540427574e+20
2.279177441e+20
2.299204329e+20
1.894102292e+20
1.271477674e+20
1.707123195e+20
8.595544028e+19
1.947671882e+20
1.743592108e+20
1.756097156e+20
1.326587136e+20
1.781653164e+20
2.243390205e+20
1.129977509e+20
1.82141302e+20
2.064446549e+20
2.311150415e+20
1.397240943e+20
1.173294524e+20
1.891775263e+20
1.191565711e+20
1.441099656e+20
9.683319659e+19
9.760519839e+19
9.838961021e+19
1.735767813e+20
1.249960946e+20
1.008203616e+20
2.795581866e+20
5.125435198e+19
1.033742598e+20
1.042545572e+20
1.051499759e+20
2.121218143e+20
8.024082027e+19
1.888791741e+20
5.444546507e+19
2.472033026e+20
1.108630369e+20
1.678141821e+20
1.975888113e+20
2.848971775e+20
1.881167178e+20
8.418232352e+19
1.059564728e+20
1.280342405e+20
1.504220205e+20
1.947671882e+20
1.307694072e+20
2.634145697e+20
1.10548928e+20
1.781653177e+20
1.794712164e+20
1.581968501e+20
9.107064967e+19
1.146914741e+20
2.773380518e+20
1.397240964e+20
2.11193016e+20
2.128247171e+20
1.668191995e+20
2.642016016e+20
3.389161881e+20
2.928155997e+20
1.721818192e+20
7.439004912e+19
7.499765615e+19
1.008203616e+20
1.779006671e+20
2.56271762e+20
1.550613897e+20
1.824454736e+20
2.891624289e+20
2.121218143e+20
1.069877613e+20
2.158619132e+20
3.538955229e+20
1.922692337e+20
1.108630349e+20
1.957832107e+20
3.104967035e+20
1.13958872e+20
2.299204329e+20
8.418232352e+19
1.907216511e+20