/*--------------------------------*- C++ -*----------------------------------*\
  =========                 |
  \\      /  F ield         | OpenFOAM: The Open Source CFD Toolbox
   \\    /   O peration     | Website:  https://openfoam.org
    \\  /    A nd           | Version:  7
     \\/     M anipulation  |
\*---------------------------------------------------------------------------*/
FoamFile
{
    version     2.0;
    format      ascii;
    class       volScalarField;
    location    "0.007";
    object      iDof;
}
// * * * * * * * * * * * * * * * * * * * * * * * * * * * * * * * * * * * * * //

dimensions      [0 -3 0 0 0 0 0];

internalField   nonuniform List<scalar> 
2400
(
1.24967977e+20
1.457959731e+20
1.874519654e+20
1.666239693e+20
2.082799616e+20
2.082799616e+20
2.499359539e+20
1.874519654e+20
2.082799616e+20
1.874519654e+20
3.332479385e+20
1.24967977e+20
2.291079578e+20
8.331198464e+19
1.666239693e+20
1.24967977e+20
2.291079578e+20
2.291079578e+20
3.749039309e+20
2.707639501e+20
1.041399808e+20
2.499359539e+20
2.082799616e+20
1.666239693e+20
2.499359539e+20
1.457959731e+20
2.082799616e+20
2.291079578e+20
3.332479385e+20
1.666239693e+20
1.041399808e+20
2.082799616e+20
1.457959731e+20
2.082799616e+20
1.874519654e+20
2.082799616e+20
2.915919462e+20
1.041399808e+20
2.499359539e+20
3.332479385e+20
1.457959731e+20
2.082799616e+20
2.499359539e+20
2.915919462e+20
2.082799616e+20
2.291079578e+20
1.24967977e+20
1.24967977e+20
2.707639501e+20
1.874519654e+20
2.499359539e+20
1.874519654e+20
2.707639501e+20
1.874519654e+20
1.874519654e+20
2.291079578e+20
2.707639501e+20
1.666239693e+20
3.124199424e+20
2.082799616e+20
1.041399808e+20
2.499359539e+20
1.457959731e+20
1.874519654e+20
1.041399808e+20
1.666239693e+20
1.874519654e+20
1.874519654e+20
6.248398848e+19
1.457959731e+20
2.499359539e+20
1.874519654e+20
2.082799616e+20
1.457959731e+20
1.457959731e+20
2.499359539e+20
2.082799616e+20
2.291079578e+20
3.540759347e+20
1.666239693e+20
1.874519654e+20
1.666239693e+20
1.457959731e+20
2.082799616e+20
2.499359539e+20
2.082799616e+20
1.457959731e+20
2.915919462e+20
1.666239693e+20
1.24967977e+20
2.291079578e+20
3.749039309e+20
2.082799616e+20
1.874519654e+20
1.666239693e+20
3.124199424e+20
1.041399808e+20
1.457959731e+20
1.24967977e+20
1.666239693e+20
1.666239693e+20
1.24967977e+20
3.332479385e+20
2.707639501e+20
2.291079578e+20
1.874519654e+20
1.24967977e+20
3.124199424e+20
1.666239693e+20
2.499359539e+20
2.082799616e+20
1.666239693e+20
2.291079578e+20
3.124199424e+20
1.874519654e+20
2.499359539e+20
1.666239693e+20
1.457959731e+20
2.291079578e+20
2.291079578e+20
1.874519654e+20
2.291079578e+20
1.666239693e+20
1.457959731e+20
2.082799616e+20
1.666239693e+20
1.874519654e+20
2.082799616e+20
1.874519654e+20
2.082799616e+20
3.95731927e+20
2.291079578e+20
3.332479385e+20
1.666239693e+20
3.540759347e+20
1.666239693e+20
1.666239693e+20
2.707639501e+20
2.291079578e+20
2.707639501e+20
1.666239693e+20
1.457959731e+20
1.457959731e+20
1.874519654e+20
1.041399808e+20
3.124199424e+20
1.874519654e+20
1.666239693e+20
2.291079578e+20
2.082799616e+20
2.915919462e+20
1.666239693e+20
2.082799616e+20
2.082799616e+20
1.666239693e+20
2.082799616e+20
2.291079578e+20
2.499359539e+20
1.24967977e+20
2.499359539e+20
1.457959731e+20
2.707639501e+20
2.499359539e+20
1.24967977e+20
3.332479385e+20
2.291079578e+20
1.666239693e+20
1.666239693e+20
2.291079578e+20
2.291079578e+20
1.874519654e+20
3.332479385e+20
2.082799616e+20
8.331198464e+19
1.874519654e+20
1.457959731e+20
1.874519654e+20
2.707639501e+20
1.457959731e+20
1.666239693e+20
1.24967977e+20
2.082799616e+20
2.082799616e+20
2.499359539e+20
1.24967977e+20
8.331198464e+19
1.457959731e+20
1.041399808e+20
2.291079578e+20
1.24967977e+20
2.082799616e+20
2.291079578e+20
1.24967977e+20
2.499359539e+20
1.041399808e+20
1.24967977e+20
2.707639501e+20
1.457959731e+20
2.082799616e+20
2.291079578e+20
2.082799616e+20
1.24967977e+20
2.915919462e+20
2.291079578e+20
2.291079578e+20
1.874519654e+20
2.499359539e+20
2.291079578e+20
1.874519654e+20
1.457959731e+20
1.874519654e+20
2.707639501e+20
1.874519654e+20
1.874519654e+20
1.874519654e+20
1.666239693e+20
2.082799616e+20
1.24967977e+20
2.707639501e+20
2.291079578e+20
1.24967977e+20
1.874519654e+20
1.874519654e+20
1.874519654e+20
1.24967977e+20
1.874519654e+20
1.666239693e+20
2.082799616e+20
8.331198464e+19
2.082799616e+20
2.082799616e+20
1.874519654e+20
2.291079578e+20
1.457959731e+20
4.373879193e+20
2.082799616e+20
1.666239693e+20
6.248398848e+19
1.874519654e+20
1.666239693e+20
1.041399808e+20
2.707639501e+20
1.874519654e+20
1.666239693e+20
2.291079578e+20
2.291079578e+20
4.165599232e+19
1.874519654e+20
2.499359539e+20
2.499359539e+20
1.874519654e+20
2.707639501e+20
1.24967977e+20
3.332479385e+20
8.331198464e+19
1.24967977e+20
1.874519654e+20
1.874519654e+20
1.874519654e+20
1.457959731e+20
1.041399808e+20
2.499359539e+20
1.666239693e+20
2.082799616e+20
1.457959731e+20
1.666239693e+20
1.666239693e+20
1.874519654e+20
8.331198464e+19
2.082799616e+20
1.24967977e+20
2.499359539e+20
2.082799616e+20
2.291079578e+20
1.666239693e+20
2.082799616e+20
1.874519654e+20
1.666239693e+20
1.24967977e+20
1.874519654e+20
2.082799616e+20
1.457959731e+20
2.291079578e+20
2.082799616e+20
2.082799616e+20
2.082799616e+20
2.291079578e+20
2.291079578e+20
2.291079578e+20
2.915919462e+20
1.457959731e+20
1.666239693e+20
1.457959731e+20
1.874519654e+20
1.24967977e+20
2.291079578e+20
1.041399808e+20
1.24967977e+20
3.124199424e+20
1.457959731e+20
1.457959731e+20
2.499359539e+20
2.291079578e+20
2.082799616e+20
1.457959731e+20
3.124199424e+20
1.874519654e+20
2.082799616e+20
2.499359539e+20
2.707639501e+20
1.874519654e+20
1.457959731e+20
1.041399808e+20
2.291079578e+20
2.291079578e+20
1.041399808e+20
1.24967977e+20
3.540759347e+20
1.666239693e+20
1.874519654e+20
8.331198464e+19
2.082799616e+20
1.041399808e+20
1.874519654e+20
1.666239693e+20
1.874519654e+20
8.331198464e+19
2.291079578e+20
8.331198464e+19
2.707639501e+20
2.915919462e+20
2.915919462e+20
3.332479385e+20
2.291079578e+20
3.749039309e+20
1.874519654e+20
2.291079578e+20
2.082799616e+20
1.457959731e+20
2.291079578e+20
2.082799616e+20
2.082799616e+20
1.457959731e+20
3.124199424e+20
1.666239693e+20
2.291079578e+20
1.666239693e+20
6.248398848e+19
1.666239693e+20
3.332479385e+20
2.291079578e+20
1.874519654e+20
1.24967977e+20
1.666239693e+20
2.082799616e+20
1.874519654e+20
1.24967977e+20
1.666239693e+20
1.666239693e+20
1.457959731e+20
1.457959731e+20
2.499359539e+20
2.499359539e+20
1.874519654e+20
2.707639501e+20
2.707639501e+20
1.24967977e+20
2.915919462e+20
1.24967977e+20
3.124199424e+20
2.707639501e+20
1.874519654e+20
2.499359539e+20
3.332479385e+20
1.874519654e+20
1.666239693e+20
1.457959731e+20
2.499359539e+20
1.874519654e+20
1.24967977e+20
1.457959731e+20
1.874519654e+20
1.24967977e+20
1.457959731e+20
2.291079578e+20
2.082799616e+20
2.291079578e+20
1.666239693e+20
1.041399808e+20
2.499359539e+20
2.082799616e+20
2.082799616e+20
1.666239693e+20
1.666239693e+20
2.291079578e+20
2.082799616e+20
1.874519654e+20
2.082799616e+20
1.874519654e+20
2.291079578e+20
1.666239693e+20
2.707639501e+20
1.874519654e+20
1.874519654e+20
1.874519654e+20
2.499359539e+20
1.874519654e+20
2.291079578e+20
2.707639501e+20
2.082799616e+20
1.666239693e+20
1.666239693e+20
1.874519654e+20
8.331198464e+19
3.124199424e+20
1.666239693e+20
2.082799616e+20
1.666239693e+20
2.291079578e+20
3.540759347e+20
1.666239693e+20
2.499359539e+20
1.041399808e+20
2.707639501e+20
1.874519654e+20
2.082799616e+20
1.874519654e+20
1.666239693e+20
2.499359539e+20
1.457959731e+20
2.082799616e+20
2.291079578e+20
1.041399808e+20
2.291079578e+20
1.457959731e+20
1.666239693e+20
1.457959731e+20
2.707639501e+20
2.707639501e+20
1.041399808e+20
8.331198464e+19
2.499359539e+20
2.082799616e+20
1.874519654e+20
1.666239693e+20
1.874519654e+20
2.082799616e+20
1.666239693e+20
1.666239693e+20
1.457959731e+20
1.457959731e+20
2.707639501e+20
1.874519654e+20
1.457959731e+20
2.082799616e+20
2.915919462e+20
1.874519654e+20
1.457959731e+20
1.874519654e+20
2.082799616e+20
1.041399808e+20
1.874519654e+20
2.291079578e+20
1.666239693e+20
3.332479385e+20
3.124199424e+20
1.874519654e+20
1.874519654e+20
3.124199424e+20
2.499359539e+20
2.291079578e+20
1.874519654e+20
2.499359539e+20
2.499359539e+20
1.874519654e+20
3.124199424e+20
1.874519654e+20
1.874519654e+20
2.082799616e+20
1.457959731e+20
1.874519654e+20
2.082799616e+20
2.707639501e+20
1.666239693e+20
1.457959731e+20
1.874519654e+20
1.457959731e+20
1.666239693e+20
1.24967977e+20
1.041399808e+20
2.291079578e+20
2.082799616e+20
1.666239693e+20
1.666239693e+20
1.041399808e+20
2.291079578e+20
1.457959731e+20
1.457959731e+20
1.666239693e+20
1.24967977e+20
1.874519654e+20
1.874519654e+20
2.499359539e+20
2.291079578e+20
2.291079578e+20
1.874519654e+20
2.499359539e+20
1.24967977e+20
1.874519654e+20
8.331198464e+19
2.291079578e+20
1.666239693e+20
2.082799616e+20
2.707639501e+20
1.874519654e+20
1.457959731e+20
2.082799616e+20
1.041399808e+20
1.666239693e+20
2.707639501e+20
1.666239693e+20
2.082799616e+20
1.24967977e+20
2.291079578e+20
2.082799616e+20
1.457959731e+20
1.457959731e+20
2.499359539e+20
2.082799616e+20
1.874519654e+20
2.499359539e+20
1.874519654e+20
1.666239693e+20
2.915919462e+20
1.457959731e+20
2.499359539e+20
2.082799616e+20
3.540759347e+20
2.082799616e+20
1.041399808e+20
1.041399808e+20
1.666239693e+20
1.874519654e+20
1.457959731e+20
2.499359539e+20
2.499359539e+20
2.915919462e+20
1.666239693e+20
2.291079578e+20
1.457959731e+20
2.707639501e+20
2.082799616e+20
1.666239693e+20
2.291079578e+20
1.666239693e+20
2.082799616e+20
1.666239693e+20
1.24967977e+20
1.24967977e+20
1.041399808e+20
1.666239693e+20
1.874519654e+20
3.540759347e+20
1.666239693e+20
1.24967977e+20
2.082799616e+20
2.499359539e+20
2.915919462e+20
1.457959731e+20
1.666239693e+20
1.24967977e+20
1.666239693e+20
1.457959731e+20
1.041399808e+20
2.082799616e+20
2.082799616e+20
2.291079578e+20
1.874519654e+20
3.749039309e+20
1.874519654e+20
1.666239693e+20
1.874519654e+20
1.457959731e+20
2.082799616e+20
1.666239693e+20
1.041399808e+20
2.499359539e+20
3.332479385e+20
1.457959731e+20
1.874519654e+20
2.082799616e+20
2.707639501e+20
3.332479385e+20
2.082799616e+20
2.707639501e+20
1.457959731e+20
1.666239693e+20
2.707639501e+20
3.124199424e+20
1.874519654e+20
1.24967977e+20
2.082799616e+20
2.082799616e+20
2.707639501e+20
1.874519654e+20
1.457959731e+20
2.082799616e+20
1.457959731e+20
2.499359539e+20
2.082799616e+20
2.499359539e+20
2.082799616e+20
2.082799616e+20
1.874519654e+20
2.082799616e+20
2.499359539e+20
1.666239693e+20
1.457959731e+20
1.874519654e+20
1.24967977e+20
2.082799616e+20
1.874519654e+20
1.457959731e+20
1.041399808e+20
1.666239693e+20
2.082799616e+20
3.124199424e+20
1.666239693e+20
2.082799616e+20
2.707639501e+20
2.915919462e+20
1.24967977e+20
2.291079578e+20
1.666239693e+20
2.291079578e+20
2.082799616e+20
1.24967977e+20
1.666239693e+20
2.291079578e+20
1.457959731e+20
1.666239693e+20
1.666239693e+20
1.874519654e+20
1.666239693e+20
1.666239693e+20
1.874519654e+20
1.24967977e+20
2.707639501e+20
1.457959731e+20
2.291079578e+20
1.457959731e+20
1.457959731e+20
2.082799616e+20
2.291079578e+20
1.874519654e+20
8.331198464e+19
1.666239693e+20
2.082799616e+20
1.874519654e+20
2.915919462e+20
1.666239693e+20
1.666239693e+20
2.707639501e+20
2.499359539e+20
3.332479385e+20
1.874519654e+20
1.041399808e+20
2.707639501e+20
1.666239693e+20
2.291079578e+20
2.499359539e+20
1.457959731e+20
2.915919462e+20
2.707639501e+20
1.874519654e+20
1.041399808e+20
1.24967977e+20
2.082799616e+20
1.041399808e+20
1.874519654e+20
1.666239693e+20
1.457959731e+20
2.915919462e+20
2.291079578e+20
1.874519654e+20
1.666239693e+20
2.707639501e+20
2.291079578e+20
2.082799616e+20
2.291079578e+20
2.291079578e+20
3.124199424e+20
2.291079578e+20
1.457959731e+20
2.291079578e+20
1.666239693e+20
1.666239693e+20
2.082799616e+20
3.124199424e+20
1.874519654e+20
1.457959731e+20
2.082799616e+20
1.457959731e+20
8.331198464e+19
2.291079578e+20
1.666239693e+20
2.291079578e+20
2.082799616e+20
1.666239693e+20
2.291079578e+20
2.082799616e+20
1.24967977e+20
2.082799616e+20
3.332479385e+20
1.457959731e+20
2.291079578e+20
2.291079578e+20
2.915919462e+20
1.041399808e+20
2.915919462e+20
1.666239693e+20
1.666239693e+20
1.041399808e+20
1.041399808e+20
1.457959731e+20
8.331198464e+19
2.707639501e+20
1.457959731e+20
2.291079578e+20
2.707639501e+20
1.041399808e+20
2.082799616e+20
2.082799616e+20
2.082799616e+20
1.457959731e+20
2.082799616e+20
2.499359539e+20
1.457959731e+20
1.24967977e+20
1.666239693e+20
1.666239693e+20
2.291079578e+20
2.915919462e+20
2.291079578e+20
1.666239693e+20
2.915919462e+20
3.332479385e+20
2.291079578e+20
1.041399808e+20
2.082799616e+20
1.457959731e+20
1.666239693e+20
2.707639501e+20
2.499359539e+20
1.874519654e+20
2.707639501e+20
2.082799616e+20
2.291079578e+20
1.457959731e+20
1.457959731e+20
1.041399808e+20
2.082799616e+20
2.082799616e+20
2.707639501e+20
2.082799616e+20
1.666239693e+20
2.499359539e+20
1.457959731e+20
2.291079578e+20
1.874519654e+20
1.874519654e+20
2.291079578e+20
1.666239693e+20
2.291079578e+20
3.124199424e+20
2.915919462e+20
1.24967977e+20
1.24967977e+20
2.082799616e+20
1.24967977e+20
2.082799616e+20
6.248398848e+19
2.499359539e+20
2.082799616e+20
1.666239693e+20
2.291079578e+20
1.041399808e+20
3.95731927e+20
2.499359539e+20
1.666239693e+20
2.499359539e+20
2.915919462e+20
1.874519654e+20
1.666239693e+20
1.666239693e+20
1.457959731e+20
1.874519654e+20
1.24967977e+20
1.666239693e+20
3.749039309e+20
6.27055727e+20
6.734585911e+20
5.509736588e+20
5.1213696e+20
7.735989617e+20
4.328159747e+20
5.884623351e+20
6.585364294e+20
7.517327136e+20
7.349319353e+20
7.178848676e+20
5.649887541e+20
7.285652043e+20
6.881488482e+20
6.008991083e+20
8.150572197e+20
5.866472621e+20
5.91179767e+20
5.481202262e+20
5.524215319e+20
5.567908791e+20
2.440129981e+20
8.363116908e+20
3.719502456e+20
7.749757827e+20
7.56152711e+20
6.099451403e+20
7.688152841e+20
6.719326893e+20
5.212727833e+20
5.257498747e+20
5.568197641e+20
3.744571635e+20
5.936202624e+20
7.077910496e+20
7.141428743e+20
2.771575907e+20
5.873496364e+20
3.104967044e+20
3.133868972e+20
3.135278636e+20
3.156837146e+20
4.238258916e+20
4.481198401e+20
6.016880816e+20
4.111751762e+20
4.576929276e+20
5.268291439e+20
6.190739994e+20
4.454132941e+20
7.403187702e+20
5.649887541e+20
3.187472769e+20
3.67012719e+20
5.315645958e+20
5.588963796e+20
4.693178097e+20
4.729438136e+20
5.481202262e+20
3.602749119e+20
5.3258258e+20
3.172168975e+20
6.395324689e+20
6.447137585e+20
5.249835943e+20
6.049221688e+20
5.591163786e+20
5.381706984e+20
4.134970393e+20
5.212727837e+20
6.834748376e+20
6.363654452e+20
5.616857458e+20
2.69827392e+20
3.538955248e+20
4.120055048e+20
6.374624592e+20
3.915664246e+20
3.951776238e+20
4.27345769e+20
2.717241484e+20
3.156837145e+20
3.602520076e+20
2.560684801e+20
5.587103618e+20
4.328159747e+20
3.487184208e+20
6.146340012e+20
4.421957139e+20
4.676839589e+20
6.954509655e+20
6.553869548e+20
6.602622164e+20
5.275807836e+20
4.622300837e+20
3.958849353e+20
4.927836998e+20
1.655303348e+20
6.196141692e+20
4.803665495e+20
8.230821685e+20
5.368285957e+20
6.887272742e+20
6.199170755e+20
7.999750015e+20
4.284865362e+20
4.574588552e+20
5.125435223e+20
3.618099096e+20
2.867000311e+20
4.468873931e+20
2.651522686e+20
4.012041041e+20
4.856893056e+20
5.172319208e+20
4.944066053e+20
4.434521452e+20
1.678141818e+20
2.822697313e+20
3.133868975e+20
1.46313003e+20
3.156837147e+20
2.331042404e+20
5.548150398e+20
3.008440406e+20
4.328159747e+20
4.358980263e+20
3.951218579e+20
6.190739994e+20
4.454132941e+20
3.813763359e+20
6.10187854e+20
3.642826021e+20
4.587658991e+20
6.008991083e+20
6.287584266e+20
5.866472621e+20
5.20238195e+20
6.434454829e+20
5.04384877e+20
5.083742809e+20
3.660194968e+20
4.181558451e+20
5.455270269e+20
7.249773451e+20
5.293068977e+20
6.60773902e+20
2.818989373e+20
5.168712991e+20
4.430818662e+20
4.468873938e+20
4.772740839e+20
7.48914327e+20
2.96810131e+20
4.355637228e+20
3.021373699e+20
3.603048683e+20
4.195354554e+20
5.64539463e+20
2.848971785e+20
1.672148605e+20
3.577748764e+20
1.695303566e+20
2.347294402e+20
5.587103618e+20
4.977383712e+20
2.397439145e+20
1.536585003e+20
3.537565714e+20
6.013079475e+20
3.589424338e+20
3.615928024e+20
4.098179271e+20
5.046424883e+20
5.777876042e+20
5.356090305e+20
5.631813716e+20
3.547078602e+20
5.481202262e+20
7.205498237e+20
6.294157764e+20
5.856311958e+20
6.149350667e+20
4.215436117e+20
4.999843759e+20
7.057425303e+20
5.082876173e+20
6.663065801e+20
5.427148645e+20
5.473364225e+20
4.205998994e+20
4.242436294e+20
4.814449245e+20
6.206030016e+20
5.172319217e+20
3.021373694e+20
4.434521436e+20
5.034425473e+20
3.66950651e+20
3.133868981e+20
2.508222908e+20
2.315013906e+20
2.754868294e+20
2.774075199e+20
3.653106207e+20
3.462527795e+20
2.833337167e+20
4.609755003e+20
2.432076425e+20
3.340599708e+20
2.692068257e+20
4.293914535e+20
6.374945542e+20
4.128893092e+20
5.777876046e+20
4.424596339e+20
6.101131526e+20
4.729438136e+20
5.24288912e+20
5.524215315e+20
5.567908787e+20
5.612298951e+20
7.133246763e+20
4.71136977e+20
4.249867192e+20
4.284865362e+20
4.066300935e+20
3.844076417e+20
3.876534746e+20
2.085091137e+20
3.943124063e+20
3.71213177e+20
4.279510466e+20
4.856893056e+20
4.083409873e+20
4.669395717e+20
5.820309436e+20
4.195354554e+20
3.951776227e+20
3.703663307e+20
2.090185757e+20
2.315013906e+20
2.331042404e+20
1.493732801e+20
3.438217611e+20
4.32815975e+20
2.615388158e+20
3.073170006e+20
4.643054996e+20
2.895186412e+20
4.03810238e+20
4.745905531e+20
2.049089635e+20
5.73457373e+20
7.164566291e+20
5.356090305e+20
4.693178097e+20
1.891775254e+20
5.004575978e+20
3.122382572e+20
3.873327858e+20
6.588350953e+20
3.443636374e+20
3.471535626e+20
5.749820319e+20
4.788967166e+20
5.337019978e+20
4.35661994e+20
6.202455614e+20
5.212727877e+20
3.94312409e+20
7.424263565e+20
5.349388064e+20
5.396547877e+20
3.538955291e+20
3.845384742e+20
4.711679067e+20
3.356283643e+20
3.387236796e+20
3.988560558e+20
2.508222908e+20
1.683646478e+20
1.695303566e+20
1.2803424e+20
2.148886004e+20
1.731263899e+20
3.487184211e+20
2.63414572e+20
3.095369997e+20
2.895186412e+20
3.365085317e+20
3.615928026e+20
2.504442891e+20
4.358276042e+20
5.546761e+20
4.191722844e+20
4.927837002e+20
4.020022416e+20
4.289636556e+20
4.56348222e+20
5.083742805e+20
3.660194968e+20
4.673506504e+20
5.455270269e+20
4.749851583e+20
5.041018086e+20
5.082876161e+20
4.869163438e+20
5.944019915e+20
3.909545862e+20
4.205998965e+20
4.242436251e+20
2.674694009e+20
5.396547831e+20
4.08340988e+20
6.592088013e+20
4.157363809e+20
3.635973914e+20
5.64539461e+20
6.552635082e+20
3.135278635e+20
2.315013906e+20
2.754868294e+20
1.2803424e+20
1.933997406e+20
3.678935785e+20
2.833337169e+20
2.414633576e+20
2.432076426e+20
3.340599706e+20
3.365085319e+20
2.033959515e+20
4.098179271e+20
1.605680646e+20
3.466725627e+20
4.65746983e+20
2.815906858e+20
4.020022416e+20
5.481202262e+20
3.842932393e+20
4.599576817e+20
5.124272963e+20
5.165454565e+20
4.215436123e+20
5.999812516e+20
3.780763531e+20
3.303869505e+20
5.637978764e+20
8.528376435e+20
6.255273379e+20
3.154499251e+20
6.363654484e+20
5.88432687e+20
6.745684789e+20
4.08340988e+20
4.944066053e+20
3.880206291e+20
4.475044857e+20
3.951776227e+20
5.982840782e+20
2.717241485e+20
1.894102288e+20
2.331042404e+20
2.560684801e+20
1.933997405e+20
2.380487862e+20
3.051286184e+20
1.756097146e+20
2.432076426e+20
2.672479765e+20
2.243390211e+20
2.711946018e+20
4.3258559e+20
2.293829494e+20
4.853415875e+20
3.49310237e+20
3.050565759e+20
3.783550515e+20
4.28963655e+20
6.004581846e+20
5.083742829e+20
4.392233962e+20
5.411428562e+20
5.207303438e+20
5.249835931e+20
4.536916273e+20
5.845307633e+20
3.331532906e+20
5.168712991e+20
5.212727859e+20
4.994623813e+20
4.507588555e+20
5.081918661e+20
3.50775609e+20
7.07791052e+20
4.39472538e+20
5.265994205e+20
6.153186678e+20
3.387236766e+20
5.128149195e+20
8.360743026e+19
1.894102287e+20
2.542955348e+20
2.133904001e+20
2.363774606e+20
2.813303835e+20
2.615388156e+20
1.536585002e+20
1.326587142e+20
3.563306353e+20
4.03810238e+20
2.937941513e+20
3.41514938e+20
4.358276029e+20
4.16007075e+20
1.862987935e+20
4.693178118e+20
4.020022434e+20
3.813010275e+20
3.362565839e+20
6.05207474e+20
6.100324947e+20
3.689610412e+20
2.479668304e+20
4.999843783e+20
6.553323506e+20
3.303869478e+20
4.612891678e+20
4.134970393e+20
5.994636988e+20
6.046123564e+20
1.856065891e+20
4.546979854e+20
4.587065656e+20
3.811182555e+20
6.042747398e+20
4.98883666e+20
3.91566425e+20
3.387236796e+20
3.418766192e+20
1.881167181e+20
2.315013908e+20
3.390607133e+20
3.414246399e+20
2.363774606e+20
1.947671887e+20
3.269235209e+20
2.195121447e+20
2.874272155e+20
2.22706648e+20
2.916407285e+20
3.615928042e+20
1.366059765e+20
1.376297699e+20
2.080035373e+20
3.027355376e+20
3.989201353e+20
2.128247139e+20
3.813010246e+20
3.842932417e+20
6.052074834e+20
7.564402993e+20
4.427532494e+20
6.943071251e+20
4.999843743e+20
7.057425314e+20
5.082876202e+20
6.919337574e+20
4.393406042e+20
5.212727816e+20
5.520373642e+20
5.037893048e+20
3.744571581e+20
4.587065656e+20
4.083409951e+20
4.669395758e+20
3.603048699e+20
7.8313285e+20
5.64539461e+20
4.273457662e+20
2.926260059e+20
8.418232409e+19
2.119129465e+20
1.2803424e+20
2.578663196e+20
2.16407987e+20
1.743592102e+20
2.195121415e+20
2.653174272e+20
2.004359824e+20
3.140746287e+20
2.259955002e+20
3.187472762e+20
2.293829499e+20
2.311150415e+20
3.493102383e+20
3.519883599e+20
3.31060671e+20
3.336383991e+20
3.842932387e+20
5.325825771e+20
2.928155952e+20
5.165454536e+20
3.223568795e+20
4.499859369e+20
4.536916237e+20
4.320444737e+20
4.612891716e+20
4.134970393e+20
3.648909501e+20
3.417374217e+20
4.507588593e+20
2.674694032e+20
7.285339572e+20
4.627864531e+20
5.493406677e+20
4.711679026e+20
4.475044857e+20
4.798585418e+20
4.55835484e+20
1.25411145e+20
1.26273485e+20
2.542955331e+20
2.774075191e+20
1.933997406e+20
2.81330383e+20
2.397439131e+20
1.536585001e+20
1.10548928e+20
2.227066455e+20
2.692068246e+20
2.259955018e+20
4.098179265e+20
3.89951012e+20
2.542265456e+20
2.561608395e+20
2.111930128e+20
4.020022404e+20
3.574697133e+20
2.401832742e+20
3.389161854e+20
4.148220964e+20
6.641298689e+20
2.727635113e+20
3.49989062e+20
3.276661753e+20
5.337019969e+20
4.100348158e+20
6.202455589e+20
3.909545862e+20
5.783248577e+20
4.772740823e+20
6.68673508e+20
3.777583482e+20
8.16681976e+20
5.493406725e+20
5.265994205e+20
4.475044817e+20
5.363124879e+20
5.697943602e+20
1.672148614e+20
2.315013913e+20
1.271477674e+20
2.133904008e+20
2.148886022e+20
6.492239652e+19
1.307694081e+20
3.073170023e+20
1.989880718e+20
3.340599706e+20
6.730170662e+19
1.807964028e+20
1.366059765e+20
3.440744248e+20
2.311150432e+20
3.260228891e+20
2.346589049e+20
2.128247171e+20
2.859757706e+20
4.083115661e+20
2.178746923e+20
2.684142998e+20
5.165454577e+20
3.223568795e+20
3.999875027e+20
2.268458137e+20
4.320444737e+20
5.381707002e+20
5.944019988e+20
3.648909501e+20
5.783248626e+20
3.446979512e+20
3.744571645e+20
7.555166963e+20
5.172319226e+20
3.570714403e+20
5.820309436e+20
3.076593339e+20
4.516315729e+20
4.273457701e+20
1.881167178e+20
3.156837153e+20
1.907216524e+20
2.133904008e+20
2.578663208e+20
1.514855919e+20
1.961541121e+20
1.975609273e+20
8.84391424e+19
2.004359824e+20
1.121695102e+20
1.355973001e+20
1.138383129e+20
2.981978349e+20
1.386690249e+20
1.397240953e+20
2.11193016e+20
2.364719079e+20
2.144818296e+20
2.882199313e+20
2.904995875e+20
3.172168948e+20
3.689610383e+20
5.703237099e+20
3.49989062e+20
4.032814465e+20
4.320444772e+20
3.587804668e+20
3.618099093e+20
3.648909501e+20
5.783248675e+20
2.386370432e+20
4.814449258e+20
4.317238265e+20
7.077910459e+20
6.042747345e+20
4.988836615e+20
5.034425464e+20
5.64539461e+20
3.703663341e+20
2.090185754e+20
2.104558088e+20
1.695303554e+20
2.560684792e+20
3.00844041e+20
3.246119803e+20
1.743592108e+20
3.073170023e+20
1.989880718e+20
8.908265883e+19
2.916407266e+20
2.259955018e+20
2.73211953e+20
3.211361299e+20
1.848920332e+20
1.630114433e+20
2.346589031e+20
1.182359522e+20
1.906505123e+20
1.681282932e+20
9.683319734e+19
1.220064999e+20
4.181558467e+20
2.727635134e+20
2.749914059e+20
3.024610825e+20
3.303869505e+20
3.84407643e+20
5.168712991e+20
5.734000597e+20
2.891624289e+20
4.242436251e+20
4.814449216e+20
4.317238302e+20
3.266727961e+20
4.669395758e+20
2.771575922e+20
5.034425464e+20
6.774473532e+20
6.83753226e+20
8.360743015e+19
1.473190672e+20
2.119129471e+20
1.920513594e+20
1.289331595e+20
2.164079869e+20
1.525643084e+20
1.756097144e+20
1.326587145e+20
2.227066471e+20
2.019051199e+20
1.807964015e+20
2.73211949e+20
1.605680637e+20
1.848920332e+20
1.397240953e+20
1.40795344e+20
1.891775263e+20
1.429878853e+20
3.122382565e+20
3.147078865e+20
2.440129979e+20
2.705714302e+20
3.719502456e+20
2.749914081e+20
2.520509061e+20
5.082876161e+20
2.562717599e+20
5.68558429e+20
4.430818643e+20
2.628749375e+20
3.181827242e+20
6.151796274e+20
2.968101307e+20
3.266727904e+20
3.296044006e+20
4.711679026e+20
5.593806071e+20
5.64539461e+20
6.837532322e+20
1.254111461e+20
1.894102292e+20
6.35738837e+19
4.054417615e+20
2.363774608e+20
1.298447921e+20
3.051286189e+20
1.756097144e+20
1.547684992e+20
1.336239892e+20
2.467729243e+20
1.355973011e+20
2.276766275e+20
2.523212449e+20
1.155575207e+20
2.561608395e+20
2.111930128e+20
4.020022404e+20
2.383131422e+20
2.401832742e+20
4.357493847e+20
3.904207966e+20
1.721818179e+20
2.479668304e+20
3.749882808e+20
4.284865335e+20
3.558013313e+20
2.818989382e+20
2.842792145e+20
4.691455073e+20
3.943124063e+20
2.916674947e+20
2.942163435e+20
4.317238265e+20
5.444546507e+20
5.218736389e+20
6.928939805e+20
4.475044857e+20
6.774473593e+20
5.128149242e+20
1.672148603e+20
1.683646482e+20
2.754868294e+20
2.347294393e+20
1.933997406e+20
2.813303849e+20
1.961541121e+20
2.414633573e+20
1.547685003e+20
2.449773118e+20
1.570373143e+20
2.485950502e+20
1.593736381e+20
2.293829499e+20
1.848920346e+20
2.09586143e+20
3.050565763e+20
2.128247171e+20
1.906505138e+20
3.602749113e+20
2.420829896e+20
2.440129979e+20
2.459740275e+20
1.239834152e+20
2.499921872e+20
4.284865369e+20
5.337020013e+20
3.075261144e+20
3.876534743e+20
3.127636689e+20
2.1029995e+20
3.446979512e+20
2.942163435e+20
2.698273915e+20
3.53895526e+20
5.493406774e+20
4.988836615e+20
5.31411572e+20
5.64539461e+20
8.262018223e+20
2.299204329e+20
1.894102279e+20
1.907216511e+20
1.920513607e+20
1.504220205e+20
6.492239607e+19
3.705133229e+20
1.756097156e+20
1.768782861e+20
1.336239882e+20
3.140746309e+20
2.033959531e+20
1.82141302e+20
1.376297699e+20
2.542265456e+20
2.794481907e+20
2.581247973e+20
2.128247171e+20
2.383131422e+20
1.681282932e+20
1.694580953e+20
1.952103998e+20
2.213766247e+20
2.231701491e+20
2.749914081e+20
2.52050902e+20
3.049725672e+20
2.562717578e+20
3.876534711e+20
3.38827308e+20
2.891624289e+20
2.651522657e+20
3.477102212e+20
5.126720439e+20
5.716773832e+20
4.120055008e+20
3.603048667e+20
4.195354554e+20
6.492203801e+20
3.988560485e+20
1.672148603e+20
2.104558088e+20
2.754868294e+20
1.920513607e+20
2.793551809e+20
2.164079869e+20
1.525643084e+20
1.756097144e+20
1.989880718e+20
3.563306353e+20
2.019051184e+20
3.615928003e+20
3.870502611e+20
2.064446534e+20
2.773380498e+20
1.630114433e+20
1.877271225e+20
2.128247139e+20
1.906505123e+20
2.401832742e+20
3.389161854e+20
1.708090972e+20
7.379220708e+19
2.231701456e+20
1.999937513e+20
1.260254531e+20
1.270719051e+20
2.050174096e+20
3.618099123e+20
1.824454766e+20
3.680249157e+20
2.916674972e+20
5.616857467e+20
4.85689309e+20
4.083409951e+20
5.768077112e+20
3.325891106e+20
4.754735161e+20
4.516315688e+20
2.848971801e+20
2.090185754e+20
3.156837153e+20
1.059564728e+20
8.535615974e+19
1.933997406e+20
1.731263895e+20
1.961541121e+20
2.634145716e+20
2.21097856e+20
1.336239882e+20
1.570373143e+20
2.937941524e+20
1.138383137e+20
2.293829499e+20
3.235610581e+20
1.862987924e+20
2.111930144e+20
2.601190987e+20
1.906505138e+20
2.161649468e+20
7.262489688e+19
1.708090985e+20
2.213766247e+20
1.983734643e+20
2.499921872e+20
1.26025451e+20
4.320444737e+20
2.818989382e+20
2.842792145e+20
2.606363908e+20
2.628749353e+20
1.590913608e+20
4.279510451e+20
3.50775609e+20
4.355637205e+20
4.669395717e+20
4.434521475e+20
4.195354554e+20
5.080855195e+20
4.843252062e+20
2.508222921e+20
1.473190672e+20
3.390607131e+20
3.414246389e+20
2.148885992e+20
2.596895861e+20
1.089745067e+20
1.317072858e+20
2.653174291e+20
1.781653177e+20
1.570373155e+20
3.163937025e+20
2.276766258e+20
9.175317996e+19
1.61780529e+20
2.328734922e+20
2.111930144e+20
2.364719061e+20
1.668191995e+20
1.681282919e+20
1.210414957e+20
3.172168997e+20
1.96779222e+20
1.735767813e+20
1.999937497e+20
2.268458137e+20
1.779006671e+20
3.075261144e+20
2.325920846e+20
3.127636689e+20
2.365874438e+20
2.916674972e+20
3.744571645e+20
2.968101307e+20
2.994500605e+20
3.021373699e+20
3.880206256e+20
3.91566425e+20
3.669506496e+20
3.988560521e+20
2.926260055e+20
3.367292964e+20
2.966781239e+20
1.493732795e+20
2.578663208e+20
2.164079869e+20
2.833337175e+20
2.195121445e+20
1.326587136e+20
2.227066455e+20
1.794712164e+20
1.581968513e+20
2.276766275e+20
2.523212449e+20
1.848920332e+20
3.493102357e+20
1.642612334e+20
3.074134802e+20
1.668191995e+20
1.681282932e+20
2.420829915e+20
1.952103968e+20
2.459740255e+20
4.215436117e+20
1.999937513e+20
2.016407233e+20
1.27071903e+20
2.050174079e+20
2.584356495e+20
2.345727537e+20
2.365874458e+20
2.651522679e+20
2.139755207e+20
2.158619132e+20
1.088909301e+20
3.296044035e+20
2.49441833e+20
3.635973946e+20
2.258157844e+20
3.133868952e+20
8.360743015e+19
2.315013897e+20
1.48339062e+20
2.347294409e+20
2.578663208e+20
2.81330383e+20
6.538470358e+19
1.975609273e+20
2.21097856e+20
2.449773118e+20
1.346034123e+20
1.355973001e+20
1.366059745e+20
2.293829482e+20
2.311150432e+20
3.493102409e+20
2.11193016e+20
1.655303355e+20
3.574697133e+20
1.200916371e+20
2.420829915e+20
1.464077999e+20
1.229870137e+20
1.735767813e+20
2.749914059e+20
5.041018082e+20
2.795581911e+20
2.306445858e+20
4.651841692e+20
1.303181954e+20
1.577249612e+20
1.856065875e+20
3.744571645e+20
1.618964349e+20
2.450045928e+20
3.296044006e+20
3.325891047e+20
2.237522409e+20
4.234045957e+20
3.988560521e+20
2.090185754e+20