/*--------------------------------*- C++ -*----------------------------------*\
  =========                 |
  \\      /  F ield         | OpenFOAM: The Open Source CFD Toolbox
   \\    /   O peration     | Website:  https://openfoam.org
    \\  /    A nd           | Version:  7
     \\/     M anipulation  |
\*---------------------------------------------------------------------------*/
FoamFile
{
    version     2.0;
    format      ascii;
    class       volScalarField;
    location    "0.007";
    object      iDofMean;
}
// * * * * * * * * * * * * * * * * * * * * * * * * * * * * * * * * * * * * * //

dimensions      [0 -3 0 0 0 0 0];

internalField   nonuniform List<scalar> 
2400
(
1.532464449e+20
1.97764799e+20
1.983122777e+20
1.96854318e+20
1.981099486e+20
1.964972666e+20
1.970090402e+20
1.963901512e+20
1.961223627e+20
1.968483671e+20
1.970923522e+20
1.971637625e+20
1.974613053e+20
1.967174483e+20
1.979492755e+20
1.972351728e+20
1.979552264e+20
2.028111249e+20
2.143260313e+20
2.700141422e+20
1.542402378e+20
1.98217064e+20
1.99335825e+20
1.995322032e+20
2.010139664e+20
2.009306544e+20
2.003772248e+20
2.004843402e+20
2.018946931e+20
2.011270326e+20
2.006628659e+20
2.002820111e+20
1.998595003e+20
2.002998636e+20
1.988954616e+20
2.01234148e+20
2.020375136e+20
2.051795656e+20
2.19836524e+20
2.576423125e+20
1.551388171e+20
1.991334959e+20
2.003831756e+20
1.997226306e+20
1.995262524e+20
1.99085889e+20
1.991037416e+20
1.982408674e+20
1.973422882e+20
1.978005041e+20
1.981218503e+20
1.979254721e+20
1.989668719e+20
1.993417758e+20
2.006033573e+20
2.019125456e+20
2.030075031e+20
2.082145022e+20
2.181940878e+20
2.389090177e+20
1.562040203e+20
1.99746434e+20
2.011210818e+20
2.015852485e+20
2.012877057e+20
2.012400989e+20
2.012103446e+20
2.023350564e+20
2.021743833e+20
2.019661033e+20
2.011984429e+20
2.009187527e+20
2.012460497e+20
2.001986991e+20
1.998654511e+20
2.011389343e+20
2.030729626e+20
2.066553779e+20
2.138499629e+20
2.268287799e+20
1.551090628e+20
1.99704778e+20
1.999666157e+20
2.000142225e+20
2.002522568e+20
2.00121338e+20
1.992584638e+20
1.990382822e+20
1.997166797e+20
1.994905472e+20
2.002225025e+20
2.024481227e+20
2.016983148e+20
2.019006439e+20
2.001094362e+20
2.008413915e+20
2.018827913e+20
2.043226423e+20
2.09833135e+20
2.171169828e+20
1.553530479e+20
1.994964981e+20
2.01442428e+20
1.992287095e+20
1.989252159e+20
1.992227587e+20
1.992822673e+20
1.989906753e+20
1.987347885e+20
1.991394467e+20
1.984372457e+20
1.992644147e+20
2.005855047e+20
2.017042657e+20
2.022160393e+20
2.032336357e+20
2.032990951e+20
2.046023326e+20
2.074825469e+20
2.120944603e+20
1.553054411e+20
1.980385383e+20
2.007997355e+20
2.009961138e+20
2.016447571e+20
1.998535494e+20
2.010556224e+20
2.028111249e+20
2.02311253e+20
2.004367333e+20
2.006628659e+20
1.992882181e+20
1.997345323e+20
1.988240513e+20
1.996036135e+20
1.98919265e+20
2.00448635e+20
2.017875776e+20
2.04334544e+20
2.088393421e+20
1.549900457e+20
1.99621466e+20
1.991870536e+20
1.983479829e+20
1.991394467e+20
1.987645428e+20
1.98508656e+20
1.97389895e+20
1.98425344e+20
2.004367333e+20
2.003474705e+20
2.004605367e+20
2.010258681e+20
1.994488912e+20
2.012817549e+20
2.029777489e+20
2.021624816e+20
2.015316908e+20
2.028289775e+20
2.047749074e+20
1.553113919e+20
2.00740227e+20
2.005974064e+20
2.00079682e+20
2.000082717e+20
2.017280691e+20
2.024243192e+20
2.02311253e+20
2.021743833e+20
2.010734749e+20
2.006866693e+20
2.002820111e+20
1.998416477e+20
1.992227587e+20
1.986217222e+20
1.972887305e+20
1.98919265e+20
2.018768405e+20
2.034538173e+20
2.05947226e+20
1.554661142e+20
1.998595003e+20
2.017875776e+20
2.028825352e+20
2.023648107e+20
2.002344042e+20
1.994369895e+20
1.995262524e+20
1.988240513e+20
1.98467e+20
1.978838161e+20
1.995500558e+20
1.99252513e+20
1.9978809e+20
1.994131861e+20
2.01234148e+20
2.013293617e+20
2.00823539e+20
2.024481227e+20
2.027040095e+20
1.54853176e+20
1.979076195e+20
1.979314229e+20
1.978124058e+20
1.973958459e+20
1.993774809e+20
1.98175408e+20
1.988240513e+20
1.977945532e+20
1.987823953e+20
1.993120215e+20
1.98877609e+20
1.989430685e+20
1.9999637e+20
2.015138383e+20
1.990204296e+20
2.003355688e+20
2.017042657e+20
2.016566588e+20
2.034776208e+20
1.552935394e+20
2.007164236e+20
2.014483789e+20
2.005200453e+20
2.011329835e+20
2.005914556e+20
1.995143506e+20
2.004545859e+20
2.003058145e+20
2.008175881e+20
2.008116373e+20
2.003772248e+20
2.013948211e+20
2.016269045e+20
2.019184965e+20
2.022755478e+20
2.00615259e+20
2.000142225e+20
2.003831756e+20
2.019006439e+20
1.542283361e+20
1.987704936e+20
2.000499277e+20
1.989371176e+20
1.996869255e+20
1.996036135e+20
2.007580796e+20
2.020851204e+20
2.034657191e+20
2.019482508e+20
2.019184965e+20
2.011389343e+20
2.011686886e+20
2.012877057e+20
1.996928763e+20
2.005021927e+20
2.01442428e+20
2.012639023e+20
2.026504518e+20
2.034478665e+20
1.559659861e+20
2.000142225e+20
2.010913275e+20
2.019720542e+20
2.020791696e+20
2.020910713e+20
2.017459217e+20
2.009485069e+20
1.998059426e+20
2.011746395e+20
2.007283253e+20
2.013472143e+20
1.998952054e+20
1.99829746e+20
2.006331116e+20
2.013769686e+20
2.011865412e+20
2.015852485e+20
2.028706334e+20
2.026325992e+20
1.545258789e+20
1.991513484e+20
1.998535494e+20
1.989490193e+20
2.000558785e+20
1.99002577e+20
1.987764445e+20
1.993655792e+20
1.988835599e+20
1.976695853e+20
1.981932606e+20
2.00573603e+20
2.008354407e+20
2.011032292e+20
2.02186285e+20
2.013769686e+20
2.021089239e+20
2.012400989e+20
2.010080155e+20
2.018054302e+20
1.549305371e+20
1.995024489e+20
2.002582076e+20
2.002582076e+20
1.985027051e+20
1.998118934e+20
2.013234109e+20
2.011270326e+20
2.01275804e+20
2.011270326e+20
2.015197891e+20
2.002344042e+20
2.00573603e+20
2.016209537e+20
1.993417758e+20
1.9999637e+20
1.98591968e+20
1.993477267e+20
2.010972783e+20
1.99871402e+20
1.537582185e+20
1.972887305e+20
1.981456537e+20
1.977290938e+20
1.994786455e+20
1.996333678e+20
1.994250878e+20
2.000558785e+20
2.019661033e+20
2.009247035e+20
1.994845964e+20
1.989668719e+20
1.984431965e+20
1.993596284e+20
1.990799381e+20
2.002344042e+20
2.011508361e+20
2.001034854e+20
1.998059426e+20
2.000677803e+20
1.564718089e+20
1.988121496e+20
1.998059426e+20
2.002879619e+20
1.998475986e+20
1.989549702e+20
1.984610491e+20
1.980444892e+20
1.948488795e+20
1.96854318e+20
1.975862733e+20
1.997821392e+20
1.997821392e+20
1.994250878e+20
2.001689448e+20
1.995560066e+20
1.982349166e+20
2.011686886e+20
2.011686886e+20
2.022934004e+20
1.538117762e+20
1.990561347e+20
2.002165517e+20
2.00490291e+20
1.987288376e+20
1.990204296e+20
1.982765726e+20
1.9978809e+20
1.997821392e+20
2.00490291e+20
2.005855047e+20
1.993715301e+20
1.991572993e+20
1.992406113e+20
1.998118934e+20
2.007104727e+20
2.015495434e+20
1.994369895e+20
1.985146068e+20
1.97806455e+20
1.566919905e+20
2.021565307e+20
2.032157831e+20
2.024838278e+20
2.021565307e+20
2.02311253e+20
2.017816268e+20
2.024957295e+20
2.013531652e+20
2.020494153e+20
2.010377698e+20
2.009544578e+20
2.005081436e+20
1.996690729e+20
2.004129299e+20
1.99252513e+20
1.991037416e+20
1.996095643e+20
2.002641585e+20
1.992703655e+20
1.547222572e+20
1.968602688e+20
1.985027051e+20
1.99127545e+20
1.995857609e+20
2.000201734e+20
1.993536775e+20
1.998118934e+20
2.005617013e+20
1.996036135e+20
2.009485069e+20
2.007461778e+20
2.004129299e+20
2.011032292e+20
2.002641585e+20
1.990382822e+20
1.995738592e+20
2.002701094e+20
2.003058145e+20
2.00573603e+20
1.546448961e+20
1.990977907e+20
1.997523849e+20
1.987526411e+20
1.991811027e+20
1.996393186e+20
1.997345323e+20
1.996571712e+20
1.990918399e+20
1.979016686e+20
1.980504401e+20
1.980801943e+20
1.994191369e+20
1.999666157e+20
2.017399708e+20
2.020434645e+20
2.034716699e+20
2.018173319e+20
2.003593722e+20
1.999249597e+20
1.55472065e+20
1.989073633e+20
2.005855047e+20
1.996988272e+20
1.996928763e+20
1.994607929e+20
1.996393186e+20
2.007580796e+20
2.021624816e+20
2.015435925e+20
2.024600244e+20
2.02721862e+20
2.007699813e+20
1.994548421e+20
1.994250878e+20
1.97348239e+20
1.966936449e+20
1.979195212e+20
1.991930044e+20
1.998475986e+20
1.551626205e+20
1.992763164e+20
1.995619575e+20
2.00448635e+20
2.022457936e+20
2.025016804e+20
2.022517444e+20
1.999725666e+20
1.9978809e+20
2.000856328e+20
2.007640304e+20
1.995262524e+20
1.991751518e+20
2.000439768e+20
1.997523849e+20
2.010318189e+20
2.004724385e+20
2.009604087e+20
1.997226306e+20
1.975505681e+20
1.550257508e+20
1.99621466e+20
2.011805903e+20
2.004010282e+20
1.990263804e+20
1.99335825e+20
1.982111132e+20
1.998654511e+20
1.984431965e+20
2.000201734e+20
1.999190088e+20
2.00448635e+20
1.998356969e+20
2.006093082e+20
2.00121338e+20
1.998416477e+20
1.990680364e+20
1.990561347e+20
2.000142225e+20
2.017994794e+20
1.544425669e+20
1.988061988e+20
1.985265085e+20
1.976695853e+20
1.979016686e+20
1.976517327e+20
1.993953335e+20
1.987050342e+20
1.995619575e+20
1.975684207e+20
1.970983031e+20
1.976695853e+20
1.974672562e+20
1.97556519e+20
1.983479829e+20
1.975922241e+20
1.982646709e+20
1.99335825e+20
1.996036135e+20
1.9978809e+20
1.547639132e+20
1.97806455e+20
1.993298741e+20
1.987704936e+20
1.996333678e+20
1.989847245e+20
1.97389895e+20
1.96562726e+20
1.968364654e+20
1.97020942e+20
1.971221065e+20
1.97020942e+20
1.984789017e+20
1.988240513e+20
1.98835953e+20
1.999785174e+20
2.005497996e+20
2.009723104e+20
1.999904191e+20
2.004010282e+20
1.551507188e+20
1.998654511e+20
2.007342761e+20
2.004783893e+20
2.006628659e+20
2.013829194e+20
2.007342761e+20
2.010199172e+20
2.0152574e+20
2.028230266e+20
2.026147466e+20
2.009187527e+20
2.007104727e+20
2.012817549e+20
2.020732187e+20
2.02269597e+20
2.019244473e+20
2.005974064e+20
1.999368614e+20
2.00490291e+20
1.550436034e+20
1.993179724e+20
2.016626097e+20
2.012579515e+20
2.009544578e+20
2.010734749e+20
2.020553662e+20
2.031324711e+20
2.017935285e+20
2.010080155e+20
2.004843402e+20
2.024302701e+20
2.019958576e+20
2.002344042e+20
1.983479829e+20
1.974910596e+20
1.978659635e+20
1.980563909e+20
1.991096924e+20
1.982706217e+20
1.551328663e+20
1.999368614e+20
2.014483789e+20
2.005497996e+20
2.016388062e+20
2.024778769e+20
2.016804622e+20
2.013948211e+20
2.020018085e+20
2.027992232e+20
2.032455374e+20
2.01400772e+20
2.005557504e+20
2.006390624e+20
2.008413915e+20
2.01609052e+20
2.024421718e+20
2.002879619e+20
1.994250878e+20
1.997523849e+20
1.552697359e+20
1.988716582e+20
2.003653231e+20
1.99704778e+20
1.996452695e+20
1.981873097e+20
1.994786455e+20
1.991930044e+20
1.985324594e+20
1.983479829e+20
1.975743716e+20
1.992049061e+20
2.000618294e+20
1.99871402e+20
2.005974064e+20
2.006926201e+20
2.011329835e+20
2.021981867e+20
2.035192768e+20
2.044416594e+20
1.551150137e+20
1.989490193e+20
1.995500558e+20
1.98342032e+20
1.997345323e+20
2.011389343e+20
1.998118934e+20
1.990204296e+20
1.993774809e+20
2.003534213e+20
2.005259962e+20
2.001570431e+20
2.011984429e+20
2.015792977e+20
2.016804622e+20
2.012520006e+20
2.011389343e+20
2.024124175e+20
2.019244473e+20
2.011032292e+20
1.553768513e+20
2.002760602e+20
2.017102165e+20
2.00781883e+20
2.007223744e+20
2.010913275e+20
2.024957295e+20
2.023053021e+20
2.014602806e+20
2.016269045e+20
2.020553662e+20
2.017994794e+20
2.010734749e+20
2.023231547e+20
2.033883579e+20
2.038465738e+20
2.021624816e+20
2.015316908e+20
2.016031011e+20
2.023707615e+20
1.551804731e+20
1.981516046e+20
2.007580796e+20
2.004426842e+20
2.005676522e+20
2.000975345e+20
1.987764445e+20
1.981575555e+20
1.991096924e+20
2.007580796e+20
2.006628659e+20
1.996095643e+20
1.997226306e+20
2.003534213e+20
1.991394467e+20
1.992406113e+20
2.011984429e+20
2.010080155e+20
1.990977907e+20
1.980147349e+20
1.556446399e+20
1.999190088e+20
2.005021927e+20
2.012698532e+20
1.997523849e+20
1.99621466e+20
2.012400989e+20
2.014126737e+20
2.020256119e+20
2.018232828e+20
2.008473424e+20
2.005974064e+20
2.001570431e+20
1.999606648e+20
1.99829746e+20
1.990977907e+20
1.995262524e+20
1.996928763e+20
1.996155152e+20
2.007640304e+20
1.559600352e+20
2.009128018e+20
2.009544578e+20
2.004010282e+20
2.006628659e+20
2.001332397e+20
1.995560066e+20
1.99913058e+20
1.984491474e+20
1.971280574e+20
1.988954616e+20
1.981694572e+20
2.00079682e+20
2.00448635e+20
1.993060707e+20
1.990620856e+20
1.988895108e+20
1.985562628e+20
1.993298741e+20
1.98425344e+20
1.552935394e+20
1.992584638e+20
2.001689448e+20
2.000023208e+20
2.00406979e+20
1.99169201e+20
1.991751518e+20
2.001094362e+20
2.008889984e+20
2.017875776e+20
2.007759321e+20
2.003950773e+20
1.988835599e+20
1.976874378e+20
1.981158995e+20
1.987883462e+20
1.99044233e+20
1.990263804e+20
1.9999637e+20
1.9978809e+20
1.551269154e+20
1.992049061e+20
1.989371176e+20
2.011805903e+20
2.010675241e+20
2.02436221e+20
2.024421718e+20
2.0131746e+20
2.002225025e+20
1.979790298e+20
1.9999637e+20
2.003236671e+20
2.000677803e+20
2.004426842e+20
1.996036135e+20
2.000856328e+20
1.99954714e+20
1.982765726e+20
1.972649271e+20
1.969316791e+20
1.551507188e+20
1.991215941e+20
1.998237952e+20
1.987169359e+20
1.976695853e+20
1.974077476e+20
1.96771006e+20
1.98591968e+20
1.98919265e+20
2.000261243e+20
1.989490193e+20
1.994131861e+20
1.99294169e+20
1.996809746e+20
1.991989553e+20
1.973541899e+20
1.987347885e+20
2.009247035e+20
2.019065948e+20
2.017518725e+20
1.521336348e+20
1.958486233e+20
1.969852368e+20
1.964199055e+20
1.971994676e+20
1.977469464e+20
1.979790298e+20
1.975208139e+20
1.978540618e+20
1.977052904e+20
1.98919265e+20
1.988061988e+20
1.997821392e+20
1.99127545e+20
1.996274169e+20
2.001629939e+20
1.995083998e+20
1.975029613e+20
1.969971385e+20
1.964139546e+20
4.85012675e+20
5.613698268e+20
5.999860958e+20
6.075712437e+20
6.031186255e+20
6.11841028e+20
6.136447868e+20
6.224925355e+20
6.223715161e+20
6.256147869e+20
6.17015634e+20
6.125188366e+20
6.204123017e+20
6.090182844e+20
6.080900878e+20
6.08638157e+20
6.161070115e+20
6.068004256e+20
5.951223867e+20
5.938154037e+20
5.828528422e+20
5.848364102e+20
5.908577234e+20
5.833880195e+20
5.905029759e+20
5.98268025e+20
5.830639866e+20
5.78346789e+20
5.722134479e+20
5.669735129e+20
5.703935497e+20
5.701834384e+20
5.578112599e+20
5.532078285e+20
5.466635838e+20
5.359916942e+20
5.136205283e+20
4.882034196e+20
4.436957581e+20
3.670533859e+20
3.296700696e+20
3.911050638e+20
4.419232572e+20
4.803234999e+20
4.997940469e+20
5.234290909e+20
5.319263615e+20
5.372904655e+20
5.474761963e+20
5.533432984e+20
5.492139725e+20
5.485104536e+20
5.555634935e+20
5.55840763e+20
5.536195741e+20
5.481775455e+20
5.460378625e+20
5.442164463e+20
5.353125971e+20
5.381958193e+20
5.403361524e+20
5.364939493e+20
5.447621904e+20
5.356792009e+20
5.402259751e+20
5.342254911e+20
5.229843903e+20
5.285202361e+20
5.250895527e+20
5.306780341e+20
5.24157604e+20
5.236984583e+20
5.228950404e+20
5.155167965e+20
5.00517163e+20
4.900354235e+20
4.815731925e+20
4.472807331e+20
4.053796583e+20
3.454988793e+20
2.766271269e+20
3.218470632e+20
3.600461493e+20
4.011678553e+20
4.326198706e+20
4.548277585e+20
4.715358032e+20
4.88326714e+20
4.98619887e+20
5.148850419e+20
5.107430348e+20
5.207130069e+20
5.261997137e+20
5.221083618e+20
5.255490018e+20
5.289222341e+20
5.272785588e+20
5.119346529e+20
5.163496803e+20
5.128256035e+20
5.161071029e+20
5.086416086e+20
5.154631699e+20
5.110808913e+20
5.163624356e+20
5.04080203e+20
5.023769581e+20
4.995249168e+20
4.996077981e+20
5.008165504e+20
4.998228947e+20
4.902059384e+20
4.896371306e+20
4.785658625e+20
4.83304618e+20
4.762391245e+20
4.474115393e+20
4.257126147e+20
3.9671801e+20
3.467280075e+20
2.498190016e+20
2.697081398e+20
3.040587493e+20
3.347302782e+20
3.643712505e+20
3.940789449e+20
4.213016696e+20
4.439539022e+20
4.516839705e+20
4.695674208e+20
4.823865826e+20
4.916176999e+20
4.966147624e+20
5.020930614e+20
5.056929177e+20
5.067992524e+20
5.091964145e+20
5.06793078e+20
5.078589231e+20
5.001988256e+20
4.990506275e+20
5.00177843e+20
4.999105836e+20
4.975489876e+20
5.000486597e+20
4.92543473e+20
4.957764803e+20
4.931181228e+20
4.910498857e+20
4.834954004e+20
4.788154327e+20
4.818119756e+20
4.808412079e+20
4.703862374e+20
4.655553963e+20
4.581108823e+20
4.402054423e+20
4.238826418e+20
3.954840884e+20
3.508061058e+20
2.325003196e+20
2.476944619e+20
2.688206537e+20
2.899061009e+20
3.179307546e+20
3.469638348e+20
3.728484904e+20
3.997943307e+20
4.197574402e+20
4.342016055e+20
4.519662113e+20
4.656411313e+20
4.764230978e+20
4.872749221e+20
4.926184097e+20
4.963532134e+20
5.02351079e+20
5.014623256e+20
4.933694841e+20
4.985106799e+20
4.980961288e+20
4.963084949e+20
4.950613818e+20
4.912931387e+20
4.953630918e+20
4.901525902e+20
4.819873638e+20
4.847929524e+20
4.85593202e+20
4.784837346e+20
4.792886068e+20
4.771604464e+20
4.698978883e+20
4.562549918e+20
4.482572949e+20
4.44424451e+20
4.359847262e+20
4.170821726e+20
3.96951891e+20
3.628938881e+20
2.190454953e+20
2.30569372e+20
2.440752762e+20
2.640736683e+20
2.797726784e+20
2.986677547e+20
3.288788333e+20
3.51213157e+20
3.771992608e+20
3.990839488e+20
4.150912865e+20
4.361519475e+20
4.522438408e+20
4.606271779e+20
4.746904861e+20
4.81236397e+20
4.93427336e+20
4.965572226e+20
4.953372698e+20
4.99162606e+20
5.034150376e+20
4.960226503e+20
4.988634367e+20
4.939995187e+20
4.976415916e+20
4.949271545e+20
4.927340159e+20
4.78591175e+20
4.782388618e+20
4.80159255e+20
4.763594297e+20
4.700013367e+20
4.623781799e+20
4.629235831e+20
4.55584095e+20
4.432708364e+20
4.313443201e+20
4.214533317e+20
4.002665427e+20
3.777655174e+20
2.145724978e+20
2.236664215e+20
2.313060077e+20
2.439052274e+20
2.561349327e+20
2.716662213e+20
2.91908454e+20
3.116946999e+20
3.383428919e+20
3.555607066e+20
3.778125503e+20
3.974292319e+20
4.160042263e+20
4.353819452e+20
4.518497163e+20
4.617282519e+20
4.717984896e+20
4.809230514e+20
4.943091188e+20
4.92190429e+20
4.924037206e+20
4.859972027e+20
4.864944578e+20
4.867588881e+20
4.893489936e+20
4.924210479e+20
4.8921957e+20
4.884979091e+20
4.800257613e+20
4.788709698e+20
4.794838893e+20
4.759862039e+20
4.654044036e+20
4.579741809e+20
4.545729737e+20
4.471790068e+20
4.378614829e+20
4.284375982e+20
4.118960593e+20
3.870124729e+20
2.088573328e+20
2.138351288e+20
2.20365245e+20
2.291812895e+20
2.389070063e+20
2.493823815e+20
2.651380881e+20
2.841051594e+20
3.02512405e+20
3.235991212e+20
3.439629969e+20
3.656800927e+20
3.847734988e+20
4.042776179e+20
4.236536812e+20
4.388866888e+20
4.521407779e+20
4.626606638e+20
4.702258739e+20
4.761873605e+20
4.8048632e+20
4.864294536e+20
4.890736708e+20
4.906271706e+20
4.830849052e+20
4.858317187e+20
4.900909194e+20
4.933158157e+20
4.893958956e+20
4.803677617e+20
4.789956857e+20
4.831074281e+20
4.730998763e+20
4.659533584e+20
4.577385807e+20
4.510322314e+20
4.443786379e+20
4.294924263e+20
4.144929371e+20
4.011922053e+20
2.089349682e+20
2.109127994e+20
2.138443808e+20
2.211578106e+20
2.316007942e+20
2.409733854e+20
2.510585816e+20
2.610689279e+20
2.756016372e+20
2.891813997e+20
3.091840391e+20
3.303731383e+20
3.498544088e+20
3.692737795e+20
3.884647656e+20
4.099704551e+20
4.263148893e+20
4.376824741e+20
4.539592994e+20
4.686730549e+20
4.755893262e+20
4.806707476e+20
4.859743988e+20
4.891110314e+20
4.897061261e+20
4.876536824e+20
4.866490862e+20
4.92473784e+20
4.966025603e+20
4.920219318e+20
4.872424521e+20
4.872513874e+20
4.785027623e+20
4.698388729e+20
4.675309865e+20
4.578362119e+20
4.469601708e+20
4.393295377e+20
4.258159857e+20
4.091286305e+20
2.044798867e+20
2.09199088e+20
2.137838344e+20
2.178289204e+20
2.228885962e+20
2.285268348e+20
2.345006839e+20
2.454459351e+20
2.573642226e+20
2.693541451e+20
2.827633119e+20
3.017943927e+20
3.212061844e+20
3.351350429e+20
3.498289336e+20
3.722848703e+20
3.912769619e+20
4.139271826e+20
4.269482067e+20
4.380050805e+20
4.531724441e+20
4.661763747e+20
4.712370381e+20
4.809564642e+20
4.891775692e+20
4.905054622e+20
4.917610113e+20
4.916390703e+20
4.904444079e+20
4.934889464e+20
4.842381671e+20
4.822740965e+20
4.839362122e+20
4.788433984e+20
4.736911061e+20
4.703062452e+20
4.580781455e+20
4.496141497e+20
4.383003727e+20
4.22022259e+20
2.050352788e+20
2.085376553e+20
2.09920964e+20
2.12835585e+20
2.138509956e+20
2.20587753e+20
2.247303409e+20
2.339811293e+20
2.424180074e+20
2.514485306e+20
2.645662124e+20
2.740421445e+20
2.916147268e+20
3.094769208e+20
3.235808682e+20
3.448457203e+20
3.637213042e+20
3.807738224e+20
3.980578459e+20
4.163748618e+20
4.274493931e+20
4.443616127e+20
4.569986596e+20
4.718312849e+20
4.821777918e+20
4.876608878e+20
4.882320351e+20
4.817616204e+20
4.861543762e+20
4.879634508e+20
4.873250699e+20
4.917892792e+20
4.915934791e+20
4.867146489e+20
4.835690649e+20
4.773299581e+20
4.657989682e+20
4.570299383e+20
4.468168577e+20
4.355101133e+20
2.024076167e+20
2.026388797e+20
2.041932599e+20
2.06336323e+20
2.094734078e+20
2.128650796e+20
2.162614658e+20
2.215504717e+20
2.266000362e+20
2.349746028e+20
2.446000404e+20
2.579641807e+20
2.689316324e+20
2.836549558e+20
3.010834695e+20
3.169607811e+20
3.317138254e+20
3.504446058e+20
3.666549799e+20
3.871068172e+20
4.044860986e+20
4.211664376e+20
4.325910082e+20
4.462127689e+20
4.605070367e+20
4.720769404e+20
4.780880743e+20
4.839289512e+20
4.862577504e+20
4.951570152e+20
4.954666781e+20
4.901074479e+20
4.867484536e+20
4.847410542e+20
4.818968197e+20
4.807044836e+20
4.758479106e+20
4.642539393e+20
4.599302989e+20
4.522132199e+20
2.033213265e+20
2.047975554e+20
2.051135683e+20
2.065862947e+20
2.093874515e+20
2.136750633e+20
2.183786836e+20
2.205093537e+20
2.254503252e+20
2.293496682e+20
2.360174689e+20
2.429580767e+20
2.505158439e+20
2.614113635e+20
2.725242536e+20
2.857623891e+20
3.015165814e+20
3.173250314e+20
3.393306787e+20
3.577083815e+20
3.775318806e+20
3.924007847e+20
4.117464631e+20
4.26814678e+20
4.381577351e+20
4.532019248e+20
4.710954851e+20
4.820252182e+20
4.8770499e+20
4.911432189e+20
4.95113683e+20
5.02872644e+20
4.988762889e+20
4.894668883e+20
4.855213237e+20
4.831137264e+20
4.825709577e+20
4.788218086e+20
4.669547827e+20
4.573413691e+20
2.026524664e+20
2.035227928e+20
2.054889547e+20
2.075313087e+20
2.085585965e+20
2.084194406e+20
2.103892948e+20
2.140619701e+20
2.169791188e+20
2.190860717e+20
2.220764012e+20
2.294952036e+20
2.385010231e+20
2.465014699e+20
2.54834048e+20
2.658284161e+20
2.795256854e+20
2.952723346e+20
3.086972265e+20
3.305745338e+20
3.483850887e+20
3.687245552e+20
3.852164075e+20
4.031728087e+20
4.184869213e+20
4.331818852e+20
4.450348529e+20
4.582871272e+20
4.672295027e+20
4.787592629e+20
4.902166901e+20
4.865316843e+20
4.906382313e+20
4.94447131e+20
4.879169242e+20
4.870375926e+20
4.866412149e+20
4.870846549e+20
4.832699731e+20
4.735235331e+20
2.028973185e+20
2.033424038e+20
2.03539357e+20
2.024343279e+20
2.044265971e+20
2.049074496e+20
2.06248265e+20
2.088501261e+20
2.108073316e+20
2.140338139e+20
2.207944655e+20
2.235741231e+20
2.278457587e+20
2.347439571e+20
2.41442584e+20
2.518693156e+20
2.611016112e+20
2.73847982e+20
2.856557501e+20
2.981772413e+20
3.143828061e+20
3.317112719e+20
3.484327517e+20
3.662186694e+20
3.853093899e+20
4.015819033e+20
4.193518058e+20
4.314371723e+20
4.491242432e+20
4.649827718e+20
4.702081561e+20
4.847892592e+20
4.900880085e+20
4.907003849e+20
4.973515498e+20
4.926173286e+20
4.926278232e+20
4.865492521e+20
4.800359729e+20
4.70698981e+20
1.995052442e+20
1.996924988e+20
2.00820818e+20
2.019343847e+20
2.023329668e+20
2.038563251e+20
2.041621816e+20
2.05363016e+20
2.087353273e+20
2.10254164e+20
2.125964752e+20
2.145601279e+20
2.188557828e+20
2.241923414e+20
2.300783254e+20
2.368256881e+20
2.457750342e+20
2.539370474e+20
2.660187492e+20
2.76437226e+20
2.894690057e+20
3.060689867e+20
3.247911311e+20
3.404867972e+20
3.587102181e+20
3.785948608e+20
3.972267752e+20
4.147941519e+20
4.26344983e+20
4.428956992e+20
4.555547599e+20
4.661604183e+20
4.785333303e+20
4.906849662e+20
4.915647703e+20
4.906318458e+20
4.908223351e+20
4.889146329e+20
4.854636122e+20
4.867509021e+20
2.006339445e+20
2.01406209e+20
2.009600723e+20
2.022697111e+20
2.03100426e+20
2.030030579e+20
2.044610831e+20
2.048926357e+20
2.056968125e+20
2.075435059e+20
2.087122053e+20
2.119450386e+20
2.145104134e+20
2.205156604e+20
2.250598274e+20
2.298461351e+20
2.346924258e+20
2.422756005e+20
2.501743258e+20
2.61312542e+20
2.719767847e+20
2.835849365e+20
2.985211076e+20
3.145282124e+20
3.322753299e+20
3.474485677e+20
3.624453765e+20
3.814422126e+20
4.012841088e+20
4.166384408e+20
4.381073672e+20
4.519558247e+20
4.646631272e+20
4.779722455e+20
4.861124544e+20
4.934491873e+20
4.917884316e+20
4.924946688e+20
4.932623216e+20
4.864497207e+20
2.012669722e+20
2.004982439e+20
2.010751135e+20
2.01019853e+20
2.006875327e+20
2.014511035e+20
2.018892833e+20
2.021769555e+20
2.025761742e+20
2.03763856e+20
2.052637955e+20
2.084388798e+20
2.108025338e+20
2.130639899e+20
2.152407398e+20
2.186016739e+20
2.242333466e+20
2.299790649e+20
2.35644035e+20
2.432987944e+20
2.520222255e+20
2.642033305e+20
2.734739237e+20
2.87832812e+20
3.03933361e+20
3.193196922e+20
3.402840365e+20
3.55741813e+20
3.767696415e+20
3.942758385e+20
4.085677386e+20
4.254330296e+20
4.415232068e+20
4.55992873e+20
4.733877629e+20
4.812930544e+20
4.898324865e+20
4.928063237e+20
4.920203348e+20
4.94646624e+20
1.998695351e+20
2.002456969e+20
2.007299968e+20
2.007515922e+20
2.007796292e+20
2.013212587e+20
2.025618131e+20
2.03418767e+20
2.019128792e+20
2.052337213e+20
2.071226046e+20
2.089037849e+20
2.091177298e+20
2.103310575e+20
2.130946715e+20
2.165058109e+20
2.18420507e+20
2.226754595e+20
2.259753304e+20
2.342404538e+20
2.412322427e+20
2.497368456e+20
2.603529643e+20
2.73018565e+20
2.852696561e+20
2.989539742e+20
3.163872573e+20
3.337097664e+20
3.496412822e+20
3.655462645e+20
3.867941831e+20
4.070087313e+20
4.226016571e+20
4.364265324e+20
4.471683825e+20
4.610066924e+20
4.719756231e+20
4.810113841e+20
4.839554897e+20
4.880695691e+20
2.004070101e+20
2.009011164e+20
2.001971871e+20
2.003065194e+20
2.002147791e+20
2.004556281e+20
2.014596138e+20
2.0311145e+20
2.054188609e+20
2.03496608e+20
2.022640609e+20
2.040481086e+20
2.036404792e+20
2.059924428e+20
2.083733229e+20
2.107172428e+20
2.14800057e+20
2.201215645e+20
2.248041915e+20
2.283044957e+20
2.31472838e+20
2.364485949e+20
2.436688994e+20
2.512187383e+20
2.630560646e+20
2.742385851e+20
2.862893715e+20
3.003871153e+20
3.153727151e+20
3.35528396e+20
3.548135693e+20
3.722586358e+20
3.909485637e+20
4.077785728e+20
4.265413329e+20
4.434356425e+20
4.540158071e+20
4.668111036e+20
4.753180316e+20
4.756968916e+20
1.997799543e+20
1.992595598e+20
1.996583227e+20
2.007698828e+20
2.013383395e+20
2.009255412e+20
2.005255466e+20
1.998563999e+20
1.991459989e+20
2.001941866e+20
2.035011318e+20
2.036477767e+20
2.065092062e+20
2.081945191e+20
2.089412041e+20
2.10770471e+20
2.134256278e+20
2.140273457e+20
2.158095726e+20
2.177570204e+20
2.233941863e+20
2.284031396e+20
2.336331591e+20
2.402798606e+20
2.488565104e+20
2.595044073e+20
2.70220217e+20
2.841834132e+20
3.000142511e+20
3.112966584e+20
3.284434549e+20
3.487055325e+20
3.67457105e+20
3.837716443e+20
4.013253009e+20
4.18165964e+20
4.355729492e+20
4.48207707e+20
4.582124859e+20
4.676383671e+20
2.001561878e+20
2.00865037e+20
2.012385879e+20
2.011844699e+20
2.006077183e+20
2.001464724e+20
2.012790261e+20
2.004773043e+20
2.007631718e+20
2.022303616e+20
2.021166381e+20
2.033894932e+20
2.039527199e+20
2.045506056e+20
2.061678236e+20
2.078628776e+20
2.086989239e+20
2.110545528e+20
2.137941227e+20
2.165561024e+20
2.217203519e+20
2.255725853e+20
2.284466175e+20
2.301628102e+20
2.382782695e+20
2.466714196e+20
2.539985851e+20
2.611555696e+20
2.730114224e+20
2.888000193e+20
3.026742056e+20
3.162887794e+20
3.34764705e+20
3.538901911e+20
3.739703502e+20
3.915621871e+20
4.083085648e+20
4.235070577e+20
4.387197448e+20
4.56250624e+20
1.998934216e+20
1.995361602e+20
1.972364605e+20
1.958314179e+20
1.972308974e+20
1.987800106e+20
2.003325061e+20
2.004773043e+20
2.023424407e+20
2.027903098e+20
2.048087063e+20
2.043193047e+20
2.032566829e+20
2.036986133e+20
2.029388163e+20
2.030457231e+20
2.048169967e+20
2.061089149e+20
2.080746089e+20
2.100574292e+20
2.111447835e+20
2.144177071e+20
2.202029772e+20
2.261528341e+20
2.291499814e+20
2.358116225e+20
2.416544552e+20
2.504287658e+20
2.626592264e+20
2.72648005e+20
2.856098619e+20
2.994478198e+20
3.127405102e+20
3.285957974e+20
3.462731578e+20
3.652958518e+20
3.811154456e+20
4.023944353e+20
4.186382735e+20
4.319611045e+20
1.980480875e+20
2.000653062e+20
2.009116365e+20
2.011905654e+20
2.0205668e+20
2.018344561e+20
2.016152917e+20
2.033309622e+20
2.004852202e+20
1.994242579e+20
1.98591312e+20
1.98139942e+20
2.005635922e+20
2.017717965e+20
2.026284618e+20
2.034183222e+20
2.055947234e+20
2.048184524e+20
2.055552986e+20
2.077104955e+20
2.119263674e+20
2.160351664e+20
2.176659308e+20
2.21207667e+20
2.2334302e+20
2.270618573e+20
2.339647916e+20
2.399802e+20
2.445613471e+20
2.528768731e+20
2.642343765e+20
2.772735168e+20
2.888822394e+20
3.047584747e+20
3.234916225e+20
3.428435137e+20
3.613263903e+20
3.761115379e+20
3.941049977e+20
4.134509277e+20
2.014162712e+20
1.996744597e+20
2.002032417e+20
2.009893687e+20
2.01461133e+20
2.00913175e+20
2.002017367e+20
1.983637174e+20
2.002388526e+20
2.004232548e+20
2.007000974e+20
2.012328518e+20
2.021703402e+20
2.017980117e+20
2.022718843e+20
2.034648954e+20
2.065869953e+20
2.076831422e+20
2.091368046e+20
2.100848804e+20
2.100381201e+20
2.109178619e+20
2.128870052e+20
2.125004889e+20
2.172289271e+20
2.201196553e+20
2.255489972e+20
2.302858034e+20
2.358557576e+20
2.400163309e+20
2.493631679e+20
2.577355802e+20
2.702892926e+20
2.832031208e+20
2.957633221e+20
3.134380923e+20
3.335076901e+20
3.526894728e+20
3.699910979e+20
3.858158977e+20
2.003950662e+20
2.00101383e+20
2.003182802e+20
1.986298819e+20
1.974335067e+20
1.954535107e+20
1.980845163e+20
1.979685927e+20
1.984005818e+20
1.999460277e+20
2.02321748e+20
2.011424522e+20
2.010319541e+20
2.013130291e+20
2.031633295e+20
2.016551387e+20
2.026380227e+20
2.04203627e+20
2.04472676e+20
2.035244442e+20
2.045947111e+20
2.064768286e+20
2.06786851e+20
2.107434668e+20
2.1374332e+20
2.145025208e+20
2.171041651e+20
2.200422569e+20
2.250383797e+20
2.301717201e+20
2.371507452e+20
2.465461545e+20
2.584289374e+20
2.657568526e+20
2.765129612e+20
2.898792226e+20
3.046991327e+20
3.24320882e+20
3.414737902e+20
3.64009057e+20
1.990812351e+20
1.994820416e+20
1.988167256e+20
2.003552957e+20
2.007059531e+20