/*--------------------------------*- C++ -*----------------------------------*\
  =========                 |
  \\      /  F ield         | OpenFOAM: The Open Source CFD Toolbox
   \\    /   O peration     | Website:  https://openfoam.org
    \\  /    A nd           | Version:  7
     \\/     M anipulation  |
\*---------------------------------------------------------------------------*/
FoamFile
{
    version     2.0;
    format      ascii;
    class       volScalarField;
    location    "0.007";
    object      internalEMean;
}
// * * * * * * * * * * * * * * * * * * * * * * * * * * * * * * * * * * * * * //

dimensions      [1 -1 -2 0 0 0 0];

internalField   nonuniform List<scalar> 
2400
(
0.3125517703
0.4023919109
0.4059064419
0.4039953226
0.4033665009
0.4044938038
0.4056393481
0.4055213621
0.4054047495
0.4051344889
0.4065331765
0.408107789
0.4081150972
0.4058504103
0.4129782468
0.413385217
0.4197995307
0.4443002984
0.5090151144
0.8076406093
0.3231932661
0.4183661512
0.4175505982
0.4176240784
0.417654515
0.4173403167
0.4169130517
0.4162718359
0.4190369496
0.4188714942
0.4198288797
0.4147036338
0.4145571915
0.4168444354
0.411931148
0.4194332478
0.4288278261
0.4531157677
0.5322419492
0.7421829697
0.3220806974
0.4113431442
0.4129251278
0.4137727653
0.4142654214
0.4116465752
0.4111102761
0.4090986852
0.4058434586
0.4094132208
0.4115064854
0.4117046934
0.4166829669
0.4199741686
0.4219907006
0.4289961994
0.4342657625
0.461506586
0.5222345567
0.6518193209
0.3268386355
0.4167399584
0.4189546793
0.4197793919
0.4203216995
0.4220036211
0.4190773437
0.4206713608
0.4222323255
0.4174696938
0.4178496642
0.4166992926
0.4133723328
0.4134967499
0.4135608257
0.4185104591
0.4310848522
0.4556171123
0.4981675216
0.5771885622
0.3228631346
0.4141751743
0.4150294884
0.4180509426
0.4180134749
0.4189990802
0.416610551
0.4168778284
0.4186878931
0.4164933929
0.4143756974
0.4177115876
0.4209397809
0.4252649348
0.4198942383
0.4210461655
0.4257396426
0.4413976405
0.4745274797
0.530781909
0.3241353014
0.418484112
0.4224720165
0.416869078
0.4138861729
0.4117086759
0.4111764929
0.4104386292
0.4104143922
0.412335502
0.4119773893
0.4149204579
0.4184824206
0.4182009993
0.4199395609
0.4276018516
0.4340171844
0.444683664
0.4668425922
0.4977463939
0.3200077514
0.4096427419
0.4169377871
0.4158009892
0.4170284943
0.4132085164
0.4174997833
0.4220162825
0.4189546402
0.4140351897
0.414342825
0.4105177889
0.414210392
0.4133363866
0.4137484855
0.411225614
0.4195815295
0.4256680793
0.4411274666
0.468446144
0.3167171427
0.4095271466
0.4111478408
0.4093505806
0.4132701172
0.4130301653
0.4118361569
0.4076167224
0.4090926777
0.414053063
0.4153429041
0.4154884798
0.4159390445
0.411676626
0.4151356847
0.4257571873
0.4228814299
0.4253405551
0.4341454634
0.4526290088
0.3217774686
0.4142397863
0.4128859719
0.4124228947
0.4090308115
0.4119066417
0.4111970461
0.4119945785
0.4151008985
0.415059045
0.4156959455
0.4139613889
0.4141057433
0.4148140201
0.4174955931
0.4179317032
0.418305838
0.4258080594
0.432837632
0.4426006353
0.3233662135
0.4135759737
0.4190737305
0.4201678978
0.4211288951
0.4161416299
0.4146794626
0.4143685046
0.4107216187
0.4101337539
0.4126193956
0.4172420155
0.4157748318
0.4180617658
0.4161732178
0.4204683113
0.4192195123
0.4210984304
0.4292342002
0.4354547246
0.3197867765
0.4094915136
0.409207759
0.4091450843
0.4080130256
0.4106201809
0.409443913
0.4097248314
0.4089685088
0.4063451618
0.4071906967
0.4057380174
0.4058130367
0.4091492431
0.4155091526
0.4097313183
0.41438454
0.4200595666
0.4229758406
0.4274209213
0.3262376102
0.4197698655
0.4202779128
0.4184668717
0.4217208236
0.4201432615
0.419286746
0.4224498408
0.4220974903
0.4226391392
0.4196410862
0.4166997313
0.4190470945
0.4187680962
0.4211146349
0.4197842029
0.4168273986
0.4139605652
0.4249356731
0.4269762065
0.3173443704
0.4125213668
0.4142137328
0.4131438622
0.4115268539
0.4125945599
0.4144196778
0.418373718
0.4204799192
0.4203178693
0.4225246034
0.4208033091
0.4232078274
0.4215095029
0.4184936126
0.4182715894
0.4205241005
0.4214102957
0.427932296
0.4351201934
0.3199762149
0.4062455295
0.4130438224
0.4164692714
0.4201202949
0.4231565216
0.4230221798
0.419550609
0.4176151562
0.42061261
0.4172960067
0.4200916754
0.4185830443
0.4167601757
0.4192557108
0.4212029376
0.4183864144
0.4197956707
0.4249821526
0.4242850279
0.320703811
0.4165500957
0.4144652014
0.4130838744
0.412707707
0.4107855429
0.4099435037
0.4093902573
0.4115705038
0.4076414896
0.409193422
0.4123488671
0.4101429566
0.4086930174
0.4124189278
0.4157841989
0.4175730488
0.417750284
0.4177449409
0.4199151822
0.3248918897
0.4173711789
0.4168432047
0.4152215795
0.4102931526
0.414777082
0.4193350179
0.4185432209
0.4200602677
0.418621648
0.4203596227
0.4148542579
0.4186293952
0.4236399932
0.4203459005
0.4215975568
0.4167661735
0.4160072227
0.4190773504
0.4177155326
0.319047542
0.4108657031
0.413944043
0.4143438382
0.4173381381
0.4145479822
0.4163387192
0.4155230632
0.4189717001
0.4205114459
0.4157322751
0.4162375026
0.4135240842
0.4138431765
0.4077528594
0.4087644196
0.4148229424
0.4139161351
0.4142905612
0.4159681059
0.3234186332
0.4067491441
0.4093866795
0.4118659074
0.4103262616
0.411254527
0.4104401174
0.4084721595
0.4016228006
0.406232979
0.4088797599
0.4150986057
0.4136549322
0.4141301201
0.4169222874
0.421170994
0.4129088993
0.4224854335
0.422683889
0.4270078702
0.3218942851
0.4176726556
0.4194731373
0.4163479012
0.4107383415
0.4094606974
0.4071692138
0.4118733339
0.4124439918
0.4141193305
0.4122445524
0.409989948
0.4111570102
0.4100093829
0.4127676805
0.4182328673
0.4208680425
0.4150464888
0.4168051147
0.4144207641
0.3239139214
0.4181717787
0.4165683398
0.4198346439
0.4191208829
0.421072416
0.42432265
0.4274115936
0.4248773385
0.4275560675
0.4269225991
0.4244098762
0.4226350407
0.4180703625
0.4195315849
0.4139322045
0.4161244839
0.4166037541
0.4165796679
0.4168318969
0.3203148748
0.407649062
0.4091354744
0.4122486387
0.4124555169
0.4130101599
0.4084424401
0.4069395436
0.4089319195
0.4095964945
0.4114436673
0.4137803731
0.4143744385
0.418249561
0.4171125608
0.411071865
0.4114590398
0.4162711016
0.4138203323
0.4136128778
0.3197006342
0.4137038167
0.417288075
0.4159300574
0.4137816004
0.4150484854
0.4173442869
0.4143199265
0.410277268
0.4090659931
0.4124205974
0.4138271045
0.4174734127
0.4182416493
0.4203697404
0.4250997705
0.4301605085
0.4240787993
0.420181484
0.4179828834
0.3253577943
0.4145419365
0.4135124889
0.4141455864
0.4143355924
0.4144643067
0.4121148327
0.4152555471
0.4218872416
0.4210867133
0.4242371718
0.4271308134
0.4210117955
0.4198527582
0.4176230851
0.4113033619
0.4093062339
0.4140516012
0.4187047503
0.4206514566
0.3201944955
0.4126100549
0.4168628542
0.4170635075
0.4194099611
0.4214899326
0.4226409153
0.4192692857
0.4191812295
0.4168797605
0.4181056022
0.4118344531
0.4096751078
0.413351298
0.4126695306
0.415944915
0.4145414692
0.4176970659
0.4154436586
0.4128332249
0.3258304716
0.4183524546
0.4194794306
0.4181573467
0.4150119105
0.413158374
0.4100182009
0.4109983867
0.4063173287
0.4100674908
0.409655911
0.4158146949
0.4164466254
0.4170244503
0.4187047864
0.4215281976
0.4184001176
0.4153459795
0.4183710479
0.4193818823
0.3199612517
0.4111977465
0.413265157
0.4126619064
0.4126082312
0.4140779393
0.4148593735
0.4154884204
0.4157693095
0.4093121808
0.411810292
0.4121001428
0.410109888
0.4082341861
0.4074867839
0.4029993358
0.4055682592
0.4116141822
0.4146028577
0.4160063768
0.326522616
0.4173493163
0.4205968416
0.417823891
0.4165964221
0.4156994686
0.4121224371
0.4078303819
0.4083938548
0.40686234
0.4068965818
0.40659022
0.4113930233
0.4121408915
0.4132969094
0.4162716019
0.4208310196
0.4185223501
0.4136733507
0.4127883055
0.3207604472
0.4164216433
0.4182428988
0.4186120892
0.4185505052
0.4220848222
0.423078611
0.4247378
0.426194145
0.4279182026
0.4241162854
0.4208127803
0.4183868596
0.4227547251
0.4235790859
0.4221969145
0.419527088
0.4180679924
0.4171839403
0.4171022905
0.3219917257
0.4166207313
0.4224112547
0.4212456704
0.4206014804
0.4182905583
0.4212872464
0.4241585925
0.4215755431
0.4212441423
0.4244842912
0.4303823291
0.4267546619
0.4210343195
0.4178431268
0.4147820808
0.4183408595
0.4181779062
0.4204457129
0.4194857627
0.3269294293
0.4166448156
0.4181800973
0.4172250756
0.4193627914
0.4200362367
0.4178239518
0.4200675777
0.4236380543
0.4248473919
0.4244861461
0.4186298368
0.4177568379
0.4152428664
0.416966514
0.4179117972
0.4194644792
0.4148251978
0.4119355933
0.411297969
0.3178667328
0.4068999201
0.4129026392
0.4114022668
0.4126519281
0.4075958915
0.4100213606
0.4088167095
0.4055942425
0.4044892365
0.40434281
0.4093203853
0.4091818865
0.4109574017
0.4115286776
0.412481865
0.4142692593
0.417404949
0.4208386279
0.4205508206
0.3185977131
0.4088921583
0.4105937907
0.4081111372
0.4113077086
0.4187395554
0.4173045946
0.4112703465
0.4134000022
0.4166634679
0.4185604747
0.4165785877
0.4178209783
0.4189436685
0.4209386152
0.4178488073
0.4184530605
0.4188807317
0.4163016436
0.4139975495
0.3238619054
0.4198847514
0.4244602824
0.4213464803
0.4192611851
0.4189048298
0.4229308045
0.4255361322
0.4213102616
0.4226591173
0.4197805152
0.417180421
0.4110057588
0.4113228798
0.413507065
0.413997723
0.4125751057
0.4132022244
0.4129825712
0.4173039714
0.3223413016
0.4110793362
0.4155882221
0.4151239984
0.4125700051
0.4142553182
0.4138989783
0.4145592917
0.4152429551
0.4160705322
0.4160415703
0.4137274486
0.4141402778
0.4173446018
0.4148834128
0.4127065252
0.415061374
0.4161407492
0.4135449373
0.4075482511
0.3241512713
0.4126799364
0.414609468
0.4136362739
0.4107669253
0.4068433886
0.4116781119
0.4122145892
0.4164548495
0.417847597
0.4172014276
0.4166226194
0.4158168087
0.4120364497
0.4121209388
0.4116208292
0.4131529881
0.4130126995
0.4131837142
0.4166624187
0.3240068444
0.4193897582
0.4179108795
0.4168963749
0.4202606447
0.4204608089
0.4185856241
0.4156144484
0.4126426991
0.4102671032
0.4132210205
0.4097443318
0.4172576011
0.4187744072
0.4165133784
0.4165897494
0.4157058123
0.4132485655
0.4130574759
0.4118010167
0.3226940401
0.4141415428
0.4135122165
0.410903474
0.4098215056
0.4081734375
0.4070200733
0.4107788356
0.4121571297
0.414007458
0.4159542443
0.4182162595
0.4137065421
0.4130025865
0.4111524515
0.4141068586
0.4154130163
0.4170895064
0.4214152949
0.4207586992
0.318773422
0.4099108113
0.4099023451
0.4193768446
0.4158727061
0.419387902
0.4187201956
0.4171104308
0.4161491844
0.4108782724
0.4099884666
0.4127026442
0.4138981839
0.4134284241
0.4173451593
0.4169691555
0.4165631364
0.4127725903
0.4096221327
0.4070011865
0.323437498
0.4143902225
0.4162888433
0.4128926772
0.4122208661
0.4119619424
0.410443235
0.4160569863
0.4141352193
0.4164080449
0.4156332758
0.413568272
0.4154687269
0.413442032
0.4108945741
0.4060134406
0.4081513019
0.4135538281
0.4178785237
0.4179809028
0.3123292604
0.4043680043
0.4072809251
0.4060593334
0.4081472477
0.4093428957
0.4089534644
0.4088073943
0.4100467135
0.4075870298
0.4126321479
0.4115166716
0.4154109831
0.4115983703
0.4121097021
0.4149255331
0.4120433671
0.4064743053
0.4032348022
0.3989296189
1.864491396
2.366766377
2.666500902
2.80131601
2.832547281
2.939053952
2.946038811
3.024195169
3.053973553
3.043145439
3.003371216
3.007013004
3.022745021
2.947190628
2.948190105
2.9522706
2.96803914
2.905786453
2.808279955
2.815278077
2.774387092
2.805000918
2.829648456
2.758819752
2.805915618
2.846053572
2.810565252
2.769461514
2.739007946
2.68711203
2.694749132
2.692393046
2.631457394
2.595561898
2.528235041
2.439139671
2.377040504
2.268637968
2.071670724
1.714230665
1.163106802
1.542942618
1.881661511
2.178186859
2.369143303
2.550853603
2.644798415
2.756465962
2.872723324
2.90640858
2.919710858
2.939300102
2.977280561
2.946084329
2.938472545
2.941209072
2.94711104
2.910157228
2.86061802
2.861810393
2.895448164
2.871388724
2.926906775
2.8654846
2.868919212
2.770249766
2.723527731
2.752077316
2.744458411
2.738947229
2.690178748
2.677672975
2.679402984
2.609439322
2.523043807
2.450206142
2.38374515
2.240089136
2.024936767
1.745494438
0.876987989
1.14519878
1.390672571
1.699408848
1.932458729
2.128979087
2.285389545
2.438788532
2.532946106
2.675770628
2.702724847
2.788512498
2.809338201
2.855678352
2.882753647
2.902673644
2.899092378
2.817131101
2.910713866
2.919772534
2.913200304
2.83458374
2.862053167
2.860873527
2.907002968
2.775201322
2.746030227
2.781203848
2.759997919
2.754277986
2.714832844
2.637806977
2.652556524
2.615320348
2.623595386
2.54142403
2.365261616
2.221390051
2.052378741
1.792051145
0.720509599
0.8605722286
1.078421403
1.27817145
1.47678937
1.678177965
1.877323012
2.048958779
2.141779236
2.327472892
2.433681548
2.561738962
2.654309776
2.717841915
2.756868965
2.787897351
2.824091213
2.815201728
2.816796404
2.824821787
2.810157598
2.839000208
2.851933646
2.846819769
2.884769136
2.819966122
2.78522365
2.780518946
2.72823381
2.682536854
2.677616342
2.725544494
2.671412247
2.635607221
2.591070264
2.504169185
2.395564507
2.330774147
2.156538643
1.880216723
0.6258616743
0.7214484049
0.8593917096
0.9828710945
1.166970133
1.345931668
1.518580348
1.713893707
1.848542049
1.97467096
2.13857225
2.274833586
2.361331162
2.487073192
2.60550744
2.645089058
2.692790837
2.722912626
2.72253443
2.770910187
2.815407804
2.790881274
2.796067714
2.780054085
2.82043349
2.767655773
2.751158739
2.72554298
2.744127478
2.722406493
2.725723708
2.762989491
2.674415363
2.565679682
2.525535137
2.507502869
2.398941277
2.307633643
2.193751144
1.980159247
0.5437133499
0.6020378742
0.6964689699
0.8172941756
0.9219700058
1.055823495
1.216535765
1.373021896
1.534419945
1.711817786
1.827892515
1.99712491
2.129463588
2.20606928
2.324935425
2.421444412
2.561488159
2.580330312
2.650362258
2.683986466
2.755049404
2.737302427
2.748635074
2.749534126
2.770572586
2.78520759
2.81736698
2.760509674
2.759534508
2.768631935
2.727595777
2.716164984
2.644843283
2.619958665
2.56303287
2.512656459
2.428428931
2.350395924
2.231985604
2.08656164
0.5164278938
0.5557144548
0.6017744603
0.69122702
0.7675440128
0.8637717614
0.9874144359
1.120657599
1.268785903
1.399675971
1.555379117
1.713500521
1.839348375
1.954516294
2.118737961
2.222937847
2.322546465
2.410545211
2.548296315
2.580725396
2.603196096
2.581589251
2.6559247
2.672081079
2.696584887
2.742663748
2.737518852
2.769709483
2.70599245
2.684948042
2.739649604
2.704767064
2.639935281
2.599415497
2.568025033
2.540963554
2.462610382
2.438930836
2.314627751
2.146020525
0.4802194485
0.5085758987
0.5400037526
0.5975075334
0.6567810908
0.7223562952
0.8177315518
0.9153496858
1.022342807
1.156272777
1.275273904
1.424710459
1.588968506
1.711874848
1.831988147
1.978429981
2.089283451
2.210271598
2.316012251
2.40226025
2.461352149
2.516634826
2.577708602
2.643107376
2.606593191
2.636803446
2.694169813
2.72728425
2.720180859
2.656610155
2.65721514
2.749630457
2.708510377
2.660100671
2.609700588
2.553852818
2.541385621
2.438690603
2.339355323
2.221419982
0.4607791459
0.4850725298
0.5087041419
0.5360863386
0.5946869258
0.640715585
0.7083099336
0.7746263109
0.8633541838
0.9281475348
1.055834022
1.167607492
1.315905135
1.448724002
1.59226616
1.740572231
1.865835016
1.976991624
2.123476815
2.222673779
2.317345902
2.39221601
2.470954386
2.508279089
2.52098374
2.578351773
2.58512029
2.643032715
2.695963683
2.698235299
2.677042927
2.713741531
2.656521265
2.622048796
2.616379227
2.553056776
2.473314862
2.44903184
2.368760538
2.249520388
0.444893091
0.4571052705
0.4815498388
0.5162145275
0.5407529557
0.5721835567
0.6106761481
0.68093475
0.749421504
0.8094497983
0.8974183774
0.9948587406
1.10521126
1.215701255
1.322739382
1.467049904
1.613206043
1.750450071
1.851622304
1.94390636
2.046327915
2.155835126
2.244511173
2.331072985
2.426817043
2.484802142
2.549508096
2.579613454
2.590942167
2.616891219
2.581946553
2.590237273
2.64775991
2.641376536
2.610119056
2.589820779
2.527273824
2.443391996
2.375505313
2.304317379
0.4393539218
0.4506088889
0.4591199686
0.4779573669
0.4982572151
0.5251154089
0.5605271341
0.6011921665
0.659293652
0.7238470286
0.7859793035
0.8578304181
0.9723016091
1.050587339
1.124670769
1.256742627
1.394350796
1.497043998
1.609721342
1.725101371
1.836653907
1.988538063
2.08236209
2.208990507
2.280818607
2.352564693
2.405229416
2.394045912
2.460107688
2.496081738
2.561866566
2.584121312
2.631753023
2.585939046
2.579866062
2.568785731
2.503595573
2.46079372
2.398897403
2.347837414
0.4334206113
0.4346580963
0.4439274621
0.4571611269
0.4787040426
0.4948641012
0.5186921995
0.5482036894
0.572322509
0.6210344703
0.6804914202
0.7428513945
0.8017451114
0.8886814922
0.9818809262
1.055669075
1.153661716
1.286179484
1.402833903
1.541582878
1.648888703
1.775535139
1.87741274
1.998540556
2.128311422
2.199524437
2.253829168
2.309141535
2.35755261
2.473819647
2.502875808
2.495663783
2.525153442
2.526676229
2.516243225
2.532931378
2.527409821
2.458864011
2.415737375
2.373029096
0.4387584908
0.4388551935
0.4450030585
0.4545881133
0.4660140519
0.4892680253
0.5077042096
0.5292908179
0.5536401593
0.5706996174
0.6051947884
0.6466815843
0.7051710371
0.7758283368
0.8292190024
0.9032367835
0.9915576308
1.076547344
1.205220904
1.300939863
1.419861524
1.556415015
1.68247234
1.796002068
1.898619473
2.034780091
2.166951176
2.254940955
2.325136406
2.35819241
2.428146836
2.512244984
2.517363702
2.474479612
2.473995675
2.50094094
2.496880676
2.512385794
2.431501833
2.386315586
0.4326234774
0.4343147534
0.4361846578
0.4456237
0.4538701119
0.4560335387
0.470361432
0.4880908682
0.5059501169
0.5315290361
0.5436650951
0.5740646147
0.6165720577
0.6759995746
0.7262622867
0.7815762012
0.8436858179
0.929806582
1.015157915
1.124027516
1.209025923
1.332929463
1.444880175
1.580783647
1.70616324
1.808056557
1.902498648
2.022499128
2.115052883
2.20636782
2.311904448
2.319668361
2.369330121
2.436568113
2.441643963
2.461713835
2.484022959
2.45927073
2.489377881
2.407646869
0.4248967483
0.4305705533
0.4305380856
0.4301093129
0.4444110095
0.4456916204
0.4532474893
0.4656962784
0.4796870101
0.497137597
0.5264633351
0.5429014561
0.5700081969
0.5991419871
0.6441803513
0.6927410403
0.7413053459
0.8162475476
0.8762340878
0.9521198328
1.05425583
1.140750976
1.244380713
1.360854976
1.488176764
1.60514131
1.721374614
1.806506485
1.928562013
2.037489416
2.120508369
2.234209923
2.270237608
2.316192035
2.395256661
2.405909871
2.437563852
2.40588065
2.378880673
2.339389879
0.4189688976
0.4189345869
0.4232591504
0.4263952447
0.4328293849
0.4435642035
0.4519832839
0.4516390361
0.4631846781
0.4752295397
0.4908838641
0.5008737398
0.5226365436
0.5486159593
0.5790635073
0.6194669156
0.6706837899
0.702589139
0.7727758407
0.8209504446
0.8844388499
0.9828362876
1.085099567
1.18286221
1.287182236
1.402263639
1.530939484
1.643660877
1.760456261
1.865168869
1.975627501
2.060199241
2.171462255
2.247349311
2.283480959
2.294668653
2.340403047
2.356026067
2.351857155
2.401807426
0.4184232276
0.4231257365
0.4253490616
0.4322402348
0.4361063988
0.4365763012
0.4418915755
0.4516852965
0.4562077011
0.4653861595
0.4731900685
0.4895995773
0.5036206529
0.5277684302
0.5448581331
0.5702683851
0.5948508095
0.6365998387
0.6804662812
0.7411813856
0.7924841385
0.8502296849
0.9400223695
1.01776595
1.133380731
1.222773122
1.310042427
1.432360353
1.544267407
1.650111633
1.785350786
1.900564923
2.004451088
2.110532998
2.195262475
2.246890314
2.271074239
2.300389734
2.337739491
2.336225939
0.4275790268
0.4237428802
0.4254292461
0.4293455282
0.4242303131
0.4276945348
0.4305341426
0.4327413375
0.4399621372
0.4466351964
0.4558084352
0.468865499
0.4782529808
0.4859173615
0.5083101085
0.5277770311
0.5671576036
0.5907615787
0.6199070539
0.6528898073
0.703346851
0.7484898655
0.7993767648
0.8714018394
0.9501384062
1.032053376
1.156778401
1.254257141
1.370757608
1.485910339
1.584656538
1.679506644
1.811146239
1.920718035
2.026662739
2.119413364
2.190035901
2.237317666
2.256806438
2.292089297
0.4198341415
0.4217681847
0.4207180246
0.4252184803
0.4276383167
0.4346972383
0.4372661226
0.4400967662
0.4298840961
0.4365826647
0.4396847675
0.4516661
0.4590570165
0.4729702558
0.4807674609
0.4979865142
0.5124639903
0.5364348094
0.5542212284
0.5922570814
0.633952983
0.6835511332
0.7281694542
0.7877236965
0.8538870035
0.919985143
1.014226265
1.10617671
1.200350672
1.28826061
1.43826836
1.575993857
1.663794816
1.754551118
1.837561705
1.936210691
2.045821293
2.106711731
2.137242504
2.21353749
0.4219384817
0.4215363634
0.4220294418
0.419441869
0.4169621748
0.4119358427
0.4160390201
0.4218900238
0.4272349674
0.4293238574
0.4339214783
0.442493794
0.445231155
0.4537542736
0.4639237439
0.4774926103
0.4938848547
0.5174833038
0.5370927354
0.5533694638
0.5762928976
0.6097040711
0.6463608579
0.6862606842
0.7383264249
0.8055501945
0.8632330021
0.9439861795
1.02129313
1.140139198
1.225756799
1.333753651
1.454166243
1.568735872
1.692065709
1.809830061
1.886073231
1.984911429
2.047657864
2.068726857
0.4140265955
0.4099808034
0.4168840548
0.4206923252
0.421971824
0.4256253399
0.4245473663
0.4247098655
0.4241606799
0.4236425664
0.432454443
0.4385587541
0.4434993656
0.4494761111
0.4601909925
0.4660226078
0.4784169032
0.4893505401
0.5002276697
0.5146493906
0.5418402396
0.566335217
0.5907334111
0.6230302335
0.6603223636
0.7062238732
0.7716631784
0.8294234151
0.9062904053
0.9739510339
1.082590333
1.180403362
1.278496563
1.389239223
1.496933157
1.607406492
1.70195756
1.799372726
1.890375197
1.984057303
0.4212306284
0.4227623235
0.4230342253
0.4231253001
0.4239632065
0.4251827031
0.4283683285
0.4261314386
0.4276408043
0.4301450599
0.432398068
0.4348534252
0.4410895269
0.4455195627
0.4527234573
0.4573699467
0.4611280028
0.4683441815
0.4855718679
0.4992724944
0.5166432598
0.5379026221
0.5569617311
0.5761133191
0.6087667434
0.6435904961
0.6782428305
0.7191594054
0.7740421227
0.8621978703
0.9278143385
1.010940712
1.112477669
1.215540478
1.321555662
1.434162601
1.543360384
1.623931495
1.749064082
1.848191454
0.4208151879
0.4187549384
0.4120226804
0.4106538498
0.4115197691
0.4137625147
0.4177764863
0.4166261132
0.4219339695
0.4265178819
0.431265425
0.4299251991
0.4274813993
0.4333532463
0.4353043294
0.4401984338
0.4447635613
0.4541410415
0.4546521822
0.4694796519
0.4776060561
0.4931637123
0.5133619822
0.5380329735
0.5576182592
0.5957214052
0.6260653814
0.6629747613
0.7100462255
0.7522018574
0.8301658898
0.8944326408
0.9535425838
1.052499744
1.149610854
1.25403921
1.361828936
1.476696044
1.581748639
1.666288877
0.4162505939
0.4212743734
0.4196634284
0.4229097618
0.4238266368
0.4216741508
0.4199145975
0.420551389
0.4172514855
0.4093097088
0.4100144284
0.4114721786
0.419669549
0.4251156676
0.4256585568
0.4302335845
0.4398749545
0.4434525282
0.4528247553
0.455765258
0.4700537278
0.4831238202
0.5000793827
0.5158545731
0.5319797116
0.5471197117
0.5741506174
0.5984719705
0.6300922564
0.6610193306
0.713931242
0.7954865807
0.8508354551
0.9244297691
1.025953884
1.121235885
1.228841676
1.318075083
1.421924259
1.533701768
0.4172702091
0.4138108923
0.4134261389
0.4155884022
0.4160522586
0.4154905353
0.4148147886
0.4108787064
0.415389781
0.4174835112
0.4187135123
0.4189955545
0.4225247703
0.4229531293
0.4260721298
0.4301428499
0.4350108237
0.4445072556
0.4490859898
0.4554643189
0.459999938
0.4655148471
0.4694679084
0.4760848165
0.4918140256
0.5093997011
0.5307033052
0.5552432935
0.5921287779
0.6199949449
0.6570931543
0.7025273383
0.7606323662
0.808004814
0.8861812952
0.9645430632
1.072678237
1.181415737
1.271131467
1.368169915
0.4164293362
0.4160329908
0.4174701498
0.4109067137
0.4054536857
0.4034687563
0.4097993934
0.4098114244
0.4121376107
0.4167567691
0.423397119
0.4214493447
0.4190541996
0.4218972018
0.4289006906
0.4274946239
0.4322469098
0.4335646403
0.4340214324
0.4338177906
0.436826225
0.4453087503
0.4567437759
0.4698886942
0.4799406183
0.484268136
0.4974232429
0.5122141885
0.5341324561
0.5673590694
0.5955171556
0.6326231382
0.694153993
0.7375924607
0.7798501156
0.8523545523
0.9301765499
1.019177777
1.113504106
1.216164425
0.4133536526
0.4106914135
0.4114260302
0.4179355392
0.4228254884
0.4246568519
0.4222168295
0.4231510022
0.4230333982
0.4186994267
0.4265051289
0.4285400799
0.4279999515
0.4254200906
0.4289107199
0.4328674691
0.4332982029
0.4277911982
0.4346567939
0.4433406672
0.4435677429
0.4510172249
0.4484519949
0.4528735841
0.4582393857
0.4727543858
0.4882801719
0.4991235073
0.5138881501
0.5332662126
0.5533018384
0.5741871288
0.6099324055
0.6634538236
0.7183663286
0.7606205368
0.8283881044
0.9139909801
1.011675091
1.095065051
0.4207189034
0.4200209069
0.4245615799
0.4204618132
0.4188667568
0.4216218812
0.4234437678
0.4239568142
0.4204403086
0.4155274206
0.4102020812
0.4119833191
0.4129760623
0.413607552
0.416162552
0.415927809
0.4175769931
0.4224271084
0.430585152
0.4273451279
0.4298600692
0.4379289634
0.4419186795
0.4451511835
0.4522870606
0.4586164674
0.4642964222
0.4748635145
0.4879554348
0.5020325733
0.5183485943
0.5344207481
0.5568788429
0.5843317373
0.6312399241
0.6903648831
0.7353615412
0.8001041393
0.8696599856
0.9594647257
0.4194133964
0.4157883296
0.4148389472
0.4164856893
0.4133001168
0.4085992624
0.4119197911
0.4151180733
0.4151746444
0.4175832002
0.4257185539
0.4256361403
0.4258465033
0.4227015153
0.4208065587
0.4220654665
0.424569968
0.4238316852
0.4248205563
0.4280449376
0.4232826332
0.4245705842
0.4286165973
0.4362628756
0.438915578
0.4481516838
0.4526635358
0.4520849041
0.4630659122
0.482271067
0.497342182
0.5185559415
0.5391260111
0.5603786428
0.5826445567
0.6183979183
0.6627841538
0.699024927
0.7696416518
0.8498293834
0.4109434128
0.4113998194
0.4110249249
0.4141051086
0.4192904915
0.4205827451
0.4183863124
0.422049558
0.4239211961
0.4184534768
0.4135355054
0.4111892399
0.4111105131
0.4132143505
0.410071569
0.411335734
0.4198288942
0.4181122329
0.4136888411
0.413945021
0.4178605212
0.4240038661
0.420461781
0.4297251324
0.431885009
0.4405311079
0.4487993522
0.4725245567
0.4736672295
0.4839677777
0.4858472232
0.4994077896
0.5076368514
0.5237341404
0.5462416012
0.5716004662
0.6121582275
0.6530102065
0.6837615788
0.7450917278
0.4196101093
0.4207896705
0.4231449427
0.4229146713
0.4167359626
0.4157746275
0.4136804538
0.4113789197
0.4113947298
0.4128367154
0.411190081
0.4138109715
0.4140572907
0.4125651399
0.4109555027
0.4112238232
0.4050443441
0.4040788694
0.4039817359
0.4076506209
0.418394832
0.4228574063
0.4299653962
0.4289654116
0.4310558796
0.4388644683
0.4427964126
0.4420295149
0.4522402824
0.4596391529
0.4745107136
0.4866112433
0.4926852391
0.507402943
0.5235942654
0.5372400216
0.5665709572
0.5965646523
0.6274858439
0.664345332
0.4142451036
0.4145834887
0.4184839493
0.4207989623
0.417505114
0.4161126648
0.4158309976
0.4162181582
0.4134387261
0.4111498454
0.4121289881
0.4107612535
0.4105187196
0.4108208928
0.4117415414
0.4137436908
0.4199768991
0.4208780505
0.4231265604
0.4236359169
0.4200727413
0.4253060707
0.4286750508
0.430215355
0.4261080009
0.4285944293
0.4316898349
0.4396237631
0.4482016369
0.4520198512
0.4528939771
0.457138937
0.4721539164
0.4841875457
0.4944479134
0.5098429032
0.5225749702
0.5405747116
0.5791575213
0.6078048832
0.4178371133
0.416537065
0.4131043762
0.4112296976
0.4075197532
0.41305494
0.4100593536
0.4083273988
0.4106750315
0.4164892101
0.419770724
0.4178454292
0.4195057669
0.4172610779
0.4162547328
0.4136774588
0.412862278
0.413914266
0.4152298108
0.4157158192
0.4167535323
0.4189196229
0.4178837554
0.4227079124
0.4287575896
0.4331995964
0.4330364487
0.4286369927
0.4324455218
0.4348293649
0.445785212
0.4535435636
0.4528708757
0.4616741932
0.4754313908
0.486836432
0.5023049611
0.5250475613
0.5488489121
0.580406024
0.4064559166
0.4047418333
0.4064729961
0.407436112
0.4070794775
0.4094536639
0.4090773941
0.4115745291
0.4122402696
0.4110452587
0.4144332204
0.4149054952
0.4182489329
0.4193707262
0.4248557723
0.4239885726
0.4221660845
0.4210009654
0.4204532151
0.4190724556
0.4213983322
0.4202160037
0.4213420077
0.4195020374
0.423367753
0.4202246339
0.4221262499
0.4307073866
0.4320680894
0.4291514758
0.432361093
0.4382174583
0.4449199434
0.4525878251
0.4499760856
0.4627257002
0.4779907167
0.4921120239
0.5108240379
0.5283862597
0.4153474855
0.416751251
0.4151860982
0.4179777337
0.4169943936
0.4192034562
0.4180735758
0.415580984
0.4168163247
0.4189537815
0.4180726633
0.4191279987
0.4148223671
0.4161584114
0.4159029472
0.4151656984
0.4200786958
0.4225008526
0.4262279793
0.4252457154
0.4251597631
0.4211619214
0.4214629699
0.4211544951
0.4225414217
0.4176527031
0.4115730456
0.4164922664
0.4170508698
0.4203334124
0.4264991038
0.4315942796
0.4312740917
0.4444739929
0.4558133381
0.4687888649
0.4738026205
0.4867376705
0.4960700356
0.5123820889
0.417276794
0.4158856517
0.4190185403
0.4187139808
0.4207312247
0.4164889425
0.4155675766
0.4170589692
0.4147706236
0.4155176977
0.4163597507
0.4152019772
0.414386839
0.414551876
0.4151371914
0.4148557884
0.4149544244
0.4149229894
0.4126073845
0.4151046455
0.4208903113
0.4184085874
0.4221155322
0.424869774
0.4235816667
0.4245754692
0.4271876613
0.4229198454
0.4249546996
0.4295411233
0.426652751
0.4335981541
0.4421358366
0.4460652432
0.4503144205
0.4513679021
0.4600390443
0.465456946
0.4783008742
0.4921236635
0.4194319981
0.4182486146
0.4171945937
0.4154168013
0.4163552998
0.4181244321
0.4174133527
0.4171534717
0.4174798985
0.4179884558
0.4166413713
0.4178160192
0.4170287639
0.4134905969
0.4164585318
0.4149681769
0.4109048487
0.4103841566
0.4124161931
0.4133021594
0.4102970885
0.4123112105
0.4068578623
0.4068079369
0.4084947076
0.4106348872
0.4093577273
0.4142474788
0.4191405344
0.4239435592
0.4310585866
0.4330979777
0.434180449
0.43230496
0.4307414956
0.4372337031
0.4435030033
0.4427206785
0.4593237264
0.4681179763
0.4063349874
0.4109663214
0.4153785462
0.4175871949
0.4121181467
0.4061569377
0.4087399122
0.4105707511
0.4102061797
0.4136260567
0.414845933
0.4137699553
0.4126735917
0.4148812693
0.4123609467
0.4142238039
0.4181708589
0.417272028
0.4111833498
0.4070067878
0.4029956241
0.4055769121
0.4121802046
0.4126444238
0.4170385055
0.4195568651
0.4196784164
0.4205797555
0.4247505759
0.423048779
0.4218686145
0.4199138057
0.4257254035
0.4292646353
0.4325365824
0.440104986
0.4462119773
0.4454279837