/*--------------------------------*- C++ -*----------------------------------*\
  =========                 |
  \\      /  F ield         | OpenFOAM: The Open Source CFD Toolbox
   \\    /   O peration     | Website:  https://openfoam.org
    \\  /    A nd           | Version:  7
     \\/     M anipulation  |
\*---------------------------------------------------------------------------*/
FoamFile
{
    version     2.0;
    format      ascii;
    class       volScalarField;
    location    "0.007";
    object      internalE;
}
// * * * * * * * * * * * * * * * * * * * * * * * * * * * * * * * * * * * * * //

dimensions      [1 -1 -2 0 0 0 0];

internalField   nonuniform List<scalar> 
2400
(
0.2661889919
0.2105996301
0.2935974008
0.5433401722
0.3062765918
0.3642843377
0.4021836741
0.5419704815
0.8172719696
0.4541207827
0.7629242248
0.1504957065
0.6570943169
0.2607273947
0.323151448
0.3376864166
0.3562311489
0.3401297631
1.005192008
1.000759039
0.1873932991
0.7254719004
0.6828007656
0.2775922255
0.4905107459
0.132308467
0.2193576965
0.3492430028
0.5082360312
0.1926220163
0.5535812418
0.2628947866
0.401349322
0.3486902538
0.4711922334
0.2562564393
0.4691005587
0.1782556907
0.7627479511
0.4565718693
0.4078275046
0.3042585447
0.7027330402
0.7931410716
0.2581349685
0.4307336102
0.1911082191
0.3549758226
0.5927295207
0.3726351043
0.441823951
0.2830068442
0.784911213
0.4915140371
0.5414420941
0.4424959545
0.7390673247
0.3391075658
0.8523517405
0.4733560152
0.1827670912
0.8359989095
0.405552429
0.4566966802
0.22384183
0.3641701418
0.4079992468
0.2771522551
0.4727880726
0.0889340902
0.524583547
0.4002225881
0.5689504805
0.2156430012
0.1638730582
0.4053378586
0.3830426449
0.3767691814
0.4733601609
0.289836957
0.2527732936
0.1104373422
0.3400028971
0.3957673672
0.4746320292
0.3672466287
0.1676599941
0.8230069075
0.2932454297
0.3274972046
0.467869934
0.5703558208
0.5037031628
0.4565981215
0.2713772058
0.5158163709
0.2539727612
0.225488994
0.4532461068
0.2612754128
0.2977499126
0.202537948
0.4769119798
0.4006024228
0.2082573441
0.4576511333
0.1112685967
0.5425956377
0.3459668528
0.3031097414
0.6494184044
0.4002293296
0.3621146848
0.6451121207
0.2908042418
0.5122741389
0.3085240535
0.09479613242
0.3805574797
0.7981154979
0.5166010409
0.526840949
0.3627250558
0.3519358146
0.5351428044
0.3525777228
0.44052156
0.4596095986
0.3488527602
0.5237372243
0.862225295
0.573859721
0.6483058728
0.1929742409
0.5231103798
0.116970422
0.4828555122
0.4335577856
0.5913694196
0.2917620644
0.2186914132
0.2481925202
0.3060492184
0.2624324002
0.07340091253
0.6738550987
0.3809765217
0.5976220665
0.3078937516
0.4160996397
0.6037860641
0.4873161184
0.4272484283
0.539230141
0.2990471337
0.6692879701
0.2857985604
0.5614822125
0.1736108285
0.4174694139
0.2826047555
0.5785848504
0.3370674565
0.2883511972
0.8630903618
0.3622618005
0.3068551718
0.4011442818
0.4445746673
0.2989667417
0.238363884
0.8752352664
0.2617971689
0.2963442318
0.2235864389
0.42595572
0.4010761162
0.6227435691
0.2871029589
0.3173877595
0.1755133791
0.5292799048
0.573723494
0.408647638
0.1964044127
0.1415055078
0.3656708588
0.1057612379
0.3278082877
0.2833826862
0.2661580609
0.5066878304
0.277308171
0.3498196809
0.1662217721
0.2647665906
0.4571958217
0.2956967044
0.3847498368
0.2900553223
0.4745168702
0.3638334183
0.3890194536
0.4924434852
0.4370551777
0.3166302578
0.6136732153
0.5498082806
0.5876041792
0.4579874539
0.5990492479
0.4873695623
0.4752907951
0.2873757233
0.3831416085
0.39205829
0.2092559595
0.3821966097
0.30084024
0.2418131446
0.1921841336
0.5578599108
0.2625371487
0.5535968991
0.1472512031
0.40376119
0.2638601014
0.1828534021
0.1915171121
0.2724854198
0.850739719
0.3612344824
0.679116132
0.2630023488
1.845292102
0.1847928538
0.4637149664
0.3322265568
0.3987153931
0.2713610657
0.2512566788
0.5629622338
0.380166418
0.213451008
0.5859110852
0.3250468852
0.08637806327
0.5784320419
0.7479360555
0.4721073414
0.5160993643
0.4954944827
0.3175815853
0.5645621433
0.1009825283
0.2204212038
0.3257935512
0.3375619898
0.3537625127
0.2757245466
0.098115923
0.520440046
0.1574433036
0.3055447159
0.2506891142
0.403449501
0.2095096065
0.2578711772
0.1161268339
0.9146293289
0.3403017861
0.8010161073
0.3506446392
0.3322693379
0.2497800111
0.2660157322
0.294461407
0.3094670111
0.2087640646
0.1386045785
0.3717298397
0.482711846
0.3225771328
0.4074705555
0.4519298505
0.3298534033
0.4743474088
0.5019619213
0.1967635234
0.3330303031
0.2528143311
0.7268577694
0.264619841
0.3237575764
0.2178590897
0.3708526639
0.2177194559
0.2878017452
0.7140048712
0.3509172965
0.1872237682
0.3803001962
0.4599966816
0.4843969949
0.3683234518
0.7948292617
0.3173153968
0.3981491628
0.4663507957
0.5945887173
0.6091889533
0.2601273847
0.2095257117
0.5821460325
0.6733618949
0.2545356317
0.1780594803
0.6054209603
0.4853538924
0.5358308396
0.3969729791
0.3759234437
0.1972878487
0.2878528689
0.2160169058
0.540950565
0.07394418499
0.4027261868
0.18855643
0.5236802442
0.5735626904
0.7492638676
0.5921952621
0.4544645062
0.9719294761
0.2783966332
0.6085459823
0.673114292
0.2642973506
0.5262346135
0.4132933441
0.4269291257
0.2616625082
0.7365016598
0.3048041629
0.6784187881
0.3520894046
0.08342701674
0.286246036
0.6869389415
0.3374230193
0.4919503469
0.3655322838
0.386072913
0.4619519436
0.401584361
0.3210407236
0.2652740924
0.1399448702
0.3134689374
0.3812353765
0.3755138729
0.4914799415
0.5685144316
0.6983468251
0.5139986115
0.2015245003
0.6542845742
0.176786275
0.5844244789
0.4511676851
0.3486978613
0.4483422434
0.7478739543
0.3749610846
0.3183577274
0.2954957713
0.5544279181
0.3094740973
0.2224981399
0.201862972
0.3000668679
0.3818263352
0.1510251405
0.3872535978
0.3004805547
0.5148783612
0.3124507631
0.1269618058
0.7484751788
0.4335567016
0.4000555453
0.271545033
0.1846208077
0.5267883518
0.4498302982
0.1941188854
0.2603977262
0.309085685
0.3748514869
0.2544175687
0.3887629096
0.23394932
0.2981640864
0.2835344838
0.7260627272
0.3108332321
0.4191794673
0.6479348274
0.3560955015
0.3183557507
0.3344241009
0.361461185
0.2926713865
0.7593390354
0.2382096445
0.3315153475
0.3685337206
0.4244688482
0.7054147178
0.3135030708
0.5809666147
0.1668706047
0.4681150284
0.4913469168
0.5141917946
0.3486383693
0.2721392901
0.6138017225
0.1748841852
0.5420885993
0.4013389099
0.1177388438
0.4057006388
0.2888252762
0.3020450221
0.2374446657
0.5287782773
0.4457956424
0.08189538674
0.2110654683
0.5388143106
0.3219971925
0.4263705299
0.2411741071
0.4625479285
0.2957591734
0.5377749674
0.4756830604
0.3704831755
0.3345332275
0.5978989557
0.2910575557
0.3043771155
0.5524250833
0.6895498852
0.2108327662
0.3003234129
0.4952528156
0.7059361357
0.195914077
0.2281280707
0.3538533314
0.3763726517
0.2993665445
0.5656154331
0.3956467141
0.3190311168
0.4691315296
0.2768884843
0.376246904
0.3876959488
0.3316447259
0.7550142692
0.1621846732
0.4832055351
0.3406840932
0.3738647747
0.5005171331
0.2894143394
0.3610728369
0.3769599921
0.4918448875
0.2769039528
0.4246209827
0.3063523371
0.4650333407
0.3365673008
0.2231454088
0.2477088997
0.7786016316
0.4069670172
0.5113865867
0.3546862426
0.1325984827
0.8004465602
0.2304214588
0.2369642837
0.5135758875
0.2343466035
0.4151151175
0.2789698776
0.462306294
0.4147173656
0.3642152154
0.3192115423
0.6134875069
0.4627139021
0.3141162107
0.07912643847
0.6639802239
0.3184132705
0.4606111315
0.8228504229
0.3624135576
0.2534537666
0.3979862269
0.406735757
0.4406467699
0.3335631769
0.3383759413
0.3584898647
0.2327526086
0.329869116
0.2110583028
0.09733738075
0.1262296051
0.4478451227
0.4410975619
0.22193338
0.4313613184
0.4350874517
0.34001223
0.5903676464
0.2672582457
0.5785436369
0.5222940252
1.106546305
0.3412887212
0.09154128299
0.1791141306
0.251659823
0.6289995624
0.273883235
0.4039256743
0.7200782336
0.5806024802
0.4186511546
0.4421769067
0.3245897289
0.5601253912
0.342448492
0.3419610965
0.5115728252
0.2458449123
0.6331040284
0.2090167531
0.3218195107
0.1881188547
0.1763056478
0.3807000585
0.3737686282
0.71554184
0.6361026858
0.4508549986
0.3147104578
0.2819059759
0.4589849361
0.367266417
0.221699707
0.2362836697
0.2374741813
0.2172743187
0.2762955787
0.4631291598
0.5846559936
0.3432059228
0.4820732765
0.8843885393
0.1737256217
0.4339601937
0.4835885686
0.3589479567
0.2673898402
0.1837535063
0.2932615728
0.3385490637
0.5845629219
0.2541880533
0.5539889075
0.7336946207
0.4918304326
0.6682057476
0.3453685704
0.532694202
0.3107617291
0.1414140819
0.7723630486
0.6024550109
0.280569197
0.1640527635
0.212766001
0.3499319263
0.5349099986
0.273954627
0.3164736478
0.3705749692
0.2500236053
0.4515445046
0.4008663176
0.4712696532
0.4001019694
0.4811758407
0.7261636365
0.3473128381
0.2881115368
0.3387668404
0.3726702278
0.421050429
0.234377679
0.3542522398
0.3836133316
0.2235986899
0.134598164
0.4337887799
0.576461989
0.554400404
0.3997274481
0.6642414139
0.5085247123
0.8190057552
0.1471201948
0.6388016998
0.4917596272
0.4498738809
0.3283574498
0.1837860341
0.3618472831
0.3382113996
0.1626399903
0.396558075
0.4691505711
0.3349186033
0.4251677777
0.5001304302
0.3034392767
0.1755970034
0.6541382839
0.2093641549
0.72809017
0.2655232681
0.5500162982
0.4070792862
0.5706451073
0.3079177357
0.1241896347
0.2811775596
0.3515946138
0.609960875
0.5825349085
0.5354265761
0.2295614238
0.4333980168
0.578387092
0.764661609
0.3527283977
0.2129079388
0.6913877114
0.247489673
0.4575222673
0.5160851516
0.3989428449
0.6032933466
0.4612491699
0.2552796919
0.1439907418
0.2384226041
0.4298884893
0.2791311874
0.4356155835
0.1946071195
0.2468679999
0.4270017288
0.3846147069
0.2912827845
0.4537073646
0.4879951472
0.5906655757
0.3311719256
0.140567658
0.2548773817
0.4911275919
0.3494129124
0.5294903032
0.4766503212
0.3989292772
0.5473506477
0.576956617
1.147626853
0.2877911263
0.4687329347
0.2775853643
0.315151125
0.07321308503
0.4705818366
0.1520878127
0.5562307768
0.4168511457
0.2884453312
0.6572355208
0.3924665552
0.3703907265
0.5258535643
0.8141067092
0.318883186
0.5320551788
0.6046608639
0.5753821668
0.08100870294
0.6335021545
0.2619865458
0.4862079618
0.1962631266
0.1302690949
0.3121685005
0.3202742053
0.4200326528
0.4909461628
0.4622101857
0.5793170635
0.08844818739
0.3899846646
0.2422923103
0.4745176595
0.2393340464
0.3752422406
0.4882547309
0.1270655828
0.2052512407
0.2474274346
0.2623975478
0.4980964132
0.7471001807
0.7188261694
0.3175505698
0.5490088678
0.6052124283
0.572488859
0.06841834147
0.5144744086
0.2137507757
0.239776417
0.6074076395
0.3952666637
0.3770675715
1.061828894
0.5288142621
0.2951851653
0.146682317
0.3900146251
0.1824494684
0.2369608476
0.3643328194
0.4855960669
0.5319463652
0.3105213038
0.3579351451
0.2574092022
0.4574606712
0.6116216295
0.2288820919
0.4451427193
0.3803168622
0.2840740675
0.7483058011
0.7710073333
0.3297624956
0.3510399484
0.3950997925
0.4871788119
0.4357956883
0.06820790529
0.4124482411
0.3981301994
0.1429712822
0.3851243869
0.1909498381
0.8444408914
0.543594208
0.2776548395
0.4888844111
0.4772094791
0.3084300652
0.4204771464
0.1686990591
0.2973938978
0.2270502442
0.2530934928
0.4425485857
0.4342384678
3.200041793
3.117168964
2.651907643
3.929635334
3.932332558
1.87264112
2.767159626
2.727731047
2.854970901
4.133016056
2.653193529
2.782652174
3.263048784
3.67287518
2.829391576
3.320022253
2.504602812
1.909071509
2.959794744
2.479504995
2.777678284
1.236657706
2.894049071
2.329401311
4.137681788
3.432866017
2.640732944
4.500541389
2.74498702
2.67082777
2.79831783
2.378978879
2.873632072
4.030261882
2.319003091
2.399217537
1.221332782
2.970978046
1.491289257
0.6490661375
1.111281455
1.134826893
1.619960144
2.232178326
1.945145163
3.199968656
1.564884037
1.676225573
3.322519741
1.968851258
3.890747669
3.336104615
1.15347374
2.529671423
2.988356596
2.623481031
2.42180788
1.929509585
3.140762201
2.654634918
2.065376095
2.300920941
4.611894293
3.957151027
2.869873872
3.823871279
2.102735814
2.140185362
1.406396334
2.260093421
4.167691053
2.861311972
3.313349366
1.503369368
1.372804098
2.904335654
3.329188245
2.96752666
1.814646113
2.257500433
0.5267110767
0.7694858516
2.134055526
0.8378412458
1.565772091
2.335161136
2.718689161
1.588160219
1.676967447
2.335081835
3.533784036
3.573511564
3.177204515
3.709669029
2.230626241
3.535468449
2.596553429
1.296018099
3.39653449
2.735648583
4.397915581
4.108955718
3.463509227
3.362653355
4.355282518
1.386406586
1.907887181
2.061817045
2.18974285
0.9042346398
3.167684013
1.056736983
3.32443839
2.539922272
2.497999656
2.906832666
2.029701642
0.8623645747
1.289659874
1.593445145
0.4124962457
1.647879769
0.5252028478
1.49863457
1.819237847
1.684299982
1.519166564
2.024077693
1.789226463
1.549318044
2.086050796
3.116999092
2.106140485
2.96293266
3.157153558
2.78195579
3.105118894
2.555827054
3.712467069
3.115058657
2.545593046
1.213877318
2.072975635
1.906315899
4.507532885
3.308226576
3.537722605
1.902515637
2.285201679
2.191902565
2.510203061
2.928034737
4.377759186
1.152651868
2.788834841
1.322095889
1.241249136
1.431298939
3.533811425
1.23161875
0.360454992
0.7426637353
0.4215141967
1.350955381
2.48340587
2.470687358
0.57892777
0.7414608774
0.9065592
2.216773796
1.234006867
0.9889393806
2.57339757
3.700218811
3.04383131
2.302866855
2.986573372
1.566509142
4.108442398
3.599613823
3.98197826
4.060761272
3.120914925
1.940819574
2.566350629
4.022694675
2.264697005
3.454838138
3.423891716
3.292488497
1.451329165
3.143653339
1.99361971
3.026181192
2.025270186
2.810005513
2.183709532
3.052731432
1.778325662
1.24380325
0.6012971699
0.7728873921
0.5374916618
1.014293245
0.9006450296
1.493857452
1.497521063
2.031857326
0.8581330431
1.998708795
1.495754675
3.594503945
3.441175796
1.876689284
2.368324738
2.119338685
3.862317591
2.952315152
3.288076994
3.503740205
3.728206785
3.142341555
4.089137722
2.220474133
2.0404901
2.286922104
3.027990673
1.720040903
2.62333223
1.253171744
2.545734944
2.601238084
3.209195372
3.022044863
3.377890652
3.89458655
3.64752598
1.704734016
2.78892573
2.322057946
0.3833939788
0.2655174742
0.6173745932
0.6287448521
0.8978588603
1.44576862
1.007837882
1.149970507
1.435388531
1.22520234
1.428191312
1.759926179
1.264079659
1.988602143
3.597845264
2.630601402
2.365071151
0.8920534687
4.447196686
2.734018707
2.193794512
3.051125969
2.531296404
1.248944913
3.101943422
2.053362578
1.712238415
2.559201203
3.05159793
2.564168396
2.293135572
3.970639738
3.111762089
4.156968507
1.617038295
2.342757423
2.910576639
2.564692078
1.394079226
1.502281576
0.3549980912
0.4083568016
0.2417273879
0.3387114767
0.6355753006
0.6502468015
1.606195502
1.188698643
0.8865696885
0.7637167634
1.273950971
1.928048672
0.8324138952
2.622507179
2.459919754
1.582128015
3.180467988
2.463696918
1.488063493
1.724187917
2.256046816
2.324090244
1.280345134
3.124918974
3.119682048
2.732683378
3.048015162
2.555417211
4.088637909
1.580247261
1.711668049
2.548720233
1.837135756
1.804253489
2.065366769
4.110778083
2.270172565
1.416332209
3.809829094
4.287411413
0.5885978395
0.499315947
0.663815073
0.3573826541
0.4186315982
1.339068907
1.078127339
0.4011540116
1.580731457
1.250724016
0.8772772546
0.5935104604
1.838248329
0.7501986011
1.367555243
1.693688741
1.191982509
2.261881207
2.701763916
1.346599287
3.092921853
2.875697662
2.575263045
2.737713327
4.879003134
1.640805177
1.404508733
3.965693935
4.618294459
3.790022809
1.795102459
3.087072697
3.734326251
4.82736235
2.153311764
2.964472221
1.505027776
2.40038903
1.528324392
2.657899775
0.7972627715
0.2530913665
0.5503430528
0.6706692261
0.5081308547
0.5676202829
0.9213796
0.7457763476
1.169335861
0.4959449651
0.3084356999
1.140133292
1.251928566
0.8221615824
1.023684042
1.208645299
1.047245837
1.752873748
1.864863498
2.912742038
2.463122465
2.294427718
1.906709804
2.340417168
2.828873759
2.468892017
2.677229676
3.986197402
2.623845253
2.040323804
1.795382513
2.169508775
1.977995857
2.097852059
3.00942209
2.72791715
3.382366651
2.497160123
2.876307621
2.534382764
0.08245353765
0.4692970033
0.5568520562
0.3672048177
0.4232534411
0.7257574141
1.01321962
0.5161503795
0.1512738075
1.070095099
0.9815914314
1.008991695
0.9971132235
1.525959918
1.981298004
0.6336957161
3.180114952
1.297726551
1.621612731
1.166143509
2.739652792
3.376950652
1.17881086
2.002455877
3.660468137
3.443769164
2.079837306
2.647203577
2.057233162
3.103215391
3.228480203
0.7039543189
2.412928998
2.895178598
2.939253134
2.984263173
2.245520703
2.873054785
1.631610324
1.479859353
0.2467686789
0.2807531477
0.6177413561
0.6529041737
0.3986790895
0.2849605869
1.072206194
0.5101605979
0.5602551405
0.4778331503
0.4371061758
1.277030384
0.5569477484
0.4741127338
0.2376711247
0.5872148407
2.130982688
1.313478597
0.800176103
1.674697486
2.313760612
2.720496716
1.136815931
2.495255632
2.263186532
3.002353894
2.058274781
2.262965872
2.562487806
2.353487718
2.451288871
2.4471859
1.903560457
3.696854325
2.392351227
1.933927628
1.720004058
4.221595461
2.28358826
2.650318532
0.6354442308
0.09479709208
0.5553211452
0.3163357929
0.4508491939
0.5385638941
0.2928413635
0.3515788903
0.3269478635
0.4496149755
0.9084737677
0.6400426368
0.9021667538
1.492975452
0.5827009836
1.252225845
1.532211203
1.584700994
0.9696906433
0.9794595238
1.285545548
1.702441036
2.064232826
1.244487474
2.251278762
1.422426547
1.417069315
2.055379372
1.524038253
1.944551044
1.60377217
2.883763983
1.126383556
4.784964778
2.513387148
1.704531443
2.93294578
1.965746545
2.936203627
2.072901075
0.1797048323
0.09025167241
0.6913337189
0.523554982
0.4474162288
0.9501769787
0.3362675118
0.4028162381
0.1636736705
0.5916928234
0.2457670038
0.2577751048
1.48421911
1.547791954
0.4904552139
1.29802856
0.9647474979
0.8715271289
1.804103891
0.4277549242
1.586395172
1.702727192
1.938000589
1.247379395
1.260872232
0.6462910653
1.471858209
2.817767948
3.651194179
1.420921348
1.872271227
2.114195701
5.449302004
1.276121873
4.503899069
3.708303266
3.025558363
3.034983764
2.154489909
2.821614547
0.3380390074
0.5315475625
0.2944202711
0.4453253566
0.4733119399
0.1409741303
0.1875106341
0.8276592769
0.3218775962
0.6324601608
0.1411411799
0.223756247
0.2922070676
0.6235653987
0.4858600668
0.839452377
0.6080143454
0.2949777002
0.7861639616
0.9562592743
0.9191413693
0.8128220619
1.026412487
1.348835199
1.181352341
1.700808934
2.152172876
2.283170639
2.682778047
0.8635463258
2.208391551
1.8684117
2.799894355
2.876112825
2.267765777
1.397386143
2.424747385
0.8045521002
2.248994498
2.032181102
0.2032157553
0.5559657974
0.4706738098
0.4478669457
0.6015552293
0.5613825359
0.3698504712
0.5315769084
0.2012971603
0.9857425126
0.2405996771
0.2862423977
0.2550074768
1.142647303
0.5039463828
0.3810085922
0.3440177867
0.4876623377
0.3144786824
0.7560888589
1.698710827
1.642826129
1.230666139
2.166947787
1.383918881
1.377704848
1.959431695
1.842412303
1.535303489
0.8830931667
2.789423151
1.088351657
1.731399799
2.064698451
3.793181327
3.367312616
2.028904028
2.497072086
1.732945371
1.226690026
0.4550939311
0.5000573153
0.1882321913
0.5713232664
0.9537744173
0.7060071339
0.1913454447
0.7317485633
0.3048011031
0.1755923375
0.4399614925
0.3646736104
0.6643722921
0.5518645997
0.5126437527
0.2791801778
0.2077329157
0.1914326031
0.5079375401
0.4475191001
0.165572763
0.3661200277
0.8215094941
0.6645974376
0.8056828318
0.5348732894
0.671511211
1.592936724
1.902819159
3.63460788
1.225069436
1.895188091
1.760098972
1.318010809
1.431126903
2.573241913
1.466036987
2.553247043
3.948058724
2.545682592
0.108280182
0.1910434154
0.4905153789
0.2929415774
0.1973259274
0.4365863035
0.2261869053
0.3043593913
0.2055100685
0.5192986151
0.2564361166
0.4673849903
0.355894238
0.46864286
0.1416369055
0.3552871099
0.2047408327
0.3370482588
0.2580996453
1.030670999
0.9234922871
0.3439887879
0.8120281433
1.436318497
0.6535018735
0.8546251336
1.548299651
0.8824033508
1.893673124
1.493869934
0.959337221
1.208553113
3.417234246
1.802202998
0.9380452272
1.945492011
1.792890803
2.848914708
2.02656606
4.588464249
0.2895271872
0.4323221092
0.1576528302
0.564706771
0.4649125763
0.3986835923
0.8898931766
0.4801473317
0.2715364917
0.1250765828
0.3236092753
0.5070096604
0.297157971
0.8087813602
0.5996124306
0.3987530896
0.3371699696
0.7162516513
0.375363553
0.6969641411
1.562535774
0.8142581096
0.3563930894
0.5558832074
1.121950191
1.131884519
0.6242877523
0.5906994517
1.313383169
1.435814306
1.53297983
1.539782802
0.7919035534
1.495830744
2.537093656
2.212357713
3.31934159
2.477722453
3.671141181
2.743398532
0.2567874223
0.2979375077
0.4801874176
0.4131698649
0.3101206161
0.3706148256
0.842330852
0.3308881136
0.1899976024
1.006543
0.2857361735
0.559993977
0.2862253023
0.2509287586
0.4313125575
0.3099516113
0.5115138141
0.5467072561
0.46145217
0.8121952172
0.3824432855
0.654515916
1.044863697
0.3129601167
0.7573863906
1.037705118
2.709219536
0.8539531416
2.079875145
0.751576976
0.8740527972
1.785303177
0.7693056214
1.038403669
1.617762256
2.18822093
2.265178189
1.550715793
3.395521172
3.17821662
0.3635076796
0.6603797521
0.2603717155
0.7275816971
0.3784194357
0.2360704315
0.9019161219
0.155000044
0.2324489822
0.3923682463
0.422505371
0.410947853
0.2809132019
0.339738472
0.5854555637
0.8573475076
0.6206166558
0.9061644628
0.5233285139
0.4374461826
0.7152026257
0.9586393501
0.3494260946
1.521141963
0.5680452751
0.4131118347
0.6547172565
0.3372272334
1.213328656
1.369856436
0.5859533342
1.221510153
1.037873768
2.522152305
2.183708213
1.248014164
2.052124233
1.904518861
2.420540606
2.539118074
0.2764853687
0.4978158765
0.7179950977
0.3808280252
0.5861109116
0.6347383758
0.2881041626
0.223381973
0.2462306943
0.8315109757
0.5332148141
0.8534138641
1.131839296
0.3375661916
0.7766963145
0.4141657251
0.5569635222
0.3590037372
0.5706844568
0.3666121303
1.242839583
0.6068596945
0.2730068251
0.5365106496
0.4485614669
0.2358117593
0.1271561094
0.6115576011
0.9745233085
0.4353420812
1.046628418
1.630300494
2.522629316
1.326162038
0.9368738007
2.537220913
1.007213161
1.719998814
1.439485982
1.243298682
0.3883771255
0.8559905862
0.1376642398
0.1259692554
0.5320532716
0.4830531368
0.651081467
0.5680527825
0.3367979536
0.3662945388
0.3432068002
0.4543993107
0.2029789083
0.5618579519
0.5521750157
0.3414177051
0.6256994726
0.621890233
0.4792072972
0.3582211467
0.137660268
0.2912375108
0.3524271281
0.4009611934
0.6497782205
0.2686262551
1.308331677
0.7172001769
1.514167672
0.3337867473
0.9355609371
0.2290089231
1.02906146
1.275601959
1.358461179
1.849292984
1.335502138
0.7570697832
2.474618336
2.713879465
0.4110485838
0.3133678809
0.6862693295
0.7353104783
0.4829250645
0.5102178205
0.3049181568
0.2480919856
0.4921645105
0.3822255766
0.3411338547
0.6042488689
0.5520894428
0.2554205208
0.428521655
0.3993083175
0.2396397899
0.4853496825
0.4745967645
0.2109767506
0.1972673215
0.3045046346
0.2774160681
0.552841033
0.4139753795
0.7131596942
0.5738512086
0.7960736268
0.6878935991
0.9761709862
0.5828618385
0.8344539021
1.353328025
0.5968117701
0.7436258565
1.017672426
1.235952284
0.9469648545
1.11466182
1.295633473
0.6780421022
0.9166329645
0.5450003655
0.3268493526
0.3684103373
0.4230625202
0.7063994789
0.3099909047
0.3120790392
0.9846451701
0.4504176407
0.249536869
0.5531808272
0.5785426449
0.2978148038
0.6414704578
0.3688763332
0.874180421
0.4852239678
0.3781348901
0.5813129466
0.4911427472
0.4816777843
1.161420619
0.4051445195
0.4486271684
0.1688176652
0.4020893788
0.4379296296
0.3628417847
0.6359939609
0.479065326
0.4864367703
1.115559502
0.1443787973
0.8072086918
1.053540617
1.012607017
0.6116537592
0.9555123764
0.153948896
0.5808303797
0.3944010008
0.3454591156
0.2790718088
0.6587069368
0.1706847515
0.3367806735
0.2837959369
0.4317888858
0.1573340089
0.2902960616
0.09502444678
0.3782766338
0.3140075408
0.7607030754
0.3562327156
0.2603684446
0.4641405759
0.1642608016
0.3745230452
0.2599430368
0.1928334683
0.6607210191
0.6417134134
1.608026282
0.8190284596
0.2999331665
0.7316842519
0.9003349383
0.2996715862
0.4479646773
1.202847085
0.6320529829
0.3120363243
0.9067698287
1.132681582
0.3368260101
1.826818562
1.729189109
0.4916209978
0.6030106529
0.3820660774
0.3390679264
0.1500411805
0.407573987
0.5984784388
0.3427419599
0.5110494416
0.5599546087
0.3162510607
0.04057365467
0.2292870211
0.3239911697
0.4815639239
1.065503041
0.9158103145
0.3017744342
0.5436994226
0.7156369634
0.2619171043
0.4150087446
0.1373050442
0.3449364689
0.2812814784
0.3750999503
0.1593706777
0.3324491495
0.8167168361
0.3234778679
0.3948998611
0.7428630011
0.7855474121
1.406475811
0.5787730088
0.287260477
1.037347917
0.8554795851
0.8636224746
0.5091803553
0.3671640416
0.2881424284
0.3465459417
0.2464219004
0.1723445932
0.5826348194
0.2617111742
0.3714065242
0.3743496368
0.2695578206
0.3942743772
0.6052554737
0.404221316
0.519396351
0.1095376656
0.5166811425
0.4023597313
0.361684701
0.358755261
0.4161033832
0.8295257986
0.1274536206
0.2038170778
0.5142091361
0.1831148115
0.3193903321
0.7563156221
0.1876223741
0.4558967892
0.1265276504
1.320733879
0.3460641586
0.2793459069
0.371049443
0.8283614751
0.8224591886
0.3291977273
0.4412531925
1.206430528
0.5232337974
0.4190186419
0.5318857993
0.5849390737
0.3112687085
0.1664414724
1.360257907
0.7380929315
0.4253124521
0.3995540816
0.4973504699
0.232148567
0.3856861179
0.4211588566
0.2913464805
0.3152080782
0.2576674652
0.7921504513
0.3611262284
0.2506422668
0.5685517427
0.7532042398
0.5302180445
0.2615504116
0.5283499425
0.7135526186
0.5590409311
0.8515621545
0.7054401951
0.2646321942
0.07557871078
0.2669030482
0.7290488787
0.2153656318
0.6576483303
0.5518537451
0.4771224551
1.176417516
0.8627807439
0.4817907586
0.4063252296
0.2115241789
0.3957336411
0.4081140409
0.3812987268
0.1223553155
0.4124705303
0.4029452556
0.4498645588
0.08456059893
0.3599951647
0.6340155838
0.4429371233
0.2373353772
0.3305244349
0.3530938089
0.7154435765
0.4525252805
0.3874080737
0.5433745951
0.4854967541
0.07008799259
0.135582956
0.6461109808
0.1044568423
0.3002210943
0.1632763318
0.1001608049
0.2330835912
0.1837387369
0.172726839
0.0005168660053
0.48453682
0.5130123341
0.7701425459
0.9528170063
0.5023366368
1.183137459
0.4418816675
0.6404275893
0.4803725165
0.3806127447
0.4617663436
0.4602362093
0.5517951419
0.8413959946
0.2402271366
0.2771229989
0.7577392395
0.3817424565
0.3844227118
0.4647374238
0.3667516443
0.547973203
0.123582342
0.4012859419
0.388258629
0.4449076492
0.4461822643
0.4254510441
0.7593733
0.6407950096
0.07404288963
0.2951040758
0.4962016919
0.169072379
0.5906848416
0.4526516645
0.3410613793
0.4022750056
0.2441338161
0.2177987774
1.34723898
0.5241645192
0.3575106505
0.3618054568
0.1624326473
0.4650781967
0.2621352839
0.7926879172
0.4032512566
0.4710873582
0.4957955313
0.2356646502
0.456696782
0.4807829729
0.2498811691
0.8837444357
0.2584272359
0.2652787648
0.3223913978
0.4845139769
0.5985544326
0.4606144815
0.2492598828
0.4060176592
0.4125560003
0.6387939797
0.4686267674
0.3533935377
0.6115045924
0.247151156
0.484499793
0.3642521857
0.2918270664
0.2544866842
0.2939721909
0.5048859191
0.6961718275
0.9109810805
1.059631928
0.4074434459
0.6134797566
0.4075000013
0.2370893497
0.1597390433
0.3880256567
0.1761403076
0.3366321874
1.686652862
0.2552635074
0.4097342364
0.1035197968
0.2124745503
0.3486626781
0.3252139876
0.1783896869
0.3050874331
0.4900035184
0.1494389955
0.4038872575
0.3603925793
0.3386895948
0.5066334778
0.4851446532
0.3618261715
0.5739388165
0.3855986568
0.3981396267
0.1757522242
0.4301194245
0.3617072047
0.3470621316
0.4812858848
0.5454453287
0.3343959712
0.3977034299
0.458832426
0.411290447
0.3162003684
0.2511840626
0.754885953
0.1346085009
0.2423750092
0.2357402044
0.5344233441
0.9060747256
0.7317222975
0.2839328608
0.2377404733
0.9679059056
0.8440298844
0.4680352802
0.6158795158
0.3018527463
0.3708911716
0.03803606459
0.2565365123
0.4190149668
0.1431405743
1.01142237
0.3663501162
0.2048392631
0.3349073066
0.615919154
0.5254693918
0.3228772216
0.2668806694
0.1692188857
0.9432468975
0.2576044617
0.2859877443
0.3227512943
0.5599378792
0.3420035782
0.6447616553
0.938870262
0.3402860024
0.283712416
0.1177153222
0.7120814305
0.4108772342
0.5870680529
0.4550403889
0.2587667004
0.164790928
0.6289577925
0.3052928047
0.2943833366
0.3178015272
0.6676572932
0.77649325
0.8586543563
0.3869034476
0.4271985433
0.339251295
0.4906490507
0.2717997161
0.3202336955
0.4180920569
0.2352068442
0.6155808238
0.4811024444
0.1128497368
0.3238051542
0.568052763
0.1157251579
0.1211112134
0.8035818608
0.4123533432
0.535781246
0.2819759528
0.5529866291
0.2947256218
0.2708257916
0.4897225758
1.027249455
0.1943002128
0.2664280122
0.4810301613
0.4333513991
0.1140217262
0.7809600268
0.428497258
0.4197191967
1.15792885
0.6413656225
0.2790916353
0.07432768589
0.3035421472
0.3066712835
0.4551554859
0.1634252379
0.3409802524
0.1387445536
0.7024241652
0.2113739398
0.4616126051
0.6695145299
0.2549050013
0.395297659
0.4647209788
0.8298473173
0.7768468565
0.3221007601
0.4139848891
0.8830656299
0.2720523331
0.3207789082
0.4589704481
0.3065678347
0.8344283388
0.1615001465
0.6046362084
0.508849464
0.3210268943
0.6359433693
0.2374635189
0.3958715963
0.4239125714
0.5720395601
0.4132887589
0.4016050061
0.5535809023
0.4155711841
0.4922537874
0.2842791566
0.4197192612
0.317751537
0.2697838722
0.2160257869
0.3482271074
0.4716956536
0.5920278985
0.5814111191
0.2757545943
0.1773906485
0.1592464381
0.5127260966
0.4879430009
0.4680056972
0.3729727088
0.4889950815
0.1165835436
0.200074083
0.738550876
0.3079667265
0.3459358685
0.4766375999
0.4195162285
0.6762081949
0.2100506632
0.2114264916
0.3346149864
0.4010726076
0.7513613757
0.5901360975
0.6628201688
0.3361224959
0.5998647324
0.2996934018
0.2920196317
0.222259657
0.5209542016
0.4879967339
0.6852878425
0.5268109582
0.8226499541
0.1221039324
0.1668614519
0.3383089371
0.3406632921
0.788566166
0.5211041365
0.7216208652
0.413340056
0.2306631059
0.3792476411
0.5078746596
0.2306092858
0.631829318
0.6408165021
0.2473237838
0.5818795257
0.5674378743
0.2851607655
0.2701174907
0.3909840043
0.231274524
0.1735621595
0.1648314913
0.2620849694
0.3739086491
0.4625409662
0.8787940615
0.322878807
0.3963473529
0.2978025289
0.4139404052
1.583878542
0.8415635101
0.3558953056
0.2290520616
0.3191915735
0.351358669
0.2073093888
0.5956381025
0.1704461676