/*--------------------------------*- C++ -*----------------------------------*\
  =========                 |
  \\      /  F ield         | OpenFOAM: The Open Source CFD Toolbox
   \\    /   O peration     | Website:  https://openfoam.org
    \\  /    A nd           | Version:  7
     \\/     M anipulation  |
\*---------------------------------------------------------------------------*/
FoamFile
{
    version     2.0;
    format      ascii;
    class       volScalarField;
    location    "0.007";
    object      linearKE;
}
// * * * * * * * * * * * * * * * * * * * * * * * * * * * * * * * * * * * * * //

dimensions      [1 -1 -2 0 0 0 0];

internalField   nonuniform List<scalar> 
2400
(
0.6066647037
0.5851471126
0.8219784959
0.6102000573
0.7438479141
0.9126730581
0.8489617621
0.4863005876
1.012106336
0.9381982312
0.4682550433
0.4112953168
0.3272691011
1.191057955
0.5717123467
1.258268776
0.3230145485
0.3774054
0.9235284637
0.321968296
0.989709821
0.3779439437
0.867511269
0.4265538618
0.424672268
0.4093829769
0.3235743201
0.9174642378
1.027330402
0.465199715
1.148759716
0.7802452392
1.095283654
0.1264704474
0.7931122418
0.2662459438
0.3405062051
0.6635471408
0.6002734864
0.5087679749
0.71179891
0.3159546627
0.306904817
0.3746999991
1.422115158
0.2336786025
0.3467882889
0.7068948556
0.7792086165
0.6505660576
0.7708327823
1.080716396
0.458159717
0.5022158249
0.5439373099
0.8081100795
0.5646742353
0.6790188324
0.7755005397
0.5861698154
0.4379745809
0.5482360778
0.8435031585
0.3312660687
0.1721237394
0.5457319077
0.4867376318
0.4865427595
0.4467551982
0.7668850952
0.4533538692
1.14976481
0.9007250105
0.478163505
0.5846189229
0.3886160085
0.4785975865
0.8041918742
0.4690187896
0.4907664642
0.4823592278
0.2307549252
0.823451185
0.9921984412
0.5850310005
1.010228182
0.5949796389
1.37306011
1.050013527
0.3768771001
0.7065657314
1.104951719
0.7690604489
0.6176656662
0.6508059006
0.3537347877
0.2601668783
0.3087859828
1.325057938
0.9824371858
0.7153436331
0.8472385996
0.4650943062
0.5845594977
0.7106706121
0.7436189011
0.4193198993
0.231805229
0.4543335048
0.5626513134
0.5957496337
0.8104159621
0.532647033
0.4981486482
0.6850776899
0.821518456
0.2154484459
1.060025329
0.2729085037
0.6346196603
0.3582312581
0.6435290847
0.7715325396
1.120405048
0.6723984825
0.347854793
1.004479362
0.2952879681
1.019740062
0.7103158243
1.021065191
0.896144477
1.244373762
0.3183020806
0.5098001171
0.4572616044
0.5768860667
0.8685762536
0.8028192877
1.063824083
0.3162174855
0.7777547693
0.4497154661
0.4850309986
0.2578584352
0.683757379
0.4321352374
0.5780932192
0.7043047827
1.148771618
0.5155530992
0.3745767267
1.155354424
1.422744388
1.051385392
0.6669635523
0.5688891123
0.3595831543
0.6133173617
1.004020189
0.6862693823
0.912599013
1.028454541
0.7140580138
0.6578809306
0.3535002901
0.419398247
0.3189392674
0.4632730814
1.116153799
0.4235409519
0.387752986
0.5362472112
0.6104795342
0.3787647799
0.3432025664
0.6431517697
0.8480633361
1.042689883
0.1860804378
0.5351149742
1.173366438
0.387893612
0.7081889423
0.9354381947
0.5092182305
0.6584541064
0.6979477882
0.4871622958
1.155954239
1.449557454
0.5820081067
0.5084576776
0.3490267165
0.3085024974
0.4953897394
0.6946639031
0.576036164
1.084701794
0.4197757439
1.159375738
0.904302555
1.303906879
0.7183480459
0.5436635019
1.190492479
0.5598055664
0.5792711617
1.168832005
0.699650206
0.5562653888
0.5603888002
0.5798135979
1.427132691
0.7047110923
0.9524428767
0.5336641323
0.3406660244
0.7271202862
0.5546448313
0.4499191609
1.236972225
0.6664287156
0.6345063262
0.6027160211
0.6167935578
0.446432024
0.3928803079
0.490053025
0.8546070732
0.4886742362
0.9884458353
0.5908660926
0.5550189323
0.363152195
0.649191267
0.2017802748
0.8537435208
0.6866842788
0.6396921823
0.6451255041
0.6309795501
1.021294631
0.919983353
0.373399666
0.7086314176
0.6350752974
0.8113023441
0.4806064854
0.618640512
0.4881316266
0.4090270143
0.8311268994
0.2362663713
0.3292905211
1.248568962
0.9307194023
0.9624622779
0.7516749976
0.3729518977
0.6860800639
0.4896330633
0.2314128886
0.9163373
1.042995803
0.4104595486
0.3580486642
0.5887119873
0.1886209968
1.169363504
0.4560055084
0.9529429127
0.2311388823
0.3578729276
0.1715315435
1.277326604
0.6011025858
0.3166898329
0.5437445541
0.7951289442
1.046972613
0.4899798666
0.8261648387
0.9702723874
0.6694961353
1.124689251
0.7309707846
0.8078622007
0.6562918567
0.5640729461
0.3485686962
0.4084950363
0.6851747208
1.170034992
0.7203459233
0.3303140823
0.4884825167
0.617588716
0.2868181395
0.8480362603
0.6834572049
0.6341430906
1.080206568
0.3921135697
0.683287236
0.3634349117
0.5085241301
0.4547293598
0.5737418858
0.5766859857
0.371859917
0.397810123
0.6812564735
0.2838471186
1.022253557
0.4162573716
0.6344261661
0.5024150638
0.5481590941
0.3048990746
0.3557064175
1.004088637
1.130827831
0.4790639834
0.8292375364
0.7106742425
0.2208302581
0.3340303657
0.7843875403
0.7628153756
0.8147382932
0.5093824924
1.019555644
0.478026264
0.4424450471
0.3549266321
1.013824682
0.3559776041
0.3219896863
0.2296833558
0.5031784666
0.6336102681
0.5515599824
0.3107631284
0.6170303092
0.358429344
0.5114731407
0.6292698091
0.5962118244
0.5024796904
0.1333046579
0.9371263176
0.3631980949
0.9874159334
1.090957675
0.5936425841
0.650219273
0.4317151048
0.518406775
0.3438711004
1.346669713
0.2783024257
0.5574527783
0.1653554477
0.2622163615
0.6629395833
0.7287214289
0.27077173
1.189209895
0.3606290601
1.003146131
0.6573916378
0.7274549798
0.7623375886
0.3973338297
0.9519474772
0.4481952877
0.7806528843
0.3723897081
0.7518887433
0.9349163318
0.7115285318
0.3756784051
0.7583028127
0.4614946666
0.6274491362
0.6009636247
0.4948006478
0.500153593
0.4454229122
0.2430210514
1.019242524
0.4960298391
0.2850752974
0.4379301983
0.4574531285
0.5985490421
0.987993266
0.1631949693
0.4292320323
0.8287471505
0.814704901
0.7882705395
0.3511187765
0.7112964392
0.5883417894
0.4126594013
0.7809801082
1.265170635
0.7114662558
0.5952031348
0.9812125368
0.4216950195
0.5617216464
0.1229262576
1.03072982
0.8365517349
0.2295951233
0.4333301635
0.8517311815
0.2615891376
0.3924679629
0.4516359132
0.4513817894
1.113100453
0.8190670976
0.6407452004
0.7085957717
0.7786172796
0.3608695449
0.5005773947
0.3260753068
0.6312317187
0.789977399
0.6332421339
0.4152662752
0.7711439526
0.1894687695
0.4260860614
0.301192561
0.7450127553
0.1074259408
0.4416152209
0.6624637884
0.4111809047
0.5447800396
0.7981624822
0.5924036717
0.7054963496
0.4178394496
1.305947231
0.3957310303
0.602292488
0.9593778476
0.6419928717
0.3223638371
0.6600788559
0.457202974
0.9718364983
0.2456555546
0.4997536947
0.9259352971
0.373700378
0.717270258
0.7838050876
0.6441242933
0.6451677697
1.106885391
0.3901062696
1.411214746
1.092594176
0.9272150305
0.5539948529
0.4732475142
0.5644293053
0.4506882005
0.3148857264
0.2353648206
1.455193378
0.5108353949
0.5570217033
1.362324028
0.146439661
0.9726321345
0.766112634
0.5263953647
0.5212131343
0.1844819528
0.36287676
0.6507225449
0.6329753334
0.8361053638
0.5321881803
0.3927163056
0.457090204
0.2639374095
1.054938716
0.6689637291
0.6485508439
1.246989701
0.7139763747
0.3828661508
0.8259270801
0.7444949887
0.4881046371
0.5871742847
0.7477329368
0.416592787
1.355069506
0.1996465132
0.529548219
0.268197513
0.5669079073
0.9646038608
0.7226662085
1.137602975
0.9664725146
0.4447854725
0.498437586
0.4500802643
0.8889714587
0.9911969837
0.7764509143
0.865287914
0.2426536766
0.7517824659
0.5932066145
0.7117931764
1.384358957
0.3155398775
0.6223588605
0.4495617575
0.3346376317
0.7786629253
0.8890775463
0.6126749706
0.2782410906
0.3103845843
1.142260522
1.036020522
0.6587367012
1.031907388
0.7330496957
0.8589945127
0.7242251237
0.7869078137
1.0946214
0.664108573
0.4943343582
0.7977831873
0.8025623737
0.6027028659
0.8159687479
0.6798812769
0.2627038426
0.6708207049
0.5040924113
0.3268928349
1.395184198
0.4014786638
0.5085166833
0.971661542
0.7549388123
0.4972970514
0.5336633248
0.979319805
0.643503484
0.92631544
0.6266124878
0.586865638
0.2795739955
0.6699961538
0.6108666885
0.2707411097
0.7327840363
0.3553348269
0.7603892384
0.7973028909
1.129529268
0.5261354816
0.9801750793
0.7522290593
0.7766504486
0.2955142917
0.3209238903
0.6701104779
0.6010586819
0.9109688996
0.3671014984
0.8127689037
0.7370229013
0.5536132298
0.550353319
0.6460337436
0.739982762
1.352700151
0.8258000734
0.9253273539
0.4774433711
0.2787547184
0.2862173028
0.5600455729
0.6395888972
0.3012428886
0.7215177505
0.4218783539
0.4016005216
0.8726481593
0.6999407573
0.7041719188
0.4409819414
0.9977102393
0.4845912028
0.4233194418
0.4405062182
0.5005339522
0.8841221978
0.3915893874
1.012332866
0.5932312165
0.4620155253
0.244920875
0.7083389002
0.8358250005
0.5689768357
0.6695116808
0.9753392118
0.5198114357
0.4602565951
0.4096372127
0.4339857558
0.7951414599
0.6668845381
0.5527176118
0.9625831483
0.1275143075
0.8579422399
0.4265282348
0.5884118581
0.5934376269
0.9939060343
0.609306842
0.5263053764
0.6373226779
0.7301125446
0.4656713065
0.9781763565
0.1258040221
0.7251660213
0.8634827659
0.2275180963
0.07359178678
0.9013436178
1.175916079
0.7382063195
0.9350746096
0.9476643695
1.039845194
0.4348640756
1.55030281
0.6837348987
0.7580591966
0.4929704569
0.3013358151
0.7124830308
0.5152615469
0.431598846
0.2250907998
0.851906264
0.2480727896
0.5598112247
0.2410709943
0.8496829963
0.3955980221
0.5289140784
0.5193260972
0.2700493093
0.8241670206
0.3575376902
0.9822357507
0.2431660253
0.585952434
0.8153805209
0.690947166
1.02360449
0.8471427935
0.7702951552
0.7095678991
0.4284785158
0.2785128844
0.8004469961
1.436845652
0.5862800996
0.5181835624
0.5005920038
0.7569706346
1.277636993
0.1318601192
0.5525518864
1.043052677
0.4987040909
0.6354693722
0.4087149045
0.4936458578
0.1164520902
0.8744644979
0.794288094
0.4729216892
0.436437945
0.3754658988
0.910431696
0.5902479643
0.4887267246
0.6090782448
0.7685419593
0.7426290779
0.6136070145
0.4232735122
0.4861866003
0.3280584075
0.7456190014
0.7274625376
0.5394271354
1.054810207
1.243844241
0.8369468825
1.113262254
0.3750677272
0.708494213
0.8508284847
0.3366341138
0.1490034919
1.366465261
0.808282745
0.8108325388
0.4766539825
0.8945660413
0.4595812994
0.7344989496
0.604570195
0.5636039532
1.01886608
0.7573162141
0.9868239404
0.8329821833
0.8045739184
0.881724682
0.7931036289
0.366428068
0.7251297928
0.7359834483
0.713893972
1.035433471
0.8702462071
0.6172650699
0.3597128395
0.6858130623
1.032978061
0.4784911149
0.7773042866
0.6752152346
0.7676790052
0.8149554672
0.9018485414
0.9954458064
0.6617260153
0.6324239974
0.5643862307
0.5956372214
0.9984548437
1.157990112
0.2969316444
0.5714591083
0.9063160537
0.7184749287
1.083098139
0.9451668363
0.6880251026
1.136100738
0.9535115022
0.5744668455
0.8140344841
0.5569287964
0.4071996153
0.4999161255
0.875433142
1.068789008
0.9628998823
0.755334882
0.3141373122
0.5620760372
0.5211654277
0.4965247115
1.138237805
0.2029235138
0.5268857591
0.375606656
0.5054356072
0.2458594323
0.3050010192
0.3286753166
0.2396044819
0.7268799746
0.5439637798
0.3546051778
0.1426407818
0.1298281061
0.4604689849
0.2769434918
0.5800056671
0.6177628642
0.5996233082
0.723311045
0.8437130374
0.5498519458
0.5649630406
0.2403432516
0.7728706927
1.16123148
0.3194807753
0.5561701296
0.6046455667
0.4365618903
0.1467540497
0.3665525548
0.6631809481
0.7212783247
0.1658633899
1.298946415
0.5741989427
0.6012249803
0.6585768697
1.077256521
0.5563582052
0.4078540839
1.554022091
0.1427002219
0.4001424054
0.792503149
0.5623855742
0.5584088861
2.424773439
0.517024304
0.4758966638
1.0153069
0.5621764456
0.5484022467
0.3461396994
0.4037349098
1.1207566
0.9080798459
0.02353293424
0.1128949817
0.6857650907
0.1450410948
0.2804188704
0.4335308651
0.9423621744
0.5415608202
0.2657177345
1.232124825
0.5080044136
0.1707254354
0.8127597157
0.3378561795
0
0.7100121563
0.1369709462
0.572258745
0.3643028473
0.3398124722
0.5094273632
1.599652854
0.08113014817
0.5115272515
1.316563767
0.6184244674
0.3893511884
0.255744541
0.2327796995
0.3876838456
0.114560387
0.474743271
0.4450032533
0.1511581427
0.1078263651
0.3169502871
0.7543225136
1.284814527
1.360076409
0.2552367784
0.125137575
0.3398997869
1.176432151
0.4850693935
0.146549987
0.567235238
0.3536171806
0.9739807377
0.4398532804
0.4319988403
1.000679513
0.3468175419
1.51070966
1.604375112
0.8005427339
0.48631069
0.7345948214
1.213697347
0.80396138
0.2682221908
0.6314219091
1.141795265
0.8514460475
1.337971552
0.7321974506
0.2298356728
1.022346374
0.7192181913
0.6077672015
0.911402211
0.5631050415
0.2921822869
0.3413851667
0.1000635519
0.4804319871
0.6963255126
1.408381616
0.2023329662
0.2656220147
0.6754659472
1.787147539
0.5763292808
0.3827066492
0.3650606618
0.4061830657
0.4588984901
0.6042852419
0.7700342653
0.1616378159
0.5651996711
1.013365441
0.5546064677
1.083514863
0.8792560819
0.2968721275
0.4091258562
0.6738564077
0.4235545017
0.5134831544
0.2915573587
0.2997853095
0.4797004814
0.1864736015
0.3426238273
0.9140690439
0.7089129068
0.6004781199
0.316058343
0.2477215288
0.8587726811
0.62642283
1.220832048
0.8854726157
0.9022640221
0.3266053232
0.7931871739
0.607125466
0.508053275
0.6461266952
1.006182082
0.2849460798
0.8060826242
1.195401149
0.6680738074
1.065595002
0.3870635403
0.4770172193
0.428354856
0.4941598115
0.5669933407
0.349311694
0.3789639185
0.6484855953
0.4223747191
0.4004846146
0.6941872294
0.154806886
0.6895089076
0.8937875126
0.7510199168
0.9536046957
0.7386004364
0.6472911302
0.6050966731
0.6169177146
0.1610753469
0.7450524627
0.8485431724
0.367798528
0.4188213607
1.088153021
0.407715304
0.1381595597
0.0404341073
1.301594155
0.2624338302
0.551512369
0.1622790293
0.3673654825
1.177719837
0.7735392661
0.7182767949
0.7008131954
0.969424607
0.7422270922
0.2876539455
0.4129672968
1.134257282
0.8511157535
1.023578591
0.517070151
0.4807623912
1.978407702
0.4941022451
1.501317173
0.9044013045
0.07347950841
0.2309779251
0.3064170302
0.5041675994
0.636569928
0.8961328846
0.363483158
0.5241222172
0.2527337788
1.204878668
1.395688934
0.6624685403
0.7618948179
0.7428697092
0.877427521
0.2307285101
0.5179101067
0.7166318627
0.5032946816
0.7877475398
1.348471943
1.013994702
0.2631673632
0.8744555352
0.8006390524
1.181760411
0.5963827449
0.445690225
0.3249948372
0.8646858097
0.4700443608
0.518372552
1.621081133
0.6594877909
1.206038613
0.9773076611
0.5250269344
0.7148654206
0.07526647446
0.4330718531
0.46353791
0.8522016323
1.261247476
0.4042498122
0.512272574
0.8079770995
0.4150684605
0.7781425519
0.7325666398
0.6140139856
0.154251901
1.192683953
0.6842681381
1.100259037
0.23318221
0.3322079226
0.7529914582
0.2158373217
0.6129917238
0.7264879542
0.6661958279
0.8284738438
1.248961755
0.7641268021
0.8583202952
0.5392995248
0.1969994103
1.464567632
0.5315662288
0.6316522855
0.315649301
0.8456027574
0.132544097
1.239346848
0.8408831086
1.095837857
0.6986762057
0.800763457
0.3600770774
0.5501039475
0.2862284363
0.3257447936
0.9465223833
1.103576798
0.900565717
0.5212323417
0.1494686243
0.3166756791
0.4113058415
0.3538124324
0.3005957427
1.255734743
0.09104343735
0.2520605681
0.8777433914
0.7506638777
0.9646779748
0.8870690336
0.5756741103
0.7562573923
0.2200919809
1.251059696
0.3855461561
0.1907923464
0.4074675904
0.4024877945
0.9905339429
0.3798927202
0.6382271824
0.4218823596
0.231538196
0.1198935241
1.025405145
0.7369887819
0.8542799798
0.826970383
0.222740644
0.4661045749
0.9684655389
1.087631354
0.4683140351
1.25532
0.4253084479
0.7301220392
0.7321733812
0.5577613434
0.4642426059
1.085276529
0.8413124585
0.3524616424
0.6921747859
0.46032275
0.5280817271
0.5927361591
0.506220255
0.70867633
0.2956998037
1.141204235
0.382066386
1.096094307
0.4657323142
0.7475624372
0.287174103
0.5331966429
0.5607200415
0.1144774595
0.1854506225
0.4427043781
1.225050925
0.848803989
0.8239895685
0.6936730379
1.557860616
0.9482524696
1.311019972
0.1827376973
0.5430063946
1.360932482
0.5256014821
0.6912295256
0.5042112917
0.09512514726
0.6413001354
0.6492851622
0.462030933
1.258282589
0.4997394918
0.1809256403
0.267186436
0.3057115546
0.3208609625
0.4176672764
0.3420662852
0.5001404142
0.9903028287
0.94797614
0.7988595882
0.6626800997
0.1392117278
0.7131909346
0.4732109009
0.1503598545
0.7353759938
0.5811406447
0.6294991344
0.8719076939
0.3662708987
0.6381068653
0.6425170148
0.502029994
0
1.02980941
0.07840880161
0.4157880215
0.3656138149
0.5856617789
0.6023049502
0.3335934104
0.8115570012
1.612484541
0.6696287372
0.6158489712
0.572158841
0.5413328792
0.6168109681
1.061950293
0.6986308785
1.017317858
0.1152873325
0.7010285639
1.293573504
0.7224986885
0.6422792679
0.5856168649
0.444319322
0.7290121153
1.052878063
1.42446327
0.7929123364
0.9370434755
0.4750624482
0.4288098009
0.8871861733
0.9561367626
0.7943080396
0.2316820413
0.2836939232
0.5491634453
0.1697250372
0.3663967247
0.3004461359
0.2208492122
0.7166925927
0.4256025501
0.3950660942
0.9299505389
0.4469706034
0.5119374001
1.027305095
0.6889783567
1.602581084
0.4424301798
0.2815098478
0.6783607232
0.4193438315
1.1241512
0.741167168
0.7515277569
0.5783192955
0.2641462401
0.7212024507
0.8205907829
0.5547819555
0.8695730496
0.7352629104
0.6476960825
0.6917261249
0.6662217932
0.6338091541
0.2565421902
0.9554156872
1.068321708
0.3194423757
0.713127202
0.08705927522
0.4387680013
0.4099465258
0.4173040332
0.03182629433
0.6834559914
0.6995782981
1.112198266
0.2441272816
0.5581640856
0.7078549126
0.6590084606
0.8627840277
0.7146746891
0.7032819193
0.2673740571
1.497999793
1.488046059
0.8114577105
0.6279352331
0.3716683607
0.3044477792
0.3687402705
0.3371513831
0.5868204645
1.098233651
0.4805660731
1.372580199
1.121638079
0.4122316351
0.4625813677
0.4259435307
0.7151966847
0.8291839299
0.5459657122
0.7333672784
0.8553619639
0.5227041439
0.8432129687
0.8374183146
1.138568072
0.7779591841
0.9921265584
0.8122541027
0.5441871791
0.9636308207
0.2487835171
0.7505708283
0.8876772225
0.8121674404
0.2095899821
0.3559407193
0.6394434644
0.6771819022
0.9053813968
0.4073098144
0.2857153426
0.4054161269
0.7773722472
0.6130060915
0.2042315271
0.3687601486
0.7439326503
0.5976313772
0.5241687328
0.5526788677
0.5967743634
0.8645475985
0.4606749926
0.5062524155
0.7833842541
1.08753874
0.3909646031
1.021779797
0.3399526612
0.6503286209
0.3182746031
0.780930502
0.2756904172
0.9884356771
0.7622981734
0.647759355
0.8244898531
0.8461681604
0.6142190747
0.4861992941
0.1858799037
0.9759797093
0.7431500055
0.8603453893
0.6100208533
0.7627610317
0.4225278084
0.1287547054
0.8108736983
0.6283318709
0.7446234854
0.5578072064
0.3903461139
0.5192707055
0.3016103646
0.4371068297
0.4658915186
0.3404732648
0.3038599286
0.7404555458
0.4837133021
0.2680520464
0.3713413183
1.083757974
1.200641092
1.023151963
0.6892148445
0.4585164408
1.01922489
0.6892224739
0.680652007
0.5365131784
0.8455352029
0.387182798
0.4893298438
0.6477871386
0.3850247582
0.3308820891
0.5283871752
0.8355257336
1.566961383
0.5782850305
0.872756392
0.4805999897
0.6304192096
0.144449334
0.3298170627
0.2994819788
0.4987196967
1.123083875
0.7515700799
0.7236832314
0.6056903287
0.9877978416
0.4902763008
0.8656427041
0.2722759153
0.3796172201
0.6315834765
0.586051147
0.8108967583
0.5775088142
1.103953773
0.8071582316
0.3015482349
0.5337595344
0.9911791846
0.6463572253
0.7523542394
0.7838499825
0.4690102737
0.7182267222
1.236041621
1.044128014
0.8482288222
0.4158653817
0.5700242715
0.3862339788
0.5755961078
0.9647431013
1.073017304
0.7088266772
0.5400008224
0.9369273803
0.9974777396
0.4882154457
0.792554606
0.2222289396
1.073742505
0.8175965623
0.4814435822
0.7626047129
0.562667096
0.4347103251
0.8463626347
0.6998448877
0.3074137424
0.5175094378
1.042917025
0.6724293564
0.2584931316
0.1463038199
0.6246788832
0.3315666123
1.140427196
0.9136870288
0.1421968227
0.7392124308
1.040951127
0.2827920853
1.300871583
0.270785591
0.389514045
0.322162081
0.2178236475
0.7374334183
0.2381544969
0.3067557527
0.5970698821
0.1179651226
0.4857837118
0.5927259481
0.3428545465
0.3348913258
1.705544546
0.269066524
0.3109026147
0.7174942741
1.452859017
0.8795746555
1.186056934
0.7407746824
0.647578691
0.66670535
0.374051769
1.201522702
0.5082099314
0.9548139385
0.4898199122
0.5643465419
0.6969996239
0.07974356222
1.413326517
0.7858220682
0.6935598689
0.8344074275
0.1314287165
0.3497355903
0.02637578049
0.8267218848
0.7374902445
0.3161749682
0.7661189459
0.5094952035
1.18281568
0.9184349613
0.6749050569
0.1362346395
0.282383639
0.7787369803
0.6315402158
1.654094938
0.4356708568
0.3674385799
0.8932831458
0.399976841
0.6335252153
0.5508234169
0.5448444852
0.8711225616
0.7204739946
1.305652911
0.9936121443
0.4448936027
0.7575293646
0.01327804886
0.3422350899
0.6446787449
0.650665912
0.74361503
0.3272350887
0.06918340829
0.4136934265
0.6270124172
1.181294962
0.4081977106
0.417265205
0.744627564
1.005073623
0.3387630477
0.4840748217
0.5262871879
0.3693483109
0.2606400093
0.3622009706
0.759454959
0.4878958002
0.3758128206
1.352059619
0.4696475912
0.6961514577
0.8393225468
0.8355269585
0.5304011436
0.3513000322
1.550819046
0.4680690729
0.6498249582
1.127657037
0.9156427118
0.9550361902
0.3738615622
0.3815405029
0.5807130489
0.8682797833
0.5024098761
0.5228666985
1.058970024
0.600878859
0.2160706496
1.054805334
0.4054490719
0.6489823091
0.9300477367
0.7669433129
0.6956534227
0.3014173779
0.2960762731
0.1010432756
1.0955631
0.502483093
0.7758481595
0.4602405666
0.4801798231
0.8294804784
0.4344060394
0.9123944365
0.5572791128
1.972325517
0.5055715112
1.034182262
1.290666113
0.2476522608
0.4841674823
1.382097165
0.4815315315
1.348939995
1.561750427
0.4947086767
0.5460227557
0.2650621847
0.1721267459
0.6077276035
0.6218489312
0.8541241724
0.4469155836
0.8365133239
0.9616716057
0.2068997516
0.7538525446
0.829481059
0.1042433379
0.7224531437
0.1235285867
1.401677723
0.4532683632
0.5955581257
0.618581836
0.3843615641
0.9717672718
0.9881080631
0.4290544692
0.7869450637
0.4564010544
0.5456973608
0.8124665258
0.4475047063
0.4299142651
0.3508148878
0.5739346564
0.1008867421
0.6000529544
0.2130433331
1.384237911
0.4008091503
0.9474928541
0.5247867685
0.352546331
0.3569851871
0.3244084367
0.6081393762
0.4057231805
0.5089046277
0.7302305922
1.496044661
0.3567643924
0.4221562477
0.8093846922
1.028439253
0.4499501644
0.6923980611
1.53147954
0.5769801522
0.9898138117
0.8102825915
0.8032405341
0.6822565981
0.5113463362
0.1792420248
1.099010241
0.7567624936
0.2406975946
0.7318557458
0.5501552026
0.6244508106
0.643267324
0.5660217452
0.3723483731
0.8571613129
2.393843775
0.8753341711
0.7203876184
0.8224042253
0.4787977288
1.242095012
0.4101342059
0.5564842451
0.9918406146
0.5298403635
0.4070272333
0.4766744813
0.5945508507
0.2640324598
0.5682743185
0.7942088863
0.2350531741
0.6391959787
0.8439925124
0.3041080718
1.146876743
0.09336937812
1.553252119
0.7297451092
0.08643300707
0.5836314274
0.6223892561
0.4027103508
0.5835028692
0.7297916065
0.2627765771
0.7967006561
0.6187589217
0.7276885967
0.585956834
0.8626021444
1.332124177
0.3724380246
0.6077719317
0.7050639083
0.5738028635
1.06370035
0.376195051
0.4604751728
0.6030404803
0.5402301838
0.08620558116
0.2428958635
0.3292691198
0.6356093811
1.072035396
0.4833930253
0.4496661094
0.3355488202
0.2191191991
0.8312379565
0.7141293058
0.2472401294
0.6625488958
0.6825915469
0.3670947613
0.5770644463
0.572286388
0.4636450133
0.5914154636
0.4781565076
0.2445800647
0.4043873338
0.09551786545
0.893389698
1.158471394
0.7275202831
0.5102378669
0.8146048855
0.7234656947
0.6106361941
0.7172786894
0.7062734453
0.9319093358
0.9312788859
0.3692798999
0.6922290163
0.2563694932
0.643178298
0.1432549575
0.5791614038
0.1676203166
0.8333990116
0.7311592713
0.2746452123
0.9430805885
0.3114654893
0.6858000863
0.2979497452
0.307183941
1.060925696
0.03569512429
0.5770978543
0.2542862119
0.4570674241
0.4830433665
0.4737329711
0.7142039408
1.13259182
0.6241195577
0.2201519968
0.2986166452
0.5150938698
0.3930895503
0.5421179444
0.609962068
0.6797668543
0.69125773
0.6331421526
0.6701173876
0.4910985743
0.2523482014
0.2434651592
0.6643491617
0.4911641473
0.7282203409
0.8282699287
0.7705262338
1.082074279
1.253285979
1.345388709
0.4418400992
0.4362669968
0.2365078998
0.3765411431
0.5949373854
1.08989908
0.5896753126
0.6649715552
1.395419528
0.68002352
0.4028398791
0.8522347796
1.262728194
0.5900953284
0.2682762934
0.8804489452
1.177084777
0.2008618197
0.8932889472
0.1848818662
0.6012409091
0.8831766041
0.3501560985
0.8779709062
0.6704395137
0.8581973252
0.7330932614
0.3187340813
0.7089591765
0.5748114515
0.5628334947
0.5288785233
1.181886076
0.5093442154
1.147481244
0.9255753759
0.7091669531
0.8512654264
0.8875878953
0.6916500346
1.345146332
0.9278158837
0.1178398561
0.8053591444
0.417377946
1.048731899
0.3868199725
0.5203421058
0.6304483598
0.6150781225
0.2625098786
0.7965697679
0.6865795906
0.4249646193
0.6149321418
0.7236866635
0.6300475411
0.4518865773
0.753889735
0.5124340966
0.6316519613
0.6081711774
0.5269864448
1.119392652
0.4997826625
0.5862622966
0.8504080047
0.1119407395
0.2455729715
0.7792030025
0.6883101817
0.4074622263
0.7289303776
0.7473968991
0.659558104
0.2309930339
0.0488164014
0.2696785095
0.4836364789
0.8019356418
0.4793141592
1.191306656
0.3643917003
0.5543091078
1.402856531
0.2348964254
0.4983813908
0.4575071629
1.364100134
0.5284794346
0.7706791978
1.173222035
0.520238321
0.426329983
0.5063733678
0.6890296291
0.7882751202
0.7708883539
0.1529971415
0.7658688378
1.051243973
0.8899948907
0.3113281301
0.3773450798
1.205592724
0.8322712583
0.361636197
0.2363116925
0.6962376298
0.5795944215
0.5164878913
0.5998593693
0.6546508054
0.3563455083
0.7797008874
0.5310668882
0.5202396497
0.5479123044
0.9801039648
0.4303674903
0.2840182848
0.529002431
0.9783183017
0.315526022
0.4817786731
0.4290630808
0.4219736177
0.2995853053
0.7597590136
0.9213490782
0.7362726526
0.3579768085
0.5561950013
0.807980375
0.7984990231
0.7812963448
0.6672356992
0.6034678927
0.2176361371
0.3876209477
0.4169200168
0.4547890049
0.7808702859
1.082788982
0.5454489902
0.9431554977
0.7660274787
0.2729237726
0.4727528549
0.5789751439
0.3906507115
0.2342862169
0.565344467
1.027281972
0.5950526952
0.5687848159
0.9326142806
1.059805144
0.72911167
0.4345519432
0.3576298746
1.16474885
0.3778185222
1.222629131
0.6344156322
0.3572755398
0.5514210931
0.9632209046
1.466437023
0.4967152222
0.5320869259
0.4967041911
0.782412
1.023333774
0.4739995841
0.6194773811
0.2235734289
0.3797628533
0.8976904862
1.027089586
0.8567744798
0.9125103646
0.7949084692
0.6291579783
0.6532632251
0.7127446754
1.463755697
0.9966207068
0.5340056317
1.557719078
0.8869391299
0.5752729826
1.00296177
0.766453101
0.9010022176
0.8243099714
0.394071655
0.7936306612
0.6370608842
0.3774586861
0.4342037264
0.6120636501
0.3895799561
0.6868663933
0.8765183878
0.7411571454
0.9172821087
0.528140482
0.836768227
1.099654457
0.7822400777
0.4366836223
0.4455120761
0.4142804516
0.807859167
0.6934805332
0.7668654062
0.2847430347
0.2703620682
0.3822692083
0.4233558258
0.3220072383
0.4909192092
0.9129485399
0.6374313859
0.6794935702
0.6987550544
0.8649100798
1.192005269
0.8803602903
0.7812102752
0.5461593778
0.9585615698
0.4573567413
0.6430868247
0.1222038724
0.7769853455
0.4820331248
1.340501068
0.6715721326
1.350482673
0.3875220016
0.8470752408
0.5015545681
0.901057211
0.2179843562
0.9930094336
0.3827916704
0.6837749021
0.8758648194
0.3259518345
0.7147965087
0.2218690259
0.7362459667
0.6867002588
1.269630508
0.4156225337
0.3023134816
0.7219149255
0.6038376168
0.3503835486
1.075851547
0.9476722747
0.6955301667
0.8276225136
0.365681616
0.5018556391
0.2749414709
0.6127462018
0.6807963877
0.3604368285
1.04490735
1.095817985
0.5492478423
0.6613754848
0.0131562552
0.4781523914
0.642726004
0.5221961002
0.6600249995
0.9701468325
0.7497502679
0.5943806814
0.9500692266
0.216924152
0.4533625722
0.8227444094
0.7304046826
0.5261031485
0.5301444906
0.5897620267
0.5694268387
0.3497922079
0.56733123
1.179136722
0.5569733284
0.6898215034
0.4755300852
0.5353943992
0.7414117952
0.3760012683
0.6385308555
0.7270416159
0.7853257132
0.1613144262
0.7041431563
0.6559811103
0.527406187
0.6910048886
0.7636269524
0.8470085331
0.3665024347
0.945801713
0.2410857122
0.5771879472
0.5984169671
0.9104024525
0.805299758
0.3477811597
0.9655102785
0.2296373944
0.7231051541
0.4803918771
0.3096954074
0.6423930232
1.398771226
0.3922080609
0.7302702204
0.5793060459
0.9578023059
0.8138159139
0.6221487881
0.3535319983
0.7109749242
1.13312719
0.7990123057
0.64287231
0.6783422073
0.8466554684
1.40154557
0.9468901249
0.8905825807
0.5444551354
0.7017091176
0.3780452837
0.4191434511
0.6306293367
0.2748263086
0.3435010178
0.09672409895
0.7991229132
0.8423099408
0.2316591565
0.925473613
0.5842590506
0.6577679774
0.5781087023
0.3949943006
0.3468761055
0.2051696195
0.1380601103
0.2624992552
0.8972224911
0.6956787457
1.38600842
1.011677922
0.1713047922
0.3763626351
1.232046739
0.6830595139
0.1437642016
0.514256115
0.4020024445
0.3878407614
0.4792569397
0.3590849246
0.3030172582
0.9425742912
0.9975475522
0.1841289665
0.7359298097
0.583591756
0.01716055235
1.001874017
0.7163280575
0.8058785337
0.6447976216
0.6818686806
1.058895534
0.6605661081
0.002137147202
0.4318322917
0.25335157
0.7195139731
0.8364007821
0.7055655705
0.8741220948
0.9909365652
0.2743986453
0.1801453253
0.4305397182
0.7854117067
0.3346526162
1.136625219
0.148753595
1.619979073
0.84495731
0.5000078627
0.3844447794
0.3584261587
0.134140357
0.6247508649
0.6749237563
0.354943255
0.4388955073
0.4346303318
0.2859419645
0.2696071786
0.5920737401
1.467371083
0.4444260887
0.3729003179
0.8044870823
0.9866526143
0.9232949166
0.4889690132
0.315953542
0.9388268167
0.5730572239
1.357188205
0.354814079
0.305189078
0.6047602248
0.3671993621
0.5622093613
0.510566762
1.063985416
0.2384984595
0.5466485229
0.9114873847
0.9840757124
0.5112941666
0.8926880849
0.294834052
1.082894807
0.8105788037
0.6378096026
0.5141365663
0.5852141225
0.402119287
0.737455023
1.081757889
0.8585019645
0.8829578094
0.5156447468
0.7254160409
0.6827103792
0.361346387
0.5946646786
1.493714129
0.6463633054
0.6812553431
0.4246216428
0.8018894836
0.797903017
0.8106375973
0.6757787125
0.3698652284
0.8479653391
0.4982379039
0.5188506154
0.7234660801
0.5830180861
0.5412495099
0.8260869414
0.5829234138