/*--------------------------------*- C++ -*----------------------------------*\
  =========                 |
  \\      /  F ield         | OpenFOAM: The Open Source CFD Toolbox
   \\    /   O peration     | Website:  https://openfoam.org
    \\  /    A nd           | Version:  7
     \\/     M anipulation  |
\*---------------------------------------------------------------------------*/
FoamFile
{
    version     2.0;
    format      ascii;
    class       volScalarField;
    location    "0.007";
    object      linearKE;
}
// * * * * * * * * * * * * * * * * * * * * * * * * * * * * * * * * * * * * * //

dimensions      [1 -1 -2 0 0 0 0];

internalField   nonuniform List<scalar> 
2400
(
4.23327126
7.821851538
8.23898133
6.68950581
7.78988351
7.68824745
9.253154873
8.632113916
7.705487699
6.877650619
13.54539502
4.118132869
7.543584449
3.247926892
8.181155868
5.742061192
8.831429318
8.967611801
13.00818399
5.615005696
3.808629558
10.51484365
8.817113695
7.108786222
10.06195923
4.760970648
7.566443204
11.28628945
10.25664779
6.63320664
4.418060192
8.839649729
4.857154155
8.49531534
6.553844854
7.10013852
10.45652607
3.712172844
7.473641554
10.72829862
5.969227384
9.951707586
8.829168217
10.77123351
8.807844792
9.088189862
5.445568326
6.377597066
10.38438885
6.341761079
10.42157577
7.113882871
10.94482808
6.327739438
8.346908463
7.987658369
9.992806227
6.213017026
10.23193596
7.697045195
3.367760739
10.80906692
5.78423461
6.792047091
3.557907301
6.565904592
7.421026255
7.391592867
2.377945506
5.025345716
10.70571117
6.444907112
8.329835682
5.417615846
5.633915165
8.919232301
7.687119546
8.113736787
14.38976969
5.674493597
7.831621447
7.093639731
5.175833715
8.08866977
10.26392756
7.689982254
4.974313557
11.78197186
5.982017366
5.738920297
9.5527097
13.68868603
8.008952133
7.188474078
6.61540446
15.05820911
4.725744771
6.867505718
4.910036923
6.301719218
6.4761462
4.361416873
14.6068875
11.29569378
8.889804328
7.082706683
6.129697071
12.61139618
7.223236955
9.36655456
7.482269978
6.307482752
8.081648101
14.63516365
7.987121285
9.632936688
6.489231769
6.220819855
7.755526285
8.139983619
6.360409076
7.669794097
6.49762796
6.381795915
8.145809691
6.228280468
6.345086248
7.387653517
6.677328951
7.991936931
13.18498396
9.149426725
11.29426845
6.622199178
13.58617328
6.140992791
6.051340613
10.46827723
9.386795164
10.79221921
5.775048048
5.662265664
5.697336116
7.011708143
3.507280475
12.4580644
8.747823127
6.104329815
9.391602872
8.342576399
12.46097061
6.055511068
8.839082703
8.21998819
5.435888219
8.071572091
8.015690474
9.733712237
5.963296392
10.56432357
4.744037489
9.542620491
9.458091592
4.645741785
11.25625326
8.651376403
7.25766004
6.311816029
9.581857751
7.805225817
7.447667378
13.89832147
8.41811081
3.127836552
6.500188833
6.021723155
5.860000439
10.72359593
5.005426138
5.61013218
4.648752267
8.509582911
7.116794908
9.583533155
4.511845457
2.780695224
5.417988062
4.635419876
8.135762676
5.431728253
9.582729454
9.201581262
4.718459037
8.719697461
3.988871962
4.412161888
10.41316793
5.871709425
6.987177734
8.447191934
6.361109548
4.090254548
12.19621388
8.218139176
7.97393573
7.440981895
8.208884224
8.918519496
8.376272123
6.137970944
5.444805144
9.543829921
9.110424317
7.176849013
7.834279401
6.699449157
8.056973227
4.947030131
10.30693405
9.973051602
4.682655844
7.83872272
6.961364179
6.99003079
3.665435527
7.956449108
7.244486305
9.98119337
4.579692323
8.749254449
7.494754911
6.846018034
7.722400684
5.460558122
18.61127988
9.174416872
6.158299236
2.593002177
7.796288172
6.353811179
3.621762871
11.93373859
7.854960192
5.530927985
9.402016917
10.90559774
1.528845357
7.498074311
9.082905947
11.49050216
8.253562989
10.11633083
5.127230853
13.8926512
3.538880728
5.023457828
7.256631602
6.862968821
7.75472025
5.49746607
4.159800837
10.56211708
7.194718131
8.486060119
5.348909596
6.681268467
6.417910704
8.21806153
3.453924964
8.947236965
4.528877924
10.00488462
7.554318058
9.046301391
6.000251713
7.678564479
7.649735986
6.905515587
3.697767543
7.788665265
10.631542
5.925800665
9.667282748
8.416985804
8.872048019
8.348233449
8.107622394
10.73239348
9.155480305
12.03388377
5.410820573
5.932285904
6.957388657
7.151855403
5.973862539
9.176543719
3.794771735
3.860646189
13.41787426
6.417132043
6.36182555
9.87107935
8.395014676
8.121608221
6.297177112
11.14063689
6.477462333
6.028665116
8.782046641
9.385214323
8.604039539
4.931237924
3.37342764
8.841626029
9.762786644
3.768326461
5.417151617
15.38807259
6.647428577
7.000849181
3.192931232
8.116029496
3.649070428
9.041121498
6.244694457
7.864639683
3.13824891
8.413252001
3.203673346
11.9592202
10.27013084
11.50476532
12.97360886
8.777605997
13.85335128
7.429846549
9.719531512
6.35406206
5.137998758
7.495899118
6.92509607
8.859662444
4.556163201
11.58368622
5.32725927
8.806447903
6.400521537
3.218021784
7.998275169
12.97663292
9.525038874
7.72054751
5.399304147
7.774721445
6.704742301
6.78299758
4.801881364
5.656975191
7.23290667
5.893656316
4.907610215
9.748935324
10.19956555
8.299415814
9.517937653
10.1935705
4.327809152
11.21673012
6.990938473
12.5541403
10.89674818
7.679564518
9.820235757
11.39497999
7.055366127
6.178550198
4.996939588
9.140527597
7.793774412
4.794535736
5.502942399
5.946568163
5.052030899
5.903771307
10.39100003
6.46314915
8.265775937
7.404176241
3.748709618
8.759975255
8.621145544
9.070277155
6.903387636
7.543317804
8.941986747
8.96284228
7.973028974
9.279256185
8.593533281
8.566846483
7.340627891
11.69459538
7.490670232
7.496211591
8.258764908
11.27892976
8.155554916
9.72393605
10.81839355
8.3366854
7.982224343
6.222572744
6.385869879
3.445465294
14.08007699
6.96375989
8.411590099
8.403987367
8.764374061
14.098987
6.338145718
9.885972527
4.808832235
10.50683685
7.386553094
7.464622411
8.482332902
6.133250312
9.9087331
5.433577112
8.923150187
9.135325736
4.970955595
9.101576702
5.056766924
7.764234726
6.229047764
9.795392324
10.79427522
4.214433179
3.491123967
10.7853747
7.922830801
7.703960029
5.238133434
6.508452194
7.733366954
6.292754877
6.713339299
6.116526003
7.162386859
10.11265387
7.312666055
6.973490657
8.30708998
10.66017959
7.294854932
6.157215834
9.233194567
9.257966138
3.638188634
6.93803682
8.556966812
6.71077889
12.54109526
12.4375199
7.033382741
7.125253169
12.61674885
9.83638591
9.689335967
8.301806017
10.15303565
9.120555947
7.004458544
11.81119851
6.940765002
8.055718102
8.108268584
7.374832027
6.828389676
7.710220519
10.08425937
5.97087091
5.298222672
6.346960292
6.023582411
6.000606515
5.412335857
4.355708828
9.315625203
7.713241024
7.200071306
6.7649467
3.678154537
9.131631232
5.627445002
5.540967461
5.942983355
4.587067731
7.46026213
6.83156291
8.034875442
8.350574985
7.761733675
6.697277998
9.615632853
5.107096577
6.04363341
3.36498709
7.973732067
6.204385252
6.802309705
12.1712761
7.837782054
5.31735753
8.131650236
5.03685326
7.129811863
10.69942044
7.104477103
9.230094219
5.088377913
8.764596171
7.585853511
6.124271532
6.0057576
9.83786007
9.248680799
7.467256215
9.207034708
7.22498921
7.638971856
12.58087431
5.392930846
10.11851204
7.740541539
14.91758961
7.695817071
3.354720308
4.515626674
7.316769066
6.93782585
4.572554074
10.27225585
9.029069686
11.84937786
6.049939068
9.414024216
5.193759216
10.03596525
8.425897052
6.173736083
8.04226163
5.69860526
6.990192985
6.426623492
5.166657645
5.08457394
4.064697514
6.849617305
8.290086611
14.48023582
7.187908905
5.059006067
9.219482398
8.424893118
12.93248754
4.855746076
5.533437909
4.258043386
6.694558654
5.177593512
3.255066328
8.184897022
6.363898244
9.299181619
6.834706648
14.73125543
7.748889703
6.502981899
7.56598684
5.401254956
8.417603095
7.151106889
5.392798589
10.1837817
13.76931096
5.346644141
6.730506884
8.03669429
10.68187628
13.3424099
7.500343651
11.53026115
6.790681798
6.805049315
10.23488411
11.18983711
6.999397516
6.547655442
8.191393447
8.227487201
10.456891
8.260837245
5.148202521
7.074663533
5.172325928
9.669475979
7.686099456
7.884268805
9.691502315
7.745309183
7.859032982
8.983004737
9.005421821
6.217065453
6.576089505
6.865256422
5.060045609
8.316781971
7.428672429
6.600720212
4.5516419
6.536232956
8.133579526
13.03658702
6.75069174
9.868309982
12.19727831
13.60624032
5.943733054
8.97830813
6.900981213
8.460282664
7.018533692
5.299041016
8.119674346
9.802820926
5.276858144
6.798210266
6.345891095
7.825059574
6.938665815
7.35900535
7.115080651
5.38800791
10.91734357
6.060462073
9.23190266
4.822751527
4.502011824
7.088341057
9.587025212
6.458062739
3.027294234
7.864831093
10.70400008
7.340347114
11.10854826
6.816170332
6.307700762
11.07603198
9.635864896
14.16224591
8.464515317
5.32605749
12.1653651
6.094237022
8.393305761
12.47871518
6.225575368
10.80250675
11.2560227
7.64085218
4.381941656
4.944258544
10.03689317
3.300117495
7.510167812
6.129666876
5.925236951
11.36940969
9.955862818
7.136337642
7.110437621
11.07200567
9.78001352
8.43158789
9.149027603
8.481290177
12.2623962
7.971016135
4.902756725
8.069405238
6.771650389
6.807640534
7.452997053
10.86473847
7.404329662
5.297326614
9.517271406
5.674406557
4.27307728
10.51653936
7.494370092
9.509907222
7.859763479
6.854196463
8.088760573
7.904823628
5.727670947
6.884438324
12.12944529
4.898603983
8.430818145
8.178095456
10.85778623
4.29108887
11.27492808
5.506795805
6.620154298
5.77748906
3.136912872
5.549418304
2.889150815
11.1990139
4.927509587
8.196544848
9.616120769
4.038327936
6.524290666
9.53763538
7.762010285
5.938900123
7.079112809
10.51971996
6.569716369
5.543672632
6.496356644
7.230161573
8.850895257
11.09909708
8.375524873
7.460917556
11.58443653
12.93090567
10.76942366
4.358711095
7.426376706
5.713283328
7.277646111
10.389804
8.472306909
7.53261896
9.340641409
7.125193718
7.751241728
5.000934297
5.54381558
3.808170979
8.902148017
8.288850164
10.21994776
8.169468316
6.669105469
9.108883701
5.309056422
7.337981256
7.808763717
6.930070667
9.102106174
6.313578837
8.891811297
11.07519004
12.47470348
4.798630725
5.313231876
8.483399795
4.792356955
7.767038228
2.762830605
9.596450641
7.909372813
6.604454575
8.390705662
4.55010682
16.84296358
10.51094214
7.406594459
8.572933931
10.3558622
6.858376954
5.833824826
7.055166556
5.119062594
7.270142038
5.268493084
6.204420935
15.55265189
11.40187718
13.37891897
9.298345864
6.003944939
14.24930428
4.710781992
7.427087815
6.764542105
10.9834512
9.319846795
7.646487023
7.142766636
6.243631842
7.739347038
6.682867717
7.922381114
6.471942377
5.918507416
6.549314974
4.038695209
6.045419717
3.020865818
8.812943071
4.782549959
7.307570935
7.031604361
5.688235532
5.250807303
6.038312279
5.336268157
5.032436202
4.291083419
3.476809215
5.076731206
5.603753422
4.17783147
2.772926245
3.122875508
3.253156376
2.048115321
7.378292811
7.502140149
11.82782914
12.4481244
12.73561238
5.754492992
8.631128015
10.15157482
15.51324399
9.219687518
8.826320186
8.525240394
3.421025494
6.031981779
5.107422914
5.887209225
6.627031411
8.793946329
7.203860975
3.179522068
5.337460747
3.402619255
7.311875885
10.07837875
6.491675989
6.975465901
7.053427704
6.582188579
6.311230708
8.240849998
6.826566405
5.902409638
6.24493284
2.744811415
5.414879178
6.09545976
6.755047724
3.380074455
4.271795431
4.10545324
8.53352585
8.719247399
9.940948359
9.126544088
13.38684352
12.85526131
6.25157325
14.45610464
12.54328214
7.461480836
9.579663442
12.71784731
12.53592118
9.815848323
11.12559623
6.297418902
7.190940711
2.394113463
10.41534596
7.447728587
12.02016166
7.438611014
9.875764939
8.215660575
8.079651825
5.841692312
7.130476083
7.744688337
4.819823944
4.636497415
5.149614982
3.494422332
5.810819788
6.687199929
6.50140257
5.07197429
5.461702195
1.592951682
4.09468219
5.405379541
4.744639697
11.20802001
7.275268206
14.65915097
6.804338561
10.48297814
11.09497482
11.55476081
16.72979838
8.207512638
7.101811565
15.33692926
7.025616537
12.91845756
12.25361406
12.0294646
12.73858659
15.2831547
11.41719052
9.10979247
9.608793526
6.563533632
5.847183413
12.95973931
11.42626796
9.576433156
10.49500096
3.571993272
4.37168971
4.332900475
5.199446404
6.300250323
10.85351188
4.245310494
5.588328868
3.192016081
3.318089214
5.430336564
8.610981031
3.565374553
4.919723678
10.57557309
5.526656172
8.232402388
14.42604012
15.7265957
8.677399783
4.477067082
6.944091903
18.94720792
8.637243073
8.99501453
9.644731276
9.897943489
18.51652508
11.11725578
13.70855309
7.292459617
10.43581462
14.73766487
16.46824779
14.94791129
10.71972069
8.92322087
6.453122058
12.92927459
7.119380631
9.940165567
9.110149727
8.688171462
8.750195729
7.134023305
7.155834679
13.89431115
9.638517721
3.690417428
6.835552692
9.273290974
7.526633852
5.908347685
8.242453806
7.593859259
10.97838173
9.10484046
11.31202356
12.68998986
9.479920194
11.19404221
8.584731146
12.48793702
8.603663549
12.41800144
19.40634542
10.49620825
15.59525333
11.0037699
12.78900533
7.657012121
12.79502875
12.39209278
11.85961609
10.65487194
13.88169526
9.178315783
9.336655139
8.602680051
7.519884269
8.362743038
7.040362784
4.148543867
9.096451922
7.136516842
7.595062771
10.99189293
5.080753996
9.024525595
8.322125727
8.096811816
8.141471429
7.246177224
6.563822516
7.832632343
8.036238806
5.235118182
11.81713791
12.14786969
6.245626451
11.87389825
12.28669122
7.477687782
13.28020207
14.17051356
7.164629865
15.14270837
17.72178633
14.61234551
11.78049422
5.297620527
15.54776902
6.928068119
8.042716872
16.82946739
6.626813314
8.322006813
11.87753968
12.37374125
13.09596852
11.63788616
11.43327239
9.621094202
6.73963175
14.07929735
12.35515352
7.75377575
5.424339827
7.455621487
11.11464074
6.646817024
8.338832851
7.794452045
11.0711659
5.199490057
7.916888207
4.686506644
7.21244058
6.031582456
10.94876248
10.08930879
10.47344789
9.439168845
9.496982426
9.017407008
6.463299452
11.10996596
14.57851495
11.38178623
14.44000902
12.1755199
12.08404807
13.15455215
13.67953446
10.46909848
11.66716935
15.2389166
8.659002371
11.70233646
10.8534663
9.834563209
13.62031922
8.627808522
12.09564313
10.15112938
5.433775389
12.9926854
10.66724197
17.49716086
8.778036005
9.022786204
11.36224711
10.6822578
11.1053763
8.644741664
9.595259526
4.398420707
6.667319327
13.07040277
9.399927198
8.952399156
6.639686313
11.62051188
10.33112231
7.214547109
13.69678636
6.151671891
8.851254525
14.18335695
7.749208721
10.52132318
16.14478262
11.03885822
12.9106252
13.78799967
17.33708243
14.56425903
15.79667077
7.654711355
8.841833248
10.56298128
19.45832599
14.05863905
8.676535912
14.86044556
15.62799334
15.69339705
9.159665715
10.85885764
10.22006718
10.08280111
8.022509842
12.40121456
10.28870168
7.76898772
9.979339393
7.716361419
6.225890047
8.147424507
12.20808699
6.027970945
8.714085394
9.218558353
10.60061306
10.00666184
17.33138544
9.206729571
14.68591179
12.26281528
9.591253785
13.77577321
11.64223994
13.35655216
17.62949119
7.833140949
13.71621665
14.14022633
15.4378638
12.27849646
17.93761568
7.766891562
11.62825993
14.30752519
12.51588756
10.603364
14.61505401
6.791063979
15.04231311
11.64383557
14.78177203
14.51258461
8.635197567
10.59020908
4.188361265
6.881544536
8.919107488
7.339696838
8.894491552
11.45065704
7.575481188
5.129955637
6.348867643
10.45049756
15.22401527
11.99518086
14.019559
14.84959322
12.91745361
7.708503451
14.84028285
12.22513815
9.796714247
11.5251317
14.77889061
19.8101253
12.52790245
7.905122495
14.66789824
21.73219359
8.477058933
12.07761959
12.33655185
18.22693999
20.21088136
2.03309862
10.64997055
12.73542815
10.95065372
15.50144893
14.30413077
9.20261255
7.200268172
8.280044804
7.553338084
8.991103828
14.36705255
14.63875911
7.873970983
7.375266425
13.13745669
7.537719533
10.77921203
8.380911554
9.867639673
14.57387757
5.019888389
4.910682246
5.737593065
11.55465276
14.56167782
8.36756952
10.81631911
14.02388898
21.89094934
26.63040291
16.04981543
21.4251507
14.16537995
21.07461165
18.20192252
21.4885076
14.037058
16.24399142
16.52188722
13.17509383
8.706913585
11.00496228
8.992867261
11.5273204
9.757501056
22.32146215
17.96662393
13.23535697
11.91126705
4.015071525
7.982775137
4.854406285
9.10579339
8.592483308
7.316076955
7.665806483
9.476988437
6.05738346
10.27362299
6.937643788
11.42212012
8.861961481
9.549802823
11.816926
13.43794564
12.53880867
13.36957058
12.52479297
18.91457052
11.06594197
16.26277781
10.46629303
12.60847201
15.12385874
11.88167208
13.27925426
13.46171967
10.67597475
10.3571372
13.4410464
8.416500457
24.25466104
12.2758465
15.75398054
11.54501249
8.845168282
11.42303594
15.39598475
5.562075293
4.644836276
9.783742129
10.12581746
7.853154764
11.77743664
8.545928974
5.411234353
3.299887786
8.582437663
10.06006633
8.335115783
14.61472341
12.28747457
7.68707056
7.957972058
5.455307798
14.38719516
13.52347941
8.541052006
12.34394054
11.18698516
22.38796406
10.17490723
13.34557337
9.525362665
14.72214449
12.3293406
16.27519278
11.57846329
19.81481163
15.21102747
17.84349269
10.81397083
24.04187229
14.31789634
19.02205707
9.677065605
16.4162047
16.50498605
6.73915081
9.349784103
5.297609089
9.641792571
6.554023488
2.488566865
4.569034298
11.62106829
7.376626129
14.1342683
3.09544814
5.988542933
5.099817348
11.45682644
8.241366361
12.70740539
8.413006903
7.284975038
9.626093862
16.55172932
7.570684575
9.809919083
17.13067918
10.79913599
14.42474946
7.564200277
14.47252527
21.20508844
19.00999215
11.25225338
15.98220185
9.032318304
11.76824752
25.83690639
18.14061298
9.594992667
17.17486621
8.907787889
11.64933297
11.20200746
7.18295463
12.59237439
6.290936126
8.344256792
11.2066462
6.599058118
7.319559015
6.976858549
4.146535846
7.052656661
5.186497443
6.453254537
4.073266586
11.33257398
6.756541755
4.970485057
10.04767017
8.598618442
8.736473111
11.32290473
10.2770449
11.97238833
10.43513201
17.95613768
11.50233425
15.16455359
14.37379115
12.2108366
12.72659391
10.61236145
19.21964782
6.992641202
19.05017088
12.64554869
20.70383013
18.89043645
17.44720504
15.67447173
15.42061204
9.946203926
9.776283148
8.114791592
7.497497398
8.971657377
11.98964256
13.55903713
7.83019854
12.14285452
7.581206306
2.447207955
10.59533525
8.876177709
10.53283491
12.99942246
6.191677602
7.290914217
7.822119748
2.813523994
6.737235253
7.052140911
3.674949349
3.886977446
12.76001158
11.19626801
11.21502908
13.60678769
10.58299561
14.44143701
17.34815251
17.94470184
11.41802997
13.18978067
16.04777119
11.93925765
12.19928777
17.42865732
6.464603382
15.66614749
23.50273998
23.67542347
3.328295643
4.604735116
7.966834954
6.726413102
4.836226656
8.616117139
6.308794903
5.849170464
5.67389616
9.49435848
7.509829767
9.882818329
10.36738026
5.460499871
7.165443315
5.692784329
4.98098819
8.198264308
5.37426232
10.25474637
10.92670517
8.258470751
9.224132986
12.67429902
11.52860441
8.590377809
16.81712858
8.156805089
17.03514835
13.91456284
8.559583401
10.90263959
18.64384871
12.19441174
9.592357291
9.136344821
14.63519575
14.6788576
14.67828706
23.59141714
6.443646411
8.765467399
2.924852131
15.40621196
8.381780632
3.98145124
12.19928812
8.196369068
6.589706593
5.857537651
10.00996842
5.795953714
7.470557913
9.297695385
5.120202503
10.75949348
6.820521042
12.58771642
8.923572836
9.824039179
17.768546
14.11023588
6.816301108
8.668150028
12.01313812
17.16407293
12.81150807
8.549148197
8.315989064
15.09314095
11.2944923
9.583124534
9.822637233
14.22128255
17.04352329
16.13884014
25.66763191
14.88345365
22.95249305
14.48774038
8.222852634
4.917469136
9.935360434
8.595609526
7.647313076
12.28590233
6.812680081
8.828302305
5.736737011
11.04871375
5.44784594
9.723222335
6.481939614
8.980813893
6.711372542
7.839525469
10.96089635
7.692517869
8.449073761
14.94812173
8.007794619
8.308973798
7.819118046
3.703374882
7.280745623
14.95015839
18.64852339
13.28396573
12.82857788
11.63980216
8.616857961
13.50445498
9.127512827
9.986003268
8.41090457
18.56733514
17.2057137
16.42878856
19.30162038
25.51257587
10.00267553
7.719487174
8.15251074
8.373939174
6.368308057
2.372008131
15.87119072
5.992013397
7.428040669
5.586659618
11.29632194
6.912516298
7.804030067
5.879497814
8.161211918
10.91792432
9.599829483
8.867729378
9.863084055
6.957133601
6.798515605
6.326302482
9.291407369
8.935762934
11.84403514
9.847412042
13.16975541
11.51237062
14.16073334
13.44161285
9.419556107
6.457254408
11.04606302
18.28165493
20.9695752
14.22152835
12.06149855
14.4030767
22.32166927
16.6563167
5.823201323
8.821790953
10.89296898
6.746705353
9.911654813
8.756360938
7.256913003
6.743472548
6.891393252
13.28988702
7.697388399
14.1554709
14.01948823
8.000388678
9.580175214
4.755741894
6.585352017
10.73224005
7.754211902
9.028853455
12.29943293
6.067636667
2.924982902
7.900400312
8.629837096
3.494425552
5.23846355
8.293210313
14.65781842
8.671115702
14.94155423
9.723916795
18.2819181
15.78184252
15.60202277
22.78247128
9.194128382
17.83236039
17.69113887
8.646576195
9.620225834
12.89312035
3.849773524
2.543646473
7.204898011
6.808678971
7.511705043
12.10190689
8.700485705
4.895158223
6.311410582
12.33429567
3.537718146
8.71786358
14.38973072
7.761754399
5.817522308
10.62204954
8.294168381
9.1547058
2.617095448
7.398615321
8.577712579
8.098838153
10.63734272
4.54185052
18.23561365
10.59694904
10.99475782
7.780045087
10.83320351
5.051411099
15.94136373
12.04723245
15.80940509
19.51279998
14.00569668
12.18107882
19.72948091
16.91990738
9.486572223
5.305249895
13.96399513
15.21255559
7.428495825
11.45038796
5.020202491
4.216465589
10.59212842
6.141460438
4.472008932
13.31867214
9.680430629
3.159894014
6.655829762
10.62245951
8.918027533
8.710401008
6.805438657
5.32721659
4.017721077
12.42885838
6.75273189
6.884821847
7.503101606
9.736275271
6.16081012
10.61978234
9.739876839
12.11109168
9.799692627
9.005167061
13.27307493
9.497267397
11.2825178
12.49818865
13.85816378
15.16537373
12.80718109
13.54967962
10.59254567
13.01795159
11.48232764
6.717615938
9.604091366
7.92132047
10.33777995
8.783504714
4.912926665
9.49659324
6.825010938
6.794514634
8.417823636
10.45799176
7.054292575
13.3394302
5.583343746
11.6234092
6.311354572
5.752103536
9.419721959
6.568215885
10.13495319
16.0447884
7.416864682
7.868979197
3.91268827
7.727004664
9.521851711
8.775203527
7.353117622
10.013755
6.268864002
9.315299088
4.425865158
10.884322
11.74625245
15.51194923
6.322180537
14.9009575
4.739658748
9.362395852
6.25068456
9.997756243
11.24333068
12.61619904
2.127915235
7.815871962
10.13536648
11.18678552
5.131503857
4.892770649
5.504758741
9.70097492
8.356410527
11.49883141
8.691832639
7.755667759
15.56545054
5.659166427
9.529461919
6.690142997
4.134258012
7.214246265
10.65108621
18.56955231
11.60715572
7.576458406
18.3089598
4.080612628
7.083808508
10.01395098
14.89318762
5.953958853
8.093121954
10.96299723
9.518594735
7.883610889
12.80279872
15.85788285
8.716870206
10.01056328
9.358153245
7.034371866
3.747585975
9.032382947
8.154136177
8.486341668
7.374360548
8.047121309
9.078356193
2.512310942
6.472378149
6.747664361
7.57765636
12.22293085
10.87437542
7.860266782
9.653758034
13.12034123
3.444790255
6.579594809
4.603644077
6.529613331
9.013675914
8.883617995
5.713103113
7.550881168
11.74380369
8.888704081
8.010943576
10.63464353
11.22659317
16.0105185
7.715215775
5.224770091
16.43496525
13.5552611
9.322432882
12.11917995
7.359125039
6.559635326
6.526104869
5.355337995
5.922180777
6.404134017
4.074675349
7.657792844
6.492588813
7.35668572
10.4465331
10.43259665
8.890909951
4.862013687
4.786345223
12.08539376
6.039094529
10.12711278
7.912890042
3.044258799
7.630654783
4.021698263
4.495828764
5.47948059
7.860652369
7.063106832
9.316916029
5.763699115
5.897316912
4.486918047
14.67703437
7.394919653
7.680349594
7.943100937
13.22357911
13.079755
9.597631866
12.62466978
18.14365949
6.399113236
6.935331139
9.382932237
10.81003346
7.692748507
6.380399814
16.20974249
11.16284626
7.524764726
6.191319647
7.925919818
6.084721928
6.59925783
10.61882872
6.964879062
8.85045151
6.649724738
12.94316001
4.294952328
4.228937093
7.860364962
13.95887276
7.772489625
5.850341988
9.836612733
15.96606534
8.105723476
12.04154516
8.101111443
6.640998555
4.299712368
7.220229851
9.502695036
3.967084636
10.40426128
8.422751772
7.005826268
12.71473566
15.40926453
13.45060475
8.117719061
5.942982648
4.468655696
5.365786415
9.015022185
5.029551079
2.863797326
8.838829442
9.83988727
2.624733204
7.697234032
9.882101951
7.010355075
7.180341827
4.893888909
9.100028629
5.328723197
9.344878286
11.87272058
5.838619158
6.034917259
1.509995801
2.74901552
11.01692293
3.18680345
5.467967512
5.036574072
6.969299307
10.2993888
4.534906969
6.648155389
0.7455840618
5.56757185
4.66671335
11.35972731
19.51080705
4.742955593
7.646721469
6.512755716
7.635599493
8.004604128
6.432394769
10.31389174
6.689608722
8.295564731
9.815926985
5.563755228
6.038506007
8.328379976
9.319320132
7.577668677
7.068151599
6.29853194
10.43744898
5.868994509
8.441662434
9.78076552
7.416694541
7.663629211
5.015317832
8.651313073
10.59203313
5.558913176
5.752126303
9.448487111
3.117772951
9.771965883
9.695098694
8.480268375
9.08769296
7.022125198
4.306811076
25.34323402
7.979656175
9.628016865
7.126211286
6.695287606
10.68013721
5.28546468
13.82122331
8.639379271
5.688651207
9.923200104
5.54755677
9.086657625
8.986093441
2.551374638
15.38558889
7.744425593
8.052816582
4.806178222
10.09350346
8.731985629
6.466638472
6.294823757
8.175952059
7.999484158
8.143279617
6.846313461
7.40747814
10.76744956
5.463308647
8.831429554
8.390918013
7.555614196
8.158372848
4.770676654
8.069223149
14.26176304
11.14930107
11.19823684
7.258337995
11.83856865
7.535957312
4.110305279
6.950548433
8.494048736
7.342727801
11.3538713
16.99855967
3.781472381
9.802025401
6.812942804
5.930206417
9.359345721
7.663243298
3.774616544
8.345513328
9.784090714
4.590845897
11.90313702
5.328915395
9.397239803
7.848063026
9.303313498
9.278894159
8.599406225
4.996721796
8.072941048
7.422143012
8.944323783
8.792369424
9.396377382
9.266779138
9.114667761
7.508918252
6.664484792
8.036461217
4.439195891
6.069748258
6.906517138
8.360502342
3.634365942
5.15049321
2.130821252
8.69660363
10.57370908
7.478801945
5.670022421
9.259352435
9.365493664
12.28528387
7.350866023
11.05391242
4.840339453
8.575919557
3.487187628
9.217582411
5.815105036
5.221895555
14.62287051
9.490739027
3.662769943
6.245039353
9.691353817
13.10479197
6.987704641
8.087323013
6.332437913
13.06482856
6.868578888
8.377410542
10.33260721
6.118873088
10.07490177
8.236235543
14.38871025
7.677332832
7.275915098
1.120818123
5.881008016
6.567946912
7.800392302
6.006489622
4.478273446
6.783731689
13.06267159
6.633664172
9.153627172
9.3224758
10.78112854
8.036051565
8.315977396
9.023524102
7.043465155
5.923530886
10.18603311
11.48190215
2.395701967
4.716211621
5.147540798
9.767005619
9.856275689
2.766364026
5.8373818
7.557395921
2.292606373
2.905900238
10.80921817
8.155835401
5.919197693
7.27020912
10.8893366
6.71296972
7.415991539
10.44608932
10.24547026
6.501072746
6.395520464
6.640362608
7.850886046
5.029927725
7.244407806
10.82455491
5.971704028
12.5624225
9.881466729
5.123834774
3.252247688
2.942005756
5.958127795
10.71955641
4.396570933
5.889213481
3.70726087
9.504683318
5.850694793
7.926048337
9.452236792
6.760942565
4.919747069
8.958610389
9.146692593
12.21166179
8.938819817
6.520109171
11.19172788
4.103380222
11.64878426
8.138647989
5.88042909
15.15530221
7.16726634
11.86091489
2.323382759
6.465855625
9.291284695
6.455833888
11.03581547
8.83826703
6.888442932
5.255264012
7.00769965
10.45198707
10.42907226
6.291598693
13.02688664
6.659530621
6.235196737
6.515719389
4.216759588
8.190868078
6.877902092
10.57712296
10.60484758
7.41727888
6.844832084
5.117531413
8.996087863
9.433061558
7.138801903
7.998217321
7.133279964
4.116762239
6.358962569
11.21521351
7.633841039
4.931266692
5.152730479
6.061148289
13.44357264
6.402905418
9.692350735
5.195020811
9.142122575
7.751445338
13.50399789
12.92157368
9.130246526
11.07273187
4.139746085
5.461873167
5.454931702
8.199728328
10.31517655
7.915856581
7.927741277
14.02421252
4.282476567
3.975451083
10.39626476
5.265856938
16.15945256
9.037602252
12.12834374
9.253016154
3.13177856
5.059104217
7.722582668
2.853178861
9.220072835
12.3609021
6.505490564
7.555679881
11.88907144
7.065170813
4.024254764
8.247986099
7.288017773
6.017875915
6.763936367
7.85245387
4.609186794
9.548016898
9.658055871
8.821661747
8.303343589
9.52415724
7.099360583
17.26254294
8.062876684
6.858982201
6.515200894
6.118914017
4.302056682
5.164059542
9.970269185
4.29843581
9.454078173
8.602627788
3.840893499
9.040436537
7.418179857
6.066284068
8.781275799
8.60294732
6.091019474
8.037066009
8.643373823
13.75362541
4.555894601
7.059579052
4.780741996
11.00501407
10.49401098
15.45732329
6.572033721
7.324972562
8.92344373
6.310662501
4.495226288
10.3713782
3.674816978
4.199457912
17.70011251
9.329515079
9.24898773
13.35821235
6.111124588
5.109646621
7.151514003
6.890206696
7.976042071
7.830193781
12.71248082
5.262786565
6.57704967
12.5892467
11.62570705
9.955993031
11.22300635
9.05630165
5.125851425
7.431699016
2.849534046
9.303361763
10.09199563
7.900699968
7.835245496
8.017170565
10.39299125
8.406605888
11.51877299
4.79448413
3.83509859
6.276394441
6.351178111
13.07598575
10.18251362
7.162861269
10.16020577
11.26608967
8.829114532
6.356816928
7.227518109
10.637462
6.151372269
12.15460335
10.53155634
5.920416417
10.03897792
6.362028537
5.012723634
5.575737874
3.243063666
5.385997988
11.62465607
12.25580447
2.937266753
3.504884382
9.332870306
)
;

boundaryField
{
    flow
    {
        type            zeroGradient;
    }
    obstacle
    {
        type            calculated;
        value           nonuniform List<scalar> 
40
(
3.663731577e-18
2.155968246e-18
9.295991931e-19
6.500477961e-19
4.448964088e-18
2.384462525e-18
1.689972982e-18
2.564696383e-18
3.397527951e-18
4.009624614e-18
4.337190564e-18
1.917560802e-18
2.441417635e-18
3.122954139e-18
2.637775477e-18
1.855268067e-18
0
2.399158282e-18
3.336285686e-18
3.956699536e-18
1.479844391e-18
6.782256951e-18
0
2.548606253e-18
6.231398353e-19
2.385932093e-18
6.262572891e-19
0
2.449743853e-18
5.448050923e-18
0
6.852278192e-19
0
0
6.426816483e-18
1.835946481e-18
4.834731319e-18
6.056447397e-19
1.729821858e-18
7.484396882e-19
)
;
    }
    frontAndBack