/*--------------------------------*- C++ -*----------------------------------*\
  =========                 |
  \\      /  F ield         | OpenFOAM: The Open Source CFD Toolbox
   \\    /   O peration     | Website:  https://openfoam.org
    \\  /    A nd           | Version:  7
     \\/     M anipulation  |
\*---------------------------------------------------------------------------*/
FoamFile
{
    version     2.0;
    format      ascii;
    class       volScalarField;
    location    "0.007";
    object      q;
}
// * * * * * * * * * * * * * * * * * * * * * * * * * * * * * * * * * * * * * //

dimensions      [1 0 -3 0 0 0 0];

internalField   uniform 0;

boundaryField
{
    flow
    {
        type            zeroGradient;
    }
    obstacle
    {
        type            calculated;
        value           nonuniform List<scalar> 
40
(
5954.366698
-326.6789024
-419.8062536
-691.6857397
3961.749014
1631.493752
-842.5191769
2103.47444
748.4984647
3080.082554
3595.176115
2649.530355
4541.685322
2303.658129
3081.720109
1481.862838
0
1747.680604
1400.705632
3082.869935
-219.1053274
2708.45914
0
106.0283805
-353.2290123
-1136.119569
-794.3049899
0
2968.980377
2170.437031
0
192.829453
0
0
3474.548328
1794.692271
1305.532207
660.9403318
-1902.199386
636.8034816
)
;
    }
    frontAndBack
    {
        type            empty;
    }
}


// ************************************************************************* //
