/*--------------------------------*- C++ -*----------------------------------*\
  =========                 |
  \\      /  F ield         | OpenFOAM: The Open Source CFD Toolbox
   \\    /   O peration     | Website:  https://openfoam.org
    \\  /    A nd           | Version:  7
     \\/     M anipulation  |
\*---------------------------------------------------------------------------*/
FoamFile
{
    version     2.0;
    format      ascii;
    class       volScalarField;
    location    "0.007";
    object      rhoM;
}
// * * * * * * * * * * * * * * * * * * * * * * * * * * * * * * * * * * * * * //

dimensions      [1 -3 0 0 0 0 0];

internalField   nonuniform List<scalar> 
2400
(
2.974446132e-06
3.52763771e-06
4.565080198e-06
4.01188862e-06
5.049331109e-06
4.911449774e-06
5.948892263e-06
4.427198864e-06
4.911449774e-06
4.427198864e-06
8.092717908e-06
2.974446132e-06
5.53358202e-06
2.00594431e-06
4.080829287e-06
3.043386799e-06
5.464641352e-06
5.464641352e-06
9.199101064e-06
6.502083841e-06
2.490195221e-06
6.01783293e-06
4.911449774e-06
4.01188862e-06
5.948892263e-06
3.389756375e-06
4.911449774e-06
5.53358202e-06
7.885895906e-06
4.01188862e-06
2.490195221e-06
4.911449774e-06
3.458697042e-06
4.980390442e-06
4.634020865e-06
4.911449774e-06
7.193156754e-06
2.559135888e-06
6.01783293e-06
7.748014571e-06
3.52763771e-06
5.049331109e-06
5.948892263e-06
7.055275419e-06
5.049331109e-06
5.395700685e-06
3.043386799e-06
3.112327466e-06
6.433143174e-06
4.358258196e-06
5.879951596e-06
4.634020865e-06
6.433143174e-06
4.358258196e-06
4.634020865e-06
5.326760018e-06
6.502083841e-06
4.01188862e-06
7.53952633e-06
5.118271776e-06
2.421254554e-06
6.01783293e-06
3.596578377e-06
4.496139531e-06
2.490195221e-06
4.080829287e-06
4.496139531e-06
4.634020865e-06
1.452752732e-06
3.596578377e-06
6.086773598e-06
4.496139531e-06
4.980390442e-06
3.52763771e-06
3.458697042e-06
6.01783293e-06
5.049331109e-06
5.464641352e-06
8.508028151e-06
3.942947953e-06
4.496139531e-06
4.080829287e-06
3.458697042e-06
4.980390442e-06
5.948892263e-06
4.980390442e-06
3.389756375e-06
7.055275419e-06
3.942947953e-06
2.974446132e-06
5.326760018e-06
8.923338395e-06
4.980390442e-06
4.427198864e-06
4.01188862e-06
7.677407664e-06
2.490195221e-06
3.596578377e-06
3.043386799e-06
4.01188862e-06
3.942947953e-06
2.905505464e-06
8.092717908e-06
6.571024508e-06
5.602522687e-06
4.496139531e-06
2.905505464e-06
7.608466997e-06
4.01188862e-06
6.086773598e-06
5.118271776e-06
3.874007286e-06
5.395700685e-06
7.53952633e-06
4.358258196e-06
5.948892263e-06
4.01188862e-06
3.52763771e-06
5.53358202e-06
5.671463354e-06
4.565080198e-06
5.464641352e-06
3.942947953e-06
3.458697042e-06
5.118271776e-06
3.942947953e-06
4.496139531e-06
5.118271776e-06
4.496139531e-06
5.118271776e-06
9.54547064e-06
5.464641352e-06
8.02377724e-06
3.942947953e-06
8.576968818e-06
4.01188862e-06
3.874007286e-06
6.433143174e-06
5.395700685e-06
6.639965176e-06
3.942947953e-06
3.52763771e-06
3.458697042e-06
4.496139531e-06
2.421254554e-06
7.401644995e-06
4.496139531e-06
3.942947953e-06
5.53358202e-06
5.049331109e-06
7.055275419e-06
4.01188862e-06
4.842509107e-06
5.118271776e-06
3.942947953e-06
4.911449774e-06
5.671463354e-06
6.01783293e-06
2.974446132e-06
6.01783293e-06
3.458697042e-06
6.364202506e-06
6.01783293e-06
3.112327466e-06
7.954836573e-06
5.326760018e-06
4.218710622e-06
4.218710622e-06
5.395700685e-06
5.326760018e-06
4.358258196e-06
7.885895906e-06
5.187212443e-06
1.937003643e-06
4.634020865e-06
3.458697042e-06
4.496139531e-06
6.433143174e-06
3.458697042e-06
3.942947953e-06
3.043386799e-06
5.049331109e-06
4.911449774e-06
6.01783293e-06
2.974446132e-06
1.937003643e-06
3.52763771e-06
2.490195221e-06
5.464641352e-06
2.974446132e-06
4.842509107e-06
5.464641352e-06
2.905505464e-06
6.086773598e-06
2.490195221e-06
3.181268133e-06
6.364202506e-06
3.389756375e-06
4.911449774e-06
5.464641352e-06
4.980390442e-06
2.905505464e-06
6.986334752e-06
5.464641352e-06
5.602522687e-06
4.427198864e-06
5.879951596e-06
5.53358202e-06
4.496139531e-06
3.389756375e-06
4.496139531e-06
6.433143174e-06
4.634020865e-06
4.634020865e-06
4.427198864e-06
4.01188862e-06
4.980390442e-06
3.043386799e-06
6.364202506e-06
5.464641352e-06
3.043386799e-06
4.427198864e-06
4.496139531e-06
4.496139531e-06
3.112327466e-06
4.702961533e-06
4.01188862e-06
5.049331109e-06
2.00594431e-06
5.049331109e-06
5.187212443e-06
4.496139531e-06
5.395700685e-06
3.389756375e-06
1.044503179e-05
5.049331109e-06
4.080829287e-06
1.452752732e-06
4.702961533e-06
4.01188862e-06
2.421254554e-06
6.639965176e-06
4.496139531e-06
4.01188862e-06
5.53358202e-06
5.53358202e-06
9.685018214e-07
4.427198864e-06
5.879951596e-06
6.01783293e-06
4.634020865e-06
6.571024508e-06
2.974446132e-06
7.816955239e-06
2.00594431e-06
2.974446132e-06
4.427198864e-06
4.358258196e-06
4.565080198e-06
3.458697042e-06
2.490195221e-06
5.948892263e-06
4.01188862e-06
4.911449774e-06
3.458697042e-06
3.874007286e-06
4.080829287e-06
4.565080198e-06
2.074884977e-06
4.980390442e-06
2.974446132e-06
6.01783293e-06
4.980390442e-06
5.53358202e-06
3.942947953e-06
4.980390442e-06
4.634020865e-06
4.01188862e-06
2.974446132e-06
4.565080198e-06
5.049331109e-06
3.458697042e-06
5.602522687e-06
4.911449774e-06
5.118271776e-06
4.911449774e-06
5.53358202e-06
5.602522687e-06
5.53358202e-06
6.917394084e-06
3.458697042e-06
3.874007286e-06
3.52763771e-06
4.496139531e-06
3.043386799e-06
5.53358202e-06
2.421254554e-06
3.112327466e-06
7.53952633e-06
3.52763771e-06
3.458697042e-06
6.01783293e-06
5.464641352e-06
4.980390442e-06
3.389756375e-06
7.401644995e-06
4.496139531e-06
5.049331109e-06
5.811010928e-06
6.639965176e-06
4.496139531e-06
3.389756375e-06
2.559135888e-06
5.53358202e-06
5.464641352e-06
2.421254554e-06
2.905505464e-06
8.508028151e-06
4.01188862e-06
4.358258196e-06
2.00594431e-06
4.911449774e-06
2.490195221e-06
4.496139531e-06
4.149769955e-06
4.634020865e-06
2.00594431e-06
5.326760018e-06
2.00594431e-06
6.433143174e-06
6.917394084e-06
7.055275419e-06
7.885895906e-06
5.671463354e-06
8.854397727e-06
4.496139531e-06
5.395700685e-06
4.980390442e-06
3.665519044e-06
5.53358202e-06
5.118271776e-06
4.911449774e-06
3.458697042e-06
7.401644995e-06
3.874007286e-06
5.395700685e-06
4.080829287e-06
1.452752732e-06
4.01188862e-06
7.954836573e-06
5.464641352e-06
4.496139531e-06
2.974446132e-06
4.01188862e-06
4.911449774e-06
4.565080198e-06
3.043386799e-06
4.080829287e-06
4.01188862e-06
3.665519044e-06
3.52763771e-06
6.086773598e-06
6.086773598e-06
4.427198864e-06
6.571024508e-06
6.502083841e-06
3.043386799e-06
7.055275419e-06
3.112327466e-06
7.53952633e-06
6.433143174e-06
4.565080198e-06
6.01783293e-06
8.092717908e-06
4.427198864e-06
4.01188862e-06
3.458697042e-06
5.948892263e-06
4.358258196e-06
2.974446132e-06
3.52763771e-06
4.496139531e-06
2.974446132e-06
3.458697042e-06
5.464641352e-06
4.911449774e-06
5.53358202e-06
4.080829287e-06
2.421254554e-06
5.948892263e-06
5.187212443e-06
4.911449774e-06
3.942947953e-06
3.942947953e-06
5.53358202e-06
5.118271776e-06
4.496139531e-06
4.980390442e-06
4.496139531e-06
5.464641352e-06
4.01188862e-06
6.502083841e-06
4.427198864e-06
4.427198864e-06
4.496139531e-06
6.086773598e-06
4.358258196e-06
5.464641352e-06
6.433143174e-06
4.980390442e-06
4.080829287e-06
4.01188862e-06
4.496139531e-06
2.00594431e-06
7.53952633e-06
3.942947953e-06
4.842509107e-06
4.080829287e-06
5.464641352e-06
8.576968818e-06
3.942947953e-06
6.01783293e-06
2.628076555e-06
6.502083841e-06
4.565080198e-06
4.911449774e-06
4.427198864e-06
4.218710622e-06
5.948892263e-06
3.52763771e-06
5.049331109e-06
5.53358202e-06
2.490195221e-06
5.464641352e-06
3.52763771e-06
4.080829287e-06
3.596578377e-06
6.433143174e-06
6.433143174e-06
2.490195221e-06
2.074884977e-06
5.948892263e-06
5.049331109e-06
4.496139531e-06
3.874007286e-06
4.496139531e-06
4.911449774e-06
3.874007286e-06
3.942947953e-06
3.52763771e-06
3.596578377e-06
6.433143174e-06
4.565080198e-06
3.458697042e-06
5.049331109e-06
6.986334752e-06
4.358258196e-06
3.389756375e-06
4.565080198e-06
4.911449774e-06
2.490195221e-06
4.565080198e-06
5.326760018e-06
4.01188862e-06
7.954836573e-06
7.608466997e-06
4.496139531e-06
4.496139531e-06
7.470585662e-06
5.948892263e-06
5.602522687e-06
4.496139531e-06
5.948892263e-06
6.01783293e-06
4.427198864e-06
7.677407664e-06
4.496139531e-06
4.496139531e-06
4.911449774e-06
3.458697042e-06
4.427198864e-06
4.911449774e-06
6.571024508e-06
3.942947953e-06
3.596578377e-06
4.565080198e-06
3.458697042e-06
4.080829287e-06
2.974446132e-06
2.421254554e-06
5.602522687e-06
4.911449774e-06
4.01188862e-06
3.942947953e-06
2.628076555e-06
5.53358202e-06
3.389756375e-06
3.52763771e-06
3.874007286e-06
3.112327466e-06
4.565080198e-06
4.427198864e-06
6.086773598e-06
5.464641352e-06
5.395700685e-06
4.496139531e-06
6.155714265e-06
2.974446132e-06
4.496139531e-06
2.143825645e-06
5.671463354e-06
3.942947953e-06
4.980390442e-06
6.433143174e-06
4.427198864e-06
3.458697042e-06
5.049331109e-06
2.628076555e-06
4.080829287e-06
6.433143174e-06
4.01188862e-06
5.049331109e-06
2.974446132e-06
5.602522687e-06
5.049331109e-06
3.389756375e-06
3.389756375e-06
6.01783293e-06
4.842509107e-06
4.496139531e-06
6.086773598e-06
4.427198864e-06
4.149769955e-06
6.917394084e-06
3.52763771e-06
6.01783293e-06
4.911449774e-06
8.576968818e-06
4.842509107e-06
2.559135888e-06
2.490195221e-06
3.942947953e-06
4.565080198e-06
3.665519044e-06
5.948892263e-06
5.948892263e-06
6.986334752e-06
3.942947953e-06
5.740404021e-06
3.458697042e-06
6.571024508e-06
4.911449774e-06
3.874007286e-06
5.602522687e-06
3.874007286e-06
4.980390442e-06
3.874007286e-06
3.043386799e-06
3.181268133e-06
2.559135888e-06
4.080829287e-06
4.496139531e-06
8.301206149e-06
4.01188862e-06
2.905505464e-06
4.980390442e-06
5.948892263e-06
7.124216086e-06
3.458697042e-06
4.01188862e-06
2.974446132e-06
4.01188862e-06
3.52763771e-06
2.421254554e-06
4.842509107e-06
4.980390442e-06
5.53358202e-06
4.427198864e-06
9.130160396e-06
4.496139531e-06
4.080829287e-06
4.496139531e-06
3.52763771e-06
5.049331109e-06
4.080829287e-06
2.559135888e-06
6.086773598e-06
7.816955239e-06
3.389756375e-06
4.496139531e-06
5.187212443e-06
6.571024508e-06
7.954836573e-06
4.842509107e-06
6.364202506e-06
3.458697042e-06
4.01188862e-06
6.571024508e-06
7.608466997e-06
4.427198864e-06
2.974446132e-06
5.049331109e-06
5.049331109e-06
6.364202506e-06
4.358258196e-06
3.389756375e-06
4.980390442e-06
3.458697042e-06
6.01783293e-06
5.049331109e-06
6.01783293e-06
4.980390442e-06
4.911449774e-06
4.565080198e-06
4.911449774e-06
5.948892263e-06
4.080829287e-06
3.389756375e-06
4.358258196e-06
2.974446132e-06
4.980390442e-06
4.427198864e-06
3.596578377e-06
2.490195221e-06
3.942947953e-06
4.911449774e-06
7.608466997e-06
3.942947953e-06
5.118271776e-06
6.364202506e-06
6.917394084e-06
2.974446132e-06
5.602522687e-06
3.942947953e-06
5.395700685e-06
5.049331109e-06
3.112327466e-06
4.080829287e-06
5.464641352e-06
3.389756375e-06
4.080829287e-06
4.01188862e-06
4.496139531e-06
4.080829287e-06
3.942947953e-06
4.565080198e-06
2.974446132e-06
6.77784651e-06
3.458697042e-06
5.464641352e-06
3.52763771e-06
3.458697042e-06
4.980390442e-06
5.464641352e-06
4.565080198e-06
2.143825645e-06
4.149769955e-06
4.980390442e-06
4.496139531e-06
6.917394084e-06
3.942947953e-06
4.01188862e-06
6.502083841e-06
5.879951596e-06
7.954836573e-06
4.565080198e-06
2.559135888e-06
6.708905843e-06
3.942947953e-06
5.464641352e-06
6.086773598e-06
3.52763771e-06
6.986334752e-06
6.502083841e-06
4.496139531e-06
2.421254554e-06
2.974446132e-06
4.911449774e-06
2.421254554e-06
4.427198864e-06
4.01188862e-06
3.458697042e-06
7.124216086e-06
5.326760018e-06
4.427198864e-06
4.080829287e-06
6.433143174e-06
5.464641352e-06
5.049331109e-06
5.464641352e-06
5.464641352e-06
7.470585662e-06
5.464641352e-06
3.52763771e-06
5.602522687e-06
3.942947953e-06
3.942947953e-06
4.980390442e-06
7.53952633e-06
4.427198864e-06
3.52763771e-06
4.980390442e-06
3.52763771e-06
2.00594431e-06
5.602522687e-06
4.080829287e-06
5.464641352e-06
4.980390442e-06
3.942947953e-06
5.326760018e-06
4.980390442e-06
2.974446132e-06
5.049331109e-06
7.885895906e-06
3.458697042e-06
5.53358202e-06
5.671463354e-06
6.848453417e-06
2.559135888e-06
7.193156754e-06
3.942947953e-06
4.01188862e-06
2.490195221e-06
2.421254554e-06
3.458697042e-06
2.00594431e-06
6.502083841e-06
3.52763771e-06
5.395700685e-06
6.433143174e-06
2.559135888e-06
4.980390442e-06
5.049331109e-06
4.980390442e-06
3.52763771e-06
5.049331109e-06
5.811010928e-06
3.389756375e-06
2.905505464e-06
4.01188862e-06
4.080829287e-06
5.395700685e-06
7.124216086e-06
5.464641352e-06
3.942947953e-06
7.055275419e-06
7.954836573e-06
5.395700685e-06
2.490195221e-06
4.911449774e-06
3.52763771e-06
4.149769955e-06
6.364202506e-06
5.811010928e-06
4.565080198e-06
6.364202506e-06
4.911449774e-06
5.53358202e-06
3.596578377e-06
3.52763771e-06
2.421254554e-06
4.911449774e-06
5.118271776e-06
6.502083841e-06
5.049331109e-06
3.942947953e-06
5.879951596e-06
3.389756375e-06
5.602522687e-06
4.427198864e-06
4.496139531e-06
5.53358202e-06
4.01188862e-06
5.602522687e-06
7.470585662e-06
7.055275419e-06
2.905505464e-06
3.043386799e-06
4.980390442e-06
3.043386799e-06
5.049331109e-06
1.452752732e-06
6.01783293e-06
5.049331109e-06
3.942947953e-06
5.53358202e-06
2.490195221e-06
9.614411307e-06
5.879951596e-06
4.149769955e-06
5.811010928e-06
7.124216086e-06
4.634020865e-06
3.874007286e-06
4.149769955e-06
3.389756375e-06
4.565080198e-06
3.112327466e-06
4.01188862e-06
9.130160396e-06
1.506334169e-05
1.642418185e-05
1.295042394e-05
1.226034543e-05
1.8626329e-05
1.056438872e-05
1.418673715e-05
1.589224014e-05
1.82096195e-05
1.78243265e-05
1.735912911e-05
1.343520658e-05
1.731594582e-05
1.668279253e-05
1.427690058e-05
1.979797274e-05
1.379489304e-05
1.429283499e-05
1.329596681e-05
1.340030527e-05
1.350629423e-05
5.915607112e-06
2.009558603e-05
8.894074273e-06
1.843192402e-05
1.824798132e-05
1.451771091e-05
1.846873703e-05
1.605014603e-05
1.255094544e-05
1.24847194e-05
1.347265192e-05
8.883193796e-06
1.451617404e-05
1.681657088e-05
1.714931712e-05
6.719131472e-06
1.41187665e-05
7.405910939e-06
7.474847294e-06
7.358707977e-06
7.47896811e-06
1.006438153e-05
1.084257962e-05
1.434488853e-05
9.846347023e-06
1.100206618e-05
1.283004575e-05
1.512530439e-05
1.079815449e-05
1.788071735e-05
1.395883816e-05
7.863039967e-06
9.140451767e-06
1.274137225e-05
1.314850308e-05
1.122232747e-05
1.123076027e-05
1.313820351e-05
8.77389502e-06
1.270306287e-05
7.779134378e-06
1.535763432e-05
1.531790297e-05
1.29505953e-05
1.489872892e-05
1.333594221e-05
1.310625041e-05
9.955974963e-06
1.26372161e-05
1.64128596e-05
1.540985441e-05
1.36789202e-05
6.541425465e-06
8.498392687e-06
9.760959749e-06
1.518795883e-05
9.289074354e-06
9.748467439e-06
1.012439106e-05
6.525141895e-06
7.687950727e-06
8.656431917e-06
6.094856607e-06
1.334565655e-05
1.02062335e-05
8.540550024e-06
1.458087461e-05
1.050060052e-05
1.124223154e-05
1.706030954e-05
1.568657377e-05
1.610470616e-05
1.241810473e-05
1.097634668e-05
9.204324745e-06
1.184558151e-05
4.005124686e-06
1.464267438e-05
1.124802294e-05
1.937704883e-05
1.280433806e-05
1.633857874e-05
1.490553413e-05
1.934414551e-05
1.029602736e-05
1.114064799e-05
1.251041856e-05
8.583164799e-06
7.010858305e-06
1.091220151e-05
6.428086448e-06
9.770657282e-06
1.182815356e-05
1.283660737e-05
1.167678534e-05
1.04937407e-05
3.994257218e-06
6.749633814e-06
7.569148267e-06
3.540147616e-06
7.687950732e-06
5.630103144e-06
1.318197856e-05
7.208008324e-06
1.042112663e-05
1.049533473e-05
9.404558755e-06
1.475938744e-05
1.072443859e-05
9.164024674e-06
1.486010821e-05
8.620292426e-06
1.104593594e-05
1.427690058e-05
1.492695792e-05
1.418325353e-05
1.233035464e-05
1.535451573e-05
1.220395237e-05
1.206009044e-05
8.913794812e-06
1.004779301e-05
1.31759655e-05
1.751770259e-05
1.264010077e-05
1.603596603e-05
6.638976244e-06
1.23594265e-05
1.090554791e-05
1.091220153e-05
1.127215325e-05
1.829758183e-05
7.079461278e-06
1.057739278e-05
7.297441494e-06
8.744044837e-06
9.939354318e-06
1.331240508e-05
7.001063265e-06
4.026115804e-06
8.457587623e-06
4.011723977e-06
5.528091708e-06
1.355904093e-05
1.193057235e-05
5.718328258e-06
3.645218652e-06
8.444390456e-06
1.412784158e-05
8.568180233e-06
8.706250699e-06
9.980432584e-06
1.196071512e-05
1.373955811e-05
1.276123446e-05
1.363767157e-05
8.560046555e-06
1.305932186e-05
1.707078606e-05
1.503456415e-05
1.385823021e-05
1.494857952e-05
1.012919705e-05
1.19556264e-05
1.707594462e-05
1.19018087e-05
1.600058371e-05
1.29602894e-05
1.307065441e-05
1.012699408e-05
1.030249139e-05
1.172478873e-05
1.487558412e-05
1.238607116e-05
7.115609719e-06
1.067721899e-05
1.207534919e-05
8.811896478e-06
7.474847314e-06
6.108358855e-06
5.452068205e-06
6.685641523e-06
6.52035706e-06
8.706856311e-06
8.336901299e-06
6.803932283e-06
1.122629002e-05
5.800944469e-06
8.061757923e-06
6.333314914e-06
1.028256934e-05
1.542463609e-05
1.005523098e-05
1.389255628e-05
1.051842986e-05
1.465116338e-05
1.130903247e-05
1.258412545e-05
1.324130393e-05
1.358642369e-05
1.337166827e-05
1.748039015e-05
1.12822428e-05
1.012918346e-05
1.029602736e-05
9.790636077e-06
9.107129576e-06
9.269569885e-06
5.10664883e-06
9.689833073e-06
8.981767969e-06
1.048105607e-05
1.147090209e-05
9.854356933e-06
1.10381768e-05
1.380743693e-05
1.003193181e-05
9.46817357e-06
8.893920087e-06
4.928867033e-06
5.521729078e-06
5.559959959e-06
3.472928763e-06
8.207240327e-06
1.027786455e-05
6.225059714e-06
7.290437303e-06
1.101465304e-05
6.952456108e-06
9.611356682e-06
1.148305743e-05
4.764133402e-06
1.386436422e-05
1.734610834e-05
1.260707221e-05
1.114465537e-05
4.63319407e-06
1.195116575e-05
7.498041471e-06
9.406134619e-06
1.612559899e-05
8.169289375e-06
8.399628413e-06
1.394756414e-05
1.17183506e-05
1.282917945e-05
1.029879327e-05
1.484842031e-05
1.255094554e-05
9.341786719e-06
1.77002398e-05
1.287998911e-05
1.308285102e-05
8.768714529e-06
9.304183053e-06
1.159682797e-05
7.89593696e-06
8.155619397e-06
9.556306199e-06
6.039173707e-06
4.123460681e-06
4.222153532e-06
3.118060524e-06
5.20954434e-06
4.31171274e-06
8.179844413e-06
6.342364356e-06
7.343102025e-06
6.878740208e-06
8.046592009e-06
8.556641684e-06
5.898190686e-06
1.043669482e-05
1.312571656e-05
1.013116124e-05
1.184558152e-05
9.659640921e-06
1.021004994e-05
1.076909749e-05
1.230047884e-05
8.752258208e-06
1.094732002e-05
1.301181146e-05
1.162263683e-05
1.205408245e-05
1.198593028e-05
1.16601088e-05
1.42475573e-05
9.262235419e-06
9.952970802e-06
1.039025668e-05
6.307195943e-06
1.272559944e-05
9.584035216e-06
1.578118403e-05
9.665870856e-06
8.916526798e-06
1.359269887e-05
1.551777946e-05
7.427893123e-06
5.452068205e-06
6.545355153e-06
2.976796081e-06
4.567672097e-06
9.198205094e-06
6.803932288e-06
5.831998623e-06
5.800944473e-06
7.766894317e-06
8.046592015e-06
4.878564894e-06
9.829710658e-06
3.885059014e-06
8.060137084e-06
1.121402298e-05
6.779999738e-06
9.58136872e-06
1.345373011e-05
9.252820469e-06
1.117479292e-05
1.231777615e-05
1.274243849e-05
1.021127409e-05
1.428055376e-05
9.207419452e-06
8.102104601e-06
1.327795253e-05
2.051281281e-05
1.540621706e-05
7.508233966e-06
1.505879288e-05
1.412372184e-05
1.60409686e-05
9.764249705e-06
1.204044886e-05
9.296697115e-06
1.068221176e-05
9.46817357e-06
1.419300772e-05
6.594327048e-06
4.543109566e-06
5.489816774e-06
6.165488829e-06
4.63880022e-06
5.677896368e-06
7.238522625e-06
4.373559943e-06
5.947311254e-06
6.434663154e-06
5.290138457e-06
6.380079003e-06
1.058514171e-05
5.40907933e-06
1.16666873e-05
8.275625262e-06
7.247909583e-06
9.109843752e-06
1.021004993e-05
1.427865545e-05
1.214021996e-05
1.061578547e-05
1.282582361e-05
1.235321156e-05
1.278510044e-05
1.079861688e-05
1.409506985e-05
7.915465913e-06
1.22738843e-05
1.246467486e-05
1.23085932e-05
1.056790879e-05
1.2081058e-05
8.334158643e-06
1.690667819e-05
1.049048415e-05
1.261039318e-05
1.495420146e-05
8.155619323e-06
1.211154881e-05
2.013057902e-06
4.682431309e-06
6.122800739e-06
5.173223469e-06
5.851416593e-06
6.827455593e-06
6.080777463e-06
3.57256013e-06
3.450232058e-06
8.432119072e-06
9.611356682e-06
6.980323039e-06
8.090944234e-06
1.051262055e-05
9.90166173e-06
4.639771452e-06
1.122232752e-05
9.581368764e-06
9.02301219e-06
8.215468894e-06
1.447172112e-05
1.434479211e-05
8.822596417e-06
6.09353689e-06
1.170738421e-05
1.590390795e-05
7.933861335e-06
1.114910291e-05
9.870432763e-06
1.436888422e-05
1.457930691e-05
4.490884e-06
1.092585765e-05
1.084355338e-05
9.311535663e-06
1.450396711e-05
1.178252356e-05
9.566806834e-06
8.435913242e-06
8.2315343e-06
4.581269141e-06
5.452068209e-06
8.233877509e-06
8.150019544e-06
5.638032213e-06
4.671599226e-06
7.817395231e-06
5.103657364e-06
6.902232932e-06
5.472793169e-06
6.854903154e-06
8.631446232e-06
3.251449917e-06
3.275817907e-06
5.218577637e-06
7.269844626e-06
9.585581532e-06
5.182991199e-06
9.10189377e-06
9.332321191e-06
1.447172134e-05
1.807184678e-05
1.094535227e-05
1.663510278e-05
1.187287895e-05
1.71593735e-05
1.198593037e-05
1.676606748e-05
1.064238005e-05
1.272348669e-05
1.335693834e-05
1.188863214e-05
8.883193667e-06
1.102217912e-05
9.584035383e-06
1.112909278e-05
8.377088224e-06
1.876330371e-05
1.340583631e-05
1.0124391e-05
7.080295232e-06
1.957239035e-06
5.067262377e-06
3.047428303e-06
6.137648184e-06
5.174747786e-06
4.053851636e-06
5.321632845e-06
6.388180354e-06
4.73385249e-06
7.599259979e-06
5.254395379e-06
7.486235134e-06
5.485005098e-06
5.526422872e-06
8.352706419e-06
8.339073564e-06
8.088521609e-06
7.993737728e-06
9.014318464e-06
1.254280386e-05
6.969499191e-06
1.241676881e-05
7.823105532e-06
1.079316269e-05
1.071518795e-05
1.054976362e-05
1.123392896e-05
9.955974963e-06
8.569985237e-06
8.119418264e-06
1.091897049e-05
6.307195997e-06
1.72063531e-05
1.13004285e-05
1.304491817e-05
1.113813206e-05
1.058963427e-05
1.16238675e-05
1.106967983e-05
3.054179417e-06
3.0055194e-06
6.052657513e-06
6.590989264e-06
4.567672097e-06
6.827455578e-06
5.718328226e-06
3.645218647e-06
2.570262576e-06
5.251645407e-06
6.407571103e-06
5.329199928e-06
9.829710644e-06
9.370064051e-06
6.140264422e-06
5.955739519e-06
4.987909644e-06
9.659640892e-06
8.705579084e-06
5.663761789e-06
8.20031919e-06
9.96768695e-06
1.584810647e-05
6.505905678e-06
8.30274052e-06
7.785096274e-06
1.282917943e-05
9.872613278e-06
1.476287804e-05
9.348506065e-06
1.370708775e-05
1.153544942e-05
1.60778533e-05
9.140133061e-06
1.97087139e-05
1.331766592e-05
1.261039318e-05
1.077478916e-05
1.302985303e-05
1.371922371e-05
4.026115826e-06
5.661050839e-06
3.026328777e-06
5.243855709e-06
5.067288128e-06
1.652707807e-06
3.112529861e-06
7.435754384e-06
4.919206233e-06
8.209189718e-06
1.713277112e-06
4.278320876e-06
3.251449917e-06
8.227507647e-06
5.679421072e-06
7.811275549e-06
5.844180025e-06
5.182991277e-06
7.122226568e-06
9.65224524e-06
5.305975007e-06
6.321400772e-06
1.241676891e-05
7.905182553e-06
9.547951681e-06
5.441022866e-06
1.038152042e-05
1.285177259e-05
1.441864188e-05
8.656255883e-06
1.388111108e-05
8.453054373e-06
8.883193819e-06
1.783370179e-05
1.238607118e-05
8.574658633e-06
1.380743693e-05
7.338234495e-06
1.096759048e-05
1.050159496e-05
4.581269135e-06
7.687950748e-06
4.574564789e-06
5.102591264e-06
6.279904467e-06
3.736933144e-06
4.560583107e-06
4.665950079e-06
2.129393451e-06
4.73385249e-06
2.607941113e-06
3.377050759e-06
2.646740775e-06
7.009025417e-06
3.453552065e-06
3.402747468e-06
5.065581817e-06
5.811060664e-06
5.14446584e-06
7.019116059e-06
6.914374349e-06
7.536829407e-06
8.659761543e-06
1.367041136e-05
8.385487934e-06
9.459722481e-06
1.03815205e-05
8.596123713e-06
8.583164792e-06
8.742526529e-06
1.414214601e-05
5.723842056e-06
1.172478876e-05
1.057345617e-05
1.68165708e-05
1.468579874e-05
1.21494801e-05
1.198277168e-05
1.349926759e-05
8.988221135e-06
4.998052174e-06
5.102080173e-06
4.011723947e-06
6.024224364e-06
7.208008334e-06
7.905383761e-06
4.125992774e-06
7.363095864e-06
4.699656061e-06
2.071171818e-06
6.929159325e-06
5.404004439e-06
6.578260798e-06
7.846043801e-06
4.528237008e-06
3.790016058e-06
5.611163691e-06
2.827258088e-06
4.59038771e-06
4.067984146e-06
2.251371838e-06
2.836651122e-06
1.012921045e-05
6.341751687e-06
6.476297601e-06
7.115649016e-06
7.9338614e-06
9.191955559e-06
1.23594265e-05
1.367663397e-05
6.984061282e-06
1.012696048e-05
1.19018534e-05
1.030551765e-05
7.865464248e-06
1.122000866e-05
6.627392345e-06
1.216792666e-05
1.631123865e-05
1.636876733e-05
1.943872751e-06
3.634150931e-06
4.997119205e-06
4.535826328e-06
3.211080338e-06
5.31800987e-06
3.619261292e-06
4.228242898e-06
3.230681895e-06
5.325361345e-06
4.84280647e-06
4.353125356e-06
6.653621665e-06
3.809133238e-06
4.528237008e-06
3.325666342e-06
3.351163845e-06
4.633194091e-06
3.403349984e-06
7.498041454e-06
7.4772173e-06
5.673302201e-06
6.535037962e-06
8.894074273e-06
6.641792482e-06
6.110470117e-06
1.240653828e-05
6.38244818e-06
1.381777887e-05
1.073300657e-05
6.285865507e-06
7.485513739e-06
1.483412057e-05
7.079461272e-06
7.775356866e-06
8.208797598e-06
1.122987122e-05
1.346848657e-05
1.377956143e-05
1.655736942e-05
2.915809146e-06
4.682431322e-06
1.618379166e-06
9.920946514e-06
5.495775963e-06
3.305415592e-06
7.382804882e-06
4.446218456e-06
3.817917778e-06
3.18047365e-06
5.885982922e-06
3.15263725e-06
5.51956448e-06
6.018320456e-06
2.763211436e-06
6.186982895e-06
5.065581741e-06
9.737913093e-06
5.856307156e-06
5.822763116e-06
1.053182054e-05
9.561893335e-06
4.16606207e-06
5.847305828e-06
8.96671977e-06
1.004574075e-05
8.524745754e-06
6.723802219e-06
6.609491737e-06
1.116644498e-05
9.167763447e-06
6.869034653e-06
7.017594732e-06
1.04841433e-05
1.310910685e-05
1.249722563e-05
1.675195919e-05
1.058963427e-05
1.631123879e-05
1.201724795e-05
3.887745502e-06
3.984138943e-06
6.825927893e-06
5.528091685e-06
4.70992835e-06
6.755824582e-06
4.560583107e-06
5.686681576e-06
3.744734414e-06
5.9905861e-06
3.873886206e-06
6.004248449e-06
3.931519975e-06
5.409079341e-06
4.375238883e-06
5.104121202e-06
7.325581692e-06
5.104719076e-06
4.590387745e-06
8.932896334e-06
5.868817917e-06
5.754070503e-06
5.963148348e-06
3.046768445e-06
6.060560594e-06
1.021259853e-05
1.308154434e-05
7.574111926e-06
9.440654277e-06
7.616837884e-06
5.150508651e-06
8.189758169e-06
7.017594732e-06
6.36279972e-06
8.318178225e-06
1.322675016e-05
1.224121927e-05
1.272562901e-05
1.331240503e-05
1.96806972e-05
5.622390659e-06
4.752092163e-06
4.574564758e-06
4.535826359e-06
3.568440103e-06
1.581076752e-06
8.902999251e-06
4.300901448e-06
4.185603542e-06
3.254189527e-06
7.525003818e-06
4.72895591e-06
4.310146235e-06
3.275817907e-06
6.140264422e-06
6.651332685e-06
6.312089929e-06
5.104719076e-06
5.777425506e-06
4.147484811e-06
3.939900717e-06
4.861715008e-06
5.472676137e-06
5.270782989e-06
6.724539897e-06
6.110470018e-06
7.258855387e-06
6.04314432e-06
9.098485402e-06
7.964005557e-06
6.984061282e-06
6.252555577e-06
8.526924501e-06
1.245550222e-05
1.401235712e-05
1.00337073e-05
8.468827312e-06
1.003193181e-05
1.546809896e-05
9.650606991e-06
4.164486096e-06
4.962758428e-06
6.755784708e-06
4.677090805e-06
6.708392337e-06
5.174747783e-06
3.619261292e-06
4.08292586e-06
4.846022842e-06
8.505834972e-06
4.917062651e-06
8.407032607e-06
9.225001458e-06
4.799838191e-06
6.677606894e-06
3.867097183e-06
4.597671888e-06
5.182991199e-06
4.59038771e-06
5.822763116e-06
8.12018972e-06
4.052079811e-06
1.878503618e-06
5.352859925e-06
4.815349548e-06
2.930091784e-06
3.122664995e-06
4.936306679e-06
8.839791465e-06
4.328127978e-06
8.991637314e-06
6.956800112e-06
1.350185547e-05
1.13815893e-05
9.674142629e-06
1.404719046e-05
8.099653474e-06
1.170280168e-05
1.068729654e-05
6.906762337e-06
5.136422471e-06
7.409307255e-06
2.533631178e-06
1.984530714e-06
4.567672097e-06
4.168450643e-06
4.560583107e-06
6.269705828e-06
5.213708543e-06
3.180473627e-06
3.79962999e-06
6.980323065e-06
2.872823686e-06
5.409079341e-06
8.13478723e-06
4.485609174e-06
5.143253877e-06
6.282585649e-06
4.590387745e-06
5.18483634e-06
1.688528853e-06
4.052079843e-06
5.228423928e-06
4.612183045e-06
6.060560594e-06
2.930091736e-06
1.021327721e-05
6.808628173e-06
6.951660537e-06
6.404878667e-06
6.372877057e-06
3.698874137e-06
1.003839417e-05
8.334158643e-06
1.057739273e-05
1.122000857e-05
1.067721908e-05
9.939354318e-06
1.199985089e-05
1.182636684e-05
5.900803441e-06
3.564490058e-06
8.023447949e-06
8.220651744e-06
5.138416185e-06
6.252676009e-06
2.677939528e-06
3.280169953e-06
6.388180399e-06
4.142343636e-06
3.651117584e-06
7.356153584e-06
5.368842514e-06
2.133261434e-06
3.914395458e-06
5.645552072e-06
5.143253877e-06
5.654516219e-06
4.036309689e-06
4.067984115e-06
2.814214776e-06
7.536829524e-06
4.575116911e-06
4.117737186e-06
4.732602095e-06
5.691309414e-06
4.220312111e-06
7.574111926e-06
5.578850366e-06
7.444296594e-06
5.674681277e-06
6.869034711e-06
8.794661447e-06
7.079461272e-06
7.052321152e-06
7.297441494e-06
9.20495787e-06
9.289074362e-06
8.905327727e-06
9.556306112e-06
7.011110074e-06
8.03793876e-06
7.178339121e-06
3.684825416e-06
6.351032594e-06
5.103116739e-06
6.876073426e-06
5.32163292e-06
3.157498482e-06
5.399077207e-06
4.469730644e-06
3.902490325e-06
5.594925444e-06
6.246097726e-06
4.37523885e-06
8.275625231e-06
3.974417872e-06
7.538724423e-06
3.957428039e-06
3.908982818e-06
5.948947433e-06
4.619410027e-06
5.881730899e-06
1.012919705e-05
4.732602133e-06
5.021862213e-06
3.038543344e-06
4.851480686e-06
6.179713252e-06
5.626357815e-06
5.848704535e-06
6.25255563e-06
4.974930857e-06
5.108102349e-06
2.531714126e-06
8.026965907e-06
6.074740106e-06
8.546216916e-06
5.250216987e-06
7.663449177e-06
1.943872751e-06
5.452068183e-06
3.519026376e-06
5.739988391e-06
5.99539196e-06
6.827455578e-06
1.592335481e-06
4.738608597e-06
5.213708543e-06
5.916870199e-06
3.203785551e-06
3.152637228e-06
3.176088907e-06
5.409079302e-06
5.526422913e-06
8.352706481e-06
4.910237621e-06
4.005124704e-06
8.626697434e-06
2.95113189e-06
5.788688492e-06
3.403981347e-06
2.940865472e-06
4.199814206e-06
6.890034671e-06
1.188722474e-05
6.499727944e-06
5.616964479e-06
1.132878513e-05
3.029898043e-06
3.754116952e-06
4.31535316e-06
8.883193819e-06
3.942717845e-06
5.786464027e-06
7.845134076e-06
8.007914169e-06
5.479972069e-06
9.937588132e-06
9.650607078e-06
5.067237323e-06
6.919997449e-06
5.63010314e-06
4.606458582e-06
2.56920811e-06
5.31800987e-06