/*--------------------------------*- C++ -*----------------------------------*\
  =========                 |
  \\      /  F ield         | OpenFOAM: The Open Source CFD Toolbox
   \\    /   O peration     | Website:  https://openfoam.org
    \\  /    A nd           | Version:  7
     \\/     M anipulation  |
\*---------------------------------------------------------------------------*/
FoamFile
{
    version     2.0;
    format      ascii;
    class       volScalarField;
    location    "0.007";
    object      rhoNMean;
}
// * * * * * * * * * * * * * * * * * * * * * * * * * * * * * * * * * * * * * //

dimensions      [0 -3 0 0 0 0 0];

internalField   nonuniform List<scalar> 
2400
(
9.251795894e+19
9.344629248e+19
9.340166106e+19
9.211627616e+19
8.854576253e+19
9.323206167e+19
9.156284654e+19
9.02417565e+19
9.330347194e+19
8.922118469e+19
8.979246687e+19
8.776024953e+19
8.796852949e+19
8.673670229e+19
8.31483361e+19
8.285079329e+19
8.617137097e+19
8.565364649e+19
8.117265189e+19
7.626617108e+19
9.416634606e+19
9.327669309e+19
9.231860526e+19
9.197345561e+19
9.04649136e+19
9.099453979e+19
8.963476919e+19
9.078923526e+19
8.946219436e+19
8.801613634e+19
8.806374319e+19
8.675157943e+19
8.933722638e+19
8.640345435e+19
8.562686764e+19
8.252349621e+19
8.371069199e+19
7.939334593e+19
7.725996404e+19
7.504922102e+19
9.252986065e+19
9.537734527e+19
9.119984433e+19
9.197048018e+19
9.038457705e+19
9.092610495e+19
8.882247734e+19
9.081006325e+19
8.847137683e+19
8.968832689e+19
8.611483783e+19
8.530552141e+19
8.759362556e+19
8.471936209e+19
8.371366742e+19
8.061029599e+19
7.888454774e+19
7.745931772e+19
7.288906027e+19
7.167211021e+19
9.512443389e+19
9.392533639e+19
9.055417644e+19
9.354745704e+19
8.648676634e+19
8.6748604e+19
9.045598732e+19
8.784356152e+19
8.700151539e+19
8.416593248e+19
8.518947972e+19
8.488301063e+19
8.789116836e+19
8.352621545e+19
8.020563778e+19
7.980097957e+19
7.795026334e+19
7.917911511e+19
7.542710038e+19
7.204106329e+19
9.213412872e+19
9.171459337e+19
9.105999921e+19
8.741509988e+19
8.998289426e+19
9.12504266e+19
9.153309226e+19
9.078625983e+19
8.752519072e+19
8.471936209e+19
8.388921767e+19
8.29787367e+19
8.586787731e+19
8.830177743e+19
8.179154092e+19
7.750989999e+19
7.691183896e+19
7.64060162e+19
7.48885479e+19
7.069021896e+19
9.147953456e+19
9.13456403e+19
8.925093897e+19
9.093503123e+19
9.070592327e+19
8.789116836e+19
9.091122781e+19
8.866180422e+19
8.636179836e+19
8.591548416e+19
8.603450128e+19
8.506153631e+19
8.307692582e+19
8.403798907e+19
7.944987906e+19
8.077691996e+19
7.64387459e+19
7.62155888e+19
7.224636782e+19
7.125555029e+19
9.232455612e+19
9.170864252e+19
9.172649509e+19
9.357126046e+19
8.874511621e+19
8.767991297e+19
8.827202315e+19
8.765908498e+19
8.890876475e+19
8.401121022e+19
8.678133371e+19
8.422841647e+19
8.447835242e+19
8.227356026e+19
8.036036004e+19
7.702788065e+19
7.852749638e+19
7.505517187e+19
7.248440206e+19
7.231777809e+19
9.378846671e+19
9.137837001e+19
8.77572741e+19
8.903968358e+19
8.819466202e+19
8.942648922e+19
8.595714015e+19
8.61743464e+19
8.902183101e+19
8.474019009e+19
8.427304789e+19
8.566852363e+19
8.499905233e+19
8.068468169e+19
8.019076064e+19
8.097627364e+19
8.040796689e+19
7.72986446e+19
7.576629917e+19
7.258259119e+19
9.008108339e+19
9.094693294e+19
9.030721592e+19
8.859932023e+19
8.834343342e+19
8.88611579e+19
8.4433721e+19
8.214264142e+19
8.489193692e+19
8.667719373e+19
8.52727917e+19
8.486515807e+19
8.530254598e+19
8.098519992e+19
7.928325509e+19
7.891430202e+19
7.451364397e+19
7.518013985e+19
7.073485039e+19
7.050574243e+19
8.89563716e+19
8.969130232e+19
8.607318184e+19
8.733773875e+19
8.790902093e+19
8.705804852e+19
8.641833149e+19
8.631716694e+19
8.679918628e+19
8.532337398e+19
8.589763159e+19
8.650759433e+19
8.244911051e+19
7.854534894e+19
7.774198338e+19
7.657264017e+19
7.450769312e+19
7.388285323e+19
7.421610117e+19
7.22969501e+19
9.087552267e+19
9.092610495e+19
8.769479011e+19
8.785843866e+19
8.806076776e+19
8.929259496e+19
8.712053251e+19
8.783761066e+19
8.507641345e+19
8.242530709e+19
8.369581485e+19
8.266929218e+19
8.118157817e+19
7.609359625e+19
7.819424844e+19
7.71498732e+19
7.672438699e+19
7.658751731e+19
7.496293361e+19
7.234753237e+19
9.026555993e+19
8.867668136e+19
8.783761066e+19
9.169376538e+19
8.684679313e+19
8.658495546e+19
8.982222115e+19
8.584407388e+19
8.677538286e+19
8.393384909e+19
8.37434217e+19
8.346373147e+19
8.137200557e+19
7.916423797e+19
7.72450869e+19
7.845906153e+19
7.2796822e+19
7.340678475e+19
7.479035878e+19
7.263019804e+19
9.011083767e+19
8.851600825e+19
9.004835368e+19
8.684976856e+19
8.514782373e+19
8.860527109e+19
8.527874256e+19
8.385351254e+19
8.662661145e+19
8.212478886e+19
8.522816028e+19
8.25651522e+19
7.807523132e+19
7.756048227e+19
7.861973465e+19
7.72659149e+19
7.732244803e+19
7.32639642e+19
7.305568424e+19
7.504327016e+19
8.9869828e+19
9.081303868e+19
8.743295245e+19
8.838211399e+19
8.625468295e+19
8.944434179e+19
8.606425556e+19
8.637072464e+19
8.097924907e+19
8.390111939e+19
8.395765252e+19
8.38386354e+19
7.87952849e+19
7.584961116e+19
7.85304718e+19
7.921184482e+19
7.790265649e+19
7.37727624e+19
7.39959195e+19
7.534081296e+19
8.997396798e+19
8.92539144e+19
9.008703425e+19
8.775132325e+19
8.750436272e+19
8.799233292e+19
8.609400984e+19
8.520435686e+19
8.082155138e+19
8.204147687e+19
8.311560639e+19
7.992297212e+19
7.798299305e+19
7.700407723e+19
7.725698861e+19
7.726293947e+19
7.830136385e+19
7.635840935e+19
7.613227682e+19
7.272838716e+19
9.114926205e+19
9.181873335e+19
8.664148859e+19
8.717409021e+19
8.865287794e+19
8.479969865e+19
8.539775968e+19
8.645701206e+19
8.427899874e+19
8.20444523e+19
8.028597434e+19
8.196411574e+19
8.078584625e+19
7.929813223e+19
7.584663573e+19
7.559074892e+19
7.800084562e+19
7.705168408e+19
7.619476081e+19
7.546578094e+19
9.116413919e+19
8.868560765e+19
8.881950191e+19
8.770074097e+19
8.703424509e+19
8.469258324e+19
8.364225715e+19
8.519245515e+19
8.455273812e+19
8.145829298e+19
7.965220817e+19
8.311263096e+19
8.038118803e+19
8.192543518e+19
7.804845247e+19
7.809308389e+19
7.831029013e+19
7.866734149e+19
7.494210561e+19
7.518609071e+19
8.964964633e+19
8.940566123e+19
8.787034037e+19
8.82244163e+19
8.722467249e+19
8.696283482e+19
8.389516853e+19
8.611781326e+19
8.520733229e+19
8.169335179e+19
8.127679187e+19
8.188080376e+19
8.086023195e+19
8.16516958e+19
8.203552602e+19
7.794431248e+19
7.878933404e+19
7.799787019e+19
7.463563652e+19
7.560562606e+19
9.160747796e+19
9.142895228e+19
8.66950463e+19
9.000669769e+19
9.004537825e+19
8.77781021e+19
8.468365696e+19
8.591548416e+19
8.562686764e+19
8.367796228e+19
8.078882167e+19
8.164574494e+19
8.068468169e+19
8.04406966e+19
8.089296165e+19
7.807523132e+19
7.623344137e+19
7.544792837e+19
7.584068487e+19
7.638816363e+19
8.951277664e+19
9.130695973e+19
8.801911177e+19
8.85636151e+19
8.8298802e+19
9.094098209e+19
8.875999335e+19
8.598094357e+19
8.404691536e+19
8.300551555e+19
8.34458789e+19
8.177666378e+19
8.06221977e+19
7.790265649e+19
7.878933404e+19
7.645362304e+19
7.857807865e+19
7.8997614e+19
7.493615475e+19
7.691183896e+19
9.077733355e+19
9.136051744e+19
8.861419737e+19
9.151226427e+19
8.898315045e+19
8.777512667e+19
8.832260543e+19
8.65998326e+19
8.434743359e+19
8.222297798e+19
8.089296165e+19
8.271987446e+19
8.377615141e+19
7.844120896e+19
8.074716568e+19
7.830136385e+19
8.017885893e+19
7.904522085e+19
7.493615475e+19
7.591209514e+19
9.286905945e+19
8.884330533e+19
8.845352426e+19
8.73645176e+19
9.033399477e+19
8.486218264e+19
8.53144477e+19
8.542156311e+19
8.505261003e+19
8.441884386e+19
7.921779568e+19
7.965220817e+19
8.172013065e+19
8.190758261e+19
8.095544564e+19
7.745336686e+19
8.019076064e+19
7.92415991e+19
7.877148147e+19
7.73403006e+19
8.876296877e+19
8.951872749e+19
8.912597099e+19
8.795960321e+19
8.953360463e+19
8.630526523e+19
8.624278124e+19
8.490978949e+19
8.567447449e+19
8.34458789e+19
8.07917971e+19
8.268714475e+19
8.258300477e+19
8.058649257e+19
8.301146641e+19
7.623939223e+19
7.783124622e+19
8.105958562e+19
7.928027967e+19
7.666487843e+19
8.833153171e+19
9.121472147e+19
9.272326347e+19
8.976866345e+19
8.846245054e+19
8.867965679e+19
8.890578932e+19
9.209544816e+19
8.661768517e+19
8.39874068e+19
8.461224668e+19
8.455571355e+19
8.37969794e+19
8.245506137e+19
8.224380598e+19
7.824780614e+19
7.860783293e+19
8.01758835e+19
7.968196245e+19
7.725996404e+19
9.122662318e+19
9.295237143e+19
8.844162255e+19
8.657305375e+19
8.77245444e+19
8.898017502e+19
8.887008418e+19
8.774239696e+19
8.796852949e+19
8.421949018e+19
8.372556913e+19
8.357084688e+19
8.450215585e+19
8.2139666e+19
8.052995944e+19
7.713202063e+19
7.921482025e+19
8.047937716e+19
8.048235259e+19
7.722128347e+19
9.288988744e+19
9.120877061e+19
8.512997116e+19
8.719789363e+19
8.618029725e+19
8.872131278e+19
8.858146767e+19
8.304717154e+19
8.419866219e+19
8.590060702e+19
8.442777015e+19
8.338339491e+19
8.402906279e+19
8.219024827e+19
8.114884846e+19
8.280616187e+19
7.886074432e+19
8.033060576e+19
7.932193566e+19
8.040796689e+19
9.180088079e+19
8.988470514e+19
8.851005739e+19
8.981924572e+19
8.685274398e+19
8.655520118e+19
9.211330073e+19
8.874214078e+19
8.739427188e+19
8.375234798e+19
8.511509402e+19
8.160706438e+19
8.034845833e+19
8.326437779e+19
8.039011432e+19
7.905414714e+19
7.951236305e+19
8.119943074e+19
8.087213366e+19
8.152672782e+19
8.961989205e+19
9.133671401e+19
9.118794261e+19
9.070592327e+19
9.15687974e+19
8.7554945e+19
8.794472607e+19
8.668612002e+19
8.821251459e+19
8.410939935e+19
8.639155264e+19
8.497227347e+19
8.128869358e+19
8.391599653e+19
8.115182389e+19
8.230033911e+19
7.864056264e+19
8.003008753e+19
8.05150823e+19
8.287162129e+19
8.97954423e+19
9.419907577e+19
9.446686429e+19
9.177112651e+19
8.892066646e+19
9.121174604e+19
8.969725317e+19
8.796852949e+19
8.897422416e+19
8.812622718e+19
8.502880661e+19
8.441884386e+19
8.113397132e+19
8.233901967e+19
8.334471435e+19
8.423734275e+19
8.286269501e+19
7.99318984e+19
8.137795642e+19
7.969386416e+19
9.314874968e+19
9.146168199e+19
9.030424049e+19
8.906943786e+19
8.87659442e+19
8.898017502e+19
9.01881988e+19
8.798638206e+19
8.658198003e+19
8.870643564e+19
8.826012144e+19
8.523708657e+19
8.336851777e+19
8.811730089e+19
8.632609322e+19
8.481160036e+19
8.184212319e+19
8.227058483e+19
8.097032278e+19
8.09822245e+19
9.096478551e+19
8.887008418e+19
9.030126506e+19
8.903968358e+19
9.238108925e+19
9.135456658e+19
8.945029265e+19
8.564769564e+19
8.546916995e+19
8.683191599e+19
9.024770736e+19
8.898612588e+19
8.707590109e+19
8.715921307e+19
8.866180422e+19
8.686167027e+19
8.259490648e+19
8.271094818e+19
8.119050446e+19
8.569232706e+19
9.00185994e+19
9.493698192e+19
9.749585002e+19
9.072675127e+19
9.035184734e+19
9.352960447e+19
9.201808703e+19
8.939375952e+19
8.80964729e+19
8.9105143e+19
8.844162255e+19
8.556140822e+19
8.63558475e+19
8.497822433e+19
8.788224208e+19
8.446645071e+19
8.294898242e+19
8.176178664e+19
8.269309561e+19
8.395170166e+19
9.074757927e+19
9.66865336e+19
9.319933196e+19
9.308924112e+19
9.021200222e+19
8.938483323e+19
8.962881833e+19
8.824821973e+19
8.88611579e+19
8.835235971e+19
8.493061748e+19
8.676348114e+19
8.610888698e+19
8.493954377e+19
8.567744992e+19
8.469258324e+19
8.58559756e+19
8.706102395e+19
8.548107167e+19
8.474911637e+19
8.794175064e+19
9.382119641e+19
9.573439663e+19
9.116413919e+19
8.978056516e+19
9.402947638e+19
9.09737118e+19
8.741509988e+19
8.898315045e+19
9.07832844e+19
8.987577886e+19
8.879867391e+19
8.726930391e+19
8.777215124e+19
8.276450588e+19
8.67158743e+19
8.614756754e+19
8.529064427e+19
8.213669057e+19
8.641535607e+19
9.083089125e+19
9.502922019e+19
9.283335431e+19
9.161045339e+19
9.076245641e+19
9.231265441e+19
9.225612127e+19
9.236918754e+19
8.779000381e+19
9.1420026e+19
8.946219436e+19
8.833153171e+19
8.86171728e+19
9.001264854e+19
8.547512081e+19
8.690035083e+19
8.63975035e+19
8.543941567e+19
8.45081067e+19
8.715623764e+19
9.494293278e+19
9.56243058e+19
9.613607942e+19
9.259234464e+19
9.315172511e+19
9.099156436e+19
8.989363142e+19
8.881652648e+19
9.047086446e+19
9.322611081e+19
9.051252045e+19
8.430875302e+19
9.067319357e+19
9.263995149e+19
8.66742183e+19
8.830475286e+19
8.915572527e+19
8.728418105e+19
8.493656834e+19
8.766503583e+19
9.265780406e+19
9.609739885e+19
9.630270338e+19
9.3755737e+19
9.78231471e+19
9.224124413e+19
9.227397384e+19
9.2205539e+19
9.158069911e+19
9.41484935e+19
9.465431626e+19
8.944434179e+19
9.071484956e+19
9.372300729e+19
8.943839094e+19
8.636477379e+19
8.682894056e+19
8.920928298e+19
8.729608276e+19
8.851600825e+19
9.367540044e+19
9.593970117e+19
9.355638332e+19
8.820358831e+19
9.672521416e+19
9.445496258e+19
9.330347194e+19
9.417824778e+19
9.161342882e+19
9.267565662e+19
9.40324518e+19
9.116413919e+19
9.262209892e+19
9.013166567e+19
9.264887777e+19
9.068509528e+19
9.022390393e+19
9.094990837e+19
9.015249366e+19
8.715028679e+19
9.551421496e+19
9.834682244e+19
9.743634146e+19
9.137837001e+19
9.411576379e+19
9.391641011e+19
9.441033116e+19
9.222636699e+19
9.156284654e+19
9.226504756e+19
9.430321575e+19
9.327074223e+19
9.35325799e+19
8.894149446e+19
9.04857416e+19
8.984304915e+19
8.614459211e+19
8.7554945e+19
9.163128139e+19
9.04321839e+19
9.680555072e+19
9.920672113e+19
9.612715313e+19
9.56243058e+19
9.471680025e+19
9.070592327e+19
9.212520244e+19
9.552016581e+19
9.455612714e+19
9.624914568e+19
9.631162967e+19
9.316957768e+19
9.150036256e+19
9.114628662e+19
9.277384575e+19
8.95722852e+19
8.761742899e+19
8.74597313e+19
9.079518611e+19
9.152416598e+19
6.780263997e+19
6.70842926e+19
6.606234715e+19
6.400492626e+19
6.234839251e+19
6.299018203e+19
6.065209676e+19
5.841845307e+19
5.967431159e+19
6.266646896e+19
6.020618358e+19
6.101878545e+19
6.308268811e+19
6.445005498e+19
6.135113863e+19
6.2250411e+19
6.248296182e+19
6.396227262e+19
6.158352032e+19
5.868020521e+19
6.108099694e+19
6.29902125e+19
6.18589538e+19
6.44926302e+19
6.339444755e+19
6.213414848e+19
6.269727755e+19
6.278658153e+19
6.60783037e+19
6.630589804e+19
6.361573483e+19
6.68865537e+19
6.531602809e+19
6.752623219e+19
7.06118796e+19
7.120239889e+19
7.138391719e+19
7.613170049e+19
7.472083029e+19
8.201782796e+19
6.828039673e+19
6.515711869e+19
6.551137353e+19
6.528222025e+19
6.500073183e+19
6.23471412e+19
6.00978836e+19
5.875712899e+19
6.028706851e+19
6.063347543e+19
6.025105143e+19
6.263303903e+19
6.384377855e+19
6.278211325e+19
6.194213281e+19
5.880721014e+19
5.995199792e+19
6.224278404e+19
6.236654922e+19
6.006983697e+19
6.241937004e+19
6.401506709e+19
6.415002611e+19
6.146389244e+19
6.33944475e+19
6.305233392e+19
6.383366344e+19
6.43901105e+19
6.298076779e+19
6.412399915e+19
6.495264171e+19
6.711003924e+19
6.825437059e+19
7.035941981e+19
7.049132178e+19
7.494183939e+19
7.366056889e+19
7.374234626e+19
7.831372072e+19
8.542438424e+19
6.86924619e+19
6.650102934e+19
6.697357281e+19
6.530660772e+19
6.677816759e+19
6.6356872e+19
6.140246408e+19
6.188988086e+19
6.105459393e+19
6.137477041e+19
6.288863731e+19
6.29365187e+19
6.393810172e+19
6.371930644e+19
6.430610957e+19
5.992832962e+19
6.327074524e+19
6.238466719e+19
6.394622495e+19
6.378924658e+19
6.322170219e+19
6.487259849e+19
6.708414486e+19
6.32315417e+19
6.508010916e+19
6.546842187e+19
6.632064213e+19
6.459878894e+19
6.761414985e+19
6.51218642e+19
6.530940045e+19
6.541685255e+19
6.895361203e+19
6.974267148e+19
7.117966802e+19
7.61817797e+19
7.494737193e+19
7.59159394e+19
8.294697674e+19
8.274635083e+19
7.098569427e+19
6.918584422e+19
6.643773584e+19
6.586142272e+19
6.582958782e+19
6.572001421e+19
6.265411417e+19
6.308778998e+19
6.438369594e+19
6.295916913e+19
6.541084887e+19
6.31786567e+19
6.313147596e+19
6.480396015e+19
6.430610952e+19
6.153515671e+19
6.288523423e+19
6.255357569e+19
6.18558782e+19
6.435539288e+19
6.268566133e+19
6.340852045e+19
6.361239717e+19
6.525424261e+19
6.453726898e+19
6.558724586e+19
6.664376783e+19
6.560190983e+19
6.904292974e+19
6.68718514e+19
6.732978222e+19
6.788276871e+19
6.94770878e+19
7.015897654e+19
7.418194654e+19
7.576585033e+19
7.54858496e+19
7.908443112e+19
8.270099891e+19
8.6535483e+19
6.955541002e+19
6.991041346e+19
6.752757384e+19
6.81629907e+19
6.610894309e+19
6.6316682e+19
6.542206664e+19
6.552437478e+19
6.466796466e+19
6.357956626e+19
6.577299615e+19
6.104138495e+19
6.152798196e+19
6.294595817e+19
6.301846857e+19
6.378404933e+19
6.426301723e+19
6.270559335e+19
6.206695555e+19
6.424902595e+19
6.29000777e+19
6.596019933e+19
6.624080539e+19
6.412067996e+19
6.436941709e+19
6.428018189e+19
6.518788692e+19
6.469031467e+19
6.671700895e+19
6.604153827e+19
6.865917822e+19
6.779564713e+19
7.156334914e+19
7.118817537e+19
7.431417137e+19
7.591495695e+19
7.712899783e+19
8.047888721e+19
8.278567983e+19
8.95431837e+19
7.102152603e+19
7.283574921e+19
6.944992695e+19
6.801056889e+19
6.642206639e+19
6.529647282e+19
6.789734462e+19
6.659998418e+19
6.273809613e+19
6.25837494e+19
6.578261077e+19
6.286549159e+19
6.148569925e+19
6.421739518e+19
6.382406962e+19
6.309208238e+19
6.19365418e+19
6.292179623e+19
6.409261726e+19
6.512054811e+19
6.412778424e+19
6.387911694e+19
6.682411512e+19
6.561202322e+19
6.654792039e+19
6.696632438e+19
6.703950605e+19
6.541519755e+19
6.648072493e+19
6.802237496e+19
6.752506074e+19
7.001156276e+19
7.116596645e+19
7.05945551e+19
7.479640199e+19
7.520081421e+19
7.940169077e+19
8.194925895e+19
8.533013953e+19
8.704015768e+19
7.084236725e+19
6.859957441e+19
6.548715491e+19
6.668450007e+19
6.803373098e+19
6.648671684e+19
6.635613384e+19
6.540834693e+19
6.37456707e+19
6.054439277e+19
6.466091557e+19
6.294297567e+19
6.319652638e+19
6.462373059e+19
6.422356843e+19
6.468227565e+19
6.427642631e+19
6.317515899e+19
6.614891922e+19
6.606412532e+19
6.704315522e+19
6.600551603e+19
6.486335084e+19
6.774808045e+19
6.834786414e+19
6.806454612e+19
6.881125146e+19
6.903961245e+19
6.618906206e+19
7.004044578e+19
6.696175776e+19
6.8810802e+19
6.998145885e+19
7.282641361e+19
7.48702937e+19
7.666441539e+19
7.662219606e+19
7.966378961e+19
8.57051558e+19
9.068684321e+19
7.33296883e+19
7.15459558e+19
7.039445327e+19
6.698629497e+19
6.77206075e+19
6.686079346e+19
6.600741541e+19
6.739649977e+19
6.471218419e+19
6.218287739e+19
6.280531138e+19
6.499630628e+19
6.482929313e+19
6.432880975e+19
6.336844278e+19
6.657187765e+19
6.544636856e+19
6.185767265e+19
6.739155209e+19
6.704544555e+19
6.805990368e+19
6.726392581e+19
6.521825617e+19
6.844592996e+19
6.979781905e+19
6.593651656e+19
6.789996426e+19
6.600096125e+19
6.894324713e+19
6.814896944e+19
6.857280456e+19
7.198884013e+19
7.183846009e+19
7.355494694e+19
7.702477722e+19
7.755120683e+19
7.633711833e+19
8.142184222e+19
8.483415129e+19
9.039787442e+19
7.120964275e+19
7.258019573e+19
6.893528122e+19
6.792521278e+19
6.797540408e+19
6.690098351e+19
6.545631572e+19
6.521705777e+19
6.708740688e+19
6.63761254e+19
6.540764407e+19
6.502536284e+19
6.65043425e+19
6.542329406e+19
6.569610146e+19
6.58566234e+19
6.592574318e+19
6.431360231e+19
6.694216154e+19
6.843850849e+19
6.52413659e+19
6.95367327e+19
6.479658651e+19
6.603002466e+19
6.756931715e+19
6.678988832e+19
6.60084082e+19
6.744340571e+19
6.734094639e+19
6.967927739e+19
6.959801739e+19
7.475778863e+19
7.464306845e+19
7.609132442e+19
7.508418529e+19
7.761398931e+19
8.106067693e+19
8.557724174e+19
8.707617943e+19
9.408118879e+19
7.352676301e+19
6.911970096e+19
6.797561836e+19
6.878487124e+19
6.799075322e+19
6.716685623e+19
6.72559519e+19
6.708291099e+19
6.635462541e+19
6.679926803e+19
6.621205966e+19
6.568397825e+19
6.376571799e+19
6.70977896e+19
6.520415654e+19
6.553725399e+19
6.371994938e+19
6.43710313e+19
6.711238516e+19
6.783461891e+19
6.828123702e+19
6.810054181e+19
6.609673458e+19
6.78224705e+19
6.715504411e+19
6.857945027e+19
6.993311529e+19
6.739581238e+19
6.946011872e+19
6.966066108e+19
7.290273089e+19
7.671612689e+19
7.541490873e+19
7.459185505e+19
7.417027992e+19
7.995653489e+19
8.126260531e+19
8.638035247e+19
8.881415449e+19
9.103278813e+19
7.186954425e+19
6.82568321e+19
6.761839363e+19
7.08791456e+19
7.019182645e+19
6.830454389e+19
6.809972589e+19
6.530799847e+19
6.645569872e+19
6.4429033e+19
6.612873374e+19
6.579374736e+19
6.824769471e+19
6.735011069e+19
6.626068244e+19
6.460576017e+19
6.436693789e+19
6.61107891e+19
6.573697804e+19
6.711406919e+19
6.606444786e+19
6.94147261e+19
6.579805235e+19
6.486458045e+19
6.859785671e+19
6.856504736e+19
6.869870138e+19
6.705533649e+19
6.800180327e+19
6.722184856e+19
6.984587091e+19
7.205323547e+19
7.530409998e+19
7.493492131e+19
7.633643099e+19
7.857925935e+19
8.377286194e+19
8.581298071e+19
8.945531083e+19
9.709702982e+19
7.060348888e+19
6.92068898e+19
7.172950483e+19
6.871475721e+19
6.885030762e+19
6.906815498e+19
6.910851876e+19
6.667211012e+19
6.835398208e+19
6.665291823e+19
6.724081456e+19
6.593257364e+19
6.667022158e+19
6.652105547e+19
7.014011345e+19
6.813878331e+19
6.56106293e+19
6.551960834e+19
6.593784147e+19
6.541563083e+19
6.57255327e+19
6.905219304e+19
6.701035291e+19
6.612212652e+19
7.094778272e+19
6.952644153e+19
6.8179523e+19
6.734821905e+19
6.948596228e+19
7.284042447e+19
7.146067349e+19
7.253050833e+19
7.417308523e+19
7.861613787e+19
7.793479564e+19
8.023120593e+19
8.456474077e+19
8.415881234e+19
8.834639322e+19
9.558707301e+19
7.059751692e+19
7.150085827e+19
7.151759212e+19
7.015361824e+19
7.06246732e+19
7.117658694e+19
6.930155893e+19
6.925294474e+19
6.890040901e+19
6.636021778e+19
6.705172838e+19
6.702380834e+19
6.600670635e+19
6.852324093e+19
6.851570487e+19
6.885403812e+19
6.782648082e+19
6.737084656e+19
6.464073758e+19
6.667830811e+19
6.583273986e+19
6.952627435e+19
6.743202214e+19
6.559076902e+19
7.064422078e+19
6.923838279e+19
7.194085081e+19
7.117032933e+19
7.033879993e+19
7.460902917e+19
7.061196418e+19
7.220853895e+19
7.567473615e+19
7.681985837e+19
7.962649266e+19
8.095319511e+19
8.319083026e+19
8.640033035e+19
8.998759008e+19
9.377594095e+19
7.391195409e+19
7.196085391e+19
6.999484548e+19
7.043407395e+19
7.238676007e+19
7.016874398e+19
6.929221801e+19
7.079266612e+19
6.849611579e+19
6.698061439e+19
7.082062392e+19
6.812472977e+19
6.704426126e+19
6.756310895e+19
6.876993142e+19
6.951606367e+19
6.945903532e+19
6.935045372e+19
7.120115794e+19
6.828410485e+19
6.659703044e+19
6.573012983e+19
6.755852307e+19
6.873994722e+19
7.14906229e+19
7.210816293e+19
7.112759062e+19
6.953018948e+19
7.279024666e+19
7.417339344e+19
7.475036554e+19
7.394339174e+19
7.584285977e+19
7.663483388e+19
8.144652678e+19
8.039208356e+19
8.227225082e+19
8.560521e+19
9.009243312e+19
9.695865031e+19
7.119769921e+19
7.192778291e+19
7.04792184e+19
7.102547069e+19
7.140134283e+19
6.988741408e+19
7.013287898e+19
7.311635946e+19
6.802865223e+19
6.839639284e+19
6.866376497e+19
6.977449744e+19
6.681008008e+19
6.793339906e+19
6.968448717e+19
7.075362046e+19
7.124244351e+19
7.038079613e+19
6.84741747e+19
7.030164436e+19
6.921844392e+19
6.807962694e+19
6.881299114e+19
7.121253131e+19
7.121563206e+19
7.19713353e+19
7.192269768e+19
7.262375632e+19
7.188941442e+19
7.609837999e+19
7.466023762e+19
7.455703048e+19
7.474623522e+19
7.689309724e+19
7.889925749e+19
8.317410242e+19
8.539225416e+19
8.641631265e+19
8.882222014e+19
9.39387402e+19
7.396570187e+19
7.337090847e+19
7.081525226e+19
7.226618345e+19
7.178814182e+19
6.909597915e+19
7.219405393e+19
7.251426798e+19
6.904254335e+19
6.94590217e+19
7.016683592e+19
6.691081059e+19
6.761670535e+19
6.763192433e+19
6.853221309e+19
6.909356514e+19
7.098096698e+19
7.022202213e+19
7.096624981e+19
7.353725675e+19
6.942940142e+19
6.974588605e+19
6.948063438e+19
6.923942381e+19
6.954425515e+19
6.950843789e+19
7.096784366e+19
7.235650149e+19
7.261303364e+19
7.50744513e+19
7.364629205e+19
7.620855034e+19
7.65497432e+19
7.969544743e+19
8.011261289e+19
8.178505384e+19
8.47864661e+19
8.690776847e+19
9.104408536e+19
9.381257145e+19
7.488836958e+19
7.576409117e+19
7.371240398e+19
7.202535665e+19
7.071062898e+19
6.941131602e+19
7.268910955e+19
7.379998299e+19
7.317391523e+19
7.008260031e+19
7.091676921e+19
7.072044953e+19
6.957472484e+19
6.95849563e+19
6.849589501e+19
6.90769308e+19
7.01764211e+19
7.190097159e+19
6.874312758e+19
7.049722271e+19
7.17257326e+19
7.306446393e+19
7.105486871e+19
6.862304912e+19
7.054065259e+19
6.897552971e+19
7.059388863e+19
7.449820121e+19
7.778913051e+19
7.74350717e+19
7.517472079e+19
7.568960818e+19
7.959125173e+19
7.950656894e+19
8.335989743e+19
8.498692665e+19
8.153184484e+19
8.940100775e+19
9.274576859e+19
9.315730708e+19
7.428520169e+19
7.379182009e+19
7.141466317e+19
7.325082722e+19
7.183418889e+19
7.171451531e+19
7.191694683e+19
7.243900719e+19
7.181890122e+19
7.246237991e+19
7.201603093e+19
7.072367804e+19
7.009838006e+19
6.99978451e+19
7.197252556e+19
6.993523648e+19
7.116534184e+19
7.245161441e+19
7.132712346e+19
7.268975234e+19
7.2310189e+19
7.204658057e+19
7.132192622e+19
7.21689748e+19
7.037637257e+19
7.424699549e+19
7.723430327e+19
7.651908648e+19
7.905915713e+19
7.733454052e+19
7.371013249e+19
7.662521819e+19
7.654210121e+19
7.855831771e+19
8.267932767e+19
8.423354367e+19
8.385600847e+19
8.765893671e+19
9.063681046e+19
9.400385955e+19
7.733090145e+19
7.435704426e+19
7.465693076e+19
7.394891918e+19
7.558553038e+19
7.4988459e+19
7.522977233e+19
7.239824065e+19
7.219792561e+19
7.097979045e+19
7.27563497e+19
7.271889547e+19
7.188076382e+19
7.044022701e+19
7.151029548e+19
7.107964282e+19
7.335772538e+19
7.194826651e+19
7.033642168e+19
7.468327352e+19
7.449931146e+19
7.353157396e+19
7.158195535e+19
7.535357738e+19
7.537621575e+19
7.516517972e+19
7.568402604e+19
7.775651361e+19
7.73977851e+19
7.858559585e+19
7.428470199e+19
7.974643852e+19
8.037455566e+19
8.046638284e+19
8.102262994e+19
8.522628148e+19
8.648504695e+19
8.76109898e+19
9.121344802e+19
9.237180571e+19
7.906276913e+19
7.629925074e+19
7.412714839e+19
7.501282224e+19
7.635605951e+19
7.650640698e+19
7.295687548e+19
7.648743828e+19
7.473107586e+19
7.159700551e+19
7.322105144e+19
7.37391032e+19
7.228407618e+19
7.229167511e+19
7.106457414e+19
7.326865418e+19
7.190619299e+19
6.993487767e+19
7.107519242e+19
7.345833882e+19
7.400476992e+19
7.389410756e+19
7.430172587e+19
7.667134396e+19
7.494765771e+19
7.086231132e+19
7.589460295e+19
7.80018023e+19
7.80512581e+19
7.696220282e+19
7.810765466e+19
7.767067571e+19
8.224684148e+19
8.218556879e+19
8.186653537e+19
8.462985521e+19
8.81638293e+19
8.836615283e+19
8.965289883e+19
9.054846375e+19
7.794601274e+19
7.43931219e+19
7.587391653e+19
7.427205321e+19
7.404447213e+19
7.356325783e+19
7.272024512e+19
7.974562622e+19
7.471528316e+19
7.263100066e+19
7.148082212e+19
7.338073997e+19
7.386805553e+19
7.400221653e+19
7.658161982e+19
7.525140563e+19
7.282136326e+19
7.353262884e+19
7.021726511e+19
7.125208443e+19
7.250731484e+19
7.411371983e+19
7.240421194e+19
7.476908473e+19
7.480837695e+19
7.502835208e+19
7.629760118e+19
7.55489142e+19
7.565518981e+19
7.668294955e+19
7.996655533e+19
8.24358394e+19
8.265186587e+19
8.037001591e+19
8.535104442e+19
8.845561909e+19
8.914971844e+19
9.416373406e+19
9.279012526e+19
9.338115486e+19
7.862084414e+19
7.700878696e+19
7.624325052e+19
7.561336431e+19
7.357171721e+19
7.296968164e+19
7.257390742e+19
7.61487624e+19
7.291491489e+19
7.35154642e+19
7.100009514e+19
7.306757372e+19
7.100583403e+19
7.346808141e+19
7.413840367e+19
7.349820036e+19
7.286494168e+19
7.389071376e+19
7.438093558e+19
7.404164106e+19
7.377652025e+19
7.477603967e+19
7.5071272e+19
7.338401168e+19
7.509408231e+19
7.626700346e+19
7.628307992e+19
7.665820606e+19
7.640834639e+19
7.599412607e+19
7.742793583e+19
7.967825719e+19
7.982433289e+19
8.202367306e+19
8.422713593e+19
8.4692637e+19
8.726900699e+19
9.26893666e+19
9.058035651e+19
9.823661766e+19
7.949872216e+19
7.879465535e+19
7.518368579e+19
7.771678344e+19
7.577586028e+19
7.627454075e+19
7.36854479e+19
7.260207335e+19
7.335395154e+19
7.287597797e+19
7.275314434e+19
7.265109682e+19
7.210844045e+19
7.418899979e+19
7.499683096e+19
7.306572102e+19
7.325715783e+19
7.495821663e+19
7.347875068e+19
7.372254042e+19
7.527397645e+19
7.356643296e+19
7.637493553e+19
7.462384642e+19
7.534050258e+19
7.762087565e+19
7.56077829e+19
7.760641158e+19
7.905546519e+19
8.023132784e+19
8.157760315e+19
8.504948388e+19
8.343134884e+19
8.377369572e+19
8.377601489e+19
8.754528389e+19
8.687306758e+19
8.847003859e+19
8.932627323e+19
9.648653498e+19
7.726819588e+19
7.898707209e+19
7.598895499e+19
7.625658342e+19
7.893779201e+19
7.778012257e+19
7.795724856e+19
7.570346634e+19
7.509114951e+19
7.365545123e+19
7.515677724e+19
7.450425994e+19
7.456409496e+19
7.476245717e+19
7.556471364e+19
7.46692219e+19
7.373318018e+19
7.638380384e+19
7.475542823e+19
7.347892596e+19
7.769826528e+19
7.772859813e+19
8.151227879e+19
7.85913157e+19
7.554763896e+19
7.880911625e+19
7.766634837e+19
7.785536129e+19
7.754546261e+19
8.060366554e+19
8.191183054e+19
8.028053163e+19
8.116932189e+19
8.251321633e+19
8.591494463e+19
8.755313162e+19
8.630291405e+19
9.286517194e+19
8.924159151e+19
9.483006137e+19
7.949872216e+19
7.669611027e+19
7.72210774e+19
7.957023148e+19
7.96438551e+19
8.13353961e+19
7.809424508e+19
7.936304791e+19
7.773484763e+19
7.411677162e+19
7.167952188e+19
7.793616306e+19
7.633346815e+19
7.69186569e+19
7.601373715e+19
7.446296196e+19
7.58249967e+19
7.718443073e+19
7.556569292e+19
7.507099852e+19
7.543651847e+19
7.910204149e+19
7.956205552e+19
7.652610624e+19
7.676902998e+19
7.693673811e+19
7.878457986e+19
8.037414595e+19
8.148845224e+19
8.09462169e+19
8.099927965e+19
8.113280609e+19
8.19717294e+19
8.412447133e+19
8.375268112e+19
8.711758294e+19
9.076911144e+19
9.384009242e+19
9.271350919e+19
9.837499539e+19
7.979433414e+19
8.068575059e+19
7.811716643e+19
7.884165623e+19
7.794930499e+19
7.639511092e+19
7.579643924e+19
7.715538183e+19
7.703049303e+19
7.916903151e+19
7.578492596e+19
7.898865582e+19
7.798900135e+19
7.989735776e+19
7.783954655e+19
7.454613218e+19
7.784306386e+19
7.736347375e+19
7.794882434e+19
7.886589368e+19
7.507339399e+19
7.841183453e+19
7.802998934e+19
7.583888389e+19
8.006892623e+19
7.919079333e+19
7.761915024e+19
7.930146624e+19
8.108233907e+19
8.440151009e+19
8.274176358e+19
8.189417189e+19
8.44362696e+19
8.494166286e+19
8.830276642e+19
8.946797546e+19
9.175499897e+19
9.295307377e+19
9.376597204e+19
9.527368698e+19
7.819384905e+19
7.533716653e+19
7.577704204e+19
7.93995197e+19
7.831154577e+19