/*--------------------------------*- C++ -*----------------------------------*\
  =========                 |
  \\      /  F ield         | OpenFOAM: The Open Source CFD Toolbox
   \\    /   O peration     | Website:  https://openfoam.org
    \\  /    A nd           | Version:  7
     \\/     M anipulation  |
\*---------------------------------------------------------------------------*/
FoamFile
{
    version     2.0;
    format      ascii;
    class       volScalarField;
    location    "0.01";
    object      internalE;
}
// * * * * * * * * * * * * * * * * * * * * * * * * * * * * * * * * * * * * * //

dimensions      [1 -1 -2 0 0 0 0];

internalField   nonuniform List<scalar> 
1000
(
0.350244
0.358301
0.354259
0.353233
0.351156
0.356369
0.344687
0.367451
0.336226
0.3543
0.358971
0.361639
0.378488
0.336601
0.352513
0.388567
0.36788
0.35293
0.371157
0.354199
0.349368
0.366794
0.350202
0.343514
0.376262
0.352914
0.334915
0.327768
0.351479
0.357178
0.349476
0.343796
0.345926
0.344408
0.362076
0.356283
0.327464
0.339997
0.36613
0.367698
0.377815
0.362853
0.33901
0.344762
0.380257
0.364911
0.357846
0.348208
0.336247
0.373019
0.372101
0.369895
0.330093
0.374852
0.346092
0.348347
0.345385
0.35611
0.348963
0.354965
0.366899
0.361797
0.353433
0.333679
0.34143
0.378374
0.353759
0.348888
0.366898
0.345811
0.359494
0.371202
0.351511
0.381058
0.353648
0.361398
0.356848
0.383335
0.360725
0.360011
0.358373
0.347545
0.333428
0.350463
0.36246
0.347778
0.354733
0.326759
0.334766
0.350232
0.361223
0.34807
0.34066
0.325481
0.374457
0.359998
0.348888
0.353934
0.354887
0.346323
0.348054
0.382997
0.345879
0.357686
0.340329
0.349752
0.350206
0.350883
0.357867
0.37081
0.365793
0.377988
0.365167
0.335023
0.342988
0.355556
0.357978
0.348414
0.359178
0.349496
0.361934
0.363009
0.351079
0.352086
0.34364
0.358411
0.34922
0.373866
0.353312
0.360381
0.376003
0.343533
0.322123
0.331306
0.349001
0.358634
0.340694
0.353181
0.350643
0.349561
0.361929
0.385413
0.345182
0.341448
0.350762
0.349605
0.352887
0.352016
0.355765
0.345716
0.336747
0.367263
0.354976
0.346105
0.328223
0.360816
0.347537
0.338145
0.352401
0.343476
0.345315
0.347449
0.376971
0.330875
0.355786
0.347267
0.366093
0.350344
0.334273
0.347235
0.340171
0.335213
0.360719
0.353607
0.367404
0.346376
0.357893
0.348252
0.344367
0.345944
0.345927
0.362083
0.32767
0.367874
0.352627
0.338381
0.350935
0.326068
0.345011
0.357789
0.356262
0.325919
0.360651
0.351692
0.35456
0.352973
0.344778
0.356139
0.36012
0.32267
0.356954
0.346685
0.345246
0.324229
0.35161
0.340803
0.347992
0.352033
0.337231
0.35649
0.341187
0.354945
0.335724
0.331145
0.345564
0.349326
0.348987
0.361563
0.342115
0.332143
0.343553
0.346125
0.363477
0.324307
0.351827
0.308496
0.357362
0.349888
0.325784
0.360176
0.340193
0.36181
0.370403
0.342174
0.351706
0.338755
0.362787
0.359738
0.345226
0.358084
0.348367
0.353793
0.356489
0.352643
0.32919
0.345334
0.320781
0.346436
0.330394
0.331569
0.349734
0.350779
0.361242
0.360092
0.315821
0.351738
0.320198
0.365962
0.360974
0.344647
0.318474
0.354724
0.32714
0.351484
0.336935
0.333512
0.360237
0.347733
0.348036
0.354072
0.318519
0.344428
0.335307
0.354668
0.343248
0.348292
0.347565
0.341396
0.327083
0.348343
0.357696
0.336468
0.320954
0.322743
0.32742
0.316179
0.362717
0.346028
0.342623
0.330413
0.355412
0.317137
0.359251
0.354478
0.333814
0.332783
0.332147
0.347333
0.340991
0.359492
0.353662
0.32992
0.333928
0.328217
0.343053
0.302446
0.312845
0.335587
0.346139
0.335173
0.344479
0.31842
0.339532
0.330198
0.318168
0.331457
0.335877
0.355241
0.353245
0.338768
0.343049
0.333369
0.340508
0.34475
0.326438
0.353373
0.327187
0.329709
0.311533
0.340098
0.356372
0.319526
0.333782
0.343509
0.311231
0.322534
0.328678
0.322432
0.334736
0.341173
0.353126
0.335412
0.34322
0.348005
0.329205
0.321676
0.299895
0.340067
0.313643
0.360418
0.310859
0.324154
0.322824
0.326835
0.345012
0.310267
0.30616
0.317256
0.341138
0.327123
0.318183
0.323011
0.326774
0.347524
0.337039
0.327659
0.312986
0.333693
0.31522
0.332672
0.33519
0.318669
0.331116
0.320661
0.33887
0.342468
0.315228
0.334974
0.334644
0.315296
0.30929
0.311464
0.337473
0.335196
0.353742
0.318078
0.339004
0.30012
0.31423
0.325383
0.334687
0.327143
0.347623
0.320552
0.313841
0.304695
0.325675
0.324634
0.322851
0.334456
0.330752
0.31384
0.309748
0.327669
0.316891
0.334721
0.310108
0.341592
0.325004
0.350686
0.344266
0.308201
0.328553
0.321545
0.317333
0.327903
0.314983
0.32209
0.314022
0.334934
0.341564
0.31786
0.299468
0.338388
0.316207
0.310804
0.311734
0.327291
0.314979
0.311511
0.327067
0.28713
0.316851
0.304755
0.316945
0.3168
0.322724
0.294038
0.305382
0.31768
0.31966
0.307941
0.306955
0.322108
0.321112
0.305275
0.303057
0.350595
0.322515
0.313075
0.310533
0.319899
0.298289
0.304428
0.310452
0.324909
0.310066
0.310485
0.31502
0.308616
0.319505
0.310255
0.317204
0.33106
0.323517
0.320803
0.311467
0.290296
0.317562
0.305586
0.308994
0.292161
0.31378
0.293972
0.315229
0.273199
0.318758
0.31649
0.295759
0.310455
0.287411
0.283533
0.315866
0.310925
0.284386
0.311475
0.328196
0.318741
0.304098
0.302215
0.29723
0.295823
0.28813
0.288587
0.284558
0.322695
0.311668
0.306048
0.290155
0.306131
0.282474
0.299135
0.273915
0.297487
0.285824
0.296885
0.291657
0.302536
0.278468
0.293956
0.289154
0.281172
0.293785
0.282576
0.267042
0.297952
0.269364
0.288328
0.29069
0.273441
0.312398
0.262934
0.28866
0.273594
0.26682
0.296915
0.285172
0.271749
0.301323
0.268686
0.277511
0.266938
0.261754
0.273694
0.262259
0.239376
0.264813
0.268344
0.253469
0.261706
0.27314
0.274378
0.275776
0.267661
0.252098
0.245686
0.244012
0.278654
0.25545
0.237068
0.254568
0.256709
0.275404
0.268283
0.281697
0.267355
0.245634
0.258253
0.237307
0.269065
0.240945
0.238683
0.249358
0.258956
0.25313
0.233214
0.243565
0.259164
0.234031
0.21717
0.24072
0.248531
0.242265
0.23068
0.240116
0.249104
0.216015
0.232557
0.239442
0.225325
0.222848
0.234074
0.218325
0.23803
0.224128
0.204127
0.205365
0.20248
0.204196
0.234055
0.206371
0.211017
0.204597
0.212027
0.200676
0.212925
0.215378
0.206188
0.204612
0.207505
0.175653
0.205388
0.216075
0.199848
0.197766
0.193485
0.177289
0.187885
0.188069
0.19252
0.173177
0.196783
0.186326
0.175909
0.169085
0.193662
0.17844
0.187316
0.181066
0.184188
0.161589
0.186523
0.183807
0.163697
0.174815
0.175518
0.165755
0.178256
0.162306
0.166603
0.170821
0.164634
0.178735
0.161772
0.161964
0.151384
0.15873
0.170318
0.15562
0.162512
0.158462
0.153323
0.164299
0.153489
0.160612
0.14525
0.161069
0.167432
0.161709
0.167242
0.14347
0.155009
0.16415
0.143708
0.158177
0.151617
0.138847
0.144632
0.161829
0.16951
0.140904
0.154266
0.152559
0.145217
0.146985
0.163485
0.159956
0.155194
0.139857
0.153124
0.140913
0.149531
0.145842
0.135332
0.144882
0.152005
0.136972
0.155882
0.161146
0.146625
0.131727
0.13954
0.141205
0.137906
0.148692
0.154841
0.149059
0.144271
0.14404
0.151544
0.143551
0.152121
0.151565
0.161088
0.151269
0.124979
0.13249
0.141903
0.143135
0.136875
0.141415
0.133266
0.146576
0.132738
0.150682
0.140705
0.142183
0.147558
0.134075
0.132887
0.130175
0.136219
0.143142
0.152651
0.145341
0.150715
0.149387
0.153911
0.122721
0.147244
0.13639
0.142906
0.140949
0.126829
0.148574
0.159316
0.157735
0.147626
0.11637
0.145132
0.153415
0.144368
0.154902
0.131237
0.139839
0.128941
0.132024
0.150456
0.154762
0.140615
0.138175
0.129927
0.148994
0.138392
0.150597
0.133007
0.14223
0.150376
0.14376
0.123851
0.129153
0.138765
0.148814
0.139019
0.14336
0.136744
0.134799
0.139071
0.146566
0.148493
0.129441
0.128328
0.143582
0.126898
0.13636
0.160195
0.135512
0.141706
0.141151
0.148277
0.137821
0.128026
0.141807
0.136067
0.135247
0.148601
0.134265
0.142438
0.14297
0.136913
0.144739
0.135984
0.131769
0.131558
0.138836
0.153618
0.139425
0.132827
0.145508
0.14267
0.139199
0.134751
0.135011
0.133391
0.142556
0.140084
0.121943
0.149999
0.13736
0.144967
0.133902
0.14675
0.139928
0.146663
0.1439
0.140286
0.140986
0.15327
0.141446
0.136043
0.140584
0.127202
0.159536
0.152541
0.147742
0.145379
0.136284
0.137613
0.15134
0.135544
0.135811
0.149647
0.131493
0.134834
0.12612
0.138736
0.13776
0.132315
0.142565
0.134794
0.132669
0.139284
0.134957
0.123786
0.125763
0.134084
0.135632
0.130674
0.131381
0.129824
0.129672
0.134503
0.132182
0.13414
0.131244
0.14318
0.123247
0.135147
0.141089
0.132311
0.13844
0.138918
0.131966
0.128895
0.126687
0.134568
0.150575
0.133729
0.145546
0.140004
0.131165
0.134579
0.14842
0.131288
0.150386
0.143657
0.136291
0.132844
0.128833
0.144259
0.126285
0.131471
0.127563
0.13449
0.153869
0.152511
0.132745
0.153374
0.149281
0.141427
0.1451
0.131864
0.144668
0.136989
0.128185
0.127808
0.151963
0.136663
0.125154
0.134384
0.149861
0.133904
0.135579
0.137528
0.141718
0.137824
0.145168
0.13894
0.133439
0.128613
0.135856
0.145696
0.129984
0.145826
0.159489
0.128389
0.137383
0.137355
0.126139
0.143377
0.14007
0.139853
0.133204
0.126493
0.125354
0.133258
0.141113
0.138076
0.132533
0.137476
0.136276
0.148295
0.136511
0.134148
0.150716
0.138911
0.137117
0.139505
0.136963
0.133542
0.126261
0.132528
0.140076
0.134713
0.140839
0.152672
0.135112
0.135338
0.13912
0.150473
0.142195
0.12226
0.129367
0.13242
0.130273
0.133353
0.134727
0.136443
0.129297
0.137807
0.158829
0.135397
0.137421
0.139992
0.139179
0.123444
0.150763
0.133164
0.132515
0.129333
0.153776
0.137238
0.144809
0.139312
0.156704
0.144947
0.132211
0.137234
0.139325
0.136838
0.142239
0.141511
0.128091
0.137715
0.14235
0.138353
0.142145
0.127538
0.115731
0.154193
0.132195
0.147258
0.134816
0.145117
0.129149
0.147151
0.154883
0.13429
0.133075
0.144157
0.151233
0.127294
0.152526
0.141384
0.143687
0.12485
0.148909
0.147802
0.148294
0.141877
)
;

boundaryField
{
    sides
    {
        type            symmetry;
    }
    empty
    {
        type            empty;
    }
}


// ************************************************************************* //
