/*--------------------------------*- C++ -*----------------------------------*\
  =========                 |
  \\      /  F ield         | OpenFOAM: The Open Source CFD Toolbox
   \\    /   O peration     | Website:  https://openfoam.org
    \\  /    A nd           | Version:  7
     \\/     M anipulation  |
\*---------------------------------------------------------------------------*/
FoamFile
{
    version     2.0;
    format      ascii;
    class       volScalarField;
    location    "0.01";
    object      rhoM;
}
// * * * * * * * * * * * * * * * * * * * * * * * * * * * * * * * * * * * * * //

dimensions      [1 -3 0 0 0 0 0];

internalField   nonuniform List<scalar> 
1000
(
9.36045e-06
9.80685e-06
9.91845e-06
9.486e-06
9.72315e-06
9.98123e-06
9.36045e-06
9.71618e-06
9.3465e-06
9.91148e-06
9.8766e-06
9.69525e-06
9.74407e-06
9.47903e-06
9.68828e-06
9.9045e-06
9.7929e-06
9.40928e-06
9.74408e-06
9.58365e-06
9.52087e-06
9.95333e-06
9.44415e-06
9.79988e-06
9.81382e-06
9.8766e-06
9.17213e-06
9.36045e-06
9.89055e-06
9.91845e-06
9.52088e-06
9.38835e-06
9.59062e-06
9.5418e-06
9.58365e-06
9.94635e-06
9.49995e-06
9.61155e-06
9.70222e-06
1.01905e-05
9.8208e-06
9.77198e-06
9.36045e-06
9.32558e-06
1.04137e-05
9.6813e-06
9.89752e-06
9.69525e-06
9.63247e-06
1.00928e-05
1.0323e-05
9.97425e-06
9.27675e-06
9.96728e-06
9.36742e-06
9.486e-06
1.00579e-05
9.75803e-06
9.4581e-06
9.83475e-06
9.82777e-06
9.8766e-06
9.5976e-06
9.49298e-06
9.4581e-06
9.98123e-06
9.486e-06
9.66038e-06
9.70222e-06
9.7929e-06
9.91845e-06
9.85568e-06
9.71617e-06
1.03649e-05
9.69525e-06
9.765e-06
9.46507e-06
1.04486e-05
9.75105e-06
9.56273e-06
9.86265e-06
9.6534e-06
9.41625e-06
9.52088e-06
9.75802e-06
9.60458e-06
9.8766e-06
9.17213e-06
9.64642e-06
9.5418e-06
9.82777e-06
9.38835e-06
9.73012e-06
9.31163e-06
1.01696e-05
9.86265e-06
9.26978e-06
9.92542e-06
9.80685e-06
9.3465e-06
9.77198e-06
1.01835e-05
9.55575e-06
1.01138e-05
9.63945e-06
9.56272e-06
9.67433e-06
9.56273e-06
1.01696e-05
9.73012e-06
9.9603e-06
9.9603e-06
1.01207e-05
9.50692e-06
9.49298e-06
9.73013e-06
9.98123e-06
9.6534e-06
9.74408e-06
9.52088e-06
9.92543e-06
1.00579e-05
9.92543e-06
9.95333e-06
9.64643e-06
9.68827e-06
9.66735e-06
1.01696e-05
9.8487e-06
9.78592e-06
9.95333e-06
9.52088e-06
9.11633e-06
9.3186e-06
9.79988e-06
9.89753e-06
9.78593e-06
9.59062e-06
9.58365e-06
9.52785e-06
9.79988e-06
9.89752e-06
9.73013e-06
9.54878e-06
9.3465e-06
9.5976e-06
9.63248e-06
9.67433e-06
9.83475e-06
9.74407e-06
9.55575e-06
9.52088e-06
9.67433e-06
9.46507e-06
9.32558e-06
9.63945e-06
9.3744e-06
9.5418e-06
9.77198e-06
9.5418e-06
9.54878e-06
9.63945e-06
9.99518e-06
9.40927e-06
9.61155e-06
9.70222e-06
9.75803e-06
9.71617e-06
9.24885e-06
9.61852e-06
9.58365e-06
9.49297e-06
9.91845e-06
9.58365e-06
9.64643e-06
9.52087e-06
9.8766e-06
9.63945e-06
9.77198e-06
9.5697e-06
9.39533e-06
1.00231e-05
9.6534e-06
1.02881e-05
9.68828e-06
9.27675e-06
9.89753e-06
9.47205e-06
9.5418e-06
9.5976e-06
9.64643e-06
9.45112e-06
9.66735e-06
9.8487e-06
9.59063e-06
9.53482e-06
9.6255e-06
9.75802e-06
9.61853e-06
9.57667e-06
9.6813e-06
9.84172e-06
9.38138e-06
9.32557e-06
9.5976e-06
9.4023e-06
9.47205e-06
9.42322e-06
9.33255e-06
9.58365e-06
9.6534e-06
9.58365e-06
9.45113e-06
9.20002e-06
9.42323e-06
9.96727e-06
9.17213e-06
9.44415e-06
9.4581e-06
9.4023e-06
9.71618e-06
9.08843e-06
1.02254e-05
9.03263e-06
9.69525e-06
8.87918e-06
9.78593e-06
9.79988e-06
9.0396e-06
9.60458e-06
9.4302e-06
9.6534e-06
9.86265e-06
9.3465e-06
9.86265e-06
9.25583e-06
9.9045e-06
9.4581e-06
9.49995e-06
9.42323e-06
9.30465e-06
9.47205e-06
9.41625e-06
9.79988e-06
9.36045e-06
9.60458e-06
8.928e-06
9.27675e-06
9.43718e-06
9.0954e-06
9.39533e-06
9.6534e-06
9.39533e-06
9.486e-06
8.94893e-06
9.6534e-06
9.2349e-06
9.5418e-06
9.4302e-06
9.56273e-06
8.80245e-06
9.3744e-06
9.26978e-06
9.56273e-06
9.16515e-06
8.93498e-06
9.78593e-06
9.6813e-06
9.39533e-06
9.33953e-06
8.71875e-06
9.38835e-06
8.99078e-06
9.7929e-06
9.66038e-06
9.5418e-06
9.4302e-06
9.28373e-06
9.24188e-06
9.33953e-06
9.64643e-06
9.4302e-06
9.2349e-06
9.2349e-06
9.26978e-06
9.0396e-06
9.45113e-06
9.77895e-06
9.28373e-06
9.21398e-06
9.60458e-06
8.99775e-06
9.82778e-06
9.36743e-06
9.70223e-06
9.20003e-06
8.99078e-06
9.46508e-06
8.99775e-06
9.4302e-06
9.6813e-06
9.24188e-06
9.1791e-06
9.08843e-06
9.24885e-06
8.86523e-06
9.0396e-06
9.2349e-06
9.5139e-06
9.22095e-06
9.36743e-06
9.1233e-06
9.08145e-06
8.9559e-06
8.8722e-06
9.53483e-06
9.36743e-06
9.52785e-06
9.29768e-06
9.1791e-06
9.3186e-06
9.43718e-06
9.44415e-06
9.2907e-06
9.52088e-06
9.58365e-06
9.207e-06
9.44415e-06
8.7327e-06
9.36045e-06
9.19305e-06
8.87918e-06
9.21398e-06
9.04658e-06
8.46068e-06
8.93498e-06
9.3744e-06
8.72573e-06
8.97683e-06
9.207e-06
9.3465e-06
9.21398e-06
8.83733e-06
9.1791e-06
9.07448e-06
9.10935e-06
8.57228e-06
9.3465e-06
8.83733e-06
9.5139e-06
8.79548e-06
8.76758e-06
8.57925e-06
8.94893e-06
9.26978e-06
8.65598e-06
8.6211e-06
8.62808e-06
9.10238e-06
9.01868e-06
9.01868e-06
9.05355e-06
8.94893e-06
8.87918e-06
8.96288e-06
8.72573e-06
8.50253e-06
8.9838e-06
9.04658e-06
9.06053e-06
8.9001e-06
8.80943e-06
8.79548e-06
8.72573e-06
8.90708e-06
9.03263e-06
8.38395e-06
8.77455e-06
8.92103e-06
8.51648e-06
8.38395e-06
8.69085e-06
9.10935e-06
8.85128e-06
9.26978e-06
8.63505e-06
8.8722e-06
8.26538e-06
8.64203e-06
8.80245e-06
8.77455e-06
8.8164e-06
9.10238e-06
8.4816e-06
8.55135e-06
8.35605e-06
8.62808e-06
8.41185e-06
8.48858e-06
8.65598e-06
8.72573e-06
8.58623e-06
8.55135e-06
8.60018e-06
8.49555e-06
8.80943e-06
8.4816e-06
8.93498e-06
8.6211e-06
8.92103e-06
8.7885e-06
8.39093e-06
8.68388e-06
8.46068e-06
8.18865e-06
8.58623e-06
8.38395e-06
8.7048e-06
8.64203e-06
8.60018e-06
8.8722e-06
8.60018e-06
8.21655e-06
8.55833e-06
8.2584e-06
8.08403e-06
8.2863e-06
8.58623e-06
8.27933e-06
8.19563e-06
8.49555e-06
7.74225e-06
8.0352e-06
8.04915e-06
8.64203e-06
8.39093e-06
8.2305e-06
7.93058e-06
7.79108e-06
8.15378e-06
8.2305e-06
8.1468e-06
8.2026e-06
8.00033e-06
8.38395e-06
8.2305e-06
7.98638e-06
8.62808e-06
8.3979e-06
8.00033e-06
8.20958e-06
8.41185e-06
7.84688e-06
8.12588e-06
8.0073e-06
8.13983e-06
7.90965e-06
7.9236e-06
8.1189e-06
8.25143e-06
8.30025e-06
7.99335e-06
8.13983e-06
8.25143e-06
8.08403e-06
7.90965e-06
7.812e-06
7.58183e-06
8.29328e-06
8.00033e-06
8.2026e-06
7.66553e-06
8.47463e-06
7.73528e-06
8.08403e-06
7.34468e-06
7.59578e-06
8.09798e-06
7.72133e-06
7.79805e-06
7.35863e-06
7.54695e-06
7.63763e-06
7.812e-06
7.47023e-06
7.69343e-06
7.73528e-06
7.93058e-06
7.65158e-06
7.6167e-06
7.43535e-06
7.9236e-06
7.52603e-06
7.33073e-06
7.4772e-06
7.93755e-06
7.71435e-06
7.96545e-06
7.6446e-06
7.37955e-06
7.1982e-06
7.54695e-06
7.26795e-06
7.49115e-06
7.6725e-06
7.59578e-06
7.18425e-06
7.63065e-06
6.9192e-06
7.4214e-06
7.44233e-06
7.26098e-06
7.40048e-06
7.27493e-06
6.8634e-06
7.5888e-06
6.8634e-06
7.0866e-06
7.16333e-06
6.99593e-06
7.27493e-06
7.0587e-06
7.21215e-06
6.84248e-06
6.80063e-06
7.53998e-06
7.1982e-06
6.96803e-06
7.33073e-06
7.0029e-06
6.7797e-06
6.88433e-06
6.68205e-06
7.07963e-06
6.6681e-06
6.41003e-06
6.8355e-06
6.64718e-06
6.696e-06
6.8913e-06
6.74483e-06
6.60533e-06
6.7797e-06
6.96803e-06
6.43095e-06
6.64718e-06
6.87735e-06
6.8355e-06
6.696e-06
6.15893e-06
6.59138e-06
6.76575e-06
6.89828e-06
6.57743e-06
7.09358e-06
6.49373e-06
6.2217e-06
6.3612e-06
6.21473e-06
6.54255e-06
6.32633e-06
6.0543e-06
6.24263e-06
6.7518e-06
6.31935e-06
5.85203e-06
6.04035e-06
6.20775e-06
5.67765e-06
5.75438e-06
6.0264e-06
6.34028e-06
5.8311e-06
5.72648e-06
6.29145e-06
6.138e-06
5.58698e-06
5.78925e-06
5.98455e-06
5.7195e-06
5.70555e-06
5.84505e-06
5.72648e-06
5.86598e-06
5.9427e-06
5.76135e-06
5.60093e-06
5.51723e-06
5.4684e-06
5.92178e-06
5.40563e-06
5.42655e-06
5.51025e-06
5.39168e-06
5.3568e-06
5.42655e-06
5.62185e-06
5.44748e-06
5.41958e-06
5.15453e-06
4.84763e-06
5.1615e-06
5.53815e-06
5.48235e-06
5.43353e-06
5.18243e-06
4.8546e-06
5.03595e-06
4.9104e-06
4.88948e-06
4.77788e-06
5.12663e-06
5.09873e-06
4.69418e-06
4.65233e-06
5.2173e-06
4.90343e-06
4.8825e-06
4.98713e-06
4.7988e-06
4.54073e-06
4.86158e-06
4.65233e-06
4.58258e-06
4.47795e-06
4.61745e-06
4.2129e-06
4.73603e-06
4.58955e-06
4.41518e-06
4.47795e-06
4.31753e-06
4.86855e-06
4.2408e-06
4.19895e-06
4.37333e-06
4.5477e-06
4.65233e-06
4.464e-06
4.4361e-06
4.33148e-06
4.3245e-06
4.2408e-06
4.19198e-06
4.3245e-06
4.1292e-06
4.33148e-06
4.47098e-06
4.16408e-06
4.12223e-06
3.97575e-06
4.20593e-06
4.37333e-06
4.26173e-06
4.185e-06
4.06643e-06
3.89205e-06
4.1571e-06
4.3524e-06
4.33845e-06
4.1013e-06
4.45005e-06
4.08735e-06
3.86415e-06
4.06643e-06
4.31055e-06
4.22685e-06
4.08735e-06
3.99668e-06
4.08735e-06
4.185e-06
3.85718e-06
3.92693e-06
3.7386e-06
3.96878e-06
4.16408e-06
3.80138e-06
4.03155e-06
4.14315e-06
4.17803e-06
3.75953e-06
3.9897e-06
4.0455e-06
3.87112e-06
4.01063e-06
4.03155e-06
4.05248e-06
3.81532e-06
3.80138e-06
3.98273e-06
3.92693e-06
3.8502e-06
4.05945e-06
4.2408e-06
3.84323e-06
3.7386e-06
3.7386e-06
4.01063e-06
3.80138e-06
3.58515e-06
3.81533e-06
3.86415e-06
3.7665e-06
3.7386e-06
3.86415e-06
4.03155e-06
3.85718e-06
4.0176e-06
3.5712e-06
3.82928e-06
3.52935e-06
3.87113e-06
3.71768e-06
4.03155e-06
3.94785e-06
3.94785e-06
3.94785e-06
3.8781e-06
3.50145e-06
3.7665e-06
3.68978e-06
3.66188e-06
4.01063e-06
3.48053e-06
3.8781e-06
3.99668e-06
3.9339e-06
3.89903e-06
3.3201e-06
3.53633e-06
3.73163e-06
3.95483e-06
3.8502e-06
3.75255e-06
3.78045e-06
3.52935e-06
3.55028e-06
3.6828e-06
3.75255e-06
3.66885e-06
3.8502e-06
3.55028e-06
3.8781e-06
3.91298e-06
3.83625e-06
3.6549e-06
3.71768e-06
3.9339e-06
3.7107e-06
3.25733e-06
3.35498e-06
3.53633e-06
3.95483e-06
3.80138e-06
3.74558e-06
3.66188e-06
3.61305e-06
3.7107e-06
3.60608e-06
4.06643e-06
3.45263e-06
3.56423e-06
3.4317e-06
3.36195e-06
3.58515e-06
4.03853e-06
3.6828e-06
3.58515e-06
3.52238e-06
3.70373e-06
3.74558e-06
3.4317e-06
3.77348e-06
3.57818e-06
3.41775e-06
3.75255e-06
3.52935e-06
3.80835e-06
3.52935e-06
3.60608e-06
3.7944e-06
3.55725e-06
3.36892e-06
3.50843e-06
3.64095e-06
4.01063e-06
3.627e-06
3.72465e-06
3.87112e-06
3.61305e-06
3.71767e-06
3.5433e-06
3.62002e-06
3.2922e-06
3.59212e-06
3.74558e-06
3.47355e-06
3.8502e-06
3.57817e-06
3.7944e-06
3.55027e-06
3.72465e-06
3.49447e-06
3.59213e-06
3.64792e-06
3.50843e-06
3.64792e-06
3.8502e-06
3.71767e-06
3.56423e-06
3.5154e-06
3.4038e-06
4.09432e-06
3.7386e-06
3.66187e-06
3.74558e-06
3.5154e-06
3.49448e-06
3.63397e-06
3.55028e-06
3.70372e-06
3.89903e-06
3.5991e-06
3.5433e-06
3.43867e-06
3.41775e-06
3.48052e-06
3.5991e-06
3.68977e-06
3.7665e-06
3.4317e-06
3.45263e-06
3.43867e-06
3.41078e-06
3.49447e-06
3.4038e-06
3.63397e-06
3.33405e-06
3.7665e-06
3.24338e-06
3.38287e-06
3.4596e-06
3.2922e-06
3.61305e-06
3.3759e-06
3.48053e-06
3.29917e-06
3.4875e-06
3.61305e-06
3.4317e-06
3.45262e-06
3.36195e-06
3.4038e-06
3.25733e-06
3.38287e-06
3.4317e-06
3.7944e-06
3.5433e-06
3.4875e-06
3.35498e-06
3.39683e-06
3.49448e-06
3.75255e-06
3.46658e-06
3.56423e-06
3.53633e-06
3.49447e-06
3.31313e-06
3.30615e-06
3.69675e-06
3.4596e-06
3.41078e-06
3.35498e-06
3.64793e-06
3.58515e-06
3.64793e-06
3.42473e-06
3.89903e-06
3.86415e-06
3.60608e-06
3.55028e-06
3.4875e-06
3.627e-06
3.74558e-06
3.3759e-06
3.4038e-06
3.5433e-06
3.43868e-06
3.36195e-06
3.4596e-06
3.5433e-06
3.50843e-06
3.38985e-06
3.627e-06
3.41775e-06
3.31313e-06
3.6549e-06
3.55725e-06
3.50842e-06
3.33405e-06
3.35498e-06
3.60608e-06
3.41775e-06
3.627e-06
3.77348e-06
3.39683e-06
3.29918e-06
3.3759e-06
3.45263e-06
3.55027e-06
3.52935e-06
3.59212e-06
3.30615e-06
3.38985e-06
3.17363e-06
3.29917e-06
3.5154e-06
3.348e-06
3.4317e-06
3.41077e-06
3.58515e-06
3.69675e-06
3.7107e-06
3.55027e-06
3.80835e-06
3.2643e-06
3.46658e-06
3.43867e-06
3.52238e-06
3.43867e-06
3.38985e-06
3.2922e-06
3.4596e-06
3.68977e-06
3.41078e-06
3.5991e-06
3.27128e-06
3.45262e-06
3.25733e-06
3.73162e-06
3.63398e-06
3.48052e-06
3.4038e-06
3.50842e-06
3.33405e-06
3.45262e-06
3.56423e-06
3.6549e-06
3.3759e-06
3.5712e-06
3.53633e-06
3.42472e-06
3.41775e-06
3.55027e-06
3.5712e-06
3.55725e-06
3.5154e-06
3.33405e-06
3.46658e-06
3.4317e-06
3.62003e-06
3.36892e-06
3.53633e-06
3.4875e-06
3.69675e-06
3.61305e-06
3.50843e-06
3.45262e-06
3.41775e-06
3.4596e-06
3.4317e-06
3.348e-06
3.36893e-06
3.5154e-06
3.45263e-06
3.53632e-06
3.7386e-06
3.32708e-06
3.1527e-06
3.81532e-06
3.2643e-06
3.63398e-06
3.4875e-06
3.56422e-06
3.2643e-06
3.50145e-06
3.7944e-06
3.25035e-06
3.31313e-06
3.63398e-06
3.60608e-06
3.39682e-06
3.47355e-06
3.43868e-06
3.36893e-06
3.21547e-06
3.5433e-06
3.60608e-06
3.82928e-06
3.39682e-06
)
;

boundaryField
{
    sides
    {
        type            symmetry;
    }
    empty
    {
        type            empty;
    }
}


// ************************************************************************* //
