/*--------------------------------*- C++ -*----------------------------------*\
  =========                 |
  \\      /  F ield         | OpenFOAM: The Open Source CFD Toolbox
   \\    /   O peration     | Website:  https://openfoam.org
    \\  /    A nd           | Version:  7
     \\/     M anipulation  |
\*---------------------------------------------------------------------------*/
FoamFile
{
    version     2.0;
    format      ascii;
    class       volScalarField;
    location    "0.4";
    object      nut;
}
// * * * * * * * * * * * * * * * * * * * * * * * * * * * * * * * * * * * * * //

dimensions      [0 2 -1 0 0 0 0];

internalField   nonuniform List<scalar> 
1935
(
0.00856663
0.008318
0.00812447
0.00798847
0.00790923
0.00788301
0.00790376
0.00796414
0.00805683
0.00817548
0.00831508
0.00847455
0.00865988
0.00887102
0.0091033
0.00934862
0.00959797
0.009845
0.0100894
0.0103385
0.0106063
0.0109087
0.0112558
0.0116447
0.0120541
0.0124467
0.0127768
0.0130033
0.0131015
0.0130692
0.012925
0.0127011
0.012433
0.0121507
0.0118744
0.0116132
0.0113663
0.0111252
0.0108757
0.0105994
0.0102742
0.00987353
0.00935657
0.00837279
0.00820709
0.00807064
0.00796523
0.00811811
0.00794964
0.00781314
0.00770896
0.00792365
0.00775738
0.00762501
0.00752474
0.00779187
0.00763275
0.00750868
0.00741492
0.00772136
0.00757375
0.00746167
0.00737683
0.00770718
0.00757424
0.00747704
0.00740341
0.00774153
0.00762482
0.00754433
0.0074841
0.0078152
0.00771428
0.00765093
0.00760598
0.00791918
0.00783161
0.00778387
0.00775533
0.0080462
0.00796788
0.00793187
0.00791926
0.00819151
0.00811752
0.00808685
0.00808625
0.00835045
0.00827431
0.00824517
0.00825115
0.00853268
0.00844709
0.00840721
0.00840989
0.00874245
0.0086459
0.00858821
0.0085749
0.00897807
0.00887436
0.0087982
0.00876066
0.00923192
0.0091281
0.00903915
0.00897584
0.0094927
0.00939568
0.00930349
0.00922194
0.00974982
0.0096629
0.00957614
0.00948937
0.00999822
0.00991917
0.00984117
0.00975968
0.0102418
0.010163
0.0100899
0.010016
0.0104939
0.0104045
0.0103267
0.0102539
0.0107735
0.0106638
0.0105696
0.0104861
0.0110978
0.0109632
0.0108442
0.0107386
0.0114723
0.0113166
0.0111722
0.0110395
0.0118833
0.0117192
0.0115586
0.0114036
0.012297
0.012143
0.0119829
0.0118202
0.0126656
0.0125404
0.0124005
0.0122495
0.0129409
0.0128579
0.0127543
0.0126328
0.0130886
0.0130523
0.0129929
0.0129121
0.0130981
0.0131039
0.0130873
0.0130486
0.0129829
0.0130201
0.0130374
0.0130343
0.0127742
0.0128298
0.0128687
0.0128901
0.0125099
0.0125722
0.0126209
0.012655
0.0122242
0.0122852
0.0123348
0.0123722
0.0119413
0.011997
0.0120427
0.0120777
0.0116739
0.0117239
0.0117645
0.011795
0.0114235
0.0114701
0.0115073
0.0115345
0.0111829
0.0112304
0.0112682
0.0112955
0.0109382
0.0109915
0.0110359
0.0110695
0.0106691
0.0107332
0.0107915
0.0108406
0.0103498
0.0104265
0.0105058
0.0105841
0.00994527
0.0100281
0.0101293
0.0102541
0.00939871
0.00945686
0.00954856
0.00971909
0.0078865
0.00784026
0.00782308
0.00783039
0.00785347
0.00787767
0.00788324
0.00784919
0.00775847
0.00760157
0.00737717
0.00709069
0.00674627
0.00635506
0.00593826
0.00551624
0.005111
0.00474424
0.00443252
0.00418496
0.00400427
0.00389058
0.0038396
0.0038354
0.00385286
0.00390104
0.00402525
0.00424057
0.00454272
0.0049201
0.00533974
0.00573934
0.00603368
0.00612977
0.00594262
0.00540533
0.00446966
0.00310623
0.00139019
0.000146093
0.00763105
0.00758436
0.00756484
0.00756815
0.00758669
0.007607
0.00760989
0.0075745
0.00748402
0.00733047
0.00711406
0.00684051
0.00651251
0.00614381
0.00575453
0.0053634
0.0049913
0.00465802
0.00437812
0.00415967
0.00400594
0.00391804
0.00388695
0.00388576
0.00389543
0.00394922
0.00409002
0.00431979
0.00462996
0.00500637
0.00541391
0.00579073
0.0060552
0.00611969
0.00590473
0.00534791
0.00440431
0.00304774
0.00135814
0.000145983
0.00744826
0.00739816
0.00737019
0.00736091
0.00736504
0.0073714
0.00736224
0.00731722
0.00722011
0.00706432
0.00685185
0.00658744
0.00627477
0.00592869
0.00556701
0.00520749
0.00486986
0.00457185
0.0043261
0.00413988
0.00401716
0.00395708
0.0039399
0.0039322
0.00393617
0.00400478
0.00416585
0.0044103
0.00472772
0.00510154
0.0054945
0.00584545
0.00607652
0.00610577
0.00585975
0.00528117
0.00432918
0.00298145
0.00132267
0.000145651
0.0073403
0.00728407
0.00724165
0.00721122
0.00719096
0.00717347
0.00714324
0.00708091
0.00697134
0.0068093
0.00659832
0.00634136
0.00604452
0.0057214
0.00538724
0.00505969
0.00475723
0.00449552
0.00428552
0.00413388
0.00404484
0.00400869
0.00399313
0.00397277
0.00398034
0.00407258
0.00425528
0.00451357
0.00483664
0.00520545
0.00558079
0.00590247
0.00609666
0.00608738
0.00580753
0.00520551
0.0042451
0.00290834
0.00128439
0.000145122
0.00730472
0.00724052
0.00717877
0.00711971
0.00706626
0.00701649
0.00695793
0.00687244
0.00674573
0.00657592
0.00636588
0.0061173
0.00583669
0.00553532
0.00522806
0.00493224
0.00466483
0.00443961
0.00426611
0.00415052
0.0040925
0.00406836
0.00404029
0.00400865
0.00403518
0.00415654
0.00436001
0.00463041
0.00495685
0.00531761
0.00567182
0.00596063
0.00611453
0.00606374
0.00574784
0.00512129
0.0041529
0.00282936
0.00124385
0.000144416
0.00733526
0.00726287
0.0071793
0.0070865
0.00699353
0.00690612
0.0068153
0.00670241
0.006557
0.00638028
0.00617125
0.00593098
0.00566499
0.00538398
0.0051027
0.00483764
0.00460427
0.00441474
0.00427747
0.00419665
0.00415836
0.00412652
0.00407586
0.0040489
0.00410829
0.00425928
0.00448103
0.0047612
0.00508808
0.00543715
0.00576633
0.00601854
0.00612891
0.00603405
0.00568046
0.00502888
0.00405341
0.00274551
0.00120163
0.000143552
0.00742232
0.00734387
0.00723956
0.00711162
0.00697572
0.00684787
0.00672191
0.00657945
0.00641731
0.00623404
0.00602613
0.00579353
0.0055414
0.00528006
0.00502363
0.00478761
0.0045862
0.00443034
0.00432725
0.00427095
0.00423168
0.0041713
0.00410584
0.00410668
0.00420487
0.00438194
0.00461875
0.00490583
0.00522962
0.00556287
0.00586282
0.00607467
0.00613848
0.00599745
0.00560512
0.00492864
0.00394747
0.00265774
0.00115828
0.000142548
0.00755395
0.00747402
0.00735434
0.00719408
0.00701459
0.00684502
0.00668097
0.00651137
0.00633427
0.00614457
0.00593818
0.00571411
0.00547643
0.00523446
0.00500136
0.00479165
0.00461886
0.00449325
0.00441351
0.00435911
0.00429125
0.0041987
0.00414757
0.00419254
0.00432652
0.00452447
0.00477307
0.00506378
0.00538037
0.00569323
0.00595955
0.00612733
0.00614186
0.00595308
0.0055216
0.00482097
0.00383596
0.00256703
0.00111432
0.000141426
0.00771736
0.00764173
0.00751516
0.00733049
0.00711068
0.0068998
0.00669964
0.00650563
0.00631345
0.0061178
0.00591414
0.0057003
0.0054783
0.00525533
0.00504315
0.00485565
0.00470674
0.00459996
0.00451824
0.0044328
0.00432058
0.00422636
0.0042198
0.00431037
0.00447244
0.00468647
0.0049436
0.00523414
0.00553888
0.00582641
0.0060546
0.00617474
0.00613764
0.00590008
0.00542968
0.00470632
0.00371977
0.00247434
0.00107027
0.000140202
0.00789881
0.00783359
0.00770893
0.00751363
0.00726147
0.00701371
0.00678261
0.00656501
0.00635775
0.00615703
0.00595843
0.00575749
0.00555252
0.0053473
0.00515202
0.00498028
0.00484073
0.0047243
0.00460588
0.00446647
0.00433771
0.00428453
0.00433095
0.00445719
0.00464036
0.00486742
0.00512972
0.00541562
0.00570329
0.00596028
0.0061458
0.00621498
0.00612437
0.00583761
0.00532926
0.0045852
0.00359983
0.00238059
0.00102659
0.000138894
0.00808388
0.00803509
0.00792044
0.00773067
0.00746155
0.00718568
0.00692776
0.0066882
0.0064667
0.0062618
0.0060703
0.00588626
0.00570036
0.00551053
0.00532539
0.00515419
0.00499163
0.00482585
0.00464616
0.00448056
0.0043858
0.00438934
0.0044788
0.0046305
0.00482896
0.00506533
0.00533012
0.00560644
0.00587139
0.00609243
0.00623087
0.00624609
0.00610064
0.00576497
0.00522035
0.00445826
0.00347715
0.00228674
0.000983715
0.000137517
0.00826397
0.00823517
0.00813785
0.00797262
0.00770994
0.00741196
0.00713071
0.0068714
0.0066368
0.00642775
0.00624262
0.00607666
0.0059149
0.0057368
0.00555083
0.00535489
0.00513346
0.00489249
0.00467508
0.00453145
0.00448918
0.00453972
0.00465925
0.0048291
0.0050388
0.00528015
0.00554129
0.00580334
0.00604029
0.00622012
0.00630735
0.00626613
0.00606513
0.0056816
0.00510315
0.00432632
0.00335282
0.0021937
0.000942036
0.000136084
0.0084373
0.00843021
0.00836048
0.00822693
0.00800157
0.00768835
0.00738562
0.00710881
0.0068624
0.00664845
0.00646584
0.00630978
0.00617253
0.00601586
0.00581705
0.00556816
0.00526471
0.00496846
0.00475086
0.00464617
0.00464822
0.00473094
0.00487071
0.00505331
0.00526992
0.00551099
0.00576214
0.00600255
0.00620546
0.00633967
0.00637255
0.00627312
0.00601671
0.00558719
0.00497811
0.00419033
0.00322788
0.00210211
0.000900802
0.000134648
0.00860143
0.00861985
0.00858337
0.00847374
0.00830029
0.00801019
0.00768489
0.00739279
0.00713649
0.00691715
0.00673338
0.00657948
0.00644845
0.00631353
0.00609181
0.00576627
0.00539832
0.00508543
0.00489216
0.00482507
0.00485811
0.00496125
0.00511382
0.00530373
0.00552164
0.0057559
0.0059899
0.00620143
0.0063637
0.00644722
0.00642279
0.00626468
0.00595421
0.00548161
0.00484576
0.00405095
0.00310248
0.00201082
0.000859271
0.000133208
0.00877006
0.00879988
0.00880236
0.00872802
0.00856621
0.00833316
0.00801846
0.00771485
0.0074514
0.00722618
0.00703692
0.00687737
0.00674149
0.00660059
0.00632339
0.00593139
0.00554595
0.00525667
0.0051005
0.00506417
0.00511667
0.00523082
0.00538901
0.00557966
0.00579189
0.00601181
0.00622095
0.00639631
0.00651173
0.00654002
0.0064559
0.00623903
0.00587673
0.00536501
0.00470719
0.0039099
0.00297856
0.00192199
0.000818909
0.000131759
0.00895293
0.00896483
0.00898811
0.00895265
0.00882181
0.0086271
0.00836347
0.00806516
0.00779861
0.00756609
0.00736483
0.00718778
0.007034
0.00685823
0.00651046
0.00609514
0.00573777
0.00549444
0.00537527
0.00535998
0.0054215
0.00553796
0.00569416
0.00587803
0.00607677
0.00627436
0.00645087
0.00658307
0.006646
0.00661535
0.00647018
0.00619563
0.00578481
0.00523882
0.00456434
0.00376911
0.00285768
0.00183662
0.000780541
0.000130302
0.00916299
0.00912962
0.0091268
0.0091161
0.00903751
0.00888285
0.00868817
0.00843552
0.00816948
0.0079277
0.00770733
0.00749555
0.00729089
0.00705233
0.00668213
0.00630017
0.005999
0.00580271
0.0057104
0.00570476
0.00576581
0.00587664
0.00602343
0.00619302
0.0063705
0.00653798
0.00667451
0.00675717
0.00676285
0.00667061
0.00646424
0.00613441
0.00567958
0.00510498
0.00441944
0.00363064
0.00274136
0.00175571
0.000744795
0.00012884
0.00940733
0.00932807
0.00926762
0.00922453
0.00916728
0.00906528
0.00893165
0.00877607
0.00855239
0.00830576
0.00806736
0.00780945
0.00752227
0.00719137
0.00686866
0.00657395
0.00633135
0.00616855
0.00608922
0.00608324
0.00613683
0.00623619
0.00636767
0.00651651
0.00666581
0.00679615
0.00688614
0.00691382
0.00685858
0.00670347
0.00643728
0.00605603
0.00556282
0.00496591
0.00427498
0.00349652
0.00263101
0.00168012
0.000712109
0.000127378
0.00967346
0.00957142
0.00946547
0.00936046
0.0092579
0.0091531
0.00904079
0.00891072
0.00874938
0.00852552
0.00828239
0.00800838
0.00768754
0.00740078
0.0071595
0.00691866
0.0067083
0.00656105
0.00648473
0.00647383
0.00651761
0.00660312
0.00671579
0.00683914
0.00695457
0.00704177
0.00707967
0.00704811
0.00692975
0.00671213
0.00638922
0.00596192
0.005437
0.00482446
0.00413353
0.0033687
0.00252783
0.00161055
0.000682776
0.000125918
0.00993741
0.00983646
0.00971908
0.00958551
0.00943843
0.00928429
0.00912717
0.00895861
0.0087797
0.00858799
0.00837624
0.00815402
0.00793716
0.00773371
0.00751185
0.00728046
0.00708152
0.00694211
0.00686842
0.00685527
0.00689188
0.00696448
0.00705705
0.0071516
0.00722855
0.00726758
0.00724898
0.00715535
0.00697343
0.00669566
0.00632099
0.00585443
0.00530522
0.0046837
0.00399761
0.00324888
0.00243282
0.0015475
0.000656953
0.000124466
0.0101821
0.0100909
0.00998286
0.00985481
0.00970606
0.00954007
0.00936387
0.00918334
0.00900381
0.00882787
0.00865318
0.00847516
0.00828509
0.00806812
0.00782793
0.0075976
0.00741117
0.00728554
0.00722247
0.00721448
0.00724911
0.00731103
0.00738285
0.00744569
0.00747998
0.00746657
0.00738828
0.0072315
0.0069877
0.00665429
0.00623464
0.00573679
0.00517101
0.00454676
0.0038695
0.00313843
0.00234667
0.00149126
0.000634679
0.000123026
0.0104104
0.0103218
0.0102224
0.0101076
0.00997504
0.0098257
0.009664
0.00949368
0.00932073
0.00914572
0.00896455
0.00876843
0.00854766
0.00830425
0.00806076
0.00784798
0.00768771
0.00758798
0.0075455
0.00754979
0.00758629
0.00763816
0.00768715
0.00771446
0.00770172
0.00763226
0.00749259
0.00727372
0.0069721
0.00658976
0.00613347
0.00561292
0.00503807
0.00441653
0.00375107
0.00303834
0.00226977
0.00144196
0.000615882
0.000121606
0.0106448
0.010543
0.0104368
0.0103209
0.0101921
0.0100488
0.00989198
0.00972045
0.00954121
0.009352
0.00914791
0.00892525
0.00868653
0.00844577
0.00822657
0.0080507
0.00793003
0.00786549
0.0078493
0.00786814
0.00790568
0.00794412
0.0079653
0.00795164
0.00788725
0.00775913
0.00755836
0.00728096
0.00692806
0.00650539
0.00602179
0.00548713
0.00490998
0.00429545
0.00364369
0.00294918
0.00220225
0.00139948
0.000600398
0.000120212
0.0109178
0.0107888
0.0106582
0.0105211
0.0103734
0.0102121
0.0100349
0.00984356
0.00964456
0.00943655
0.00921764
0.00898992
0.00876248
0.00855155
0.00837545
0.00824734
0.0081714
0.00814291
0.0081505
0.00817867
0.00821004
0.00822686
0.00821219
0.00815091
0.00803072
0.00784313
0.00758416
0.00725449
0.00685907
0.00640596
0.00590457
0.00536372
0.00478981
0.00418537
0.00354817
0.0028711
0.00214394
0.00136358
0.000587991
0.00011885
0.0112544
0.0110941
0.0109307
0.0107602
0.0105787
0.0103835
0.01017
0.0099487
0.00972558
0.00950177
0.0092791
0.00906295
0.00886333
0.0086932
0.00856408
0.00848165
0.00844388
0.00844176
0.00846128
0.00848579
0.00849794
0.0084812
0.00842104
0.00830582
0.00812758
0.00788255
0.00757125
0.00719812
0.0067705
0.0062972
0.00578689
0.00524651
0.00467998
0.00408742
0.00346477
0.00280389
0.00209447
0.00133387
0.000578387
0.000117528
0.011655
0.0114719
0.0112808
0.0110784
0.0108621
0.0106297
0.0103807
0.0101307
0.00988643
0.00965194
0.00943159
0.00923173
0.0090605
0.00892599
0.00883323
0.00878165
0.00876447
0.00876964
0.00878178
0.00878426
0.00876102
0.00869789
0.00858368
0.00841081
0.00817569
0.00787874
0.00752394
0.00711796
0.00666895
0.00618513
0.00567345
0.00513856
0.00458205
0.00400208
0.00339329
0.00274705
0.00205329
0.00130989
0.000571297
0.000116249
0.0120872
0.0118998
0.0116973
0.0114775
0.0112387
0.0109794
0.0107076
0.0104385
0.0101808
0.00994056
0.00972361
0.00953584
0.00938274
0.00926784
0.00919095
0.00914698
0.00912598
0.00911443
0.00909698
0.00905832
0.00898476
0.00886535
0.00869263
0.00846296
0.00817648
0.00783659
0.00744921
0.00702166
0.00656149
0.00607535
0.00556805
0.005042
0.00449681
0.00392925
0.00333319
0.0026999
0.00201977
0.00129112
0.000566436
0.000115019
0.0124932
0.012323
0.0121304
0.0119143
0.011674
0.0114073
0.0111309
0.0108575
0.0105967
0.0103557
0.0101408
0.0099569
0.00980724
0.00969197
0.00960751
0.00954619
0.00949685
0.00944612
0.00938008
0.00928585
0.00915282
0.00897353
0.00874402
0.00846384
0.00813558
0.00776416
0.00735589
0.0069174
0.00645472
0.00597249
0.0054734
0.00495796
0.00442434
0.0038684
0.00328369
0.00266165
0.0019932
0.00127704
0.000563539
0.000113841
0.0128093
0.0126733
0.0125095
0.0123165
0.0120938
0.0118437
0.0115819
0.0113198
0.0110666
0.0108299
0.0106158
0.0104283
0.010269
0.0101361
0.0100247
0.00992662
0.00983114
0.00972658
0.00960154
0.00944618
0.00925317
0.00901819
0.00874001
0.00842015
0.00806231
0.00767151
0.00725327
0.00681275
0.00635406
0.00587987
0.00539108
0.00488677
0.00436418
0.0038187
0.00324386
0.00263143
0.00197289
0.00126715
0.000562364
0.000112718
0.0129876
0.0128939
0.0127697
0.0126132
0.0124233
0.0122061
0.0119733
0.0117345
0.0114978
0.0112704
0.0110574
0.0108622
0.0106857
0.0105256
0.0103773
0.0102333
0.010085
0.00992335
0.00973989
0.00952795
0.00928308
0.00900335
0.00868918
0.00834291
0.00796816
0.00756913
0.00714991
0.0067139
0.00626343
0.00579949
0.00532167
0.00482811
0.00431554
0.0037792
0.00321277
0.00260844
0.00195818
0.00126097
0.000562691
0.000111652
0.0130108
0.0129579
0.0128744
0.0127583
0.0126078
0.0124303
0.0122334
0.0120242
0.0118095
0.011595
0.0113852
0.0111829
0.0109886
0.0108009
0.0106159
0.0104284
0.0102321
0.0100209
0.00978929
0.00953324
0.00925052
0.00894069
0.00860485
0.00824526
0.00786479
0.00746638
0.00705259
0.00662524
0.00618517
0.00573219
0.00526501
0.00478125
0.00427744
0.00374887
0.00318949
0.0025919
0.00194846
0.00125808
0.000564329
0.000110646
0.0128942
0.012873
0.0128235
0.0127428
0.0126305
0.0124911
0.0123295
0.0121506
0.0119593
0.0117601
0.0115565
0.0113509
0.0111441
0.0109353
0.0107224
0.0105021
0.0102706
0.0100243
0.00976018
0.00947621
0.00917153
0.0088464
0.00850198
0.00813997
0.00776225
0.00737051
0.006966
0.00654931
0.00612025
0.00567788
0.0052204
0.00474522
0.00424885
0.00372675
0.00317317
0.00258109
0.00194316
0.00125809
0.000567109
0.000109703
0.012675
0.012674
0.012648
0.0125938
0.0125115
0.0124031
0.0122712
0.012119
0.0119497
0.0117665
0.0115722
0.0113687
0.0111572
0.0109377
0.0107092
0.0104703
0.0102192
0.00995426
0.009674
0.00937772
0.00906529
0.00873717
0.00839423
0.00803749
0.00766793
0.00728625
0.00689272
0.00648712
0.00606864
0.00563589
0.00518687
0.00471896
0.00422875
0.00371194
0.00316307
0.0025754
0.00194181
0.00126066
0.000570886
0.000108825
0.012398
0.0124065
0.0123932
0.0123557
0.0122934
0.0122069
0.0120972
0.0119661
0.0118156
0.011648
0.0114652
0.011269
0.0110605
0.0108402
0.0106082
0.0103643
0.0101078
0.00983829
0.00955542
0.00925908
0.00894944
0.00862688
0.0082919
0.00794494
0.00758628
0.00721595
0.00683361
0.00643854
0.00602959
0.0056052
0.00516333
0.00470141
0.00421621
0.00370365
0.0031585
0.00257429
0.00194397
0.0012655
0.000575537
0.000108016
0.0121027
0.0121128
0.0121041
0.0120747
0.0120235
0.0119504
0.0118556
0.01174
0.0116048
0.0114515
0.0112814
0.0110959
0.0108961
0.0106828
0.0104565
0.0102175
0.00996599
0.00970205
0.00942581
0.00913742
0.00883708
0.00852501
0.00820136
0.00786615
0.00751921
0.00716015
0.00678829
0.00640265
0.00600196
0.00558462
0.00514865
0.00469159
0.00421038
0.00370115
0.00315888
0.00257726
0.00194927
0.00127234
0.000580955
0.000107276
0.0118161
0.0118237
0.0118145
0.0117871
0.0117405
0.0116744
0.0115887
0.0114839
0.0113606
0.0112198
0.0110624
0.0108895
0.0107018
0.0105001
0.0102851
0.0100572
0.00981687
0.00956438
0.00929996
0.00902378
0.00873597
0.00843653
0.00812537
0.00780222
0.00746666
0.00711805
0.00675555
0.00637811
0.00598442
0.00557293
0.00514175
0.00468857
0.00421049
0.00370381
0.00316367
0.00258388
0.00195736
0.00128096
0.000587047
0.000106608
0.0115519
0.0115558
0.0115438
0.0115151
0.011469
0.0114056
0.0113249
0.0112273
0.0111132
0.0109832
0.0108379
0.0106778
0.0105035
0.0103155
0.0101145
0.00990065
0.00967442
0.00943604
0.00918566
0.00892336
0.0086491
0.00836272
0.00806392
0.00775229
0.00742724
0.00708802
0.00673374
0.00636333
0.00597554
0.00556889
0.0051416
0.00469149
0.00421583
0.00371104
0.0031724
0.00259376
0.00196793
0.00129113
0.000593722
0.000106013
0.0113122
0.0113141
0.0112995
0.0112682
0.0112205
0.0111572
0.0110788
0.0109859
0.0108789
0.0107581
0.0106237
0.010476
0.0103151
0.0101413
0.00995487
0.00975591
0.0095446
0.009321
0.00908511
0.00883683
0.00857597
0.00830222
0.00801514
0.00771419
0.00739871
0.0070679
0.00672087
0.00635658
0.00597383
0.00557124
0.00514715
0.00469951
0.00422569
0.00372224
0.00318454
0.00260646
0.00198063
0.00130263
0.000600877
0.000105491
0.0110913
0.0110958
0.011081
0.0110475
0.0109975
0.0109329
0.0108552
0.0107654
0.0106639
0.0105509
0.0104262
0.0102899
0.0101416
0.00998143
0.00980914
0.00962467
0.00942791
0.0092187
0.00899684
0.00876205
0.00851396
0.00825212
0.007976
0.00768496
0.00737828
0.00705517
0.00671471
0.00635592
0.00597767
0.00557865
0.0051573
0.00471169
0.00423929
0.00373677
0.00319956
0.00262153
0.00199511
0.0013152
0.000608386
0.000105041
0.0108778
0.0108935
0.0108835
0.0108505
0.0107988
0.0107325
0.0106547
0.0105668
0.0104696
0.010363
0.0102469
0.0101206
0.00998384
0.00983602
0.00967678
0.00950574
0.00932252
0.00912673
0.00891797
0.00869577
0.00845962
0.00820893
0.00794307
0.00766132
0.00736291
0.00704703
0.00671278
0.0063592
0.00598519
0.00558952
0.00517072
0.00472692
0.00425572
0.00375384
0.00321679
0.00263839
0.00201087
0.00132845
0.000616032
0.000104661
0.0106557
0.0106985
0.0107031
0.0106754
0.0106244
0.0105574
0.0104794
0.0103929
0.010299
0.0101977
0.0100885
0.00997068
0.00984354
0.00970632
0.00955835
0.009399
0.00922766
0.00904374
0.00884665
0.00863576
0.00841041
0.00816989
0.00791346
0.00764036
0.00734974
0.00704075
0.0067125
0.00636401
0.00599422
0.00560193
0.00518571
0.00474376
0.00427372
0.00377238
0.00323528
0.00265623
0.00202723
0.00134187
0.000623542
0.000104341
0.0104044
0.010506
0.0105417
0.0105277
0.0104817
0.0104161
0.0103388
0.0102536
0.0101622
0.0100646
0.00996047
0.00984886
0.00972887
0.0095996
0.00946017
0.0093098
0.0091477
0.00897314
0.00878536
0.00858361
0.00836711
0.00813506
0.00788663
0.00762096
0.00733718
0.00703439
0.00671165
0.00636798
0.00600231
0.00561344
0.00519994
0.00476002
0.00429135
0.00379072
0.00325363
0.00267383
0.00204309
0.00135445
0.000630152
0.000104087
0.0101185
0.0103364
0.0104217
0.0104286
0.0103911
0.0103291
0.0102535
0.0101697
0.0100798
0.00998431
0.0098828
0.00977442
0.00965821
0.00953319
0.00939842
0.00925301
0.00909611
0.0089269
0.00874454
0.00854822
0.00833707
0.00811024
0.00786683
0.00760596
0.00732669
0.0070281
0.00670923
0.00636907
0.00600653
0.00562041
0.00520925
0.00477126
0.00430407
0.00380444
0.00326779
0.00268771
0.00205569
0.00136412
0.000634695
0.0001038
)
;

boundaryField
{
    leftWall
    {
        type            nutkWallFunction;
        Cmu             0.09;
        kappa           0.41;
        E               9.8;
        value           nonuniform 0();
    }
    rightWall
    {
        type            nutkWallFunction;
        Cmu             0.09;
        kappa           0.41;
        E               9.8;
        value           nonuniform List<scalar> 
43
(
1.07655e-05
1.07546e-05
1.07155e-05
1.06511e-05
1.05637e-05
1.04554e-05
1.03288e-05
1.01864e-05
1.00303e-05
9.86296e-06
9.68633e-06
9.5022e-06
9.31391e-06
9.12585e-06
8.93765e-06
8.74922e-06
8.56067e-06
8.37218e-06
8.1841e-06
7.99696e-06
7.81143e-06
7.62832e-06
7.44844e-06
7.27259e-06
7.10144e-06
6.93558e-06
6.77553e-06
6.62176e-06
6.47476e-06
6.335e-06
6.20296e-06
6.07914e-06
5.96396e-06
5.85786e-06
5.76117e-06
5.67419e-06
5.5971e-06
5.52995e-06
5.47255e-06
5.42454e-06
5.38431e-06
5.35246e-06
5.31456e-06
)
;
    }
    lowerWall
    {
        type            nutkWallFunction;
        Cmu             0.09;
        kappa           0.41;
        E               9.8;
        value           nonuniform 0();
    }
    atmosphere
    {
        type            calculated;
        value           nonuniform List<scalar> 
45
(
0.009
0.009
0.009
0.009
0.009
0.0101185
0.0103364
0.0104217
0.0104286
0.0103911
0.0103291
0.0102535
0.0101697
0.0100798
0.00998431
0.0098828
0.00977442
0.00965821
0.00953319
0.00939842
0.00925301
0.00909611
0.0089269
0.00874454
0.00854822
0.00833707
0.00811024
0.00786683
0.00760596
0.00732669
0.0070281
0.00670923
0.00636907
0.00600653
0.00562041
0.00520925
0.00477126
0.00430407
0.00380444
0.00326779
0.00268771
0.00205569
0.00136412
0.000634695
0.0001038
)
;
    }
    defaultFaces
    {
        type            empty;
    }
    procBoundary3to1
    {
        type            processor;
        value           nonuniform List<scalar> 
45
(
0.00886523
0.00868178
0.00852302
0.00839028
0.00828604
0.00820741
0.00815859
0.00813823
0.00814191
0.00816058
0.00817933
0.00817849
0.00813729
0.00803858
0.00787172
0.00763407
0.00733011
0.00696635
0.00655234
0.00610807
0.00565609
0.00521955
0.0048218
0.00448133
0.00420838
0.00400528
0.00387041
0.00380011
0.00378603
0.00380723
0.00385593
0.00396863
0.004171
0.00446516
0.00484268
0.00527264
0.00569223
0.00601288
0.0061366
0.00597352
0.00545303
0.00452445
0.00315598
0.00141824
0.000145967
)
;
    }
    procBoundary3to2
    {
        type            processor;
        value           nonuniform List<scalar> 
43
(
0.00878929
0.00854965
0.00836
0.00822257
0.00813714
0.00810106
0.00810977
0.00815757
0.00823848
0.00834692
0.00847736
0.00863171
0.00881209
0.00901591
0.00923763
0.00947033
0.00970798
0.00994804
0.0101935
0.0104533
0.0107398
0.0110639
0.0114284
0.0118222
0.0122189
0.0125797
0.0128635
0.0130375
0.0130862
0.0130148
0.0128457
0.0126107
0.0123419
0.0120653
0.0117967
0.0115422
0.011299
0.0110579
0.0108055
0.0105256
0.0102006
0.00981004
0.00932379
)
;
    }
}


// ************************************************************************* //
