/*--------------------------------*- C++ -*----------------------------------*\
  =========                 |
  \\      /  F ield         | OpenFOAM: The Open Source CFD Toolbox
   \\    /   O peration     | Website:  https://openfoam.org
    \\  /    A nd           | Version:  7
     \\/     M anipulation  |
\*---------------------------------------------------------------------------*/
FoamFile
{
    version     2.0;
    format      ascii;
    class       volScalarField;
    location    "0.4";
    object      p_rgh;
}
// * * * * * * * * * * * * * * * * * * * * * * * * * * * * * * * * * * * * * //

dimensions      [1 -1 -2 0 0 0 0];

internalField   nonuniform List<scalar> 
1935
(
-2.98755
-3.01805
-3.04619
-3.07071
-3.09047
-3.10383
-3.10945
-3.10598
-3.09216
-3.06671
-3.02788
-2.97411
-2.90474
-2.81951
-2.71851
-2.6019
-2.47053
-2.32658
-2.17337
-2.01459
-1.854
-1.69502
-1.54046
-1.39229
-1.25182
-1.11991
-0.997045
-0.883395
-0.778958
-0.683741
-0.597581
-0.519912
-0.449886
-0.386675
-0.329595
-0.278023
-0.231298
-0.188727
-0.14965
-0.113557
-0.0807215
-0.0523395
-0.0188679
-3.09719
-3.19924
-3.29606
-3.38528
-3.1319
-3.23707
-3.3352
-3.42305
-3.16351
-3.272
-3.3714
-3.45772
-3.19141
-3.30243
-3.40247
-3.48689
-3.21393
-3.32672
-3.42685
-3.509
-3.22966
-3.34399
-3.44459
-3.52564
-3.2376
-3.354
-3.45667
-3.53937
-3.23657
-3.35562
-3.46162
-3.5471
-3.22546
-3.34782
-3.45878
-3.54918
-3.20293
-3.33
-3.44815
-3.55063
-3.16678
-3.29866
-3.42316
-3.53592
-3.11451
-3.25071
-3.38115
-3.50256
-3.04507
-3.18415
-3.32066
-3.44808
-2.9579
-3.09762
-3.23867
-3.37365
-2.85288
-2.99125
-3.13463
-3.27807
-2.72947
-2.86332
-3.00539
-3.15356
-2.58783
-2.71251
-2.84733
-2.99132
-2.43027
-2.54086
-2.66151
-2.79222
-2.26103
-2.35382
-2.45468
-2.5638
-2.08524
-2.1586
-2.23708
-2.32062
-1.90803
-1.96246
-2.01908
-2.07761
-1.73398
-1.77154
-1.80885
-1.8455
-1.56669
-1.59032
-1.61192
-1.63094
-1.40843
-1.42128
-1.43094
-1.43683
-1.26024
-1.26505
-1.26604
-1.26272
-1.12248
-1.12139
-1.11623
-1.1067
-0.995209
-0.9899
-0.980564
-0.967068
-0.878214
-0.869964
-0.85797
-0.842136
-0.771112
-0.760719
-0.747066
-0.729982
-0.673749
-0.661692
-0.646913
-0.62918
-0.586037
-0.572766
-0.557183
-0.539118
-0.507462
-0.493488
-0.477454
-0.459357
-0.437044
-0.422845
-0.406808
-0.389094
-0.373772
-0.359734
-0.344158
-0.32728
-0.316892
-0.303332
-0.288593
-0.272885
-0.265796
-0.252979
-0.239297
-0.2249
-0.219791
-0.20789
-0.195333
-0.182233
-0.178066
-0.167119
-0.155634
-0.143749
-0.139826
-0.129748
-0.119206
-0.108436
-0.104501
-0.0951656
-0.0853844
-0.0755613
-0.0724339
-0.0637053
-0.0541099
-0.0441305
-0.044875
-0.0360621
-0.0237917
-0.0077207
-0.0112583
-0.000802909
0.0169417
0.0440963
-3.46618
-3.53024
-3.57381
-3.59706
-3.60074
-3.58882
-3.56622
-3.53899
-3.51722
-3.50782
-3.49652
-3.36642
-1.75562
44.8258
858.029
2151.12
2230.64
2248.71
2261.11
2083.32
914.262
51.9712
16.8242
7.74132
5.02359
4.38814
4.28251
4.29463
4.32247
4.34406
4.3588
4.37006
4.38004
4.38955
4.39935
4.41097
4.42624
4.44631
4.46834
4.48555
-3.49958
-3.55681
-3.58966
-3.60699
-3.6049
-3.58607
-3.55636
-3.52017
-3.48465
-3.4479
-3.31657
-2.40453
6.10177
171.299
1388.75
2268.69
2295.68
2302.77
2303.68
1879.21
501.693
35.3003
12.6411
6.36712
4.4586
4.05061
4.01168
4.0488
4.09066
4.12348
4.14827
4.16818
4.18523
4.20046
4.21502
4.23048
4.24844
4.26979
4.29182
4.3086
-3.51735
-3.56935
-3.60512
-3.61528
-3.60596
-3.58052
-3.54341
-3.497
-3.43338
-3.27911
-2.53899
1.90808
35.3403
586.881
2060.34
2321.76
2349.54
2369.99
2254.26
1346.87
170.999
23.548
9.6064
5.14004
3.94775
3.73444
3.75186
3.8098
3.86377
3.9067
3.9405
3.96791
3.99095
4.01118
4.03013
4.04925
4.06966
4.0919
4.11346
4.12945
-3.53561
-3.39544
-3.49073
-3.61684
-3.60429
-3.57333
-3.52885
-3.45758
-3.26654
-2.46885
1.36044
22.1664
298.312
1631.72
2346.56
2375.98
2393.13
2375.03
1933.16
573.279
45.5895
16.2164
6.94446
4.15312
3.53785
3.45348
3.50612
3.57874
3.64252
3.69418
3.73578
3.76977
3.79824
3.82311
3.84607
3.86839
3.89081
3.91361
3.93452
3.94959
-3.47088
-3.37986
-3.38437
-3.54814
-3.60288
-3.56929
-3.52158
-3.37541
-2.5038
6.45188
34.0696
333.467
1493.61
2362.94
2398.26
2425.22
2436.54
2196.6
1026.63
108.738
26.1562
10.2282
4.96847
3.53555
3.2074
3.19875
3.27448
3.35703
3.42833
3.48711
3.53527
3.57499
3.6084
3.63752
3.66402
3.68899
3.71294
3.73602
3.75622
3.77043
-3.53855
-3.36858
-3.3799
-3.43366
-3.59566
-3.56979
-3.52457
-3.46453
5.8583
89.4698
658.288
1861.84
2392.48
2434.59
2454.53
2473.45
2325.04
1379.6
192.419
36.5372
15.1074
6.422
3.85287
3.08143
2.91594
2.96355
3.05649
3.14615
3.22308
3.28734
3.34068
3.38512
3.42275
3.45556
3.48506
3.51212
3.53712
3.56018
3.57958
3.59293
-3.54147
-3.35874
-3.37081
-3.48398
-3.60041
-3.54166
-3.48093
-3.48191
18.8676
795.614
2201.09
2433.77
2473.09
2491.15
2507.39
2382.71
1540.92
268.321
45.3339
18.9511
8.03929
4.21056
3.05813
2.67835
2.65883
2.74841
2.85264
2.9471
3.02797
3.09612
3.15328
3.20138
3.24244
3.27825
3.3101
3.33867
3.36427
3.38704
3.40549
3.41794
-3.29451
-3.23586
-3.51423
-3.59384
-3.58705
-3.37848
-2.1391
-0.430671
3.75005
1750.09
2476.74
2522.02
2537.78
2547.53
2429.47
1579.6
296.705
48.6661
21.5921
9.14365
4.36489
2.81715
2.44573
2.36669
2.4401
2.55333
2.6634
2.76036
2.84349
2.91408
2.97384
3.02463
3.0683
3.10636
3.13986
3.16938
3.19517
3.2174
3.23484
3.24636
-3.30026
-3.201
-3.55247
-3.62358
-3.50038
-2.07691
11.6521
236.486
1178.96
1513.89
1884.78
2244.28
2443.4
2290.07
1488.53
309.438
41.0525
19.5828
9.30081
4.43104
2.61061
2.07985
2.04098
2.13666
2.25507
2.37747
2.48883
2.58611
2.66989
2.7416
2.80288
2.85546
2.90088
2.94042
2.97492
3.00485
3.03049
3.05201
3.06839
3.079
-3.61191
-2.51752
-3.24343
-3.69676
-3.73125
31.8327
321.69
1661.92
2206.95
1743.69
627.168
585.193
736.186
609.625
192.074
34.3915
16.0926
7.60339
3.87906
2.37708
1.8335
1.74114
1.82177
1.96142
2.09632
2.21904
2.32841
2.42413
2.50716
2.57886
2.64071
2.69417
2.74053
2.78079
2.81565
2.84555
2.87078
2.89147
2.9068
2.91655
-3.51664
-2.5089
-3.00997
-3.7571
-3.85567
250.205
1643.3
2273.14
2292.56
2297.15
880.683
140.312
62.9248
31.7065
16.706
10.1968
5.63816
3.04627
1.96984
1.55587
1.47603
1.55417
1.68506
1.82496
1.95723
2.07581
2.18111
2.27388
2.35506
2.42581
2.48735
2.54087
2.58736
2.62765
2.66235
2.69188
2.71649
2.73628
2.75057
2.75957
-3.60692
-3.31039
-2.28288
-3.61723
-3.73754
416.77
2285.65
2356.58
2372.58
2352
1531.48
135.311
31.5047
14.3355
6.2439
3.58151
2.24043
1.55993
1.27394
1.23393
1.31299
1.43821
1.57584
1.70954
1.83344
1.94553
2.0457
2.13464
2.21316
2.28218
2.34264
2.39542
2.44133
2.48108
2.51521
2.54411
2.56797
2.5868
2.60005
2.60856
-3.57026
-3.54356
-2.221
-3.35742
-3.40919
63.3511
2049.08
2448.17
2419.11
2406.71
2403.03
492.889
13.9859
6.47134
3.20918
1.64095
1.23133
1.0489
1.0328
1.10853
1.22256
1.35151
1.48191
1.60609
1.72115
1.82608
1.92073
2.00545
2.08082
2.14751
2.2062
2.25758
2.30233
2.34109
2.37437
2.40245
2.42546
2.44326
2.4553
2.46398
-3.5045
-3.61586
-3.08918
-1.6917
-3.42841
-3.09205
1137.65
2485.93
2482.75
2466.39
2458.62
1153.25
18.0199
2.98522
1.70411
1.0255
0.885721
0.878656
0.9408
1.04001
1.15586
1.2772
1.39705
1.51122
1.61769
1.71562
1.80473
1.88513
1.9571
2.02105
2.07748
2.12699
2.1702
2.20769
2.23991
2.26706
2.28913
2.30596
2.31697
2.32534
-3.42038
-3.56209
-3.67433
-2.20432
0.0659019
-1.08888
2.44771
1867.42
2546.93
2532.37
2517.09
1200.45
11.9648
1.45345
0.968676
0.761056
0.746517
0.799034
0.883041
0.984671
1.09493
1.20729
1.3174
1.42258
1.5213
1.61274
1.69655
1.77261
1.84098
1.9019
1.95578
2.00315
2.04462
2.08071
2.11177
2.13789
2.15898
2.17482
2.18483
2.19279
-3.31152
-3.47412
-3.62329
-3.23051
2.3564
5.26172
5.14471
373.537
1931.5
2569.8
2255.04
809.377
11.8033
1.14562
0.661014
0.615827
0.660239
0.736609
0.82822
0.928947
1.03375
1.13864
1.24086
1.33859
1.43066
1.51635
1.59521
1.66699
1.73166
1.78939
1.84055
1.88569
1.92535
1.95998
1.98981
2.01484
2.03491
2.04976
2.05881
2.06617
-3.15046
-3.32387
-3.4908
-3.56637
-1.06457
4.77251
10.3841
10.4301
353.466
823.457
548.767
211.988
16.2767
0.781034
0.48754
0.507893
0.57896
0.670511
0.76846
0.869342
0.970658
1.07025
1.16655
1.25839
1.34494
1.42557
1.49985
1.5675
1.6285
1.68302
1.73149
1.77441
1.81227
1.84541
1.87395
1.89781
1.91677
1.93061
1.93877
1.94535
-2.93927
-3.10396
-3.27056
-3.38958
-3.16417
1.62723
6.54762
7.1574
6.72396
14.6206
14.2509
2.59436
3.27576
0.0405597
0.248443
0.362313
0.480832
0.594601
0.702202
0.80587
0.906032
1.00237
1.09442
1.18167
1.26359
1.33974
1.40977
1.47349
1.53096
1.58244
1.62836
1.66917
1.70527
1.73689
1.76406
1.78663
1.8044
1.81717
1.82448
1.83019
-2.68672
-2.82402
-2.96661
-3.09411
-2.96894
-1.10977
0.652776
1.08116
0.139911
0.164363
0.435414
-0.561128
-0.789022
-0.261515
0.0270273
0.223181
0.383449
0.517095
0.634406
0.741745
0.84191
0.936178
1.02501
1.10845
1.18631
1.25836
1.32442
1.38448
1.43869
1.48737
1.53093
1.56976
1.60414
1.63418
1.65987
1.68105
1.69754
1.70919
1.7157
1.7205
-2.413
-2.5131
-2.61326
-2.70568
-2.72361
-2.43866
-1.90193
-1.25088
-1.3978
-1.74267
-1.32696
-1.09388
-0.802244
-0.377222
-0.0821653
0.137362
0.309916
0.451114
0.572816
0.681572
0.781045
0.873204
0.959018
1.03888
1.1129
1.18108
1.24345
1.30014
1.3514
1.39757
1.43898
1.47592
1.50856
1.53697
1.56108
1.58077
1.59591
1.60643
1.61216
1.61606
-2.14002
-2.20386
-2.26195
-2.30721
-2.32693
-2.24743
-2.07619
-1.8804
-1.78713
-1.64063
-1.31075
-0.979154
-0.665149
-0.351748
-0.100844
0.0999366
0.263621
0.401501
0.521335
0.628207
0.725294
0.814497
0.896889
0.97304
1.04326
1.10774
1.16667
1.22031
1.26892
1.3128
1.3522
1.38729
1.41816
1.44485
1.4673
1.48545
1.49922
1.5086
1.5136
1.51663
-1.88222
-1.91592
-1.94101
-1.95177
-1.94026
-1.88984
-1.80386
-1.68817
-1.54036
-1.33695
-1.07449
-0.800798
-0.537472
-0.295132
-0.0879728
0.0869575
0.236132
0.365446
0.479602
0.582026
0.675078
0.76031
0.838706
0.910896
0.9773
1.03824
1.094
1.14486
1.19104
1.23278
1.27021
1.30342
1.33247
1.35737
1.37813
1.39473
1.40716
1.41545
1.41974
1.42196
-1.64731
-1.65782
-1.65859
-1.64553
-1.61367
-1.55826
-1.47743
-1.36884
-1.22871
-1.05451
-0.852144
-0.639063
-0.430851
-0.237462
-0.0650373
0.086795
0.220617
0.339416
0.445885
0.542192
0.629972
0.710408
0.784346
0.852397
0.915021
0.972579
1.02536
1.0736
1.11747
1.15709
1.19253
1.22382
1.251
1.27409
1.29317
1.30827
1.31943
1.32668
1.33032
1.3318
-1.43833
-1.43244
-1.41665
-1.38829
-1.34446
-1.28274
-1.20141
-1.09902
-0.974844
-0.830145
-0.670042
-0.502954
-0.337822
-0.181204
-0.0368648
0.0943425
0.213083
0.320629
0.418365
0.507563
0.589294
0.664426
0.733645
0.797494
0.856397
0.910678
0.960579
1.00626
1.04781
1.08527
1.11865
1.14796
1.17324
1.19457
1.21203
1.22573
1.23572
1.24204
1.24507
1.24589
-1.25415
-1.23765
-1.21169
-1.17462
-1.12489
-1.06126
-0.982733
-0.889013
-0.780603
-0.659295
-0.528663
-0.393677
-0.259453
-0.130064
-0.00807356
0.105385
0.210147
0.306581
0.395306
0.477012
0.552377
0.622009
0.686434
0.746086
0.801307
0.852343
0.899355
0.942421
0.981563
1.01677
1.04802
1.07533
1.09876
1.1184
1.13438
1.14681
1.15575
1.16124
1.16372
1.16396
-1.09178
-1.06905
-1.0377
-0.996741
-0.945433
-0.883209
-0.809721
-0.725236
-0.630639
-0.52755
-0.418455
-0.306453
-0.194676
-0.0857412
0.0185058
0.117
0.209284
0.295317
0.375312
0.44962
0.518648
0.582804
0.642462
0.697936
0.749464
0.797204
0.841236
0.881575
0.918196
0.95106
0.98015
1.00549
1.02715
1.04524
1.05988
1.07119
1.07922
1.08398
1.08597
1.08571
-0.948395
-0.922438
-0.888907
-0.847213
-0.797077
-0.738256
-0.670777
-0.595153
-0.512312
-0.423602
-0.330804
-0.235971
-0.141148
-0.0481076
0.0417984
0.127669
0.208994
0.285571
0.357413
0.424672
0.487577
0.546381
0.601328
0.65262
0.700401
0.74475
0.785687
0.823186
0.8572
0.887689
0.914641
0.938085
0.958097
0.97478
0.988247
0.998588
1.00582
1.00996
1.01151
1.01082
-0.82144
-0.794145
-0.760354
-0.719755
-0.672283
-0.617854
-0.556664
-0.489282
-0.416551
-0.339568
-0.25965
-0.178245
-0.0967737
-0.0164949
0.0615823
0.136726
0.208464
0.276545
0.340887
0.401528
0.458577
0.512179
0.562472
0.60957
0.653543
0.694417
0.732173
0.766769
0.798154
0.826292
0.851177
0.872841
0.891346
0.906774
0.919209
0.928709
0.935262
0.938856
0.939999
0.938954
-0.708399
-0.680953
-0.648048
-0.609551
-0.565479
-0.515832
-0.460857
-0.401076
-0.337202
-0.270111
-0.200811
-0.130368
-0.0598235
0.00988916
0.0779954
0.143903
0.2072
0.267634
0.325082
0.37952
0.430982
0.479534
0.525244
0.568163
0.608312
0.645684
0.680245
0.711949
0.740749
0.766615
0.789542
0.809551
0.826682
0.840986
0.852505
0.861262
0.867212
0.870323
0.871107
0.869758
-0.607429
-0.580606
-0.5493
-0.513458
-0.473107
-0.428291
-0.379252
-0.326422
-0.270378
-0.211823
-0.151539
-0.0903437
-0.0290295
0.0316841
0.0911873
0.148999
0.204767
0.258261
0.309346
0.357964
0.404106
0.447789
0.489032
0.527847
0.56423
0.598155
0.629585
0.658477
0.684789
0.708496
0.729583
0.748055
0.763921
0.777194
0.787877
0.795953
0.801352
0.804026
0.804486
0.802887
-0.517632
-0.491919
-0.462622
-0.429675
-0.393089
-0.352924
-0.309391
-0.262839
-0.213732
-0.162632
-0.110159
-0.0569546
-0.00363792
0.0492253
0.101151
0.151749
0.200726
0.24788
0.29308
0.336254
0.377366
0.416404
0.453359
0.488221
0.520969
0.551574
0.58
0.606206
0.630159
0.651825
0.671181
0.688206
0.702879
0.715175
0.72506
0.732487
0.737363
0.73963
0.739798
0.737998
-0.438461
-0.414161
-0.387058
-0.357027
-0.324059
-0.288225
-0.249705
-0.208781
-0.165833
-0.121312
-0.0757117
-0.0295392
0.0167191
0.0626198
0.107781
0.151893
0.194715
0.236072
0.275847
0.313961
0.350367
0.385031
0.417932
0.449045
0.478345
0.505802
0.531383
0.555051
0.576771
0.596505
0.614211
0.629846
0.643358
0.654693
0.663787
0.670569
0.674932
0.676816
0.676719
0.674766
-0.369133
-0.346464
-0.321614
-0.294409
-0.264842
-0.232994
-0.199021
-0.163161
-0.125723
-0.0870713
-0.0475941
-0.00768551
0.0322779
0.0719541
0.111047
0.149312
0.186556
0.222631
0.257429
0.290874
0.322911
0.353498
0.382605
0.410202
0.436263
0.46076
0.48366
0.504931
0.52453
0.542412
0.558518
0.572785
0.585139
0.5955
0.603787
0.609913
0.613766
0.615284
0.614951
0.612889
-0.30859
-0.287715
-0.265122
-0.240634
-0.214266
-0.186107
-0.156299
-0.125043
-0.0925915
-0.0592279
-0.0252507
0.00904165
0.0433647
0.0774596
0.1111
0.144094
0.176287
0.207554
0.237799
0.266949
0.294945
0.321747
0.347318
0.37163
0.394656
0.416369
0.43674
0.455731
0.473296
0.489378
0.503908
0.516805
0.527981
0.537342
0.544797
0.550253
0.553597
0.554766
0.554228
0.552096
-0.255688
-0.236691
-0.216334
-0.194467
-0.171136
-0.146438
-0.120498
-0.0934826
-0.0655881
-0.0370275
-0.00802184
0.0212096
0.0504575
0.0795292
0.108253
0.13648
0.164085
0.190963
0.21703
0.242218
0.266472
0.289752
0.312024
0.33326
0.353433
0.372518
0.390483
0.407288
0.42288
0.437193
0.450151
0.461664
0.471637
0.479972
0.486573
0.491348
0.494187
0.495029
0.494319
0.492155
-0.209261
-0.19215
-0.173989
-0.154672
-0.134266
-0.112864
-0.0905693
-0.0675087
-0.0438237
-0.0196659
0.00480848
0.029444
0.0540904
0.0786064
0.102862
0.126743
0.150147
0.172988
0.195194
0.216705
0.237474
0.257463
0.276641
0.29498
0.312455
0.329039
0.344697
0.359386
0.373047
0.385611
0.396996
0.407111
0.415863
0.423153
0.42889
0.432985
0.435334
0.435875
0.435027
0.43287
-0.16812
-0.152872
-0.136892
-0.120104
-0.102575
-0.0843738
-0.0655731
-0.0462543
-0.0265088
-0.00643541
0.0138621
0.0342779
0.0547063
0.0750447
0.0951963
0.115072
0.134594
0.15369
0.172301
0.190378
0.20788
0.224774
0.241031
0.256624
0.271528
0.285714
0.299145
0.311772
0.323536
0.334367
0.344183
0.352899
0.360426
0.366671
0.371551
0.374981
0.376865
0.37714
0.376193
0.374079
-0.131125
-0.117776
-0.104049
-0.0898579
-0.075236
-0.0602159
-0.0448256
-0.029102
-0.0130928
0.00314526
0.0195485
0.0360471
0.0525678
0.0690369
0.0853831
0.10154
0.117445
0.133043
0.148289
0.163141
0.177565
0.191532
0.205015
0.217989
0.230428
0.242301
0.253568
0.26418
0.274079
0.283198
0.291461
0.298792
0.305109
0.310329
0.314378
0.317178
0.318636
0.318689
0.317685
0.315652
-0.0973276
-0.0860482
-0.0747813
-0.0633658
-0.0517707
-0.039975
-0.0279619
-0.0157309
-0.00329694
0.00931208
0.0220584
0.0348962
0.0477744
0.06064
0.0734411
0.0861274
0.0986525
0.110975
0.123057
0.134868
0.146379
0.157564
0.1684
0.178861
0.188923
0.198552
0.20771
0.216351
0.22442
0.231857
0.238597
0.244573
0.249714
0.25395
0.257213
0.259434
0.260523
0.260406
0.259394
0.257488
-0.0660353
-0.0571995
-0.0487722
-0.0404179
-0.032026
-0.0235266
-0.0148704
-0.00603575
0.0029774
0.0121538
0.0214674
0.0308846
0.0403674
0.0498766
0.0593731
0.0688194
0.0781811
0.087427
0.0965293
0.105463
0.114205
0.122733
0.131026
0.139063
0.146817
0.15426
0.161357
0.168066
0.174342
0.180135
0.185391
0.190056
0.194071
0.197379
0.199921
0.201634
0.202429
0.20222
0.201267
0.199549
-0.0358144
-0.030354
-0.0256081
-0.0207962
-0.0158552
-0.010751
-0.00543765
9.86363e-05
0.0058466
0.011783
0.0178788
0.0241016
0.0304184
0.036797
0.0432068
0.0496198
0.0560105
0.0623565
0.068637
0.074833
0.0809268
0.0869009
0.0927382
0.0984201
0.103926
0.109231
0.114307
0.119123
0.123645
0.127833
0.131649
0.13505
0.137995
0.140437
0.142329
0.143612
0.144196
0.143978
0.143157
0.141712
0.000859972
-0.000659279
-0.00236654
-0.00251068
-0.00180128
-0.000556461
0.00116378
0.00329596
0.00576522
0.00850643
0.0114659
0.014599
0.0178681
0.0212418
0.0246933
0.0282003
0.0317436
0.0353067
0.0388746
0.0424338
0.0459711
0.0494744
0.0529311
0.0563278
0.0596501
0.0628816
0.0660041
0.0689974
0.0718398
0.0745083
0.0769792
0.0792273
0.0812262
0.0829461
0.084353
0.0853997
0.0859968
0.0860066
0.0855193
0.0845215
0.0468596
0.0297583
0.0190162
0.0132295
0.00951859
0.00695584
0.00524038
0.00415825
0.00353863
0.00326251
0.00324837
0.00343895
0.00379317
0.00428106
0.00488036
0.00557415
0.0063491
0.00719419
0.00809989
0.00905768
0.0100596
0.0110982
0.0121661
0.0132557
0.0143594
0.0154695
0.0165778
0.017676
0.0187561
0.0198102
0.020831
0.0218115
0.022745
0.0236236
0.0244376
0.0251695
0.0257721
0.0261418
0.0262494
0.0260156
)
;

boundaryField
{
    leftWall
    {
        type            fixedFluxPressure;
        gradient        nonuniform 0();
        value           nonuniform 0();
    }
    rightWall
    {
        type            fixedFluxPressure;
        gradient        uniform 0;
        value           nonuniform List<scalar> 
43
(
4.48555
4.3086
4.12945
3.94959
3.77043
3.59293
3.41794
3.24636
3.079
2.91655
2.75957
2.60856
2.46398
2.32534
2.19279
2.06617
1.94535
1.83019
1.7205
1.61606
1.51663
1.42196
1.3318
1.24589
1.16396
1.08571
1.01082
0.938954
0.869758
0.802887
0.737998
0.674766
0.612889
0.552096
0.492155
0.43287
0.374079
0.315652
0.257488
0.199549
0.141712
0.0845215
0.0260156
)
;
    }
    lowerWall
    {
        type            fixedFluxPressure;
        gradient        nonuniform 0();
        value           nonuniform 0();
    }
    atmosphere
    {
        type            totalPressure;
        rho             rho;
        psi             none;
        gamma           1;
        p0              uniform 0;
        value           nonuniform List<scalar> 
45
(
-0.00513475
-0.00300446
-0.00149364
-0.000550242
-0.000135511
0
0
0
0
0
0
0
0
0
0
0
0
0
0
0
0
0
0
0
0
0
0
0
0
0
0
0
0
0
0
0
0
0
0
0
0
0
0
0
0
)
;
    }
    defaultFaces
    {
        type            empty;
    }
    procBoundary3to1
    {
        type            processor;
        value           nonuniform List<scalar> 
45
(
-2.95693
-3.06096
-3.16059
-3.25726
-3.34739
-3.4313
-3.5025
-3.55336
-3.58361
-3.59517
-3.59152
-3.57788
-3.56203
-3.5533
-3.55949
-3.57282
-3.55911
-3.46171
9.23906
587.701
1964.85
2178.45
2199.23
2214.02
2129.25
1253.79
122.014
21.2952
9.07726
5.61619
4.73869
4.56062
4.5446
4.55666
4.56643
4.57071
4.57248
4.57428
4.57714
4.58178
4.58948
4.60191
4.62036
4.64197
4.65935
)
;
    }
    procBoundary3to2
    {
        type            processor;
        value           nonuniform List<scalar> 
43
(
-2.87354
-2.89914
-2.92331
-2.94463
-2.96129
-2.97189
-2.97501
-2.96929
-2.95348
-2.92637
-2.88679
-2.8336
-2.76638
-2.68504
-2.58984
-2.48131
-2.36059
-2.22951
-2.09048
-1.94641
-1.80019
-1.65451
-1.51152
-1.3729
-1.24002
-1.11402
-0.995759
-0.885816
-0.784504
-0.691838
-0.6075
-0.530928
-0.461479
-0.398534
-0.341475
-0.289647
-0.242387
-0.19909
-0.159225
-0.122342
-0.0886649
-0.0592894
-0.025192
)
;
    }
}


// ************************************************************************* //
