/*--------------------------------*- C++ -*----------------------------------*\
  =========                 |
  \\      /  F ield         | OpenFOAM: The Open Source CFD Toolbox
   \\    /   O peration     | Website:  https://openfoam.org
    \\  /    A nd           | Version:  7
     \\/     M anipulation  |
\*---------------------------------------------------------------------------*/
FoamFile
{
    version     2.0;
    format      ascii;
    class       scalarField;
    location    "0.007/lagrangian/dsmc";
    object      Ei;
}
// * * * * * * * * * * * * * * * * * * * * * * * * * * * * * * * * * * * * * //


6200
(
1.940697942e-21
3.831768825e-21
3.989784751e-21
4.148191867e-21
6.889638965e-21
1.0710951e-22
1.912945919e-21
2.200210746e-21
9.239179249e-21
1.329775013e-20
5.643715217e-21
9.446349531e-21
7.397120933e-21
1.65348601e-20
8.437194426e-21
2.789192906e-22
1.062090329e-21
3.608454989e-21
1.325843176e-21
1.345750772e-21
1.108315251e-21
2.578313646e-21
6.9145835e-21
5.253033246e-21
7.717711025e-21
5.427049809e-21
3.686332413e-21
1.169506016e-20
3.909763323e-23
9.495287493e-21
4.412222206e-22
4.347788176e-21
5.41795133e-21
3.542878443e-21
2.086556815e-22
1.227255076e-20
2.563505756e-23
3.686842806e-21
1.085447042e-21
1.504888092e-20
3.772619155e-21
2.13865486e-21
5.967153867e-21
8.089753981e-21
1.770624855e-22
4.15641143e-22
2.325346363e-21
1.185993467e-20
8.752221019e-21
5.428818121e-21
1.383277397e-21
4.153075853e-21
2.587069588e-21
4.551592403e-21
6.531604722e-21
3.709902989e-22
1.668166807e-20
1.265987213e-22
9.26855159e-22
1.426796407e-21
1.030068902e-21
1.345264993e-21
7.641825023e-21
7.073896484e-22
2.031476561e-21
1.174872588e-20
1.166232392e-20
8.125868249e-22
3.544441481e-21
1.19324574e-20
1.304861054e-20
9.856498277e-22
1.07376137e-21
1.00633088e-21
4.075906554e-21
2.966263158e-21
9.628285988e-22
4.611196349e-21
1.22456188e-20
5.115984927e-21
3.998134856e-21
2.286211696e-21
2.07837315e-21
6.533960268e-21
2.589534672e-21
4.836527888e-21
4.282424364e-21
4.32781188e-21
1.784773287e-21
3.720544228e-21
6.411010558e-23
2.38571013e-21
2.316306523e-21
3.287529403e-21
4.253130797e-21
5.138951924e-21
2.851176476e-22
4.422026132e-21
1.026033829e-20
2.984569325e-21
1.624779603e-21
2.995024208e-21
5.872135038e-22
6.292088059e-21
1.281539848e-21
6.720437639e-21
3.633277996e-21
4.148959436e-21
4.928209022e-22
9.874381083e-21
3.842732608e-21
1.701128797e-21
4.725518672e-22
8.637878527e-21
3.388783621e-21
5.834917206e-21
2.162560434e-21
2.36807958e-21
1.000556729e-22
5.601765571e-21
2.691303315e-21
1.345637367e-21
3.347407952e-21
1.033071824e-20
1.270569552e-21
3.764787838e-21
2.805135254e-20
3.470675599e-21
6.36386609e-22
3.35778506e-21
3.543761418e-23
1.391959882e-21
1.038344567e-21
1.25305385e-21
1.411037167e-21
3.579794007e-21
1.683799587e-21
1.402471097e-21
5.518145976e-21
2.687830609e-21
2.461708583e-21
6.575446697e-21
3.655252695e-21
3.217317079e-20
7.572411616e-21
7.889132555e-21
1.897439989e-20
2.531105352e-20
2.855019099e-21
2.956201293e-21
1.318591017e-20
5.128220165e-21
2.42827669e-21
3.714883882e-22
1.932809213e-20
8.927138367e-21
1.057889305e-20
1.473277672e-21
3.876633687e-21
5.510618294e-21
2.894754259e-21
5.033329524e-21
4.585144977e-21
2.2886632e-21
1.24722367e-21
1.719513923e-20
1.510096353e-20
1.350676334e-21
2.419389528e-21
9.375623179e-21
1.233024135e-22
1.084550767e-20
2.719622729e-21
1.94499736e-21
4.904116769e-21
3.449309792e-21
1.891932736e-20
9.852050415e-21
2.017802082e-21
4.051835424e-21
1.329767242e-21
9.622863243e-21
1.400590199e-21
9.539058726e-21
4.09007016e-21
4.027586697e-22
1.384569563e-21
8.037245087e-21
3.039192375e-21
5.92050907e-21
9.683983603e-22
2.424673981e-21
3.150777965e-21
8.434932998e-21
2.06377925e-20
4.488712246e-21
3.906351844e-22
9.36992029e-21
3.606297808e-21
3.24978064e-21
3.129784409e-21
5.263092639e-21
1.666542811e-21
1.643656026e-22
1.744007605e-20
7.169433272e-22
3.118171096e-22
2.089925666e-21
2.660004807e-21
2.547722185e-21
7.515269669e-21
6.932737412e-22
3.282247143e-21
2.580542935e-21
3.361083549e-21
2.248457137e-20
1.769794765e-21
4.007124076e-22
4.860424873e-22
1.854163512e-21
1.214965274e-20
1.548480607e-21
1.276144889e-20
2.554857235e-21
6.302158325e-21
5.780654879e-21
4.477871468e-22
3.842666552e-21
3.235773755e-21
1.92385787e-21
1.48167589e-20
4.408517074e-21
6.582725197e-21
5.060683916e-21
3.337367703e-21
2.816210817e-21
5.745535629e-21
1.125426795e-20
1.819042174e-21
3.640633992e-21
3.584078923e-21
6.180578232e-21
6.110437078e-22
1.997188761e-21
3.401917724e-21
6.991954711e-21
3.064736043e-21
5.543175937e-21
3.276675918e-21
4.250627223e-21
7.265229187e-21
2.461806781e-22
2.331423265e-21
1.495159813e-21
1.001089724e-20
1.369550961e-21
1.302477547e-21
1.10208073e-20
1.136575022e-20
5.66222819e-21
1.342625429e-21
1.699056544e-23
1.611328224e-20
4.318994231e-21
3.940954958e-21
1.850134995e-21
1.153622353e-20
8.390680212e-21
3.747567021e-21
9.312873596e-22
7.666791934e-22
3.289186809e-20
2.208635751e-21
4.251006806e-22
3.808518182e-21
1.604831938e-23
1.980438251e-21
8.492549579e-22
6.909734933e-22
5.905127827e-21
1.987324906e-20
9.128674996e-21
1.284614106e-22
5.647823355e-21
1.218450011e-22
1.612850961e-20
9.927893676e-21
1.949929129e-21
4.700647422e-21
4.783506819e-21
7.623972659e-21
5.854527213e-23
2.158535922e-20
3.047015609e-21
2.358093115e-21
1.458230225e-23
1.86598176e-21
1.942418766e-21
9.747927776e-22
1.724155684e-21
1.536885117e-22
1.906119036e-21
3.356007169e-21
2.391150471e-21
3.45192653e-21
5.698401169e-21
3.289090002e-21
4.40230696e-22
7.097746964e-21
1.167167179e-21
2.676159418e-21
2.025976015e-20
2.134218676e-21
2.270364289e-21
5.01593581e-25
6.328005957e-22
2.194753255e-21
1.609862698e-21
3.727680773e-22
7.124875579e-21
1.511392988e-20
2.503348085e-21
2.786333629e-21
5.270134478e-21
9.732560393e-21
1.492757636e-21
4.38005249e-22
2.07748057e-22
4.138594517e-21
1.081717961e-20
2.665391444e-21
1.635781982e-21
4.669370369e-21
1.355875134e-21
1.373195073e-21
5.622130724e-21
3.276703472e-21
2.632062717e-21
5.99015938e-21
3.859220758e-23
3.305141599e-21
3.791823291e-21
3.308245171e-22
1.813249495e-21
4.987345276e-21
1.65411502e-21
1.508795126e-21
2.110050408e-21
2.163494312e-21
4.160065179e-21
1.675376961e-21
3.854224783e-21
7.075709478e-21
5.673024194e-21
3.360313197e-21
4.760577293e-21
2.331009853e-21
3.711226985e-21
1.208823015e-21
5.009522128e-21
1.664752027e-20
1.145429559e-21
1.104424932e-20
6.387911628e-21
3.707639201e-21
1.499100046e-21
1.916324595e-21
4.245392488e-21
3.649951374e-21
5.021573525e-21
3.230925245e-21
1.19173701e-20
1.469398726e-21
1.222441029e-21
1.295267398e-20
1.250540112e-21
5.472551509e-21
9.215076627e-22
5.59166918e-21
9.503462317e-21
1.215980107e-21
3.288336052e-21
6.558569916e-22
5.657361541e-22
5.890377409e-21
6.719184919e-21
2.096691971e-21
8.810227024e-21
9.597592377e-22
6.765425642e-21
1.644583275e-22
5.381183569e-21
3.369739192e-23
5.383340595e-21
2.303545203e-21
2.173744513e-21
5.828684201e-21
2.203941591e-21
1.606661809e-21
8.465515605e-22
7.687973916e-22
4.307803772e-20
2.653091213e-21
3.132838193e-21
9.805678284e-21
1.377608879e-21
1.58145974e-20
3.542945457e-22
1.236530117e-21
1.018658711e-20
3.352938997e-22
5.940209822e-21
4.328247305e-21
1.532803321e-20
4.726803575e-21
1.837860292e-21
4.25008713e-21
1.747352897e-21
1.080659261e-21
1.173398574e-21
1.484602042e-21
1.077144461e-21
8.978385997e-21
3.730330116e-21
3.580420566e-21
3.550325479e-21
3.018756295e-21
1.063305541e-21
5.941810924e-21
4.560064907e-21
1.433224463e-20
1.007970306e-20
2.361651502e-23
4.234434114e-21
2.740338197e-21
1.614552995e-20
2.106408381e-21
4.318893367e-21
8.306652271e-22
5.144382971e-21
1.524721976e-20
3.673657147e-21
9.173647849e-21
2.012669005e-22
2.022866753e-21
3.726552473e-20
2.162404171e-21
1.543149787e-21
1.019901575e-21
6.988101545e-21
4.115212384e-21
2.076429437e-20
8.393974024e-22
1.101884592e-20
5.480701686e-21
8.705484957e-21
2.72513939e-21
2.187516654e-21
4.915422386e-21
1.057173247e-20
1.495760934e-20
3.438733224e-22
8.009377099e-22
1.579664952e-21
3.584750943e-22
8.578928816e-21
2.132207243e-22
3.406364645e-21
8.676216484e-22
2.637954285e-20
9.902449391e-21
1.088141738e-20
2.638917051e-21
4.803020637e-21
2.117072629e-21
2.63457715e-21
2.508965736e-21
5.53086144e-22
1.194216061e-21
6.138793035e-21
5.427490574e-21
5.41734968e-21
2.093249713e-21
1.609445391e-21
5.075987596e-21
1.275257659e-21
5.965702691e-21
1.560479585e-22
1.551432354e-21
3.185483019e-21
2.315763888e-20
3.138360828e-21
2.679555458e-22
4.391657208e-21
8.82681571e-22
1.760380967e-21
1.882571319e-22
4.776960391e-21
2.059201636e-20
4.549543733e-21
1.686478443e-20
1.031412375e-20
5.331580545e-22
6.561407366e-22
2.970748034e-21
3.080316736e-21
2.008566499e-21
7.720769932e-21
3.211142219e-21
4.326958657e-21
1.216204851e-21
3.894550915e-21
4.391036014e-23
1.749668156e-20
2.545307737e-21
5.542060567e-22
6.830935772e-21
8.31027137e-21
9.172074184e-21
2.410744433e-21
4.84363371e-21
1.026895558e-21
1.879211238e-21
8.093734037e-22
8.575175674e-21
5.483643643e-21
1.932173742e-21
2.93988053e-20
7.192308166e-23
6.889594336e-22
9.109825329e-21
4.123778402e-22
1.628386318e-20
7.827546471e-21
2.465237973e-20
1.392011549e-22
7.573446833e-21
2.053836862e-21
2.983563728e-21
4.508187238e-21
9.860205435e-22
3.461203721e-21
2.868267303e-21
1.401098098e-21
4.228307603e-22
1.877924813e-21
9.921147909e-21
5.246367229e-22
7.521132612e-21
4.55887618e-21
1.195593642e-20
1.175643634e-20
8.092264409e-21
2.869279657e-21
8.143169195e-22
1.16784311e-21
8.123804337e-21
9.530356738e-21
1.707665231e-21
4.648717764e-21
2.083197897e-21
5.050197301e-21
4.05194691e-21
3.419458924e-21
1.845862783e-21
2.298342402e-21
1.465318138e-21
5.928488753e-21
4.56275615e-21
1.271967921e-20
5.725175314e-21
2.363128298e-21
7.622617694e-21
6.466431955e-21
1.646525674e-22
1.03585768e-22
9.769370484e-21
7.188985887e-21
9.714027821e-21
4.191196967e-22
7.286439943e-21
2.292047314e-21
3.057143712e-21
5.949523619e-22
1.582562605e-21
4.335834878e-22
4.568282445e-21
5.376273412e-21
7.118949021e-22
4.089535374e-21
5.753460665e-21
1.47072526e-21
5.965653188e-22
3.493505882e-21
1.983211635e-21
1.144812862e-21
3.595307123e-21
2.240513809e-21
8.448846888e-21
6.02750625e-21
3.637330129e-21
1.386036288e-21
3.237010958e-21
5.461271555e-21
3.964535366e-21
6.670158246e-21
1.737794108e-22
3.367599016e-22
1.542408335e-22
4.847114614e-21
1.245914476e-21
6.215884945e-22
4.282588079e-21
5.089159317e-21
6.347606387e-21
3.051226113e-22
8.397446224e-22
6.85660072e-21
2.783513288e-20
7.990600866e-21
1.07017228e-21
6.967558187e-21
7.742088339e-21
1.10108141e-20
5.300413863e-21
6.052056894e-21
4.690040336e-21
2.165156953e-20
1.006963908e-20
9.941434634e-21
8.876689226e-21
4.261867733e-22
1.266313255e-20
3.115231837e-21
6.635898485e-21
2.98755658e-21
9.041371414e-22
1.13669734e-20
5.795900843e-22
2.16131997e-22
3.107462842e-21
1.180522867e-20
6.778224769e-21
2.736385951e-21
5.388799215e-22
8.487712778e-21
1.448246698e-20
7.561637422e-21
1.747500104e-21
1.287903005e-20
1.634811401e-21
1.950242654e-21
5.460360773e-22
4.114260925e-21
8.25866788e-22
5.980989915e-21
7.696139936e-22
3.717415491e-21
1.888063729e-20
3.140407122e-21
5.047341688e-21
8.572516126e-21
7.500886458e-21
2.356347517e-21
1.763516702e-21
4.560520828e-22
1.885896789e-20
3.951068899e-21
6.264683331e-22
4.450099311e-21
8.47515492e-21
1.626586296e-20
1.990428574e-20
4.313920886e-23
4.472686456e-21
1.93188427e-21
7.124304535e-21
4.567712247e-21
2.543116245e-20
5.072261226e-21
1.368046034e-20
3.943867285e-21
1.391040463e-22
1.268265917e-21
5.092510679e-21
4.532710461e-21
1.965449847e-20
2.73779093e-21
6.829862965e-21
1.342856286e-21
3.795952369e-22
1.333837665e-21
2.743597324e-21
4.150069183e-21
7.659148847e-21
1.030791962e-20
1.252797622e-21
3.424395788e-21
3.224095276e-21
2.176504054e-21
1.633023113e-21
2.236813074e-21
2.452034938e-21
4.855711349e-21
2.285675286e-20
2.914379089e-21
1.441057511e-22
6.761250206e-22
6.389737536e-21
2.186504056e-22
3.975473833e-21
2.304728114e-21
2.223230258e-21
1.34613504e-20
9.323465435e-22
3.937225948e-21
2.365751359e-21
1.639261938e-21
1.122701467e-21
9.985077236e-21
8.599549835e-21
3.962858179e-21
8.741362724e-21
7.626274193e-22
1.350951038e-20
8.003231541e-21
3.584083508e-22
2.089533139e-21
1.349622089e-24
5.17991169e-21
4.951069509e-22
1.548246363e-21
6.590847029e-22
5.405705336e-21
1.588760296e-21
4.750103846e-21
8.345531627e-22
4.20446533e-21
7.564092911e-21
1.223958493e-20
1.233006366e-21
8.282751128e-21
7.638748319e-21
3.113065646e-21
4.036193435e-21
1.212184521e-21
1.104388191e-21
3.423619014e-21
1.425982085e-20
8.299941307e-21
2.209553113e-21
4.530276314e-21
3.263414356e-21
3.427044347e-20
2.069522863e-21
7.073864046e-21
3.454202532e-21
1.406072868e-20
4.140645388e-21
5.062669459e-21
6.492445641e-21
1.801174228e-22
3.331774561e-21
8.165043181e-23
3.980992288e-21
2.462742516e-21
3.275030386e-21
9.345819873e-22
1.575605371e-22
7.610991409e-24
7.512061382e-21
6.255511644e-21
2.153205721e-21
3.787722613e-21
1.905614902e-20
5.098327246e-21
4.419476358e-21
5.860751606e-21
1.826160754e-21
8.864613988e-21
8.61663555e-21
9.042044487e-22
6.872155717e-21
1.061834631e-20
4.790295772e-21
3.725619792e-21
9.329167664e-22
1.620081437e-21
1.262791124e-21
3.468790897e-21
8.102056536e-21
5.80038932e-22
5.511340796e-21
6.86034057e-22
4.534197817e-21
2.542836097e-21
6.088494192e-21
6.319494711e-21
2.770051749e-21
5.781857627e-22
1.477801285e-20
1.856095571e-22
7.710772256e-22
5.566280314e-21
1.304346371e-20
2.047910335e-22
1.848907758e-21
9.702975985e-21
5.286159181e-21
1.375635959e-20
1.104134447e-20
1.005651064e-21
2.830626967e-21
9.245660459e-22
1.159299894e-22
2.769684509e-21
2.089144088e-21
4.491358787e-21
2.418794243e-22
1.22894345e-21
1.08608654e-20
3.602290321e-21
5.825052316e-21
3.90368405e-21
1.315520747e-21
3.293790001e-21
3.589233002e-20
2.772126522e-21
9.059895288e-21
3.131771029e-22
6.995694748e-21
1.588374061e-21
5.681180642e-21
6.238196392e-22
1.983786884e-21
1.466664222e-21
1.206419742e-20
1.333729477e-21
1.610959435e-21
6.622865931e-21
3.274182301e-21
1.464916382e-21
3.505697187e-21
7.344011303e-22
5.350048507e-21
4.261301913e-21
3.675480862e-22
9.180422843e-21
2.530136998e-21
2.511202241e-21
4.046743586e-21
8.442663872e-21
2.408334694e-21
2.280403293e-21
3.850237787e-22
2.649688477e-21
4.918643632e-21
8.659291875e-21
6.250411247e-21
5.028042976e-21
1.700060661e-21
3.621840209e-21
3.519492426e-21
8.853288322e-21
2.378545131e-21
2.670637868e-21
3.452947282e-22
6.331551785e-22
1.462151517e-23
7.149672334e-21
1.636418537e-21
2.574366959e-21
2.670499644e-21
1.867525416e-20
1.885197015e-21
7.795827798e-21
4.218914653e-22
2.079491175e-23
2.60506583e-21
8.164310085e-21
2.878014361e-21
5.48924003e-21
2.885844733e-24
7.195702663e-21
2.445600614e-23
4.994341208e-21
1.692888022e-20
2.221276531e-21
1.722597853e-22
1.256376251e-20
2.45796263e-22
9.25069845e-23
7.457853101e-21
3.892884378e-21
5.473939735e-20
4.338993076e-21
1.878080095e-21
2.789032264e-21
4.981829899e-21
1.488597231e-20
7.719766561e-22
5.416260448e-21
5.945049089e-21
1.808517704e-20
1.472853916e-21
1.624423653e-21
1.453524334e-20
8.474203677e-22
7.98722091e-21
3.471601329e-21
5.906089377e-21
8.274725138e-22
1.342174374e-21
1.787223542e-21
1.607078958e-21
5.723732446e-21
2.288457153e-21
4.252307003e-21
3.627962569e-21
3.249852128e-21
1.124452789e-20
1.722950798e-20
1.034007431e-21
2.413129625e-22
3.77902094e-21
2.111977491e-21
1.815616113e-21
7.996183248e-21
7.986713952e-21
1.01536899e-20
4.032390811e-21
3.00327588e-21
3.976977416e-21
1.695629672e-21
2.612639379e-21
3.999652065e-21
2.293948379e-21
7.364392652e-21
1.585722383e-22
4.102806187e-22
6.410544482e-21
1.389208551e-22
9.068106723e-22
1.726746367e-22
2.460262365e-20
1.792569691e-21
2.052191291e-21
4.060729028e-21
2.695961354e-21
2.075289304e-20
7.658781295e-22
1.756499724e-21
8.427183872e-21
2.602082966e-21
5.269049539e-21
2.904440653e-21
5.276552995e-23
1.730873239e-21
4.601022046e-21
6.921604196e-21
5.840793246e-22
2.850829735e-21
2.838089573e-21
1.067914909e-21
2.523486959e-20
1.555354342e-22
3.836944005e-23
1.094654312e-21
3.74952108e-21
8.055156304e-21
1.680816298e-20
5.347671094e-21
7.706376605e-21
1.967933748e-21
8.007566866e-22
1.822338619e-21
1.695027852e-21
7.455722185e-21
2.906728888e-21
2.125749424e-21
6.753037084e-21
4.652230892e-21
6.541574689e-21
5.952488577e-22
1.329900053e-21
5.909063285e-21
5.470332699e-21
2.341619617e-21
1.490716794e-20
1.483040405e-21
1.981935839e-20
8.763439619e-23
9.989101758e-22
1.309948274e-20
6.516124013e-22
2.396831799e-21
3.873639737e-21
4.631210706e-22
6.473277791e-21
1.697768387e-21
3.51577434e-21
1.873767973e-21
1.720520917e-21
8.697883223e-21
1.360844535e-21
2.262210756e-21
3.454974825e-22
5.158637948e-21
1.796142849e-22
1.382388502e-21
7.003622859e-24
1.303738209e-20
7.892333377e-22
1.566784549e-21
6.067756055e-22
1.11076604e-20
1.252202703e-20
9.682242914e-22
2.214387261e-21
3.006067173e-21
4.985211469e-22
2.478512831e-21
7.190598546e-21
3.518917359e-21
1.419156351e-21
1.296003367e-21
4.314336505e-22
3.748525056e-21
7.55125081e-22
1.050336648e-20
2.68564137e-22
2.893956925e-21
4.381520287e-21
5.39879005e-21
3.012214606e-21
4.35988564e-21
5.05626856e-21
2.747561197e-21
2.223739813e-21
1.35680293e-21
3.51739611e-20
8.199120312e-21
3.034274761e-21
2.077824034e-20
1.426410531e-21
6.035464644e-21
8.598048861e-22
2.881923214e-22
7.871486739e-22
8.092243381e-22
3.956078704e-21
7.977182055e-21
3.344862034e-21
2.514883188e-21
9.472692445e-21
9.882592204e-21
6.349252341e-21
1.898330475e-21
1.448981465e-20
8.764894468e-21
1.220329093e-20
2.20674153e-21
9.627669136e-22
9.349037108e-21
4.469765543e-22
3.116501179e-22
7.604949989e-22
7.461717447e-21
5.302121095e-21
2.295711048e-21
3.521213252e-21
5.910708748e-21
7.097103708e-21
1.43401214e-20
1.039048848e-21
1.348468987e-20
4.559592571e-21
3.755723518e-21
4.400146555e-21
9.292762961e-21
1.829630046e-22
5.393020273e-21
7.230320653e-21
4.538312863e-21
1.452428298e-21
1.169617978e-22
1.32843573e-21
4.206555666e-21
1.295823068e-21
4.907134033e-21
1.15721117e-21
3.950585598e-21
9.420435468e-21
2.029487298e-21
1.869032948e-21
4.165146152e-22
1.884111095e-21
3.762944754e-21
5.070464901e-21
7.100418422e-21
6.417693627e-21
3.459435599e-21
3.457211428e-21
5.595367577e-21
2.358031222e-21
2.321344235e-21
6.197300005e-21
1.413171079e-20
2.930714039e-22
1.305022027e-20
8.200091741e-21
1.874408909e-22
1.199796455e-20
2.396250578e-22
2.58379404e-21
8.137988273e-21
1.17436362e-23
6.7955063e-21
6.580166456e-22
2.111462757e-20
2.335765884e-21
1.700612169e-21
3.158075663e-21
4.474581308e-21
2.30901019e-21
2.884729259e-21
5.957567941e-21
2.746225702e-21
5.517036317e-21
3.938921595e-21
3.672503709e-21
4.750874797e-22
1.533599861e-21
6.892496795e-21
7.293568927e-22
1.278419839e-20
2.521563907e-21
5.90678078e-21
9.149951939e-21
1.972302275e-20
1.725278046e-20
1.44831204e-21
2.444531197e-21
1.688939398e-20
2.104267385e-21
2.748000022e-21
2.259644172e-21
2.6918494e-21
9.37641064e-22
3.068365506e-21
7.245148046e-21
8.670039489e-22
6.075906733e-21
5.577931203e-21
1.456242217e-21
5.691828426e-22
5.475861888e-21
8.033129878e-21
4.304197115e-21
1.647612269e-21
2.674381996e-21
7.306314136e-22
2.169686994e-21
1.420209039e-21
6.908608499e-21
1.112532901e-21
1.159082757e-22
9.176486087e-21
4.91521967e-21
1.508836293e-21
3.95511317e-21
6.969654893e-21
1.492861422e-20
3.116236876e-21
5.525805183e-21
8.472126133e-22
2.626838139e-21
2.483116887e-21
1.190051634e-20
1.386269922e-20
9.447058378e-22
4.339310514e-22
1.264785706e-20
1.41162439e-22
4.712780996e-21
5.36200555e-21
2.850009429e-21
5.443663691e-21
6.206790116e-21
3.46268994e-21
7.846307262e-21
3.026221983e-21
4.799246601e-21
4.113841533e-21
2.442863953e-21
5.51625211e-22
7.393660948e-21
1.223689112e-21
2.65171702e-22
8.105217495e-21
3.56203259e-21
1.756969032e-20
9.16090542e-21
1.788311926e-20
1.112033438e-22
1.298204901e-20
3.549545865e-21
6.461899519e-21
1.865855482e-21
1.391143233e-22
8.505809375e-22
1.759615595e-21
1.152087606e-20
2.763327199e-21
6.136387446e-22
9.840824492e-21
2.525055978e-21
3.992470258e-21
1.994606301e-22
9.922326131e-21
8.652154996e-22
4.395765202e-21
6.979818486e-21
8.322218274e-21
1.133934802e-21
8.2106155e-21
3.301630923e-21
5.655913217e-21
2.98489781e-21
1.303668957e-20
1.216506363e-21
6.763140211e-21
5.79006332e-22
4.144800987e-20
3.457103568e-21
1.882645874e-21
5.525118119e-21
1.403962202e-21
4.042668625e-21
1.055924582e-21
2.164378127e-21
2.014350667e-21
4.644295785e-21
2.535766662e-21
1.685571671e-20
1.989165652e-21
2.530506099e-20
1.170979602e-20
1.998276186e-21
6.416085486e-21
1.90784643e-21
6.157021132e-21
1.482081518e-20
9.837531914e-22
4.801040922e-22
1.0027883e-20
8.529187287e-21
8.239930414e-21
1.198161048e-21
4.351979063e-22
6.457209487e-21
4.228379029e-22
4.191660093e-21
1.037779713e-20
1.004337201e-21
1.106124483e-20
1.829904134e-21
7.474090074e-22
7.518998865e-21
5.139550938e-20
5.33557616e-22
3.988079537e-21
5.769014114e-22
5.00685461e-21
3.606067361e-21
4.504839566e-22
2.166321426e-21
1.047383278e-21
3.766118283e-21
4.927512793e-22
3.186816962e-21
3.759354952e-21
4.575533146e-22
2.849212098e-21
8.180570552e-21
8.737384566e-21
9.952118982e-22
1.052423966e-20
6.557307852e-21
1.217100511e-21
2.479032007e-21
1.135850508e-21
2.459885576e-21
4.443828594e-21
8.896673912e-21
2.394764962e-21
5.799668033e-22
2.428530544e-21
2.640280406e-21
4.283538599e-21
8.353568651e-22
2.51013192e-21
4.813555239e-21
8.163894722e-22
1.194797903e-20
5.561929512e-22
2.126144183e-21
5.085436403e-22
6.910396011e-21
4.774028294e-23
2.643946302e-21
7.48144966e-21
8.600338615e-21
5.850159006e-22
6.484935989e-22
1.837540239e-21
4.354657086e-21
8.575990954e-21
2.576654856e-21
4.952265865e-21
3.867596428e-21
3.180445086e-21
1.052714903e-20
7.060995096e-22
3.310641441e-21
4.011467282e-21
6.136298661e-21
8.659465295e-21
2.278133031e-21
1.232341997e-20
2.696997638e-22
5.427726872e-21
1.184481784e-20
1.923764197e-21
2.528328593e-21
3.382401358e-21
7.318833613e-21
5.005470563e-21
8.615146416e-21
4.82477152e-21
8.239177744e-21
3.094127695e-21
3.603445444e-21
1.418090218e-20
1.71740283e-21
5.373867865e-22
3.360103968e-21
1.138073411e-21
3.471661892e-21
4.497081798e-21
1.576315294e-20
4.077639834e-21
4.743785984e-21
7.108611177e-22
3.868996985e-21
1.077849902e-20
1.94327136e-21
8.878062827e-21
8.818945735e-22
1.588570971e-21
5.726472256e-21
1.012493594e-20
4.104058699e-21
2.029018391e-22
5.173206716e-21
1.265905559e-21
2.663535332e-21
9.868203637e-22
5.776613408e-21
6.973120728e-21
5.494993104e-21
3.761070455e-21
9.109836307e-21
6.888236947e-21
2.0268942e-21
9.400353932e-22
4.115754575e-21
2.683176866e-21
5.008510572e-21
4.97144793e-21
3.042316905e-21
2.033618506e-21
7.862897235e-21
3.727644833e-22
1.140174933e-20
3.412493126e-21
5.794205907e-21
7.038938226e-22
1.908183409e-21
1.326297756e-20
1.557440259e-21
2.534400159e-21
5.217546468e-21
2.288711734e-20
1.447385632e-21
4.245985515e-21
4.185776359e-21
1.351983524e-21
1.101190061e-20
2.546421754e-20
5.390627073e-21
9.260087405e-22
5.175604674e-21
2.645407164e-21
6.145110476e-20
5.258600822e-22
3.670440794e-21
1.321034043e-20
6.185269683e-22
1.363343663e-21
1.909772346e-21
3.016840367e-22
1.356558411e-20
1.022433613e-20
1.13812866e-20
7.490538427e-21
5.934129098e-22
3.651431437e-21
2.220262476e-21
4.720204079e-21
5.165860526e-21
1.405941587e-20
9.969874706e-22
5.541698047e-21
5.255996196e-21
6.712038734e-21
7.31534708e-22
2.693484726e-21
1.779655464e-21
2.493057972e-21
6.026078699e-21
1.889529003e-20
1.607684049e-21
1.24079911e-21
3.719992539e-21
3.258251393e-21
1.154177668e-21
2.056264977e-21
3.638276997e-22
1.239067822e-21
1.054471787e-21
3.435637117e-21
3.472509438e-21
3.966098523e-21
7.0224006e-21
7.49829711e-21
1.000390017e-20
2.158498729e-21
9.003879356e-21
4.711582488e-21
3.340479201e-21
4.310149718e-21
5.490736092e-21
1.326564617e-21
6.766233696e-21
4.508242578e-21
4.259983362e-21
9.830335993e-22
2.90402484e-21
4.264930921e-21
4.45468535e-21
1.004455178e-20
2.714832845e-23
5.255913337e-21
4.243349694e-21
2.642132665e-21
8.584007069e-21
5.476131237e-22
7.334365417e-21
9.899252413e-21
3.661874831e-21
4.629185105e-22
4.839385408e-21
5.482835238e-21
8.362445715e-22
3.780766035e-21
3.625570645e-21
4.611478463e-21
3.088640913e-21
4.724429315e-22
2.132862802e-21
2.086734706e-21
5.846598216e-21
1.581261579e-21
1.587185926e-20
4.166976018e-21
8.18376056e-21
2.054739662e-20
2.91168069e-21
2.751152941e-22
1.758820878e-21
7.790045774e-21
2.572298562e-22
1.315430471e-22
3.322777828e-21
1.327294858e-21
7.777280316e-22
6.917489534e-21
1.675507832e-21
6.537966046e-22
2.18820702e-21
3.032999336e-21
2.167247601e-21
9.807538965e-21
2.929280214e-21
3.216860535e-21
4.395918161e-21
2.01604515e-20
3.239880949e-21
3.519495133e-21
2.367113295e-21
1.032830311e-22
5.063320593e-22
3.24343899e-21
1.357401889e-20
1.169166168e-22
3.2203831e-22
1.494940769e-21
3.099096852e-22
1.872411019e-21
7.183472605e-22
5.66030859e-21
9.270746442e-21
8.514144373e-21
1.032067618e-21
6.621945211e-21
1.309199797e-20
4.367666187e-21
1.043805596e-21
2.787163561e-20
8.167740523e-22
4.51572414e-21
1.97730126e-21
2.762415204e-22
1.321866633e-20
3.601045029e-20
1.378046833e-20
4.538573838e-21
6.017229493e-21
1.51536623e-20
1.310033226e-21
3.801642309e-20
6.319550936e-21
6.740975386e-21
3.729992047e-21
3.781409853e-22
2.84647492e-21
8.089025806e-22
4.043640152e-21
1.90732727e-21
2.029016063e-21
8.937334715e-22
6.798719033e-22
3.476200543e-21
4.897621236e-21
3.102471494e-21
5.267381063e-21
6.361404978e-22
2.204286322e-21
1.38314584e-20
1.947370381e-22
6.570724026e-21
2.252142659e-20
2.166370903e-21
6.853399267e-22
5.905258351e-21
5.748817174e-23
3.087701072e-21
1.679588891e-21
3.848108913e-21
1.618892515e-21
1.289126792e-21
1.711893121e-22
3.932409914e-23
2.934420495e-21
5.184482793e-22
3.376828223e-21
1.913224674e-21
1.904402307e-21
1.11239061e-20
4.117764331e-21
6.788189075e-21
1.107848565e-20
2.138844409e-21
1.477832893e-20
5.75643361e-21
2.208424752e-21
1.569968087e-21
4.246247829e-21
2.013838736e-21
1.775748222e-20
4.340416369e-21
1.589769943e-21
1.775025169e-21
3.865150066e-21
1.343554982e-21
1.187368866e-20
1.114218424e-20
6.008469719e-21
1.495424997e-21
1.930926212e-20
1.537334102e-20
2.351249472e-21
2.814166842e-20
2.824532625e-21
3.278395281e-22
1.447077407e-20
2.642258395e-20
8.056745351e-21
1.971269393e-22
4.225911322e-21
3.04672539e-21
1.500208275e-21
7.769579084e-21
7.334949252e-21
5.933454409e-21
1.070948551e-21
1.20892912e-20
4.577120389e-21
3.171413775e-21
9.573221262e-21
3.858103553e-22
1.571113194e-21
2.321419446e-21
2.837505353e-21
2.401630476e-21
4.986578754e-23
4.058878592e-21
3.51362956e-22
6.141558492e-21
1.602698148e-21
2.690975452e-21
1.404577769e-21
5.297065934e-21
7.571965115e-23
3.071000912e-21
7.350683683e-22
1.038066929e-20
9.344871526e-22
1.400839932e-21
2.142121391e-20
2.325898747e-20
2.567228538e-21
6.116450275e-21
1.604165915e-21
7.242351354e-21
3.807739247e-22
9.248934038e-22
3.191172757e-22
3.243199375e-21
6.505694134e-21
3.075327584e-21
7.633143359e-22
2.156753729e-21
6.550067723e-21
1.304221819e-20
2.989105556e-21
8.386503591e-21
3.32547126e-21
7.976267142e-22
4.643498091e-21
4.812368042e-21
5.841514968e-21
4.368756024e-21
3.573293755e-22
1.071481069e-20
1.893186192e-20
5.271070468e-21
1.32326562e-20
9.009174676e-21
5.072417431e-22
3.517666651e-21
1.19100679e-21
1.07548902e-20
1.034189986e-20
1.844821069e-21
2.99777009e-23
1.038893883e-21
8.377696556e-22
9.326966225e-21
1.723709161e-21
2.035594161e-21
1.759572027e-21
1.053812198e-20
2.52813721e-20
1.454857635e-20
3.449160051e-21
4.951996058e-22
1.305563484e-22
2.976443908e-21
1.044922957e-20
1.972486904e-21
1.602666986e-20
1.343398138e-20
2.80398843e-20
2.638441617e-22
2.192802011e-21
6.026270968e-21
3.666023281e-20
3.879037222e-21
5.071385469e-21
1.587863085e-21
3.653000665e-21
7.116264452e-21
1.166156005e-20
3.192720493e-21
5.208919569e-22
2.055159151e-20
2.500767567e-22
3.253840501e-21
3.109478977e-21
4.162000964e-22
1.805062359e-21
3.424624399e-21
2.714064058e-21
4.694235609e-21
3.227878478e-21
2.124738683e-21
4.833840416e-22
6.523159611e-22
3.02437292e-21
1.074218057e-20
4.309911462e-21
2.089785645e-21
1.34991592e-21
3.397118082e-21
1.63798906e-22
1.743390012e-21
3.506504478e-21
1.138686795e-21
2.373277881e-21
6.036109579e-21
3.441246938e-21
4.45403695e-22
8.427163152e-21
1.199967255e-21
6.205699237e-21
9.397366184e-22
4.84108813e-21
1.185451825e-21
5.39009066e-21
2.730317966e-20
1.156052636e-20
2.879883404e-21
4.607505204e-21
5.603006933e-21
2.113052694e-20
1.43539028e-21
1.033443557e-21
1.090754385e-20
1.999545923e-20
2.596932034e-21
3.066902028e-21
8.406985886e-22
7.161486859e-21
6.623188351e-21
1.585790113e-20
7.575174966e-21
1.414752802e-21
4.000279815e-21
2.38675529e-21
2.940593409e-21
8.931214584e-21
2.01748584e-20
2.163393124e-21
5.103198099e-21
3.366028165e-20
2.189306215e-21
9.077729808e-22
9.646838063e-21
9.823312465e-22
3.64786811e-21
2.321386744e-21
4.632368724e-21
7.040683345e-21
2.317552056e-22
5.39446835e-21
3.999120599e-21
5.298415854e-21
1.341440227e-21
2.918829722e-21
5.424615205e-22
1.079560521e-21
7.221430189e-21
1.002283356e-21
6.305392759e-21
2.204647323e-20
2.97358775e-21
2.598560254e-21
5.443679206e-21
1.220340679e-20
6.681769763e-22
9.727440087e-21
2.448516254e-21
4.108858605e-21
2.123818615e-22
4.035687081e-21
4.817075701e-22
7.540095029e-21
3.220866084e-21
1.130506376e-21
4.521490391e-21
2.070334901e-21
1.905443863e-21
1.182330518e-22
4.291543746e-21
2.611052584e-21
4.330185388e-21
3.446593354e-21
4.115769784e-21
3.550807661e-21
4.963270612e-21
3.835959716e-21
9.876140932e-21
3.56406067e-21
2.545140409e-21
2.723923457e-22
7.65161399e-22
4.542882052e-22
1.524596371e-21
4.681149874e-21
5.909011692e-22
4.279403235e-21
9.95894841e-21
1.137010137e-21
3.467974326e-21
2.970871694e-21
1.170070299e-21
9.879483696e-21
1.762159467e-21
4.249501071e-21
3.338528687e-21
4.48574599e-22
4.878810914e-23
6.799421241e-21
4.35689904e-21
5.98117363e-22
5.270973444e-21
2.633214559e-20
1.158830754e-21
2.53565206e-22
1.535373885e-20
8.182430024e-21
2.277152274e-20
6.555755854e-21
4.921958274e-21
4.328131812e-21