/*--------------------------------*- C++ -*----------------------------------*\
  =========                 |
  \\      /  F ield         | OpenFOAM: The Open Source CFD Toolbox
   \\    /   O peration     | Website:  https://openfoam.org
    \\  /    A nd           | Version:  7
     \\/     M anipulation  |
\*---------------------------------------------------------------------------*/
FoamFile
{
    version     2.0;
    format      ascii;
    class       scalarField;
    location    "0.007/lagrangian/dsmc";
    object      Ei;
}
// * * * * * * * * * * * * * * * * * * * * * * * * * * * * * * * * * * * * * //


4706
(
2.750636175e-21
9.800995029e-21
1.653247292e-20
2.031603478e-22
1.479982905e-21
1.853331364e-21
6.292424021e-21
1.313153345e-21
2.153509889e-21
3.283785699e-22
2.698002489e-21
2.598640839e-21
1.328863569e-20
4.539024087e-21
4.46440444e-21
1.767634558e-21
1.258041999e-22
5.022304521e-22
1.414969618e-20
1.270441781e-20
1.207027401e-21
3.553093853e-22
1.25587852e-20
1.031480595e-20
9.113841735e-22
2.839413478e-21
2.697788995e-21
3.196806767e-21
3.634424841e-21
1.080040911e-21
1.395200847e-20
5.695485785e-21
8.571292936e-22
1.188750447e-20
2.81847136e-21
4.646487503e-21
1.13218541e-22
1.72192348e-21
1.935735085e-21
7.667946922e-21
4.602644284e-21
2.660112838e-21
4.576442423e-21
1.16444346e-21
7.819166464e-21
3.386789715e-21
3.894259356e-21
6.38561276e-21
2.666359155e-21
6.011881116e-21
1.578213971e-21
3.725780111e-21
1.054289275e-20
6.818556423e-21
4.305477368e-21
8.094948125e-21
2.44503627e-21
1.103554156e-21
4.736534019e-21
1.455141484e-21
9.075937169e-21
5.230891384e-22
1.2194179e-21
5.078489642e-21
2.681601511e-21
2.8726085e-24
1.555086494e-20
2.591341184e-21
7.848571291e-21
2.27954045e-20
7.968294427e-21
1.463195037e-21
4.403993936e-21
1.550796759e-21
2.456466396e-21
6.343657741e-21
8.209537065e-21
4.436470325e-21
3.166756179e-21
1.470916826e-20
5.480392192e-22
6.555611264e-21
9.653235945e-22
1.227361782e-21
3.967395914e-22
3.891379825e-21
6.546094038e-21
7.733600101e-21
8.274303282e-21
7.835599516e-21
3.005302259e-21
3.253433108e-21
6.013081285e-21
1.415923392e-21
1.347922119e-21
2.078869704e-21
7.665127883e-21
1.206608428e-20
6.464994226e-21
5.472476834e-21
6.479808123e-22
6.185031228e-21
4.332429121e-21
8.594977295e-21
3.921372973e-22
3.850896632e-21
3.176627455e-21
1.8213866e-21
1.707474386e-20
1.069546477e-21
2.171318292e-21
1.048048284e-20
1.441996441e-21
7.650136349e-22
1.367782484e-20
2.267366697e-21
3.507314474e-21
8.334458729e-22
9.825724624e-21
3.29981307e-21
1.040952292e-20
1.16596566e-21
3.554069505e-21
5.184747279e-22
4.677440011e-21
4.809109561e-21
5.275071891e-22
1.138570688e-21
4.300116432e-21
3.534472425e-21
4.427362349e-21
8.218898941e-23
3.370475558e-21
9.859402116e-22
1.009939632e-21
6.669533951e-22
7.517276987e-21
8.092628855e-21
1.218415392e-21
5.85524844e-21
2.457264569e-21
4.713959816e-21
5.185768241e-21
5.519901676e-21
9.237308741e-22
8.892059984e-22
9.37987529e-22
9.418132246e-22
4.163058764e-21
1.776931479e-21
7.261366212e-21
1.789248564e-21
1.349406058e-21
8.225225887e-21
2.389271682e-21
5.350563926e-21
3.253154511e-21
8.122081569e-22
6.223907169e-22
3.244724323e-22
4.337571246e-21
3.658209598e-21
2.15722114e-21
7.691335913e-21
4.749843927e-21
2.168092454e-21
3.82543788e-21
1.463850859e-20
4.107863772e-21
6.748633316e-21
2.298058674e-21
6.049760172e-21
1.396699263e-21
5.746878345e-21
8.559190034e-21
2.85502716e-21
7.12533378e-21
8.470117047e-21
2.597777226e-22
3.334827925e-22
5.488296863e-21
1.910611889e-21
4.764571936e-21
5.084152174e-21
2.721973497e-21
6.592911392e-22
6.135721105e-21
5.102488396e-21
8.949900452e-22
2.333893919e-21
2.871778571e-21
5.412038922e-21
1.415446581e-20
1.192829307e-21
5.890396497e-21
1.659245718e-21
5.787959248e-21
7.157009767e-21
4.758434808e-21
4.292138777e-22
2.731297948e-21
2.677385513e-20
9.35283019e-21
3.94624662e-21
2.690333971e-21
4.496384596e-22
1.096423218e-21
2.452049416e-21
2.415718931e-21
3.375911951e-21
6.614411294e-22
1.79282134e-21
1.198467736e-20
4.691972509e-21
2.034856915e-21
4.226121291e-21
6.463427536e-21
8.352746578e-21
2.853240801e-22
3.395247724e-21
4.879488373e-21
2.651143698e-21
6.920203284e-21
4.936086097e-21
1.205233912e-20
2.865645098e-21
4.723278964e-21
1.411232893e-20
8.185825555e-21
5.075032785e-22
9.457675269e-21
3.27013669e-21
5.152384369e-21
2.040522753e-21
4.980197448e-21
7.510295882e-21
4.73833598e-21
8.541295462e-21
3.079344168e-21
8.290431456e-21
9.098821253e-22
4.931286254e-22
1.891688622e-21
2.49181748e-21
3.748461236e-21
3.492428259e-22
1.226444632e-20
5.535432095e-21
3.600664839e-21
1.167177218e-22
1.613189848e-21
1.458952397e-21
8.223958395e-21
1.046112666e-20
4.517583507e-21
2.381080251e-21
1.858062777e-21
1.271403463e-21
5.081022477e-21
1.987060141e-21
1.410223667e-20
7.76302229e-21
7.346438027e-21
6.168249596e-21
2.824228592e-21
1.746087326e-20
5.541625086e-22
8.850973646e-21
7.029513703e-21
2.555690178e-21
2.116978598e-20
9.792551954e-21
1.615319383e-21
3.150635442e-22
3.698115507e-21
2.303518341e-21
1.708034694e-20
3.358718134e-22
5.802276129e-21
1.306643647e-20
7.517941913e-21
9.65696199e-21
2.095644341e-21
1.090070099e-21
8.074564427e-21
8.295543261e-21
3.174776535e-21
8.971219704e-22
8.124777444e-21
3.934979754e-22
1.584631413e-22
6.95608297e-21
1.185034611e-21
5.592564635e-21
6.56948841e-22
2.824098907e-21
2.578738709e-21
2.431630623e-21
2.569017583e-21
1.363371553e-21
3.000235893e-21
8.230567987e-22
6.641843368e-21
2.239895676e-21
1.330482436e-20
2.12949189e-21
1.08993878e-21
1.349455933e-21
8.259922748e-22
1.098830857e-21
4.494484025e-21
4.191785844e-21
3.153785638e-21
5.264680797e-21
9.564937556e-21
1.229958505e-21
1.273043074e-21
7.302734e-21
4.033452966e-22
3.654918907e-21
2.391041751e-21
6.74266968e-22
3.482525359e-21
2.164637814e-21
1.49012673e-21
1.775217211e-21
1.070322612e-22
1.524911682e-20
4.338046394e-21
2.368010617e-21
8.254737048e-21
3.037953932e-21
8.445483048e-23
3.582326468e-21
1.30601594e-21
4.506563016e-21
8.722907348e-21
4.447701251e-21
4.739379102e-22
9.884560035e-21
5.094259867e-21
1.017812777e-21
1.272863918e-21
7.491228762e-22
2.989426544e-21
1.889950092e-22
1.473062511e-20
4.584118626e-21
5.021342725e-21
7.063177267e-23
3.432017129e-21
2.754628365e-20
2.340356429e-21
4.911141844e-21
6.518053372e-22
6.008969745e-22
2.350940944e-21
1.370851241e-21
2.585940086e-21
2.730795632e-21
3.076817646e-21
1.052512887e-22
4.056184226e-21
2.16996166e-21
1.054334536e-20
2.539800939e-21
9.057426517e-21
1.536183861e-21
7.007702623e-21
3.590647711e-21
1.481739558e-21
1.42162415e-21
2.109221417e-21
5.963035639e-21
8.155882857e-21
6.713987687e-21
6.463622407e-21
5.19265379e-23
7.234802222e-21
2.106665496e-21
9.002469311e-21
1.397391776e-21
7.703003797e-21
3.575222283e-21
6.44311911e-21
4.234475176e-23
5.758804156e-21
4.600661409e-21
1.744776121e-21
1.300593545e-22
1.544900875e-21
3.924621992e-22
1.32499418e-20
3.355089947e-21
4.823710369e-22
3.55802224e-21
8.482099901e-21
7.864311312e-21
4.3867869e-21
8.658975071e-21
3.872705168e-21
8.591984262e-21
2.683819529e-21
7.922274264e-21
4.720393576e-21
2.118934651e-21
1.105376188e-21
5.567898746e-22
6.137130372e-22
5.233147828e-22
4.601791576e-21
2.267924367e-21
6.547578017e-22
9.470764003e-23
1.643180508e-21
1.115428302e-20
2.402115241e-21
9.137312411e-22
3.677183694e-21
8.485824798e-21
4.875345364e-21
2.646005062e-21
6.946832907e-21
1.374092623e-21
1.106644652e-20
5.739817811e-21
3.244001554e-22
4.860741655e-23
1.220662734e-20
1.928656834e-20
2.400970201e-21
7.522889187e-21
1.983557683e-20
3.511024202e-21
9.04640147e-21
8.3780693e-21
3.193495619e-21
9.863932142e-21
7.87109713e-21
1.395117077e-21
2.121736853e-21
1.755815276e-20
3.852415932e-21
1.051367109e-20
1.866780607e-21
6.745603747e-21
4.372857894e-22
3.275941587e-21
2.839751742e-21
1.177950767e-21
6.820527568e-21
1.227711223e-21
9.300755681e-21
4.785346557e-21
1.393259016e-22
1.438202701e-22
7.760278848e-22
5.617140964e-21
4.188364391e-21
8.376939256e-21
5.637635216e-21
1.986102219e-21
1.115286894e-21
3.880587135e-21
1.011882448e-20
4.25223389e-21
9.625134102e-21
3.171574512e-21
2.343740242e-21
7.305427966e-21
9.461980448e-23
7.879445665e-22
2.665512861e-21
2.774213197e-21
5.612239906e-21
1.090157103e-20
3.430715979e-21
5.517125272e-21
2.67603872e-21
5.409284482e-22
1.343687004e-21
1.700823424e-20
1.944794389e-20
4.197685192e-21
8.01003768e-21
2.105218246e-21
3.639931706e-21
7.12381609e-21
3.047892515e-21
4.442313973e-21
6.145462468e-21
3.065126246e-21
5.244459556e-21
1.072050209e-21
4.368800091e-22
1.072680348e-20
7.579456662e-21
2.201399915e-22
1.463859451e-21
2.379964342e-21
5.897376742e-22
4.234102811e-22
2.462190334e-21
7.166027213e-21
1.825078728e-21
9.814516208e-22
7.17388954e-21
1.641538175e-21
2.36081281e-21
3.586831971e-23
6.147342792e-21
8.555217768e-23
5.729981451e-21
1.062821757e-20
1.92522521e-21
1.644646439e-21
6.600864175e-22
1.610330801e-20
8.402522644e-21
2.008492947e-21
7.742947111e-22
7.385810281e-22
3.942434658e-22
6.93742971e-21
5.12975189e-21
4.584984231e-21
3.083228403e-21
9.149454564e-21
1.061713882e-21
4.642755366e-21
8.791466567e-21
2.91399988e-21
7.465393612e-22
2.882692921e-21
9.027271553e-21
1.223485192e-20
2.224883498e-21
2.531906903e-21
8.050918225e-21
6.713680061e-21
2.639231067e-21
1.424713658e-21
8.822280132e-21
4.246484055e-21
1.165504666e-21
1.297141097e-20
1.931819694e-21
2.581775684e-21
1.190835611e-20
1.067810029e-20
1.256452332e-21
4.025013274e-21
7.625065345e-21
2.262142203e-21
3.280296301e-21
1.532282259e-20
6.241757842e-21
1.888992033e-20
8.478128236e-21
1.152523712e-20
3.721444348e-23
3.796227707e-21
3.507428999e-21
1.933421906e-21
3.486346171e-21
4.492354027e-21
5.39999973e-23
1.677626174e-21
2.502628357e-21
3.432460606e-22
8.130118373e-22
2.248350622e-21
5.351802108e-21
9.445550219e-21
1.102019715e-21
3.17959839e-23
5.634656261e-22
3.776906073e-21
2.015506046e-21
5.260726925e-21
4.224087548e-21
2.012147577e-21
2.121675664e-21
1.869485166e-21
4.106188261e-21
1.53011745e-20
3.547184533e-21
5.511237958e-21
5.62365158e-21
1.554562617e-21
3.723392063e-21
4.871828843e-23
5.528212189e-21
1.462049342e-21
3.726594221e-21
1.732858043e-21
7.91077883e-21
1.005470103e-20
4.710022926e-21
3.495326282e-22
3.611455758e-21
5.734326599e-21
5.519023122e-21
2.710761076e-21
6.201285669e-21
8.015717449e-22
5.621144361e-21
1.686187391e-20
2.067950266e-21
2.401633883e-21
2.788035227e-21
3.638628823e-21
8.191788433e-21
2.988350479e-21
1.196451444e-20
7.579009553e-21
3.585683966e-21
5.559046015e-21
1.529505734e-21
1.849653616e-20
1.076875803e-20
6.214213016e-21
2.569386128e-21
6.318205181e-21
1.815273109e-21
4.888565566e-21
4.736566489e-21
1.135712625e-20
5.886907286e-21
4.77805145e-22
2.185128805e-21
2.8321905e-22
4.527374775e-21
2.063557686e-21
9.391194453e-22
1.665196304e-21
5.748341774e-21
8.181571586e-22
5.307342242e-21
1.068883397e-20
3.578153526e-21
8.337252477e-21
1.032558066e-21
1.206334922e-21
7.567701187e-21
8.108574776e-21
2.143628361e-21
2.575115778e-22
3.325518292e-22
2.739162918e-20
2.845365109e-21
1.165759743e-20
6.329032567e-21
2.7674416e-21
7.186279875e-23
3.185595154e-21
1.951107953e-21
1.471375313e-21
1.569997746e-21
3.558900048e-21
5.295854558e-22
2.442353995e-21
7.64425873e-21
2.42440144e-21
1.059731871e-20
2.809562782e-21
6.525579646e-22
3.404817576e-21
2.054719459e-21
2.772269938e-21
4.206878536e-21
5.229324048e-21
7.329752517e-21
2.725322755e-21
2.607389773e-21
1.248372532e-21
1.066778492e-21
2.940259915e-21
1.979516074e-21
1.091885458e-20
7.510803453e-21
1.385226791e-21
9.421833686e-22
1.092791301e-21
3.200613384e-21
9.218866745e-22
2.120645534e-21
4.105856739e-21
6.498403764e-21
5.807562132e-21
1.455328657e-21
4.770922729e-21
1.997139671e-21
1.118388833e-22
2.530695632e-20
7.912669421e-22
1.079677175e-20
1.351181288e-20
1.231362952e-21
3.099711203e-21
2.261224022e-21
8.82145817e-21
1.831040903e-20
2.356575351e-22
2.312086041e-21
1.550540815e-21
5.161876219e-21
2.132444264e-21
3.024683374e-21
5.78628765e-21
1.637984689e-21
1.722260058e-22
8.089418375e-21
2.081597137e-21
4.420717363e-21
6.522858117e-21
5.59869367e-21
5.542652095e-21
4.242562075e-21
3.768687156e-22
5.51359341e-22
6.292810901e-21
1.267236949e-23
1.117360937e-21
8.760497985e-21
7.300200521e-21
5.9843351e-21
1.648394363e-21
3.891681037e-22
3.026421536e-21
4.247713061e-21
1.95192112e-22
3.650465662e-21
1.658588521e-21
6.631216929e-21
3.886576213e-21
1.254062675e-21
3.713253159e-22
1.264700234e-20
4.189189329e-21
1.718885009e-21
2.133168333e-21
3.575856486e-21
1.071202405e-21
1.121789987e-21
3.120654595e-21
2.577093041e-21
5.018477991e-21
2.551556879e-21
3.461872872e-21
9.558284916e-21
2.378944522e-20
1.503674044e-21
2.968014062e-21
4.755714613e-21
1.390011813e-21
3.738149554e-21
4.16666823e-21
7.473594519e-22
4.144000615e-21
1.75638899e-20
1.139354001e-20
1.27811663e-20
1.481988891e-21
7.671835227e-21
7.169749463e-22
2.203338991e-20
8.767373289e-22
4.645183723e-21
5.05325778e-21
4.797589786e-21
1.731099719e-21
3.028082819e-21
8.295513602e-21
4.222110342e-21
2.096370186e-21
2.271002607e-21
6.919141963e-22
2.914937862e-21
4.79285287e-21
2.14235609e-22
3.699543038e-21
3.958708531e-21
3.883637607e-21
4.375864337e-21
2.585586031e-21
1.028680859e-20
7.111191557e-22
1.380222111e-21
2.189307186e-20
1.472524091e-21
1.056336364e-21
2.576156827e-21
5.745070262e-21
6.778264936e-21
8.442558032e-22
7.086646314e-21
3.391000006e-21
2.671331244e-21
2.08795849e-21
1.321611727e-22
3.026903404e-23
2.275463298e-21
8.601934732e-21
3.160092514e-21
3.895065156e-22
1.815784278e-20
3.121586485e-21
3.002741779e-21
1.131625385e-20
3.60693817e-21
6.438951903e-21
1.008360875e-20
7.832232938e-21
1.979154011e-20
3.212787258e-21
2.803228673e-21
1.295616954e-20
7.963921395e-21
3.870813916e-22
8.532889384e-21
4.745407255e-21
1.096231076e-20
9.037392087e-21
1.076482134e-20
1.433521756e-21
2.316275552e-22
4.609829953e-21
1.753660788e-22
8.183290778e-22
1.986981022e-21
1.397926378e-20
9.873833902e-21
2.097381856e-21
3.17450339e-21
1.43262389e-21
1.43937966e-20
2.968367555e-21
4.346218495e-22
2.382817766e-21
3.830983469e-22
5.053572265e-21
2.126807582e-21
7.53278059e-22
4.295427361e-21
1.414463322e-21
9.332112866e-21
3.18105749e-22
5.644455553e-21
4.311176751e-21
1.063880126e-20
2.515385756e-21
1.50556069e-20
3.123569656e-21
7.813327891e-22
1.879941844e-21
1.232466926e-21
2.255921473e-21
8.536922556e-21
3.68141457e-21
1.293515613e-20
4.795614083e-21
7.587560851e-21
3.113391822e-22
1.384661805e-21
7.218111481e-21
4.362897794e-21
7.732155407e-22
2.007847879e-21
3.485581742e-21
1.987182567e-21
1.140485481e-21
3.783815697e-22
2.759217051e-21
5.037014593e-22
5.185880602e-21
2.291545071e-21
1.495905326e-21
7.387135572e-21
7.982887976e-22
1.895001279e-20
6.911355205e-22
8.427993168e-22
1.138619392e-21
4.120405903e-22
3.472601994e-21
1.842691348e-21
8.936155189e-21
2.006735751e-21
8.183322899e-21
5.004063498e-21
1.067102432e-20
4.304070755e-21
1.24241929e-21
4.481280293e-21
5.47198888e-21
8.170306459e-21
7.933168253e-21
6.690929916e-21
1.187931566e-21
4.075047892e-22
1.533030535e-21
5.227767161e-21
1.064931746e-20
1.041226422e-20
1.509183645e-21
5.835661952e-22
6.190772591e-21
5.287089739e-23
4.967167957e-21
3.349782477e-21
4.14718723e-21
5.015959916e-22
7.060060001e-21
2.323158979e-22
3.981089573e-21
8.033044151e-21
4.801249554e-21
6.451931155e-21
9.386409655e-21
5.344912374e-22
1.612140072e-21
1.808855357e-21
3.967408627e-21
1.602520131e-20
2.580400947e-22
3.444979318e-21
5.094241865e-22
6.429838176e-22
1.524652006e-20
2.47639668e-21
1.110189261e-21
7.03701064e-22
1.541519658e-21
1.64030807e-20
1.513434411e-21
8.398501662e-21
8.029218245e-21
8.170723546e-21
2.574673006e-20
2.363949505e-21
1.109827791e-20
1.140866928e-20
3.17917214e-22
6.354245687e-22
2.837195896e-21
4.904888557e-21
6.049944344e-21
5.941108342e-21
1.376737172e-20
7.753810834e-22
8.795476123e-23
1.80001042e-21
3.892185944e-21
5.715478507e-21
4.705374452e-22
6.739985335e-21
2.967096534e-21
1.164139562e-21
3.192861953e-21
6.057174322e-22
2.685678721e-20
2.186029477e-21
3.476660394e-21
3.667450605e-21
7.189990942e-21
1.440698437e-20
2.798023494e-21
6.562216583e-21
6.050727732e-22
1.771514254e-22
3.80259536e-21
1.482637396e-21
5.075414599e-21
1.152221813e-21
5.955582985e-21
4.377298105e-21
7.310288366e-21
3.843545331e-21
1.193377839e-20
1.176024996e-21
2.923028709e-21
2.716824534e-21
5.964465305e-21
2.43817073e-22
4.241278361e-23
8.909206015e-21
5.134006285e-21
6.345202007e-22
4.945757313e-21
4.556741579e-21
4.505559564e-21
3.514725014e-21
2.741210246e-21
6.75263667e-21
1.432635913e-22
1.816723898e-21
1.49970519e-20
2.573266758e-21
9.903030473e-22
1.063588505e-20
6.499722229e-22
1.827220555e-22
6.094199616e-22
6.421207645e-21
4.013117059e-21
4.39732861e-22
3.114901833e-21
2.478168431e-21
5.724449365e-22
3.189978454e-21
6.441914266e-22
2.889942435e-21
3.444139038e-21
6.730335234e-22
2.108573277e-21
2.067732891e-20
1.890796155e-20
2.851693162e-21
1.339223921e-21
4.060653112e-21
6.80557618e-22
8.588007523e-22
2.419255353e-21
2.991405264e-22
1.843881419e-20
1.060214537e-21
1.290035523e-21
1.111921239e-21
5.365680751e-21
4.836998515e-22
1.349608872e-20
8.014365131e-22
2.765088213e-21
4.736334708e-21
2.173048778e-21
1.247303728e-20
2.310395372e-21
3.199792561e-21
5.242095212e-21
1.287290669e-22
3.633196568e-21
7.137143116e-22
8.439893244e-21
1.887582928e-21
1.275531398e-21
7.275752228e-21
8.815774792e-21
6.28476345e-21
1.185398723e-21
3.507570198e-21
4.813615676e-22
6.354546575e-22
2.963712845e-21
2.875577655e-21
6.72211518e-21
8.626851592e-21
1.383655677e-21
7.094389843e-21
1.514453303e-20
6.752727891e-21
7.99006894e-22
4.327199244e-21
1.487734683e-21
8.000987039e-21
3.642835423e-21
8.68637539e-21
6.044536956e-22
1.387476059e-20
1.160088879e-21
6.923158849e-23
4.977668614e-21
1.202910212e-21
3.321935985e-21
3.999854361e-21
3.978298371e-21
5.956007949e-21
2.888462693e-21
3.88413254e-21
6.678046716e-21
3.277174685e-21
1.430002156e-21
2.46390102e-21
3.110025042e-22
4.121129221e-21
7.902458818e-21
5.53769681e-21
3.523409109e-21
1.228141305e-21
2.163038996e-21
3.939717511e-22
2.454273012e-21
9.740469537e-21
6.803107245e-21
2.420574102e-21
1.120745693e-20
7.844330602e-21
3.714335371e-21
2.510302997e-23
1.270772833e-20
5.728964869e-22
8.031908676e-21
1.134631777e-21
3.352638387e-21
3.611708668e-21
3.108043094e-21
7.104685011e-21
1.641863681e-20
1.389466877e-21
5.729620132e-22
5.507613158e-21
1.159634797e-21
1.324803441e-20
6.701029958e-21
2.050784821e-20
3.474610314e-21
7.863259225e-21
8.762730392e-21
1.804925409e-21
2.917225806e-20
7.556836527e-21
9.733691874e-21
5.100532543e-22
4.58673975e-23
1.157868513e-20
1.559707507e-21
8.185204686e-21
3.615969121e-21
9.86978554e-21
1.317553767e-21
7.670333012e-22
8.35764055e-23
2.281705381e-21
5.027443809e-21
2.976616004e-22
6.303386415e-21
4.792203693e-21
2.348521664e-21
6.336386687e-21
4.76713145e-21
4.672534265e-21
5.331901511e-22
7.053046753e-21
9.524873438e-21
3.131612888e-21
1.439906556e-21
1.910060406e-21
2.574141201e-22
3.611252565e-21
2.608572533e-21
5.690497324e-21
6.663381624e-21
3.296041385e-21
7.378563378e-22
8.083452286e-21
2.330847681e-21
1.092311591e-21
5.177565817e-21
6.641643008e-21
3.000145425e-21
3.746079771e-21
2.168667383e-21
4.678946121e-21
5.950015818e-22
2.967982219e-21
3.086514363e-21
2.062776319e-21
1.991691102e-21
5.811204343e-21
1.07276212e-20
6.098582499e-21
1.803948697e-20
2.269629993e-21
2.06291432e-22
6.186130079e-21
5.100256744e-21
7.628619686e-21
3.151801613e-21
5.150390415e-21
2.000230369e-21
6.642614113e-21
1.168066623e-21
2.896951858e-21
1.049175038e-21
8.129890266e-21
9.924763353e-21
9.692212342e-23
1.089730172e-20
7.544766233e-21
1.412916692e-20
9.196873287e-22
3.738368312e-21
2.811416554e-21
7.239187704e-21
6.203836699e-21
6.597255944e-21
5.740334485e-21
2.976517438e-20
7.979079231e-21
1.746919055e-20
4.350435326e-21
1.325206619e-21
6.072395363e-21
8.872960822e-22
3.082876755e-21
1.333321232e-20
6.886510815e-21
2.719648087e-21
5.397263647e-21
7.030538452e-22
3.769400458e-21
2.831991368e-21
1.35670657e-20
1.038290642e-21
4.321242156e-21
4.967925894e-21
2.339361245e-22
7.611577492e-21
4.628712288e-21
5.176823409e-21
1.645344393e-22
3.5818414e-21
3.453012426e-21
5.532497858e-21
2.546336728e-21
4.850213129e-21
2.169738063e-21
1.122511372e-20
4.48519308e-21
2.143924354e-21
3.706753792e-21
6.55112636e-22
7.226606222e-21
1.047930028e-20
1.768896978e-21
2.033101344e-21
4.440104709e-21
4.518131303e-21
7.960752405e-21
6.598536032e-22
4.871856599e-21
4.801655324e-21
5.181250003e-22
8.005741006e-21
3.578475494e-21
7.241320301e-21
1.086923494e-20
2.339442733e-21
1.349582092e-21
7.315308114e-22
1.040189599e-21
2.379001099e-22
2.139636403e-21
9.593914473e-21
9.119862541e-21
4.900379747e-21
5.063206005e-21
2.482028678e-21
5.792474035e-21
2.272776283e-21
7.857867497e-22
1.79840535e-21
8.221673688e-22
5.881946218e-21
5.719504618e-21
2.357887349e-21
6.993556286e-22
7.889407259e-21
7.978006444e-21
3.93792503e-20
1.582900411e-20
9.519100229e-21
7.165934005e-21
8.272482491e-21
4.915392516e-21
8.399390827e-22
5.149718287e-21
5.611027671e-21
9.419327125e-21
2.303620381e-21
2.085200743e-21
3.879073669e-22
1.533165416e-22
2.878010424e-21
2.402491409e-20
3.058439545e-21
1.488669543e-21
1.666170651e-21
7.423342449e-21
3.832451492e-20
2.074563947e-22
8.545740482e-21
3.614445395e-21
1.571366579e-21
6.98619624e-21
3.666212598e-21
1.752524455e-21
7.157396556e-21
3.359032612e-22
1.170224073e-20
2.333676518e-21
7.459811972e-22
4.625026357e-21
1.052078137e-21
1.734400461e-21
2.194939726e-21
8.230509327e-22
1.507655384e-21
4.364734007e-22
7.746308194e-22
3.465216223e-21
1.38721715e-21
7.573094297e-21
1.020962605e-20
1.604988631e-20
4.194517457e-21
4.719219405e-21
1.367321696e-21
2.086262419e-21
6.733876128e-21
2.273986817e-22
9.867593878e-21
3.967523722e-21
1.01741075e-20
1.301143758e-21
5.885932421e-21
2.713734423e-21
2.391586508e-21
8.368773551e-21
9.80969865e-22
1.299011426e-21
2.397075312e-21
6.942158048e-21
5.567971639e-21
5.102726527e-21
2.145363472e-20
2.416997428e-21
1.843813302e-22
1.521023555e-21
6.424671803e-21
4.571009031e-21
4.888835811e-21
3.752003938e-21
3.046472946e-21
1.285295463e-21
4.764177933e-21
3.687590012e-21
8.449339484e-21
3.020669912e-21
1.163594671e-20
6.501892966e-21
1.177864305e-20
2.30281068e-21
1.291695623e-20
2.348742574e-21
6.582154919e-21
7.52473201e-21
4.782245347e-21
5.656553241e-21
9.203691233e-21
1.26208556e-21
1.625433715e-21
5.083744006e-21
8.968575415e-22
5.567742407e-21
9.2947985e-22
1.934595095e-21
2.653210499e-22
1.478065914e-21
3.74630216e-21
4.144525846e-21
4.841693976e-21
3.850456777e-21
3.081558745e-21
1.674423503e-21
6.017097419e-21
1.322022833e-20
1.543957836e-21
1.705920864e-21
3.674215493e-22
1.070687948e-21
2.087699e-21
2.230968581e-21
6.753793566e-22
5.360961329e-21
5.8727078e-21
3.940011369e-21
1.509121591e-20
1.172733444e-21
4.21805565e-21
1.608648277e-21
4.215256282e-21
5.581381623e-21
7.939055963e-22
4.137360017e-21
3.293989879e-21
3.665490696e-21
4.345715841e-21
4.695747095e-21
4.604190725e-21
4.7215245e-23
5.104330354e-21
5.311599486e-21
1.458382252e-20
2.4483945e-22
5.991072659e-21
4.419001053e-21
3.92605691e-21
1.488186032e-20
1.364787909e-20
1.991568631e-21
3.660818479e-21
1.611210998e-21
5.975821938e-21
4.094675804e-21
3.274359114e-21
2.235860662e-21
2.27646775e-21
7.080120505e-22
2.619114736e-20
1.135370979e-20
1.741758722e-21
3.133204999e-21
6.622039487e-22
5.151830157e-21
3.436813862e-21
1.130728187e-20
7.713973817e-21
1.470322033e-20
4.333071397e-21
1.542511589e-22
6.923155156e-21
2.990479162e-21
3.746535725e-21
4.945376413e-22
9.925486102e-22
7.625772741e-21
2.020089419e-22
1.11312423e-21
6.80181572e-22
1.005407496e-20
1.016395616e-20
4.653523539e-21
1.631431818e-21
1.899017762e-21
9.764415432e-22
3.692739986e-21
1.437437378e-20
1.003289025e-20
5.853092773e-21
1.340836178e-21
8.26045919e-22
8.302105623e-22
6.575859819e-21
9.516011466e-21
2.845870407e-21
1.845218977e-22
1.033122804e-22
1.180739677e-21
7.441792275e-21
3.722533863e-21
1.786748196e-20
2.052812933e-21
1.026642333e-20
1.707291231e-20
2.141351887e-21
1.383936385e-21
5.255691698e-21
3.758269031e-21
1.813438376e-21
4.127489913e-21
2.530730301e-20
8.248719253e-22
3.18359467e-21
8.913595131e-21
4.902915496e-22
1.272949872e-21
1.026179351e-20
8.493627407e-22
8.667221186e-22
1.771058196e-21
6.853097038e-24
6.215740072e-21
3.73802368e-21
6.574189356e-21
6.264020455e-21
9.916589223e-22
3.431845211e-21
1.993051203e-21
3.200610321e-21
5.418459827e-21
5.051578173e-21
8.369484774e-21
4.388893925e-21
8.962897001e-21
1.501577992e-21
7.341879677e-21
2.643279143e-21
6.416525189e-22
1.515303536e-22
4.962564702e-21
5.906157816e-21
3.806699164e-21
2.62445361e-21
4.483950637e-21
8.377545943e-21
4.909747239e-22
1.782231251e-20
7.19123527e-22
2.387493826e-21
8.515561607e-21
1.847043804e-20
2.147100678e-21
2.433415383e-21
3.918232333e-21
7.1366691e-21
1.08443989e-20
2.602866991e-20
2.038516868e-21
6.572528003e-21
2.582976808e-21
9.456072448e-21
5.493714181e-21
1.364335822e-21
6.267523766e-21
2.546590991e-21
7.351513258e-21
7.188654548e-21
3.229829089e-21
4.557791011e-21
5.837216208e-21
2.515996125e-21
5.776194325e-21
5.271434664e-21
2.857353727e-21
7.410415822e-21
3.837912487e-21
1.488993946e-21
1.20169594e-20
9.800928998e-21
5.761792637e-21
9.179169435e-21
8.391381885e-22
9.599117034e-21
4.722782279e-21
4.069806753e-22
1.49639247e-20
1.422311719e-21
6.219265844e-21
4.874486831e-21
2.444730694e-21
1.502672519e-22
2.635808068e-21
2.929897592e-21
1.183922776e-20
1.808426328e-21
1.892150367e-21
3.794078476e-22
1.430488515e-21
1.742854314e-20
8.096005862e-21
1.232691361e-20
3.708663565e-21
1.974312303e-21
1.058258598e-20
1.348396887e-20
1.412121265e-21
8.979704908e-21
2.29933221e-20
1.643277482e-21
1.259702884e-22
5.456274069e-22
1.060721384e-21
1.086486996e-20
3.952064177e-23
1.079928161e-20
9.262401286e-22
2.533197364e-21
9.513858299e-21
1.791465343e-21
4.001268647e-21
8.263350996e-21
1.301247577e-20
1.008367133e-21
5.517152519e-21
5.819564525e-22
5.125576446e-21
3.854108308e-22
2.845280039e-21
1.210938522e-21
3.886003797e-21
9.888402161e-23
1.601632916e-22
2.714706395e-21
2.735720376e-21
3.103714129e-22
3.098545127e-21
4.873169802e-22
4.384239646e-21
2.205208432e-21
2.609401521e-22
4.853391101e-21
1.266351555e-21
6.657067093e-21
5.050594393e-21
4.012994533e-21
1.84422589e-21
2.388423799e-21
1.755774147e-22
3.467471982e-21
2.614912399e-21
6.385852326e-22
4.095537466e-21
1.003024955e-20
1.48508767e-21
1.602330433e-20
4.188669775e-21
6.652497508e-21
1.512767003e-20
6.247077335e-21
9.780234738e-21
1.876399625e-21
1.510760619e-20
1.895967136e-21
4.916473734e-22
7.712921031e-21
1.392336076e-21
1.503577107e-20
9.157023379e-21
4.291173653e-22
1.116576576e-20
2.24716629e-21
7.588633138e-21
1.122655059e-21
9.513639029e-21
8.99535235e-22
3.904782872e-21
4.118812309e-21
4.512167451e-21
3.980973363e-21
1.034263551e-20
8.29038438e-21
5.50965607e-21
1.224732352e-20
1.948191823e-20
1.471941881e-20
2.19063528e-22
3.888471113e-21
1.623763818e-21
2.377515478e-20
3.562171563e-21
3.31168579e-21
1.351428603e-21
3.889253706e-21
5.029673767e-21
1.787016048e-21
4.276154702e-21
1.037026358e-20
3.302234587e-21
2.101456927e-21
4.880004341e-21
2.664715686e-21
3.187674163e-21
5.003801442e-21
3.545518429e-22
4.242408899e-21
6.787415616e-22
4.780952384e-21
1.657852376e-21
1.524388245e-21
1.418774023e-21
4.895299844e-22
9.586710723e-22
3.884096132e-21
1.040290436e-20
1.173164339e-20
5.323392466e-21
6.226543569e-22
2.92528654e-21
2.24852794e-21
1.975259705e-21
3.239561058e-21
1.388644748e-21
1.913039115e-21
1.634176899e-21
1.163828224e-21
2.131708931e-21
2.752311673e-21
4.80163808e-21
7.996278387e-22
1.756647696e-21
4.18028607e-21
6.994390273e-22
6.926767243e-22
8.297676314e-22
2.199931351e-21
3.150602124e-21
1.642239104e-21
8.948293362e-21
2.036902085e-21
4.486995199e-23
1.264570413e-20
4.044831719e-21
1.94846401e-23
1.382204766e-21
2.779984404e-21
3.132691685e-21
1.498824891e-20
2.618171481e-21
7.589349322e-21
1.390482168e-21
1.432935259e-20
7.688640334e-22
2.309294891e-21
3.800840717e-21
4.055092222e-21
6.027197379e-21
3.240891691e-21
8.617139718e-21
9.558474366e-22
4.991955768e-21
7.63588747e-21
1.196867271e-21
1.554978236e-21
8.306237701e-21
3.180268836e-22
2.958995329e-21
8.354557132e-21
7.587920947e-21
1.547667229e-21
8.694010176e-21
1.605186973e-20
5.870939905e-21
1.098419799e-20
8.328745237e-22
2.772010825e-21
1.924962577e-21
1.468789643e-21
1.007257327e-20
3.132163487e-21
7.224913773e-22
1.155530653e-20
7.558295192e-21
1.523317021e-20
1.88487465e-21
7.214660897e-22
3.103441241e-21
1.085948451e-21
1.478595244e-20
3.52409237e-21
1.475010901e-21
1.246472071e-21
3.558699246e-21
6.10816372e-21
4.205222002e-22
1.35009359e-21
2.031637673e-21
2.647720947e-21
3.271380925e-21
5.556993169e-23
4.713506979e-21
1.707138253e-21
5.092406364e-23
3.538614707e-21
4.155144363e-21
2.232963703e-21
3.397712265e-22
2.080698686e-22
5.053887258e-21
1.096190929e-20
6.589593477e-21
8.128069459e-21
7.829305202e-21
6.113792993e-21
4.153700077e-22
6.599751785e-21
1.164639452e-21
6.065125469e-21
6.740412997e-21
9.925794372e-21
1.706377688e-21
1.612866219e-21
8.852742238e-21
2.568266466e-22
5.607813876e-21
5.714504064e-21
1.890574836e-21
2.96160038e-21
9.308460779e-22
3.04524231e-21
2.046661174e-21
5.404592348e-21
8.955414431e-21
1.615259728e-22
1.983050003e-21
4.425845841e-21
2.110748896e-21
7.342945951e-21
6.715936019e-21
6.961508892e-21
1.663563355e-21
1.147086962e-20
1.34070342e-21
1.458484205e-21
3.547213241e-21
1.310245036e-20
4.116886492e-22
3.101506117e-21
4.758860224e-21
1.687157822e-21
3.595218432e-21
1.85108324e-21
1.916749518e-21
3.025164774e-22
1.648102163e-21
7.839194644e-21
5.040942601e-21
9.957033933e-21
2.331819189e-21
2.246522516e-21
1.012202429e-22
5.54993983e-22
1.105353604e-20
6.435591231e-21
1.988540188e-21
1.337425188e-21
1.257986439e-20
2.001452819e-21
4.594149725e-21
6.727031194e-21
2.113658759e-21
3.386288913e-21
4.161949268e-22
4.139682869e-21
5.238276925e-21
2.495553586e-21
6.55729822e-22
8.972340722e-25
4.789463315e-21
3.965316294e-21
1.765905432e-21
2.612230632e-21
6.130987297e-21
9.253148607e-21
3.867894782e-21
1.628305204e-21
1.055268431e-21