/*--------------------------------*- C++ -*----------------------------------*\
  =========                 |
  \\      /  F ield         | OpenFOAM: The Open Source CFD Toolbox
   \\    /   O peration     | Website:  https://openfoam.org
    \\  /    A nd           | Version:  7
     \\/     M anipulation  |
\*---------------------------------------------------------------------------*/
FoamFile
{
    version     2.0;
    format      ascii;
    class       Cloud<dsmcParcel>;
    location    "0.007/lagrangian/dsmc";
    object      positions;
}
// * * * * * * * * * * * * * * * * * * * * * * * * * * * * * * * * * * * * * //

6200
(
(0.5012335836 0.05653228947 0.1928509187 0.2493832082) 201 393 1
(0.6676512611 0.1618963666 0.004278002886 0.1661743695) 172 336 1
(0.2233657964 0.3883171018 0.3001760282 0.08814107361) 262 513 2
(0.4493754338 0.2753122831 0.1115050436 0.1638072395) 233 1263 2
(0.1057808511 0.4471095745 0.2699816373 0.1771279371) 203 338 1
(0.3476403462 0.1061099812 0.3261798269 0.2200698456) 413 808 1
(0.2684762739 0.3319956965 0.3657618631 0.03376616654) 471 922 1
(0.02071840266 0.4896407987 0.05062583401 0.4390149647) 173 338 1
(0.2212293975 0.07310588137 0.3893853012 0.3162794199) 230 451 2
(0.3007521263 0.3496239369 0.05127834181 0.2983455951) 173 1261 2
(0.5653972748 0.2173013626 0.1645135634 0.05278779917) 169 331 1
(0.3057026303 0.3471486848 0.1443237154 0.2028249694) 653 1223 1
(0.5358662186 0.2320668907 0.09600564081 0.1360612499) 54 62 1
(0.400758887 0.1999437067 0.09967684974 0.2996205565) 203 338 2
(0.2667008519 0.3383673542 0.366649574 0.02828221984) 323 633 2
(0.3635372615 0.02223821859 0.2959931507 0.3182313693) 202 337 2
(0.7251182485 0.1321729942 0.1374408758 0.005267881572) 563 1105 2
(0.1661292397 0.4169353802 0.2829780608 0.1339573194) 202 396 1
(0.1241113313 0.4379443343 0.3917069968 0.0462373375) 55 104 2
(0.2431373868 0.3784313066 0.2708639547 0.1075673519) 54 105 1
(0.3019432962 0.3490283519 0.2936390289 0.05538932301) 263 515 1
(0.2592339114 0.2360847253 0.3703830443 0.134298319) 33 63 2
(0.0963080512 0.381610693 0.07023528136 0.4518459744) 441 807 2
(0.1734407684 0.4132796158 0.3462121531 0.06706746265) 171 276 1
(0.1040831044 0.2312531386 0.4479584478 0.2167053093) 233 456 2
(0.09577280092 0.274554845 0.1775587545 0.4521135995) 83 1258 1
(0.7558546738 0.08501179908 0.1220726631 0.03706086402) 4 5 1
(0.2756258161 0.3621870919 0.3185900517 0.04359704021) 173 279 1
(0.0458361614 0.1860113744 0.4770819193 0.2910705449) 140 274 2
(0.2580774788 0.3709612606 0.1781473593 0.1928139013) 531 1043 1
(0.5355075368 0.2322462316 0.1027968579 0.1294493737) 471 925 1
(0.4514955084 0.2742522458 0.07536564539 0.1988866004) 141 275 2
(0.02626902401 0.486865488 0.05293733839 0.4339281496) 352 688 2
(0.002880097389 0.3481889623 0.150370989 0.4985599513) 169 272 2
(0.3210359204 0.1255164206 0.2139656192 0.3394820398) 591 1160 1
(0.1477507175 0.4261246413 0.3526887111 0.07343593013) 230 451 1
(0.2205751476 0.3897124262 0.1131636515 0.2765487747) 287 562 2
(0.01278318211 0.1973669549 0.4936084089 0.2962414541) 441 866 2
(0.7009246889 0.1495376556 0.02744077942 0.1220968761) 291 571 1
(0.008104143395 0.4959479283 0.06724143227 0.428706496) 15 26 2
(0.1672924928 0.1233265677 0.4163537536 0.2930271859) 383 749 1
(0.5877934375 0.1857370447 0.02036623649 0.2061032812) 111 158 2
(0.008827625192 0.3625966561 0.4955861874 0.1329895313) 471 922 1
(0.3169727556 0.07519364966 0.3415136222 0.2663199726) 55 104 1
(0.07856189946 0.1441266161 0.3165924342 0.4607190503) 12 2 2
(0.4767732217 0.2616133891 0.076246057 0.1853673321) 412 808 2
(0.6933698433 0.1533150783 0.01749421914 0.1358208592) 412 809 1
(0.365729467 0.1357712385 0.181364028 0.3171352665) 353 633 2
(0.6566347783 0.1607694132 0.1716826109 0.01091319763) 230 451 2
(0.09446978467 0.2632152522 0.1895498555 0.4527651077) 293 1265 1
(0.1574243582 0.4008900086 0.02039781228 0.4212878209) 171 276 2
(0.08370256754 0.205262703 0.4581487162 0.2528860132) 472 927 2
(0.03728392782 0.4813580361 0.3120867199 0.1692713162) 110 212 2
(0.2452737252 0.3773631374 0.1081413738 0.2692217636) 293 572 2
(0.1475079325 0.3951333318 0.031112702 0.4262460338) 473 1271 1
(0.5437284972 0.1229385261 0.2281357514 0.1051972254) 648 1302 2
(0.6929480773 0.1535259614 0.1451956291 0.008330332294) 523 1027 1
(0.5839065605 0.2080467198 0.08738366687 0.1206630529) 500 979 2
(0.07628619746 0.4618569013 0.202750717 0.2591061843) 592 1160 2
(0.05083362789 0.4745831861 0.06127007809 0.413313108) 321 629 2
(0.5052944914 0.06761084755 0.1797419068 0.2473527543) 500 981 1
(0.06766375032 0.4661681248 0.2469215772 0.2192465476) 350 628 1
(0.3074562247 0.3462718876 0.2222873942 0.1239844934) 292 514 1
(0.4437883937 0.2781058031 0.06353854341 0.2145672597) 51 99 1
(0.567886679 0.05546603231 0.1605906282 0.2160566605) 559 1097 1
(0.1346562171 0.4326718914 0.1427779284 0.2898939631) 199 390 1
(0.03150922706 0.4842453865 0.1612453316 0.3230000549) 260 510 1
(0.01661661865 0.4916916907 0.2226254101 0.2690662805) 260 509 2
(0.5509938327 0.05708775452 0.1674153291 0.2245030837) 81 157 1
(0.1105558664 0.08168773205 0.3630343347 0.4447220668) 262 455 2
(0.438952876 0.280523562 0.1128348346 0.1676887274) 233 397 1
(0.5017910387 0.05397971901 0.2491044806 0.1951247616) 353 692 2
(0.01290240717 0.4935487964 0.4649758108 0.02857298566) 263 513 2
(0.5683054819 0.215847259 0.09609266003 0.119754599) 499 921 1
(0.4405540564 0.1534566566 0.1262663152 0.2797229718) 352 690 1
(0.06705310213 0.4664734489 0.1467791011 0.3196943478) 111 216 2
(0.05666323667 0.195126365 0.4716683817 0.2765420166) 323 633 2
(0.1905592822 0.4047203589 0.4011285188 0.003591840109) 257 503 2
(0.2327565024 0.0577593685 0.3836217488 0.3258623803) 473 928 2
(0.5772411084 0.2113794458 0.1971351089 0.01424433689) 291 512 1
(0.5765912024 0.169116722 0.04258767675 0.2117043988) 560 1099 1
(0.2341066081 0.3829466959 0.1238202548 0.2591264411) 563 1046 1
(0.2065950071 0.3967024965 0.1418400176 0.2548624789) 29 55 2
(0.2213941308 0.3142771293 0.07502580524 0.3893029346) 55 1257 1
(0.6902663004 0.1548668498 0.1245145307 0.03035231909) 140 271 2
(0.07311818459 0.1936107855 0.2698301222 0.4634409077) 112 218 1
(0.5631897946 0.1906468284 0.0277582743 0.2184051027) 623 1276 1
(0.3400876108 0.3299561946 0.2531914472 0.07676474743) 317 621 2
(0.3172324272 0.04842025686 0.3413837864 0.2929635295) 592 1160 1
(0.5488788726 0.1799140383 0.0456465254 0.2255605637) 533 1273 1
(0.2142699764 0.3928650118 0.07126935398 0.3215956578) 473 928 1
(0.2707358957 0.03664291623 0.3646320522 0.3279891359) 263 515 2
(0.7086734553 0.02878497327 0.1456632724 0.1168782991) 263 515 2
(0.2451106077 0.3774446961 0.03894589713 0.338498799) 472 924 2
(0.01435304561 0.4928234772 0.351995047 0.1408284302) 262 514 1
(0.5578998097 0.2210500951 0.1531275891 0.06792250605) 503 928 1
(0.1969679855 0.2435931768 0.1579228305 0.4015160073) 469 920 1
(0.530143655 0.2349281725 0.02023463355 0.2146935389) 167 326 2
(0.3235775681 0.3046008338 0.03361038215 0.338211216) 292 572 1
(0.2128323392 0.3391568864 0.3935838304 0.05442694397) 54 105 2
(0.4218010827 0.2890994587 0.2201616946 0.06893776404) 143 220 1
(0.3347576111 0.3326211944 0.1960567455 0.1365644489) 32 61 2
(0.06667466718 0.1463612245 0.3203014419 0.4666626664) 443 1270 1
(0.4544330916 0.2727834542 0.2639957269 0.008787727275) 143 220 1
(0.01014993808 0.494925031 0.1350783438 0.3598466871) 112 160 1
(0.005054100814 0.0350165326 0.4974729496 0.462456417) 232 452 1
(0.3005035362 0.3497482319 0.2374913265 0.1122569054) 412 809 1
(0.7320817855 0.1339591072 0.05512015357 0.07883895368) 82 159 2
(0.4050734131 0.2974632934 0.01398051313 0.2834827803) 111 217 1
(0.1821211346 0.4089394327 0.1848036997 0.224135733) 292 573 1
(0.5841537107 0.2079231446 0.004255537901 0.2036676067) 412 750 1
(0.06764591769 0.08286362311 0.4661770412 0.383313418) 53 103 2
(0.3458006331 0.3270996835 0.1716199966 0.1554796868) 473 869 1
(0.714911277 0.1425443615 0.1146588012 0.02788556027) 82 105 1
(0.646387517 0.1768062415 0.008878242746 0.1679279988) 263 515 1
(0.7399035444 0.1300482278 0.04920459221 0.08084363557) 352 688 2
(0.8107395206 0.09463023971 0.03803277886 0.05659746085) 593 1162 2
(0.0008133408296 0.4995933296 0.02236214633 0.4772311833) 263 513 2
(0.03403123567 0.4829843822 0.1690056136 0.3139787685) 472 926 2
(0.2070646358 0.3436899228 0.05277775932 0.3964676821) 172 278 2
(0.106878096 0.446560952 0.03064879271 0.4159121593) 292 572 2
(0.8231466634 0.0884266683 0.0798685319 0.008558136397) 497 973 2
(0.6300492384 0.1514004516 0.03357492917 0.1849753808) 110 214 1
(0.08231431343 0.1596598255 0.4588428433 0.2991830178) 262 514 2
(0.4721623404 0.2639188298 0.2599375592 0.00398127054) 473 928 1
(0.04357319273 0.2965970249 0.4782134036 0.1816163788) 381 745 1
(0.481059281 0.2594703595 0.1251164378 0.1343539217) 412 808 2
(0.4637520027 0.2681239986 0.1547343968 0.1133896018) 203 338 1
(0.06574665283 0.3942978579 0.07282881566 0.4671266736) 530 982 2
(0.005527472799 0.4972362636 0.1917627442 0.3054735194) 230 448 2
(0.7007980365 0.1496009818 0.0640574228 0.08554355896) 320 628 1
(0.5902273874 0.2048863063 0.1279500446 0.07693626172) 500 923 1
(0.3591989782 0.1218599113 0.3204005109 0.1985405996) 232 452 1
(0.6595529434 0.1702235283 0.09420423582 0.07601929248) 621 1161 1
(0.2696888246 0.2045857438 0.3651555877 0.1605698438) 619 1216 2
(0.3552679042 0.3047485244 0.01761752349 0.3223660479) 142 219 2
(0.3527937802 0.3236031099 0.1471304504 0.1764726595) 412 750 1
(0.6474927342 0.1762536329 0.04608816002 0.1301654729) 293 572 2
(0.1758613278 0.4120693361 0.2392055207 0.1728638154) 383 751 1
(0.6139171119 0.193041444 0.1033513498 0.08969009424) 321 630 1
(0.2110991594 0.3944504203 0.3585406924 0.03590972788) 81 157 2
(0.4714796938 0.1001834027 0.2642601531 0.1640767504) 52 98 1
(0.07583605779 0.253373034 0.2087089371 0.4620819711) 106 148 2
(0.1411773914 0.4294113043 0.1103123661 0.3190989382) 166 325 1
(0.2523329501 0.3738335249 0.2417292731 0.1321042519) 82 105 1
(0.000360614824 0.4998196926 0.2343863242 0.2654333684) 173 1261 2
(0.2753112128 0.1104322155 0.2519121781 0.3623443936) 171 334 1
(0.1598042125 0.4200978937 0.3314645877 0.08863330608) 143 1260 2
(0.2767144111 0.218743986 0.3616427945 0.1428988084) 228 447 2
(0.2424083857 0.3007440211 0.3787958072 0.07805178608) 166 322 1
(0.04917605696 0.06730530577 0.4754119715 0.4081066658) 352 691 2
(0.3594878186 0.1292724979 0.3202560907 0.1909835928) 51 96 1
(0.1998844566 0.4000577717 0.2177744097 0.1822833619) 83 106 1
(0.05814704173 0.4709264791 0.01521838396 0.4557080952) 442 868 1
(0.6609850597 0.003773807737 0.1657336624 0.1695074701) 443 810 2
(0.2004325193 0.3997837404 0.1531290655 0.2466546749) 111 214 2
(0.05368348527 0.4731582574 0.1114462943 0.361711963) 169 330 2
(0.1344894384 0.4327552808 0.07416235688 0.3585929239) 471 922 2
(0.4523648474 0.1705570382 0.103260538 0.2738175763) 143 220 2
(0.3415790831 0.3292104584 0.3096396876 0.01957077088) 54 62 1
(0.2358333075 0.3446774149 0.03740593135 0.3820833463) 32 61 1
(0.6574141138 0.1712929431 0.02832225659 0.1429706865) 290 568 2
(0.00280734753 0.1632748335 0.3353214928 0.4985963262) 323 1266 1
(0.6929067559 0.05400095475 0.09954566732 0.1535466221) 470 922 1
(0.03501626925 0.4824918654 0.05224158677 0.4302502786) 323 633 1
(0.3120616378 0.2050508295 0.1389183516 0.3439691811) 320 627 1
(0.3444124792 0.1552662656 0.1725274948 0.3277937604) 497 975 1
(0.388667174 0.305666413 0.03579664392 0.2698697691) 172 337 1
(0.0426860694 0.2499385336 0.2287184317 0.4786569653) 143 220 2
(0.4498907762 0.2750546119 0.2346008616 0.04045375033) 292 514 1
(0.4597682831 0.2701158585 0.2657987089 0.004317149583) 470 922 2
(0.2559699367 0.270681044 0.1013339877 0.3720150317) 382 691 2
(0.2874027347 0.2895711409 0.06672749178 0.3562986326) 322 631 1
(0.5796726773 0.1373834117 0.07278024965 0.2101636614) 201 335 2
(0.4813185452 0.1219602266 0.1373805008 0.2593407274) 349 626 2
(0.347699453 0.1827845913 0.3261502735 0.1433656822) 323 633 2
(0.2096020187 0.3951989906 0.2864670734 0.1087319173) 17 30 2
(0.2378376628 0.2231285947 0.1579525739 0.3810811686) 592 1162 1
(0.7116461182 0.1441769409 0.1022514349 0.04192550597) 143 279 1
(0.3626224201 0.298317492 0.31868879 0.02037129801) 202 396 2
(0.3141212954 0.3429393523 0.09500216489 0.2479371874) 233 454 2
(0.2043573669 0.378072784 0.3978213165 0.01974853251) 230 451 2
(0.5316022422 0.2341988789 0.1548101638 0.07938871513) 140 274 1
(0.4306514278 0.2846742861 0.2660919783 0.0185823078) 110 215 1
(0.3620494512 0.3189752744 0.2197348253 0.09924044911) 322 632 1
(0.00152739692 0.4992363015 0.1220087421 0.3772275594) 292 572 2
(0.4337648806 0.1603433556 0.2831175597 0.1227742041) 137 268 2
(0.07200196037 0.4030162643 0.06098275548 0.4639990198) 233 1263 1
(0.01720860734 0.4913956963 0.2376494611 0.2537462353) 381 747 2
(0.1279744617 0.0658149802 0.370197789 0.4360127692) 171 334 1
(0.322964996 0.338517502 0.005569345486 0.3329481565) 173 336 2
(0.07904341094 0.3408633934 0.1196149011 0.4604782945) 292 572 1
(0.3062293852 0.2762146493 0.0706706581 0.3468853074) 473 869 2
(0.6729653023 0.1635173488 0.1379277425 0.02558960631) 499 921 1
(0.3499222714 0.3250388643 0.2417875338 0.08325133045) 233 456 1
(0.3054750873 0.3472624563 0.2549268616 0.0923355947) 351 630 1
(0.5864478546 0.1759197056 0.2067760727 0.03085636716) 345 674 1
(0.693712194 0.06258771563 0.09055618735 0.153143903) 413 1269 1
(0.1384809132 0.4307595434 0.2164701599 0.2142893835) 592 1104 1
(0.3248207473 0.2953269005 0.04226272588 0.3375896264) 232 396 2
(0.1469020598 0.05701306448 0.3695359056 0.4265489701) 622 1221 1
(0.4239638573 0.2407301341 0.2880180713 0.0472879372) 473 926 1
(0.5573566051 0.2213216974 0.121679964 0.09964173338) 202 337 1
(0.6558175731 0.1617473808 0.01034383263 0.1720912135) 290 568 1
(0.2592860202 0.3513701155 0.01898687441 0.3703569899) 142 277 1
(0.4855886631 0.1966601579 0.2572056684 0.0605455105) 322 632 2
(0.7705711322 0.04078378685 0.1147144339 0.07393064707) 623 1223 2
(0.7172078668 0.1413960666 0.1331535932 0.008242473389) 173 338 1
(0.4685670865 0.1495754063 0.1161410504 0.2657164568) 173 279 2
(0.479248229 0.2603758855 0.1111540736 0.1492218119) 319 623 2
(0.03891431411 0.4805428429 0.1681751757 0.3123676672) 440 863 2
(0.06773951982 0.2892396025 0.4661302401 0.1768906376) 533 1046 2
(0.09419912012 0.2772771419 0.1756232981 0.4529004399) 30 57 1
(0.4208818914 0.01967720788 0.2895590543 0.2698818464) 260 510 2
(0.3574032816 0.0475043758 0.2737939834 0.3212983592) 109 212 1
(0.5020009608 0.2489995196 0.1376604094 0.1113391102) 52 101 1
(0.3120542611 0.1637982343 0.1801746352 0.3439728695) 351 688 1
(0.02649598943 0.4867520053 0.3084874421 0.1782645632) 621 1220 1
(0.06246054423 0.4687697279 0.03077613885 0.437993589) 231 453 1
(0.6016520397 0.1991739802 0.0286246488 0.1705493313) 263 513 2
(0.002058968011 0.498970516 0.4091963729 0.08977414307) 143 1260 2
(0.2817609969 0.3591195015 0.3232150887 0.03590441287) 411 804 2
(0.2377374503 0.1576370419 0.3811312748 0.223494233) 284 557 2
(0.09325997171 0.4533700141 0.3707718011 0.08259821308) 260 509 2
(0.1236210385 0.08362909455 0.4381894808 0.3545603862) 108 211 2
(0.6897900893 0.1367007435 0.0184042119 0.1551049554) 83 1258 1
(0.5256732838 0.1436826903 0.09348066779 0.2371633581) 412 808 1
(0.05110861182 0.3772681337 0.4744456941 0.09717756036) 561 1102 2
(0.4008255834 0.2995872083 0.1053813008 0.1942059075) 202 395 2
(0.002206754972 0.4272554486 0.07164117391 0.4988966225) 30 57 1
(0.09032848055 0.1156440057 0.3391917541 0.4548357597) 623 1164 2
(0.07469946443 0.07539344468 0.4626502678 0.3872568231) 229 449 2
(0.1045850446 0.07915916828 0.3685483094 0.4477074777) 230 450 1
(0.01291863555 0.4935406822 0.1072645428 0.3862761394) 557 1093 2
(0.27038612 0.36480694 0.3566921382 0.008114801806) 499 977 2
(0.6390601324 0.1804699338 0.1721397323 0.008330201504) 263 515 1
(0.604383254 0.197808373 0.1684334115 0.02937496145) 653 1223 1
(0.7361000373 0.03840621372 0.09354376763 0.1319499814) 219 428 1
(0.9386159498 0.0177046516 0.01298737348 0.03069202508) 83 1258 1
(0.02779983531 0.2098664282 0.2762336542 0.4861000823) 11 20 1
(0.4246994167 0.2876502917 0.1326583039 0.1549919877) 530 1041 1
(0.2520705525 0.2365270277 0.1374376961 0.3739647237) 563 1274 1
(0.1076831808 0.4461584096 0.0814317848 0.3647266248) 32 31 1
(0.6487615902 0.1067920137 0.1756192049 0.06882719123) 141 276 2
(0.07413998915 0.4629300054 0.1453517464 0.317578259) 323 574 1
(0.1940267516 0.1408856679 0.2621009563 0.4029866242) 348 624 2
(0.3519589084 0.08653182512 0.2374887207 0.3240205458) 261 511 1
(0.4003311186 0.2998344407 0.05192504221 0.2479093985) 30 58 1
(0.03706523253 0.4814673837 0.2108001547 0.2706672291) 110 214 2
(0.8115066698 0.09424666511 0.04939702031 0.0448496448) 563 1105 1
(0.1011598557 0.07396606754 0.4494200721 0.3754540046) 442 868 2
(0.01260239246 0.4936988038 0.09871537394 0.3949834298) 443 1270 2
(0.08333287702 0.07366234951 0.384671212 0.4583335615) 501 925 2
(0.02200703272 0.4889964836 0.2365922971 0.2524041865) 293 572 2
(0.002012819021 0.4237509621 0.4989935905 0.07524262844) 172 337 2
(0.09544543176 0.4278202489 0.02445703518 0.4522772841) 229 390 2
(0.381093664 0.309453168 0.06992490628 0.2395282617) 411 807 1
(0.02228636212 0.4888568189 0.106988985 0.381867834) 497 917 1
(0.004697766361 0.4976511168 0.1621561179 0.3354949989) 470 923 1
(0.03052562285 0.2470201183 0.2377170703 0.4847371886) 31 59 1
(0.513405461 0.2432972695 0.1691658316 0.07413143795) 648 1302 1
(0.07189448542 0.4640527573 0.2783488383 0.185703919) 501 983 2
(0.05305621315 0.4734718934 0.4305501694 0.04292172406) 353 1267 2
(0.041480989 0.4259909691 0.4792595055 0.05326853642) 411 804 1
(0.5288308981 0.235584551 0.03494217996 0.200642371) 623 1223 1
(0.0217915321 0.489104234 0.3357497359 0.153354498) 533 1273 2
(0.5764394555 0.1974511025 0.2117802722 0.01432916971) 169 328 1
(0.02873148337 0.4856342583 0.405482288 0.08015197036) 143 220 1
(0.001364870072 0.09346998289 0.4058475821 0.499317565) 141 217 2
(0.0848834767 0.4575582616 0.02015039279 0.4374078689) 292 514 1
(0.1322793245 0.4338603377 0.3237495453 0.1101107924) 490 903 1
(0.2548338446 0.3436530969 0.3725830777 0.02892998078) 232 452 1
(0.2850128326 0.1754336647 0.3574935837 0.182059919) 471 925 2
(0.3194840196 0.3402579902 0.2046419241 0.1356160661) 473 926 2
(0.5659106237 0.1984334978 0.01861119029 0.2170446881) 348 682 1
(0.3715049394 0.0493323049 0.3142475303 0.2649152254) 201 391 1
(0.2614592627 0.2457228633 0.3692703686 0.1235475053) 383 751 2
(0.1312179047 0.4343910477 0.3608143521 0.07357669556) 527 1032 2
(0.1499403661 0.04345267532 0.4250298169 0.3815771416) 442 865 1
(0.4853533424 0.2573233288 0.1555550829 0.1017682459) 261 512 1
(0.04345719767 0.3199541704 0.1583172307 0.4782714012) 318 623 1
(0.4861896708 0.2569051646 0.09735123932 0.1595539253) 263 515 1
(0.0345779974 0.01182347457 0.4708875267 0.4827110013) 291 512 2
(0.4947401611 0.03605211699 0.2526299194 0.2165778025) 81 155 1
(0.3827171586 0.05319883554 0.2554425852 0.3086414207) 167 326 1
(0.3743457327 0.3001254636 0.3128271337 0.01270167007) 51 96 1
(0.8938370164 0.005420276122 0.04766121567 0.05308149179) 469 862 2
(0.09252128657 0.4537393567 0.3731799846 0.08055937216) 351 630 1
(0.3468136068 0.3265931966 0.3045320153 0.02206118132) 80 155 2
(0.7454194671 0.1272902664 0.07132108628 0.05596918016) 323 574 1
(0.09062458044 0.0811323867 0.3735553231 0.4546877098) 171 276 2
(0.3314304663 0.3285528056 0.3342847668 0.00573196126) 82 157 1
(0.06464542176 0.2720015607 0.1956757284 0.4676772891) 31 59 1
(0.3518704332 0.3240647834 0.2123715209 0.1116932626) 291 512 1
(0.3713643892 0.3143178054 0.09090911335 0.223408692) 412 808 2
(0.2052886558 0.3948831086 0.002472563434 0.3973556721) 471 866 2
(0.8239158323 0.05430748429 0.03373459956 0.08804208384) 590 1158 1
(0.3305856864 0.084010393 0.3347071568 0.2506967638) 412 809 2
(0.6265970173 0.1867014914 0.06733890716 0.1193625842) 443 867 2
(0.07682503157 0.4615874842 0.1430181391 0.3185693452) 258 505 2
(0.4319174919 0.284041254 0.04914276771 0.2348984863) 383 751 1
(0.6582436155 0.08108886887 0.08978932337 0.1708781922) 32 31 2
(0.1195545485 0.4101448923 0.4402227257 0.03007783344) 14 27 2
(0.4808559666 0.2595720167 0.04195592177 0.2176160949) 288 562 2
(0.3291080254 0.3354459873 0.02231400079 0.3131319865) 109 212 2
(0.1481344223 0.4259327889 0.0990150416 0.3269177473) 443 810 1
(0.1323610603 0.09838339534 0.4338194699 0.3354360745) 110 215 2
(0.7166997853 0.1416501073 0.08246095039 0.05918915695) 263 456 1
(0.6948474591 0.0335166867 0.1525762705 0.1190595838) 76 148 2
(0.6322445662 0.1838777169 0.1800398616 0.003837855257) 589 1156 2
(0.0361629937 0.1723959545 0.3095225486 0.4819185032) 383 1268 1
(0.6183001606 0.1908499197 0.03898416486 0.1518657548) 232 455 1
(0.501919821 0.2490400895 0.2236316983 0.02540839121) 379 741 2
(0.2422729676 0.3788635162 0.2412922974 0.1375712188) 232 452 2
(0.2732581908 0.03963769258 0.3633709046 0.323733212) 503 985 1
(0.6652185363 0.04141244269 0.1673907318 0.1259782892) 529 1039 2
(0.07621150956 0.1382566962 0.3236375491 0.4618942452) 499 979 1
(0.2654070602 0.3082902548 0.3672964699 0.05900621507) 471 925 2
(0.7417074109 0.1291462946 0.1050029477 0.02414334682) 172 336 2
(0.2446857924 0.06245303317 0.3776571038 0.3152040706) 203 395 1
(0.146270311 0.4268648445 0.04393718942 0.3829276551) 140 215 1
(0.2181993701 0.3195696572 0.390900315 0.07133065772) 322 629 1
(0.6351276846 0.1824361577 0.1436125637 0.03882359406) 49 94 2
(0.8530457264 0.0734771368 0.01687214576 0.05660499105) 321 630 1
(0.1179848125 0.4410075937 0.3241368015 0.1168707922) 527 1034 2
(0.5990730277 0.02371263757 0.2004634862 0.1767508486) 323 631 1
(0.6418088179 0.1132608447 0.06583474637 0.1790955911) 289 566 1
(0.06362623714 0.4681868814 0.1896909198 0.2784959616) 231 453 1
(0.6202401849 0.09001668288 0.09986322469 0.1898799076) 203 1262 1
(0.3895957091 0.2619035232 0.04329862228 0.3052021455) 262 455 2
(0.4494662385 0.2752668808 0.1866134606 0.08865342013) 650 1304 1
(0.3448424308 0.284411652 0.3275787846 0.04316713256) 13 22 1
(0.261697167 0.3691514165 0.2072695472 0.1618818693) 292 514 1
(0.3494031711 0.3252984145 0.1159168306 0.2093815839) 109 154 1
(0.177518843 0.06485851532 0.4112405785 0.3463820632) 592 1160 1
(0.3238448885 0.1114400054 0.3380775557 0.2266375504) 82 157 1
(0.2858583921 0.3570708039 0.1439470769 0.213123727) 230 392 1
(0.3534796441 0.323260178 0.1295704873 0.1936896906) 232 396 1
(0.4916158557 0.1920682129 0.06212385921 0.2541920721) 443 810 2
(0.5097621189 0.2061165782 0.2451189405 0.03900236234) 591 1158 1
(0.6542706297 0.06511648031 0.1077482048 0.1728646851) 83 1258 1
(0.2334162778 0.2661969124 0.3832918611 0.1170949487) 469 921 2
(0.08331033024 0.1414112192 0.4583448349 0.3169336157) 233 456 2
(0.4521995615 0.2739002192 0.1680645289 0.1058356903) 201 335 1
(0.1240468435 0.3159623381 0.1220142401 0.4379765782) 142 219 2
(0.1804730443 0.04007633041 0.4097634778 0.3696871474) 142 278 2
(0.8806798739 0.05966006305 0.04421641714 0.01544364591) 141 273 2
(0.04751858096 0.3724528307 0.4762407095 0.1037878788) 287 563 2
(0.2444451942 0.3777774029 0.1034414231 0.2743359798) 105 204 2
(0.5646372909 0.09843238775 0.2176813545 0.1192489668) 290 569 2
(0.2611645535 0.02508494081 0.3694177232 0.3443327824) 383 749 1
(0.3849318503 0.2471667204 0.3075340748 0.06036735447) 473 928 2
(0.003110345904 0.0633462319 0.498444827 0.4350985951) 112 219 2
(0.6390031225 0.1804984387 0.1555505838 0.02494785496) 321 571 1
(0.03405318919 0.07886160503 0.4041118004 0.4829734054) 561 1043 2
(0.2207833023 0.3896083488 0.3746177668 0.01499058206) 533 1273 2
(0.01147987465 0.2923929089 0.2018671538 0.4942600627) 411 806 1
(0.5785428225 0.1316292146 0.2107285887 0.07909937413) 526 1030 1
(0.1029705284 0.4485147358 0.4103598504 0.03815488544) 53 103 1
(0.3804770263 0.3097614869 0.137310151 0.1724513359) 82 160 1
(0.05460786089 0.4726960696 0.1659827754 0.3067132942) 78 149 2
(0.4605036336 0.09349356656 0.1762546167 0.2697481832) 171 334 1
(0.5853367102 0.2073316449 0.0536249085 0.1537067364) 83 159 2
(0.1297063241 0.4351468379 0.1366158932 0.2985309447) 620 1218 1
(0.1726839666 0.4136580167 0.3801655878 0.03349242891) 141 217 1
(0.7065036264 0.1467481868 0.002774019013 0.1439741678) 289 564 2
(0.01982563614 0.4573976317 0.03268955027 0.4900871819) 563 1046 2
(0.0414079403 0.4792960299 0.2428769128 0.236419117) 382 749 2
(0.0008697446977 0.4371736464 0.06239148126 0.4995651277) 226 442 1
(0.2652574938 0.1916224649 0.3673712531 0.1757487881) 17 32 2
(0.4295433435 0.2852283282 0.1750604853 0.110167843) 50 94 2
(0.2010539945 0.331252851 0.06822015176 0.3994730027) 231 394 2
(0.1009725336 0.4495137332 0.3953967501 0.05411698308) 258 505 2
(0.2434129851 0.3782935075 0.01771514319 0.3605783643) 203 1262 2
(0.02380315846 0.1434511282 0.3446472925 0.4880984208) 321 571 2
(0.1657640357 0.3660323383 0.05108564385 0.4171179821) 469 862 2
(0.8500560921 0.07497195395 0.06981990537 0.005152048573) 621 1219 2
(0.1703483457 0.4148258272 0.3032070389 0.1116187883) 260 510 1
(0.4347302113 0.2826348943 0.003795458203 0.2788394361) 256 443 1
(0.554613899 0.2226930505 0.05779907482 0.1648939757) 378 683 1
(0.6407207334 0.1796396333 0.02956510287 0.1500745304) 171 335 1
(0.04352582723 0.3138447469 0.1643923395 0.4782370864) 173 1261 1
(0.1116764277 0.3485373571 0.4441617861 0.095624429) 322 629 1
(0.5764300858 0.2117849571 0.09245208134 0.1193328758) 291 571 1
(0.3992917576 0.3003541212 0.09539594596 0.2049581752) 350 687 1
(0.1313956396 0.4343021802 0.09812055784 0.3361816224) 321 627 2
(0.4491545107 0.06304851914 0.2123742255 0.2754227446) 562 1103 1
(0.3035503371 0.2746199974 0.3482248314 0.07360483408) 559 1095 1
(0.3255658652 0.3372170674 0.1699697054 0.167247362) 442 865 2
(0.4506717332 0.2746641334 0.1533188547 0.1213452787) 141 273 2
(0.2708176227 0.2998126687 0.3645911887 0.06477852) 323 631 1
(0.6980847012 0.1509576494 0.04411009462 0.1068475548) 143 1260 2
(0.3539739696 0.3230130152 0.2749138294 0.04809918578) 262 455 1
(0.04971322426 0.4751433879 0.2167820324 0.2583613555) 442 868 1
(0.152776166 0.423611917 0.369518605 0.05409331198) 531 1043 1
(0.03937563972 0.2566006518 0.2237115283 0.4803121801) 165 322 1
(0.4182839089 0.07016664401 0.2206914015 0.2908580456) 226 442 1
(0.3151233511 0.2932221735 0.3424383245 0.04921615097) 320 625 1
(0.04629417312 0.4450421623 0.4768529134 0.03181075117) 55 104 1
(0.01300785117 0.3214847036 0.1720113708 0.4934960744) 108 210 1
(0.3522529133 0.2285358727 0.3238735433 0.09533767066) 172 337 2
(0.5314393935 0.217790554 0.01648974921 0.2342803032) 200 391 1
(0.4559254516 0.06756602072 0.2720372742 0.2044712535) 559 1095 1
(0.4774454116 0.2612772942 0.08661217801 0.1746651162) 27 51 2
(0.1912477838 0.3908969536 0.4043761081 0.01347915448) 82 157 1
(0.01633530178 0.4918323491 0.146006637 0.3458257122) 195 382 1
(0.4530399325 0.2734800337 0.1745143527 0.09896568105) 169 328 2
(0.4307120795 0.2303332551 0.2846439602 0.05431070513) 108 211 2
(0.6129143956 0.1935428022 0.05395774509 0.1395850571) 557 1035 1
(0.05017163004 0.474914185 0.2267651189 0.2481490661) 53 100 2
(0.2209166173 0.3895416914 0.1893178639 0.2002238274) 286 558 2
(0.3275396182 0.07091383332 0.2653163576 0.3362301909) 502 927 2
(0.8654175049 0.02643593885 0.04085530871 0.06729124756) 32 31 2
(0.4806702363 0.1645218158 0.2596648819 0.09514306602) 197 386 2
(0.0007035255052 0.4996482372 0.0008880231061 0.4987602141) 559 1095 2
(0.4544485822 0.2217741788 0.05100153012 0.2727757089) 381 689 2
(0.1781953451 0.1755450388 0.4109023274 0.2353572886) 623 1223 2
(0.1893587526 0.3761929912 0.02912763248 0.4053206237) 351 688 1
(0.1178567117 0.3616294734 0.07944217073 0.4410716441) 620 1217 1
(0.93785871 0.006285272235 0.03107064499 0.02478537275) 163 316 1
(0.148585284 0.3498316807 0.425707358 0.07587567736) 349 682 1
(0.2479847455 0.3760076272 0.1746219201 0.2013857071) 622 1163 1
(0.4282220735 0.2858889632 0.2127663043 0.0731226589) 111 158 1
(0.01414857576 0.4929257121 0.4230619855 0.06986372663) 352 688 2
(0.4860107717 0.2514329575 0.005561656659 0.2569946141) 262 455 2
(0.4861370245 0.03697095778 0.21996053 0.2569314877) 142 277 1
(0.9190559378 0.03189058556 0.008581445548 0.04047203111) 407 740 2
(0.2019209321 0.08288441148 0.399039534 0.3161551225) 380 746 2
(0.2362822357 0.340963259 0.04089562314 0.3818588821) 473 1271 1
(0.9719161614 0.004015337647 0.01404191928 0.01002658163) 50 94 1
(0.3676557257 0.3161721371 0.05266620437 0.2635059328) 170 333 1
(0.03899688821 0.001119167905 0.479382388 0.4805015559) 82 159 1
(0.3850454746 0.01778589596 0.3074772627 0.2896913667) 560 1097 1
(0.08887849025 0.2795191273 0.4555607549 0.1760416276) 322 629 1
(0.2414762884 0.3792618558 0.3081248699 0.0711369859) 501 983 2
(0.1544225862 0.0292952502 0.4227887069 0.3934934567) 201 391 1
(0.6621510566 0.1689244717 0.02882910441 0.1400953673) 170 274 1
(0.5525632234 0.2237183883 0.09300781387 0.1307105744) 233 1263 2
(0.5533082312 0.07071216122 0.1526337232 0.2233458844) 348 624 2
(0.6991427402 0.1504286299 0.07657273389 0.07385589603) 469 921 1
(0.5126168984 0.2243398007 0.0193517501 0.2436915508) 77 149 1
(0.2243361726 0.1020176932 0.2858142205 0.3878319137) 261 453 2
(0.2454501766 0.3772749117 0.009521573425 0.3677533383) 54 62 1
(0.3801740521 0.3099129739 0.27064267 0.03927030396) 82 160 1
(0.01242434879 0.4937878256 0.1076876851 0.3861001405) 621 1220 1
(0.08348629676 0.006536692153 0.4582568516 0.4517201595) 83 161 2
(0.577222686 0.211388657 0.07663135611 0.1347573009) 322 631 2
(0.514628374 0.242685813 0.01993214357 0.2227536694) 107 209 1
(0.09969723772 0.4501513811 0.3808918984 0.06925948279) 412 806 2
(0.8482359342 0.04942409652 0.07588203288 0.02645793636) 502 986 2
(0.201565988 0.1227198404 0.2764971656 0.399217006) 468 860 2
(0.6371683308 0.1814158346 0.1611620811 0.02025375348) 142 278 1
(0.865698944 0.02353220583 0.04361832215 0.06715052798) 350 628 2