/*--------------------------------*- C++ -*----------------------------------*\
  =========                 |
  \\      /  F ield         | OpenFOAM: The Open Source CFD Toolbox
   \\    /   O peration     | Website:  https://openfoam.org
    \\  /    A nd           | Version:  7
     \\/     M anipulation  |
\*---------------------------------------------------------------------------*/
FoamFile
{
    version     2.0;
    format      ascii;
    class       labelField;
    location    "0.00144/particle/lagrangian/dsmc";
    object      origId;
}
// * * * * * * * * * * * * * * * * * * * * * * * * * * * * * * * * * * * * * //


87951
(
23565660
23565661
23565662
23565663
23565664
23565665
23565666
23565667
23565668
23565669
23565670
23565671
23565672
23565673
23565674
23565675
23565676
23565677
23565678
23565679
23565680
23565681
23565682
23565683
23565684
23565685
23565686
23565687
23565688
23565689
23565690
23565691
23565692
23565693
23565694
23565695
23565696
23565697
23565698
23565699
23565700
23565701
23565702
23565703
23565704
23565705
23565706
23565707
23565708
23565709
23565710
23565711
23565712
23565713
23565714
23565715
23565716
23565717
23565718
23565719
23565720
23565721
23565722
23565723
23565724
23565725
23565726
23565727
23565728
23565729
23565730
23565731
23565732
23565733
23565734
23565735
23565736
23565737
23565738
23565739
23565740
23565741
23565742
23565743
23565744
23565745
23565746
23565747
23565748
23565749
23565750
23565751
23565752
23565753
23565754
23565755
23565756
23565757
23565758
23565759
23565760
23565761
23565762
23565763
23565764
23565765
23565766
23565767
23565768
23565769
23565770
23565771
23565772
23565773
23565774
23565775
23565776
23565777
23565778
23565779
23565780
23565781
23565782
23565783
23565784
23565785
23565786
23565787
23565788
23565789
23565790
23565791
23565792
23565793
23565794
23565795
23565796
23565797
23565798
23565799
23565800
23565801
23565802
23565803
23565804
23565805
23565806
23565807
23565808
23565809
23565810
23565811
23565812
23565813
23565814
23565815
23565816
23565817
23565818
23565819
23565820
23565821
23565822
23565823
23565824
23565825
23565826
23565827
23565828
23565829
23565830
23565831
23565832
23565833
23565834
23565835
23565836
23565837
23565838
23565839
23565840
23565841
23565842
23565843
23565844
23565845
23565846
23565847
23565848
23565849
23565850
23565851
23565852
23565853
23565854
23565855
23565856
23565857
23565858
23565859
23565860
23565861
23565862
23565863
23565864
23565865
23565866
23565867
23565868
23565869
23565870
23565871
23565872
23565873
23565874
23565875
23565876
23565877
23565878
23565879
23565880
23565881
23565882
23565883
23565884
23565885
23565886
23565887
23565888
23565889
23565890
23565891
23565892
23565893
23565894
23565895
23565896
23565897
23565898
23565899
23565900
23565901
23565902
23565903
23565904
23565905
23565906
23565907
23565908
23565909
23565910
23565911
23565912
23565913
23565914
23565915
23565916
23565917
23565918
23565919
23565920
23565921
23565922
23565923
23565924
23565925
23565926
23565927
23565928
23565929
23565930
23565931
23565932
23565933
23565934
23565935
23565936
23565937
23565938
23565939
23565940
23565941
23565942
23565943
23565944
23565945
23565946
23565947
23565948
23565949
23565950
23565951
23565952
23565953
23565954
23565955
23565956
23565957
23565958
23565959
23565960
23565961
23565962
23565963
23565964
23565965
23565966
23565967
23565968
23565969
23565970
23565971
23565972
23565973
23565974
23565975
23565976
23565977
23565978
23565979
23565980
23565981
23565982
23565983
23565984
23565985
23565986
23565987
23565988
23565989
23565990
23565991
23565992
23565993
23565994
23565995
23565996
23565997
23565998
23565999
23566000
23566001
23566002
23566003
23566004
23566005
23566006
23566007
23566008
23566009
23566010
23566011
23566012
23566013
23566014
23566015
23566016
23566017
23566018
23566019
23566020
23566021
23566022
23566023
23566024
23566025
23566026
23566027
23566028
23566029
23566030
23566031
23566032
23566033
23566034
23566035
23566036
23566037
23566038
23566039
23566040
23566041
23566042
23566043
23566044
23566045
23566046
23566047
23566048
23566049
23566050
23566051
23566052
23566053
23566054
23566055
23566056
23566057
23566058
23566059
23566060
23566061
23566062
23566063
23566064
23566065
23566066
23566067
23566068
23566069
23566070
23566071
23566072
23566073
23566074
23566075
23566076
23566077
23566078
23566079
23566080
23566081
23566082
23566083
23566084
23566085
23566086
23566087
23566088
23566089
23566090
23566091
23566092
23566093
23566094
23566095
23566096
23566097
23566098
23566099
23566100
23566101
23566102
23566103
23566104
23566105
23566106
23566107
23566108
23566109
23566110
23566111
23566112
23566113
23566114
23566115
23566116
23566117
23566118
23566119
23566120
23566121
23566122
23566123
23566124
23566125
23566126
23566127
23566128
23566129
23566130
23566131
23566132
23566133
23566134
23566135
23566136
23566137
23566138
23566139
23566140
23566141
23566142
23566143
23566144
23566145
23566146
23566147
23566148
23566149
23566150
23566151
23566152
23566153
23566154
23566155
23566156
23566157
23566158
23566159
23566160
23566161
23566162
23566163
23566164
23566165
23566166
23566167
23566168
23566169
23566170
23566171
23566172
23566173
23566174
23566175
23566176
23566177
23566178
23566179
23566180
23566181
23566182
23566183
23566184
23566185
23566186
23566187
23566188
23566189
23566190
23566191
23566192
23566193
23566194
23566195
23566196
23566197
23566198
23566199
23566200
23566201
23566202
23566203
23566204
23566205
23566206
23566207
23566208
23566209
23566210
23566211
23566212
23566213
23566214
23566215
23566216
23566217
23566218
23566219
23566220
23566221
23566222
23566223
23566224
23566225
23566226
23566227
23566228
23566229
23566230
23566231
23566232
23566233
23566234
23566235
23566236
23566237
23566238
23566239
23566240
23566241
23566242
23566243
23566244
23566245
23566246
23566247
23566248
23566249
23566250
23566251
23566252
23566253
23566254
23566255
23566256
23566257
23566258
23566259
23566260
23566261
23566262
23566263
23566264
23566265
23566266
23566267
23566268
23566269
23566270
23566271
23566272
23566273
23566274
23566275
23566276
23566277
23566278
23566279
23566280
23566281
23566282
23566283
23566284
23566285
23566286
23566287
23566288
23566289
23566290
23566291
23566292
23566293
23566294
23566295
23566296
23566297
23566298
23566299
23566300
23566301
23566302
23566303
23566304
23566305
23566306
23566307
23566308
23566309
23566310
23566311
23566312
23566313
23566314
23566315
23566316
23566317
23566318
23566319
23566320
23566321
23566322
23566323
23566324
23566325
23566326
23566327
23566328
23566329
23566330
23566331
23566332
23566333
23566334
23566335
23566336
23566337
23566338
23566339
23566340
23566341
23566342
23566343
23566344
23566345
23566346
23566347
23566348
23566349
23566350
23566351
23566352
23566353
23566354
23566355
23566356
23566357
23566358
23566359
23566360
23566361
23566362
23566363
23566364
23566365
23566366
23566367
23566368
23566369
23566370
23566371
23566372
23566373
23566374
23566375
23566376
23566377
23566378
23566379
23566380
23566381
23566382
23566383
23566384
23566385
23566386
23566387
23566388
23566389
23566390
23566391
23566392
23566393
23566394
23566395
23566396
23566397
23566398
23566399
23566400
23566401
23566402
23566403
23566404
23566405
23566406
23566407
23566408
23566409
23566410
23566411
23566412
23566413
23566414
23566415
23566416
23566417
23566418
23566419
23566420
23566421
23566422
23566423
23566424
23566425
23566426
23566427
23566428
23566429
23566430
23566431
23566432
23566433
23566434
23566435
23566436
23566437
23566438
23566439
23566440
23566441
23566442
23566443
23566444
23566445
23566446
23566447
23566448
23566449
23566450
23566451
23566452
23566453
23566454
23566455
23566456
23566457
23566458
23566459
23566460
23566461
23566462
23566463
23566464
23566465
23566466
23566467
23566468
23566469
23566470
23566471
23566472
23566473
23566474
23566475
23566476
23566477
23566478
23566479
23566480
23566481
23566482
23566483
23566484
23566485
23566486
23566487
23566488
23566489
23566490
23566491
23566492
23566493
23566494
23566495
23566496
23566497
23566498
23566499
23566500
23566501
23566502
23566503
23566504
23566505
23566506
23566507
23566508
23566509
23566510
23566511
23566512
23566513
23566514
23566515
23566516
23566517
23566518
23566519
23566520
23566521
23566522
23566523
23566524
23566525
23566526
23566527
23566528
23566529
23566530
23566531
23566532
23566533
23566534
23566535
23566536
23566537
23566538
23566539
23566540
23566541
23566542
23566543
23566544
23566545
23566546
23566547
23566548
23566549
23566550
23566551
23566552
23566553
23566554
23566555
23566556
23566557
23566558
23566559
23566560
23566561
23566562
23566563
23566564
23566565
23566566
23566567
23566568
23566569
23566570
23566571
23566572
23566573
23566574
23566575
23566576
23566577
23566578
23566579
23566580
23566581
23566582
23566583
23566584
23566585
23566586
23566587
23566588
23566589
23566590
23566591
23566592
23566593
23566594
23566595
23566596
23566597
23566598
23566599
23566600
23566601
23566602
23566603
23566604
23566605
23566606
23566607
23566608
23566609
23566610
23566611
23566612
23566613
23566614
23566615
23566616
23566617
23566618
23566619
23566620
23566621
23566622
23566623
23566624
23566625
23566626
23566627
23566628
23566629
23566630
23566631
23566632
23566633
23566634
23566635
23566636
23566637
23566638
23566639
23566640
23566641
23566642
23566643
23566644
23566645
23566646
23566647
23566648
23566649
23566650
23566651
23566652
23566653
23566654
23566655
23566656
23566657
23566658
23566659
23566660
23566661
23566662
23566663
23566664
23566665
23566666
23566667
23566668
23566669
23566670
23566671
23566672
23566673
23566674
23566675
23566676
23566677
23566678
23566679
23566680
23566681
23566682
23566683
23566684
23566685
23566686
23566687
23566688
23566689
23566690
23566691
23566692
23566693
23566694
23566695
23566696
23566697
23566698
23566699
23566700
23566701
23566702
23566703
23566704
23566705
23566706
23566707
23566708
23566709
23566710
23566711
23566712
23566713
23566714
23566715
23566716
23566717
23566718
23566719
23566720
23566721
23566722
23566723
23566724
23566725
23566726
23566727
23566728
23566729
23566730
23566731
23566732
23566733
23566734
23566735
23566736
23566737
23566738
23566739
23566740
23566741
23566742
23566743
23566744
23566745
23566746
23566747
23566748
23566749
23566750
23566751
23566752
23566753
23566754
23566755
23566756
23566757
23566758
23566759
23566760
23566761
23566762
23566763
23566764
23566765
23566766
23566767
23566768
23566769
23566770
23566771
23566772
23566773
23566774
23566775
23566776
23566777
23566778
23566779
23566780
23566781
23566782
23566783
23566784
23566785
23566786
23566787
23566788
23566789
23566790
23566791
23566792
23566793
23566794
23566795
23566796
23566797
23566798
23566799
23566800
23566801
23566802
23566803
23566804
23566805
23566806
23566807
23566808
23566809
23566810
23566811
23566812
23566813
23566814
23566815
23566816
23566817
23566818
23566819
23566820
23566821
23566822
23566823
23566824
23566825
23566826
23566827
23566828
23566829
23566830
23566831
23566832
23566833
23566834
23566835
23566836
23566837
23566838
23566839
23566840
23566841
23566842
23566843
23566844
23566845
23566846
23566847
23566848
23566849
23566850
23566851
23566852
23566853
23566854
23566855
23566856
23566857
23566858
23566859
23566860
23566861
23566862
23566863
23566864
23566865
23566866
23566867
23566868
23566869
23566870
23566871
23566872
23566873
23566874
23566875
23566876
23566877
23566878
23566879
23566880
23566881
23566882
23566883
23566884
23566885
23566886
23566887
23566888
23566889
23566890
23566891
23566892
23566893
23566894
23566895
23566896
23566897
23566898
23566899
23566900
23566901
23566902
23566903
23566904
23566905
23566906
23566907
23566908
23566909
23566910
23566911
23566912
23566913
23566914
23566915
23566916
23566917
23566918
23566919
23566920
23566921
23566922
23566923
23566924
23566925
23566926
23566927
23566928
23566929
23566930
23566931
23566932
23566933
23566934
23566935
23566936
23566937
23566938
23566939
23566940
23566941
23566942
23566943
23566944
23566945
23566946
23566947
23566948
23566949
23566950
23566951
23566952
23566953
23566954
23566955
23566956
23566957
23566958
23566959
23566960
23566961
23566962
23566963
23566964
23566965
23566966
23566967
23566968
23566969
23566970
23566971
23566972
23566973
23566974
23566975
23566976
23566977
23566978
23566979
23566980
23566981
23566982
23566983
23566984
23566985
23566986
23566987
23566988
23566989
23566990
23566991
23566992
23566993
23566994
23566995
23566996
23566997
23566998
23566999
23567000
23567001
23567002
23567003
23567004
23567005
23567006
23567007
23567008
23567009
23567010
23567011
23567012
23567013
23567014
23567015
23567016
23567017
23567018
23567019
23567020
23567021
23567022
23567023
23567024
23567025
23567026
23567027
23567028
23567029
23567030
23567031
23567032
23567033
23567034
23567035
23567036
23567037
23567038
23567039
23567040
23567041
23567042
23567043
23567044
23567045
23567046
23567047
23567048
23567049
23567050
23567051
23567052
23567053
23567054
23567055
23567056
23567057
23567058
23567059
23567060
23567061
23567062
23567063
23567064
23567065
23567066
23567067
23567068
23567069
23567070
23567071
23567072
23567073
23567074
23567075
23567076
23567077
23567078
23567079
23567080
23567081
23567082
23567083
23567084
23567085
23567086
23567087
23567088
23567089
23567090
23567091
23567092
23567093
23567094
23567095
23567096
23567097
23567098
23567099
23567100
23567101
23567102
23567103
23567104
23567105
23567106
23567107
23567108
23567109
23567110
23567111
23567112
23567113
23567114
23567115
23567116
23567117
23567118
23567119
23567120
23567121
23567122
23567123
23567124
23567125
23567126
23567127
23567128
23567129
23567130
23567131
23567132
23567133
23567134
23567135
23567136
23567137
23567138
23567139
23567140
23567141
23567142
23567143
23567144
23567145
23567146
23567147
23567148
23567149
23567150
23567151
23567152
23567153
23567154
23567155
23567156
23567157
23567158
23567159
23567160
23567161
23567162
23567163
23567164
23567165
23567166
23567167
23567168
23567169
23567170
23567171
23567172
23567173
23567174
23567175
23567176
23567177
23567178
23567179
23567180
23567181
23567182
23567183
23567184
23567185
23567186
23567187
23567188
23567189
23567190
23567191
23567192
23567193
23567194
23567195
23567196
23567197
23567198
23567199
23567200
23567201
23567202
23567203
23567204
23567205
23567206
23567207
23567208
23567209
23567210
23567211
23567212
23567213
23567214
23567215
23567216
23567217
23567218
23567219
23567220
23567221
23567222
23567223
23567224
23567225
23567226
23567227
23567228
23567229
23567230
23567231
23567232
23567233
23567234
23567235
23567236
23567237
23567238
23567239
23567240
23567241
23567242
23567243
23567244
23567245
23567246
23567247
23567248
23567249
23567250
23567251
23567252
23567253
23567254
23567255
23567256
23567257
23567258
23567259
23567260
23567261
23567262
23567263
23567264
23567265
23567266
23567267
23567268
23567269
23567270
23567271
23567272
23567273
23567274
23567275
23567276
23567277
23567278
23567279
23567280
23567281
23567282
23567283
23567284
23567285
23567286
23567287
23567288
23567289
23567290
23567291
23567292
23567293
23567294
23567295
23567296
23567297
23567298
23567299
23567300
23567301
23567302
23567303
23567304
23567305
23567306
23567307
23567308
23567309
23567310
23567311
23567312
23567313
23567314
23567315
23567316
23567317
23567318
23567319
23567320
23567321
23567322
23567323
23567324
23567325
23567326
23567327
23567328
23567329
23567330
23567331
23567332
23567333
23567334
23567335
23567336
23567337
23567338
23567339
23567340
23567341
23567342
23567343
23567344
23567345
23567346
23567347
23567348
23567349
23567350
23567351
23567352
23567353
23567354
23567355
23567356
23567357
23567358
23567359
23567360
23567361
23567362
23567363
23567364
23567365
23567366
23567367
23567368
23567369
23567370
23567371
23567372
23567373
23567374
23567375
23567376
23567377
23567378
23567379
23567380
23567381
23567382
23567383
23567384
23567385
23567386
23567387
23567388
23567389
23567390
23567391
23567392
23567393
23567394
23567395
23567396
23567397
23567398
23567399
23567400
23567401
23567402
23567403
23567404
23567405
23567406
23567407
23567408
23567409
23567410
23567411
23567412
23567413
23567414
23567415
23567416
23567417
23567418
23567419
23567420
23567421
23567422
23567423
23567424
23567425
23567426
23567427
23567428
23567429
23567430
23567431
23567432
23567433
23567434
23567435
23567436
23567437
23567438
23567439
23567440
23567441
23567442
23567443
23567444
23567445
23567446
23567447
23567448
23567449
23567450
23567451
23567452
23567453
23567454
23567455
23567456
23567457
23567458
23567459
23567460
23567461
23567462
23567463
23567464
23567465
23567466
23567467
23567468
23567469
23567470
23567471
23567472
23567473
23567474
23567475
23567476
23567477
23567478
23567479
23567480
23567481
23567482
23567483
23567484
23567485
23567486
23567487
23567488
23567489
23567490
23567491
23567492
23567493
23567494
23567495
23567496
23567497
23567498
23567499
23567500
23567501
23567502
23567503
23567504
23567505
23567506
23567507
23567508
23567509
23567510
23567511
23567512
23567513
23567514
23567515
23567516
23567517
23567518
23567519
23567520
23567521
23567522
23567523
23567524
23567525
23567526
23567527
23567528
23567529
23567530
23567531
23567532
23567533
23567534
23567535
23567536
23567537
23567538
23567539
23567540
23567541
23567542
23567543
23567544
23567545
23567546
23567547
23567548
23567549
23567550
23567551
23567552
23567553
23567554
23567555
23567556
23567557
23567558
23567559
23567560
23567561
23567562
23567563
23567564
23567565
23567566
23567567
23567568
23567569
23567570
23567571
23567572
23567573
23567574
23567575
23567576
23567577
23567578
23567579
23567580
23567581
23567582
23567583
23567584
23567585
23567586
23567587
23567588
23567589
23567590
23567591
23567592
23567593
23567594
23567595
23567596
23567597
23567598
23567599
23567600
23567601
23567602
23567603
23567604
23567605
23567606
23567607
23567608
23567609
23567610
23567611
23567612
23567613
23567614
23567615
23567616
23567617
23567618
23567619
23567620
23567621
23567622
23567623
23567624
23567625
23567626
23567627
23567628
23567629
23567630
23567631
23567632
23567633
23567634
23567635
23567636
23567637
23567638
23567639
23567640
23567641
23567642
23567643
23567644
23567645
23567646
23567647
23567648
23567649
23567650
23567651
23567652
23567653
23567654
23567655
23567656
23567657
23567658
23567659
23567660
23567661
23567662
23567663
23567664
23567665
23567666
23567667
23567668
23567669
23567670
23567671
23567672
23567673
23567674
23567675
23567676
23567677
23567678
23567679
23567680
23567681
23567682
23567683
23567684
23567685
23567686
23567687
23567688
23567689
23567690
23567691
23567692
23567693
23567694
23567695
23567696
23567697
23567698
23567699
23567700
23567701
23567702
23567703
23567704
23567705
23567706
23567707
23567708
23567709
23567710
23567711
23567712
23567713
23567714
23567715
23567716
23567717
23567718
23567719
23567720
23567721
23567722
23567723
23567724
23567725
23567726
23567727
23567728
23567729
23567730
23567731
23567732
23567733
23567734
23567735
23567736
23567737
23567738
23567739
23567740
23567741
23567742
23567743
23567744
23567745
23567746
23567747
23567748
23567749
23567750
23567751
23567752
23567753
23567754
23567755
23567756
23567757
23567758
23567759
23567760
23567761
23567762
23567763
23567764
23567765
23567766
23567767
23567768
23567769
23567770
23567771
23567772
23567773
23567774
23567775
23567776
23567777
23567778
23567779
23567780
23567781
23567782
23567783
23567784
23567785
23567786
23567787
23567788
23567789
23567790
23567791
23567792
23567793
23567794
23567795
23567796
23567797
23567798
23567799
23567800
23567801
23567802
23567803
23567804
23567805
23567806
23567807
23567808
23567809
23567810
23567811
23567812
23567813
23567814
23567815
23567816
23567817
23567818
23567819
23567820
23567821
23567822
23567823
23567824
23567825
23567826
23567827
23567828
23567829
23567830
23567831
23567832
23567833
23567834
23567835
23567836
23567837
23567838
23567839
23567840
23567841
23567842
23567843
23567844
23567845
23567846
23567847
23567848
23567849
23567850
23567851
23567852
23567853
23567854
23567855
23567856
23567857
23567858
23567859
23567860
23567861
23567862
23567863
23567864
23567865
23567866
23567867
23567868
23567869
23567870
23567871
23567872
23567873
23567874
23567875
23567876
23567877
23567878
23567879
23567880
23567881
23567882
23567883
23567884
23567885
23567886
23567887
23567888
23567889
23567890
23567891
23567892
23567893
23567894
23567895
23567896
23567897
23567898
23567899
23567900
23567901
23567902
23567903
23567904
23567905
23567906
23567907
23567908
23567909
23567910
23567911
23567912
23567913
23567914
23567915
23567916
23567917
23567918
23567919
23567920
23567921
23567922
23567923
23567924
23567925
23567926
23567927
23567928
23567929
23567930
23567931
23567932
23567933
23567934
23567935
23567936
23567937
23567938
23567939
23567940
23567941
23567942
23567943
23567944
23567945
23567946
23567947
23567948
23567949
23567950
23567951
23567952
23567953
23567954
23567955
23567956
23567957
23567958
23567959
23567960
23567961
23567962
23567963
23567964
23567965
23567966
23567967
23567968
23567969
23567970
23567971
23567972
23567973
23567974
23567975
23567976
23567977
23567978
23567979
23567980
23567981
23567982
23567983
23567984
23567985
23567986
23567987
23567988
23567989
23567990
23567991
23567992
23567993
23567994
23567995
23567996
23567997
23567998
23567999
23568000
23568001
23568002
23568003
23568004
23568005
23568006
23568007
23568008
23568009
23568010
23568011
23568012
23568013
23568014
23568015
23568016
23568017
23568018
23568019
23568020
23568021
23568022
23568023
23568024
23568025
23568026
23568027
23568028
23568029
23568030
23568031
23568032
23568033
23568034
23568035
23568036
23568037
23568038
23568039
23568040
23568041
23568042
23568043
23568044
23568045
23568046
23568047
23568048
23568049
23568050
23568051
23568052
23568053
23568054
23568055
23568056
23568057
23568058
23568059
23568060
23568061
23568062
23568063
23568064
23568065
23568066
23568067
23568068
23568069
23568070
23568071
23568072
23568073
23568074
23568075
23568076
23568077
23568078
23568079
23568080
23568081
23568082
23568083
23568084
23568085
23568086
23568087
23568088
23568089
23568090
23568091
23568092
23568093
23568094
23568095
23568096
23568097
23568098
23568099
23568100
23568101
23568102
23568103
23568104
23568105
23568106
23568107
23568108
23568109
23568110
23568111
23568112
23568113
23568114
23568115
23568116
23568117
23568118
23568119
23568120
23568121
23568122
23568123
23568124
23568125
23568126
23568127
23568128
23568129
23568130
23568131
23568132
23568133
23568134
23568135
23568136
23568137
23568138
23568139
23568140
23568141
23568142
23568143
23568144
23568145
23568146
23568147
23568148
23568149
23568150
23568151
23568152
23568153
23568154
23568155
23568156
23568157
23568158
23568159
23568160
23568161
23568162
23568163
23568164
23568165
23568166
23568167
23568168
23568169
23568170
23568171
23568172
23568173
23568174
23568175
23568176
23568177
23568178
23568179
23568180
23568181
23568182
23568183
23568184
23568185
23568186
23568187
23568188
23568189
23568190
23568191
23568192
23568193
23568194
23568195
23568196
23568197
23568198
23568199
23568200
23568201
23568202
23568203
23568204
23568205
23568206
23568207
23568208
23568209
23568210
23568211
23568212
23568213
23568214
23568215
23568216
23568217
23568218
23568219
23568220
23568221
23568222
23568223
23568224
23568225
23568226
23568227
23568228
23568229
23568230
23568231
23568232
23568233
23568234
23568235
23568236
23568237
23568238
23568239
23568240
23568241
23568242
23568243
23568244
23568245
23568246
23568247
23568248
23568249
23568250
23568251
23568252
23568253
23568254
23568255
23568256
23568257
23568258
23568259
23568260
23568261
23568262
23568263
23568264
23568265
23568266
23568267
23568268
23568269
23568270
23568271
23568272
23568273
23568274
23568275
23568276
23568277
23568278
23568279
23568280
23568281
23568282
23568283
23568284
23568285
23568286
23568287
23568288
23568289
23568290
23568291
23568292
23568293
23568294
23568295
23568296
23568297
23568298
23568299
23568300
23568301
23568302
23568303
23568304
23568305
23568306
23568307
23568308
23568309
23568310
23568311
23568312
23568313
23568314
23568315
23568316
23568317
23568318
23568319
23568320
23568321
23568322
23568323
23568324
23568325
23568326
23568327
23568328
23568329
23568330
23568331
23568332
23568333
23568334
23568335
23568336
23568337
23568338
23568339
23568340
23568341
23568342
23568343
23568344
23568345
23568346
23568347
23568348
23568349
23568350
23568351
23568352
23568353
23568354
23568355
23568356
23568357
23568358
23568359
23568360
23568361
23568362
23568363
23568364
23568365
23568366
23568367
23568368
23568369
23568370
23568371
23568372
23568373
23568374
23568375
23568376
23568377
23568378
23568379
23568380
23568381
23568382
23568383
23568384
23568385
23568386
23568387
23568388
23568389
23568390
23568391
23568392
23568393
23568394
23568395
23568396
23568397
23568398
23568399
23568400
23568401
23568402
23568403
23568404
23568405
23568406
23568407
23568408
23568409
23568410
23568411
23568412
23568413
23568414
23568415
23568416
23568417
23568418
23568419
23568420
23568421
23568422
23568423
23568424
23568425
23568426
23568427
23568428
23568429
23568430
23568431
23568432
23568433
23568434
23568435
23568436
23568437
23568438
23568439
23568440
23568441
23568442
23568443
23568444
23568445
23568446
23568447
23568448
23568449
23568450
23568451
23568452
23568453
23568454
23568455
23568456
23568457
23568458
23568459
23568460
23568461
23568462
23568463
23568464
23568465
23568466
23568467
23568468
23568469
23568470
23568471
23568472
23568473
23568474
23568475
23568476
23568477
23568478
23568479
23568480
23568481
23568482
23568483
23568484
23568485
23568486
23568487
23568488
23568489
23568490
23568491
23568492
23568493
23568494
23568495
23568496
23568497
23568498
23568499
23568500
23568501
23568502
23568503
23568504
23568505
23568506
23568507
23568508
23568509
23568510
23568511
23568512
23568513
23568514
23568515
23568516
23568517
23568518
23568519
23568520
23568521
23568522
23568523
23568524
23568525
23568526
23568527
23568528
23568529
23568530
23568531
23568532
23568533
23568534
23568535
23568536
23568537
23568538
23568539
23568540
23568541
23568542
23568543
23568544
23568545
23568546
23568547
23568548
23568549
23568550
23568551
23568552
23568553
23568554
23568555
23568556
23568557
23568558
23568559
23568560
23568561
23568562
23568563
23568564
23568565
23568566
23568567
23568568
23568569
23568570
23568571
23568572
23568573
23568574
23568575
23568576
23568577
23568578
23568579
23568580
23568581
23568582
23568583
23568584
23568585
23568586
23568587
23568588
23568589
23568590
23568591
23568592
23568593
23568594
23568595
23568596
23568597
23568598
23568599
23568600
23568601
23568602
23568603
23568604
23568605
23568606
23568607
23568608
23568609
23568610
23568611
23568612
23568613
23568614
23568615
23568616
23568617
23568618
23568619
23568620
23568621
23568622
23568623
23568624
23568625
23568626
23568627
23568628
23568629
23568630
23568631
23568632
23568633
23568634
23568635
23568636
23568637
23568638
23568639
23568640
23568641
23568642
23568643
23568644
23568645
23568646
23568647
23568648
23568649
23568650
23568651
23568652
23568653
23568654
23568655
23568656
23568657
23568658
23568659
23568660
23568661
23568662
23568663
23568664
23568665
23568666
23568667
23568668
23568669
23568670
23568671
23568672
23568673
23568674
23568675
23568676
23568677
23568678
23568679
23568680
23568681
23568682
23568683
23568684
23568685
23568686
23568687
23568688
23568689
23568690
23568691
23568692
23568693
23568694
23568695
23568696
23568697
23568698
23568699
23568700
23568701
23568702
23568703
23568704
23568705
23568706
23568707
23568708
23568709
23568710
23568711
23568712
23568713
23568714
23568715
23568716
23568717
23568718
23568719
23568720
23568721
23568722
23568723
23568724
23568725
23568726
23568727
23568728
23568729
23568730
23568731
23568732
23568733
23568734
23568735
23568736
23568737
23568738
23568739
23568740
23568741
23568742
23568743
23568744
23568745
23568746
23568747
23568748
23568749
23568750
23568751
23568752
23568753
23568754
23568755
23568756
23568757
23568758
23568759
23568760
23568761
23568762
23568763
23568764
23568765
23568766
23568767
23568768
23568769
23568770
23568771
23568772
23568773
23568774
23568775
23568776
23568777
23568778
23568779
23568780
23568781
23568782
23568783
23568784
23568785
23568786
23568787
23568788
23568789
23568790
23568791
23568792
23568793
23568794
23568795
23568796
23568797
23568798
23568799
23568800
23568801
23568802
23568803
23568804
23568805
23568806
23568807
23568808
23568809
23568810
23568811
23568812
23568813
23568814
23568815
23568816
23568817
23568818
23568819
23568820
23568821
23568822
23568823
23568824
23568825
23568826
23568827
23568828
23568829
23568830
23568831
23568832
23568833
23568834
23568835
23568836
23568837
23568838
23568839
23568840
23568841
23568842
23568843
23568844
23568845
23568846
23568847
23568848
23568849
23568850
23568851
23568852
23568853
23568854
23568855
23568856
23568857
23568858
23568859
23568860
23568861
23568862
23568863
23568864
23568865
23568866
23568867
23568868
23568869
23568870
23568871
23568872
23568873
23568874
23568875
23568876
23568877
23568878
23568879
23568880
23568881
23568882
23568883
23568884
23568885
23568886
23568887
23568888
23568889
23568890
23568891
23568892
23568893
23568894
23568895
23568896
23568897
23568898
23568899
23568900
23568901
23568902
23568903
23568904
23568905
23568906
23568907
23568908
23568909
23568910
23568911
23568912
23568913
23568914
23568915
23568916
23568917
23568918
23568919
23568920
23568921