/*--------------------------------*- C++ -*----------------------------------*\
  =========                 |
  \\      /  F ield         | OpenFOAM: The Open Source CFD Toolbox
   \\    /   O peration     | Website:  https://openfoam.org
    \\  /    A nd           | Version:  7
     \\/     M anipulation  |
\*---------------------------------------------------------------------------*/
FoamFile
{
    version     2.0;
    format      ascii;
    class       volScalarField;
    location    "0.15/particle";
    object      iDof;
}
// * * * * * * * * * * * * * * * * * * * * * * * * * * * * * * * * * * * * * //

dimensions      [0 -3 0 0 0 0 0];

internalField   nonuniform List<scalar> 
800
(
4.14400000000003e+22
4.31199999999996e+22
4.27200000000004e+22
4.25600000000008e+22
4.088e+22
4.476e+22
4.496e+22
4.46e+22
4.088e+22
4.208e+22
4.436e+22
4.304e+22
4.308e+22
4.008e+22
4.444e+22
4.392e+22
4.308e+22
4.528e+22
4.272e+22
4.512e+22
4.476e+22
4.448e+22
4.28e+22
4.252e+22
4.392e+22
4.292e+22
4.224e+22
4.24e+22
4.104e+22
4.312e+22
4.312e+22
4.104e+22
4.644e+22
4.164e+22
4.22400000000011e+22
4.32e+22
4.32e+22
4.412e+22
4.332e+22
4.556e+22
4.44e+22
4.404e+22
4.424e+22
4.224e+22
4.38e+22
4.176e+22
4.344e+22
4.644e+22
4.408e+22
4.236e+22
4.424e+22
4.28e+22
4.136e+22
4.308e+22
4.38e+22
4.396e+22
4.256e+22
4.204e+22
4.572e+22
4.24e+22
4.18e+22
4.504e+22
4.272e+22
4.552e+22
4.128e+22
4.356e+22
4.392e+22
4.452e+22
4.3e+22
4.352e+22
4.364e+22
4.348e+22
4.592e+22
4.22e+22
4.304e+22
4.52e+22
4.448e+22
4.344e+22
4.196e+22
4.508e+22
4.336e+22
4.0880000000003e+22
4.15999999999992e+22
4.24800000000008e+22
4.57999999999991e+22
4.21600000000008e+22
4.25599999999992e+22
4.40800000000008e+22
4.26399999999992e+22
4.24400000000008e+22
4.18399999999992e+22
4.27200000000008e+22
4.37199999999992e+22
4.44400000000008e+22
4.27599999999992e+22
4.38400000000008e+22
4.59599999999991e+22
4.43600000000008e+22
4.16799999999992e+22
4.44800000000008e+22
4.18799999999992e+22
4.17600000000007e+22
4.34799999999992e+22
4.34000000000008e+22
4.41199999999991e+22
4.32800000000008e+22
4.24799999999992e+22
4.28800000000008e+22
4.29199999999992e+22
4.42000000000008e+22
4.13599999999992e+22
4.30800000000008e+22
4.40399999999992e+22
4.41600000000008e+22
4.24399999999992e+22
4.18000000000007e+22
4.07999999999992e+22
4.24800000000008e+22
4.24799999999992e+22
4.36800000000008e+22
4.15599999999992e+22
4.01200000000007e+22
4.28399999999992e+22
4.24800000000008e+22
4.19999999999992e+22
4.24400000000008e+22
4.03999999999992e+22
3.90000000000007e+22
4.06799999999992e+22
4.09600000000007e+22
4.04399999999992e+22
4.30400000000008e+22
4.07199999999992e+22
4.00000000000007e+22
3.94399999999992e+22
4.17200000000007e+22
4.05199999999992e+22
4.09200000000007e+22
3.73199999999993e+22
4.26400000000008e+22
3.79599999999993e+22
3.87600000000007e+22
3.96399999999992e+22
3.77200000000021e+22
3.896e+22
3.80400000000007e+22
3.86799999999993e+22
3.88e+22
3.672e+22
3.76800000000007e+22
3.77599999999993e+22
3.84e+22
3.792e+22
3.80800000000007e+22
3.61599999999993e+22
3.904e+22
3.776e+22
3.60800000000006e+22
3.67599999999993e+22
3.868e+22
3.612e+22
3.43200000000006e+22
3.64799999999993e+22
3.736e+22
3.428e+22
3.48800000000006e+22
3.46399999999993e+22
3.456e+22
3.544e+22
3.45600000000006e+22
3.67599999999993e+22
3.652e+22
3.36e+22
3.47200000000006e+22
3.48399999999993e+22
3.676e+22
3.364e+22
3.25600000000006e+22
3.16399999999994e+22
3.368e+22
3.148e+22
3.27200000000006e+22
3.04399999999994e+22
3.132e+22
3.116e+22
3.20000000000006e+22
3.21999999999994e+22
3.164e+22
3.224e+22
2.84400000000005e+22
3.11199999999994e+22
3.124e+22
2.92e+22
2.96000000000005e+22
2.96799999999994e+22
3.144e+22
2.868e+22
3.04800000000005e+22
3.06799999999994e+22
3.008e+22
2.76e+22
2.88800000000005e+22
2.93199999999994e+22
2.892e+22
2.904e+22
2.86000000000005e+22
2.92000000000016e+22
2.62799999999995e+22
2.79600000000005e+22
2.73199999999995e+22
2.84000000000005e+22
2.81199999999995e+22
2.76000000000005e+22
2.75599999999995e+22
2.70400000000005e+22
2.63999999999995e+22
2.69600000000005e+22
2.81199999999995e+22
2.79600000000005e+22
2.86799999999994e+22
2.55600000000005e+22
2.57599999999995e+22
2.75600000000005e+22
2.65599999999995e+22
2.54000000000005e+22
2.71199999999995e+22
2.52400000000005e+22
2.63999999999995e+22
2.52000000000004e+22
2.56399999999995e+22
2.64400000000005e+22
2.55599999999995e+22
2.52400000000005e+22
2.51599999999995e+22
2.55200000000005e+22
2.62799999999995e+22
2.50800000000004e+22
2.43999999999995e+22
2.54400000000005e+22
2.40799999999995e+22
2.27600000000004e+22
2.51199999999995e+22
2.36400000000004e+22
2.30799999999996e+22
2.19600000000004e+22
2.34399999999995e+22
2.28400000000004e+22
2.35199999999995e+22
2.35200000000004e+22
2.48799999999995e+22
2.45600000000004e+22
2.40799999999995e+22
2.22800000000004e+22
2.39199999999995e+22
2.16000000000004e+22
2.38399999999995e+22
2.35200000000004e+22
1.97599999999996e+22
2.27200000000004e+22
2.20799999999996e+22
2.32800000000004e+22
2.25999999999996e+22
2.14400000000004e+22
2.11599999999996e+22
2.21600000000004e+22
2.02399999999996e+22
2.00800000000004e+22
2.08399999999996e+22
1.99200000000011e+22
2.064e+22
2.05200000000004e+22
2.00399999999996e+22
2.204e+22
1.984e+22
2.15200000000004e+22
1.97599999999996e+22
2.004e+22
2.096e+22
1.92000000000003e+22
1.84799999999996e+22
2.1e+22
1.92e+22
1.97600000000004e+22
2.04399999999996e+22
1.992e+22
2.024e+22
2.04000000000004e+22
2.02399999999996e+22
2.004e+22
1.68e+22
1.99200000000004e+22
1.75199999999997e+22
1.856e+22
1.884e+22
1.85600000000003e+22
1.81199999999997e+22
1.888e+22
1.656e+22
1.98800000000004e+22
1.86399999999996e+22
1.96e+22
1.728e+22
1.78000000000006e+22
1.97999999999993e+22
1.868e+22
1.752e+22
1.81600000000007e+22
1.77999999999993e+22
1.74e+22
1.928e+22
1.81600000000007e+22
1.87199999999993e+22
1.748e+22
1.772e+22
1.81200000000007e+22
1.95199999999993e+22
1.8e+22
1.936e+22
1.90800000000007e+22
1.80799999999993e+22
1.952e+22
1.748e+22
1.78400000000006e+22
1.79599999999993e+22
1.744e+22
1.812e+22
1.81200000000007e+22
1.67999999999994e+22
1.74e+22
1.716e+22
1.76400000000006e+22
1.82399999999993e+22
1.84e+22
2.012e+22
1.98000000000007e+22
1.92399999999993e+22
2.056e+22
1.816e+22
1.73200000000006e+22
1.84799999999993e+22
1.764e+22
1.84e+22
1.92000000000007e+22
1.91199999999993e+22
1.892e+22
1.8e+22
1.66800000000006e+22
1.81599999999993e+22
1.912e+22
1.956e+22
1.91200000000007e+22
1.84799999999993e+22
1.824e+22
1.904e+22
1.77600000000006e+22
1.88799999999993e+22
1.896e+22
2e+22
1.90800000000007e+22
1.85599999999993e+22
1.748e+22
1.912e+22
1.8280000000002e+22
1.74000000000006e+22
1.89599999999993e+22
1.832e+22
1.832e+22
1.84400000000007e+22
1.63199999999994e+22
1.908e+22
1.808e+22
1.76800000000006e+22
1.84799999999993e+22
1.872e+22
1.704e+22
1.84800000000007e+22
1.84399999999993e+22
1.828e+22
1.72e+22
1.92800000000007e+22
1.90399999999993e+22
1.88e+22
1.864e+22
1.76000000000006e+22
1.79599999999993e+22
1.784e+22
1.896e+22
1.95600000000007e+22
1.94799999999993e+22
1.816e+22
1.696e+22
1.82800000000007e+22
1.82799999999993e+22
1.828e+22
1.78e+22
2.02000000000007e+22
1.69599999999994e+22
1.964e+22
1.58e+22
1.95200000000007e+22
2.03999999999992e+22
1.9e+22
1.636e+22
1.93200000000007e+22
1.71999999999994e+22
1.74e+22
1.704e+22
1.85200000000007e+22
1.83199999999993e+22
1.908e+22
1.828e+22
1.73600000000006e+22
1.65999999999994e+22
1.824e+22
1.76e+22
1.74000000000006e+22
1.76399999999993e+22
1.724e+22
1.84e+22
2.02800000000007e+22
1.86399999999993e+22
1.868e+22
1.784e+22
1.88400000000007e+22
1.99999999999992e+22
1.724e+22
1.764e+22
1.69200000000006e+22
1.81199999999993e+22
1.764e+22
1.76e+22
1.66000000000006e+22
1.64799999999994e+22
1.64e+22
1.6e+22
1.61600000000006e+22
1.61999999999994e+22
1.388e+22
1.524e+22
1.44800000000005e+22
1.49999999999994e+22
1.432e+22
1.304e+22
1.24400000000005e+22
1.35599999999995e+22
1.432e+22
1.236e+22
1.27600000000005e+22
1.21999999999995e+22
1.34e+22
1.108e+22
1.18800000000004e+22
1.15999999999996e+22
1.28e+22
1.176e+22
1.18000000000004e+22
1.14399999999996e+22
1.032e+22
1.184e+22
1.09600000000004e+22
1.15999999999996e+22
1.048e+22
1.104e+22
1.18800000000004e+22
1.08399999999996e+22
1.252e+22
1.136e+22
1.25600000000005e+22
1.21999999999995e+22
1.096e+22
1.02000000000004e+22
1.216e+22
1.13599999999996e+22
1.172e+22
1.148e+22
1.15200000000004e+22
1.17599999999996e+22
1.152e+22
1.21200000000004e+22
1.236e+22
1.08799999999996e+22
1.064e+22
1.272e+22
1.04800000000004e+22
1.14799999999996e+22
1.212e+22
1.14800000000004e+22
1.14400000000008e+22
1.13600000000004e+22
1.05999999999996e+22
1.22e+22
1.12800000000004e+22
1.088e+22
1.01999999999996e+22
1.096e+22
1.256e+22
1.13200000000004e+22
1.15599999999996e+22
1.092e+22
1.10800000000004e+22
1.096e+22
1.10399999999996e+22
1.068e+22
1.12e+22
1.07200000000004e+22
1.24399999999995e+22
1.152e+22
1.19600000000004e+22
1.092e+22
1.16399999999996e+22
1.092e+22
1.2e+22
1.11200000000004e+22
1.05199999999996e+22
1.12e+22
1.10000000000004e+22
1.212e+22
1.19999999999995e+22
1.012e+22
1.072e+22
1.08800000000004e+22
1.18799999999996e+22
1.072e+22
1.16800000000004e+22
1.252e+22
1.13199999999996e+22
1.24e+22
1.112e+22
1.25600000000005e+22
1.05999999999996e+22
1.192e+22
1.17200000000004e+22
9.95999999999999e+21
1.04399999999996e+22
1.204e+22
1.032e+22
1.06000000000004e+22
1.11999999999996e+22
1.132e+22
1.34400000000005e+22
1.076e+22
1.09199999999996e+22
1.092e+22
1.052e+22
1.08400000000004e+22
1.16799999999996e+22
1.152e+22
1.06000000000004e+22
1.184e+22
1.19199999999996e+22
1.128e+22
1.216e+22
1.07200000000004e+22
1.11199999999996e+22
1.124e+22
1.11200000000004e+22
1.112e+22
1.10399999999996e+22
1.208e+22
1.288e+22
1.15200000000004e+22
1.24399999999995e+22
8.87999999999999e+21
7.60000000000028e+21
6.71999999999999e+21
4.19999999999984e+21
6.19999999999999e+21
5.32e+21
5.4800000000002e+21
5.55999999999979e+21
5.91999999999999e+21
5.12000000000019e+21
5.6e+21
5.95999999999978e+21
5.44e+21
4.68e+21
5.36000000000019e+21
4.71999999999982e+21
5.64e+21
4.92000000000018e+21
5.79999999999999e+21
4.59999999999983e+21
5.72e+21
5.79999999999999e+21
5.4800000000002e+21
5.07999999999981e+21
5.48e+21
5.68000000000021e+21
5.76e+21
5.71999999999978e+21
5.56e+21
5.99999999999999e+21
5.12000000000019e+21
5.63999999999979e+21
4.88e+21
6.08000000000022e+21
4.92e+21
5.15999999999981e+21
4.88e+21
6.39999999999999e+21
5.12000000000019e+21
5.67999999999979e+21
4.88e+21
4.76000000000017e+21
5.6e+21
6.19999999999977e+21
5.52e+21
6.03999999999999e+21
5.08000000000018e+21
5.91999999999978e+21
5.36e+21
4.76000000000017e+21
4.60000000000034e+21
4.80000000000017e+21
4.95999999999981e+21
4.84e+21
4.60000000000017e+21
5.79999999999999e+21
5.59999999999979e+21
5.36e+21
5.64e+21
5.6000000000002e+21
6.27999999999976e+21
5.56e+21
4.64000000000017e+21
4.88e+21
4.91999999999981e+21
5.72e+21
5e+21
5.20000000000019e+21
4.87999999999982e+21
5.28e+21
5.12000000000019e+21
5.16e+21
5.79999999999978e+21
5.64e+21
4.68e+21
5.4000000000002e+21
6.35999999999976e+21
6.11999999999999e+21
6.36000000000023e+21
5.6e+21
5.1999999999998e+21
5.48e+21
5.79999999999999e+21
5.6400000000002e+21
5.1999999999998e+21
5.91999999999999e+21
5.6000000000002e+21
6.43999999999999e+21
5.2399999999998e+21
6.19999999999999e+21
5.48e+21
5.00000000000018e+21
5.95999999999978e+21
4.16e+21
5.68000000000021e+21
4.88e+21
5.07999999999981e+21
5.72e+21
5.04e+21
5.5200000000002e+21
5.3199999999998e+21
5.83999999999999e+21
5.08000000000018e+21
5.87999999999999e+21
5.15999999999981e+21
5.83999999999999e+21
6.15999999999999e+21
5.5200000000002e+21
5.55999999999979e+21
4.88e+21
5.88000000000021e+21
5.4e+21
5.2399999999998e+21
4.56e+21
4.88e+21
6.12000000000022e+21
6.27999999999976e+21
5.91999999999999e+21
5.12000000000019e+21
5.24e+21
5.03999999999981e+21
5.36e+21
5.79999999999999e+21
6.00000000000022e+21
5.55999999999979e+21
5.6e+21
5.24000000000019e+21
5.28e+21
5.2399999999998e+21
5.68e+21
5.91999999999999e+21
5.4000000000002e+21
5.79999999999978e+21
6.27999999999999e+21
5.80000000000021e+21
5.87999999999999e+21
4.63999999999982e+21
4.84e+21
5.08e+21
5.32000000000019e+21
6.07999999999977e+21
5.24e+21
5.5200000000002e+21
5.68e+21
6.11999999999977e+21
5.32e+21
5.16e+21
4.96000000000018e+21
5.55999999999979e+21
5.52e+21
6.00000000000022e+21
5.76e+21
5.2399999999998e+21
5.99999999999999e+21
5.6e+21
5.32000000000019e+21
5.3599999999998e+21
5.68e+21
5.16000000000019e+21
5.72e+21
5.55999999999979e+21
5.36e+21
5.6e+21
4.56000000000017e+21
5.11999999999981e+21
5.16e+21
3.96000000000014e+21
5.12e+21
4.87999999999982e+21
5.12e+21
4.56e+21
5.84000000000021e+21
4.83999999999982e+21
5.64e+21
4.88000000000018e+21
5.4400000000004e+21
5.08000000000018e+21
5.71999999999978e+21
5.56e+21
5.24000000000019e+21
4.88e+21
5.43999999999979e+21
4.96e+21
5.08e+21
5.5600000000002e+21
6.07999999999977e+21
5.4e+21
4.68000000000017e+21
5.68e+21
5.03999999999981e+21
5.36e+21
4.56e+21
5.04000000000018e+21
5.2799999999998e+21
5.6e+21
5.08000000000018e+21
5.16e+21
4.87999999999982e+21
4.6e+21
5.36e+21
6.48000000000023e+21
6.27999999999976e+21
5.12e+21
5.6400000000002e+21
6.07999999999999e+21
5.3599999999998e+21
5.44e+21
5.24e+21
5.4000000000002e+21
5.91999999999978e+21
5.48e+21
4.44000000000016e+21
5.44e+21
4.91999999999981e+21
5.32e+21
5.56e+21
6.04000000000022e+21
5.75999999999978e+21
5e+21
5.5600000000002e+21
5.48e+21
4.83999999999982e+21
5.6e+21
5.28e+21
5.12000000000019e+21
6.67999999999975e+21
5.48e+21
4.96000000000018e+21
5.52e+21
4.99999999999981e+21
5e+21
5.12e+21
4.56000000000017e+21
5.07999999999981e+21
5.44e+21
5.16000000000019e+21
5.4e+21
5.43999999999979e+21
)
;

boundaryField
{
    partSide
    {
        type            symmetry;
    }
    partBound
    {
        type            zeroGradient;
    }
    nullDims
    {
        type            empty;
    }
}


// ************************************************************************* //
