/*--------------------------------*- C++ -*----------------------------------*\
  =========                 |
  \\      /  F ield         | OpenFOAM: The Open Source CFD Toolbox
   \\    /   O peration     | Website:  https://openfoam.org
    \\  /    A nd           | Version:  7
     \\/     M anipulation  |
\*---------------------------------------------------------------------------*/
FoamFile
{
    version     2.0;
    format      ascii;
    class       volScalarField;
    location    "0.003";
    object      iDof;
}
// * * * * * * * * * * * * * * * * * * * * * * * * * * * * * * * * * * * * * //

dimensions      [0 -3 0 0 0 0 0];

internalField   nonuniform List<scalar> 
654
(
2.848971801e+19
2.177818641e+20
2.472033048e+20
1.108630369e+20
1.957832125e+20
1.411348652e+20
2.564074597e+20
2.867000299e+20
1.314374688e+20
1.060609081e+20
1.337347016e+20
8.094821746e+19
1.905591277e+20
3.021373672e+20
1.385787949e+20
2.517212732e+20
1.975888113e+20
5.697943602e+19
1.249960936e+20
1.26025451e+20
1.779006656e+20
1.537630572e+20
1.809049547e+20
5.212727859e+19
2.628749375e+20
2.916674947e+20
1.872285822e+20
8.094821746e+19
1.905591277e+20
8.240110088e+19
5.543151844e+19
2.517212732e+20
1.693618398e+20
1.994280261e+20
1.429878853e+20
1.921466194e+20
1.210414948e+20
1.952103983e+20
1.475844165e+20
2.727635134e+20
7.499765615e+19
2.016407233e+20
2.541438101e+19
2.851117991e-289
1.550613897e+20
2.085091126e+20
1.05149975e+20
1.590913621e+20
2.407224629e+20
1.888791741e+20
1.088909311e+20
8.240110161e+19
1.940103128e+20
8.390709032e+19
3.104967035e+20
1.994280261e+20
1.138383137e+20
1.605680649e+20
1.155575207e+20
1.397240953e+20
1.40795344e+20
2.128247171e+20
9.532525688e+19
1.681282932e+20
1.210414967e+20
9.760519991e+19
1.475844165e+20
1.239834162e+20
2.499921892e+20
2.52050902e+20
2.033150448e+20
2.050174062e+20
3.359663416e+20
3.38827308e+20
1.051499741e+20
2.651522657e+20
1.872285806e+20
2.158619132e+20
2.177818603e+20
1.648022003e+20
2.494418308e+20
1.118761214e+20
1.411348652e+20
2.848971775e+20
6.730170614e+19
2.259955002e+19
1.821412993e+20
1.376297689e+20
2.080035373e+20
2.328734905e+20
1.173294515e+20
4.729438086e+19
9.532525615e+19
2.642016016e+20
1.452497938e+20
1.952103968e+20
9.838960944e+19
2.231701456e+20
2.499921892e+20
2.268458155e+20
5.082876202e+19
1.28135881e+20
1.55061391e+20
1.824454766e+20
2.628749398e+20
1.325761351e+20
2.674694032e+20
1.349136969e+20
1.08890932e+20
1.922692371e+20
1.940103145e+20
5.593806071e+19
1.693618383e+20
1.994280261e+20
1.346034123e+20
1.807964015e+20
1.82141302e+20
2.523212449e+20
1.155575207e+20
1.397240943e+20
2.346589049e+19
1.182359539e+20
3.336383991e+20
1.441099645e+20
2.420829896e+20
1.464077987e+20
2.459740275e+20
1.735767813e+20
9.999687487e+19
1.008203608e+20
2.033150464e+20
2.56271762e+20
3.359663444e+20
2.606363908e+20
1.577249612e+20
3.181827215e+20
1.872285822e+20
1.349136958e+20
1.633363952e+20
1.648022018e+20
3.325891106e+20
1.398451518e+20
3.66950653e+20
2.848971801e+20
8.973560883e+19
1.355973011e+20
1.138383129e+20
1.376297699e+20
1.848920332e+20
2.09586143e+20
9.386356194e+19
1.18235953e+20
7.149394266e+19
7.205498226e+19
2.178746923e+20
9.760519991e+19
2.213766247e+20
1.735767813e+20
1.74994531e+20
1.764356329e+20
2.795581911e+20
1.537630572e+20
1.033742598e+20
2.345727517e+20
2.628749375e+20
1.060609081e+20
1.604816419e+20
1.079309566e+20
1.633363966e+20
1.648022018e+20
1.385787949e+20
1.957832125e+20
1.411348652e+20
2.564074621e+20
1.346034123e+20
1.355973011e+20
2.73211953e+20
2.293829499e+20
1.155575207e+20
9.314939619e+19
2.581247953e+20
2.837662895e+20
1.668191995e+20
1.681282932e+20
2.178746923e+20
2.928155952e+20
1.967792204e+20
2.727635134e+20
1.999937513e+20
2.016407233e+20
5.08287612e+19
1.537630559e+20
3.359663444e+20
1.563818358e+20
1.314374699e+20
7.954568038e+19
3.209632811e+20
1.618964349e+20
1.361136627e+20
2.472033026e+20
3.325891106e+20
2.517212732e+20
8.468091915e+19
3.133868952e+20
1.121695102e+20
6.779865006e+19
2.049089618e+20
4.587658964e+19
1.386690259e+20
9.314939758e+19
1.877271253e+20
2.128247171e+20
1.906505138e+20
3.842932387e+20
2.420829915e+20
2.440129998e+20
2.459740275e+20
1.487800982e+20
4.999843743e+19
2.016407233e+20
1.270719051e+20
1.28135881e+20
2.325920846e+20
2.606363908e+20
1.840124547e+20
2.651522679e+20
1.872285822e+20
1.618964349e+20
1.633363952e+20
1.922692337e+20
1.108630349e+20
1.678141806e+20
1.693618383e+20
8.546915403e+19
2.243390221e+20
1.129977517e+20
2.276766275e+20
1.605680637e+20
2.311150398e+20
1.862987924e+20
1.642612322e+20
2.128247139e+20
2.383131404e+20
1.200916371e+20
9.683319584e+19
2.684142956e+20
2.21376623e+20
1.239834152e+20
1.249960936e+20
2.268458118e+20
1.779006656e+20
2.818989382e+20
1.550613897e+20
2.345727517e+20
1.577249625e+20
2.121218161e+20
8.024082096e+19
2.968101307e+20
2.722273277e+20
8.240110161e+19
3.880206291e+20
2.237522429e+20
1.411348665e+20
1.994280261e+20
1.794712177e+20
9.039820073e+19
1.593736392e+20
1.146914749e+20
2.080035373e+20
6.986204714e+19
1.642612334e+20
2.364719079e+20
1.668191995e+20
2.161649468e+20
2.178746923e+20
1.952103998e+20
1.475844165e+20
1.983734643e+20
7.499765675e+19
1.764356343e+20
1.524862848e+20
2.818989359e+20
2.842792145e+20
2.085091144e+20
2.1029995e+20
1.590913608e+20
2.407224629e+20
1.349136969e+20
5.444546554e+19
2.472033026e+20
2.49441833e+20
1.957832142e+20
2.258157864e+20
1.13958871e+20
2.019051184e+20
2.711946002e+20
1.593736381e+20
2.523212449e+20
9.24460166e+19
1.630114445e+20
1.407953429e+20
1.891775249e+20
2.14481828e+20
1.921466194e+20
1.936663917e+20
4.880259958e+19
1.967792204e+20
1.983734627e+20
1.249960936e+20
1.764356314e+20
7.624314242e+19
1.025087048e+20
1.55061391e+20
2.60636393e+20
1.314374688e+20
2.386370432e+20
2.407224629e+20
2.158619132e+20
1.633363966e+20
8.240110088e+19
1.662945538e+20
1.118761214e+20
2.540427574e+20
1.709383081e+20
8.973560883e+19
1.129977517e+20
1.366059755e+20
1.605680637e+20
1.61780529e+20
1.397240943e+20
1.407953429e+20
7.094157237e+19
2.383131422e+20
1.681282932e+20
1.45249796e+20
2.196116981e+20
2.21376623e+20
9.918673216e+19
1.249960936e+20
1.26025452e+20
1.270719051e+20
1.793902334e+20
7.753069486e+19
2.867000323e+20
1.840124563e+20
1.325761328e+20
8.024082027e+19
1.618964349e+20
1.088909301e+20
3.845384708e+20
1.940103145e+20
1.398451518e+20
1.975888113e+20
1.709383065e+20
1.794712164e+20
9.039820007e+19
2.959796136e+20
1.605680649e+20
1.61780529e+20
2.328734922e+20
1.642612346e+20
1.418831447e+20
1.668191995e+20
2.161649468e+20
1.452497938e+20
1.708090985e+20
1.721818192e+20
1.487800982e+20
2.749914059e+20
1.764356314e+20
1.27071904e+20
1.025087048e+20
1.809049547e+20
1.042545563e+20
2.1029995e+20
3.446979512e+20
1.337347016e+20
3.237928699e+20
1.905591277e+20
1.098681335e+20
2.217260718e+20
1.678141821e+20
3.387236796e+20
1.139588731e+20
2.467729225e+20
1.581968513e+20
2.504442902e+20
1.605680649e+20
1.155575216e+20
1.630114445e+20
1.642612322e+20
2.128247155e+20
3.098070848e+20
1.921466194e+20
1.452497938e+20
1.464077987e+20
4.919480549e+19
1.487800982e+20
3.749882838e+20
2.268458155e+20
2.033150464e+20
2.306445839e+20
7.753069486e+19
1.563818345e+20
7.886248126e+19
5.303045403e+19
1.337347016e+20
1.349136958e+20
1.905591294e+20
1.648022032e+20
8.314727692e+19
1.678141806e+20
1.975888113e+20
1.994280242e+20
2.019051199e+20
1.807964015e+20
2.276766258e+20
1.605680649e+20
2.311150415e+20
1.630114433e+20
7.039767146e+19
2.601190967e+20
2.383131404e+20
1.200916371e+20
1.452497949e+20
1.464077987e+20
1.967792204e+20
1.735767813e+20
1.499953123e+20
1.008203608e+20
2.287294272e+20
1.28135881e+20
2.584356495e+20
2.085091144e+20
2.1029995e+20
3.181827215e+20
3.209632838e+20
8.094821816e+19
1.361136639e+20
2.472033026e+20
2.217260738e+20
2.237522429e+20
1.975888113e+20
1.13958872e+20
2.243390205e+20
2.48595052e+20
1.821413007e+20
1.835063586e+20
4.62230083e+19
6.986204766e+19
1.642612334e+20
1.891775249e+20
1.906505138e+20
2.642016037e+20
9.683319659e+19
1.464077987e+20
7.379220824e+19
2.975601988e+20
1.999937513e+20
1.512305424e+20
2.287294291e+20
3.075261119e+20
2.325920827e+20
1.563818345e+20
7.886248126e+19
1.856065875e+20
1.872285806e+20
1.079309566e+20
1.905591294e+20
1.098681345e+20
8.314727692e+19
1.957832125e+20
1.411348652e+20
8.546915325e+19
2.916407266e+20
1.807964001e+20
1.593736381e+20
1.835063599e+20
2.542265456e+20
2.328734905e+20
1.407953429e+20
2.601190987e+20
1.906505138e+20
2.161649468e+20
9.683319659e+19
1.952103998e+20
2.459740275e+20
9.918673216e+19
1.999937513e+20
1.764356329e+20
1.524862836e+20
1.02508704e+20
1.550613897e+20
1.563818345e+20
2.365874418e+20
1.856065875e+20
1.337347016e+20
5.396547831e+19
1.088909301e+20
1.648022018e+20
8.314727766e+19
2.237522429e+20
1.693618398e+20
8.546915481e+19
2.243390237e+20
1.355973021e+20
2.276766275e+20
1.835063599e+20
2.311150415e+20
1.862987924e+20
1.642612334e+20
1.418831447e+20
1.429878853e+20
9.607330968e+19
1.694580927e+20
1.464077976e+20
2.705714281e+20
2.727635134e+20
7.499765615e+19
1.008203616e+20
2.287294291e+20
2.818989382e+20
1.550613897e+20
1.563818358e+20
2.102999518e+20
1.325761351e+20
1.069877613e+20
2.968101307e+20
3.266727904e+20
1.648022018e+20
2.49441833e+20
1.957832125e+20
2.540427574e+20
1.709383065e+20
1.121695102e+20
2.485950502e+20
1.821413007e+20
1.376297699e+20
1.155575207e+20
1.164367461e+20
1.173294524e+20
2.128247155e+20
2.383131422e+20
9.607330968e+19
1.69458094e+20
2.684142998e+20
1.721818179e+20
1.487800971e+20
7.499765615e+19
1.512305412e+20
1.016575232e+20
1.793902334e+20
2.067485213e+20
1.563818358e+20
1.314374677e+20
1.590913608e+20
8.024082096e+19
1.349136958e+20
2.177818622e+20
1.922692354e+20
1.940103128e+20
1.957832125e+20
1.693618383e+20
1.709383081e+20
1.346034123e+20
1.807964015e+20
2.049089632e+20
2.52321243e+20
1.848920346e+20
2.561608414e+20
1.173294524e+20
1.418831437e+20
1.668191983e+20
9.607331042e+19
3.147078889e+20
1.220064989e+20
2.459740275e+20
1.983734643e+20
1.74994531e+20
2.268458137e+20
1.01657524e+20
3.331532906e+20
1.550613897e+20
1.824454736e+20
3.680249126e+20
1.32576134e+20
1.604816405e+20
1.349136969e+20
2.450045949e+20
2.472033026e+20
3.880206256e+20
2.237522409e+20
1.129078922e+20
8.546915325e+19
1.794712177e+20
2.033959516e+20
1.821413007e+20
1.835063599e+20
9.24460166e+19
1.862987938e+20
1.407953429e+20
1.18235953e+20
9.532525688e+19
1.921466194e+20
9.683319659e+19
1.464077987e+20
3.689610383e+20
1.735767813e+20
1.499953135e+20
2.772559945e+20
2.287294254e+20
2.050174079e+20
1.292178248e+20
1.824454751e+20
3.154499251e+20
2.121218143e+20
1.604816419e+20
2.158619132e+20
8.166819831e+19
2.746703363e+20
2.494418308e+20
2.517212732e+20
2.258157864e+20
1.994280279e+20
3.140746287e+20
2.937941524e+20
2.276766275e+20
1.605680649e+20
1.848920332e+20
1.862987924e+20
2.111930144e+20
1.182359539e+20
2.859757706e+20
1.200916371e+20
1.694580927e+20
2.440129979e+20
1.721818192e+20
2.231701474e+20
1.249960936e+20
2.520509041e+20
1.01657524e+20
2.306445858e+20
2.842792145e+20
1.824454736e+20
2.365874438e+20
2.121218161e+20
1.872285822e+20
2.158619132e+20
1.361136627e+20
2.472033026e+20
1.662945553e+20
1.118761214e+20
3.951776227e+20
1.424485887e+20
)
;

boundaryField
{
    flow
    {
        type            zeroGradient;
    }
    obstacle
    {
        type            calculated;
        value           nonuniform 0();
    }
    frontAndBack
    {
        type            empty;
    }
    procBoundary3to1
    {
        type            processor;
        value           nonuniform List<scalar> 
36
(
2.279177441e+20
1.633363952e+20
1.098681335e+20
1.662945538e+20
1.398451518e+20
1.693618383e+20
1.693618383e+20
2.085091126e+20
2.102999483e+20
7.95456797e+19
1.337347005e+20
5.396547877e+19
5.396547877e+19
9.999687567e+19
2.016407249e+20
1.016575232e+20
1.537630559e+20
1.033742598e+20
1.033742598e+20
4.766262844e+19
1.200916371e+20
2.178746923e+20
2.440129979e+20
3.689610383e+20
1.239834152e+20
1.239834152e+20
1.593736381e+20
1.376297699e+20
1.617805302e+20
4.657469844e+19
1.407953429e+20
9.458876315e+19
9.458876315e+19
1.346034132e+20
1.129977517e+20
1.129977517e+20
)
;
    }
    procBoundary3to2
    {
        type            processor;
        value           nonuniform List<scalar> 
19
(
1.55894653e+20
1.336239882e+20
1.781653177e+20
2.227066455e+20
1.113533235e+20
2.004359824e+20
2.895186433e+20
1.55894653e+20
2.004359824e+20
1.781653177e+20
1.55894653e+20
2.672479765e+20
1.781653177e+20
2.672479746e+20
2.004359838e+20
1.781653177e+20
1.781653177e+20
1.113533235e+20
2.227066471e+20
)
;
    }
}


// ************************************************************************* //
