/*--------------------------------*- C++ -*----------------------------------*\
  =========                 |
  \\      /  F ield         | OpenFOAM: The Open Source CFD Toolbox
   \\    /   O peration     | Website:  https://openfoam.org
    \\  /    A nd           | Version:  7
     \\/     M anipulation  |
\*---------------------------------------------------------------------------*/
FoamFile
{
    version     2.0;
    format      ascii;
    class       volScalarField;
    location    "0.003";
    object      overallT;
}
// * * * * * * * * * * * * * * * * * * * * * * * * * * * * * * * * * * * * * //

dimensions      [1 2 -2 0 0 0 0];

internalField   nonuniform List<scalar> 
654
(
578.2985834
603.5844824
593.2127178
574.9172595
581.7454436
563.4720951
542.4379695
596.5110949
602.4151812
617.5946341
596.2356952
630.7280413
586.4857372
581.0009356
581.8472578
580.2404103
598.4105665
571.7757135
603.0838002
625.1229786
590.0910023
596.0238238
595.729339
594.3533845
611.6591304
592.2337326
619.4288752
608.9905027
612.2601612
584.6088311
603.8570828
589.1584102
585.5979178
550.4872825
593.7633466
577.6615104
583.9547399
572.902624
581.095613
588.7889396
577.9295242
611.9814051
593.331855
617.8237278
607.7944535
595.7842305
583.5866789
593.1505516
598.8798695
576.3176226
595.6804504
584.3241956
568.7788371
572.4242921
574.2771734
560.2021886
541.1588206
548.059009
565.1476859
567.1646829
561.3473059
553.1189794
605.9621084
573.4517559
570.6208458
602.1597737
614.2909121
581.2313185
584.962046
592.7393741
609.6004729
629.8847181
594.266209
608.1620755
597.0904886
599.4838349
590.9785394
590.7432446
596.9231516
581.5075835
582.7317862
563.108157
551.4786657
550.2168651
550.3325989
548.6435063
564.4433958
561.7485624
562.5303601
565.8944583
562.4432578
583.379239
595.7735844
594.5035243
604.6440208
601.993012
628.6753511
594.66101
582.0859074
590.8909529
602.487995
595.8045261
590.0240209
580.2703103
601.2255651
590.5468956
595.6135957
571.8921331
565.1682955
567.7995658
559.892972
531.662593
534.3512394
521.3817429
540.7600968
535.6108559
546.3198083
558.0161709
555.4819692
568.0238392
564.6523387
572.3513031
560.9132987
567.9521401
569.8994888
599.889741
574.8393437
598.5469076
588.6245183
572.0733647
589.9001529
591.3670271
605.2416301
590.3013554
584.9616014
567.8524538
568.1009433
544.5013286
560.5043161
564.7194923
571.6084205
568.5473437
558.6909647
564.5211712
507.911364
526.2304085
523.0130982
544.6945317
536.5839945
545.4811633
534.3791947
563.803243
565.3799357
595.0496313
568.5281405
574.0049329
552.9107488
565.9047128
583.140322
574.4498316
585.6935441
565.4877399
596.132335
604.6644187
607.6597056
621.4396348
608.0949015
583.5764842
581.8663591
575.8322125
594.3632524
561.8184705
572.8359526
563.9043105
532.1461341
519.6099875
531.3345194
530.4648147
523.5290648
537.2143234
542.9759886
536.7088726
562.5881683
576.8163632
563.6550215
557.5567264
552.1738983
546.4174463
553.8645255
556.0504849
591.0038753
599.420634
569.0484219
582.9602259
579.5401096
572.6549887
586.7023442
578.1335577
584.3319273
556.0999243
546.1474412
542.8938624
552.728967
536.8933086
516.5713069
510.3223462
515.7652494
519.760827
507.9596441
530.9696804
517.7776805
557.349032
552.9968363
559.2563468
579.1609144
538.0808921
553.2149107
555.7563816
541.965205
564.0816155
572.6983504
574.364753
570.8815865
551.6770499
556.901032
559.3224787
566.4725267
564.4672187
550.0676556
548.1497365
562.9989135
553.7506663
541.9166157
522.0186484
482.2977525
504.093451
516.1558169
539.4760404
535.8806036
523.1446253
506.3494419
552.5301511
543.1309913
536.7462299
536.0337399
534.9870065
532.9102322
537.1210702
535.5633275
563.0152638
569.8616556
594.9784929
560.0500042
558.4077773
586.2383435
571.3020209
572.7512421
573.1890694
559.8306488
556.7297722
550.8910927
535.486394
519.824611
516.3355565
500.2185363
520.7092139
517.9189082
536.124075
513.9967628
507.239535
516.8238505
535.2639923
520.2268874
527.1643448
536.4389626
537.3540579
564.5031501
543.8437445
529.6586501
551.8383441
562.261143
567.50209
561.7548092
559.6193202
572.5309309
559.5295129
577.479756
556.8407083
552.0458671
541.6449321
517.3143403
511.9448382
523.8319135
522.5556387
496.4553959
516.8061062
514.2317302
508.8877412
535.4507796
513.4782279
515.9873139
506.5465307
523.3223834
549.6591575
542.4880703
550.956213
552.6120204
542.1687043
563.9393048
570.0929715
561.7599531
552.3546895
562.1066082
560.1917275
574.0583386
565.6044867
545.186268
543.8720255
573.0513585
533.1546854
516.3927822
533.695837
535.7654593
540.4806242
498.6625877
492.3653084
505.6239122
502.196626
519.6663973
509.0032551
508.8335187
506.7412856
518.8741943
523.6115166
527.6176696
536.4861269
523.3319229
519.2031982
545.8667677
555.5749984
560.2471984
544.1925537
541.9066333
557.0514232
535.7536861
511.2853861
516.0984744
526.8092568
550.7955191
542.4526192
525.0101469
513.6910936
530.1538487
515.8300904
498.3635707
501.9181236
500.257913
497.2947776
513.7724449
497.5433741
506.1112739
493.9568511
509.5153035
522.38544
538.0413893
529.4610885
539.0089089
534.9376641
532.079507
554.2662666
540.9837426
533.9025273
556.0735608
559.4389838
556.59796
526.3762872
518.9760785
528.4738965
551.4877169
531.9026718
514.2180828
522.7574999
520.0644231
525.8328652
469.6129151
482.0070615
477.0525452
477.4951831
485.5172695
483.8452841
497.115829
492.7755571
497.9486048
518.7390414
522.2497615
523.1677694
528.4945516
545.8462429
524.0596758
526.1199651
512.9405638
523.0026682
541.0407357
542.2222613
533.5975863
510.9435239
516.3752937
534.6597428
533.4283959
547.5079191
524.55022
502.2804613
519.8947198
507.6737431
469.860526
461.787359
471.6167293
471.123383
498.902804
494.0758111
496.0834973
487.2478587
502.6664356
506.9401036
511.3941856
515.6734072
517.4512066
522.232193
535.1435737
507.2808596
515.1388984
517.4748588
527.8773621
518.000838
515.8353545
521.6050762
512.9845886
521.9130453
523.6009893
507.6996501
514.7280701
500.9341676
490.0880931
498.4248448
458.175621
455.8943797
496.2310532
478.2695958
488.3394873
491.2383319
486.4853467
469.1818194
485.5507419
487.6417565
496.1096845
494.9754579
508.5214475
512.549245
496.4526419
516.8699511
503.0728282
513.3370418
514.1766505
523.173412
522.0249729
539.5352011
526.3672817
523.7568679
512.7931771
503.349139
504.5113751
487.7471156
479.8822276
481.478558
448.8216717
437.5147692
459.396731
472.5398723
468.0795228
481.3990938
485.8063832
477.4043671
491.7112088
495.9267526
490.8604347
500.9873721
483.6238021
480.5973033
507.5796569
510.053347
509.881999
515.7303891
508.2674114
492.9933343
501.170593
513.6517669
511.118456
499.8628836
484.0168499
483.7738698
489.4376875
483.7161978
493.3806169
474.1166537
443.3711891
448.9756226
467.9053524
461.6549597
459.3950149
473.2232643
458.3649476
454.9335424
478.1819292
477.7053177
463.0069447
484.418018
478.2488451
472.4544799
479.6664374
491.1585812
476.3912675
494.8356729
490.7494495
490.2556517
470.623728
476.2542162
468.5195496
476.0190867
486.7706749
503.6399787
489.1423711
482.1636877
475.7926549
457.2110951
424.1301168
443.6770292
455.7275948
434.8222548
452.6673946
451.5706595
441.7043889
453.07741
470.1894525
473.0209714
464.2835743
469.8596368
463.0369228
471.7559603
475.0556685
480.1468051
472.8333665
479.5639907
460.768831
458.8245897
456.5726464
488.1363986
480.3245382
467.6939914
476.4862463
464.0040103
453.9318117
460.2659698
461.1379969
449.78726
414.0071997
404.619289
422.1477345
429.0997522
428.5828366
424.0196852
436.0467063
430.1659747
438.5494527
449.7149893
421.0418635
438.9870422
453.9079825
452.4924
443.2624475
437.724452
436.5996926
437.6347137
443.6124555
430.1309604
436.9537261
444.1305993
443.0917837
445.9436101
443.954556
438.2156875
457.1487397
451.7703798
446.1143297
451.9665666
401.6517379
391.157397
397.7390123
419.9515019
422.8132627
409.4464564
403.9948664
405.8277383
412.5201814
406.9882422
413.4617657
410.7686356
429.5253032
418.5966831
422.4442367
433.8684779
433.8541145
411.4418136
424.8166369
416.4546119
407.7225136
411.3170219
409.8890015
426.1423789
417.2626101
416.7080326
426.1143166
429.317897
423.3505767
404.7860651
365.511579
358.8037405
375.1421518
381.6690004
378.1461246
375.7822911
366.3983993
375.9790822
382.4840491
376.4423867
388.0953311
381.0233187
379.6572413
384.1319589
380.7322868
382.0603753
392.4335339
384.8773572
386.2496156
382.7550919
389.5961389
391.3926687
384.2536838
380.9058901
397.5478054
383.4603525
375.5911616
370.5869983
366.6648218
378.008569
)
;

boundaryField
{
    flow
    {
        type            calculated;
        value           nonuniform List<scalar> 
55
(
578.2985834
542.4379695
571.7757135
550.4872825
560.2021886
550.2168651
521.3817429
564.5211712
563.9043105
536.8933086
522.0186484
516.3355565
522.5556387
540.4806242
515.8300904
525.8328652
507.6737431
498.4248448
481.478558
474.1166537
457.2110951
449.78726
451.9665666
404.7860651
378.008569
365.511579
358.8037405
375.1421518
381.6690004
378.1461246
375.7822911
366.3983993
375.9790822
382.4840491
376.4423867
388.0953311
381.0233187
379.6572413
384.1319589
380.7322868
382.0603753
392.4335339
384.8773572
386.2496156
382.7550919
389.5961389
391.3926687
384.2536838
380.9058901
397.5478054
383.4603525
375.5911616
370.5869983
366.6648218
378.008569
)
;
    }
    obstacle
    {
        type            calculated;
        value           nonuniform 0();
    }
    frontAndBack
    {
        type            empty;
    }
    procBoundary3to1
    {
        type            processor;
        value           nonuniform List<scalar> 
36
(
581.8389911
631.9322711
615.6612681
611.8343858
598.1068426
583.8666557
583.8666557
640.4767496
628.6201862
624.0755048
609.6255896
620.0209161
620.0209161
633.3043983
623.1445569
607.7625565
610.6650332
619.4853017
619.4853017
597.0864274
584.8591364
591.6730346
605.0018032
631.9534893
605.8860386
605.8860386
549.294547
564.3478533
571.4208532
580.2698662
571.7343272
584.2392576
584.2392576
527.4510735
550.0449044
550.0449044
)
;
    }
    procBoundary3to2
    {
        type            processor;
        value           nonuniform List<scalar> 
19
(
530.323206
518.5141456
501.7256877
520.9974419
497.3890305
497.0664971
500.9894652
468.2242387
486.552281
475.0248602
491.0779943
463.8917845
447.4106779
443.8288575
450.8502114
431.086478
424.5533235
381.124168
373.5020709
)
;
    }
}


// ************************************************************************* //
