/*--------------------------------*- C++ -*----------------------------------*\
  =========                 |
  \\      /  F ield         | OpenFOAM: The Open Source CFD Toolbox
   \\    /   O peration     | Website:  https://openfoam.org
    \\  /    A nd           | Version:  7
     \\/     M anipulation  |
\*---------------------------------------------------------------------------*/
FoamFile
{
    version     2.0;
    format      ascii;
    class       volScalarField;
    location    "0.003";
    object      p;
}
// * * * * * * * * * * * * * * * * * * * * * * * * * * * * * * * * * * * * * //

dimensions      [1 -1 -2 0 0 0 0];

internalField   nonuniform List<scalar> 
654
(
0.9550299008
0.82832757
0.8157880504
0.7799818496
0.8438216038
0.8897771955
0.8785645208
0.7143134542
0.7087356554
0.7395385062
0.7511322884
0.7537192615
0.7944986743
0.819638144
0.7933763873
0.83216921
0.8605842338
0.9372635691
0.6737459112
0.6863480825
0.6937309466
0.6859034118
0.729082305
0.7444564369
0.7459245541
0.7743397464
0.7959705949
0.791479032
0.8146269645
0.8067070669
0.8488842037
0.8775499264
0.8713042843
0.9231097746
0.6322918193
0.6354845644
0.6421994811
0.6371143974
0.6343791875
0.6468255815
0.6616527596
0.666546955
0.6701747472
0.7039007659
0.7136055938
0.7195462412
0.728539407
0.7132236073
0.758486154
0.7862144391
0.7811044346
0.7906744546
0.783158137
0.8167692682
0.8396874819
0.9091883283
0.5701363446
0.5862461228
0.6058711684
0.6148552255
0.6124501012
0.6058435324
0.6171258101
0.6114664421
0.6231099325
0.6496813902
0.6340359107
0.656142778
0.6914819068
0.6587244762
0.675355957
0.702713354
0.6951662735
0.6927862394
0.7173727211
0.754894312
0.736582406
0.7756388538
0.7740536533
0.7825386534
0.813790003
0.8762465024
0.8502751011
0.852246914
0.5788557815
0.5772548044
0.5948945113
0.5808760708
0.5660023767
0.6005633444
0.6005820468
0.6010045337
0.6205224411
0.6260148257
0.6579870037
0.6640960515
0.6535534416
0.62463007
0.6728719295
0.685920142
0.6659459811
0.6754393001
0.6811036138
0.6965444961
0.7270613093
0.7524691551
0.7367990336
0.7445298254
0.7828697205
0.7806314377
0.7790557265
0.7884569894
0.7883482042
0.8459326831
0.5608655251
0.5951706611
0.5824007444
0.5763306532
0.5724896533
0.5900703342
0.5908277081
0.5941694247
0.5835951904
0.6041317036
0.6186347754
0.6132884045
0.6229351142
0.6772630049
0.6498073027
0.6834259707
0.6693008655
0.7083506034
0.7041782335
0.6976757792
0.7226768701
0.7343128256
0.7515455889
0.7639733161
0.7863678696
0.7758338201
0.8001052239
0.808415826
0.8129517069
0.8938983675
0.5514249663
0.5810590077
0.5737538319
0.5844817226
0.5855515562
0.5981957897
0.5938167528
0.6076256914
0.6032846143
0.6261880085
0.6288575949
0.6494151152
0.6463319373
0.6812321873
0.6836818111
0.6804882364
0.660112414
0.67274004
0.7234397172
0.7449002384
0.7863812963
0.788598754
0.8130387674
0.77666815
0.7934082705
0.7969516163
0.8194379132
0.850563917
0.8548883852
0.8846547742
0.5568757491
0.5961023755
0.596488437
0.587569639
0.5808827107
0.5742633473
0.6078901938
0.6205726862
0.5954214379
0.6121107186
0.6199700516
0.6350579576
0.6450226235
0.655167086
0.6627600869
0.6499258775
0.6830313373
0.7334286252
0.7267152494
0.7442406969
0.7195726589
0.7114871766
0.7493954553
0.7479891695
0.7675776835
0.7314703464
0.795188139
0.8089839564
0.8456301462
0.8975057219
0.5420128135
0.5662342073
0.5681104485
0.5860551121
0.5809893928
0.5743689751
0.6150207611
0.6275482631
0.6146640584
0.6333002515
0.6161737228
0.6386688415
0.6471473096
0.649559568
0.6768791968
0.6804138176
0.6873229372
0.689960652
0.7123160405
0.7201993551
0.7230532542
0.7316703584
0.7381085992
0.7576180594
0.7912901278
0.773246667
0.784063128
0.7915759378
0.816152967
0.841208605
0.54438162
0.551450319
0.5623163271
0.5741938478
0.5834742002
0.594159002
0.593957322
0.5950714586
0.5979313652
0.6123686018
0.611269642
0.6027125877
0.5957222829
0.6533724468
0.6451210959
0.6633693399
0.6500343934
0.7100567389
0.7258763322
0.7250174217
0.704399934
0.7427497881
0.7367614699
0.7230498823
0.7715623485
0.7595687424
0.7847391264
0.7778135738
0.7943260853
0.8387505699
0.5692004092
0.5781093147
0.5636002892
0.5708715108
0.5911034584
0.6171726932
0.58716814
0.5958955887
0.5956938564
0.5902449001
0.6150401845
0.6326084145
0.649401663
0.6434825609
0.6377439028
0.6411911102
0.650299964
0.6734646066
0.7086016
0.7054227258
0.7271820309
0.7335127143
0.7172247521
0.7104678008
0.7240545731
0.7347805143
0.7526639457
0.7677745328
0.7884429654
0.826705614
0.5495418095
0.565136187
0.5625612164
0.5845630159
0.5961365018
0.5984252786
0.6179540302
0.6125291504
0.6592559584
0.665732992
0.6547354044
0.6597022867
0.6350899789
0.6281158535
0.6659362368
0.6964984542
0.6907276757
0.6988259934
0.7122693367
0.7320190468
0.7491184182
0.7540936783
0.739470972
0.754049679
0.7325401234
0.7544837632
0.7621444938
0.7999758091
0.8169898954
0.8463593456
0.5599636786
0.5882531772
0.5983464805
0.5821491988
0.6048248118
0.6080905128
0.6054297445
0.6071056402
0.5973782356
0.6017484932
0.5709834261
0.6123824687
0.6148735363
0.6353527932
0.6511394
0.6336681242
0.6395701458
0.6965531688
0.6901795686
0.6913832336
0.7013878602
0.6782509413
0.6912123161
0.7165514796
0.7081483154
0.7588923267
0.7781005748
0.787602516
0.8310763813
0.851329533
0.5768052294
0.6025025693
0.6046956965
0.620165504
0.6068709496
0.590588375
0.6088441297
0.6075526162
0.595750237
0.626471644
0.6449591502
0.6329928838
0.614838682
0.6366570862
0.6771342466
0.6909449977
0.7049274837
0.7053280319
0.7230579476
0.7150876927
0.7084428818
0.7227850362
0.7049717889
0.7452912417
0.7357851223
0.7676313449
0.7777781724
0.8056186115
0.8168988785
0.8527513859
0.559822659
0.5613512911
0.5704346639
0.5816623891
0.5821385547
0.5682608297
0.5967452137
0.5876054592
0.5918281905
0.6324398628
0.6135018305
0.630260487
0.6384451036
0.6427063568
0.6558885135
0.6831939609
0.6833876882
0.6689349138
0.6606754729
0.6298036432
0.6794392381
0.6831199961
0.7248377144
0.7209119785
0.7614915211
0.7524013447
0.7886236752
0.778640536
0.8243436211
0.8193347289
0.5611419005
0.5378450625
0.5544879838
0.5737526576
0.5860479058
0.5920016548
0.5931729582
0.6043769357
0.6306131517
0.606356943
0.6114149895
0.6021763534
0.625735989
0.6506784961
0.6301927309
0.6562985253
0.6519282681
0.6735387824
0.6694523465
0.6857425408
0.7003896402
0.6836183622
0.7212548117
0.7274735675
0.7210402222
0.7283932529
0.7448742803
0.7608109607
0.7681466394
0.7711897928
0.5676550355
0.5305406903
0.5817931488
0.5562527591
0.590373752
0.5920319226
0.5894001051
0.6023174018
0.6070097631
0.5959997121
0.6296383582
0.6424780015
0.6405781925
0.6477842736
0.6311836817
0.6389160147
0.6260717927
0.6443939502
0.6776502406
0.7131656216
0.696949594
0.6993529209
0.7239732578
0.7335695715
0.7233965587
0.7259039508
0.7271393917
0.72710043
0.75442265
0.7634991595
0.5513692036
0.5295604713
0.5435984594
0.5471525177
0.5527648744
0.5788169486
0.5870741483
0.6144559253
0.6066064293
0.624106317
0.629021221
0.6157387913
0.6534741212
0.6358328593
0.6508003733
0.6526429722
0.685051583
0.6522369238
0.660437072
0.6646093103
0.6847444186
0.6790455058
0.7142299994
0.7215161016
0.7249778597
0.7254348128
0.699981432
0.709925777
0.7651535284
0.7597200824
0.5452465331
0.5475612612
0.5722370355
0.5982025955
0.578601126
0.5685564926
0.5849936705
0.5938061674
0.596324371
0.5751171192
0.5952492824
0.5950865681
0.6364932287
0.6383898686
0.6182247112
0.6265904165
0.624776795
0.6375453214
0.6528510567
0.6908763405
0.6650228029
0.6317234472
0.644352496
0.6867145015
0.6746932883
0.7161500073
0.721143641
0.7449121145
0.7524117689
0.7318526504
0.570877672
0.5602651376
0.5520496729
0.5527000252
0.5850826096
0.568187657
0.5853313188
0.6074530133
0.5858792308
0.5736402061
0.5623699273
0.6026058057
0.6030709852
0.6142886985
0.6306211254
0.6640138193
0.6444577661
0.627335134
0.6368216362
0.6296507167
0.6288842945
0.6238399094
0.6451502845
0.6339417509
0.6680642267
0.6405963929
0.6508944798
0.6499767418
0.6877278581
0.6999157024
0.5347112875
0.5277805784
0.5187258623
0.5403152207
0.5549358052
0.5553493783
0.5470512915
0.5627058122
0.5513282108
0.5671388553
0.5437111069
0.5470579913
0.58468421
0.58092295
0.5811081947
0.5750479964
0.5865228713
0.5870274769
0.586106528
0.591707547
0.5789571677
0.5651168978
0.5906817452
0.6055792741
0.5969969121
0.6186512006
0.6258106461
0.6331913793
0.6500971944
0.6694171155
0.4884836444
0.5209586722
0.5305928245
0.5167288988
0.5403036886
0.53270734
0.5205976809
0.5267387259
0.5267050751
0.5212393855
0.5319856985
0.5069104273
0.528273229
0.5616142536
0.566410258
0.5334230521
0.5574309441
0.561271828
0.5785682582
0.5591668633
0.5643639297
0.5319157794
0.534954583
0.5438411071
0.5683317693
0.5889335441
0.5812706109
0.6218319571
0.6306553829
0.5891879365
0.466015864
0.4629668678
0.4732225825
0.4673447073
0.4737358775
0.4651313299
0.4778248414
0.4655473407
0.4598770543
0.485831667
0.4696913397
0.4794941481
0.4907145571
0.5045910087
0.4992571172
0.4692820726
0.5038276025
0.4995809672
0.4899730698
0.4998294023
0.5155344708
0.5080038534
0.5281814786
0.5397229438
0.5520836957
0.5392797459
0.5252549213
0.5014892192
0.5290751909
0.544534843
)
;

boundaryField
{
    flow
    {
        type            calculated;
        value           nonuniform List<scalar> 
55
(
0.9550299008
0.8785645208
0.9372635691
0.9231097746
0.9091883283
0.852246914
0.8459326831
0.8938983675
0.8846547742
0.8975057219
0.841208605
0.8387505699
0.826705614
0.8463593456
0.851329533
0.8527513859
0.8193347289
0.7711897928
0.7634991595
0.7597200824
0.7318526504
0.6999157024
0.6694171155
0.5891879365
0.544534843
0.466015864
0.4629668678
0.4732225825
0.4673447073
0.4737358775
0.4651313299
0.4778248414
0.4655473407
0.4598770543
0.485831667
0.4696913397
0.4794941481
0.4907145571
0.5045910087
0.4992571172
0.4692820726
0.5038276025
0.4995809672
0.4899730698
0.4998294023
0.5155344708
0.5080038534
0.5281814786
0.5397229438
0.5520836957
0.5392797459
0.5252549213
0.5014892192
0.5290751909
0.544534843
)
;
    }
    obstacle
    {
        type            calculated;
        value           nonuniform 0();
    }
    frontAndBack
    {
        type            empty;
    }
    procBoundary3to1
    {
        type            processor;
        value           nonuniform List<scalar> 
36
(
0.9162197069
0.8166256072
0.8398938896
0.8795057857
0.8902434409
0.9068296676
0.9068296676
0.7549683382
0.7306497276
0.7616177433
0.7972945766
0.7809931748
0.7809931748
0.6742834361
0.68185772
0.7068851542
0.7125224927
0.7069036198
0.7069036198
0.6104906525
0.6509073664
0.6417794012
0.64022825
0.6594579895
0.6886753553
0.6886753553
0.5769270597
0.5798995523
0.5884594903
0.5935634064
0.6037857076
0.5957045046
0.5957045046
0.5422729126
0.5414788284
0.5414788284
)
;
    }
    procBoundary3to2
    {
        type            processor;
        value           nonuniform List<scalar> 
19
(
0.5584589549
0.5445501341
0.5335898904
0.5553305007
0.5294264966
0.5465374453
0.558250904
0.5439679243
0.5611547058
0.5814260093
0.5906400618
0.583674235
0.5641006787
0.5384134236
0.5513636505
0.5540031007
0.5391280781
0.5051045524
0.4530063145
)
;
    }
}


// ************************************************************************* //
