/*--------------------------------*- C++ -*----------------------------------*\
  =========                 |
  \\      /  F ield         | OpenFOAM: The Open Source CFD Toolbox
   \\    /   O peration     | Website:  https://openfoam.org
    \\  /    A nd           | Version:  7
     \\/     M anipulation  |
\*---------------------------------------------------------------------------*/
FoamFile
{
    version     2.0;
    format      ascii;
    class       volScalarField;
    location    "0.003";
    object      rhoMMean;
}
// * * * * * * * * * * * * * * * * * * * * * * * * * * * * * * * * * * * * * //

dimensions      [1 -3 0 0 0 0 0];

internalField   nonuniform List<scalar> 
654
(
4.529364124e-06
3.900504764e-06
3.873804698e-06
3.844063647e-06
4.069103469e-06
4.423293134e-06
4.532293966e-06
3.376010833e-06
3.281371984e-06
3.305579286e-06
3.472647271e-06
3.395931704e-06
3.790502534e-06
3.890566296e-06
3.736961975e-06
3.974193921e-06
3.980553438e-06
4.487742546e-06
3.216281984e-06
3.14160546e-06
3.408444768e-06
3.250734861e-06
3.443516336e-06
3.495658604e-06
3.360178034e-06
3.629276793e-06
3.577430728e-06
3.639267622e-06
3.684164733e-06
3.7809031e-06
3.783750275e-06
4.044663571e-06
4.064361051e-06
4.649013912e-06
3.018028931e-06
3.187724424e-06
3.142791737e-06
3.200741105e-06
3.175706223e-06
3.200820979e-06
3.364076365e-06
3.080397612e-06
3.169310042e-06
3.214142158e-06
3.297805837e-06
3.391627644e-06
3.546407052e-06
3.359053252e-06
3.521940634e-06
3.831569107e-06
3.611698395e-06
3.736868717e-06
3.819875147e-06
4.01519667e-06
4.02456851e-06
4.526672036e-06
3.171502787e-06
3.199522692e-06
3.174003169e-06
3.246336124e-06
3.153081535e-06
3.201173344e-06
2.916939038e-06
3.083408369e-06
3.185243459e-06
3.06996464e-06
2.991673704e-06
3.258110105e-06
3.417603553e-06
3.165349831e-06
3.155764633e-06
3.180655587e-06
3.300772651e-06
3.156368376e-06
3.425048705e-06
3.567063556e-06
3.477127176e-06
3.612642854e-06
3.639503662e-06
3.759907449e-06
3.887233679e-06
4.327790523e-06
4.312032003e-06
4.456761266e-06
3.067449644e-06
3.019220935e-06
3.073951959e-06
3.124693974e-06
2.996682156e-06
3.113173915e-06
3.091410469e-06
2.981517382e-06
3.049220126e-06
3.075210409e-06
3.143374188e-06
3.160493414e-06
2.971540027e-06
2.987711319e-06
3.264860325e-06
3.315214982e-06
3.169543854e-06
3.250315772e-06
3.246182654e-06
3.368854161e-06
3.401730179e-06
3.580069866e-06
3.478535164e-06
3.614518006e-06
3.829199715e-06
3.7917343e-06
3.870579129e-06
4.221517344e-06
4.25242661e-06
4.637698366e-06
2.966504263e-06
3.181742458e-06
3.079360538e-06
3.064174823e-06
3.035819948e-06
3.021159699e-06
3.084051745e-06
3.034206206e-06
3.028443374e-06
3.100703943e-06
3.194303608e-06
2.987131801e-06
3.151880359e-06
3.218785184e-06
3.079293598e-06
3.359217639e-06
3.193510267e-06
3.412666666e-06
3.281845369e-06
3.284230334e-06
3.498208377e-06
3.734819063e-06
3.70996895e-06
3.908152237e-06
3.912001582e-06
3.846426807e-06
3.839607877e-06
3.994048763e-06
4.113430445e-06
4.505181102e-06
3.171327008e-06
3.233618821e-06
3.188343852e-06
3.11922979e-06
3.163753525e-06
3.181725374e-06
3.239572873e-06
3.106727229e-06
3.042782835e-06
3.037667842e-06
3.217401093e-06
3.195791245e-06
3.299307024e-06
3.34552533e-06
3.291134311e-06
3.33012175e-06
3.2372642e-06
3.362114157e-06
3.404188288e-06
3.435985004e-06
3.60561122e-06
3.520061665e-06
3.66780436e-06
3.696186631e-06
3.696972516e-06
3.7973998e-06
3.773241719e-06
4.254299658e-06
4.115066443e-06
4.443750812e-06
3.039957794e-06
3.3981898e-06
3.315457558e-06
3.33461044e-06
3.265091461e-06
3.116684405e-06
3.208095728e-06
3.317532973e-06
3.058241891e-06
2.996729427e-06
3.148216841e-06
3.252786937e-06
3.363520158e-06
3.373283563e-06
3.369562554e-06
3.269354797e-06
3.261539455e-06
3.445457635e-06
3.703722959e-06
3.650486525e-06
3.500415534e-06
3.533505739e-06
3.598629431e-06
3.605855616e-06
3.651234482e-06
3.645634368e-06
4.136552304e-06
4.188213501e-06
4.286128486e-06
4.63582446e-06
3.051935404e-06
3.25383967e-06
3.212706442e-06
3.312910024e-06
3.359164091e-06
3.220174209e-06
3.477550194e-06
3.250252774e-06
3.193642203e-06
3.202967095e-06
3.03234656e-06
3.416987565e-06
3.318363452e-06
3.328775501e-06
3.65488761e-06
3.45275947e-06
3.312592086e-06
3.306675058e-06
3.493717978e-06
3.794748216e-06
3.664990782e-06
3.768488805e-06
3.751174038e-06
3.749402529e-06
3.965174838e-06
3.984879482e-06
3.927989853e-06
3.998912541e-06
4.283491899e-06
4.420019447e-06
3.351554996e-06
3.250528581e-06
3.19168207e-06
3.115526608e-06
3.170061401e-06
3.285839206e-06
3.426226172e-06
3.172200443e-06
3.163673666e-06
3.350470689e-06
3.287236685e-06
3.207886431e-06
3.187168916e-06
3.489912447e-06
3.429094666e-06
3.347211614e-06
3.164737122e-06
3.305395407e-06
3.709217818e-06
3.698963995e-06
3.404728326e-06
3.712356455e-06
3.647176406e-06
3.528184362e-06
3.881943726e-06
3.768741463e-06
3.992446801e-06
4.111460515e-06
4.308982964e-06
4.591014924e-06
3.328390796e-06
3.211207299e-06
3.126403083e-06
3.115847462e-06
3.382541814e-06
3.588894246e-06
3.267835817e-06
3.19570438e-06
3.403955299e-06
3.264111032e-06
3.29419934e-06
3.334105622e-06
3.281801053e-06
3.317048653e-06
3.394880096e-06
3.260169585e-06
3.247991414e-06
3.297829042e-06
3.552845815e-06
3.64902366e-06
3.625607941e-06
3.727868184e-06
3.495520006e-06
3.569947197e-06
3.679870651e-06
3.820485109e-06
4.091100122e-06
4.281551228e-06
4.259617752e-06
4.44170559e-06
3.275881382e-06
3.268766371e-06
3.150135616e-06
3.397531865e-06
3.302813596e-06
3.43957579e-06
3.478467215e-06
3.48764059e-06
3.62703483e-06
3.516336295e-06
3.480785747e-06
3.364307247e-06
3.264193878e-06
3.266127978e-06
3.347968702e-06
3.525468397e-06
3.453327073e-06
3.541393168e-06
3.570473912e-06
3.69661378e-06
3.69434781e-06
3.752513236e-06
3.837644578e-06
3.88333873e-06
3.629861765e-06
3.96560883e-06
4.252832256e-06
4.230633756e-06
4.36960449e-06
4.432640582e-06
3.349478664e-06
3.576348257e-06
3.399902036e-06
3.315459233e-06
3.47419033e-06
3.507334032e-06
3.478651813e-06
3.517104543e-06
3.432809301e-06
3.356548633e-06
3.131119189e-06
3.296625362e-06
3.334751036e-06
3.472169759e-06
3.381447489e-06
3.291824463e-06
3.25441501e-06
3.694090818e-06
3.639797351e-06
3.531528948e-06
3.783492732e-06
3.806196607e-06
3.791966299e-06
3.851533816e-06
3.603669654e-06
4.0272335e-06
4.3074401e-06
4.360779808e-06
4.41914151e-06
4.660558094e-06
3.387269744e-06
3.572162769e-06
3.430958342e-06
3.540873882e-06
3.426934546e-06
3.437547617e-06
3.497119339e-06
3.622136221e-06
3.329587935e-06
3.405667048e-06
3.410000197e-06
3.470380836e-06
3.280240102e-06
3.401764207e-06
3.681250119e-06
3.533847578e-06
3.660595242e-06
3.72757187e-06
3.692873831e-06
3.651449807e-06
3.590877255e-06
3.844717993e-06
3.876131285e-06
3.985766827e-06
3.744574154e-06
4.162321279e-06
4.38532042e-06
4.41379324e-06
4.546499584e-06
4.571168269e-06
3.558276051e-06
3.433630114e-06
3.468136746e-06
3.523791887e-06
3.45941779e-06
3.466968078e-06
3.59817702e-06
3.480527515e-06
3.4032008e-06
3.494572808e-06
3.356673833e-06
3.427364923e-06
3.455605153e-06
3.351217325e-06
3.613193775e-06
3.661708186e-06
3.778754492e-06
3.70812218e-06
3.549643969e-06
3.346706267e-06
3.713008951e-06
3.826917261e-06
4.049278138e-06
3.848566794e-06
3.988555207e-06
3.86635985e-06
4.284290751e-06
4.416541624e-06
4.608504041e-06
4.662644871e-06
3.554651506e-06
3.365948378e-06
3.409464757e-06
3.520995708e-06
3.379548875e-06
3.505356005e-06
3.462881483e-06
3.624473009e-06
3.609099832e-06
3.394813966e-06
3.403731242e-06
3.307842965e-06
3.457143775e-06
3.564717924e-06
3.428948338e-06
3.749984083e-06
3.599222392e-06
3.715486948e-06
3.635699595e-06
3.791243036e-06
3.901540928e-06
3.705725849e-06
4.025349256e-06
3.992035491e-06
3.881592008e-06
4.054819008e-06
4.188880397e-06
4.42016011e-06
4.682657052e-06
4.533136163e-06
3.61761776e-06
3.394785404e-06
3.417728508e-06
3.383727268e-06
3.430015463e-06
3.531987444e-06
3.53314274e-06
3.805205806e-06
3.707225772e-06
3.584239977e-06
3.625819631e-06
3.677549498e-06
3.655289e-06
3.652253219e-06
3.677920253e-06
3.566600949e-06
3.593938602e-06
3.600033243e-06
3.756734455e-06
3.911037744e-06
3.834997818e-06
3.634703577e-06
3.90219775e-06
3.990786516e-06
4.032488161e-06
4.121340867e-06
4.215857032e-06
4.376778279e-06
4.661320659e-06
4.584212108e-06
3.72947155e-06
3.647781014e-06
3.610935955e-06
3.413110484e-06
3.425196869e-06
3.430480192e-06
3.590193951e-06
3.749522061e-06
3.579192354e-06
3.706363217e-06
3.691695739e-06
3.59746934e-06
3.914877854e-06
3.861234676e-06
3.679205046e-06
3.593651052e-06
3.794404128e-06
3.580333633e-06
3.759728893e-06
3.880738764e-06
3.975524768e-06
3.760222771e-06
4.043977608e-06
4.223544121e-06
4.450530569e-06
4.332971798e-06
4.194362574e-06
4.24245179e-06
4.500110623e-06
4.591189893e-06
3.747105399e-06
3.726393904e-06
3.676778545e-06
3.85762895e-06
3.704738369e-06
3.524068011e-06
3.755555265e-06
3.796332148e-06
3.645262766e-06
3.543207039e-06
3.717402503e-06
3.594723162e-06
3.913533985e-06
3.919919994e-06
3.702109967e-06
3.63067044e-06
3.719325026e-06
3.681953446e-06
3.852041074e-06
4.080084109e-06
4.116328363e-06
3.82525016e-06
3.925786802e-06
4.161692847e-06
4.036118549e-06
4.120953765e-06
4.283194354e-06
4.563092856e-06
4.589429005e-06
4.671162346e-06
4.04603036e-06
3.832005013e-06
3.626969551e-06
3.793866607e-06
3.818430021e-06
3.711711443e-06
3.964950167e-06
3.921432064e-06
3.727286655e-06
3.578768895e-06
3.61725183e-06
3.764079464e-06
3.785404475e-06
3.775873552e-06
3.74523012e-06
4.017573587e-06
3.922317449e-06
3.732996118e-06
4.018826688e-06
4.060066191e-06
4.059505248e-06
3.725437622e-06
3.867402332e-06
3.915035534e-06
4.142196318e-06
4.064729846e-06
4.299979164e-06
4.294200463e-06
4.389487193e-06
4.666847336e-06
3.964753978e-06
4.044118542e-06
3.798481996e-06
3.895393307e-06
3.924640046e-06
3.964368469e-06
3.758082073e-06
3.961156348e-06
3.827759446e-06
3.68599058e-06
3.839062792e-06
3.69418728e-06
3.853549314e-06
3.844437237e-06
3.84452135e-06
3.926427475e-06
3.999923004e-06
4.040283045e-06
3.947863671e-06
4.227207062e-06
4.01050294e-06
3.871845866e-06
3.9732633e-06
4.0184408e-06
4.075549624e-06
4.227656416e-06
4.157319316e-06
4.252459071e-06
4.349650466e-06
4.385503354e-06
3.733072219e-06
4.05559821e-06
4.095178791e-06
3.706288656e-06
3.929972303e-06
4.027142935e-06
3.955018151e-06
3.951947187e-06
3.878124416e-06
3.877315103e-06
3.808932497e-06
3.741196872e-06
3.718216506e-06
4.030746123e-06
4.076318805e-06
3.718972442e-06
3.785395916e-06
4.113487553e-06
4.128530004e-06
4.059994777e-06
4.179313339e-06
4.045884567e-06
4.009313038e-06
3.964732702e-06
4.287425423e-06
4.355795072e-06
4.191801785e-06
4.455575429e-06
4.418514723e-06
4.497562043e-06
4.107100676e-06
3.963029548e-06
4.056927174e-06
3.918184061e-06
3.935992234e-06
3.86460792e-06
4.15928466e-06
3.917730993e-06
3.776290668e-06
4.127949552e-06
3.710364505e-06
3.955344631e-06
4.099590574e-06
4.039604656e-06
3.997305908e-06
3.828575601e-06
3.98036884e-06
4.106930447e-06
3.996630823e-06
4.084610982e-06
4.068770572e-06
4.086694894e-06
4.335794573e-06
4.509665669e-06
4.288260579e-06
4.383216327e-06
4.447294006e-06
4.241030777e-06
4.55279811e-06
4.479447628e-06
)
;

boundaryField
{
    flow
    {
        type            calculated;
        value           nonuniform List<scalar> 
55
(
4.529364124e-06
4.532293966e-06
4.487742546e-06
4.649013912e-06
4.526672036e-06
4.456761266e-06
4.637698366e-06
4.505181102e-06
4.443750812e-06
4.63582446e-06
4.420019447e-06
4.591014924e-06
4.44170559e-06
4.432640582e-06
4.660558094e-06
4.571168269e-06
4.662644871e-06
4.533136163e-06
4.584212108e-06
4.591189893e-06
4.671162346e-06
4.666847336e-06
4.385503354e-06
4.497562043e-06
4.479447628e-06
4.107100676e-06
3.963029548e-06
4.056927174e-06
3.918184061e-06
3.935992234e-06
3.86460792e-06
4.15928466e-06
3.917730993e-06
3.776290668e-06
4.127949552e-06
3.710364505e-06
3.955344631e-06
4.099590574e-06
4.039604656e-06
3.997305908e-06
3.828575601e-06
3.98036884e-06
4.106930447e-06
3.996630823e-06
4.084610982e-06
4.068770572e-06
4.086694894e-06
4.335794573e-06
4.509665669e-06
4.288260579e-06
4.383216327e-06
4.447294006e-06
4.241030777e-06
4.55279811e-06
4.479447628e-06
)
;
    }
    obstacle
    {
        type            calculated;
        value           nonuniform 0();
    }
    frontAndBack
    {
        type            empty;
    }
    procBoundary3to1
    {
        type            processor;
        value           nonuniform List<scalar> 
36
(
4.353773255e-06
3.545332245e-06
3.771925375e-06
3.980671633e-06
4.08033117e-06
4.209333242e-06
4.209333242e-06
3.271260546e-06
3.22725512e-06
3.373995939e-06
3.600356213e-06
3.570263615e-06
3.570263615e-06
3.08195804e-06
3.089993719e-06
3.327159582e-06
3.310362268e-06
3.197392044e-06
3.197392044e-06
3.051466172e-06
3.194817036e-06
3.106724139e-06
3.066811643e-06
2.996015122e-06
3.262256745e-06
3.262256745e-06
3.106988771e-06
3.052514982e-06
3.095853027e-06
3.045997543e-06
3.077844235e-06
2.952042149e-06
2.952042149e-06
3.06382674e-06
2.925544336e-06
2.925544336e-06
)
;
    }
    procBoundary3to2
    {
        type            processor;
        value           nonuniform List<scalar> 
19
(
3.112516178e-06
3.065129697e-06
3.080313539e-06
3.107784085e-06
3.167828343e-06
3.222515445e-06
3.277376133e-06
3.509504287e-06
3.498450169e-06
3.70649871e-06
3.581754333e-06
3.712777998e-06
3.753863811e-06
3.696112685e-06
3.776651479e-06
3.964151593e-06
3.884094344e-06
4.095622602e-06
3.833942737e-06
)
;
    }
}


// ************************************************************************* //
