/*--------------------------------*- C++ -*----------------------------------*\
  =========                 |
  \\      /  F ield         | OpenFOAM: The Open Source CFD Toolbox
   \\    /   O peration     | Website:  https://openfoam.org
    \\  /    A nd           | Version:  7
     \\/     M anipulation  |
\*---------------------------------------------------------------------------*/
FoamFile
{
    version     2.0;
    format      ascii;
    class       volScalarField;
    location    "0.003";
    object      rhoMMean;
}
// * * * * * * * * * * * * * * * * * * * * * * * * * * * * * * * * * * * * * //

dimensions      [1 -3 0 0 0 0 0];

internalField   nonuniform List<scalar> 
654
(
1.128713169e-05
1.131688611e-05
1.14871567e-05
1.147837636e-05
1.148395372e-05
1.15502365e-05
1.142367084e-05
9.239587507e-06
9.463693155e-06
9.710087372e-06
1.013517138e-05
1.054282212e-05
1.104939516e-05
1.121817294e-05
1.142934819e-05
1.147473382e-05
1.144294709e-05
1.141019151e-05
6.670853854e-06
6.946271986e-06
7.401817098e-06
7.776945387e-06
8.032481668e-06
8.555915389e-06
9.239327468e-06
9.554477908e-06
9.757423626e-06
1.007181844e-05
1.026165803e-05
1.064838462e-05
1.088681951e-05
1.108381068e-05
1.107244616e-05
1.119998317e-05
5.33417466e-06
5.452073058e-06
5.552539557e-06
5.647746231e-06
5.719229843e-06
5.873939614e-06
6.24232158e-06
6.499596839e-06
6.800932241e-06
7.043175094e-06
7.415054436e-06
7.840087549e-06
8.238795138e-06
8.738293165e-06
9.194507164e-06
9.443732589e-06
9.834086626e-06
1.012916732e-05
1.048536034e-05
1.079068042e-05
1.08794684e-05
1.082076679e-05
4.874291427e-06
4.944591102e-06
4.963133731e-06
5.040810196e-06
5.052497862e-06
5.069165524e-06
5.121719129e-06
5.159786065e-06
5.304212361e-06
5.500094497e-06
5.629582149e-06
5.795971615e-06
5.957002378e-06
6.186860766e-06
6.429494011e-06
6.693390852e-06
7.045382684e-06
7.41144216e-06
7.84391065e-06
8.201724528e-06
8.51616385e-06
8.868993229e-06
9.246555364e-06
9.581244869e-06
9.943435214e-06
1.019670482e-05
1.062235493e-05
1.086130585e-05
4.851495983e-06
4.873901671e-06
4.876443204e-06
4.885303066e-06
4.86764963e-06
4.919789066e-06
5.000630973e-06
5.120946961e-06
5.156132143e-06
5.243231939e-06
5.341722232e-06
5.389605489e-06
5.493906561e-06
5.56213401e-06
5.788567474e-06
5.965031031e-06
6.14335953e-06
6.3237198e-06
6.533269125e-06
6.710498405e-06
7.083019269e-06
7.394103555e-06
7.829649136e-06
8.2242224e-06
8.575673955e-06
8.973358561e-06
9.334783557e-06
9.59094448e-06
9.888568229e-06
1.035783071e-05
4.838824567e-06
4.8393369e-06
4.816449269e-06
4.87971931e-06
4.908032362e-06
4.93547915e-06
4.948228391e-06
4.965879797e-06
4.981906528e-06
5.021164249e-06
5.0832754e-06
5.116124548e-06
5.285222283e-06
5.38655866e-06
5.447717746e-06
5.597545592e-06
5.760067921e-06
5.967788562e-06
6.200531277e-06
6.384458501e-06
6.676414364e-06
6.985675842e-06
7.265828805e-06
7.64920019e-06
8.036685117e-06
8.349184975e-06
8.603307762e-06
9.111949663e-06
9.499892493e-06
9.795027727e-06
4.763835245e-06
4.747271756e-06
4.817974668e-06
4.80599563e-06
4.843151898e-06
4.835600212e-06
4.910652774e-06
4.884968059e-06
4.927483909e-06
4.945853022e-06
5.056365817e-06
5.145193694e-06
5.177602414e-06
5.242737237e-06
5.263924324e-06
5.359515821e-06
5.481492975e-06
5.672981044e-06
5.729006303e-06
5.942706056e-06
6.13938388e-06
6.382433275e-06
6.681957363e-06
6.958247432e-06
7.418166913e-06
7.901328949e-06
8.409514294e-06
8.696521553e-06
9.010160447e-06
9.403686123e-06
4.787521673e-06
4.825819054e-06
4.866100229e-06
4.846041458e-06
4.861917977e-06
4.896797001e-06
4.965448601e-06
4.99240895e-06
5.034872418e-06
5.042997427e-06
4.986686585e-06
5.010948888e-06
5.070352779e-06
5.11367728e-06
5.191972614e-06
5.210714713e-06
5.333941397e-06
5.432554521e-06
5.570495314e-06
5.636209349e-06
5.872488934e-06
6.0772419e-06
6.377008131e-06
6.68928169e-06
7.035426481e-06
7.395404318e-06
7.825575842e-06
8.247775056e-06
8.627998658e-06
8.885730623e-06
4.926829474e-06
4.870795288e-06
4.837160031e-06
4.866000033e-06
4.940910054e-06
4.86657351e-06
4.866067931e-06
4.908119327e-06
4.909135068e-06
4.911451571e-06
4.94879624e-06
4.963943278e-06
4.922461263e-06
4.992913301e-06
5.10095075e-06
5.104236985e-06
5.19738544e-06
5.24883949e-06
5.324180124e-06
5.44541773e-06
5.605266298e-06
5.854067478e-06
6.149076645e-06
6.354078179e-06
6.646435774e-06
6.941857244e-06
7.184587438e-06
7.504812751e-06
7.811394398e-06
8.304136472e-06
4.786629436e-06
4.851391686e-06
4.837525143e-06
4.878898389e-06
4.879974959e-06
4.917976845e-06
4.935638435e-06
4.97403012e-06
4.933989026e-06
4.995304836e-06
4.986317774e-06
5.048698837e-06
5.034875945e-06
5.035917527e-06
5.006094048e-06
5.058819052e-06
5.069527342e-06
5.173554876e-06
5.322105058e-06
5.451386651e-06
5.521423961e-06
5.635007738e-06
5.778538977e-06
5.98738959e-06
6.224414147e-06
6.416988534e-06
6.759402136e-06
7.203811046e-06
7.577281081e-06
7.962706765e-06
4.78225991e-06
4.779751679e-06
4.814853711e-06
4.733673326e-06
4.801751645e-06
4.813073081e-06
4.758952988e-06
4.803470576e-06
4.866354205e-06
4.826157046e-06
4.830890848e-06
4.899766558e-06
4.881356543e-06
4.906475866e-06
4.956671799e-06
5.031243756e-06
5.112142007e-06
5.101037101e-06
5.166720452e-06
5.26635345e-06
5.383896907e-06
5.417555431e-06
5.537198125e-06
5.696893289e-06
5.927536453e-06
6.203063134e-06
6.37484764e-06
6.690036613e-06
7.089643745e-06
7.434430403e-06
4.945737963e-06
4.886825902e-06
4.860115486e-06
4.87942784e-06
4.865768816e-06
4.902792753e-06
4.931296344e-06
4.879393471e-06
4.884139832e-06
4.923628383e-06
4.842349729e-06
4.863616319e-06
4.876570834e-06
4.981183769e-06
4.980862837e-06
5.01897787e-06
5.068411143e-06
5.100804107e-06
5.194400676e-06
5.213366766e-06
5.30825184e-06
5.426190956e-06
5.492566575e-06
5.614535085e-06
5.641741497e-06
5.837892951e-06
6.050047713e-06
6.257849028e-06
6.497306485e-06
6.955497798e-06
4.777194933e-06
4.840791593e-06
4.872726646e-06
4.884773192e-06
4.839994867e-06
4.808499601e-06
4.853989062e-06
4.839917518e-06
4.823368074e-06
4.879891206e-06
4.913820289e-06
4.90971314e-06
4.897802328e-06
4.908810225e-06
4.928814463e-06
4.978769406e-06
4.952599205e-06
5.077819092e-06
5.140661007e-06
5.242295668e-06
5.25752942e-06
5.325052421e-06
5.364293553e-06
5.420254326e-06
5.596544089e-06
5.671285249e-06
5.862247445e-06
6.003001936e-06
6.179927481e-06
6.417020227e-06
4.871714761e-06
4.845250414e-06
4.813741097e-06
4.741894105e-06
4.735684637e-06
4.749441212e-06
4.700400151e-06
4.740952763e-06
4.766984456e-06
4.755946672e-06
4.792549869e-06
4.832578842e-06
4.890329511e-06
4.896453708e-06
4.931633209e-06
4.993897293e-06
5.043172968e-06
5.006934494e-06
5.024035201e-06
5.032664211e-06
5.095733751e-06
5.155064275e-06
5.169915738e-06
5.310300024e-06
5.367283492e-06
5.401657996e-06
5.596192921e-06
5.722032701e-06
5.867237218e-06
6.094381312e-06
4.753647378e-06
4.709887731e-06
4.709738904e-06
4.731984609e-06
4.747460137e-06
4.751150658e-06
4.737013596e-06
4.747382398e-06
4.741239011e-06
4.752761521e-06
4.73782249e-06
4.794459782e-06
4.789638404e-06
4.812249131e-06
4.81208765e-06
4.817795791e-06
4.816441111e-06
4.881620466e-06
4.902748249e-06
4.925970967e-06
4.92258872e-06
5.001526262e-06
5.124455925e-06
5.172203084e-06
5.175772339e-06
5.229706402e-06
5.317569168e-06
5.385044248e-06
5.572270566e-06
5.76119927e-06
4.76889424e-06
4.764666178e-06
4.784888093e-06
4.790526043e-06
4.812259983e-06
4.769934354e-06
4.837941522e-06
4.781503087e-06
4.767251171e-06
4.78375301e-06
4.831498315e-06
4.872381429e-06
4.863567335e-06
4.889516918e-06
4.909255908e-06
4.887703039e-06
4.900326358e-06
4.887635376e-06
4.919463867e-06
4.91086348e-06
5.007727428e-06
4.950835293e-06
4.927668164e-06
5.025651776e-06
5.109821821e-06
5.173313789e-06
5.208061663e-06
5.342231356e-06
5.464296561e-06
5.566574473e-06
4.773960379e-06
4.735304692e-06
4.771789098e-06
4.803290863e-06
4.81997522e-06
4.807920714e-06
4.759629901e-06
4.859123572e-06
4.865134518e-06
4.875228929e-06
4.877072859e-06
4.862102137e-06
4.85291965e-06
4.851763841e-06
4.843966654e-06
4.847403499e-06
4.840500776e-06
4.903666501e-06
4.924998312e-06
4.894869574e-06
4.901651257e-06
4.919912705e-06
4.906174816e-06
4.90928993e-06
4.894956965e-06
4.974944309e-06
5.110692645e-06
5.129506929e-06
5.253511263e-06
5.371550529e-06
4.888545721e-06
4.89642137e-06
4.901691515e-06
4.821223599e-06
4.853220964e-06
4.888493819e-06
4.958698246e-06
4.91837464e-06
4.966647655e-06
4.905397992e-06
4.888446887e-06
4.861773896e-06
4.871327362e-06
4.84024657e-06
4.900480721e-06
4.854446474e-06
4.80230373e-06
4.779122355e-06
4.792407943e-06
4.849945938e-06
4.858613857e-06
4.842768597e-06
4.896931829e-06
4.987703029e-06
5.000557895e-06
5.053947005e-06
5.11917556e-06
5.172217316e-06
5.284777012e-06
5.359647432e-06
4.773160006e-06
4.787236986e-06
4.80122681e-06
4.850910493e-06
4.873872788e-06
4.86899113e-06
4.846005184e-06
4.84245297e-06
4.822378281e-06
4.810021054e-06
4.846083939e-06
4.855281122e-06
4.829490749e-06
4.867477957e-06
4.830442371e-06
4.825695027e-06
4.877015311e-06
4.895333096e-06
4.880985211e-06
4.89081585e-06
4.871936967e-06
4.938158935e-06
4.984577629e-06
5.015982918e-06
5.033234248e-06
5.117750178e-06
5.196623369e-06
5.177838159e-06
5.165405848e-06
5.160946748e-06
4.844327902e-06
4.882353752e-06
4.825461737e-06
4.778386945e-06
4.824657302e-06
4.799748096e-06
4.766053297e-06
4.760568702e-06
4.776478216e-06
4.836884912e-06
4.786061597e-06
4.801195717e-06
4.795782305e-06
4.810418271e-06
4.793086038e-06
4.803323118e-06
4.835501389e-06
4.816866612e-06
4.84232948e-06
4.848829065e-06
4.930574994e-06
4.965126823e-06
4.998563783e-06
5.018843808e-06
4.993509247e-06
4.983049464e-06
4.994852598e-06
5.058403127e-06
5.205535947e-06
5.184156419e-06
4.768966891e-06
4.745496185e-06
4.802738851e-06
4.801660104e-06
4.848207036e-06
4.796464269e-06
4.879318457e-06
4.84188272e-06
4.872138822e-06
4.799223571e-06
4.781707493e-06
4.798659734e-06
4.913357436e-06
4.889486005e-06
4.978470745e-06
4.949602579e-06
4.922613116e-06
4.964668959e-06
4.952007979e-06
4.949165173e-06
4.890287874e-06
4.931605743e-06
4.824521579e-06
4.889701223e-06
4.957958173e-06
4.955256672e-06
4.961098129e-06
4.946430002e-06
4.963050441e-06
5.072959673e-06
4.862733009e-06
4.898873456e-06
4.911319048e-06
4.859652125e-06
4.871625117e-06
4.872034202e-06
4.82823337e-06
4.856746398e-06
4.828548843e-06
4.870646515e-06
4.879591329e-06
4.83734588e-06
4.79082724e-06
4.758098796e-06
4.786610446e-06
4.831552522e-06
4.827674906e-06
4.846652697e-06
4.808108081e-06
4.804115502e-06
4.786058137e-06
4.794106616e-06
4.836653854e-06
4.776541689e-06
4.785756058e-06
4.780851263e-06
4.835929327e-06
4.811699871e-06
4.862518239e-06
4.889740678e-06
4.704329436e-06
4.690880605e-06
4.70943746e-06
4.661955982e-06
4.645621262e-06
4.669836944e-06
4.681011815e-06
4.702996342e-06
4.679257734e-06
4.672101092e-06
4.698005164e-06
4.70904108e-06
4.706430965e-06
4.704540606e-06
4.675214056e-06
4.653898979e-06
4.61718444e-06
4.641553833e-06
4.672560478e-06
4.70403213e-06
4.738670198e-06
4.723264157e-06
4.767560266e-06
4.775716736e-06
4.787938917e-06
4.783948262e-06
4.774555593e-06
4.841788954e-06
4.815758521e-06
4.90896678e-06
)
;

boundaryField
{
    flow
    {
        type            calculated;
        value           nonuniform List<scalar> 
55
(
1.128713169e-05
1.142367084e-05
1.141019151e-05
1.119998317e-05
1.082076679e-05
1.086130585e-05
1.035783071e-05
9.795027727e-06
9.403686123e-06
8.885730623e-06
8.304136472e-06
7.962706765e-06
7.434430403e-06
6.955497798e-06
6.417020227e-06
6.094381312e-06
5.76119927e-06
5.566574473e-06
5.371550529e-06
5.359647432e-06
5.160946748e-06
5.184156419e-06
5.072959673e-06
4.889740678e-06
4.90896678e-06
4.704329436e-06
4.690880605e-06
4.70943746e-06
4.661955982e-06
4.645621262e-06
4.669836944e-06
4.681011815e-06
4.702996342e-06
4.679257734e-06
4.672101092e-06
4.698005164e-06
4.70904108e-06
4.706430965e-06
4.704540606e-06
4.675214056e-06
4.653898979e-06
4.61718444e-06
4.641553833e-06
4.672560478e-06
4.70403213e-06
4.738670198e-06
4.723264157e-06
4.767560266e-06
4.775716736e-06
4.787938917e-06
4.783948262e-06
4.774555593e-06
4.841788954e-06
4.815758521e-06
4.90896678e-06
)
;
    }
    obstacle
    {
        type            calculated;
        value           nonuniform 0();
    }
    frontAndBack
    {
        type            empty;
    }
    procBoundary3to1
    {
        type            processor;
        value           nonuniform List<scalar> 
36
(
1.093704871e-05
1.149476524e-05
1.139309894e-05
1.140334767e-05
1.132892026e-05
1.120860563e-05
1.120860563e-05
9.71404478e-06
1.016703354e-05
1.041713941e-05
1.063371731e-05
1.102961224e-05
1.102961224e-05
7.034887033e-06
7.506333916e-06
7.86414467e-06
8.246906386e-06
8.891457675e-06
8.891457675e-06
5.283025192e-06
5.430200207e-06
5.672962171e-06
5.875953694e-06
6.136765295e-06
6.429645514e-06
6.429645514e-06
4.911740402e-06
4.939208554e-06
5.003834822e-06
5.010814538e-06
5.084615119e-06
5.212489413e-06
5.212489413e-06
4.794688591e-06
4.815432938e-06
4.815432938e-06
)
;
    }
    procBoundary3to2
    {
        type            processor;
        value           nonuniform List<scalar> 
19
(
4.854917605e-06
4.795327245e-06
4.782721455e-06
4.794542096e-06
4.852664556e-06
4.712256033e-06
4.855651236e-06
4.863444449e-06
4.821931039e-06
4.875169211e-06
4.766390674e-06
4.764024638e-06
4.741585756e-06
4.86529763e-06
4.740406335e-06
4.904395896e-06
4.799607519e-06
4.866051453e-06
4.678537059e-06
)
;
    }
}


// ************************************************************************* //
