/*--------------------------------*- C++ -*----------------------------------*\
  =========                 |
  \\      /  F ield         | OpenFOAM: The Open Source CFD Toolbox
   \\    /   O peration     | Website:  https://openfoam.org
    \\  /    A nd           | Version:  7
     \\/     M anipulation  |
\*---------------------------------------------------------------------------*/
FoamFile
{
    version     2.0;
    format      ascii;
    class       volScalarField;
    location    "0.003";
    object      translationalT;
}
// * * * * * * * * * * * * * * * * * * * * * * * * * * * * * * * * * * * * * //

dimensions      [1 2 -2 0 0 0 0];

internalField   nonuniform List<scalar> 
654
(
765.7028434
773.2382126
766.6169896
756.5989969
758.8334938
747.9261449
745.5916141
758.9326898
766.6644696
765.4599495
766.4350111
757.0115347
759.3885871
758.4945117
761.3956509
758.3992221
745.6940852
738.7086581
661.3041224
669.9393567
706.0931125
705.7522466
722.6064831
746.2527803
752.7498809
748.3164848
754.6415643
751.6505147
745.200723
748.3073827
748.0400754
753.8214206
734.8563989
733.1020649
462.0514625
480.5922367
506.9946328
528.0080159
546.4689391
568.8960597
601.1426522
630.8997644
657.3032717
681.0728666
696.6340643
722.0104439
730.8995257
740.9666975
738.1789916
735.8481195
745.0886258
746.7106964
742.7099663
732.344746
727.4964455
731.9403957
350.2898494
356.7049424
371.8030609
385.2304268
407.4906551
415.7101691
424.9779589
452.2900046
469.1771371
498.9773342
506.8207759
526.291528
551.4280935
576.211712
613.6634536
630.2573069
653.6601213
677.2694604
702.287836
713.5257011
719.7204554
724.22086
724.7122135
737.3069993
737.3683436
737.5227323
730.272192
720.9484342
328.0077695
336.1743849
330.6901437
350.6556117
355.2154109
367.3324676
376.4176925
386.5706111
392.1977455
405.0259204
432.4589583
444.6544919
473.3710176
492.2393952
522.2320719
541.6205815
566.7597318
599.4769938
612.2654893
625.5059156
659.4286805
680.9469595
700.1476528
717.4879109
702.4640431
715.4809271
719.3488074
724.2565289
726.2463661
731.7198171
324.3629315
323.5121837
336.0308568
332.2857751
343.2182277
352.1018433
368.735267
378.7384672
388.2752948
393.2101847
405.0529724
425.455858
438.4436876
448.6737475
471.5990142
504.5540872
519.9889749
551.6774295
573.5146547
589.8892302
614.3366632
646.9667005
653.6538403
674.7848386
694.2286709
706.8136531
709.6115193
711.6889547
721.6430887
716.4976278
315.3937361
317.5381116
327.7002378
330.2635524
338.3204915
344.7503347
354.5553357
362.1496453
368.8102919
367.9951852
381.3652879
395.604715
413.2854602
428.6661563
442.0713781
463.6861768
483.9511579
523.4903532
537.0488728
560.2904955
581.6653203
611.1165836
630.0743064
638.7336174
674.3483533
693.3647903
704.8917638
694.9430998
702.995821
709.6364637
313.0676903
307.1557024
314.1098821
318.6950021
319.6191843
330.723988
339.759846
348.9565656
347.0344175
360.7627322
370.2841156
370.1570465
385.6575456
404.6701425
423.9627882
428.0945503
459.5526236
490.3625941
500.6384394
513.3618409
531.6010534
564.1719577
592.8284891
615.3278721
633.5499253
655.7273143
685.1327518
682.8092265
683.1642663
698.9857526
312.4519279
314.1643396
311.3170406
315.7710133
323.2260058
320.9045921
326.7857798
344.1635863
341.2268104
348.4150001
366.2118705
366.2243112
368.5477132
379.9955093
399.4680351
404.7036637
416.2536974
437.7226334
459.8137053
484.4041249
497.9653387
522.4415099
547.8842885
578.4531351
593.385148
609.4689198
648.4618405
656.7846037
674.877294
684.7426034
310.3913036
309.7956576
311.7887335
312.2627217
313.7457361
318.6812748
320.294868
327.9788285
332.7254229
335.52836
339.1044286
352.821443
347.992565
352.0020044
361.1762584
383.2110838
385.4077472
404.1440445
422.5303937
444.0418306
457.8535686
474.5372453
503.2126837
532.3297474
552.1531969
583.1104536
599.6067029
624.9955501
654.5146662
654.4537418
305.3883539
309.3249256
311.3099372
309.6597928
312.9231994
315.6209197
317.221768
324.8076562
327.4170198
327.1465696
326.8845396
334.727035
346.9525721
344.2956622
349.2464769
366.176407
373.2060467
385.7304146
398.3462343
413.0216836
441.7045158
445.2393616
470.4984478
492.6573154
521.7055189
548.6188096
554.4363596
582.4119341
606.8024076
632.2928071
309.0885414
305.5738921
301.4206486
301.7233614
300.2550389
304.8656609
307.1212228
311.6607688
314.855743
322.5089043
320.9577023
320.6893022
323.1866971
335.6932177
339.044853
345.707194
359.8710341
361.5281239
373.8079078
391.2897441
397.1006517
424.3232944
435.6115555
456.9173229
467.1549516
502.0278067
526.8337641
545.325338
580.1328861
601.0445722
301.0572559
305.4980316
307.5825812
306.5202473
304.6957796
304.2924011
302.7639959
302.3400277
304.0929645
312.5126975
318.5662233
326.4784425
320.7164984
326.1456071
334.5923907
342.0293503
341.6393967
363.7000622
364.0930417
382.211111
379.6251309
395.6353688
412.4226967
421.8443228
439.0266341
450.9430158
485.2504737
504.754382
538.0129015
544.8763531
295.8801846
295.5204764
295.7537908
291.8543446
298.9334294
296.3900073
301.501669
306.6106084
311.7835124
311.3902452
319.2777683
319.2487671
321.0610802
321.5261496
324.5174993
334.066602
347.7234206
341.950117
348.2288896
359.5964434
369.176404
377.2532132
386.9425618
403.9960265
418.534729
433.32344
452.7613544
474.4630536
498.599077
529.3520886
302.3054413
304.3530833
306.5519773
306.0873449
307.6818595
308.9166634
301.6379278
301.4073945
306.3536208
308.103136
305.9129717
318.7516004
323.3665362
326.3486305
324.9872228
335.2778322
335.5515533
341.5199835
342.1042832
353.3960238
352.5649935
360.2151494
376.8568836
387.830055
401.8850746
410.7979122
435.1407146
448.2642183
477.5787394
505.5722732
300.7407728
301.35479
300.2994823
302.2111611
303.0461213
304.0128506
309.064211
305.2497988
305.6447753
309.2410094
311.1965261
313.0102592
316.5313837
316.2410728
322.8744013
322.9420291
321.8107758
329.4128523
332.18044
348.1850568
347.8448373
350.2723599
355.0810848
366.8363202
382.7146022
392.0863719
408.0343481
427.6234823
446.6653448
471.6079112
303.7786384
300.4439348
299.3003238
301.5214377
304.2394557
304.1911153
301.8398659
308.6436659
310.2017778
309.4816057
309.8193153
308.6311743
310.9382223
312.7310024
316.162386
317.5553038
319.161989
322.1044336
331.0592999
335.1958143
337.7344295
341.0789511
351.498344
353.44018
366.8804091
376.5594893
393.0581368
400.4568482
423.8268339
432.281155
300.1879721
301.1014882
301.353182
298.2817163
295.6932767
294.6849991
301.434271
302.5761062
309.2142409
312.018245
307.4948158
310.6619633
309.7171599
310.41872
315.5526093
317.8342125
316.0655417
320.2709742
322.5263781
328.6787449
335.3561211
334.0893362
337.2948563
346.8010721
347.9802545
364.847857
373.4975739
381.514058
391.7691385
412.1641884
290.6550916
291.8336178
296.9655306
300.6779914
302.4149295
300.9512156
304.2655196
301.9425856
302.9419017
300.8381569
303.5783542
304.7996936
304.3384789
305.3675574
309.7794865
314.6664122
319.5218158
314.0022428
315.599938
319.0457155
318.0037358
328.0912608
325.5135485
332.9873718
339.1598607
339.7167786
358.4276302
363.9944375
379.4652411
392.3611022
299.1113754
299.5903482
299.0314259
295.272087
297.8301662
301.5796917
301.4048889
301.7190739
298.7400872
300.255813
301.3370499
304.7135342
307.2726519
307.4475306
306.1711174
306.0699983
308.6809643
309.6338745
308.6617132
310.4340869
312.8655025
320.4061977
322.8129945
328.1440868
327.4866263
333.657463
335.8404533
355.0340352
361.0625075
370.7339649
301.9277419
301.3632443
301.9912215
302.8960272
303.3327892
302.3731758
302.4125477
299.8934265
303.5085834
303.9410884
297.208451
299.7491977
304.9673577
300.9737558
306.1873812
302.0610709
300.1023256
302.2284813
310.1153514
308.7704042
308.1965993
310.0602869
317.7728766
324.7897214
329.9386317
331.2553675
331.1187071
331.8220048
340.5818283
357.4854735
303.5539405
302.8672918
300.5147715
302.8166775
303.2859974
297.9783823
300.2032749
297.971408
297.0592756
295.5414098
296.8641674
293.9654162
294.0175945
295.4575087
303.1230939
305.3528831
302.9937789
309.9843473
312.4349001
315.8569427
308.5417119
312.7418555
313.9076696
316.2690307
315.3227859
320.7277054
332.1507525
331.6166697
345.7786488
349.7424051
296.8545654
301.1127662
301.0241181
297.4450072
289.542145
293.9337932
296.072639
295.8838771
297.579171
299.634406
298.3519749
296.5717621
296.4410194
301.4509587
304.3641998
302.3256227
305.0649741
304.0069539
306.5091132
308.6824788
309.7201178
313.1727242
311.0343978
312.7785314
317.4613059
312.7248378
316.1353845
322.7148294
329.434575
335.0976884
)
;

boundaryField
{
    flow
    {
        type            calculated;
        value           nonuniform List<scalar> 
55
(
765.7028434
745.5916141
738.7086581
733.1020649
731.9403957
720.9484342
731.7198171
716.4976278
709.6364637
698.9857526
684.7426034
654.4537418
632.2928071
601.0445722
544.8763531
529.3520886
505.5722732
471.6079112
432.281155
412.1641884
392.3611022
370.7339649
357.4854735
349.7424051
335.0976884
296.8545654
301.1127662
301.0241181
297.4450072
289.542145
293.9337932
296.072639
295.8838771
297.579171
299.634406
298.3519749
296.5717621
296.4410194
301.4509587
304.3641998
302.3256227
305.0649741
304.0069539
306.5091132
308.6824788
309.7201178
313.1727242
311.0343978
312.7785314
317.4613059
312.7248378
316.1353845
322.7148294
329.434575
335.0976884
)
;
    }
    obstacle
    {
        type            calculated;
        value           nonuniform 0();
    }
    frontAndBack
    {
        type            empty;
    }
    procBoundary3to1
    {
        type            processor;
        value           nonuniform List<scalar> 
36
(
753.2267342
781.4082036
784.9330607
776.7531521
758.151484
763.6507065
763.6507065
769.2394413
775.8656046
771.8286606
769.9548513
774.2767552
774.2767552
703.0836629
727.8256253
740.7166084
745.0449436
761.0399465
761.0399465
499.1283398
530.9461123
558.9620377
582.4895654
607.1394554
631.751702
631.751702
370.7570525
379.2288261
408.7254865
417.6420823
427.8531733
437.5222178
437.5222178
343.9870173
341.8300136
341.8300136
)
;
    }
    procBoundary3to2
    {
        type            processor;
        value           nonuniform List<scalar> 
19
(
320.0366487
317.3254304
315.926616
308.3141302
309.1625085
304.8846814
306.0110802
306.2638763
304.586095
294.7424743
300.7724512
299.5701139
306.3251585
299.5293416
293.1326096
297.8563835
303.2723976
299.5027396
295.1416388
)
;
    }
}


// ************************************************************************* //
