/*--------------------------------*- C++ -*----------------------------------*\
  =========                 |
  \\      /  F ield         | OpenFOAM: The Open Source CFD Toolbox
   \\    /   O peration     | Website:  https://openfoam.org
    \\  /    A nd           | Version:  7
     \\/     M anipulation  |
\*---------------------------------------------------------------------------*/
FoamFile
{
    version     2.0;
    format      ascii;
    class       volVectorField;
    location    "0.003";
    object      UMean;
}
// * * * * * * * * * * * * * * * * * * * * * * * * * * * * * * * * * * * * * //

dimensions      [0 1 -1 0 0 0 0];

internalField   nonuniform List<vector> 
654
(
(195.9564307 30.00588111 -3.192837232)
(191.9746505 15.93997436 -11.32886107)
(201.7502777 30.77759901 -2.188566867)
(192.8762932 35.14890281 -8.732461073)
(199.5860147 41.68146622 -8.233211121)
(180.1099457 36.14508565 -4.97014993)
(181.3963977 26.53491733 -14.38352129)
(186.4321991 26.0914081 3.849082617)
(196.4768548 32.28413769 4.393235258)
(198.0585349 44.25955047 -9.349585546)
(204.8136346 30.77220758 7.604940428)
(227.2527445 32.97946299 0.177460112)
(196.2011794 19.86420969 -12.55707284)
(195.5846905 32.30869737 -15.8566999)
(191.9553493 25.86425782 -6.572167225)
(192.0630399 31.66660231 -21.29035292)
(213.7787526 38.19248067 7.071980854)
(212.0312053 28.87059657 5.252087857)
(186.4513591 15.83786294 -22.93978721)
(204.7612576 23.77284111 -20.95853253)
(180.2016857 20.20699101 -23.69951995)
(193.0442405 22.00136226 -4.996413748)
(176.6918669 9.041375278 -9.962340637)
(185.0535248 22.8374683 -6.763486445)
(194.6524075 19.92537151 -10.51498695)
(192.9013113 32.42772782 -9.654970625)
(208.7112472 23.02157241 27.55687102)
(216.9635199 27.92984912 11.24364636)
(226.4078855 22.18919677 -10.82186005)
(196.8798848 33.41391697 -17.64027984)
(203.896198 37.68402165 -24.01877082)
(188.5194195 24.80702141 -12.53949617)
(192.7606849 21.6407072 -2.339197366)
(170.6183871 20.49047662 12.57378241)
(154.0769587 -1.835386584 -4.656231961)
(155.6167612 -12.2360102 -16.94246161)
(166.8636695 10.44228263 2.246875055)
(165.5292073 -22.01957005 -6.193734574)
(160.4879599 14.08781163 -3.660417391)
(176.8520457 2.862878587 -0.09918403777)
(162.1769197 5.221510577 -24.42688464)
(184.581581 13.80212517 -38.36761899)
(200.0590128 13.75014862 -13.72855713)
(201.7020191 29.71478106 4.632365898)
(206.0780158 15.34865728 20.00997404)
(184.6424664 13.13723917 2.3040624)
(183.0317034 23.33549939 -5.646683536)
(189.5306785 18.34842843 14.56440782)
(183.7439852 24.90853777 -7.228422391)
(172.0106582 12.37908469 -4.186456616)
(187.0612529 25.20115328 -9.43209651)
(177.5447436 22.86455971 -25.25820772)
(177.3440976 34.19839127 -5.34365034)
(177.868233 26.46466601 -7.859869381)
(177.9504376 17.16039455 1.642892548)
(184.1219801 11.60083752 6.428639028)
(154.2261853 -10.12075383 -5.769663721)
(153.5437259 -5.109637411 25.55420214)
(157.8709753 8.358721262 17.04031588)
(156.0449253 -11.1020575 3.712238482)
(166.5926153 -10.88700371 -8.266297443)
(161.0224356 5.102946173 -10.4074074)
(184.0418975 4.689523078 25.37757085)
(162.5361517 -17.67139614 25.56890761)
(167.3729204 2.51710109 32.88882959)
(185.4538086 -11.05398438 -5.441520276)
(183.8521405 11.39823219 -15.31161464)
(160.0186585 -4.098307227 -1.228961989)
(159.3471929 14.03197656 -10.5197645)
(176.5867436 0.3621630178 -9.556794583)
(171.9840907 7.385083379 9.855961244)
(174.3711417 16.58594298 -12.37737209)
(187.3284002 5.072168195 16.09931086)
(208.1652271 18.2518534 -7.698160551)
(183.7804839 14.21775617 0.8373573343)
(181.3557363 20.77933131 11.89771938)
(189.8707807 20.14403292 0.2144661454)
(186.4928045 8.661869363 -6.532749325)
(189.3767842 23.28501406 -7.30336316)
(177.1066659 35.06219439 -15.9272075)
(186.0841344 18.93221532 -18.04400623)
(189.8629387 14.40504743 -4.718406618)
(181.1500268 15.7196362 -1.984545435)
(169.4716263 19.2208681 -4.312817991)
(166.2585988 -30.52495673 4.106128753)
(167.3150732 -13.2979077 7.407946056)
(152.918454 -18.96488352 0.1090318813)
(152.1008352 8.774292293 7.492843687)
(172.9811214 -7.356700385 4.01999054)
(169.1344859 -6.28420588 14.56994987)
(160.2007008 -11.87741572 8.945308615)
(152.8225064 6.550222893 11.0490795)
(158.0287322 6.800507486 17.48971188)
(176.9340781 -29.24009805 23.92034561)
(174.9514535 -2.66236107 18.85661285)
(178.4973639 -7.062755885 -5.148372309)
(192.2400726 11.32059043 19.57948988)
(206.2728191 6.312172234 20.61071603)
(175.0338913 14.25087486 37.14063695)
(166.5006813 -4.003369476 20.99851009)
(183.9836848 10.65429312 18.37779316)
(175.2427023 4.320317475 24.31686582)
(186.4095775 1.952821756 2.788227685)
(185.1217178 20.50398646 -7.055184388)
(184.6085641 13.10077344 -8.237039934)
(176.3599477 13.53189086 5.958517376)
(179.1111357 16.19193608 -0.5799692666)
(161.7540968 9.216945517 -4.276323104)
(154.8481197 23.83583446 -5.105614861)
(170.9193555 22.47942206 -14.58168406)
(160.1545441 15.96547743 -7.917314802)
(140.8442532 5.04966143 1.200193057)
(170.0773736 16.0419925 5.002353341)
(164.407019 10.92973502 10.15301336)
(137.7064272 -21.41174335 2.664750097)
(131.7156465 -13.86497735 16.16661713)
(137.5716971 -17.06805087 -7.299530085)
(147.0982667 -9.219773772 -10.19120034)
(165.4663516 -5.86270751 3.843045293)
(156.1603834 4.336343208 -7.781622251)
(152.1788959 -13.9456483 -10.91836398)
(171.7927623 9.643664668 7.577755294)
(176.2509304 -13.87287187 5.086413625)
(177.8389079 -10.30234629 22.16422083)
(159.0399982 -14.6011398 11.97640022)
(173.6129896 -6.423666824 7.918768683)
(158.1119751 5.899300868 6.839529724)
(160.1311056 -12.15260764 6.888981222)
(189.6893139 24.0097331 16.75872592)
(174.3577411 0.6594757208 6.491461645)
(170.2756123 5.602651418 -12.38447622)
(186.765044 8.815999693 15.07917384)
(172.920238 -7.137094094 18.34553485)
(175.4682049 8.193545723 2.458251358)
(169.963961 20.84203372 24.28638592)
(162.1482567 6.768304185 31.33889172)
(173.5586798 15.3184562 21.93149979)
(167.1223803 12.83353766 -3.388000921)
(169.719472 21.9696792 19.69503472)
(163.5659371 22.94516993 3.682490806)
(184.0856518 15.06477267 0.5772466019)
(179.5800817 -0.8623848352 12.65454026)
(176.052506 2.551979916 1.016372319)
(183.5194789 13.32405036 7.699464461)
(132.7520611 -6.932340322 -0.1350314492)
(133.1488867 -14.69609292 8.635276514)
(130.3209397 -12.45133678 -8.740599031)
(139.261132 -23.35859234 2.291066582)
(142.4163554 -17.75838662 1.345251599)
(155.5101817 1.854858674 12.02048219)
(159.3064053 -21.33694521 11.42735886)
(166.1698802 7.377021349 0.3420842227)
(174.1268376 -8.580211948 0.4076154337)
(161.8286894 -9.709337192 13.62042309)
(155.0323127 -5.565275662 17.15508143)
(151.7513297 -7.891273253 14.45066865)
(165.7767466 -2.992744459 -5.648646321)
(166.1734186 -7.554506796 -7.821926879)
(163.584251 8.701400566 0.5509989392)
(174.9024711 -1.719065107 30.3563492)
(185.6510875 6.121599973 6.849964102)
(165.3611215 6.997270444 5.666489641)
(173.6789038 1.590926498 11.55479121)
(192.2281588 -13.04838865 -9.756800969)
(200.0644384 19.02855405 18.89870052)
(204.0185207 14.44027812 18.64599246)
(188.3846295 9.67830577 18.44243494)
(188.411023 24.54497005 12.934435)
(195.9552966 23.17784087 9.333255892)
(200.0382556 18.2421992 14.10567758)
(203.2357341 5.340227798 18.59544068)
(177.8142653 4.968183787 -11.04793216)
(185.5996908 -4.832758624 -11.30498249)
(172.5010295 11.49471587 5.966054504)
(169.0860438 -11.54117092 23.01764481)
(152.6240425 -16.43535558 24.67059758)
(152.1278615 -2.721746412 18.37261483)
(152.1460816 -22.75821305 12.3293333)
(149.6695667 -16.38943638 19.25160674)
(164.1388832 -1.500524872 25.87461018)
(153.9458735 -12.6280893 21.76828426)
(140.6922486 -4.397849582 8.909131944)
(152.3092606 -6.359390104 -0.5894991483)
(161.9290337 -10.45831394 -2.011962429)
(158.7298863 -6.88424481 15.38135189)
(162.3816664 -18.22639356 10.84374611)
(155.3326586 0.7894773816 10.80956602)
(154.6667602 -17.59724791 -11.4415729)
(167.678323 6.106885325 0.7030884885)
(181.7449275 -6.446421992 15.36645664)
(184.7538746 6.763723794 13.69688794)
(186.6824235 2.429064893 20.66915645)
(180.1379489 -3.633038661 4.640661676)
(161.7363473 -14.09751021 4.097567993)
(172.5943422 18.64078223 19.74566702)
(179.0764461 8.418906288 11.43941488)
(174.7084559 19.84052785 5.438724298)
(176.2483428 0.1005048365 1.079102228)
(191.8795705 17.96507859 -3.128804075)
(193.8567473 18.03129823 7.597105204)
(177.8393158 2.321513345 5.903456865)
(178.8166206 8.505517639 5.917804187)
(167.104173 -2.66749964 -6.409000315)
(174.7829129 0.9289201084 4.733046981)
(139.1822633 -27.2897163 -7.240813405)
(133.875009 -9.746811829 -0.1652567895)
(150.7083754 -19.35540427 17.57037911)
(148.0884594 -11.01804297 5.962408366)
(132.4541922 -16.84074939 -6.406314504)
(149.4550578 -1.155862957 30.33494276)
(146.25327 -7.239981683 15.28195642)
(158.1731187 -6.333319753 5.701609214)
(158.0242891 -4.999774163 2.746683481)
(182.7038936 -17.310967 3.176061829)
(195.9794373 -13.74839881 -4.312313909)
(181.0943712 -15.88597188 5.304565118)
(195.3776038 -8.771154727 22.91299028)
(195.045234 -3.655364233 1.97265896)
(171.8805171 -0.2352206768 -2.729320697)
(172.3998103 -4.126599785 16.56326782)
(182.4453716 6.398904096 10.7319091)
(184.810283 3.122195903 7.534654948)
(153.7337362 -0.2314750366 3.994672214)
(148.0984623 -17.52669153 -10.23471124)
(161.574448 7.979864221 9.323517438)
(174.4600974 2.857057641 10.40010327)
(185.2141388 22.6138568 10.73326722)
(165.4597593 4.84612941 3.907963453)
(165.1006162 3.787164977 7.635758447)
(172.8730195 11.88558329 24.74241304)
(172.4634764 9.757342246 22.75916792)
(174.1823088 5.164762262 -17.08196936)
(166.0088882 -9.087117754 3.164235895)
(167.6321103 -0.5406842326 -21.09464633)
(115.9528039 -24.65770426 -1.672854303)
(136.2549662 -27.60851636 1.292529303)
(149.9828094 -21.34593181 20.8317933)
(145.0751966 -8.02092845 5.429349609)
(126.7441875 -8.551691913 10.84934069)
(118.4659037 -14.46234072 18.22967265)
(125.3415942 -20.76515213 2.701181609)
(143.7054608 6.412140733 9.792224632)
(173.1394769 -36.59285705 10.75894672)
(166.978727 -26.3031699 22.48133734)
(170.8889334 -12.80099628 -22.0153622)
(181.1448702 -27.96969653 -14.30166333)
(180.2780163 -8.415373712 6.177700016)
(167.627394 -0.9115620713 6.826566323)
(171.5685773 -2.373313959 16.02097631)
(184.9914584 -0.2584488235 19.50682073)
(192.5303082 3.690432822 4.468451361)
(179.862264 5.077937742 36.9683167)
(178.8801464 1.623676556 18.2313047)
(181.9150362 -7.461412304 10.37003253)
(193.1203276 -2.592853536 -3.365169492)
(171.4757968 -5.608097937 10.11319986)
(176.8024257 21.00797422 9.905188197)
(192.5014522 13.84077998 10.25983074)
(164.8225309 2.065307443 -3.515188445)
(181.1072977 -1.023915772 16.18176101)
(179.1319178 8.699004953 22.9079228)
(172.0130828 2.893207109 1.616453725)
(154.4829503 -1.986694567 1.774869504)
(141.9259935 3.190838857 7.346131845)
(139.0611472 -37.85187076 8.275520945)
(140.2714487 -27.34187007 25.89330863)
(135.1594282 -11.30735418 15.46132323)
(135.7624944 -7.720320193 14.78580668)
(134.1626128 -2.176245529 6.822580353)
(128.7660446 -14.01215321 24.93071022)
(150.6280458 -32.55649079 -4.169283964)
(168.8126732 -12.86413819 3.439999757)
(151.6159113 -24.35426505 11.85781997)
(147.1680931 -24.51620399 4.874708862)
(170.9619317 -27.09802019 -8.892553895)
(181.2620526 -26.95901314 -11.81606627)
(182.1922008 -3.820004595 2.528333663)
(166.6738013 -13.43583959 16.17266183)
(169.6136702 -5.188164426 9.951575497)
(188.4984084 1.809230185 7.578030135)
(180.6216368 -0.2829415544 20.76819038)
(188.6649587 -4.190902239 28.52472011)
(185.5852016 -3.125725117 17.04913288)
(177.6817328 -8.695994728 -6.109251979)
(176.5868256 -0.5860920614 -7.902522122)
(154.8199686 0.5364308499 -7.316471721)
(189.1702 2.90140679 2.110961629)
(194.9112821 18.91941082 7.873618832)
(195.5890394 1.440178782 -0.03544059163)
(189.4149185 -0.6366186629 2.945257016)
(163.0655145 14.24041407 8.678291871)
(150.3534438 4.186738909 -4.098958772)
(146.9384372 6.889056532 5.282543941)
(157.7702472 -4.635546756 -4.991534281)
(127.1029038 -20.67928257 5.726604805)
(119.8998039 -30.33738901 13.57153086)
(138.7065057 -28.412166 10.67764456)
(121.1213034 -0.6117894761 0.7816577609)
(131.6550585 -1.301215356 13.09659428)
(130.1792428 -33.32705788 5.412570987)
(136.5391991 -27.20370117 -1.764873025)
(139.593879 -22.18202102 23.57083769)
(144.8434533 -23.51491499 14.30962465)
(166.4678176 -29.8494081 -0.08139039584)
(154.094497 -31.5667237 1.942737319)
(147.3636087 -22.43734308 6.223984575)
(138.7381637 -3.496666974 -8.985369655)
(159.1675971 -2.582461483 5.392492106)
(163.5021761 -17.11209741 -4.159662312)
(171.996563 -3.943579905 16.13510743)
(174.5475165 -2.121747573 10.03052729)
(183.8341619 -3.370261151 -3.145610962)
(177.1165899 -12.29824325 16.46675434)
(169.9481937 -3.296526759 -3.183945039)
(189.2278306 0.006238439566 7.149242641)
(198.3217649 0.7837568133 -14.25381743)
(177.9728934 -1.287232219 18.61346505)
(178.0440541 14.65557869 4.303465874)
(187.8082909 6.71929403 3.810981438)
(156.834487 -0.4281437645 15.20378389)
(157.0900302 8.059022333 25.04953246)
(165.4200765 -0.4735961646 0.7385333942)
(167.6148509 -0.8373393099 10.47490708)
(179.1300588 5.203707329 4.832852025)
(115.3170045 -11.73717196 1.572968781)
(107.9887424 -19.95110136 23.56279728)
(114.3274099 -32.10955974 19.60973079)
(123.9479317 -7.714552137 15.7844262)
(133.3945126 -9.644862743 21.9545974)
(145.2393871 -41.18473568 21.06683048)
(150.9831241 -18.64078068 11.28536429)
(138.7368178 -25.94397284 0.282414084)
(140.8368184 -22.10975981 -4.792627388)
(137.7270754 -40.87364237 -4.696628463)
(155.4117385 -20.64303653 5.159239665)
(130.4605586 -8.777133608 7.754023046)
(149.1273211 -25.50009722 -5.59950519)
(144.3250111 -9.641894985 -8.597909337)
(162.7451973 -17.04686606 2.400116783)
(155.3704845 -22.31402984 -0.203058424)
(182.7636118 -6.159910745 -4.33662962)
(168.7196174 -11.72979876 0.9471974857)
(176.3745925 -10.72706208 -2.456063281)
(183.0131643 -4.122237907 -5.33593567)
(155.1698923 -3.739128433 -14.66936077)
(156.7790684 1.3837465 10.40872228)
(172.0550095 -4.970923359 22.26818631)
(175.5222223 5.589627924 7.044091853)
(191.8193711 13.33724791 23.10574702)
(183.4147043 -4.426132606 7.896762385)
(171.321938 13.6381289 4.170405547)
(170.7940845 -2.461876299 28.70835594)
(171.8714698 2.633201543 15.93215167)
(161.7397066 -2.519151871 5.962435345)
(110.5330148 -19.20564704 13.85109839)
(119.4011569 -23.31040635 19.19639152)
(114.5429804 -22.23431214 17.63870959)
(126.8041315 -15.86835881 2.464795219)
(122.6327678 -25.94360356 -7.640473647)
(122.0961033 -36.90382657 3.654129277)
(134.9869534 -24.72784441 -7.921776521)
(122.4723491 -24.15056835 -18.69218306)
(139.4397731 -27.98072976 -10.0408991)
(143.3437338 -28.61708001 -16.05347802)
(134.2097463 -25.79820641 -9.600936863)
(154.7553132 -17.47775001 8.960849943)
(164.0779138 -21.75020082 18.2476651)
(160.1425687 -18.68904907 16.506907)
(140.6000663 -15.42761128 7.828130916)
(162.8980511 -20.28728885 13.46893593)
(160.8837634 -19.82752972 -3.898386318)
(169.4396605 -4.997649785 7.124626597)
(158.0806326 -8.937492142 11.24711704)
(167.6614774 -8.777987962 13.57037389)
(179.8528657 -11.68833167 0.2924954207)
(176.9336309 8.081207343 13.25435599)
(148.3703671 -9.216229634 4.883639592)
(162.0791849 -2.669160531 15.14324063)
(187.8912722 -4.160501938 12.12105905)
(165.1375789 12.71649379 16.54052054)
(162.8020709 1.066173617 -5.490145362)
(164.3745655 -1.200268658 6.034446159)
(160.5452247 -0.6965361054 10.54660509)
(162.3005202 -3.18176436 -7.178229076)
(102.2875035 -28.87755239 0.977417278)
(107.3174792 -23.03209711 26.68436593)
(113.1920357 -29.62133518 24.26467222)
(105.2674896 -18.66057922 24.10012539)
(145.9948367 -28.22333796 12.81351373)
(128.5625556 -29.72640224 7.971250941)
(129.7095203 -36.1642913 18.3976354)
(148.1720213 -9.887767623 -0.4411694152)
(132.6188705 -30.48101654 -3.438991439)
(130.8411768 -29.247997 25.19958985)
(149.1088053 -40.91260101 -12.75626543)
(155.7672966 -24.69869198 6.278106523)
(169.510971 -23.7758496 13.86538132)
(167.9801899 -17.80019836 8.356230846)
(157.2337022 -12.18591526 12.62696392)
(137.9721652 -13.50976958 7.036690553)
(126.1386527 -26.46737349 -23.18822918)
(131.9825916 -10.59718373 14.71627928)
(146.4429959 -4.977303527 -1.414254048)
(153.5884928 -20.82100992 6.378285064)
(153.3717753 -13.76072635 13.90327042)
(145.9323635 9.760512561 1.698035934)
(159.8796781 -12.7675694 20.10666716)
(163.1685723 3.775730664 9.632859721)
(143.2359165 -10.46790693 21.58935953)
(179.1244119 -2.964388021 7.326279597)
(162.212842 -3.553697919 6.166669994)
(153.1799224 -3.397223661 9.240066288)
(153.4658783 2.068336191 -5.831235604)
(155.550862 -1.595977537 -9.415617045)
(101.5315641 -26.62615877 18.50193679)
(104.0381832 -31.228902 -4.893621844)
(103.011343 -23.53077846 8.789647074)
(108.1906192 -34.33055231 13.28789452)
(110.0307995 -33.20667947 2.164795597)
(128.9217658 -35.50705735 13.3150317)
(120.0018746 -33.97372147 12.08223121)
(121.9903452 -25.34724177 11.02875134)
(132.8543505 -29.05740358 -1.109726032)
(137.7544545 -29.33957699 10.2942231)
(146.431828 -39.62758948 16.57108702)
(134.0664211 -31.64807417 -12.35100427)
(137.2640291 -23.53994358 -2.390185458)
(141.6332784 -21.20423077 16.41181711)
(154.3987124 -10.65467224 17.83293029)
(152.3000446 -16.16606251 8.429224929)
(152.6506803 -8.344613162 11.03328026)
(138.3194037 -16.65540332 -2.629857494)
(156.511518 -12.9031185 1.362158122)
(156.5084338 -22.19296315 6.839292706)
(154.777622 -12.57031341 10.01130852)
(173.0654431 -11.77147168 7.324826063)
(159.7503788 -7.600089338 -8.710147301)
(164.2799867 1.745748945 -1.554554007)
(174.1104138 -7.322618782 7.139959176)
(165.5141196 -10.85397391 -4.390605568)
(149.7450725 5.782002434 1.886464863)
(155.9310359 -7.59611151 -4.450252914)
(135.2378811 5.347670378 -14.3900205)
(138.3463854 -2.830727658 -21.17990074)
(95.81952239 -12.6505491 13.07698384)
(102.1242872 -36.3313559 9.279888441)
(106.6485959 -27.10203833 16.91883894)
(119.8338185 -45.6903835 10.94802821)
(126.7138988 -38.72336784 17.48687728)
(112.1972345 -35.46691456 9.87605708)
(118.7278495 -33.06681857 -3.633318411)
(109.4224006 -30.00193671 -5.254649726)
(122.2656555 -24.18380383 14.72697933)
(124.7292386 -36.87982431 14.98398503)
(138.4316344 -39.38457261 22.21336535)
(140.1152267 -21.65362072 8.133644936)
(138.2633871 -26.33400289 19.40348685)
(150.2833193 -23.04788873 16.43982848)
(144.9187248 -17.78154514 -8.256182427)
(147.6961777 -19.15352214 -4.152554605)
(148.756367 -12.88304413 -8.902875163)
(147.767066 -18.31887189 -1.596842246)
(151.2225837 -21.36510037 -26.31884391)
(155.0206273 -26.07889882 -16.92855396)
(161.9584859 -7.368375876 6.245519786)
(168.0121123 -12.04972725 11.4756503)
(159.3697183 -16.24371475 -2.652270567)
(164.5116819 -0.577394128 -0.2927013311)
(157.2928217 -1.294093875 -2.648799457)
(139.3926963 -11.26937239 -1.409764947)
(149.9860815 2.653478874 -12.2394445)
(132.8869545 -0.4967390375 -9.08453436)
(126.7491365 7.864213489 -2.296874806)
(135.6769476 10.37190344 2.887043538)
(91.60013344 -25.87897308 4.800793083)
(95.97287266 -29.48757425 -6.538280014)
(109.8762058 -40.54725609 -1.362862628)
(119.7235963 -48.03038262 14.49231233)
(119.7278763 -29.14575051 10.70093467)
(115.6036705 -31.42738866 7.997692778)
(121.0249555 -41.28856116 -3.077982078)
(126.7077822 -37.72021364 -0.02188148777)
(121.2461947 -31.76729968 4.527603741)
(133.2897742 -39.87863294 6.837099889)
(114.97078 -39.66523808 23.59407764)
(129.1179673 -20.81904797 13.42121376)
(126.7363065 -28.48963282 9.417258715)
(125.2020057 -31.67078132 12.47719711)
(136.3118981 -11.18907148 -2.260048608)
(148.3351148 -23.43659647 8.830922311)
(148.8603907 -13.44143538 -10.24815472)
(153.1370892 -12.24720703 -5.060951753)
(127.4168757 -26.96472807 -4.36754216)
(121.0577178 -19.70348219 -18.46527324)
(121.1604019 -23.91258838 0.3326039776)
(141.2884513 -7.463314833 -1.293959454)
(129.8714073 -14.59657459 8.358707929)
(126.6532116 -1.01327712 -3.928485559)
(121.2403476 6.294516059 12.96781377)
(115.1845806 -2.151537814 -8.420346719)
(122.5895383 -9.384624851 -13.53901888)
(128.5741706 -4.956073938 -5.400557427)
(133.651069 0.9698591528 -20.91703612)
(138.0674001 11.83760674 -19.15518101)
(94.77820302 -30.43175094 10.41442708)
(98.48972136 -47.94813948 7.595514206)
(113.3809209 -41.80493998 -0.5341696501)
(109.0043263 -37.59349905 5.309040519)
(104.09262 -35.40685595 -5.295224989)
(126.4518785 -35.03041038 7.764902103)
(118.3412992 -51.39183852 2.536760028)
(118.4668629 -27.258934 6.460509567)
(125.3221241 -27.91783692 20.08466832)
(120.4450924 -44.9811448 11.69185155)
(117.1236576 -32.05306954 9.739458694)
(112.7531424 -36.4759041 -7.856314558)
(113.8651881 -32.83686031 -5.271882356)
(122.4459481 -17.82642174 23.10087696)
(120.80753 -24.92241252 5.733022572)
(115.8190245 -20.46413022 -12.26668032)
(115.4218604 -26.83294404 -15.77282991)
(142.164222 -12.06751847 3.13871502)
(138.8712903 -17.23962951 4.036715164)
(132.507175 -15.93722849 -16.29003067)
(120.77583 -22.03900062 4.601664837)
(113.4315701 -6.00794349 6.713766148)
(117.5716799 -23.8947712 -8.289750494)
(119.4349268 1.966660892 3.362753233)
(120.3742647 -2.829570623 -3.572278533)
(126.5534389 -1.037345024 4.409749363)
(120.0641532 -8.461771223 -3.416241955)
(112.3737531 -7.487874619 -14.22170044)
(116.6817679 -1.057602143 0.002592608775)
(115.5125542 6.469163112 0.1558349548)
(92.87595224 -32.08939833 4.736390351)
(106.9087909 -44.79960069 -0.7656829261)
(107.9240168 -42.58164552 2.297024495)
(102.159604 -40.88385505 17.56153996)
(98.25646525 -30.90827141 7.423029683)
(99.04392715 -44.50871957 -0.409128863)
(92.47441355 -31.63350215 3.176477567)
(85.10443151 -40.64369267 16.31544127)
(116.3592807 -26.27166574 11.18471281)
(124.5282292 -49.61710873 3.98622539)
(124.9433067 -28.32169095 1.473293799)
(116.8454423 -28.1834866 1.004276817)
(105.7623866 -38.35716677 10.38842032)
(109.9007011 -28.45554657 22.26759322)
(126.1212212 -18.62310904 -14.38530264)
(111.9959909 -17.00615422 -6.54290167)
(118.018057 -28.60999959 4.932365012)
(134.2144898 -21.51223328 -1.731520057)
(123.4127209 -20.40617166 -0.7930608699)
(111.9093222 -9.841012369 -12.16215513)
(115.6403257 -8.700507974 -8.757565285)
(123.5444891 -14.31111835 7.766961073)
(104.638303 -19.27862339 1.971457506)
(110.0937667 -3.351812742 18.74933999)
(108.5993429 2.171624983 2.158867678)
(101.4156845 -12.52539528 -1.04744594)
(103.2664469 -0.2776290968 20.8583157)
(93.64410051 -4.866356437 -9.562641259)
(98.58581024 -5.480652538 -5.505547647)
(99.61737165 9.657861415 4.508872876)
(91.0801162 -35.80512584 -4.519384877)
(84.51450918 -43.77588348 1.66066729)
(78.02130393 -41.94271399 15.4348575)
(71.05472741 -36.49027526 20.09307746)
(69.76035461 -14.33141103 14.42949688)
(61.83785189 -44.88004388 -2.64194827)
(75.92759381 -34.68236336 -14.00807372)
(80.47411701 -47.80919635 -1.618108402)
(87.45264889 -48.49571321 7.192707282)
(96.63039528 -35.25830082 12.49895284)
(94.57137061 -31.74876975 13.38968731)
(111.5671139 -27.16846726 10.86832664)
(98.46194201 -32.67255759 3.865143353)
(88.19796735 -30.55073842 13.88186705)
(91.77620903 -18.6485512 17.35221186)
(93.95274194 -23.12262278 -3.953761357)
(97.20550186 -28.13128815 6.635938173)
(87.04031798 -23.68057791 -7.129250025)
(91.38237166 -14.53463348 -6.549447105)
(92.19196986 -14.60414686 -3.313747655)
(95.50643175 -12.87044711 -10.33168243)
(96.25345465 0.826283739 -4.719970511)
(90.33283027 -17.700833 8.101139931)
(93.39162989 -6.590614789 6.290386281)
(94.59634042 1.874242317 15.70643428)
(99.17033847 -6.831212835 23.83325416)
(99.03069632 -7.298280072 15.74622663)
(103.4100365 -9.592863946 6.356459377)
(94.88650339 -0.484695415 -0.4837660453)
(100.9132911 -0.09401251425 -0.2247536882)
(92.68337648 -31.69761775 2.215394694)
(78.40782797 -31.04442848 -1.936531374)
(72.31058743 -36.11993404 8.24378001)
(71.23063479 -25.22232231 8.938657965)
(64.24965756 -26.85604248 -4.245076401)
(65.63077854 -38.00494489 -2.473976388)
(59.57223746 -36.0397542 4.38305502)
(66.54981823 -55.86342686 -4.198666596)
(68.31263661 -45.46829962 24.6053643)
(79.6885177 -47.35274195 25.41550626)
(71.35007448 -27.3400197 2.878024351)
(72.87399357 -33.11311262 21.30494371)
(71.39229897 -24.23431519 6.659113537)
(61.73794482 -27.16517104 2.574652822)
(69.69446309 -19.75244158 19.2466)
(75.25609003 -26.67964375 -6.144819905)
(77.49620081 -28.27641304 -2.161505654)
(75.16316015 -31.29474347 -12.83268073)
(69.92436824 -3.301116362 -20.93869971)
(70.70700674 -22.11513581 -5.845258878)
(73.44877773 -11.25095101 -9.815913496)
(78.9480602 -10.70441944 6.487125872)
(93.69229461 -7.930668637 -0.8148533568)
(77.20755173 -4.722776828 10.16280136)
(75.71391138 -5.684753197 11.60492162)
(79.54351565 -8.061394808 15.13707674)
(79.1446722 -7.498694295 20.41382398)
(75.46776152 -9.702203566 -8.307224141)
(74.29984044 0.261385038 11.03789953)
(74.52570177 4.417977616 17.1022322)
(53.28136513 -12.16253005 6.276134077)
(58.55977131 -30.95073647 -19.0291857)
(57.99868885 -21.49641657 14.52712155)
(58.25245494 -16.9076078 15.79914429)
(64.57902706 -12.29322325 6.067847682)
(56.37558012 -26.27449634 1.235683589)
(59.01578449 -21.21740301 -3.531262746)
(40.42884351 -46.55976215 7.675747474)
(46.30834001 -40.19251085 16.16952011)
(26.40065103 -33.33241043 29.56770996)
(40.23028185 -19.54943316 10.29989661)
(41.91794071 -29.26067928 3.333523794)
(51.02971049 -13.34696062 10.92129502)
(51.92247553 -25.41654187 12.10812477)
(48.36145047 -11.59231339 9.029007705)
(62.14574851 -19.82662857 1.932536002)
(47.63696602 -17.27380402 -9.365539391)
(37.00901468 -13.98426391 -7.853866811)
(44.50414565 -0.7973397876 -25.10524862)
(47.41329929 -16.47520053 4.034995426)
(53.31046517 -7.38013278 10.29102393)
(70.81582416 -10.50837679 -14.32707298)
(59.78297879 2.898662908 -12.10483248)
(51.25504291 9.711189414 4.440549779)
(64.44730589 -4.968332756 17.60939647)
(54.95479983 3.846111728 7.550617302)
(48.32090384 -2.028664372 0.8315124)
(58.9328179 -6.042194993 -19.42701303)
(52.873837 15.83146058 -7.337193099)
(51.02162227 16.87828808 15.92972767)
)
;

boundaryField
{
    flow
    {
        type            calculated;
        value           nonuniform List<vector> 
55
(
(195.9564307 30.00588111 -3.192837232)
(181.3963977 26.53491733 -14.38352129)
(212.0312053 28.87059657 5.252087857)
(170.6183871 20.49047662 12.57378241)
(184.1219801 11.60083752 6.428639028)
(169.4716263 19.2208681 -4.312817991)
(164.407019 10.92973502 10.15301336)
(183.5194789 13.32405036 7.699464461)
(172.5010295 11.49471587 5.966054504)
(174.7829129 0.9289201084 4.733046981)
(167.6321103 -0.5406842326 -21.09464633)
(141.9259935 3.190838857 7.346131845)
(157.7702472 -4.635546756 -4.991534281)
(179.1300588 5.203707329 4.832852025)
(161.7397066 -2.519151871 5.962435345)
(162.3005202 -3.18176436 -7.178229076)
(155.550862 -1.595977537 -9.415617045)
(138.3463854 -2.830727658 -21.17990074)
(135.6769476 10.37190344 2.887043538)
(138.0674001 11.83760674 -19.15518101)
(115.5125542 6.469163112 0.1558349548)
(99.61737165 9.657861415 4.508872876)
(100.9132911 -0.09401251425 -0.2247536882)
(74.52570177 4.417977616 17.1022322)
(51.02162227 16.87828808 15.92972767)
(53.28136513 -12.16253005 6.276134077)
(58.55977131 -30.95073647 -19.0291857)
(57.99868885 -21.49641657 14.52712155)
(58.25245494 -16.9076078 15.79914429)
(64.57902706 -12.29322325 6.067847682)
(56.37558012 -26.27449634 1.235683589)
(59.01578449 -21.21740301 -3.531262746)
(40.42884351 -46.55976215 7.675747474)
(46.30834001 -40.19251085 16.16952011)
(26.40065103 -33.33241043 29.56770996)
(40.23028185 -19.54943316 10.29989661)
(41.91794071 -29.26067928 3.333523794)
(51.02971049 -13.34696062 10.92129502)
(51.92247553 -25.41654187 12.10812477)
(48.36145047 -11.59231339 9.029007705)
(62.14574851 -19.82662857 1.932536002)
(47.63696602 -17.27380402 -9.365539391)
(37.00901468 -13.98426391 -7.853866811)
(44.50414565 -0.7973397876 -25.10524862)
(47.41329929 -16.47520053 4.034995426)
(53.31046517 -7.38013278 10.29102393)
(70.81582416 -10.50837679 -14.32707298)
(59.78297879 2.898662908 -12.10483248)
(51.25504291 9.711189414 4.440549779)
(64.44730589 -4.968332756 17.60939647)
(54.95479983 3.846111728 7.550617302)
(48.32090384 -2.028664372 0.8315124)
(58.9328179 -6.042194993 -19.42701303)
(52.873837 15.83146058 -7.337193099)
(51.02162227 16.87828808 15.92972767)
)
;
    }
    obstacle
    {
        type            calculated;
        value           nonuniform 0();
    }
    frontAndBack
    {
        type            empty;
    }
    procBoundary3to1
    {
        type            processor;
        value           nonuniform List<vector> 
36
(
(187.6221555 32.27051525 -13.06663034)
(210.1736758 33.50767604 -6.178153547)
(228.3132814 36.52733083 4.94879323)
(219.8336607 39.56070957 5.963457699)
(204.4155948 43.42741954 -4.899014657)
(207.1834279 39.88226415 -2.614069168)
(207.1834279 39.88226415 -2.614069168)
(235.0310759 30.56673296 -12.89897793)
(224.3902146 25.75440262 14.60776929)
(212.6787174 32.25038716 1.086305854)
(195.7364909 45.89098048 2.686551095)
(197.5959114 36.73604889 -7.48304627)
(197.5959114 36.73604889 -7.48304627)
(192.5916235 17.53831449 -3.240318402)
(184.8296562 20.08046522 -7.667488069)
(177.7482732 10.24467255 -18.56137683)
(180.9688589 27.86014075 -20.32472992)
(198.6562701 7.356593716 -12.82491796)
(198.6562701 7.356593716 -12.82491796)
(163.6146275 1.024441059 0.06846447074)
(166.0331651 -2.941429516 -1.645761816)
(176.3848781 10.18309157 2.81793278)
(185.6504712 -12.28665027 23.5139502)
(193.4712974 17.29067845 -15.126723)
(181.6654134 4.717337636 -1.359928321)
(181.6654134 4.717337636 -1.359928321)
(148.5757211 -14.83916588 5.715641575)
(151.7822452 2.086193566 1.330689255)
(144.6761246 11.83166628 -15.56716751)
(154.826229 -21.04566094 -10.00153292)
(160.1884439 -5.632555542 -31.04500701)
(172.9766191 -1.770109093 -7.821596474)
(172.9766191 -1.770109093 -7.821596474)
(137.9562538 -32.00750803 -10.83836437)