/*--------------------------------*- C++ -*----------------------------------*\
  =========                 |
  \\      /  F ield         | OpenFOAM: The Open Source CFD Toolbox
   \\    /   O peration     | Website:  https://openfoam.org
    \\  /    A nd           | Version:  7
     \\/     M anipulation  |
\*---------------------------------------------------------------------------*/
FoamFile
{
    version     2.0;
    format      ascii;
    class       scalarField;
    location    "0.005/lagrangian/dsmc";
    object      Ei;
}
// * * * * * * * * * * * * * * * * * * * * * * * * * * * * * * * * * * * * * //


95792
(
5.36275e-22
1.64935e-22
1.02206e-21
5.52293e-21
5.58559e-21
1.24999e-21
9.70285e-22
1.11177e-20
9.26264e-22
2.42241e-21
1.9687e-21
7.40831e-21
6.78592e-23
3.74776e-21
6.41751e-22
1.94684e-21
3.89849e-21
7.80939e-22
1.58561e-21
1.76167e-22
2.34965e-22
1.49674e-21
2.36433e-21
7.49216e-22
1.954e-21
9.08421e-21
1.98623e-22
2.33822e-21
1.39279e-21
1.78247e-21
7.76321e-21
6.18301e-21
7.80634e-23
2.2239e-21
5.36511e-21
3.17566e-21
1.8745e-22
1.8787e-21
2.18771e-21
9.78284e-22
5.64871e-21
6.71539e-22
4.16781e-22
1.31186e-21
1.21416e-21
1.02232e-21
1.42609e-21
6.7286e-22
6.9635e-21
9.58217e-21
2.28393e-21
6.76021e-21
3.35382e-21
8.93122e-21
1.1777e-21
1.34783e-22
7.49446e-22
3.19567e-23
1.26997e-21
1.13682e-21
1.17119e-21
2.38038e-21
1.97936e-21
4.95765e-21
1.66259e-21
9.76851e-22
4.10711e-21
3.28847e-21
6.66477e-22
1.21194e-22
2.73061e-21
2.43573e-22
6.25386e-21
6.88871e-22
1.60434e-21
4.54697e-21
1.11547e-21
4.67165e-22
1.69503e-20
7.90665e-21
1.39859e-21
1.06463e-21
3.43953e-22
6.00749e-21
3.47384e-22
9.68875e-22
4.51964e-22
7.7413e-22
1.48349e-21
3.2653e-21
1.67169e-21
4.70697e-22
5.79292e-21
1.59404e-21
1.89508e-21
2.70221e-21
3.21574e-21
2.1739e-21
6.84064e-22
1.2888e-21
7.30247e-21
7.78426e-22
1.1993e-21
1.59217e-21
5.20125e-21
8.49806e-22
2.27755e-21
3.55304e-21
1.78157e-21
1.06863e-21
1.29857e-21
2.09658e-21
4.51724e-21
1.68578e-21
2.62695e-21
3.47858e-21
7.74595e-22
2.10019e-21
5.85024e-21
3.53394e-21
8.62848e-22
3.01627e-21
4.89089e-22
7.53474e-22
2.69884e-21
1.62613e-21
3.48503e-21
1.4879e-21
4.459e-21
5.15866e-21
2.20121e-21
1.45476e-21
1.126e-21
2.92871e-21
1.20517e-22
8.81421e-22
3.06426e-21
6.70358e-21
5.13112e-21
1.22237e-21
8.47732e-23
5.53344e-21
2.48982e-21
1.6788e-22
3.40058e-21
3.71064e-21
9.75769e-22
1.28703e-21
4.77443e-22
1.38927e-21
3.92818e-21
1.57868e-21
1.3327e-21
7.76577e-22
5.99687e-21
5.05009e-21
1.06048e-21
1.02575e-21
4.05614e-21
2.3966e-21
1.40036e-21
1.061e-21
3.49584e-21
2.28135e-21
1.23542e-22
8.02429e-21
1.97999e-22
1.54864e-21
1.09025e-21
1.56037e-21
1.07071e-20
6.24905e-22
3.03325e-21
1.05967e-20
2.16433e-21
1.60467e-21
1.17373e-21
7.34448e-23
2.05348e-21
5.4446e-21
2.24019e-21
8.50731e-21
6.54919e-21
4.91502e-21
3.02953e-21
2.74187e-21
2.43887e-21
4.53199e-22
9.76717e-22
1.23527e-20
6.3117e-21
4.68403e-22
2.09828e-21
6.78495e-22
4.73352e-21
3.27548e-22
6.84481e-22
1.19802e-21
6.4746e-22
2.25002e-21
5.34572e-21
3.04353e-22
1.63963e-21
1.10178e-21
1.50684e-21
6.90929e-22
8.35941e-22
1.58719e-21
1.2859e-21
2.78267e-21
2.72166e-21
7.97124e-21
1.38284e-21
1.94127e-21
3.04416e-21
2.78367e-21
1.1638e-22
3.91759e-21
4.21485e-21
2.65564e-21
5.92913e-21
1.61379e-21
4.49482e-21
3.01224e-21
3.45738e-22
1.66444e-22
2.9327e-21
2.66028e-21
4.25622e-21
8.39894e-21
3.04991e-21
1.76225e-21
3.15669e-21
2.62534e-21
1.02314e-21
3.0636e-21
1.46448e-21
6.71295e-21
1.72389e-21
1.08932e-20
6.03568e-21
2.27566e-22
4.78337e-22
6.2461e-22
7.54745e-22
1.80237e-21
2.08426e-21
9.72742e-21
4.58006e-21
1.1875e-21
1.90824e-21
5.72003e-21
1.73354e-21
1.29262e-21
9.10525e-23
1.10686e-21
4.68418e-22
1.65763e-22
3.2657e-21
2.5138e-22
1.35002e-22
1.05114e-21
9.63698e-22
1.12492e-21
8.41596e-22
5.08419e-21
5.5225e-21
9.20909e-23
1.29127e-21
3.79913e-21
4.88961e-21
5.92783e-22
1.89207e-21
3.48631e-21
2.87083e-21
9.27563e-23
7.34846e-22
1.26616e-21
3.2378e-21
1.50251e-21
1.5222e-21
7.51465e-22
9.3675e-22
4.57114e-21
1.51939e-21
5.66046e-22
9.4353e-22
6.96487e-22
6.85481e-22
8.10683e-21
1.2335e-21
4.02145e-22
5.35469e-22
2.72098e-21
2.77097e-21
2.14277e-21
1.09222e-21
3.87487e-22
5.50664e-21
1.60001e-21
5.73373e-21
1.1743e-21
4.17153e-22
1.3289e-21
5.35353e-21
8.55562e-22
1.09094e-21
4.06428e-21
4.03725e-21
1.36637e-21
3.1342e-21
8.54663e-22
6.9072e-21
3.88205e-22
7.61854e-22
4.66767e-21
1.13452e-21
2.70563e-21
8.59886e-22
5.08677e-21
4.24646e-21
5.6176e-22
1.24388e-21
1.0561e-20
1.56474e-20
6.55923e-21
3.61274e-22
3.02723e-21
3.37861e-21
4.71063e-21
1.49768e-20
1.04599e-20
4.13486e-21
4.92886e-21
3.37029e-22
9.59572e-22
5.43449e-22
1.09309e-21
6.94362e-22
4.98652e-24
1.87169e-21
5.97957e-21
1.42017e-22
9.81391e-21
3.77981e-21
1.48594e-21
2.22422e-22
6.69344e-21
8.99282e-23
9.16097e-22
7.29883e-22
4.74944e-21
5.51032e-21
3.29211e-21
1.70349e-21
1.79851e-21
3.78435e-21
4.6373e-21
1.26488e-21
3.1712e-21
5.11474e-22
4.98055e-21
3.77609e-21
9.93992e-22
1.28579e-21
2.4772e-21
3.28371e-21
5.39774e-21
8.23569e-22
5.17333e-21
6.79616e-21
9.28767e-22
8.25179e-23
5.14534e-22
3.61967e-22
1.36809e-21
5.88166e-21
3.58929e-21
8.74222e-22
7.74777e-21
1.27706e-20
4.88157e-22
7.0623e-22
8.44445e-22
2.76411e-21
7.92264e-22
3.83755e-21
1.5937e-20
1.97182e-21
6.51676e-22
4.02667e-21
8.40009e-22
6.43764e-22
1.77837e-22
2.98909e-22
1.26641e-22
5.04031e-21
1.87701e-21
1.38681e-22
3.68307e-21
5.14612e-21
3.5432e-21
2.69575e-22
9.7862e-22
2.2472e-21
1.38739e-20
1.26166e-20
2.28779e-21
4.77076e-21
5.43962e-21
2.826e-22
1.38743e-21
1.49901e-21
2.9584e-21
6.6509e-21
5.3043e-21
4.66762e-21
1.14059e-20
3.30841e-21
5.17876e-21
3.37089e-21
1.87379e-22
2.91421e-21
1.24359e-21
5.2927e-22
2.16135e-21
1.45429e-20
1.62093e-21
5.29945e-22
1.62941e-21
6.7494e-22
1.60129e-21
1.53295e-21
9.92296e-22
2.43057e-21
4.47179e-21
1.96001e-22
1.11979e-21
2.53625e-22
2.22483e-21
2.74787e-22
4.61931e-21
1.23945e-21
2.67167e-21
1.88251e-21
1.37028e-22
1.37792e-21
3.81235e-21
2.36046e-22
2.80203e-21
2.30239e-21
3.79453e-21
2.09713e-21
5.47822e-23
6.08005e-21
4.89797e-21
3.96686e-21
5.45876e-21
6.82354e-23
8.48071e-21
6.07163e-21
1.56461e-21
2.08292e-21
3.8951e-21
3.56204e-21
1.28254e-21
7.05576e-22
1.52741e-21
1.16459e-21
1.22976e-21
1.18892e-21
6.87138e-21
2.46439e-22
7.04457e-23
4.64334e-21
1.14819e-21
1.01959e-20
5.63587e-21
2.90834e-21
1.01876e-20
7.46379e-21
1.19276e-21
2.22893e-21
4.40579e-22
2.4159e-21
1.42129e-21
4.29645e-22
2.07893e-21
6.56162e-22
1.76646e-21
1.64829e-21
8.45281e-23
2.6942e-21
9.7628e-21
4.40838e-22
6.68982e-21
5.07455e-21
1.5704e-21
8.36843e-22
2.60837e-21
3.08747e-22
1.07464e-21
1.67768e-22
2.06522e-21
8.85514e-24
2.93932e-21
1.6524e-21
8.74218e-22
8.7572e-23
1.74925e-21
2.48867e-21
5.17392e-22
1.28115e-21
3.29687e-21
1.73849e-21
3.227e-21
2.82348e-21
1.47176e-21
3.23187e-21
6.43459e-21
9.24494e-22
1.88574e-21
6.51196e-21
2.32862e-21
2.04443e-21
4.1365e-21
2.73149e-22
9.67056e-22
3.44178e-21
5.75725e-21
1.42169e-21
2.88214e-21
2.66071e-22
7.82691e-23
5.19666e-21
4.14979e-21
3.93713e-21
9.26488e-23
2.36016e-21
1.25328e-22
3.00381e-21
3.71519e-21
7.54009e-23
6.808e-21
2.86643e-21
5.90228e-22
6.54122e-22
2.06832e-21
2.80611e-21
3.8663e-22
7.68166e-21
9.42883e-21
1.4768e-21
2.40657e-22
5.68609e-22
3.7738e-22
5.14646e-21
2.61388e-21
3.34925e-21
3.61077e-22
6.53414e-21
1.28673e-21
1.65165e-21
4.76926e-21
6.22498e-22
1.61969e-21
9.79425e-22
5.41847e-21
1.39419e-21
2.92677e-21
1.16592e-20
3.38553e-21
3.68223e-21
1.58426e-21
2.56135e-21
1.97604e-21
2.41615e-21
2.73999e-22
5.45395e-21
1.54931e-21
4.7589e-22
1.40092e-22
5.45742e-21
4.75248e-21
1.10004e-21
9.46073e-22
2.6187e-21
3.11169e-21
1.13372e-20
5.84893e-21
1.92812e-21
6.63264e-22
1.81719e-21
1.82128e-22
1.05604e-21
2.977e-21
7.53992e-22
1.11353e-21
5.99618e-21
2.7838e-21
2.92327e-21
3.14566e-21
2.25608e-22
3.21352e-21
2.66745e-21
2.58224e-21
1.07115e-21
3.13638e-21
3.67639e-21
1.05217e-21
2.60037e-21
1.33759e-21
3.43961e-21
8.46446e-21
2.99156e-21
1.42015e-21
2.39334e-21
3.73118e-21
1.93762e-21
1.18711e-21
3.04219e-21
7.12414e-21
1.87682e-21
1.00455e-21
7.13785e-22
4.94983e-21
1.3973e-21
1.73538e-21
3.10089e-21
4.65303e-22
9.72832e-21
1.09571e-21
3.40718e-21
2.65445e-22
2.84007e-21
2.64765e-21
1.52438e-21
8.07711e-22
8.87228e-22
6.06586e-21
2.89863e-21
2.31809e-21
1.22309e-21
1.17113e-21
6.1073e-21
3.967e-22
4.48883e-21
6.30355e-22
9.6015e-21
1.80862e-21
4.52832e-21
8.32992e-22
2.3974e-21
1.19398e-21
2.7695e-22
6.02562e-21
4.79738e-21
4.74497e-21
3.38831e-22
6.54489e-23
1.99451e-21
2.1403e-21
1.03799e-20
3.31232e-21
4.93512e-23
6.01527e-22
3.52352e-21
9.35799e-21
1.6881e-21
3.34489e-21
9.0997e-21
1.89911e-21
1.68687e-21
8.17921e-22
2.58573e-22
8.51216e-22
1.24523e-21
6.26569e-22
6.20768e-22
3.511e-21
2.94029e-21
9.65606e-21
5.52091e-22
1.1391e-21
3.3517e-21
2.07969e-21
7.41641e-22
2.38185e-21
2.60337e-21
2.27617e-21
7.03599e-22
3.57658e-21
2.63476e-21
1.64355e-21
1.34229e-21
4.09872e-22
4.01998e-21
2.88749e-21
5.80792e-21
1.74224e-22
2.19849e-21
4.52145e-21
5.24918e-21
1.36733e-21
2.21017e-21
1.47755e-21
3.05043e-21
1.02276e-21
1.78393e-21
2.82869e-21
1.80679e-20
2.14491e-21
2.39447e-21
3.29039e-21
8.13901e-22
1.29251e-21
1.83036e-21
2.73821e-21
2.29649e-21
4.50016e-21
7.8888e-22
6.09947e-22
1.01422e-22
6.57861e-21
9.1952e-22
3.50933e-21
5.86653e-21
2.82635e-21
7.70208e-22
5.83426e-21
1.67299e-21
3.08774e-21
1.13793e-21
1.04335e-22
8.59453e-22
3.41171e-22
1.84871e-21
5.37726e-21
7.57084e-21
1.15797e-24
9.15128e-22
8.90286e-22
4.38526e-21
9.14551e-22
1.12787e-21
2.16433e-21
7.18365e-21
2.9059e-21
1.58045e-21
1.69147e-21
2.53934e-21
2.6725e-21
5.31201e-22
6.39675e-22
1.21875e-22
8.34436e-22
1.65577e-22
8.34376e-21
1.76949e-22
6.66518e-21
5.74458e-21
5.39224e-22
3.01812e-21
4.86496e-21
5.21781e-21
3.90338e-22
1.92281e-22
5.171e-21
1.00303e-21
3.96158e-22
1.03261e-22
1.38981e-21
9.29805e-21
1.3324e-22
8.90637e-23
1.00336e-21
2.3991e-22
6.3835e-22
6.31226e-21
1.08114e-20
3.78893e-21
5.82489e-21
9.05091e-23
2.11109e-21
3.15344e-21
5.93832e-21
4.18754e-22
7.37516e-21
2.41433e-21
2.26013e-21
2.13526e-22
6.9577e-21
6.92633e-21
1.6533e-21
7.35752e-22
3.13485e-23
8.20457e-21
3.09791e-21
6.2809e-21
2.2101e-21
1.30485e-21
5.15656e-21
1.22131e-21
1.6051e-21
5.83897e-22
9.97701e-23
1.01544e-21
6.20053e-21
2.42602e-20
6.44771e-21
4.81836e-21
8.22176e-22
2.1918e-21
4.89529e-21
1.44231e-22
1.41911e-21
3.95323e-22
8.91385e-22
5.3576e-21
1.57486e-21
5.55528e-22
7.07839e-21
8.7119e-21
1.52472e-21
1.12266e-21
2.70679e-21
3.90425e-21
9.77398e-21
1.47994e-21
1.25216e-21
2.35586e-22
6.27365e-21
5.02425e-22
4.18153e-22
1.75566e-21
4.77854e-21
4.50996e-21
5.32802e-23
3.95641e-21
4.00546e-21
4.13776e-21
3.80506e-22
1.42515e-21
7.86526e-22
3.21065e-22
4.46808e-22
4.19765e-22
1.41376e-21
7.57741e-21
5.84548e-21
3.59956e-21
1.52286e-21
1.85362e-21
7.61592e-22
3.21817e-21
2.48933e-21
7.69578e-21
4.56382e-21
2.25056e-21
8.13937e-23
2.12683e-21
3.70707e-21
1.59439e-22
2.74418e-21
3.21596e-21
3.52756e-22
2.52409e-23
1.2279e-21
1.01174e-21
8.5012e-21
8.39193e-22
6.55747e-22
1.48727e-22
1.71878e-22
2.48675e-21
5.49497e-21
1.10613e-21
1.35681e-21
5.89397e-21
3.17969e-21
1.33603e-20
9.29685e-23
4.47528e-21
1.208e-21
2.3741e-21
2.0368e-22
6.17477e-22
4.29352e-21
8.86842e-21
2.258e-21
4.97128e-21
1.2576e-20
6.02166e-22
1.76455e-20
5.36358e-21
1.68852e-21
1.61982e-21
1.27423e-20
6.8193e-22
2.39975e-21
1.19931e-21
4.45083e-21
4.58088e-21
6.09044e-23
1.18693e-21
2.92177e-21
2.03147e-21
2.16661e-21
1.40402e-21
6.81218e-23
6.75589e-22
3.563e-21
2.0544e-21
4.24552e-21
1.14307e-21
3.36244e-21
7.80025e-22
5.46503e-22
2.3344e-22
4.82613e-22
3.84018e-21
1.89729e-21
2.97584e-21
1.56666e-21
3.47787e-22
1.56007e-21
1.16735e-21
2.70115e-21
2.14946e-21
3.45351e-22
4.03402e-21
3.5179e-21
4.89005e-22
2.54182e-21
8.16357e-21
3.48068e-21
1.15001e-21
1.04228e-21
9.23582e-21
4.23339e-21
8.54895e-21
1.4706e-21
6.39681e-22
1.48116e-21
2.00179e-20
5.81978e-22
4.33456e-22
1.42684e-21
2.94247e-21
7.73279e-21
1.85209e-21
4.74437e-21
7.28473e-22
1.93566e-21
4.70959e-22
4.50099e-21
1.23363e-21
8.11534e-22
1.3323e-21
2.49755e-21
6.27256e-21
1.34612e-21
1.28668e-21
1.34935e-21
6.53983e-21
6.12431e-21
9.74565e-22
4.29464e-21
6.84431e-21
2.43965e-21
6.76762e-21
2.04154e-21
2.10059e-21
7.47486e-21
1.72579e-21
8.99034e-21
3.92025e-21
3.15085e-21
4.86604e-21
1.28952e-21
2.9926e-22
2.33546e-21
7.52533e-21
4.76255e-22
5.06313e-21
4.71427e-22
6.04448e-22
4.18281e-21
2.7587e-21
1.0787e-21
4.04648e-21
1.39893e-21
3.76297e-21
9.35144e-22
6.22464e-21
9.76725e-23
4.95591e-22
6.09382e-21
6.15716e-22
3.26134e-21
4.34774e-21
4.28309e-22
1.45009e-21
1.75808e-21
3.46364e-22
7.77579e-23
1.25869e-20
1.84508e-20
2.99679e-22
6.97055e-21
4.95558e-21
1.05356e-22
8.14765e-22
2.09894e-21
2.84268e-21
7.64046e-21
7.08855e-21
4.88162e-21
1.46473e-21
1.34342e-20
2.90861e-21
3.14281e-21
5.3024e-21
1.07417e-20
5.97062e-21
1.0679e-21
2.00424e-21
5.3955e-21
3.13984e-21
7.62254e-22
2.04382e-21
8.71516e-21
1.89303e-21
9.93019e-22
4.7468e-21
2.79337e-21
5.10721e-21
6.10556e-21
2.32617e-21
5.82293e-21
2.11419e-21
2.34782e-22
2.4191e-21
4.35783e-21
3.38531e-21
8.05382e-21
8.61895e-22
1.31891e-21
2.88647e-21
3.90324e-21
3.68891e-22
3.86145e-21
2.03133e-21
8.27819e-22
6.51846e-21
4.26793e-21
2.53656e-21
6.71834e-22
1.43042e-20
2.03318e-21
6.1796e-21
1.24297e-20
1.67207e-21
1.64478e-21
4.00256e-22
1.9681e-21
9.63186e-21
4.18792e-21
5.83637e-22
2.6805e-21
4.79689e-22
8.52729e-22
2.96398e-21
2.24139e-22
3.92674e-21
2.30396e-21
4.68035e-21
3.62179e-21
9.69154e-23
6.63418e-22
4.57739e-21
1.1274e-22
1.11461e-21
4.30872e-21
3.28667e-21
2.04938e-21
1.69114e-21
1.37923e-21
9.65747e-22
3.16426e-21
1.91297e-21
3.3642e-21
3.47709e-21
5.41426e-21
4.52803e-21
6.10394e-21
1.30131e-21
1.27477e-21
3.0527e-22
6.77854e-21
3.79937e-21
6.83176e-22
6.47666e-21
3.14765e-21
3.83468e-21
1.87746e-21
1.55779e-20
2.58233e-21
5.04347e-22
4.15044e-21
6.25332e-21
8.31592e-22
6.68407e-21
2.43806e-22
2.36925e-21
3.24921e-21
2.21797e-21
8.59967e-21
4.3268e-21
2.31716e-21
5.86565e-21
1.49778e-21
8.51915e-22
1.55563e-21
7.77798e-22
3.20332e-21
1.9093e-21
6.75743e-23
1.52501e-21
8.88675e-23
3.52213e-21
7.11112e-22
8.13278e-22
1.01001e-22
7.96908e-21
2.44491e-22
6.62631e-21
6.11083e-21
1.259e-22
8.64117e-21
9.95726e-21
4.36652e-21
2.67251e-21
4.13125e-22
3.61255e-21
3.71115e-22
1.50967e-22
5.73101e-22
5.66496e-22
4.31782e-21
1.07429e-20
7.30781e-21
9.61298e-22
5.38751e-21
3.84455e-21
2.16035e-21
3.31463e-21
2.843e-22
6.52139e-21
6.69318e-23
9.94012e-22
6.73002e-22
5.67486e-21
9.62752e-22
2.50939e-21
1.39439e-21
8.63947e-21
2.24993e-21
5.98051e-22
7.78618e-21
1.63034e-21
2.00339e-21
2.07506e-21
5.93911e-21
3.63676e-21
8.24393e-21
3.17445e-22
2.77931e-22
3.56162e-21
2.7045e-21
1.31366e-21
2.48901e-22
3.73033e-22
2.77155e-21
1.11774e-20
5.6822e-21
1.26717e-21
7.15608e-22
2.24541e-21
4.19792e-21
9.74895e-22
2.40334e-21
4.43137e-21
1.33281e-21
3.7316e-21
1.21172e-21
8.01438e-21
1.26439e-21
3.25883e-21
1.36728e-21
4.24533e-21
4.63607e-21
6.34962e-21
8.74431e-22
3.35172e-21
3.20207e-22
1.14107e-20
4.80516e-21
4.71056e-21
4.89164e-21
1.97041e-21
6.10818e-21
8.46794e-21
7.8442e-21
2.64832e-21
3.48103e-22
1.12493e-20
1.00504e-21
3.63574e-21
1.5506e-21
4.35724e-21
5.24815e-21
2.54552e-21
4.13097e-21
2.97466e-21
6.37463e-21
1.9684e-21
4.37021e-21
3.23367e-21
1.30867e-20
3.32024e-21
3.02331e-21
3.61463e-21
1.41473e-21
6.21661e-22
4.80358e-21
1.30234e-21
1.5542e-21
6.63348e-21
1.21623e-21
1.29243e-21
6.60999e-21
1.4454e-21
7.56797e-21
6.04156e-21
2.83967e-22
1.13274e-20
1.15805e-21
4.53047e-21
8.47876e-22
3.26654e-21
5.32213e-21
3.40061e-21
3.90863e-22
6.74684e-21
3.19691e-21
9.90975e-22
6.158e-22
2.06162e-21
1.94723e-20
1.28044e-22
1.32274e-21
9.26134e-21
2.82774e-21
5.08575e-21
1.85075e-21
3.1691e-21
4.79218e-21
3.03901e-21
6.58835e-22
1.85517e-21
6.8737e-21
7.27114e-21
2.78503e-23
5.37102e-21
4.88581e-21
1.39378e-21
4.55516e-21
1.27125e-21
4.77284e-22
1.83582e-21
4.96685e-21
5.3575e-21
2.38853e-21
3.05744e-21
4.39144e-21
5.46577e-22
3.11237e-21
1.52753e-21
3.91558e-21
4.42518e-21
5.62865e-21
3.7089e-21
8.31587e-21
7.25967e-21
6.82104e-22
1.12026e-20
1.32452e-22
2.50029e-21
1.03254e-21
3.97647e-21
2.24153e-21
2.08197e-22
7.04983e-21
1.11552e-21
5.90331e-21
2.22603e-22
2.84319e-21
1.36331e-22
4.51909e-22
3.1637e-21
1.32714e-21
2.15871e-23
8.98244e-22
1.07036e-21
4.01156e-22
3.89569e-21
4.06456e-21
6.43263e-21
4.76202e-22
3.07835e-21
6.69449e-23
2.73719e-21
5.61058e-21
3.63172e-21
9.64283e-23
4.82059e-22
5.71808e-21
2.48306e-21
1.83051e-21
4.9629e-21
3.63916e-21
8.35112e-22
3.48304e-21
3.99964e-21
1.83813e-23
1.1118e-21
8.95333e-22
2.3433e-21
2.44204e-21
1.30756e-21
2.77751e-21
8.8909e-22
8.76208e-21
1.18312e-21
1.38723e-21
3.90799e-21
5.58524e-21
6.57522e-21
1.44954e-21
4.01716e-21
5.5643e-21
4.69476e-21
5.45905e-21
3.45126e-22
1.00816e-21
3.1889e-21
4.13648e-21
1.79714e-21
5.01875e-21
8.0909e-22
2.10169e-22
3.06256e-21
2.53089e-22
6.62232e-23
2.04787e-21
6.09586e-22
2.07571e-21
4.03863e-22
6.73008e-21
1.63301e-21
5.71446e-21
2.19369e-21
1.66041e-21
4.69423e-21
3.72985e-21
3.22514e-21
3.08607e-22
4.61537e-21
3.58238e-22
1.01231e-21
7.806e-21
1.18719e-20
3.06817e-21
4.20394e-21
9.33134e-21
4.90468e-21
6.49778e-21
4.90641e-21
1.5558e-21
4.63532e-22
1.12403e-21
5.36211e-22
2.03682e-21
9.60435e-22
2.20579e-21
6.25766e-21
1.78764e-21
2.61838e-22
3.13985e-21
2.97439e-21
1.57655e-21
5.42489e-21
1.8181e-21
5.70798e-21
3.35212e-22
1.37663e-21
8.2598e-22
4.99481e-21
6.76978e-22
1.12572e-21
6.58341e-22
2.62915e-22
4.16122e-22
7.81489e-22
8.08244e-23
3.30914e-21
6.17311e-22
1.94621e-21
3.3284e-22
1.98139e-21
2.39169e-21
3.98191e-21
1.8111e-21
8.48587e-21
1.04391e-21
1.60624e-21
2.89529e-21
2.9146e-21
1.87363e-21
6.50192e-22
5.04139e-21
1.41962e-22
6.59653e-22
2.31392e-21
7.36565e-22
7.27028e-21
2.74123e-22
6.33055e-21
1.29523e-21
1.43513e-21
9.72321e-22
8.89787e-22
2.88568e-21
2.84762e-21
3.33993e-22
1.48606e-22
8.45616e-22
6.79989e-21
4.44837e-21
1.9207e-20
1.19215e-21
3.33619e-21
6.69877e-22
8.18499e-22
3.68048e-21
1.01757e-21
2.31884e-21
8.43561e-22
2.08745e-21
7.82178e-21
9.10433e-22
2.67605e-21
2.08557e-21
4.31744e-22
1.83666e-20
2.25054e-21
5.20828e-22
2.58553e-21
9.66041e-22
7.06206e-21
9.20926e-21
1.31922e-20
4.7879e-21
8.7126e-21
2.28303e-22
1.54982e-21
8.18379e-22
7.66294e-21
1.86567e-21
4.64477e-21
1.23663e-21
4.29796e-21
7.6788e-23
4.26669e-21
1.0986e-21
4.17023e-22
1.09292e-21
1.0122e-20
9.40095e-21
3.72222e-21
7.55022e-21
2.40262e-22
3.32206e-22
4.98924e-21
1.35131e-21
1.7053e-21
4.05921e-21
8.72239e-22
2.46416e-21
1.80952e-21
2.84612e-21
2.70384e-22
7.20604e-21
3.2487e-22
2.08003e-21
1.19209e-21
7.46412e-22
1.8172e-21
1.94872e-21
3.93257e-21
9.24205e-21
1.49868e-21
1.92168e-22
3.94293e-21
1.57772e-21
1.75108e-22
8.42698e-22
9.48935e-21
2.02332e-22
3.00231e-21
8.78143e-22
1.47624e-23
5.33415e-21
3.30372e-21
1.54886e-21
5.90224e-21
3.00572e-22
1.19876e-22
2.09554e-22
2.65643e-21
3.41377e-21
2.90276e-21
3.96633e-21
1.21968e-21
2.6308e-21
2.19266e-21
4.5113e-23
1.12804e-21
2.86936e-21
3.43016e-21
1.89692e-22
8.56573e-23
2.21312e-21
3.14756e-22
6.45289e-22
2.65897e-21
2.74042e-21
2.47774e-21
1.17165e-21
1.6519e-21
3.52832e-21
4.09054e-22
7.15697e-21
2.33968e-21
1.40802e-21
7.45866e-22
1.8894e-21
1.91949e-22
1.84645e-22
1.5795e-22
4.84983e-21
2.32292e-21
5.51487e-21
2.67059e-21
7.44397e-22
6.00813e-21
1.65982e-21
4.81103e-21
1.81269e-21
6.40408e-22
4.61332e-21
3.65779e-21
9.64935e-22
2.13442e-21
1.71461e-22
2.26637e-21
6.8129e-22
1.74529e-21
2.87322e-21
3.60123e-21
3.51524e-21
1.83021e-21
1.21503e-21
2.7632e-21
5.22864e-22
1.23045e-21
8.13815e-21
3.93572e-21
5.05638e-21
5.88697e-21
1.46375e-21
5.9168e-23
3.76115e-21
9.93449e-21
3.20039e-22
1.55818e-21
4.555e-21
4.14087e-21
1.11901e-21
2.32211e-21
1.95399e-22
3.56526e-21
5.079e-23
1.93065e-21
4.86744e-21
1.70393e-21
4.20274e-21
5.71944e-21
4.81891e-21
1.4628e-21
5.93305e-22
1.46227e-21
3.90332e-21
9.74288e-21
6.12979e-22
4.16965e-21
7.75486e-21
2.22141e-23
6.3923e-22
1.56333e-21
2.25848e-21
1.03284e-22
2.38889e-21
2.70242e-21
1.34282e-21
1.41222e-21
6.76553e-21
2.98155e-21
1.64594e-21
4.74906e-21
4.39644e-21
1.29853e-23
3.49443e-22
8.78483e-21
6.64422e-22
1.70061e-22
5.83622e-21
5.0786e-21
2.01695e-21
1.05497e-21
2.66401e-22
1.85348e-21
5.46503e-22
3.96235e-21
8.02921e-21
5.16732e-21
1.14944e-22
2.22812e-21
3.10069e-21
1.50227e-21
3.72893e-21
4.01395e-21
1.90554e-21
6.05334e-22
6.80487e-22
5.82578e-22
8.64532e-21
2.29817e-22
7.88119e-22
3.5085e-21
2.6724e-21
1.53644e-22
2.52859e-21
5.86631e-22
3.77629e-21
1.36227e-21
3.37197e-21
2.52891e-21
1.97704e-21
1.07573e-21
4.94739e-22
1.2971e-21
1.67572e-21
7.36345e-21
5.70993e-22
3.08624e-21
3.71955e-21
2.12507e-21
2.14932e-21
3.04731e-21
5.45211e-21
5.77945e-22
8.14188e-22
1.06668e-20
2.15219e-21
1.42545e-21
5.33186e-22
6.04082e-23
1.68336e-21
5.31194e-21
9.65472e-22
3.39889e-21
4.55702e-22
1.0229e-21
1.03383e-21
3.83856e-21
8.20151e-22
1.27076e-21
5.07646e-21
3.4813e-21
2.77337e-21
3.50287e-21
2.66335e-21
9.7293e-22
1.2537e-21
2.69302e-21
2.64312e-21
1.2356e-21
8.54893e-23
5.48373e-21
1.07901e-21
4.37323e-21
3.51239e-21
5.55873e-21
9.68308e-22
1.98927e-22
1.73293e-22
3.89057e-22
2.10349e-21
1.69368e-21
4.59929e-21
3.53981e-21
6.56675e-21
4.48493e-23
2.78447e-21
1.68235e-21
2.97118e-22
3.48222e-22
3.40307e-22
8.62826e-22
1.64418e-22
2.11445e-21
3.44712e-21
2.62204e-21
3.82039e-21
4.12646e-21
1.58172e-21
4.53573e-21
3.59142e-21
2.25751e-21
4.9466e-21
5.79605e-21
1.31255e-21
4.48254e-21
7.29653e-22
5.11006e-21
2.17828e-21
2.4413e-21
8.7194e-21
1.58368e-21
1.83485e-21
1.88739e-22
6.67269e-22
3.59665e-21
2.34802e-21
2.008e-21
4.03295e-21
4.17853e-22
3.1245e-21
1.883e-21
8.32951e-21
2.40708e-22
1.33051e-21
7.12373e-21
5.47329e-21
1.07764e-21
8.40901e-21
1.53399e-21
7.13901e-23
1.92072e-21
2.0328e-20
3.92795e-21
4.38587e-21
2.85852e-21
6.17985e-23
5.94009e-23
1.39116e-21
3.76448e-22
7.96737e-21
3.37692e-21
5.2158e-21
3.45087e-21
8.978e-22
1.94175e-22
3.25239e-21
2.76885e-21
1.50135e-21
1.12668e-20
5.57489e-21
4.83548e-21
1.56807e-22
4.52483e-21
7.72485e-22
1.87174e-21
9.87379e-21
2.25554e-21
2.74818e-21
6.99379e-21
2.29506e-21
3.61772e-21
5.20624e-21
6.82187e-21
3.14965e-22
3.19965e-21
4.07399e-21
1.42178e-21
3.16171e-21
1.24033e-21
1.25358e-22
2.91148e-21
1.65661e-21
4.50336e-21
1.165e-21
4.76186e-22
5.50031e-21
3.01769e-22
1.8718e-21
5.92836e-23
4.62364e-21
3.09495e-21
3.40895e-23
2.64342e-21
1.13122e-21
5.80809e-22
1.2522e-20
4.949e-21
1.40041e-22
7.39555e-21
3.06996e-22
2.08214e-21
4.22299e-21
7.66276e-21
3.6595e-21
1.13955e-20
1.19569e-21
3.13044e-21
3.6922e-21
2.99818e-22
5.0131e-22
1.17361e-21
3.10773e-21
2.15427e-21
2.4638e-21
5.52207e-24
7.83671e-23
8.82784e-22
4.30955e-22
2.34312e-21
1.04056e-21
2.70967e-21
3.06207e-21
1.7509e-21
1.06569e-21
9.03199e-21
8.86785e-22
2.07945e-22
4.11221e-21
6.84834e-22
1.70915e-21
5.8918e-21
8.33052e-22
3.07142e-21
1.13579e-21
2.35329e-21
7.18014e-22
2.16567e-21
4.06217e-21
3.93196e-22
3.12342e-21
2.94764e-22
7.83278e-22
4.4379e-21
1.11819e-21
1.58804e-21
4.65204e-22
3.3584e-21
5.93492e-21
4.98754e-21
3.44747e-22
1.01036e-22
1.53488e-21
3.34241e-22
1.50963e-21
3.34215e-21
3.15735e-21
1.0419e-21
2.21495e-21
1.15116e-21
1.79265e-21
6.22577e-22
5.52322e-23
4.56673e-22
8.41577e-22
6.25114e-21
5.14332e-22
2.31278e-21
1.14122e-20
1.18297e-22
1.0631e-21
4.1154e-21
2.44968e-21
2.71313e-21
4.87348e-22
4.59172e-21
7.73112e-22
1.94852e-21
8.09164e-22
3.55053e-21
3.10851e-21
3.49e-21
1.01596e-21
2.82918e-21
1.10521e-22
6.8252e-22
2.74505e-21
1.78021e-21
9.12631e-21
8.0904e-21
4.12824e-21
7.11547e-22
3.09818e-22
4.35365e-21
2.91764e-21
1.4134e-21
1.41712e-21
6.86635e-21
2.42111e-21
3.42576e-22
2.01293e-21
2.013e-21
2.6572e-22
1.32104e-21
4.23335e-21
3.61307e-21
1.45848e-21
3.26139e-21
5.62271e-21
3.65087e-21
1.49422e-21
2.66554e-21
3.88204e-21
4.85577e-23
3.74481e-21
6.92996e-21
5.67183e-23
1.84261e-21
1.78817e-21
2.66699e-21
1.66762e-21
1.54392e-21
4.27302e-21
2.34594e-21
7.87068e-23
2.43164e-21
3.54964e-21
4.1375e-21
1.31899e-23
7.75753e-21
2.09429e-21
7.98417e-23
1.55851e-21
4.52907e-22
7.14932e-21
1.27996e-21
6.70649e-21
6.28596e-21
6.64345e-21
6.23363e-21
6.52357e-22
3.50244e-21
3.62224e-21
1.77912e-21
4.54988e-21
4.58173e-21
6.66952e-22
1.30285e-21
8.23447e-22
4.497e-22
2.45905e-21
8.7851e-21
1.18375e-21
7.35503e-22
6.73951e-22
8.44539e-22
2.03528e-22
1.06942e-21
3.87098e-21
5.85356e-21
2.72925e-21
1.50046e-21
9.93152e-21
1.59151e-22
3.1359e-21
7.19162e-22
3.43995e-21
1.22164e-21
1.46056e-20
1.13753e-21
3.53314e-21
6.6595e-22
2.29437e-21
2.00032e-21
2.13528e-22
2.99008e-21
1.75462e-21
2.08804e-21
2.35511e-21
9.5286e-22
2.64219e-21
5.62982e-21
6.18619e-21
6.75872e-21
2.85706e-21
3.50051e-22
1.84635e-21
8.62645e-22
2.75063e-22
5.12298e-23
1.7821e-21
7.66147e-23
3.16995e-21
1.36891e-21
1.42935e-21
1.60536e-21
1.95484e-22
4.00394e-22
2.02825e-21
4.94319e-21
3.12072e-22
3.25755e-21
8.3183e-21
3.11918e-21
9.43271e-22
1.73994e-22
7.9513e-21
3.9245e-21
9.00556e-22
8.53874e-21
9.14826e-21
1.3402e-22
7.10035e-21
5.38094e-22
4.46067e-22
1.53755e-21
2.27062e-21
1.21385e-20
5.79501e-22
5.56682e-21
1.4744e-21
1.90166e-21
5.15021e-21
8.68188e-22
1.15163e-20
7.04019e-23
1.85325e-22
3.96439e-22
2.79675e-21
1.44875e-21
5.96827e-21
6.24643e-21
2.98112e-21
2.69482e-21
1.23225e-20
1.93061e-21
1.46256e-21
1.00831e-21
1.26903e-21
1.61377e-21
1.51723e-22
5.90808e-21
6.14369e-22
9.65399e-22
2.40223e-21
4.22224e-22
1.8816e-21
6.87414e-22
2.59341e-22
1.06661e-22
5.69802e-21
1.25561e-21
2.95669e-21
4.39758e-22
2.99907e-22
1.36853e-21
1.88863e-21
1.32139e-20
6.81864e-21
2.61997e-22
5.04606e-21
4.53512e-21
1.43298e-21
2.36395e-21
1.29031e-20
2.2902e-22
7.64781e-22
3.23147e-22
3.69309e-21
8.30565e-22
2.91045e-21
1.29657e-21
7.88924e-22
2.80739e-22
1.09789e-21
1.05237e-20
1.66031e-21
1.70853e-21
4.43065e-21
3.57863e-21
4.26207e-21
2.84921e-22
2.21878e-21
3.41573e-21
2.0803e-21
3.56146e-21
3.06333e-21
7.59883e-22
2.69394e-21
1.21489e-21
4.27554e-21
1.19014e-21
3.26591e-21
1.56319e-21
4.71417e-22
1.16832e-20
4.09631e-22
7.27286e-21
2.91051e-21
6.7937e-22
2.78054e-21
3.68535e-21
2.00837e-21
1.22376e-21
7.25527e-22
7.91419e-21
2.30012e-21
3.23035e-21
8.61355e-21
1.40813e-21
1.449e-21
8.39427e-21
4.87907e-21
8.73891e-22
3.23382e-21
5.82451e-21
1.3766e-21
6.90512e-21
8.64893e-21
6.76222e-21
6.13827e-21
3.21722e-21
2.40368e-21
1.44179e-21
2.11699e-21
9.19333e-21
6.81704e-21
2.46681e-21
1.98131e-21
3.62362e-21
4.94809e-21
3.27681e-21
4.23494e-22
7.09883e-23
2.31473e-21
4.50474e-21
9.45823e-21
6.26215e-22
1.02268e-21
1.55654e-21
2.67498e-21
1.5216e-21
1.08173e-20
3.37717e-21
7.94896e-21
3.46996e-21
8.44911e-21
2.57434e-21
7.44246e-21
4.23874e-22
1.10909e-21
1.57401e-21
1.62024e-21
5.75975e-21
7.86597e-22
5.91231e-22
2.48199e-23
2.24474e-21
1.41536e-20
1.74857e-21
2.59266e-21
1.23272e-21
4.56858e-22
2.28294e-21
4.03579e-22
5.13791e-21
3.83985e-22
6.59017e-23
4.90712e-21
5.30482e-21
9.90386e-21
8.6335e-21
1.10694e-21
7.71541e-21
1.95996e-21
1.33278e-20
2.20491e-21
6.3077e-21
4.15126e-21
2.8089e-21
5.48523e-22
1.75459e-21
9.12118e-22
1.94867e-21
1.14143e-22
1.44015e-22
8.30488e-21
4.70138e-21
7.85256e-22
7.64749e-22
1.04979e-22
1.50157e-21
8.26525e-21
1.86066e-21
1.47333e-22
1.06264e-20
1.80412e-21
4.43939e-21
9.23098e-21
4.51027e-21
6.59774e-22
8.76589e-22
3.89043e-21
8.55061e-22
1.49752e-22
3.66178e-22
3.94678e-23
4.49527e-21
1.12929e-21
3.33555e-21
4.21841e-21
3.0974e-21
1.04934e-20
2.54527e-21
1.58579e-22
1.52235e-21
1.39965e-21
2.18306e-21
1.60655e-20
4.60972e-22
6.81502e-21
8.46456e-22
1.60378e-21
1.35974e-21
1.77527e-21
1.38374e-21
8.1166e-21
7.45506e-22
9.80051e-21
8.53799e-22
1.47653e-21
6.86266e-21
1.18685e-20
7.98256e-22
5.80417e-22
1.27953e-21
2.91829e-21
1.2589e-21
1.16389e-21
9.89197e-21
3.14025e-21
1.31601e-22
5.80588e-21
9.47844e-23
1.48463e-21
1.43643e-21
2.72635e-21
7.53641e-21
3.90786e-22
3.66574e-21
5.90326e-23
9.21021e-23
3.53846e-21
1.249e-21
1.75462e-22
2.59904e-22
1.45313e-21
4.41877e-22
1.68601e-21
1.0032e-21
5.25996e-23
5.91777e-21
9.68149e-22
7.20087e-22
3.28122e-21
4.37339e-21
3.50888e-22
2.74958e-21
3.49382e-21
3.86153e-21
3.82691e-22
3.51015e-21
4.35882e-21
8.73452e-22
3.10901e-21
4.96339e-21
1.34887e-21
3.44992e-21
6.74418e-21
6.13749e-21
1.55783e-21
4.75459e-21
2.82418e-21
1.2707e-21
4.56153e-21
3.3059e-22
8.14889e-21
1.7947e-21
7.92461e-22
6.51412e-21
3.96308e-21
5.77457e-22
1.63288e-21
3.65441e-21
2.02222e-22
1.58667e-21
2.87552e-21
3.32355e-21
2.29322e-21
2.34172e-23
4.87694e-21
7.15348e-21
2.6606e-22
3.6895e-22
1.55973e-21
5.02965e-21
1.44906e-22
4.40626e-22
1.88917e-21
1.89859e-22
2.70151e-21
3.53352e-22
1.57159e-21
1.11497e-21
2.08497e-21
4.76709e-21
6.57876e-21
9.95254e-21
3.44355e-21
1.20105e-21
2.02421e-21
1.79043e-22
7.39138e-21
1.02041e-20
2.88267e-21
3.1345e-21
8.94952e-21
3.74543e-21
5.32883e-21
3.07217e-22
6.42281e-21
5.99644e-21
1.58082e-20
1.22282e-21
1.02233e-20
6.13624e-21
4.29444e-21
4.96797e-21
3.52169e-21
2.44024e-21
2.50248e-22
8.68045e-21
3.05844e-21
1.3417e-21
9.33785e-22
7.79148e-22
3.93253e-22
1.63866e-22
4.40791e-22
1.99955e-20
7.36241e-22
7.15996e-22
2.01809e-21
2.1048e-21
3.68317e-21
1.41795e-21
6.81227e-21
7.82017e-21
1.32435e-21
2.3268e-22
7.67039e-21
4.35227e-21
7.74117e-21
2.07151e-22
3.60675e-21
8.57739e-22
7.53246e-22
1.31188e-20
4.73316e-22
2.41273e-21
2.45632e-21
5.30313e-21
4.2336e-21
5.79451e-21
1.15213e-21
3.6332e-21
6.40202e-21
1.28341e-21
2.75858e-21
2.88015e-22
2.36623e-20
1.29133e-20
2.39846e-21
1.72341e-22
3.35669e-21
2.10446e-21
1.14173e-21
8.86457e-22
1.0534e-20
7.02265e-23
5.53128e-22
4.08778e-21
9.0023e-22
3.39392e-21
6.38131e-21
1.11342e-21
7.73915e-22
1.09781e-21
5.98211e-22
5.05413e-21
2.06264e-21
3.05983e-22
3.82077e-21
1.74966e-21
1.9461e-21
3.02377e-21
6.38051e-21
6.81008e-22
3.3583e-21
6.58713e-22
5.06651e-22
2.96791e-21
1.46324e-21
1.87464e-21
5.03076e-21
2.11333e-21
2.80841e-21
2.546e-23
4.48855e-21
1.17362e-22
2.08698e-21
1.3966e-20
7.04936e-21
6.87713e-21
5.52306e-22
6.27837e-21
8.33891e-22
3.73129e-22
1.77958e-22
7.29642e-22
3.92538e-21
5.38264e-22
1.10932e-21
1.52342e-21
3.31384e-21
1.96558e-21
6.70687e-21
1.53591e-20
2.85779e-21
2.04591e-21
9.03541e-22
4.28688e-21
5.93422e-21