/*--------------------------------*- C++ -*----------------------------------*\
  =========                 |
  \\      /  F ield         | OpenFOAM: The Open Source CFD Toolbox
   \\    /   O peration     | Website:  https://openfoam.org
    \\  /    A nd           | Version:  7
     \\/     M anipulation  |
\*---------------------------------------------------------------------------*/
FoamFile
{
    version     2.0;
    format      ascii;
    class       volScalarField;
    location    "0.00216/particle";
    object      rhoN;
}
// * * * * * * * * * * * * * * * * * * * * * * * * * * * * * * * * * * * * * //

dimensions      [0 -3 0 0 0 0 0];

internalField   nonuniform List<scalar> 
600
(
8.47999999999999e+21
9.55999999999999e+21
8.48000000000006e+21
9.27999999999992e+21
9.07999999999999e+21
9.71999999999999e+21
9.24000000000006e+21
8.99999999999993e+21
9.87999999999999e+21
8.35999999999999e+21
9.32000000000006e+21
9.39999999999992e+21
8.28000000000018e+21
9.19999999999999e+21
9.79999999999999e+21
8.32000000000005e+21
9.67999999999992e+21
8.47999999999999e+21
8.83999999999999e+21
8.80000000000006e+21
9.03999999999993e+21
8.55999999999999e+21
9.31999999999999e+21
1.02000000000001e+22
1.00399999999999e+22
8.63999999999999e+21
8.47999999999999e+21
8.96000000000006e+21
8.79999999999993e+21
8.99999999999999e+21
7.99999999999999e+21
9.40000000000006e+21
8.79999999999993e+21
9.35999999999999e+21
9.27999999999999e+21
9.76000000000006e+21
9.19999999999992e+21
8.56000000000018e+21
9.11999999999999e+21
8.16000000000005e+21
9.71999999999999e+21
9.27999999999992e+21
9.63999999999999e+21
9.63999999999999e+21
8.56000000000006e+21
8.79999999999993e+21
8.75999999999999e+21
8.52000000000006e+21
9.27999999999999e+21
9.55999999999992e+21
9.79999999999999e+21
9.99999999999999e+21
8.20000000000005e+21
9.35999999999992e+21
8.67999999999999e+21
8.48000000000006e+21
9.67999999999999e+21
8.95999999999993e+21
8.79999999999999e+21
8.55999999999999e+21
8.36000000000005e+21
7.91999999999993e+21
8.00000000000017e+21
8.71999999999999e+21
8.64000000000006e+21
9.15999999999999e+21
7.83999999999994e+21
9.43999999999999e+21
9.63999999999999e+21
8.96000000000006e+21
9.39999999999992e+21
9.83999999999999e+21
8.80000000000006e+21
1.036e+22
9.83999999999992e+21
9.31999999999999e+21
8.43999999999999e+21
9.12000000000006e+21
8.47999999999993e+21
8.79999999999999e+21
8.64000000000006e+21
9.55999999999999e+21
8.11999999999993e+21
9.39999999999999e+21
9.71999999999999e+21
8.24000000000005e+21
9.27999999999992e+21
9.08000000000019e+21
8.11999999999999e+21
9.44000000000006e+21
8.99999999999999e+21
8.59999999999993e+21
9.11999999999999e+21
8.87999999999999e+21
8.80000000000006e+21
8.59999999999993e+21
9.07999999999999e+21
9.08000000000006e+21
8.19999999999999e+21
9.99999999999992e+21
8.80000000000019e+21
8.23999999999981e+21
8.08000000000017e+21
8.4799999999998e+21
9.4000000000002e+21
9.63999999999992e+21
1.07600000000002e+22
1.01199999999996e+22
9.2800000000002e+21
7.59999999999982e+21
8.64000000000018e+21
8.6799999999998e+21
9.60000000000021e+21
8.87999999999993e+21
8.24000000000018e+21
9.31999999999965e+21
8.64000000000018e+21
9.51999999999978e+21
8.68000000000018e+21
9.99999999999977e+21
9.04000000000019e+21
8.95999999999993e+21
8.80000000000019e+21
9.23999999999965e+21
8.84000000000019e+21
9.2400000000002e+21
9.43999999999978e+21
7.40000000000016e+21
8.15999999999981e+21
9.1600000000002e+21
9.59999999999992e+21
9.4400000000002e+21
8.47999999999968e+21
9.2400000000002e+21
8.87999999999979e+21
9.2400000000002e+21
9.19999999999979e+21
8.52000000000018e+21
8.95999999999993e+21
9.72000000000021e+21
8.75999999999967e+21
9.3200000000002e+21
8.5199999999998e+21
9.04000000000019e+21
9.39999999999978e+21
9.76000000000021e+21
9.79999999999992e+21
8.72000000000019e+21
8.39999999999968e+21
1.01600000000002e+22
9.4400000000002e+21
9.75999999999977e+21
8.88000000000019e+21
8.8399999999998e+21
9.12000000000019e+21
1.04399999999999e+22
8.32000000000018e+21
9.55999999999964e+21
8.76000000000019e+21
8.99999999999979e+21
9.00000000000019e+21
7.87999999999982e+21
9.12000000000019e+21
8.55999999999993e+21
9.12000000000019e+21
8.95999999999966e+21
8.68000000000018e+21
8.19999999999981e+21
8.80000000000019e+21
9.27999999999979e+21
9.24000000000033e+21
7.95999999999982e+21
9.72000000000021e+21
8.51999999999968e+21
8.52000000000018e+21
9.64000000000021e+21
8.6399999999998e+21
8.44000000000018e+21
8.6799999999998e+21
8.1600000000003e+21
7.63999999999982e+21
9.2400000000002e+21
7.9599999999997e+21
7.96000000000017e+21
8.07999999999981e+21
7.56000000000016e+21
9.11999999999993e+21
8.60000000000006e+21
8.31999999999993e+21
7.96000000000017e+21
7.51999999999971e+21
8.28000000000018e+21
7.51999999999983e+21
7.20000000000015e+21
7.99999999999981e+21
7.36000000000027e+21
7.79999999999982e+21
7.24000000000015e+21
7.47999999999972e+21
7.00000000000015e+21
7.52000000000016e+21
7.23999999999983e+21
6.36000000000014e+21
7.47999999999983e+21
8.48000000000031e+21
6.67999999999985e+21
7.72000000000016e+21
6.95999999999974e+21
7.36000000000016e+21
6.91999999999984e+21
6.20000000000013e+21
6.83999999999994e+21
6.76000000000004e+21
6.47999999999995e+21
5.80000000000012e+21
6.59999999999975e+21
6.56000000000014e+21
7.31999999999983e+21
7.00000000000015e+21
5.95999999999986e+21
6.96000000000025e+21
6.71999999999984e+21
6.52000000000014e+21
6.63999999999975e+21
6.16000000000013e+21
5.64000000000012e+21
6.03999999999986e+21
6.72000000000014e+21
5.75999999999987e+21
6.12000000000022e+21
5.99999999999986e+21
6.80000000000014e+21
6.63999999999975e+21
5.64000000000012e+21
5.91999999999986e+21
5.24000000000011e+21
5.99999999999995e+21
6.64000000000004e+21
5.55999999999995e+21
4.8800000000001e+21
6.43999999999976e+21
5.56000000000012e+21
5.07999999999988e+21
5.28000000000011e+21
5.75999999999987e+21
5.4000000000002e+21
5.75999999999987e+21
5.16000000000011e+21
5.51999999999979e+21
5.00000000000011e+21
5.24000000000011e+21
4.55999999999989e+21
5.60000000000012e+21
5.91999999999986e+21
6.00000000000022e+21
4.59999999999989e+21
5.96000000000013e+21
4.95999999999981e+21
4.4800000000001e+21
5.71999999999987e+21
4.8800000000001e+21
5.23999999999996e+21
5.04000000000003e+21
4.63999999999996e+21
4.6400000000001e+21
5.07999999999981e+21
4.40000000000009e+21
5.11999999999988e+21
4.40000000000009e+21
4.91999999999989e+21
4.20000000000015e+21
5.19999999999988e+21
4.7600000000001e+21
5.2799999999998e+21
4.20000000000009e+21
4.6400000000001e+21
4.3999999999999e+21
5.00000000000011e+21
4.71999999999989e+21
4.96000000000018e+21
4.67999999999989e+21
4.6800000000001e+21
4.35999999999983e+21
4.4800000000001e+21
5.03999999999988e+21
3.88000000000008e+21
5.03999999999996e+21
4.52000000000003e+21
4.03999999999997e+21
4.24000000000009e+21
4.59999999999983e+21
4.8000000000001e+21
3.91999999999991e+21
5.48000000000012e+21
4.71999999999989e+21
4.88000000000018e+21
4.3199999999999e+21
4.6400000000001e+21
4.03999999999985e+21
4.4800000000001e+21
4.8000000000001e+21
4.4800000000001e+21
4.27999999999984e+21
4.35999999999996e+21
4.0000000000002e+21
5.03999999999996e+21
4.63999999999969e+21
3.84000000000008e+21
4.44000000000009e+21
4.24000000000009e+21
4.23999999999971e+21
4.96000000000025e+21
5.03999999999996e+21
4.60000000000023e+21
4.31999999999958e+21
4.7600000000001e+21
4.4800000000001e+21
5.08000000000011e+21
4.19999999999984e+21
4.23999999999997e+21
5.16000000000026e+21
4.43999999999996e+21
4.19999999999972e+21
4.8000000000001e+21
4.16000000000009e+21
4.40000000000009e+21
4.8800000000001e+21
4.87999999999982e+21
4.15999999999997e+21
4.28000000000022e+21
4.27999999999996e+21
4.15999999999972e+21
4.8000000000001e+21
4.36000000000009e+21
4.04000000000009e+21
5.23999999999965e+21
4.52000000000023e+21
4.67999999999996e+21
4.48000000000023e+21
4.67999999999955e+21
4.32000000000009e+21
5.04000000000011e+21
4.28000000000009e+21
4.55999999999983e+21
4.35999999999996e+21
4.44000000000023e+21
4.23999999999997e+21
4.79999999999968e+21
4.7200000000001e+21
4.9200000000001e+21
4.28000000000009e+21
4.24000000000009e+21
5.1999999999998e+21
3.67999999999997e+21
4.20000000000021e+21
4.23999999999997e+21
4.31999999999971e+21
5.40000000000012e+21
5.76000000000012e+21
4.44000000000009e+21
4.71999999999968e+21
4.60000000000023e+21
4.59999999999996e+21
4.28000000000022e+21
4.1599999999996e+21
4.9200000000001e+21
4.6000000000001e+21
4.6400000000001e+21
4.47999999999983e+21
4.51999999999996e+21
3.64000000000019e+21
3.79999999999997e+21
4.59999999999969e+21
4.8800000000001e+21
5.08000000000011e+21
4.32000000000009e+21
5.44000000000012e+21
5.1999999999998e+21
4.63999999999996e+21
5.12000000000026e+21
5.19999999999996e+21
5.07999999999966e+21
5.24000000000011e+21
4.6000000000001e+21
5.84000000000012e+21
4.63999999999969e+21
6.04000000000031e+21
5.51999999999995e+21
6.08000000000031e+21
5.75999999999944e+21
5.72000000000012e+21
6.08000000000013e+21
5.64000000000012e+21
7.11999999999973e+21
6.27999999999995e+21
6.92000000000035e+21
5.75999999999995e+21
6.63999999999955e+21
7.16000000000015e+21
6.48000000000014e+21
6.24000000000013e+21
6.52000000000014e+21
6.43999999999976e+21
6.19999999999995e+21
6.96000000000035e+21
5.91999999999995e+21
7.4399999999995e+21
6.12000000000013e+21
6.60000000000014e+21
6.32000000000013e+21
6.31999999999957e+21
7.16000000000036e+21
5.71999999999995e+21
6.68000000000034e+21
6.87999999999933e+21
7.16000000000015e+21
6.36000000000014e+21
7.56000000000016e+21
6.43999999999976e+21
5.91999999999995e+21
6.48000000000033e+21
6.63999999999995e+21
6.31999999999957e+21
6.00000000000013e+21
6.28000000000013e+21
6.08000000000013e+21
6.72000000000014e+21
6.55999999999975e+21
6.63999999999995e+21
6.76000000000034e+21
6.15999999999995e+21
7.3599999999995e+21
6.80000000000014e+21
6.24000000000013e+21
7.44000000000038e+21
6.39999999999938e+21
6.20000000000032e+21
6.27999999999995e+21
6.16000000000031e+21
6.47999999999937e+21
6.72000000000014e+21
6.92000000000035e+21
6.19999999999995e+21
5.79999999999978e+21
3.51999999999997e+21
2.44000000000012e+21
2.95999999999998e+21
2.15999999999985e+21
2.16000000000011e+21
3.23999999999997e+21
2.64000000000006e+21
2.60000000000006e+21
2.91999999999989e+21
2.11999999999998e+21
2.68000000000014e+21
3.07999999999997e+21
2.71999999999982e+21
2.52000000000005e+21
2.52000000000005e+21
2.0000000000001e+21
2.43999999999976e+21
2.28000000000012e+21
3.31999999999997e+21
2.44000000000012e+21
2.71999999999974e+21
2.12000000000005e+21
3.04000000000016e+21
2.67999999999998e+21
2.5199999999999e+21
2.99999999999998e+21
2.72000000000014e+21
2.67999999999998e+21
2.19999999999985e+21
2.64000000000013e+21
2.35999999999998e+21
2.64000000000006e+21
3.28000000000007e+21
2.83999999999989e+21
2.27999999999998e+21
2.88000000000015e+21
2.59999999999998e+21
2.63999999999982e+21
2.68000000000006e+21
2.68000000000006e+21
2.28000000000012e+21
2.55999999999975e+21
2.48000000000013e+21
2.59999999999998e+21
2.84000000000014e+21
2.75999999999973e+21
2.52000000000005e+21
2.52000000000013e+21
2.63999999999998e+21
2.95999999999989e+21
2.23999999999998e+21
2.80000000000014e+21
2.51999999999998e+21
2.9199999999998e+21
2.80000000000014e+21
1.75999999999999e+21
1.96000000000004e+21
2.24000000000005e+21
2.39999999999991e+21
2.71999999999998e+21
2.76000000000014e+21
2.43999999999998e+21
2.67999999999982e+21
2.44000000000005e+21
2.88000000000006e+21
3.00000000000015e+21
2.79999999999973e+21
2.60000000000013e+21
2.83999999999998e+21
2.76000000000014e+21
2.79999999999973e+21
2.84000000000006e+21
3.04000000000016e+21
2.91999999999998e+21
2.6799999999999e+21
2.19999999999998e+21
2.92000000000015e+21
2.71999999999998e+21
3.07999999999979e+21
2.80000000000014e+21
2.35999999999998e+21
2.56000000000005e+21
2.64000000000006e+21
2.15999999999992e+21
2.63999999999998e+21
2.92000000000015e+21
3.03999999999997e+21
2.31999999999984e+21
3.12000000000007e+21
2.60000000000006e+21
3.20000000000016e+21
2.39999999999977e+21
3.12000000000016e+21
2.11999999999998e+21
2.32000000000012e+21
2.83999999999972e+21
2.84000000000006e+21
2.0000000000001e+21
2.79999999999998e+21
2.43999999999991e+21
2.63999999999998e+21
2.20000000000011e+21
2.07999999999998e+21
2.63999999999982e+21
2.60000000000013e+21
2.27999999999998e+21
2.20000000000005e+21
3.00000000000006e+21
3.07999999999988e+21
2.35999999999998e+21
2.88000000000015e+21
2.71999999999998e+21
2.9199999999998e+21
2.64000000000006e+21
2.80000000000006e+21
2.96000000000015e+21
3.35999999999967e+21
2.44000000000012e+21
2.71999999999998e+21
2.40000000000012e+21
2.79999999999973e+21
2.48000000000005e+21
2.68000000000014e+21
2.31999999999998e+21
3.59999999999986e+21
2.51999999999998e+21
2.72000000000014e+21
2.79999999999998e+21
2.9199999999998e+21
2.52000000000013e+21
3.23999999999997e+21
2.68000000000006e+21
2.52000000000005e+21
2.7199999999999e+21
2.71999999999998e+21
2.80000000000014e+21
2.79999999999998e+21
2.55999999999983e+21
2.84000000000006e+21
2.48000000000005e+21
3.20000000000016e+21
2.55999999999975e+21
2.76000000000014e+21
2.43999999999998e+21
2.88000000000015e+21
2.47999999999976e+21
2.60000000000006e+21
2.40000000000012e+21
2.75999999999998e+21
2.23999999999992e+21
2.59999999999998e+21
2.44000000000012e+21
2.99999999999998e+21
3.03999999999979e+21
3.16000000000016e+21
2.27999999999998e+21
)
;

boundaryField
{
    DSMCSide
    {
        type            symmetry;
    }
    DSMCBound
    {
        type            symmetry;
    }
    nullDims
    {
        type            empty;
    }
}


// ************************************************************************* //
