/*--------------------------------*- C++ -*----------------------------------*\
  =========                 |
  \\      /  F ield         | OpenFOAM: The Open Source CFD Toolbox
   \\    /   O peration     | Website:  https://openfoam.org
    \\  /    A nd           | Version:  7
     \\/     M anipulation  |
\*---------------------------------------------------------------------------*/
FoamFile
{
    version     2.0;
    format      ascii;
    class       labelField;
    location    "0.02/lagrangian/dsmc";
    object      origId;
}
// * * * * * * * * * * * * * * * * * * * * * * * * * * * * * * * * * * * * * //


233121
(
847202
744275
762683
671852
686996
828578
781403
692131
602249
694142
733587
612522
648750
651662
713082
567819
584453
614801
721010
614984
479324
506172
438342
453680
476017
456493
535078
549075
551891
655575
704980
787887
542822
564621
587411
474269
406332
531284
605979
612782
635945
607619
555704
422085
521755
612150
656714
676067
691303
444263
310979
521722
521949
641129
645789
687278
560708
330588
425536
604073
518727
363153
455042
578396
630542
684517
740761
383934
484170
489533
425463
680369
699627
414909
429787
419608
336110
583364
472569
416265
438703
406167
660526
747266
385235
431664
392577
458918
476610
559539
582297
584881
690868
412171
506502
404527
435882
673691
485585
516887
680686
411787
498535
151016
197629
405124
372470
476733
542677
632278
438985
451843
228612
459379
866599
585816
615138
617126
386767
475329
400355
590459
526183
513278
237222
401486
264919
314093
661380
782321
497779
520659
702910
552483
508563
547194
397396
548523
333873
741999
457216
404212
260776
544465
661139
809156
545837
354819
309119
349956
801804
686854
880267
414179
564744
443068
287856
667240
382156
685652
583526
660789
492851
296055
313486
734736
682567
532606
479334
354101
362577
826234
663097
330141
336000
98198
759709
677989
563831
705917
543448
742107
669246
877228
659266
707668
903230
660711
464188
958962
642384
294181
374920
717088
745301
739345
532637
726261
473799
515273
420212
344120
936155
783615
501282
658501
715943
628192
652219
851199
613841
318020
652380
540106
567100
852450
295529
641065
642471
960066
583162
540514
632706
852369
581720
871664
819009
782383
876172
701629
840041
806871
666445
595329
745822
521115
935591
839082
824720
596619
474456
410439
693097
511989
600533
642862
624591
664233
775595
498694
907016
787664
743389
641321
709026
320506
745972
655645
545319
884456
505049
664700
938767
551349
950621
639908
574154
902496
770299
750935
922299
631370
829831
733305
727812
551818
736611
689487
559114
639401
627147
475698
583200
791573
554303
351683
873501
676841
632696
430471
646522
768492
801298
859146
581820
379640
773203
525438
836432
652893
644426
959466
786570
571069
660502
705940
663329
602991
541951
637692
327983
683238
658547
874877
838503
704927
509598
607722
817489
356959
736360
501971
417645
608387
815346
788118
813471
577816
426090
732314
597831
525148
773352
546201
638141
851614
895836
845976
861838
670705
813223
281907
731895
568017
921912
660511
588075
664757
966351
695780
321921
615778
957861
931149
871087
870661
818754
864856
830245
493699
669689
520135
828504
602742
941008
542866
418293
813475
753226
614837
826250
863116
781749
726338
747823
545820
713953
750632
564218
671920
721299
601983
514191
950135
828121
546907
497600
924344
881084
886392
885975
730389
765415
711550
320331
742140
546936
716805
588960
490635
663672
438758
751742
784934
708794
457664
630394
705003
592131
966245
760446
782720
793164
730742
726540
730139
493053
584169
805325
852062
733341
726015
787782
952360
761978
679815
722150
440662
915259
839717
891512
866061
692911
628710
523956
687236
838590
819878
362023
932111
440271
742406
607155
744869
661493
936390
905618
729214
827069
568303
607454
787877
601312
923902
746636
780527
790379
919672
765795
751018
625397
610445
806388
550843
833592
943717
892769
880514
698427
508648
759751
957741
589129
841273
418986
770353
657068
674130
661371
735840
719318
635209
900928
601264
647179
953952
897528
919230
832872
836922
822987
763578
771910
638747
753143
512255
489199
653676
738485
491551
576594
399536
677863
927560
706590
701661
890824
644150
702480
854930
882926
947281
602381
626779
581815
503984
879404
814078
555411
940533
604888
761297
697294
864805
799475
408273
915833
632170
756810
428118
681806
555205
531848
965268
926124
871142
922518
899149
708401
706004
738671
664327
466518
628654
388434
582916
611432
617072
711346
740854
851182
732242
622413
699617
952745
912807
946714
670533
656841
566311
786528
662947
522685
792083
803111
377257
770979
847556
758933
821372
498790
671965
870987
557606
744940
892728
568682
577988
893890
573839
337142
808387
920343
859483
881922
814354
774093
660907
537164
529846
434482
679444
626433
745610
631860
685961
505850
788206
840406
615727
404805
724867
611904
953480
907676
830012
862908
804282
605040
900486
667520
938081
680319
737067
530681
916333
926313
727425
858597
901397
794626
879518
942686
929537
816610
830499
849669
742162
816181
620982
402691
936363
572963
425161
487414
954089
443065
635308
876876
443396
837910
931631
575670
587129
799117
846499
729909
530600
958051
940071
713991
698363
556055
469668
449222
817321
617007
746810
660791
443669
603790
641927
701341
597271
605363
258112
966096
819872
804608
647964
613569
523932
877846
605052
834605
440199
730467
583819
784542
809630
768280
906116
922957
574097
340298
475961
775172
929949
948013
784883
642505
856754
739184
452413
770379
585680
649012
680370
448281
835019
825483
599583
875019
868940
639423
642156
403315
821715
528705
714831
616318
752094
887461
858110
917116
870578
887719
851591
822974
662935
644481
572019
521196
647942
483580
736187
720102
820828
331036
768653
709044
697910
817560
529048
673098
539820
595687
745399
870104
624394
907180
691600
531198
785619
581986
955516
860625
896685
836046
860715
707376
890087
748257
616933
790026
743249
694596
941583
441623
622229
751051
666999
518330
745731
765702
759680
917046
849111
666516
954630
888116
816925
871749
763148
875069
727737
929393
585582
470078
723502
720934
799030
613589
816424
644174
943902
609860
455673
373378
590473
963949
890869
948610
965518
882881
948670
900156
853589
907265
879345
856479
694582
667830
759360
620712
632741
717798
621438
772091
646918
494371
779981
839847
694997
839053
721579
576651
540490
496527
385355
935564
794224
872084
903562
665842
857222
527315
475150
937133
941870
927867
928716
896651
886729
848804
853028
799917
764501
782094
603133
812545
805974
736904
604596
719955
915268
861030
787360
917429
484846
789084
342470
676293
482518
854167
553317
762186
523874
925181
917149
815146
745321
851124
743029
905819
707419
795591
561383
820706
610424
538768
605784
448353
948887
757031
832489
543511
615249
763339
782002
886970
549144
661479
889280
869078
949278
958980
880853
897708
908699
896408
906438
884317
858766
727534
719544
868178
752845
722194
685042
725041
617088
837735
608020
706102
517239
915789
534357
906258
894144
504315
659503
433236
698540
870268
837317
863987
365680
529011
929476
755188
767147
588275
870322
645593
570575
610073
751943
858315
801436
873919
695960
845330
696468
545364
643644
766416
935123
852492
628684
492252
474577
612367
872270
555782
828886
713371
661857
956055
957076
958337
948866
933763
905701
922927
904564
798005
752266
802070
940796
823181
818383
538291
722473
678559
871819
482325
775006
532276
501644
881351
930163
586615
723805
831764
867768
922381
841516
385032
697972
351074
941942
954909
949026
938049
890736
910389
888831
820988
633364
706809
690615
630550
664192
681007
821570
473407
885121
741063
751633
636712
871650
887529
800246
713782
572681
808258
821256
934269
884022
542196
539919
900271
952810
839276
817292
748174
804940
755549
733041
761346
703341
667663
562273
655204
806378
456060
647850
456805
456150
254444
911550
644051
521866
540335
907888
673687
678783
505487
623104
844644
791961
917902
663146
945675
948990
927243
943366
905098
922740
896770
630001
687036
733278
871062
887267
577541
549390
583146
934244
889805
709836
953232
391146
530359
692070
586218
593745
834164
609090
933254
874123
575779
705028
683081
515932
965072
931272
936490
830557
606472
870131
585156
883453
687082
593230
858736
883377
687337
544173
529351
339234
640197
690101
655427
602868
817484
779619
684274
774840
565058
743462
754666
910574
860049
833278
668998
803868
899385
806223
932681
334742
760555
880306
892259
682351
838256
660772
680950
645136
790662
863673
707195
685297
686012
851394
749903
724042
610263
674717
659919
524478
605938
845584
936225
709650
859367
812726
559711
871641
774791
778148
924252
717845
634707
713814
945888
837012
715237
753198
900917
925503
639131
556540
875782
780452
511934
942623
481142
822572
909059
957197
880572
897202
833219
847749
784563
797518
602702
537403
645011
725900
577396
622050
683789
696043
867077
449006
759322
845874
567870
768618
719451
522139
935022
793338
696382
944174
887146
703434
702785
603894
666000
840549
791412
734970
856890
957396
862060
893344
883408
771908
809801
708869
747474
938422
715422
869430
760137
812323
607104
789766
620203
748019
656125
517449
962720
728500
881948
951583
672713
935620
945276
946129
933953
931215
842814
909022
849103
852045
827150
919834
774534
950322
734629
575744
766104
639841
407262
654314
963702
611039
622140
735792
507510
878664
688911
630060
697508
815292
748170
939161
952615
919125
897054
819025
850754
884277
665564
784389
585455
503037
855441
640615
554729
733246
714381
886694
865774
909376
650043
461550
573952
906138
857939
805932
332291
959147
961366
966719
925361
909102
814131
857810
952462
911521
858791
764845
632470
697064
722401
919832
816223
737548
521631
702929
923176
726490
668039
732641
513885
860352
926328
953228
873347
606750
747866
730935
443185
632323
893153
585867
503035
688800
684690
964936
924860
902038
734235
821895
613132
783607
540317
774678
673508
808726
909982
479777
660014
707256
923116
421137
621896
602477
784168
859994
921400
658425
816332
915390
553789
841190
898496
949253
950190
907977
873731
856275
865788
815570
745933
882944
922903
717326
887395
760179
671598
710295
712553
781600
737948
825358
795322
821623
788227
576881
764167
546878
462051
928805
887184
820487
953729
845347
830131
965472
882970
918874
812172
803925
766722
711893
864332
348007
714711
810004
707215
897527
190522
800184
564495
913984
762148
732244
557956
735251
645945
938534
887270
879135
895296
919510
878453
754372
847567
594014
671907
546007
812075
802721
817344
545959
760125
520196
400754
642503
935285
904942
791688
610224
477570
714002
761964
719905
864437
936600
299069
494382
925819
903583
902619
917928
837329
863232
755083
707646
615072
842138
669684
620925
738203
725994
660021
775141
475699
852717
587138
861451
627170
900714
933836
506454
911257
737833
586169
832753
881813
863470
774975
813882
939685
944485
931008
853421
925782
834713
875399
932510
843825
878110
863173
736746
799451
810449
701165
751882
890301
910408
522812
669861
500155
827681
693860
864042
500125
867185
878873
576192
738086
877055
742125
619985
882864
803565
664971
619608
852027
740754
691593
609392
892190
815994
904047
965547
914677
922778
859967
869610
900612
894171
947446
820023
897125
886664
825435
815606
529343
899273
303159
619581
899565
573566
721413
631417
792283
485014
913247
596819
724947
876632
583022
752063
556851
957477
925425
938915
858854
903559
800222
799971
695908
743979
586217
736969
574929
747307
759817
894819
703402
928256
914218
595662
839378
585825
657701
740865
737085
762100
679925
866680
938235
959587
814466
802269
818025
691416
948184
874981
854832
766117
754045
815484
603727
787629
628378
551269
808732
792769
618988
753170
875480
961756
636749
652902
751524
783317
605951
715741
395663
700992
905308
855752
889810
733365
819608
804829
857027
784762
691862
742969
826710
861555
900862
833097
535891
690862
591033
735192
841950
955672
836080
496137
944926
866968
648194
749657
526120
886021
454151
192649
876130
876452
809930
862014
751134
574019
642858
729371
619889
512691
783802
595172
594138
641138
720967
291089
705960
817086
762000
703350
908241
954898
640541
860257
500974
184114
643204
505277
406214
942699
919578
930364
801393
836572
746119
690750
650569
925226
858338
560546
502403
728491
568207
766737
608555
757587
655187
713880
730014
579660
901632
949457
480053
539933
918351
878654
963646
780105
623568
949686
566786
825319
392090
204603
436875
675884
465437
939607
961135
787373
882655
776035
729285
796885
586687
614948
883137
921156
931796
483183
479909
767880
528014
699720
939598
807631
914694
535309
703891
679952
567305
483362
799338
634278
959823
853716
346245
727273
639927
716195
777255
963961
903297
820399
874681
779223
787896
789346
681060
662167
926391
395904
454973
960273
690133
864572
693414
957238
863273
963997
425964
487054
906673
755445
797969
966825
782243
561355
704040
695112
672970
855044
771134
806903
661701
510219
434052
780821
809802
548526
731706
903031
862472
535023
939413
877116
891888
580715
898273
837201
543191
861095
861786
761830
780118
573913
441911
754003
908369
870939
787012
811340
930368
563245
847123
846441
392996
775414
567067
895038
394635
966580
807642
661421
564836
533469
827136
964754
927675
891224
914522
904192
864708
688824
811712
930980
491492
779703
542013
541240
530904
386559
641911
633598
840066
888669
597419
952485
725402
957654
840239
440787
712950
516302
688728
234314
800728
552135
695365
868010
933288
938190
921091
925757
866151
860528
886267
788550
807273
722608
715683
655605
599829
274209
577294
718355
659667
946660
874252
882669
919302
648019
810016
905038
732329
933961
718884
553526
800027
523898
631733
807871
777852
789000
868251
853931
820110
680831
813581
621648
592580
688854
387623
707235
575951
909365
879461
572277
478004
936113
348914
892962
782385
780428
931070
640150
110197
898634
591007
573064
319999
489757
685591
824808
619552
679212
339922
805091
953641
957527
955106
775187
911767
949624
888817
724726
748326
667189
779640
831862
633986
635953
876438
703367
658900
943205
624157
894680
800304
696666
897315
797988
277907
812184
817469
938377
462301
407734
845958
671561
887069
900531
221162
424856
362300
822091
578071
863361
842824
892419
874834
919621
799362
941689
720429
891446
620219
371781
883296
883627
964096
862004
730049
645486
379843
349066
517467
495768
857007
729838
596014
618458
340195
891470
925730
634480
733513
662244
719309
432683
927532
688231
673904
914239
912991
848980
722303
759474
845771
719988
685313
532751
338469
270224
695836
808860
571983
897368
609176
870211
934180
746591
718231
601816
659635
899544
743053
609500
759803
799888
940464
963652
921805
871615
842256
800910
740829
834297
722695
794231
922594
456196
836663
481350
432126
695649
740087
862064
826655
584796
539012
903654
844260
355727
654072
265362
561280
935599
800717
824818
759348
538658
512022
652048
696002
919917
442389
586740
628532
691629
520939
670269
932046
765909
702813
783265
562756
931900
917167
369991
329630
415827
460144
806508
701879
744811
702433
487139
670044
452758
483242
861876
718433
277556
605022
788831
773359
864778
547431
328134
686635
799781
625355
902045
616074
587589
526480
750398
555829
494126
589990
791361
627430
489764
858709
966957
949432
929576
894015
804967
756284
753562
721444
649729
615025
730857
756220
611819
760801
564851
680062
763588
745441
876972
566677
768062
643209
515063
532911
843303
794510
310275
309288
639987
382171
353430
740137
782256
594812
733941
940380
845819
873794
527967
450768
817762
529783
536655
432481
606210
643501
808078
521967
630986
873831
762590
561997
557130
567022
406567
383280
738038
707515
674736
823862
894398
698428
578489
843044
901353
737185
764832
833403
494528
460672
727552
834703
670143
912369
376351
846315
562315
304302
726649
723583
759231
598379
956144
478994
557190
433557
617186
331196
650522
393336
910336
873625
849407
772109
798805
584812
571987
428834
958910
521793
841449
654124
865913
907526
883916
929366
706787
758974
890475
582405
930351
770723
612886
625493
14166
865295
589987
754409
546215
374531
675222
825565
391659
450932
591629
848583
639336
222797
913222
777275
738603
765021
461074
485333
834497
610387
727182
657719
735955
615296
515133
541975
578375
863502
857970
875046
710540
685898
879479
811992
841884
926882
912329
923183
353478
742887
328885
822607
548622
852761
532733
887511
635408
812259
635454
554354
837303
423840
664180
445767
652958
691331
658536
536682
855736
511918
806247
586751
718489
403442
899644
935621
867138
575858
555638
894556
790288
899432
835096
719268
188753
17736
720473
455270
533614
818476
895428
238602
294828
960349
470784
485836
687213
739419
828563
588883
873461
825294
934074
769009
506465
545888
722159
807187
909435
710121
568556
313180
676149
527332
674127
531047
640366
687575
946249
850973
696661
746418
931192
385910
506517
956666
901773
253037
512344
705342
429576
761130
769768
892584
846747
881872
730454
383372
610852
476052
942260
923997
924025
746181
418471
354639
268850
429152
882670
895473
906089
500307
434418
740142
524830
843977
681860
678293
526479
518573
421932
965900
798848
618498
646043
903144
652915
695511
518966
742180
646672
682913
610887
908373
574474
537007
685427
781059
809977
611917
738386
446996
667515
346377
467470
795077
783999
615193
667689
420732
741357
643530
375092
781385
712603
211782
328838
523451
614176
661784
560384
554938
725687
715437
403156
385159
333536
677910
499028
709174
562677
833043
556899
573754
878596
694067
624386
884506
561410
629545
819036
659820
493873
522457
506208
565120
583592
696351
819856
833060
788052
915963
767684
786985
385876
320967
608673
689934
639228
688373
754336
560025
647979
951846
558092
504371
662656
934318
900335
752960
942624
895986
592212
943086
815351
960140
918939
861336
548229
652966
633125
451844
562397
709535
455238
679111
603683
500037
407229
663591
962847
736979
573348
957742
694477
422589
577827
610336
522829
584632
457727
562573
487151
800505
805347
787141
673450
436247
654967
567248
790674
452741
519521
715282
287692
111861
954268
762367
776723
763785
768996
404673
630669
833489
393375
785385
549555
902292
396531
698981
562084
662266
790215
565473
721201
506839
572074
848934
749189
632983
927464
757649
468807
600914
526294
489473
682568
457094
694448
654372
603051
946963
419340
559690
778690
844261
591344
848448
933846
907119
718765
551220
853896
788752
865373
637643
560733
570113
752651
575937
377348
501198
578908
939384
342431
646011
866606
567832
475082
914521
807614
798610
614867
500583
500614
490782
719897
429772
566244
642802
527638
591617
655371
930141
620288
501223
288142
966855
839388
753913
507744
464697
501254
450152
825423
215857
403399
881541
894638
707231
601814
894565
651130
950872
757711
760360
714394
510054
87389
479006
278663
469531
790591
690310
339768
816440
698996
637430
428390
668147
493145
655463
497811
476770
754275
544759
552588
299652
806165
424989
864996
673131
763648
770902
631392
693397
605153
368422
800416
601135
514568
468074
488695
627844
488527
453438
542783
734249
813169
952265
592776
757399
919431
918516
915652
569944
894564
682286
568135
766853
525301
562243
550347
424077
282696
439231
755679
643809
191132
804486
263618
907111
834160
566133
679222
844715
513118
595082
580452
641819
828436
695826
660756
691056
741350
688229
467185
806064
578320
391027
926129
762330
522931
839341
928704
648429
709457
577957
791938
717521
581854
517919
413219
120566
151620
770014
795318
856904
833632
549907
719645
783766
778479
930419
952161
748415
625530
929780
660082
920742
637490
629849
931556
538520
409070
740208
931443
583996
845325
851091
691892
861234
954534
709583
479614
476240
281914
524819
860694
65022
352950
601063
613669
408512
494858
901286
596462
453815
854066
691314
524698
393869
462140
772985
271240
502108
272024
834966
640587
606474
569345
487727
543204
680478
594500
792285
712579
947040
522575
387387
607420
840355
476806
561764
611352
605775
781618
752712
683577
941014
753542
555657
905827
698220
676725
143891
760287
780627
591469
678157
657111
479188
673208
937377
782733
683799
565813
447181
567911
422475
673571
857784
817615
742612
798291
958160
795929
889735
551934
325161
577395
612546
499969
581278
471019
862194
626601
744095
308295
734605
574884
360279
360233
730078
538415
446464
508569
510424
618290
607517
759930
436820
755406
581330
846894
625155
767056
498430
579471
512868
633278
849945
484527
595320
621261
624270
644550
929090
948954
702316
641442
404855
711889
491363
537649
691533
855627
532250
804240
384034
949645
565848
693099
952824
565385
613630
763455
963801
370773
715413
616302
792272
363428
745138
566340
561501
913425
795957
700083
955205
595873
435718
588226
788800
427337
712465
774170
638801
926559
843821
559255
902244
633829
624396
809275
833882
743464
771434
779078
842714
716655
929012
898828
861980
355021
802470
743293
925773
330404
139603
594031
503915
270241
471169
412874
443436
512913
351000
643272
341527
377759
458900
618207
575190
678060
531856
673252
855138
416423
678465
848577
635545
453781
702723
523892
662093
449714
619935
343949
528470
580423
517131
573728
583563
776394
947605
604571
486030
562417
186178
474004
698759
489604
703572
902507
518095
293886
471921
742304
798552
372973
771616
529531
915498
871321
855207
682441
694344
804575
880769
522954
941036
731887
591440
490485
943380
750919
752950
309595
610430
742871
744492
891308
677682
849712
472955
858351
824796
629919
454920
708909
764799
597751
439484
870894
900228
539362
671041
384045
786746
879499
707257
716109
361682
535670
829297
626395
565977
650020
945910
497974
275783
670805
511082
518026
762389
817047
892048
546994
609604
674378
653923
800595
304881
707596
654524
873559
778280
321945
644802
621982
543650
445595
649441
788902
521689
902936
601868
731834
662113
484559
354229
633662
560440
637766
947702
666262
682737
456857
699367
351376
522715
831282
521594
327952
593416
930867
840243
909916
376873
765914
767653
940967
937803
789028
721373
868670
773234
705210
902886
700551
892847
547803
631308
239991
410068
243365
429529
860900
775682
646826
463481
572306
342211
538380
538354
431184
546004
678237
37949
635142
651971
777200
643129
520027
749254
519164
551252
391715
645709
771196
413241
692178
433345
379566
735051
402710
514270
457831
414957
704615
695594
639591
754115
931945
500474
381574
681735
320541
440404
242091
734926
659752
818500
930022
454715
536761
872899
849274
688992
765537
494695
652859
888857
739480
333046
645167
369529
277235
612920
665645
430116
924738
673540
384987
451550
427949
889824
606808
659293
742286
544133
471736
823262
720258
827460
423656
882498
685371
591717
751918
729474
867348
723903
649629
703814
917124
803400
761629
785948
524952
804651
642798
493506
546471
471160
830436
811503
710078
727528
545499
636146
945576
374329
861412
907546
322142
618896
208402
910238
881312
398470
871524
741702
523168
567023
484184
811727
671491
914408
356044
826130
476185
338563
693786
616601
709038
661738
673536
704486
555990
868612
582738
787040
640135
925155
732153
728916
857456
522282
425379
483656
61905
646341
493172
606510
677490
846956
362468
859908
304673
959110
575250
675069
648833
962430
900974
864405
657099
731705
796333
949724
223433
744360
743625
362367
323610
580216
596094
319873
589870
245987
527682
654191
336608
468065
617788
684001
531720
456460
584065
607603
424369
641349
946085
751120
596236
778369
961457
698202
565842
853224
609645
116560
634962
573748
428850
494747
638430
623895
665228
451464
623640
687646
633647
500635
663841
900925
664298
466780
644748
552453
743717
627989
529563
777992
847539
503047
296174
851316
723576
923073
503420
575674
592289
524852
222657
743222
678039
486633
630817
722638
728734
713413
613285
838985
673582
363050
683589
656755
887999
411003
863124
861493
824210
634555
790738
756254
858586
645019
688888
748846
809075
902844
722251
731920
662240
747649
894690
848567
704843
737292
869389
505386
663433
366881
827098
641864
918192
817755
861548
713228
703588
904974
634578
846072
859067
484590
867860
701379
746054
818161
823861
591337
592506
540489
609596
593258
439918
910094
599272
660431
687695
614796
739873
776586
800476
668120
596191
536953
919354
460297
771823
690006
579474
921601
838826
681769
544954
529076
960188
641294
123821
577335
256543
839515
286368
818519
723578
651248
645820
346957
900248
123850
684130
600084
739797
924335
703330
538788
904878
630251
887057
874245
429857
773667
419917
713855
758609
308598
469584
608266
612403
71118
627675
641658
611641
428610
448656
346974
589065
356844
396438
690287
641025
650285
402335
621290
340167
450672
213780
779351
196998
232524
193663
722566
510228
185070
604357
639394
382812
663209
552510
704031
756535
468241
908340
472176
700739
547368
329024
172766
598737
508953
711767
375358
459078
555818
863194
508301
536041
953469
667175
677139
782723
561905
464186
505711
684195
678150
922790
708857
873727
634099
407291
562834
364315
710155
668656
646636
693761
591028
650460
447376
748241
536612
292928
286706
525647
532632
668412
749537
558084
824026
396607
854774
630113
411613
555481
673365
752382
374786
453381
643279
611686
539746
515910
869123
713649
921254
576942
754731
924017
629850
606135
485992
807130
950891
489499
664026
647029
725668
470594
673646
562701
155106
633238
803830
772890
478663
492339
518786
616499
374638
642320
366020
720856
721581
510734
462513
527270
624527
593472
757435
506220
710432
545119
487649
788460
704459
943544
466668
881357
447076
614900
401825
961743
859696
788529
895330
380194
488659
862085
693358
473510
829324
478231
867062
695725
611083
518643
585179
417416
758233
751086
690121
763009
964420
464675
756497
628045
411542
335240
909050
910528
876245
559158
373181
688881
327466
962008
599736
682775
955794
886766
651395
773201
800917
582375
448080
764957
952636
909721
881964
842516
889603
435600
366612
92148
325122
378655
359116
361865
715750
702862
164496
51920
605470
507826
352632
726091
629474
544433
723040
456817
175629
513306
702855
833954
954299
292049
515394
482645
286558
531060
801561
697989
312800
632211
684697
450748
903890
546814
546058
760936
464304
728577
422305
822339
894824
738117
466622
275031
803289
706835
538952
465654
621457
445188
613608
374036
749508
651044
756392
658624
457438
306619
477396
780604
681925
689707
623382
917905
700983
148947
367871
418487
896607
751205
824784
341095
426775
898539
802587
637044
771045
420617
511100
389309
312369
347161
815053
337285
227970
286417
607303
871489
598185
750779
649665
494485
235813
811401
703995
833934
664751
780768
762111
534740
841924
763476
793322
719473
452706
397127
568559
414269
359872
757104
535502
63657
342115
769526
588892
741033
523562
698886
884933
636013
425070
548097
912312
597503
756568
807735
546116
569855
517808
616895
679840
821329
367962
927948
439922
765123
943559
596082
479216
811345
668095
132991
780454
487210
739615
873967
608669
250759
854026
839684
725192
686488
967196
706460
847955
787331
646020
461950
740124
358111
519071
823219
536638
612330
904460
599760
338217
581404
349153
693360
514403
751964
910035
905972
390312
667140
721228
447292
881925
871688
462334
540293
783741
429408
675704
640104
515774
683517
653698
709381
333608
575786
814710
661730
508647
698793
750072
791239
416394
811511
828410
391212
684487
540352
549039
428077
670902
852135
882126
676687
389518
837778
561549
835933
695458
817374
536657
507982
389894
915230
832698
738652
709927
528266
517934
890738
863779
726616
709193
744769
674345
283384
437286
482487
498326
491444
725630
571322
556543
553937
555927
504700
656371
756036
757930
591612
595948
369697
304823
577723
475778
469700
484231
486957
216417
327742
566018
472247
889047
325535
548095
680262
631127
484429
617608
455316
682377
435808
650787
670505
636834
411451
553848
384264
657800
461912
823838
600650
97791
859402
416006
384610
616237
732925
729589
721041
378560
558466
698991
966343
510078
753179
745034
550979
675976
632655
664955
692288
495109
307033
634349
750096
213908
570476
561963
958698
601679
648303
772955
570234
218355
737664
661057
760805
725130
878459
880984
369246
496213
643763
438871
557375
736773
776746
610779
467094
287432
667716
805802
764137
738662
942575
325049
891073
331683
509534
502125
691623
656570
626062
645835
464147
637750
875951
542441
469675
167998
776822
618719
856740
958012
617784
806620
528391
418000
876442
365723
704668
669687
787725
653907
820984
414728
491312
411882
667919
172848
639221
792934
645779
631685
706928
673982
802798
739424
889301
304995
240831
754263
718413
529837
836813
486726
730908
356492
428895
397382
935865
583636
801902
588835
933169
395274
413404
510162
275651
713095
710639
420436
676945
483480
766725
854080
814701
447370
703421
693711
239921
475771
647282
698729
808668
537674
558734
492531
169432
625786
472492
818431
827076
857616
661142
634594
844004
956964
876553
760558
731488
739769
597626
771042
898012
575089
529964
277880
601119
435324
602392
723247
784820
580618
520002
563595
580767
730894
552854
687847
930622
708530
703928
631645
825582
722489
296537
301316
858885
794643
962947
680164
725930
658413
75113
205778
407242
248626
535545
514146
624464
343062
387709
379139
357377
649023
422883
767328
468499
559546
315378
890360
636741
596348
569735
231096
645210
422367
784468
543298
384773
499531
667516
347402
450442
682161
596420
562776
581653
426812
571122
622602
856490
686381
591801
957351
751625
262329
756121
449323
602506
792690
411326
639478
646895
592207
427127
454343
786015
369887
316170
611898
191340
562707
118706
488249
428401
495344
595047
723206
765949
736825
628254
703537
751214
900072
492809
823448
535949
434779
707790
808454
479699
494530
715993
378510
399793
800212
822915
648645
527655
757653
476223
740017
514621
465924
725202
594271
480032
361759
675047
440103
727346
292916
532846
630177
119890
778651
900404
576729
665374
859501
840216
720360
865248
457852
547938
244976
777883
504333
642989
720668
625479
696369
679686
281007
520226
830376
708268
880019
686421
649945
730755
718801
704595
469818
321683
725173
534803
743086