/*--------------------------------*- C++ -*----------------------------------*\
  =========                 |
  \\      /  F ield         | OpenFOAM: The Open Source CFD Toolbox
   \\    /   O peration     | Website:  https://openfoam.org
    \\  /    A nd           | Version:  7
     \\/     M anipulation  |
\*---------------------------------------------------------------------------*/
FoamFile
{
    version     2.0;
    format      ascii;
    class       vectorField;
    location    "0.00072/lagrangian/dsmc";
    object      U;
}
// * * * * * * * * * * * * * * * * * * * * * * * * * * * * * * * * * * * * * //


29287
(
(254.507 -740.173 582.644)
(997.613 -1108.02 386.412)
(-506.028 -363.481 293.15)
(-440.423 -1122.87 -254.716)
(567.073 -422.404 -643.249)
(-116.499 -169.209 -481.398)
(108.721 -106.793 29.6137)
(-842.538 365.584 -141.973)
(-129.124 89.2481 -386.633)
(-250.765 -358.557 370.007)
(-539.319 -753.676 68.1466)
(426.101 1552.1 304.767)
(-115.118 -537.518 -1108.72)
(553.55 -495.208 -514.065)
(-74.3142 -153.528 -263.403)
(-574.13 553.488 644.214)
(-198.189 685.274 613.245)
(-410.758 -177.354 -112.863)
(-194.79 -915.243 277.493)
(278.359 385.64 -214.756)
(-614.056 -635.932 104.339)
(-284 63.7155 801.92)
(-12.4099 303.119 139.117)
(148.492 -178.324 -82.2296)
(858.098 352.603 298.902)
(426.719 -117.146 442.861)
(-269.867 265.739 363.19)
(-492.753 -163.116 787.833)
(-337.23 81.2048 397.638)
(-108.977 -631.237 -218.925)
(-239 -63.9739 138.765)
(559.312 -180.814 -835.901)
(300.528 -144.652 1077.44)
(141.196 630.352 376.773)
(119.603 -322.508 258.318)
(-548.736 -445.654 381.98)
(652.257 143.981 -271.225)
(448.741 -88.0576 1126.69)
(400.651 -946.11 466.291)
(43.6764 -866.177 -262.705)
(-706.862 -679.658 705.731)
(-178.94 -255.5 314.211)
(655.595 -394.455 -304.114)
(-414.047 633.097 210.572)
(-755.596 190.879 131.467)
(-617.53 242.921 681.512)
(1145.26 511.081 -29.8875)
(309.694 -127.882 -72.7601)
(895.879 -461.907 -133.908)
(92.974 -46.957 451.326)
(93.9836 472.391 -652.638)
(-271.406 846.734 284.605)
(132.414 -809.525 367.626)
(1217.6 -303.261 -61.7718)
(-80.63 -375.646 121.467)
(344.177 1012 -160.103)
(-321.535 -265.262 836.532)
(84.9461 786.742 -711.42)
(309.065 936.251 -180.034)
(707.665 597.594 725.669)
(-244.864 -36.715 169.122)
(-958.604 270.975 932.383)
(795.169 -302.099 -233.839)
(350.317 -528.438 -648.494)
(862.491 23.157 -41.4429)
(-342.912 39.7835 141.577)
(-344.982 -182.899 -477.077)
(618.584 3.39963 373.543)
(567.918 96.8583 965.826)
(274.04 609.404 615.588)
(-498.279 -334.015 322.619)
(-402.267 241.643 -436.605)
(-292.913 -376.888 -16.9623)
(395.339 1023.05 169.242)
(133.73 -160.537 -521.062)
(79.5278 736.255 -126.523)
(335.183 -23.266 300.336)
(692.578 -522.862 517.784)
(68.9211 18.1178 -1354.46)
(147.803 140.233 -0.689636)
(-790.231 -527.043 155.184)
(55.9287 -260.488 -644.792)
(131.385 708.791 -40.8273)
(-49.7494 -410.115 -571.869)
(354.705 -237.467 -627.809)
(-588.937 717.112 -363.948)
(-227.275 -410.4 41.2365)
(103.231 367.633 316.946)
(-118.721 610.524 135.869)
(-171.705 109.292 11.0844)
(-548.928 -145.873 612.713)
(235.95 -76.7396 -33.0151)
(717.117 -562.586 -408.827)
(-936.744 352.376 -236.651)
(93.6115 58.2252 -539.286)
(62.7944 -37.2214 -165.17)
(-498.211 95.3869 290.84)
(383.366 1265.48 266.084)
(673.185 99.1437 -26.9519)
(1321.77 423.335 667.448)
(1330.56 -237.005 -466.164)
(38.8219 -426.623 -127.175)
(-1521.38 -780.502 -771.058)
(-261.957 91.9535 -492.28)
(-508.584 -305.549 -113.997)
(366.638 -1011.28 369.021)
(-197.9 -900.356 -516.167)
(-177.212 -283.444 378.07)
(-33.8611 317.146 -53.4894)
(55.7266 -667.776 251.105)
(442.718 -166.853 132.646)
(-111.473 -559.287 -512.736)
(640.501 -158.214 -1223.55)
(301.282 -526.548 -330.817)
(706.205 593.762 45.5729)
(1037.85 -1009.81 7.81598)
(86.2994 501.55 -242.49)
(-32.0322 -187.732 998.217)
(-382.686 506.608 -983.096)
(-555.44 211.917 454.748)
(-150.351 -644.463 122.406)
(-100.315 309.288 -1142.12)
(130.104 -242.626 1175.74)
(465.283 -186.17 92.7067)
(589.912 -232.494 -176.097)
(-554.491 179.509 578.042)
(-603.012 607.866 1180.21)
(1007.67 325.255 466.003)
(52.1603 -411.888 -621.887)
(-106.48 -191.899 697.79)
(-453.907 -79.4018 1014.61)
(5.90021 785.656 -893.292)
(381.424 -327.438 -121.405)
(-164.066 479.526 842.294)
(564.786 -313.845 -1.46249)
(-831.422 874.398 205.89)
(274.356 458.756 -552.558)
(-870.934 201.951 -483.933)
(219.637 7.57573 -366.722)
(-1096.76 -1111.28 -48.7028)
(722.5 199.736 601.221)
(-434.995 148.419 322.178)
(451.661 -450.693 246.185)
(-141.908 433.486 659.469)
(556.566 176.083 363.44)
(186.513 420.101 316.624)
(-117.813 -345.978 942.458)
(114.668 623.259 1110.84)
(-1001.93 294.079 614.254)
(205.729 584.496 -17.4889)
(-212.017 722.664 194.062)
(545.633 -308.048 39.5297)
(650.404 542.991 299.937)
(128.113 -905.512 196.167)
(-24.3737 -428.296 775.574)
(88.1022 -329.388 -738.959)
(-416.522 -440.954 -530.762)
(1044.42 -616.238 1019.36)
(-1214.62 740.497 154.903)
(639.15 -249.627 -8.82456)
(460.8 -236.142 207.474)
(-1190.6 -263.421 -369.229)
(-699.409 -19.9148 -502.959)
(4.11423 163.634 279.307)
(-48.5694 192.591 -431.78)
(-558.845 168.356 317.712)
(362.72 299.436 251.586)
(889.443 -52.3266 545.906)
(-221.394 275.821 -377.376)
(283.899 -136.394 468.629)
(-634.779 -113.234 -779.347)
(396.689 235.973 -337.229)
(327.041 -256.154 1238.5)
(-255.973 519.148 -131.104)
(231.264 -1152.8 300.112)
(-235.19 -684.946 -561.225)
(225.539 487.712 -155.152)
(21.3009 606.697 134.086)
(-443.664 361.172 209.298)
(-78.24 -145.863 -195.465)
(257.737 -193.857 -9.21729)
(-473.433 -221.134 -468.901)
(-462.09 505.763 -188.092)
(-227.65 465.105 -174.856)
(-489.881 -401.626 1413.98)
(-1061.1 -532.546 575.937)
(-66.8916 -7.98487 96.3812)
(215.242 50.1056 -106.537)
(-960.218 -248.97 556.564)
(256.445 267.501 587.451)
(579.116 -171.56 -194.834)
(-521.361 96.3718 -386.139)
(117 -1130.49 -110.176)
(983.79 -21.8403 242.698)
(-392.559 -384.415 15.2414)
(-978.026 796.031 613.597)
(-786.906 -727.026 -106.606)
(-409.431 -17.3288 -489.04)
(822.597 338.694 -237.713)
(-603.501 60.2217 -1227.92)
(-272.917 484.099 166.789)
(-29.8983 -825.816 714.477)
(-506.049 196.374 3.15656)
(916.082 -379.563 -240.523)
(-1028.25 416.332 -234.353)
(830.48 404.852 11.7869)
(-632.981 -1174.81 969.535)
(365.184 -586.361 -242.149)
(912.584 -150.35 -839.006)
(243.471 -385.666 235.922)
(-475.431 82.295 -577.47)
(672.716 314.543 264.587)
(-3.02323 154.957 -215.615)
(48.6562 1989.78 199.95)
(-30.9386 -729.895 1597.78)
(-470.91 141.285 -841.288)
(-880.338 53.2977 -936.314)
(176.951 1527.43 -456.774)
(-112.806 -31.0303 -384.959)
(87.094 292.548 464.423)
(171.226 630.927 -480.153)
(-3.15033 -298.587 671.448)
(-724.795 143.215 159.764)
(894.858 -252.513 -1096.4)
(135.041 -728.083 -490.017)
(283.671 380.295 258.672)
(-247.099 376.95 294.906)
(231.425 230.316 -999.527)
(-487.058 -59.8079 -52.3008)
(-668.317 -166.547 -829.274)
(-679.649 138.863 173.72)
(862.897 553.756 -291.04)
(450.387 -177.962 -739.418)
(563.079 -101.668 -31.7667)
(63.3696 584.521 552.93)
(-60.9207 349.313 -207.662)
(-482.385 414.248 761.646)
(1640.96 -639.055 360.137)
(866.787 251.928 -106.538)
(68.4393 157.144 400.238)
(315.626 464.997 595.822)
(3.67767 274.526 930.725)
(-86.8397 88.7811 -30.0708)
(24.2834 604.195 -165.021)
(61.3064 -697.313 375.984)
(651.745 715.175 22.3368)
(791.855 165.049 962.794)
(-359.298 -215.873 -258.266)
(430.401 413.592 906)
(285.09 182.858 352.451)
(-183.247 442.493 -30.654)
(-520.192 -662.777 -431.208)
(-294.036 -344.948 -209.913)
(225.286 -165.393 -330.102)
(536.805 -118.666 47.5202)
(-180.045 185.656 301.419)
(-358.547 105.342 439.542)
(91.6168 218.31 557.126)
(-388.552 265.136 852.514)
(-484.41 27.2064 -4.62308)
(-491.727 461.638 242.807)
(1152.84 -255.556 89.4697)
(530.32 -262.998 25.7436)
(84.9563 251.212 1218.01)
(256.604 -381.457 -284.757)
(81.2132 84.5645 -312.73)
(600.913 572.238 186.592)
(-242.114 -1294.28 372.549)
(-258.642 -563.635 855.985)
(1561.32 54.311 577.493)
(398.342 -205.77 703.836)
(416.865 -492.12 368.691)
(547.946 695.277 1397.92)
(562.077 -507.25 687.556)
(1134.27 -77.045 -583.493)
(-996.375 439.349 216.368)
(14.2779 -1176.41 -740.733)
(-818.475 -663.397 -529.799)
(60.506 -593.137 -688.889)
(383.013 341.559 158.043)
(252.43 -25.707 -1060.47)
(471.96 935.534 -153.292)
(1056.62 1250.79 382.697)
(-687.86 -1.76548 89.1477)
(-689.873 79.7418 423.104)
(43.5532 -756.478 -846.154)
(662.355 -835.897 178.355)
(430.525 206.096 -669.405)
(77.644 -547.124 682.053)
(-306.777 -224.927 -639.582)
(1005.86 292.558 786.667)
(-863.134 206.003 40.4962)
(431.191 17.1196 191.212)
(509.669 -468.367 -356.557)
(-434.514 701.97 70.3147)
(-842.855 677.413 -880.844)
(433.985 -639.329 -325.177)
(382.238 90.9165 -73.4529)
(-313.942 -344.656 -37.2931)
(-574.381 -69.3523 138.057)
(-124.519 25.3783 -628.73)
(588.307 52.2232 233.119)
(-490.123 -549.985 378.148)
(7.41953 -142.516 798.619)
(-454.782 -264.459 -439.094)
(-587.64 -330.003 91.9967)
(-469.109 -81.6184 472.588)
(590.258 -392.584 -246.906)
(653.352 598.159 70.8839)
(992.291 246.752 130.266)
(-40.1202 536.109 -93.6601)
(365.657 642.477 227.564)
(701.517 -171.388 699.086)
(522.046 -718.784 790.701)
(156.225 -1063.12 469.229)
(970.74 -75.9949 -246.002)
(-36.5608 -27.6247 -478.826)
(206.664 184.135 351.607)
(-453.401 -315.503 295.035)
(-173.081 508.999 448.727)
(-167.267 1018.95 -204.202)
(375.912 -1114.66 -484.855)
(886.887 -444.452 -203.807)
(360.491 300.229 -39.3651)
(228.843 774.299 -69.6385)
(-30.3536 178.645 1361.98)
(-832.672 -369.194 413.856)
(34.3974 296.878 1236.8)
(-417.288 -617.879 -615.583)
(-452.911 -428.589 387.653)
(32.7145 -584.481 284.649)
(-645.621 403.343 192.589)
(41.5879 459.226 -91.1033)
(523.326 -187.003 -441.267)
(355.384 -614.88 2.94038)
(-114.022 32.2402 -78.9459)
(178.502 -1203.36 -44.4157)
(151.272 653.306 339.894)
(1077.11 -337.33 -303.412)
(-413.821 52.2583 -96.4209)
(-437.178 156.591 945.747)
(677.713 -624.851 170.228)
(-687.122 -23.5251 163.904)
(914.446 25.987 -1082.15)
(413.727 -566.199 -444.876)
(147.164 253.898 177.1)
(20.6227 660.8 -415.497)
(-763.907 773.559 616.725)
(-333.212 -398.813 -473.144)
(173.664 245.874 -182.678)
(-703.573 -614.535 2.92823)
(431.563 98.4886 -107.191)
(307.012 -610.675 643.608)
(-341.638 40.4327 -591.308)
(589.789 -57.6903 -421.653)
(202.016 -102.627 -313.017)
(135.57 206.885 -692.789)
(881.573 8.11321 -312.398)
(34.5976 652.488 -1235.34)
(-222.881 1003.97 -109.919)
(597.907 -841.865 -509.787)
(109.823 -679.191 -195.398)
(-520.45 996.925 339.304)
(-436.437 -322.567 -864.838)
(-29.2183 501.72 -310.581)
(-293.404 32.1762 701.925)
(-241.814 18.4747 207.894)
(-568.297 -472.922 -1118.67)
(401.227 -613.905 -44.4881)
(981.154 133.574 -303.337)
(93.49 155.06 -136.186)
(-140.941 -314.697 815.711)
(-643.66 698.659 605.185)
(168.807 573.27 347.542)
(-714.27 110.826 -411.159)
(521.43 357.787 469.115)
(207.503 371.338 299.152)
(-593.875 88.605 -324.707)
(710.708 373.995 -151.425)
(56.4447 269.563 -455.479)
(-450.745 -6.33815 170.472)
(-37.3249 307.65 -106.819)
(-880.066 144.503 507.334)
(381.372 360.014 -318.353)
(572.845 -340.23 149.395)
(545.567 -92.7616 -378.675)
(-337.674 612.636 -101.715)
(63.4271 -288.144 578.489)
(-540.934 -383.697 -240.861)
(-895.196 238.785 509.959)
(-822.766 -184.837 -1005.6)
(-347.481 156.265 -25.0215)
(134.204 -479.124 -337.492)
(-411.013 147.151 -44.0693)
(-235.352 196.349 -107.825)
(-807.109 245.411 313.425)
(-211.549 -26.364 795.428)
(-218.96 382.158 -550.224)
(-206.998 1240.41 40.1617)
(576.644 -699.985 -559.151)
(270.18 -427.871 1379.72)
(-102.291 154.523 215.664)
(78.3579 -1235.29 5.62828)
(161.835 -788.396 31.0336)
(-852.79 -251.5 133.249)
(65.8169 385.559 -1307.66)
(150.678 274.755 -828.647)
(434.308 326.691 -302.824)
(200.122 493.125 499.797)
(591.869 -53.9161 696.84)
(473.245 116.306 502.558)
(333.347 420.58 -133.522)
(-31.2731 -998.737 379.067)
(479.401 952.936 436.236)
(630.335 749.07 119.916)
(398.681 1294.99 -580.493)
(804.343 48.3451 -27.747)
(761.017 -479.353 -826.018)
(-171.673 526.504 301.36)
(274.983 306.235 -253.722)
(406.539 -437.404 -480.181)
(283.389 -176.404 168.294)
(-107.897 798.22 255.407)
(-142.108 -469.128 -121.933)
(-170.276 55.1864 561.446)
(1161.61 -328.282 -20.7112)
(-751.495 -538.397 486.643)
(815.956 -614.468 -85.5446)
(1700.22 407.797 -11.1894)
(140.451 -24.0199 -228.95)
(273.523 -174.734 -1529.45)
(-217.913 555.645 -609.214)
(366.884 89.8994 132.693)
(-1112.24 -429.392 -432.313)
(-378.547 -350.253 35.4722)
(160.102 -247.995 -526.879)
(934.162 -23.4624 710.323)
(190.784 25.1353 -432.74)
(-344.909 -514.892 257.736)
(-307.332 -1021.99 -1621.09)
(-1039.52 11.9751 -16.6754)
(-139.726 -250.186 -625.105)
(1070.8 -338.365 -417.057)
(-387.889 510.666 -54.0696)
(-107.897 39.7115 630.411)
(555.897 27.5954 258.105)
(-35.0765 -168.51 -625.957)
(-106.536 117.735 52.4929)
(-315.998 -1338.03 -388.43)
(369.58 -658.249 174.831)
(188.569 1381.73 569.883)
(-926.535 474.573 408.998)
(-51.5975 533.666 169.713)
(295.368 -724.01 293.606)
(-328.093 98.2692 -415.752)
(-910.456 436.872 -742.832)
(515.811 14.0563 -21.2791)
(-253.32 420.431 209.959)
(-316.866 -549.702 -387.696)
(326.037 220.221 351.562)
(-672.515 146.583 -1054.28)
(208.987 -349.964 -179.492)
(-508.564 -69.681 210.539)
(44.763 -491.941 -97.107)
(309.497 162.779 781.725)
(-978.642 -224.083 -683.231)
(83.8032 757.244 91.096)
(-253.766 -362.91 77.3837)
(427.176 118.778 -294.861)
(-325.742 -423.754 492.451)
(-185.38 538.969 -427.262)
(-128.462 -114.563 -207.085)
(-372.985 383.161 563.654)
(557.322 -182.451 -328.042)
(103.141 217.33 94.2889)
(-970.471 667.316 -302.202)
(-205.838 -22.9623 507.215)
(106.685 580.042 -288.256)
(-749.086 -25.3161 -155.086)
(113.408 -14.6437 531.242)
(400.195 -818.335 -310.552)
(1607.58 673.394 -152.963)
(-395.835 -185.413 -451.633)
(-736.447 994.971 -783.6)
(1125.36 -147.277 166.879)
(288.22 -23.8184 309.008)
(771.237 154.659 308.994)
(116.25 -125.219 -340.491)
(356.671 -263.521 82.9033)
(-134.113 -4.59451 152.368)
(1427.32 1103.42 -162.809)
(-439.432 693.653 -272.581)
(1123.41 509.32 579.204)
(-687.044 392.559 281.569)
(92.8672 216.394 -205.779)
(-852.757 -399.622 -291.809)
(-1125.37 -878.758 76.0778)
(-684.191 280.68 -219.654)
(616.864 -386.484 611.555)
(489.44 204.588 468.191)
(-441.764 368.244 0.601025)
(-172.735 1218.82 -38.3034)
(118.777 48.9116 389.471)
(321.499 291.728 17.311)
(-215.407 124.938 -1225.83)
(-434.674 367.61 -587.429)
(-654.747 -121.315 786.602)
(-869.181 -432.129 691.286)
(752.557 77.6688 -890.818)
(172.137 -500.665 239.69)
(-331.34 56.8412 -44.2245)
(-80.6841 540.562 149.152)
(-162.687 -834.052 27.9303)
(-169.284 117.944 43.7791)
(-734.493 -780.533 435.324)
(-214.043 385.72 -42.7792)
(608.748 -385.797 412.412)
(1074.37 769.174 -912.447)
(862.522 917.6 137.892)
(152.446 318.657 -633.428)
(8.94566 -319.821 -678.727)
(1126.17 319.18 371.108)
(1000.01 -256.106 -675.158)
(-232.732 621.284 533.851)
(65.9326 21.3672 -272.584)
(-221.672 -484.661 173.334)
(-232.518 -257.009 212.188)
(17.0629 559.676 -328.71)
(1055.09 306.091 666.567)
(548.112 591.027 41.6465)
(-225.52 349.376 8.85385)
(232.261 -85.246 40.695)
(-628.881 -565.031 -197.044)
(-242.235 33.1426 -20.3145)
(623.758 267.886 -169.531)
(322.756 621.911 661.994)
(-367.182 -428.521 -1200.24)
(399.334 1106.45 -212.074)
(789.674 -395.541 201.973)
(-40.2688 376.274 -778.175)
(-560.552 -153.136 304.42)
(-315.428 799.181 -302.195)
(84.0629 -598.715 26.3016)
(166.445 -280.646 -166.117)
(384.07 169.98 902.964)
(-816.507 -72.3874 279.805)
(-510.064 -625.741 -409.387)
(-860.766 288.778 -60.0904)
(68.0863 98.1691 168.017)
(-35.7183 -191.5 124.549)
(-171.908 -1143.26 -920.596)
(31.5118 -481.261 -196.801)
(-58.2445 -651.36 368.301)
(-223.007 107.982 -1062.91)
(136.073 -970.289 1305.53)
(-210.043 1408.55 120.869)
(-545.804 120.069 189.075)
(-63.9713 569.107 -41.0718)
(-423.268 -539.425 -386.173)
(308.895 -364.446 184.324)
(102.052 214.514 -95.2426)
(821.982 52.6852 -389.246)
(715.4 -651.44 -792.419)
(198.927 162.171 -710.794)
(-291.84 -406.336 -385.884)
(602.257 -1076.08 202.903)
(678.259 -294.298 7.18141)
(-1501.04 -98.2573 -370.51)
(-923.034 48.0283 -333.391)
(160.217 328.393 304.636)
(255.153 -595.726 -393.843)
(101.227 210.559 -841.091)
(-233.515 -73.1483 -648.577)
(-468.473 40.0597 84.5576)
(428.34 76.2624 -180.379)
(-876.343 191.95 -288.692)
(340.609 515.155 -110.982)
(600.446 426.439 97.158)
(-348.957 303.056 200.642)
(172.774 523.962 -74.925)
(-473.694 -80.4366 836.711)
(-407.335 1050.64 1184.71)
(-1471.41 -237.211 -237.085)
(461.529 -499.068 -421.686)
(1243.61 47.5201 337.998)
(801.062 -151.431 -456.381)
(-13.4026 237.723 -897.418)
(-843.82 -192.409 1212.86)
(89.748 -273.993 -308.164)
(318.289 372.392 5.87096)
(71.1974 -673.381 123.299)
(157.886 -687.983 305.762)
(-211.087 -169.803 873.943)
(-920.124 -570.136 81.1654)
(104.25 -1421.25 -21.2955)
(64.5365 895.205 -25.5659)
(-338.219 -268.035 -283.413)
(-45.2381 233.477 -120.559)
(255.241 194.346 -172.959)
(-475.437 -92.558 -564.815)
(204.027 -14.7254 404.365)
(453.616 -5.99863 -585.401)
(-91.4598 -803.541 -467.865)
(-93.3991 41.9179 -492.456)
(-214.951 -300.273 224.427)
(-40.3392 -149.887 859.386)
(-653.964 -157.105 -59.3005)
(-796.745 612.948 -366.774)
(-685.894 -466.914 -752.716)
(640.267 -414.782 609.629)
(226.664 69.4313 1308.85)
(-37.8687 -203.375 1062.85)
(504.859 530.571 -169.029)
(31.5004 -549.396 234.143)
(-614.748 -22.668 998.728)
(-64.4924 541.231 -632.392)
(-433.943 -1292.58 611.767)
(706.54 -74.2128 576.013)
(-116.372 -120.785 -110.437)
(-514.632 -297.528 651.964)
(93.7767 220.877 549.699)
(-765.802 -106.299 562.405)
(-195.019 -670.266 654.314)
(651.664 -666.065 -292.475)
(-283.343 -45.4206 926.675)
(197.635 174.578 509.174)
(-51.0381 126.629 56.6528)
(-375.055 119.9 -658.879)
(-504.766 623.421 436.361)
(-719.323 -224.924 -299.56)
(253.905 430.969 -666.214)
(-373.133 163.325 556.78)
(-50.8129 -172.533 -439.677)
(-1810.01 -55.7862 263.271)
(-401.764 542.426 -1018.46)
(621.731 46.8409 -436.064)
(-687.97 -240.258 397.288)
(-566.304 359.468 -343.245)
(-202.543 75.9875 -4.286)
(132.987 15.6367 -98.901)
(61.19 316.218 708.959)
(-467.285 -770.184 10.6504)
(-12.8592 307.401 609.2)
(413.144 320.395 -19.7021)
(-546.997 343.192 -302.913)
(749.261 326.109 323.234)
(542.03 -605.65 379.21)
(343.395 299.864 554.789)
(-222.466 -42.2158 -207.47)
(-816.189 -94.5711 108.22)
(166.998 432.079 -156.546)
(-313.905 484.361 -536.76)
(-230.524 133.013 347.421)
(-208.912 408.249 42.6597)
(-445.813 584.537 590.601)
(-1134.47 65.1598 329.758)
(-487.123 1042.88 -268.719)
(-576.489 -548.714 1182.38)
(-711.048 1033.46 66.2541)
(-1343.59 -912.843 711.901)
(252.72 534.143 -21.6118)
(-670.418 176.175 -1178.96)
(255.337 166.493 528.775)
(-72.5899 233.804 556.906)
(764.625 -240.532 216.491)
(457.667 -126.608 421.514)
(-190.054 -1103.91 -636.414)
(-308.576 -170.661 337.479)
(-769.132 -890.585 215.617)
(190.584 510.984 -221.663)
(-642.083 -638.811 464.66)
(277.303 898.808 41.7251)
(192.485 -309.752 529.777)
(43.9776 -0.897589 -925.001)
(-1113.84 371.159 -524.208)
(-17.8897 -532.286 -825.396)
(-321.134 -1157.3 -248.166)
(-10.6512 223.766 618.539)
(-176.778 -312.618 -323.417)
(327.215 676.715 325.368)
(-360.318 523.486 726.866)
(-564.553 648.687 -32.6373)
(437.829 429.059 481.6)
(266.922 119.138 375.878)
(171.784 -4.77274 518.803)
(-730.13 -93.9847 78.5658)
(439.893 172.981 45.233)
(-141.41 -907.482 -515.475)
(685.407 103.831 492.359)
(45.8409 -285.866 -313.316)
(-210.856 -481.258 59.4314)
(-39.8188 -416.489 101.658)
(891.08 543.811 177.502)
(-150.814 -860.229 39.4609)
(-712.584 17.0894 333.718)
(305.882 -129.932 -444.903)
(-349.769 -345.381 218.433)
(-170.868 57.3862 1337.46)
(-102.516 -628.082 -286.19)
(-1147.34 -305.818 -399.515)
(235.913 52.0223 161.245)
(245.245 -609.302 1.32405)
(-381.646 -4.40907 -302.532)
(-731.152 197.57 283.522)
(-92.3316 163.83 -411.488)
(-174.598 -643.982 104.511)
(-267.173 1125.34 -764.849)
(161.274 -1188.96 403.019)
(110.433 -53.3505 -172.593)
(308.819 92.5228 404.921)
(135.49 554.625 875.878)
(903.061 -545.909 538.775)
(194.84 284.192 414.901)
(-87.4334 298.579 111.13)
(945.789 280.298 54.4612)
(314.116 -145.712 1356.98)
(-345.324 64.676 499.086)
(-235.292 -360.935 183.058)
(-318.959 700.303 246.009)
(85.2398 -22.2402 120.164)
(577.007 -541.913 -244.761)
(-153.971 -768.951 -159.288)
(193.47 414.13 -162.231)
(-521.501 367.343 658.115)
(27.4349 -416.775 -144.345)
(-72.1973 -214.488 187.473)
(-835.399 -244.762 137.864)
(-163.81 -679.278 -305.212)
(799.253 -558.802 86.7866)
(63.2085 432.181 847.658)
(781.387 -241.283 -280.556)
(804.673 -242.871 -494.726)
(162.111 21.0908 -308.205)
(-227.31 -837.941 -237.356)
(781.961 -169.746 -81.1026)
(-1190.86 -218.875 53.6669)
(193.177 17.531 -284.364)
(-740.46 -458.49 169.259)
(453.265 97.7561 27.7937)
(130.924 -375.342 -519.78)
(-644.588 -360.042 823.115)
(-342.704 -1071.33 425.532)
(498.893 -83.815 -353.489)
(837.303 179.963 -653.171)
(202.887 481.634 527.966)
(-1270.17 -202.475 960.744)
(-72.8147 -701.313 890.745)
(-429.429 -151.049 -952.376)
(-482.501 -489.306 500.369)
(-296.268 -76.1464 708.811)
(1330.54 5.82835 653.307)
(165.729 -978.966 -256.213)
(-347.514 267.211 -300.122)
(-822.014 -171.801 -530.191)
(590.969 -772.959 -568.897)
(317.265 155.46 515.159)
(600.688 563.986 -3.32229)
(-182.766 630.746 42.8296)
(650.601 -1146.69 -284.887)
(772.423 -265.581 920.168)
(589.361 105.273 -554.811)
(-83.8273 -114.079 295.16)
(-755.594 -860.959 243.297)
(-357.126 679.98 251.314)
(1011.39 142.971 751.807)
(305.863 807.857 -425.038)
(1253.54 679.55 516.158)
(823.572 -264.921 598.977)
(-595.569 -71.163 814.508)
(-349.272 318.994 -109.585)
(-424.577 518.007 209.444)
(-1193.34 -159.739 -21.4102)
(948.964 -165.255 -45.7986)
(-169.978 -34.3699 -317.554)
(-534.547 78.1702 512.213)
(-923.233 302.421 -95.3205)
(-102.826 242.838 267.392)
(-28.9894 536.737 118.781)
(38.2914 -177.669 237.53)
(-717.418 450.818 -281.27)
(-497.684 609.494 1129.24)
(443.25 890.44 -649.207)
(538.344 -566.081 -273.196)
(-139.763 -406.22 -207.425)
(50.812 -533.632 -297.061)
(325.409 89.1086 -157.805)
(-182.901 -89.6149 82.2844)
(-584.668 446.481 481.95)
(-275.147 -606.812 382.715)
(198.408 79.3987 1117.03)
(-647.716 -885.039 -360.264)
(324.623 600.972 -558.156)
(471.246 317.627 -22.9361)
(289.996 -119.824 81.7089)
(332.403 705.034 651.808)
(-738.691 92.5939 55.9364)
(151.19 116.348 806.534)
(-413.703 -449.975 606.336)
(407.34 -583.691 -965.016)
(221.629 732.103 -195.127)
(-19.808 -315.229 592.289)
(-818.859 64.2375 458.89)
(-177.987 323.082 -212.743)
(-44.3541 -741.562 52.8803)
(768.97 -116.635 -451.291)
(-635.249 -28.4801 -209.448)
(349.926 531.332 -2.55225)
(-182.064 -521.939 -80.0486)
(508.848 105.999 -762.259)
(-178.786 901.416 -598.284)
(-194.949 -55.7923 47.847)
(-104.304 -359.103 242.342)
(385.115 749.52 103.265)
(-237.013 85.87 -700.421)
(-429.258 -289.969 676.937)
(-684.59 30.561 -113.773)
(340.101 -633.247 -184.577)
(444.451 628.904 338.496)
(-445.155 -784.609 25.8546)
(709.694 -408.992 -4.4858)
(-258.745 -224.522 205.333)
(-201.891 1106.26 -6.8526)
(38.6316 998.021 -245.776)
(-806.347 365.898 -164.058)
(117.442 37.324 -86.519)
(-1026 -373.958 169.857)
(257.066 -194.999 -827.09)
(-157.135 -299.914 11.6768)
(137.274 156.562 277.11)
(-173.059 -989.226 494.627)
(944.132 -800.672 -293.354)
(860.825 101.565 -298.628)
(-236.067 84.269 -356.707)
(-710.582 -386.733 225.509)
(-364.074 -613.563 509.454)
(-97.7554 116.484 682.816)
(431.746 757.551 -551.653)
(-271.104 106.457 317.963)
(240.338 905.7 -527.429)
(123.058 -353.944 -86.0846)
(522.235 724.361 -152.866)
(-193.078 467.342 276.673)
(-328.526 178.409 -337.96)
(-246.777 -79.9532 -410.722)
(210.894 -300.86 -356.105)
(-47.5745 -314.922 399.579)
(-125.15 119.382 -44.8885)
(270.25 -252.682 218.365)
(-599.663 -47.5326 767.151)
(-336.536 -601.503 275.275)
(-429.49 -220.935 21.1461)
(-516.221 296.564 -319.952)
(-698.94 166.997 -46.3747)
(1285.12 -907.69 231.929)
(-259.576 -292.393 -2.73362)
(568.169 -844.041 234.499)
(744.549 -86.1152 -484.267)
(-47.6104 178.278 194.791)
(-179.307 49.7898 -573.649)
(-538.4 -692.526 -45.6025)
(319.411 620.429 -56.2711)
(863.172 -301.552 58.4524)
(-702.831 -239.721 596.177)
(786.322 87.4372 -207.351)
(1044.91 -497.632 -716.971)
(248.467 850.735 -161.464)
(-656.509 670.281 246.26)
(309.379 -542.187 576.864)
(136.17 302.049 -352.905)
(249.171 -819.338 194.631)
(-813.387 -191.481 954.707)
(166.941 182.119 277.422)
(156.032 -256.091 173.18)
(416.138 -1343.8 688.948)
(553.542 987.308 -820.036)
(-295.936 540.477 43.1609)
(910.005 56.388 -86.6052)
(919.239 66.4313 -924.286)
(182.144 -54.3307 398.068)
(-479.726 157.963 -1068.44)
(72.715 274.698 766.68)
(384.987 245.762 351.519)
(662.729 189.396 -74.3311)
(-2.17025 445.567 -677.976)
(32.1639 -146.647 23.3953)
(-679.02 -577.617 -726.729)
(509.511 -802.794 -405.474)
(724.97 -42.5992 441.596)
(-518.664 75.2496 528.365)
(230.058 -570.072 -376.315)
(-617.561 -202.543 221.978)
(737.155 -309.817 -501.161)
(137.086 -631.722 -359.96)
(229.805 294.954 177.914)
(7.34162 106.951 -974.305)
(-105.61 -430.773 -136.935)
(-871.57 296.018 -315.924)
(428.894 -418.056 1057.33)
(-224.309 418.863 -751.221)
(276.149 -449.934 -94.2728)
(-669.507 21.2695 -232.314)
(-82.5506 481.199 372.789)
(-811.733 -352.999 -416.188)
(401.712 -1033.6 -981.838)
(36.6841 -403.369 240.511)
(-104.026 1119.71 1359.31)
(-120.662 470.539 178.558)
(-117.731 -452.54 -333.493)
(285.871 -272.331 -18.9631)
(-831.197 487.031 -684.677)
(762 -384.795 754.355)
(-136.358 182.39 -165.547)
(225.372 -538.915 95.375)
(322.509 993.75 913.162)
(-408.526 -783.383 311.185)
(362.392 175.029 -49.4044)
(-207.282 68.4418 -319.38)
(699.008 -1227.78 -293.276)
(255.082 188.474 -362.886)
(-222.824 211.821 390.462)
(-270.657 -795.046 -423.442)
(998.006 623.216 823.216)
(892.949 156.829 -90.6408)
(-293.721 -207.967 207.339)
(-3.07246 485.23 -232.993)
(94.2226 -1172.58 866.23)
(-1123.24 166.643 583.226)
(504.967 -581.525 246.361)
(448.952 573.583 -632.993)
(-272.037 -1180.85 -667.697)
(312.51 122.143 1140.24)
(276.644 -696.253 603.282)
(229.883 751.768 639.274)
(841.655 660.22 644.465)
(-568.157 245.465 138.66)
(-471.976 -193.267 94.7721)
(378.803 168.595 456.454)
(77.1713 -595.478 -90.0588)
(1752.83 1183.79 377.263)
(352.172 -248.207 466.948)
(-91.2786 -944.932 -611.4)
(-576.524 -1023.57 -209.275)
(649.617 225.925 396.547)
(54.0156 239.867 -363.89)
(118.47 -603.825 729.018)
(130.683 677.423 532.799)
(-480.385 -699.353 -668.343)
(161.255 -47.5951 282.793)
(-123.497 154.879 205.283)
(482.299 847.473 222.404)
(185.438 -149.248 -276.732)
(1020.27 -878.183 187.562)
(-554.271 131.115 -1092.77)
(276.807 -385.382 115.752)
(467.663 851.597 -796.951)
(262.072 31.932 1006.82)
(-529.325 640.106 234.846)
(-199.554 228.982 -518.09)
(380.676 -157.612 -260.137)
(-367.832 -312.969 -489.178)
(-300.396 -459.365 -570.658)
(636.736 178.82 225.386)
(-521.116 -1398.26 94.9011)
(-6.05285 449.431 -616.089)
(-129.526 128.351 -583.616)
(-675.299 842.554 -535.201)
(534.814 239.877 709.757)
(-631.362 45.727 962.631)
(199.916 116.382 -407.643)
(100.055 124.459 -1153.5)
(333.118 -139.437 -129.946)
(145.163 460.785 -375.549)
(504.299 -990.029 152.803)
(-363.795 76.2537 577.225)
(105.904 -262.246 -15.2603)
(81.6481 -676.454 752.335)
(374.562 173.571 712.212)
(-560.387 -214.346 411.851)
(34.2555 278.191 -722.129)
(676.041 610.053 -850.79)
(521.209 -550.935 -782.377)
(320.251 669.787 80.423)
(-518.435 120.06 308.021)
(-39.7957 -375.806 -35.2081)
(331.375 -138.647 876.147)
(-35.7008 -401.345 1489.51)
(476.614 297.539 756.349)
(-444.88 -354.091 -605.455)
(-73.9882 -530.056 -961.169)
(-371.594 296.863 -422.539)
(157.306 -308.844 262.897)
(-431.7 -25.1546 838.842)
(-265.707 95.3749 -308.443)
(508.304 -385.687 442.799)
(635.303 -1040.45 725.063)
(-672.089 -597.151 41.859)
(437.509 -533.914 -286.328)
(262.238 -108.789 184.002)
(1048.47 -246.705 -753.669)
(495.576 -503.839 -670.584)
(-103.713 721.755 28.3918)
(330.138 -373.564 -319.518)
(-216.663 -1208.9 577.052)
(1198.64 -140.5 -577.701)
(-37.0329 -904.249 48.054)
(858.687 962.929 -682.962)
(-891.684 408.146 69.2194)
(-22.9796 -91.3135 -411.059)
(-310.785 200.138 299.224)
(220.411 672.377 1021.88)
(-100.113 -442.866 160.962)
(75.2305 -11.281 -655.653)
(498.924 -741.515 -665.272)
(-661.791 71.8513 511.54)
(-12.0142 186.846 -246.441)
(-299.739 438.923 -69.7984)
(268.673 -889.945 25.4648)
(989.508 -429.984 -203.774)
(-34.7687 40.8199 -378.298)
(-129.229 433.989 -589.091)
(-1244.42 -231.041 815.873)
(-612.24 322.164 358.71)
(838.465 -67.3488 286.735)
(351.767 554.75 -451.937)
(53.9834 -712.909 347.652)
(763.92 -601.002 -410.692)
(-225.378 -173.632 164.622)
(146.898 -555.785 922.241)
(115.548 -2.01139 -820.722)
(1067.81 204.286 1527.95)
(-256.592 -263.444 -242.431)
(-606.149 -573.213 754.807)
(6.71987 -276.451 -253.677)
(-677.274 472.029 -542.515)
(417.552 -225.817 31.1982)
(-527.102 -5.4713 -152.904)
(-155.566 1040.24 323.72)
(-1176.13 271.99 419.861)
(1331.09 512.74 314.877)
(329.255 -213.977 189.419)
(-558.97 -362.543 -444.775)
(273.212 -341.957 684.644)
(-194.158 101.039 250.873)
(515.959 -418.535 254.094)
(-417.895 -518.561 713.525)
(-675.546 -352.074 661.028)
(-958.394 535.102 -54.9112)
(398.249 360.229 1373.4)
(-58.9593 467.87 738.246)
(143.215 -215.88 -315.747)
(348.504 437.274 1135.2)
(-465.086 604.217 -234.735)
(-152.198 600.78 -675.148)
(188.828 75.939 -1113.7)
(21.7251 -240.497 -168.249)
(113.005 213.403 -167.017)
(113.311 -791.409 -123.191)
(-810.695 254.671 498.679)
(-168.24 486.656 -601.626)
(646.756 -289.595 727.979)
(381.207 -434.14 -95.284)
(835.588 -503.591 -244.567)
(1016.8 -587.274 57.3896)
(1224.43 -822.966 40.6217)
(-508.721 -640.445 44.9815)
(-177.376 -533.084 833.285)
(-259.125 -637.351 299.99)
(-419.92 -381.59 -437.305)
(550.269 644.459 305.858)
(541.955 -118.072 113.617)
(-301.723 502.146 64.7086)
(389.394 503.289 -815.059)
(-342.584 63.297 -631.373)
(755.279 -668.109 -505.785)
(1194.43 566.213 409.739)
(77.6316 -199.825 518.257)
(-521.601 474.728 -432.787)
(187.462 -656.981 -482.777)
(-77.1469 814.657 61.801)
(-216.491 -657.383 206.467)
(-487.224 654.256 24.4136)
(-178.65 -290.516 295.927)