/*--------------------------------*- C++ -*----------------------------------*\
  =========                 |
  \\      /  F ield         | OpenFOAM: The Open Source CFD Toolbox
   \\    /   O peration     | Website:  https://openfoam.org
    \\  /    A nd           | Version:  7
     \\/     M anipulation  |
\*---------------------------------------------------------------------------*/
FoamFile
{
    version     2.0;
    format      ascii;
    class       volScalarField;
    location    "0.002";
    object      internalE;
}
// * * * * * * * * * * * * * * * * * * * * * * * * * * * * * * * * * * * * * //

dimensions      [1 -1 -2 0 0 0 0];

internalField   nonuniform List<scalar> 
1000
(
0.262462
0.372125
0.308749
0.245247
0.351304
0.438123
0.568219
0.271527
0.449933
0.425894
0.418353
0.36166
0.335581
0.496502
0.477011
0.370604
0.587564
0.365696
0.541672
0.418857
0.508132
0.586705
0.58268
0.521577
0.640179
0.502634
0.575302
0.418979
0.612831
0.583097
0.67621
0.428572
0.75614
0.73097
0.497445
0.664865
0.733365
0.446841
0.58588
0.550493
0.842663
0.629506
0.601773
0.782725
0.718789
0.59928
0.673909
0.63417
0.761941
0.806061
0.875131
1.01082
0.816587
1.01833
0.849197
0.886232
1.05433
0.819079
0.885582
1.17491
0.997737
0.901264
0.761143
0.952392
1.08081
1.06432
0.977847
1.25429
1.38738
1.04821
1.00142
1.09769
1.1505
0.948641
0.884092
1.17814
1.13612
0.956094
1.26985
1.1123
1.26081
1.48647
1.10058
1.13464
1.30836
1.1627
1.08583
1.21441
1.16681
1.25329
0.938319
1.24403
1.14728
1.10237
1.32246
1.23471
1.18866
1.29732
1.00831
1.3216
1.28724
1.34793
1.21112
1.52829
1.26833
1.38213
1.41359
0.874135
1.24933
1.29644
1.23136
1.43829
1.24153
1.24658
0.779403
1.09846
1.11899
1.1927
1.11725
0.931281
1.43889
0.836369
1.05707
1.28997
0.998986
1.13874
1.15908
1.29656
1.58533
1.21435
1.17933
1.05751
0.926342
1.33712
1.04792
1.24747
1.13357
1.11741
1.06118
0.932308
1.3515
1.18699
1.05762
1.50048
1.18365
1.20146
1.18962
1.19329
1.45969
1.15275
1.08208
0.919671
1.24722
1.27401
1.03461
1.31652
1.36332
0.910097
1.22491
1.07127
1.38445
1.19197
1.12203
1.05788
0.893744
1.11015
0.79722
1.19178
1.45387
1.00924
1.15722
1.14986
1.01991
0.846019
1.08491
1.29034
0.918614
1.13469
0.949745
1.11912
1.43433
1.20217
1.20886
0.989335
1.24721
1.16777
1.12785
1.28706
0.884817
1.26169
1.33673
1.16219
1.18336
1.0416
1.21811
1.31659
1.07846
0.817994
1.11835
0.996468
1.1032
1.08602
1.14904
1.33021
1.14927
1.06234
1.10828
1.25405
1.23948
0.84755
1.24514
1.19246
0.913453
1.12362
1.49761
1.23604
1.40009
1.16377
1.09641
1.25183
1.07206
0.993293
1.05068
1.27582
1.21582
1.23901
0.923333
1.06422
1.13179
1.12285
1.14549
1.26767
1.02638
0.831228
0.948723
1.19271
1.09952
1.2932
0.996879
1.31193
1.15628
1.0935
1.10116
1.10889
0.849879
1.28996
1.29448
1.30195
1.17635
1.16106
0.900937
1.02994
0.808815
1.27158
1.29199
1.14752
1.51142
0.804729
1.35307
1.2931
1.29644
1.01945
1.01858
1.18828
1.18466
1.08636
1.14997
0.980415
1.22751
1.07163
1.14396
0.954401
0.845886
1.09013
1.09845
1.41087
1.18601
1.0427
1.02789
0.921472
1.21848
1.36234
1.14061
1.19079
1.09334
0.954503
1.15177
0.946877
1.15689
1.06467
1.26216
1.37793
1.12662
1.13673
1.04823
1.02926
1.04648
1.35189
1.18551
0.960511
1.18608
1.35773
1.3666
1.13522
1.28175
0.971807
1.40929
1.11361
1.21489
1.30463
1.10086
1.40145
0.876732
1.18912
1.15455
1.34273
1.26484
1.33775
1.30276
1.12385
1.16474
1.02915
1.08919
1.37702
1.3573
1.10663
1.17782
1.36285
1.43288
0.906334
1.11483
1.13046
1.1819
1.44389
1.19923
1.14454
0.925538
1.39515
1.12179
1.2507
1.11295
1.05856
1.22102
1.20774
1.14845
1.08179
1.01127
1.10328
1.26003
1.38385
1.16611
1.03227
1.26041
1.05809
0.939334
1.02988
1.1616
1.1082
1.21815
0.826632
1.1658
1.35665
1.37397
1.06581
1.17057
1.24538
1.2803
1.1622
1.26458
1.28963
0.960912
1.20176
1.21393
0.917149
1.22661
1.01482
1.12959
1.10996
0.866081
1.30107
0.979201
1.15853
1.15772
0.915522
1.04248
1.07401
1.52895
1.37824
1.04866
1.20471
1.10863
1.10038
1.23517
1.01593
0.963907
0.848635
1.03905
1.07134
1.15594
1.36596
1.05877
0.874751
1.1444
1.12076
0.998441
1.13859
1.03015
0.881373
1.1509
1.17964
1.1456
1.16465
0.948619
1.22336
1.12822
1.23175
1.05624
1.18284
1.04611
1.37877
1.20172
1.15792
1.07417
1.16574
1.28808
1.45236
1.39218
1.12688
0.866182
0.982447
1.22333
1.06051
1.25095
1.08634
0.959362
1.14047
1.17966
1.07735
1.10444
1.09245
1.33788
1.00963
1.15376
1.01303
1.10751
1.23314
1.16526
1.13487
1.03769
1.26897
1.21401
0.922387
1.04347
1.28538
1.09032
1.21505
1.27209
1.22508
1.18069
1.13556
0.865768
0.932453
1.36916
0.983026
1.24658
1.14959
1.00165
1.19393
1.23861
1.20831
1.08243
1.0785
0.819696
1.03898
1.32378
1.09632
1.19141
1.1559
1.25177
0.913976
1.202
0.869364
1.02879
1.12206
1.22446
1.04493
1.30402
0.942631
1.1079
1.00236
0.934652
1.15439
1.0832
0.985679
1.26629
1.0284
1.23583
1.008
1.2175
1.0731
1.27448
1.02713
1.19682
0.888366
1.01841
1.15378
1.4303
1.15374
1.23316
1.08566
0.976379
1.19482
1.3627
1.0209
1.50187
1.16135
1.15843
1.07869
1.05637
0.876114
0.720611
1.30375
1.33655
1.32099
0.85463
1.23561
1.35394
0.910019
1.04874
1.43582
1.11567
1.41487
1.273
1.32105
1.05686
1.21512
1.18814
1.54413
1.14129
1.25849
0.816606
1.05801
1.05629
1.06972
1.15914
1.44311
1.22269
0.819794
1.2001
1.19946
0.927592
1.33191
0.867772
1.49316
1.31359
1.11998
0.991168
1.10918
1.16241
1.19336
1.18491
1.22401
1.27504
1.11836
1.17391
1.37566
1.07846
1.04868
1.01363
0.994384
1.12425
1.40217
0.98723
1.13265
1.17852
1.13244
1.24323
0.92169
1.11838
1.19838
1.27572
1.25596
1.08079
0.996087
1.24984
0.789486
1.12575
1.36029
1.31418
1.02602
1.24706
1.29396
1.12908
1.08493
1.14865
1.19754
1.10237
0.939744
1.10619
1.26521
1.01359
1.25002
1.11593
1.2191
1.01715
1.33309
1.45315
1.09094
1.45662
1.36865
0.943215
1.25309
0.914707
1.17411
1.34898
1.23553
1.14753
1.55019
1.02239
1.40912
1.24482
1.30114
0.979332
1.01844
1.13934
1.22698
1.09133
1.02144
1.44489
0.992341
1.00893
1.12139
0.824942
0.964327
1.17735
1.2041
1.05571
1.12188
1.10919
1.20984
0.902484
1.25273
0.917298
1.04669
1.27506
0.959808
1.3825
1.32629
1.25551
1.16117
0.999699
0.987465
1.15893
1.30832
1.1379
0.95666
1.10449
1.42074
1.28838
1.09577
1.27664
1.21919
1.20274
1.40976
0.995829
1.08771
1.1781
1.15739
0.883741
1.43542
1.15261
1.49761
1.14479
0.9442
0.921287
1.16303
1.20032
1.08675
1.14828
1.23762
1.24679
1.05063
1.2475
1.24768
1.1852
1.01447
1.21158
0.964843
0.871599
1.04059
0.961998
1.102
1.11696
1.11986
1.15141
1.04209
1.11392
1.2639
1.02053
1.01971
1.03441
1.45538
1.35618
1.1032
1.22566
1.53598
1.17457
1.28659
1.07975
1.32938
1.15773
1.16535
1.25217
1.17106
1.421
0.797773
1.33896
1.23006
1.15448
0.974936
1.40776
1.30742
1.08232
1.34793
0.984212
1.65126
1.20445
0.931495
1.01176
1.23881
1.13181
1.14348
1.1601
1.61162
1.34504
1.25295
1.49856
1.20709
1.28693
1.02721
1.0525
1.31896
1.16363
1.15156
1.07666
1.12819
1.25696
1.19572
1.13068
1.35226
1.22287
1.31896
0.935551
1.13739
1.06679
1.22717
1.22055
1.09025
1.54045
1.1787
1.24972
1.19691
1.30167
1.13319
1.1363
1.09284
0.867086
1.24552
1.11861
1.24923
1.15983
1.22102
1.35277
1.04644
1.14233
1.2113
1.11867
1.03588
1.07491
0.712153
1.38583
1.46071
1.1356
1.11524
1.26527
1.24269
1.20062
1.11513
0.993896
0.933318
1.28465
1.25902
1.08897
1.18627
1.16502
0.856415
1.11877
1.04549
1.35965
1.16983
1.03875
1.01795
1.30407
1.31359
1.38427
1.18558
1.32784
1.17703
1.04287
1.25089
1.15099
1.16004
1.09515
1.4936
1.20208
1.33755
1.19111
1.02247
1.19593
0.86083
1.03575
1.21374
1.21152
1.0691
1.23115
1.10766
1.16076
1.0974
1.07005
1.25526
1.09787
1.19401
1.21234
1.17301
1.05093
0.972794
1.16695
1.15023
0.941404
1.16925
1.15696
1.10351
1.22479
1.10185
1.15817
1.17987
0.950131
1.10323
1.1785
1.38952
1.374
1.04431
1.40122
0.937022
1.21539
1.06472
1.45894
1.01982
1.32512
1.15511
0.998795
1.19051
0.954649
1.17936
1.23808
1.39907
1.25132
1.33378
1.32188
1.11627
1.13454
1.32026
0.875437
0.872766
1.03248
1.19001
1.5151
1.16891
1.45484
1.2132
1.16358
1.24692
0.98509
1.26839
1.39576
1.4845
1.27764
0.996099
0.924747
1.196
1.24302
1.0805
0.951136
0.918653
0.919152
1.17214
1.33681
1.17808
1.00751
1.01762
1.32618
1.16333
1.21349
1.17596
1.49547
1.20111
1.21912
1.29471
1.03713
1.08063
1.0895
1.0405
1.09144
1.18971
1.17484
1.09625
0.980807
1.06511
1.0415
1.25582
0.741089
0.96726
1.1421
0.899648
1.04626
1.49955
1.20308
1.0816
1.18952
1.20843
0.883397
1.02269
1.19677
0.930145
0.808296
0.973272
0.948284
0.960771
0.983253
0.982208
0.910048
0.939483
0.953399
0.908894
1.06635
1.04229
0.734166
0.653169
0.561396
0.94521
0.703495
0.98655
0.680817
0.648397
0.968302
0.525705
0.756249
0.630477
0.862023
0.757125
0.506666
0.552011
0.837264
0.4924
0.477768
0.731824
0.587806
0.688018
0.538309
0.567278
0.60842
0.487581
0.579681
0.876154
0.425661
0.510641
0.637067
0.889043
0.556081
0.354192
0.553835
0.391091
0.62136
0.441515
0.406378
0.478627
0.464732
0.386084
0.398255
0.480392
0.293021
0.37374
0.365381
0.319082
0.254407
0.276493
0.337848
0.261782
0.348048
0.280077
)
;

boundaryField
{
    sides
    {
        type            zeroGradient;
    }
    empty
    {
        type            empty;
    }
}


// ************************************************************************* //
