/*--------------------------------*- C++ -*----------------------------------*\
  =========                 |
  \\      /  F ield         | OpenFOAM: The Open Source CFD Toolbox
   \\    /   O peration     | Website:  https://openfoam.org
    \\  /    A nd           | Version:  7
     \\/     M anipulation  |
\*---------------------------------------------------------------------------*/
FoamFile
{
    version     2.0;
    format      ascii;
    class       volScalarField;
    location    "0.002";
    object      internalT;
}
// * * * * * * * * * * * * * * * * * * * * * * * * * * * * * * * * * * * * * //

dimensions      [1 2 -2 0 0 0 0];

internalField   nonuniform List<scalar> 
1000
(
228.748
236.111
238.67
246.976
248.879
250.082
261.059
254.073
247.39
250.244
248.004
255.222
253.971
256.474
264.046
262.868
265.52
264.481
273.861
276.712
271.653
276.774
283.076
283.636
284.14
276.517
263.578
266.587
280.276
282.851
281.576
294.379
292.957
288.963
283.8
286.306
279.147
286.152
298.883
291.125
294.701
286.521
287.678
279.698
281.659
294.004
292.532
301.5
302.718
297.726
295.704
304.85
301.268
299.76
293.917
285.079
287.168
295.787
303.152
303.344
300.909
301.933
305.59
296.265
297.314
302.213
302.994
296.594
306.841
295.071
300.198
298.042
308.894
312.487
301.446
300.179
299.164
293.63
296.91
302.533
301.795
303.88
314.527
319.21
312.037
304.543
303.381
306.211
300.062
295.077
304.382
306.726
304.337
303.03
301.857
302.268
295.503
288.382
288.861
306.188
310.36
302.777
304.412
299.04
297.827
299.493
295.73
291.66
293.01
306.588
301.583
302.392
292.587
297.209
292.341
299.875
299.603
301.222
305.149
314.598
312.218
301.858
295.558
301.411
304.558
302.455
302.102
314.929
315.455
293.8
296.813
296.595
301.298
305.856
301.837
293.3
296.069
306.696
302.078
300.461
307.03
313.255
305.495
304.255
308.595
303.62
307.577
297.68
305.572
305.785
292.527
299.858
297.792
299.344
291.417
286.107
298.323
296.501
296.822
301.919
312.267
305.171
304.802
312.524
299.423
293.9
294.41
285.664
286.74
298.798
296.223
295.301
295.613
296.106
298.103
303.851
307.225
312.445
310.223
315.55
315.906
320.02
311.485
306.556
309.391
306.068
308.253
313.573
305.63
306.67
301.259
302.268
305.508
296.721
305.385
304.797
296.967
297.621
293.944
298.185
305.721
302.912
302.878
296.905
299.145
301.557
292.559
301.912
299.986
292.535
291.809
296.546
293.97
293.088
291.495
292.602
307.717
307.106
300.304
296.081
297.863
295.261
296.678
289.624
296.922
299.092
306.077
303.126
302.353
309.398
307.93
299.197
289.186
291.1
299.283
294.564
300.253
297.072
296.754
299.78
297.433
292.796
280.564
306.341
299.384
298.403
297.955
299.351
308.048
308.248
308.846
318.337
312.633
305.701
303.746
304.12
305.256
303.038
289.308
300.831
298.879
304.801
311.101
303.232
299.993
306.722
311.442
314.973
313.313
307.535
295.095
298.328
299.637
303.651
308.397
311.686
309.112
299.901
302.692
299.026
297.671
293.115
297.721
295.569
298.058
290.155
287.238
292.762
292.238
293.077
288.675
301.716
300.783
298.468
294.701
297.79
293.643
299.427
294.488
302.882
305.994
313.621
311.179
295.038
294.423
297.339
286.487
283.114
293.753
298.746
297.99
300.022
298.869
289.796
291.164
298.501
299.907
301.035
305.188
301.783
298.486
295.784
293.594
292.57
291.776
299.562
290.199
292.316
286.192
292.182
292.673
304.109
310.033
303.103
301.858
295.034
299.1
304.881
297.84
303.262
301.229
299.738
304.281
299.97
297.245
305.99
309.765
302.981
307.155
297.402
294.844
293.423
300.705
292.417
297.789
294.695
301.628
293.605
301.227
296.615
300.979
306.387
301.312
302.786
298.788
293.575
296.631
297.468
291.388
292.915
291.284
298.807
309.845
302.84
301.546
299.763
302.82
300.862
294.019
299.993
301.773
300.53
299.442
308.15
313.27
310.869
312.478
306.128
308.835
307.625
303.553
302.435
298.035
301.205
306.391
299.135
303.527
303.06
298.215
296.921
295.525
292.4
293.443
288.215
294.052
288.728
294.757
306.524
302.82
308.04
303.598
289.173
287.79
293.506
285.389
284.84
281.923
288.19
288.928
294.992
292.906
287.669
290.596
293.407
297.912
300.387
298.196
302.323
306.98
305.667
299.77
297.119
300.555
288.583
288.592
295.853
299.85
286.272
290.445
295.107
286.886
290.352
293.471
292.566
290.784
287.498
295.442
294.844
302.456
299.909
297.75
294.986
299.063
307.557
302.845
295.738
293.383
296.739
297.117
290.999
280.83
286.248
276.157
288.79
293.479
297.279
300.836
297.455
305.619
305.817
300.54
307.862
296.997
306.315
300.68
306.183
294.646
299.963
298.079
303.418
306.207
308.278
308.426
299.31
304.083
298.721
300.829
294.082
289.668
299.966
287.108
292.04
300.321
305.103
308.106
299.873
289.548
293.133
296.806
291.765
294.669
299.897
297.595
292.172
289.814
286.226
291.108
296.421
291.377
296.697
302.27
287.769
289.216
290.024
287.491
297.753
292.222
298.925
299.525
290.908
292.607
303.658
302.391
299.09
291.67
296.585
303.576
301.213
298.001
300.877
304.798
307.838
300.868
307.075
309.599
307.08
304.479
307.911
306.385
307.078
297.813
302.628
304.391
302.271
298.965
303.871
295.859
300.952
312.353
311.145
309.233
312.873
307.748
303.288
305.04
300.287
300.923
300.308
296.401
306.763
309.866
302.736
311.514
306.394
300.83
305.223
305.932
302.151
303.813
300.345
302.505
290.442
288.491
288.782
295.446
296.408
291.746
287.469
291.721
290.447
293.419
295.674
301.757
294.183
298.298
301.376
302.626
304.926
296.128
294.533
297.923
303.609
302.465
300.992
296.684
292.472
293.229
303.065
310.491
302.327
301.642
301.662
304.28
306.676
300.985
311.346
314.098
310.331
307.671
296.738
297.666
299.294
293.146
284.966
283.993
293.61
301.763
297.753
301.061
296.457
284.74
292.895
304.461
308.044
306.49
295.646
293.691
293.079
290.717
294.428
300.064
303.29
294.843
294.326
297.482
296.95
300.22
303.419
302.283
299.358
307.789
305.126
305.092
309.269
303.125
303.872
305.345
309.587
310.354
310.753
313.354
306.491
313.103
310.636
313.605
310.198
308.284
312.971
316.477
312.207
303.964
304.506
304.808
299.865
299.877
297.554
300.041
296.978
303.816
304.404
298.064
303.985
305.664
301.69
299.842
299.591
301.232
295.929
295.1
292.795
295.66
300.988
298.155
301.531
301.612
305.983
319.224
311.369
303.239
301.02
298.749
304.916
298.314
297.373
293.389
295.86
299.374
294.593
298.7
297.724
300.014
311.688
309.774
302.179
305.232
304.089
293.431
289.606
288.389
294.862
301.084
296.486
297.249
299.709
308.919
301.874
309.049
304.718
308.811
301.078
302.559
307.062
299.869
309.173
305.182
297.744
292.934
297.176
297.614
297.395
297.126
302.746
304.543
301.626
294.743
309.169
322.704
313.609
305.992
309.696
312.565
312.136
306.576
305.835
303.216
300.864
304.237
301.365
304.352
295.69
294.385
293.247
296.05
295.686
300.869
306.629
305.411
302.237
300.182
303.423
310.856
308.747
310.111
300.752
305.585
300.725
302.641
304.78
304.443
306.176
304.404
302.489
300.848
304.864
302.336
304.164
302.307
299.164
305.265
307.064
312.33
310.797
311.738
303.282
303.333
306.894
302.138
303.21
307.267
305.584
306.337
306.244
304.024
307.282
301.618
311.576
308.187
304.718
305.142
308.987
311.534
308.059
302.086
312.258
306.47
307.644
312.847
303.499
303.086
301.782
302.476
295.769
290.841
294.442
300.708
298.883
309.564
299.648
308.639
306.798
307.779
300.986
306.816
302.643
305.911
300.892
301.721
291.034
290.136
298.058
299.665
299.629
302.633
302.735
304.514
295.676
288.948
301.206
298.484
305.619
298.098
296.285
292.277
291.56
290.23
293.538
290.196
299.979
293.427
301.632
300.477
300.451
305.069
305.216
306.768
309.788
300.328
305.076
297.627
297.442
301.411
301.072
297.438
300.462
302.127
302.083
297.225
297.131
299.162
305.578
301.576
294.169
302.662
299.363
292.142
297.569
303.052
307.065
297.011
306.844
306.222
301.68
289.835
304.091
302.782
304.37
298.738
299.724
299.67
304.062
306.586
304.97
293.772
293.366
292.868
302.217
296.614
297.651
301.223
302.478
298.548
300.298
303.248
301.123
301.808
297.075
301.751
299.704
298.865
304.38
310.79
310.862
305.307
304.302
306.149
309.987
319.811
308.302
304.379
305.489
319.545
309.35
302.816
295.582
301.258
305.766
302.506
298.01
298.706
303.431
293.292
302.035
299.44
301.295
300.409
299.495
294.588
291.979
299.957
299.666
303.974
304.177
298.662
297.649
299.859
291.555
290.302
298.623
297.596
291.613
303.634
300.851
296.376
289.589
287.703
287.163
289.293
280.797
283.515
279.799
282.644
292.935
286.699
285.552
295.578
289.973
289.607
292.121
283.71
284.566
287.973
291.825
293.887
289.699
285.209
276.193
284.366
284.461
279.196
288.091
283.484
293.409
285.149
278.623
278.317
279.141
273.755
271.392
266.053
257.702
258.317
259.183
254.777
248.046
244.823
244.978
240.399
236.723
232.523
230.143
)
;

boundaryField
{
    sides
    {
        type            calculated;
        value           nonuniform List<scalar> 2(230.143 228.748);
    }
    empty
    {
        type            empty;
    }
}


// ************************************************************************* //
