/*--------------------------------*- C++ -*----------------------------------*\
  =========                 |
  \\      /  F ield         | OpenFOAM: The Open Source CFD Toolbox
   \\    /   O peration     | Website:  https://openfoam.org
    \\  /    A nd           | Version:  7
     \\/     M anipulation  |
\*---------------------------------------------------------------------------*/
FoamFile
{
    version     2.0;
    format      ascii;
    class       volVectorField;
    location    "0.002";
    object      UMean;
}
// * * * * * * * * * * * * * * * * * * * * * * * * * * * * * * * * * * * * * //

dimensions      [0 1 -1 0 0 0 0];

internalField   nonuniform List<vector> 
1000
(
(-318.938 4.82349 1.64305)
(-270.702 1.3867 0.760028)
(-248.57 -2.47524 7.49407)
(-225.75 -0.47 3.80141)
(-205.773 -6.06572 0.0684904)
(-187.876 -6.76454 12.0426)
(-185.97 -8.85445 8.51008)
(-169.567 -7.30256 4.51823)
(-163.118 -10.175 -2.15511)
(-151.41 1.72696 -0.578383)
(-144.751 9.32406 7.76738)
(-138.104 3.60455 3.96435)
(-136.101 0.836856 8.19925)
(-126.133 -4.95419 4.05412)
(-119.141 -13.1959 3.35485)
(-110.712 -1.73132 -9.33115)
(-106.482 3.23028 -1.55155)
(-102.425 3.04403 -3.9153)
(-97.9125 -3.44299 -6.2048)
(-91.7174 -6.73784 -9.40334)
(-90.3701 -16.1546 -10.3999)
(-85.4232 -1.68997 -14.1624)
(-81.3647 -3.69781 -2.49917)
(-76.9327 11.3932 -16.4435)
(-75.3849 -0.533145 -8.02476)
(-70.6408 5.46562 -6.80837)
(-67.6297 -6.72035 -0.935688)
(-62.8098 -1.38523 0.966399)
(-60.6132 3.04597 0.68954)
(-56.7648 -3.58353 -5.3416)
(-56.1166 6.09582 -6.12182)
(-52.8198 5.47155 -20.7815)
(-49.8428 0.749497 -25.9452)
(-46.9871 2.52677 -20.7849)
(-45.2635 -4.3999 -18.5659)
(-42.8659 -4.92351 -11.3252)
(-40.946 -5.71663 -7.06829)
(-38.2255 -1.82324 2.6438)
(-36.6335 0.596431 -2.36392)
(-33.1606 -1.96687 1.81812)
(-30.2036 5.59442 -9.93537)
(-28.9883 2.69966 -7.40373)
(-26.5448 2.66441 -3.30346)
(-24.8746 4.52512 -2.65706)
(-23.3131 0.574864 -10.3911)
(-21.54 7.84172 -27.8342)
(-19.5126 18.5212 -22.7966)
(-18.1161 10.9576 -21.8089)
(-17.485 4.60615 -14.7279)
(-16.0569 14.2667 -7.10607)
(-15.0856 7.02125 -7.38554)
(-13.2724 -5.31794 -8.34795)
(-12.098 -10.5261 -5.40841)
(-10.9515 -11.4123 4.40318)
(-9.63706 -6.86708 6.24114)
(-8.49502 -2.43723 5.85183)
(-7.47472 -14.9694 8.85617)
(-6.52056 -6.42661 3.01677)
(-5.8303 6.54195 -4.29136)
(-6.37402 -8.16311 0.104309)
(-6.45373 -12.3079 5.42107)
(-5.73387 -5.88609 2.81729)
(-4.79161 2.95469 -12.3643)
(-3.53674 3.20714 -19.3581)
(-3.53724 -2.54378 -9.95818)
(-2.53266 -3.94104 -8.28247)
(-1.72266 -3.49104 -14.5294)
(-0.79101 -1.76049 -9.58023)
(-0.616502 -3.87848 -4.06215)
(-0.68322 0.49707 0.852547)
(-0.704334 -6.60902 -6.6288)
(-0.147537 -12.3817 -6.05893)
(0.0172083 -20.5987 -6.00599)
(0.33438 -15.8903 2.36465)
(0.666159 -4.57742 6.24054)
(1.19483 1.57016 7.74571)
(1.56695 8.48215 6.08873)
(1.98097 -0.409483 5.36342)
(2.60486 2.55459 5.05458)
(2.85948 7.70675 6.58976)
(3.09622 2.95362 4.26047)
(2.33607 -4.3491 4.26156)
(2.13215 -0.474553 6.4952)
(2.07486 4.89126 7.97863)
(2.1898 7.50391 3.02297)
(1.73959 -3.6824 -6.24703)
(1.57087 -14.8511 -5.96705)
(1.90682 -8.06514 -11.4226)
(1.52015 1.87282 -2.30523)
(1.046 6.53955 4.44035)
(1.04446 9.45495 1.2701)
(1.74813 3.99927 4.64005)
(1.58527 14.7765 6.23172)
(1.32046 8.6998 14.7398)
(1.50297 16.2837 1.62851)
(1.29716 17.048 9.30687)
(0.920403 25.5015 8.6125)
(0.720944 9.54234 9.84856)
(0.680316 15.35 15.338)
(0.828455 18.5054 9.06563)
(0.869575 11.6068 6.93113)
(0.283321 8.92183 -1.91296)
(-0.100594 10.3975 -7.70534)
(-0.934371 14.1213 -4.34963)
(-1.93072 2.30183 -7.8282)
(-2.4097 -5.42411 -8.70373)
(-2.58893 -1.22039 -4.17977)
(-2.47547 -14.1543 2.74479)
(-2.12571 -8.74725 3.13774)
(-2.60787 -3.06963 2.09659)
(-2.13696 7.72909 9.46066)
(-2.00043 9.19842 14.2113)
(-2.30354 4.41656 9.03915)
(-2.77899 -0.709071 2.21624)
(-2.172 2.38374 2.94094)
(-1.77052 -1.74723 2.18876)
(-2.55696 -4.14283 -3.85703)
(-2.46253 -7.43441 -10.9441)
(-2.47509 -15.9214 -1.17659)
(-2.03412 -26.9059 -5.92442)
(-1.84964 -16.8039 3.0018)
(-0.980072 -25.8215 6.95673)
(-0.655586 -25.8396 10.9325)
(-0.539594 -23.3151 -1.51503)
(-0.758114 -19.7776 4.67546)
(-0.888781 -18.3288 1.00526)
(-0.742998 -6.63525 4.86908)
(-0.906214 -7.38647 11.818)
(-1.80932 -0.964134 14.635)
(-2.36965 -10.2723 7.70711)
(-2.26578 -10.4533 10.9271)
(-1.67878 -7.79986 8.56867)
(-1.96914 11.1222 -0.141915)
(-2.0703 5.88272 -6.7285)
(-1.70725 -7.53909 -1.72069)
(-1.58066 -10.5612 -7.44811)
(-2.14641 -5.6211 -3.98218)
(-2.27124 -12.3493 -4.6732)
(-1.84292 -21.307 -6.42394)
(-1.30085 -14.8387 0.19549)
(-1.85902 -8.40511 -9.61034)
(-1.77371 -15.4546 -18.1597)
(-1.55532 -13.7113 -17.4367)
(-1.761 -1.70352 -14.7388)
(-1.81057 -10.7461 -5.24319)
(-1.64685 -5.16526 6.64749)
(-2.56188 -8.69441 10.4251)
(-2.94043 0.99194 18.963)
(-3.32167 -1.34311 25.2026)
(-4.01323 0.451819 14.4705)
(-3.68451 -5.46186 13.4305)
(-3.13417 -6.85722 9.26421)
(-2.37933 -2.0622 12.0439)
(-2.83941 -4.55889 -1.41143)
(-2.65052 -0.268509 1.58251)
(-2.97816 -2.12619 -1.9014)
(-3.04801 -5.47671 -5.3375)
(-2.92619 -6.72302 -11.0342)
(-2.60529 -18.6457 -4.76377)
(-2.64995 -25.1676 -11.0162)
(-3.20871 -24.0262 -14.3756)
(-3.53744 -11.6714 -3.06608)
(-4.12989 -6.47259 -0.193078)
(-4.18845 -8.15703 -0.933381)
(-3.9094 -10.9238 3.60104)
(-3.97252 -6.54035 -3.50133)
(-3.55465 2.2464 -0.0530677)
(-3.23216 4.13428 -1.7544)
(-3.65313 7.09455 2.02556)
(-3.36148 16.6284 5.80278)
(-4.03081 12.226 0.515056)
(-4.16524 6.01303 -1.05376)
(-3.6945 -0.825764 6.57075)
(-3.2939 0.779662 11.6565)
(-3.3198 1.24114 16.2413)
(-2.99643 0.784345 23.7972)
(-2.6048 -2.0248 33.5131)
(-2.11719 -15.0553 13.3664)
(-2.06714 -14.3755 2.77286)
(-1.34895 -10.0132 2.2441)
(-1.0997 -8.50052 7.04582)
(-1.42093 -6.69525 7.24451)
(-1.11201 -5.09305 1.37773)
(-1.34459 -11.9778 10.116)
(-1.76989 -11.1102 8.06837)
(-1.62797 10.2485 1.39569)
(-1.66203 2.46657 1.5884)
(-1.33444 12.6744 2.42309)
(-1.03961 8.55625 -5.33291)
(-0.965828 7.89783 1.39289)
(-0.972454 15.1032 7.55838)
(-1.62341 15.6434 5.51851)
(-1.37024 27.5255 9.16554)
(-1.2354 25.6204 9.64756)
(-1.2049 28.8211 -0.770624)
(-0.865946 30.0709 -2.13758)
(-1.72326 18.3925 4.41452)
(-1.02186 16.2664 3.78761)
(-0.246882 4.88709 -0.703889)
(0.280207 -4.04107 1.79515)
(0.428493 1.60444 -6.15666)
(0.432856 4.51561 -12.9653)
(0.890571 -6.60066 -3.30163)
(0.654241 -7.83605 6.8622)
(1.03525 -14.2665 0.444023)
(0.570176 -2.42897 -2.86147)
(0.678073 2.00076 5.90964)
(0.44672 -6.12585 6.17944)
(0.201775 -4.69938 21.5706)
(0.719879 -1.84196 14.8367)
(0.470768 -11.9323 16.9281)
(0.441278 -9.00386 14.5147)
(0.613845 -9.40254 14.5094)
(0.354927 -9.28492 12.0467)
(-0.854733 -5.64375 5.11228)
(-0.907917 0.655071 7.76125)
(-1.34586 -13.2692 6.32266)
(-2.06204 -13.3256 6.99081)
(-1.67974 -14.0923 11.6405)
(-2.2473 -13.8874 14.3825)
(-2.10736 -6.21385 7.69)
(-2.20156 -10.9094 22.0992)
(-1.82217 -14.8153 25.5261)
(-2.07123 -6.58452 19.2324)
(-2.12869 0.899448 23.1209)
(-2.53095 8.43303 24.1323)
(-2.12812 7.66172 8.70151)
(-1.67856 14.4948 5.68335)
(-1.78371 13.7847 7.99672)
(-0.850371 13.4249 10.3323)
(-0.615978 10.233 11.717)
(-0.192339 7.21102 6.28989)
(0.301602 -3.40616 -4.95321)
(0.94194 -3.41774 -6.06998)
(1.23412 -0.863132 -4.30515)
(1.05148 -6.98861 2.85545)
(0.737477 3.56538 4.55676)
(0.477357 1.89797 1.42767)
(0.338934 0.207522 -0.206273)
(0.181691 -0.425173 -7.26058)
(0.10475 1.16079 -3.10069)
(0.14186 2.60103 -2.33961)
(-0.669015 4.25651 -0.592449)
(-0.926063 7.53276 -6.4704)
(-0.740101 -14.3891 -11.7119)
(-0.149371 -24.5524 -6.6108)
(-0.583142 -25.4885 -15.0403)
(-0.864075 -17.8145 -17.0117)
(-1.17616 -5.25923 -15.0403)
(-1.23772 -1.60398 -12.7601)
(-0.60972 -1.05984 -12.1931)
(0.476523 -3.39309 -5.14956)
(0.742337 1.27534 8.49884)
(1.24552 3.57809 4.31542)
(0.972982 -0.827056 4.97661)
(0.593632 -2.94874 2.65801)
(-0.0505852 -5.55215 -0.59935)
(-0.568881 -7.50536 -3.96989)
(-0.0276279 -6.06035 -9.24241)
(-0.419557 3.07159 3.60699)
(-0.699839 5.95947 16.7937)
(-0.545004 5.34688 8.31129)
(-0.179431 -4.79899 13.2471)
(0.116429 3.52687 11.803)
(-0.818004 10.5866 16.1654)
(-0.863685 9.19786 10.6917)
(-0.899253 9.47408 2.66328)
(0.24386 -0.986543 8.7599)
(0.828617 -4.52874 6.74462)
(0.772895 -11.3086 4.09296)
(0.30979 -12.7203 3.52815)
(1.16435 -15.8545 -6.14896)
(1.92245 -24.7233 -10.3715)
(2.72935 -13.7876 -16.0573)
(3.08749 -12.7325 -13.4519)
(2.56651 -6.44652 -13.9789)
(2.79775 -9.79618 -5.05093)
(2.92922 -13.2723 -2.66834)
(3.35255 -13.1251 -0.767987)
(4.09913 -15.8255 0.945215)
(4.00427 -10.4813 -2.91682)
(3.40541 -18.4169 -6.65376)
(2.8383 -8.8466 -5.39836)
(2.9406 -1.4747 4.57774)
(2.96804 3.50364 1.28302)
(2.82941 3.95279 7.5964)
(3.25969 4.50276 2.56631)
(3.54418 -3.19082 6.92866)
(4.04693 7.72653 5.77901)
(3.70396 -8.83825 1.40918)
(4.23863 -22.0465 5.93769)
(4.62667 -19.7528 4.60253)
(3.93499 -10.3785 -1.5866)
(4.1862 -19.71 -5.60913)
(4.8512 -6.4734 -5.6284)
(4.76059 4.54053 -8.02245)
(5.00274 11.5349 -1.07561)
(4.7046 12.1169 12.086)
(4.37824 18.6496 16.4425)
(4.73717 18.5151 10.4181)
(4.70252 6.06777 7.30305)
(4.05588 -0.79618 16.4321)
(3.86478 -4.21621 13.7973)
(3.40199 -8.71081 17.4963)
(3.33885 3.16087 2.53689)
(2.8688 1.94559 5.16467)
(3.16494 -6.19896 6.24292)
(2.67349 -8.58752 1.4956)
(2.0992 -7.68643 -12.0006)
(1.95527 -5.57413 -24.673)
(2.16424 6.41118 -11.9579)
(1.66749 11.7259 -5.1562)
(2.15992 13.541 -2.63877)
(2.09874 5.97579 -0.979898)
(1.77711 0.922827 2.07453)
(1.76232 -5.48712 -4.28091)
(1.54869 -14.1269 5.92602)
(1.206 -14.0632 3.20597)
(0.417506 -5.79466 0.977692)
(0.775106 -6.45238 -6.02904)
(0.519847 -5.50314 -2.46984)
(0.820576 -10.9341 -12.1364)
(1.09732 -4.17416 8.14507)
(0.627365 1.82517 0.84391)
(0.113826 3.14971 -6.26849)
(-0.155936 5.15759 -6.92296)
(0.398573 9.62693 -6.41142)
(-0.541746 9.76003 -10.2123)
(-1.44332 8.27869 -1.35925)
(-1.75244 7.74515 2.3817)
(-1.73216 7.84442 14.2495)
(-1.42826 0.520211 12.2162)
(-1.69124 0.123421 2.48637)
(-1.41189 0.432226 15.9766)
(-1.57239 3.21367 18.8189)
(-1.99226 12.0723 16.9318)
(-1.89067 23.5977 18.9486)
(-1.26931 -5.96985 9.23397)
(-1.99879 -8.2896 15.2065)
(-1.558 -6.80333 14.9297)
(-2.60149 5.2081 17.9084)
(-2.51394 6.29088 5.79974)
(-2.54135 5.41241 -9.10577)
(-2.53273 1.40791 -9.81736)
(-2.45102 1.9032 -14.3787)
(-2.73709 5.86398 -15.1464)
(-2.77854 1.61758 -13.0909)
(-2.95178 14.1089 -4.95387)
(-2.49245 21.8353 2.97416)
(-3.34713 13.0827 -0.428951)
(-2.93339 17.5494 -15.5496)
(-3.11617 21.9764 -11.7017)
(-2.82634 19.2485 -7.26336)
(-3.56865 13.2925 -6.42397)
(-3.61998 7.4738 -3.61695)
(-3.21185 8.57653 0.268886)
(-3.01858 5.21896 -2.05654)
(-3.03108 11.3615 1.3729)
(-3.45003 1.19963 -1.97458)
(-3.10322 -3.41038 1.28162)
(-2.52273 -1.7968 -3.9176)
(-1.80134 -7.72711 2.12758)
(-2.52499 -8.98486 3.01112)
(-2.70956 -15.0075 10.1187)
(-2.4123 -15.8597 17.6698)
(-3.16801 2.75793 9.52736)
(-2.94524 9.39656 12.9597)
(-2.94464 13.958 15.2363)
(-3.50567 21.9756 5.13969)
(-3.42078 22.3994 -6.04404)
(-3.08002 12.1383 -15.8793)
(-2.90249 8.60515 -12.5404)
(-3.28859 6.91144 -14.2106)
(-3.52273 18.6705 -18.0734)
(-3.34624 16.3488 -25.0313)
(-3.09799 4.13492 -13.6803)
(-2.69754 -1.45622 -5.79381)
(-3.22649 2.79637 -4.61307)
(-2.70034 7.71072 5.96027)
(-2.85439 15.3821 1.0266)
(-3.22349 24.7418 13.5918)
(-3.31243 23.4538 17.1417)
(-3.27562 19.3576 15.4433)
(-2.6572 20.4036 12.3946)
(-2.03493 9.63814 15.9707)
(-1.53914 4.50869 13.5916)
(-1.81412 2.2608 14.5069)
(-2.76657 1.47345 7.08571)
(-2.74116 13.8074 20.588)
(-2.28903 -0.473877 16.3004)
(-2.43658 -1.09437 11.0949)
(-2.85234 9.47683 0.266943)
(-2.76649 -6.73765 3.01169)
(-2.71912 -16.4522 3.88678)
(-2.27371 -13.9912 0.514612)
(-1.44728 -8.19229 2.79344)
(-0.834633 1.8665 -1.92303)
(-0.0931982 -12.8351 -3.82561)
(-0.356042 -11.2142 7.42611)
(-0.769169 -15.2858 1.74319)
(-1.36164 -16.7967 7.84193)
(-0.908059 -7.89011 3.80432)
(-0.607464 -12.8562 5.94399)
(-0.179114 -8.78118 3.57952)
(-0.191615 -5.48688 6.39024)
(0.42687 -4.28522 12.255)
(0.313666 -5.98514 9.21614)
(1.13666 -1.01014 -1.25072)
(1.15606 11.6674 -5.36005)
(0.84978 18.0772 -9.73623)
(0.719162 7.15221 -7.3543)
(0.337892 6.34443 -6.5069)
(0.144236 7.88615 0.0657218)
(0.169754 1.60615 12.2225)
(0.218014 7.18862 0.740634)
(0.467809 5.92163 2.24238)
(-0.101847 15.7738 6.95847)
(-0.416838 8.08673 0.325663)
(-0.48548 14.6636 -10.0012)
(-1.32716 10.4399 -10.1045)
(-1.50947 -2.01594 0.922056)
(-2.4174 -3.08173 -11.4736)
(-2.36897 -1.69419 -3.72001)
(-2.64973 -6.91408 -9.96217)
(-2.86746 -0.979312 -19.4665)
(-3.74072 1.71987 -19.0386)
(-3.7329 0.488587 -10.3308)
(-4.07846 6.871 -11.9377)
(-3.73371 1.021 -15.4714)
(-3.34002 -1.29679 -10.6463)
(-2.33238 -8.121 -6.13063)
(-2.5112 -4.21945 -5.89538)
(-2.61067 -1.67279 -6.84716)
(-2.64863 1.79983 -23.0396)
(-2.41566 -0.621015 -25.7101)
(-1.88591 1.71115 -33.6895)
(-2.52113 1.00154 -14.272)
(-1.75493 5.4667 -11.0147)
(-1.45248 8.34783 2.19731)
(-1.55022 -2.15559 -1.53179)
(-1.88854 2.32423 -4.25714)
(-1.8653 11.0885 5.19462)
(-1.42937 7.2775 -10.0639)
(-1.20856 12.5662 -7.00591)
(-1.3006 12.9139 -14.5746)
(-1.73055 12.6291 -9.56446)
(-1.50459 12.6681 -4.73058)
(-1.98426 11.6031 -10.7286)
(-1.68855 17.3256 -6.61665)
(-2.00266 12.167 -18.3985)
(-2.09968 10.7897 -6.90909)
(-1.8832 10.3813 -7.13304)
(-1.41214 9.29246 -0.873932)
(-1.26563 1.60618 2.11492)
(-1.1178 -11.307 3.82118)
(-1.2237 -18.1802 -6.44206)
(-1.21439 -14.5884 -8.93718)
(-1.50081 -12.4063 -11.0547)
(-1.64269 -15.3412 -7.53854)
(-1.394 3.93496 -4.09052)
(-1.17218 -3.9944 -13.121)
(-0.616503 -11.3742 -8.45479)
(-1.29519 0.716563 -0.80965)
(-1.83042 -2.37311 -3.0336)
(-2.55322 5.0147 -1.59415)
(-2.7713 7.69819 -1.21204)
(-2.46983 4.72028 -3.34004)
(-2.22528 -0.700687 -5.08323)
(-2.6068 -4.94359 7.56936)
(-2.72195 -10.1549 0.904298)
(-2.55658 -16.89 5.36189)
(-2.16202 -18.1905 11.0672)
(-1.9301 -15.5236 0.241252)
(-1.29587 -15.793 6.14438)
(-1.33164 -4.73113 5.20931)
(-1.47149 0.945399 17.0479)
(-1.8369 8.93676 24.7218)
(-1.07944 9.52725 20.3872)
(-1.14774 7.77711 14.7813)
(-0.515272 7.34284 18.1664)
(0.303115 5.50497 6.61417)
(0.535394 13.8145 5.52175)
(0.971872 2.45908 1.71945)
(1.01558 1.4454 -0.34287)
(0.365965 1.98644 3.47827)
(0.487353 -6.22913 -7.29874)
(0.642899 -6.02487 5.35261)
(0.359141 -4.33011 1.29323)
(0.748286 -1.06464 -2.31387)
(0.500055 3.09466 -2.86963)
(0.608271 1.96406 -6.33878)
(0.743774 3.77437 -7.7323)
(0.915742 5.95227 -8.68947)
(1.89383 9.90313 -9.54526)
(2.16107 -1.17323 -11.5702)
(2.41552 -1.57198 3.59972)
(2.55524 -6.77555 11.2471)
(2.47574 -4.96437 9.39551)
(1.9114 -6.62802 4.09478)
(1.78625 1.44976 10.1134)
(2.64602 0.301054 -3.8784)
(1.79179 -14.5192 -5.56526)
(1.28729 8.52928 9.71743)
(1.16169 9.25456 3.97478)
(1.61019 0.446988 -0.760904)
(1.67661 1.38247 0.357168)
(1.29482 3.81508 0.862784)
(1.3674 -1.63648 3.55143)
(0.926491 0.239474 0.383888)
(0.51509 2.5541 5.72284)
(1.53189 4.15214 -10.6559)
(1.62514 3.34682 -6.42994)
(1.2254 -8.49477 5.84354)
(1.7562 -4.65546 1.543)
(1.40773 5.27753 9.60613)
(0.929602 5.74123 8.24841)
(1.61691 -8.9239 7.34598)
(1.30453 -4.51068 7.52766)
(1.43056 6.43112 14.8935)
(1.64812 -4.24033 -3.23543)
(2.51748 3.29077 -7.35025)
(2.29775 18.1421 0.963887)
(1.75244 14.4928 8.88636)
(1.43971 9.21761 17.8368)
(1.42281 1.81738 8.36287)
(2.13119 3.30012 15.7631)
(1.9951 6.57034 7.00655)
(2.5276 -9.91633 9.03497)
(2.38032 -11.3484 10.5711)
(2.64003 -17.1813 12.8097)
(2.328 8.93341 22.4277)
(2.44314 7.01429 7.34604)
(2.2168 4.69183 5.96266)
(2.19862 -1.93271 3.10469)
(2.19511 -7.99053 -2.50838)
(2.01786 7.22428 -7.97586)
(1.98745 3.27148 -10.808)
(2.15114 -5.71041 -5.89162)
(0.858227 5.70257 -12.2504)
(0.888909 9.38706 -16.7958)
(1.33589 18.3228 -22.5624)
(1.7368 8.98735 -9.63192)
(1.99864 0.0311333 -10.7568)
(2.46601 -10.7556 7.6623)
(3.08004 -10.8105 6.24585)
(2.95371 -13.724 -3.17563)
(2.50712 -8.31307 2.58998)
(2.97206 -3.41798 -2.49489)
(3.76223 5.81775 -7.29968)
(3.2737 11.0508 -5.75765)
(3.00154 8.29903 -7.0788)
(2.90894 3.18603 -1.60116)
(2.99944 -6.99104 12.4408)
(3.05388 -6.81552 10.7155)
(2.48181 6.027 21.1119)
(2.46601 12.0078 15.8012)
(2.64102 5.96977 16.8753)
(2.74148 6.18277 18.4202)
(2.72758 10.0061 17.4015)
(3.53105 8.15657 11.8531)
(4.09208 14.0093 17.8189)
(4.0578 17.6017 12.1281)
(3.73972 23.3206 12.1665)
(3.82557 21.1221 11.9356)
(3.64458 20.5274 -2.47324)
(3.43739 8.12267 -12.2247)
(3.6133 6.7025 -8.94863)
(3.71793 16.9575 -11.297)
(3.76719 18.7321 -9.34517)
(3.75116 12.3664 -1.9995)
(3.78508 10.9911 1.81648)
(3.42239 0.0571089 -6.67243)
(3.62335 -15.4545 1.73968)
(3.3911 -15.5649 -8.53147)
(3.87217 -14.8476 3.23522)
(3.65203 -8.76207 1.39745)
(3.54054 -10.9897 7.10484)
(4.21975 -10.0042 -7.00064)
(4.61932 2.57212 -4.75609)
(4.22146 1.23265 -5.46918)
(4.38557 7.76433 -4.63473)
(4.0503 -0.874531 5.83362)
(3.96993 -5.84616 3.00617)
(3.94486 6.18524 -1.56884)
(3.82978 15.6958 -7.80504)
(4.00266 3.98848 -6.06004)
(4.35052 5.3808 -8.14078)
(3.90822 0.52683 -3.76958)
(3.5383 -3.74733 -7.8606)
(3.63787 -8.16427 -5.52964)
(3.92803 -11.967 -7.45219)
(3.48954 -17.3029 -11.1353)
(3.30344 -22.7868 -13.06)
(3.81206 -31.6711 8.44022)
(4.18465 -31.4091 -3.16221)
(4.02002 -24.3996 -8.24282)
(4.15399 -23.9835 -4.09014)
(4.21978 -24.7604 -7.03387)
(4.24358 -22.1171 -5.77326)
(4.10958 -18.2384 2.15288)
(4.14616 -13.8807 1.17864)
(4.10994 0.136312 6.24752)
(3.72842 -6.34477 4.25371)
(3.62972 -7.45589 -1.23478)
(3.63424 -13.0721 -2.56241)
(4.0202 -14.4836 -13.4157)
(3.48089 0.363207 -18.0102)
(2.97233 9.551 -16.3694)
(2.72855 8.04509 -9.12925)
(2.01731 10.2341 -6.31047)
(1.82284 11.2561 -18.549)
(2.10661 9.02746 -6.37883)
(1.9037 2.58644 -6.96003)
(2.07767 5.40716 -3.72363)
(2.07422 13.862 -1.5504)
(1.79622 12.7307 1.19981)
(1.24801 17.9481 0.700727)
(1.27071 18.2362 -0.800467)
(1.39331 25.1524 0.618135)
(0.408438 32.8153 10.7719)
(0.275776 25.7053 19.283)
(0.457242 14.7372 18.3936)
(-0.0221601 6.24448 27.0291)
(-0.0519584 11.2922 21.1176)
(-0.393591 10.342 15.3429)
(-0.63811 8.05775 8.55951)
(-0.411499 5.60037 19.266)
(0.133876 0.0246693 12.3687)
(-0.170603 -5.58408 15.3495)
(-0.459465 8.98393 5.38332)
(-0.655347 -0.534378 -2.6277)
(-0.604624 -2.46914 -6.22313)
(-0.630419 6.25744 -20.5324)
(0.990332 11.9452 -18.422)
(1.26403 13.368 -10.8205)
(1.34455 9.36771 -8.14278)
(1.1106 4.50759 -6.04274)
(1.69968 3.45224 -3.30564)
(1.56292 0.436953 5.52409)
(1.27345 10.8098 10.915)
(1.45339 15.4361 2.7)
(1.25112 4.53125 4.49209)
(1.77816 8.73013 2.74115)
(2.00807 7.9192 -7.5928)
(1.52795 6.9897 -11.076)
(1.36138 2.94069 -4.16064)
(1.25674 -2.82256 -0.264693)
(0.237941 -15.4479 -2.19086)
(0.238281 -2.52655 5.5746)
(0.290752 6.98635 3.75397)
(0.687744 -1.41101 6.90945)
(0.749057 8.97901 -3.16189)
(1.01711 17.7091 -12.7248)
(0.60674 17.6674 -8.3394)
(0.907137 7.74122 3.29439)
(1.26547 -2.52812 -1.50016)
(1.33011 -1.04186 0.39758)
(1.28615 2.95048 -13.9144)
(0.844587 6.69271 -14.5374)
(0.965684 9.36127 -19.0125)
(1.24275 12.3999 -20.5718)
(1.27182 0.484935 -23.6554)
(1.14372 2.9042 -14.8483)
(1.16602 1.2011 -6.44209)
(0.596036 2.84876 -12.3507)
(1.29519 -1.3012 -13.001)
(2.01028 5.3823 -18.5545)
(2.36718 12.7339 -5.62878)
(2.67198 8.34489 -0.104794)
(2.88572 5.55684 -10.7053)
(2.91562 6.26924 -6.6538)
(2.29676 20.1216 -2.38872)
(2.12082 27.6794 -2.82797)
(2.39134 23.2484 -9.37002)
(2.96266 28.7692 -6.23534)
(2.95548 19.5101 -10.0836)
(2.47167 21.3157 -5.52889)
(2.23408 25.4949 1.06707)
(1.70993 21.0292 -4.53358)
(1.72284 20.6573 3.35602)
(1.44803 13.4377 0.94152)
(1.53328 19.1257 8.38165)
(1.23251 22.0849 26.0547)
(0.999365 17.6939 14.4495)
(1.45819 8.97993 19.0497)
(2.29837 2.6466 14.3025)
(2.0202 -6.06083 19.2495)
(2.89299 -4.19876 14.0337)
(3.0881 -6.82061 12.4315)
(2.83136 -1.90475 14.0235)
(3.84529 -6.49362 11.3783)
(4.33588 -7.06995 6.48693)
(4.74116 -9.69153 0.0195588)
(4.42691 7.58044 -6.53903)
(3.7016 10.9623 10.5904)
(3.71021 9.93233 10.4777)
(4.43132 19.4 11.252)
(4.23834 19.8681 6.04636)
(4.12404 18.6344 -2.33248)
(4.53927 3.6652 -23.1128)
(4.58696 1.72026 -30.4942)
(4.46872 8.11936 -13.6293)
(3.51238 -7.34007 -13.1117)
(3.13064 -7.16236 -1.91661)
(2.9987 -9.65568 0.038995)
(2.74535 -10.4289 -20.7194)
(2.83027 -5.59852 -18.2346)
(2.68333 -12.0726 -15.3369)
(2.57728 1.37232 -18.6133)
(2.85157 10.5534 -9.2774)
(2.25833 -5.38281 -12.9212)
(2.07394 -11.4476 -14.2768)
(2.21553 1.70154 -12.5436)
(1.80343 12.491 -9.36177)
(1.57588 18.579 -5.64702)
(1.39712 8.80973 6.24317)
(1.87884 0.641302 -2.39116)
(1.26172 5.7179 -0.780113)
(1.78632 1.93703 -2.21226)
(1.39296 6.7798 -3.45077)
(1.31256 -0.0316113 7.12695)
(0.90547 3.09349 11.3595)
(0.974428 -12.0423 12.7546)
(0.607922 -7.3521 0.188823)
(0.699463 9.99566 -7.09821)
(0.411424 6.88 -0.786836)
(-0.727745 11.6492 10.0633)
(-0.393146 -0.822523 10.6565)
(-0.587182 4.79953 8.57665)
(-0.470779 13.216 5.48649)
(-0.249584 16.8465 7.61445)
(-0.325606 14.6753 6.81071)
(-0.21109 1.59124 4.64018)
(-0.616284 8.40123 16.6313)
(-1.28346 13.1945 5.39268)
(-1.3761 13.4103 -1.97112)
(-1.95921 14.9787 -2.7969)
(-1.41114 16.9364 -11.5971)
(-1.24357 8.38799 -15.1661)
(-1.20301 2.65415 -8.58402)
(-0.628361 7.95134 -4.8157)
(-0.473504 17.2339 0.19487)
(-0.8184 9.48933 -7.93907)
(-0.919734 1.68155 -9.30922)
(-0.576281 15.6745 -2.24319)
(-0.530717 6.79104 -3.71755)
(-0.459226 5.11347 -0.268483)
(-0.634895 -15.616 1.91648)
(-0.861227 -16.207 11.8149)
(-0.864475 -7.23636 -2.77201)
(-1.7899 -1.3629 1.05162)
(-2.18572 -0.227309 3.37306)
(-2.1598 -14.1218 1.78589)
(-1.86799 6.36107 5.67799)
(-1.59261 -0.972315 -5.83555)
(-1.71368 6.50718 -16.8966)
(-2.00053 10.4034 -15.5263)
(-1.97016 10.3179 -0.424304)
(-2.44999 7.33353 9.25924)
(-2.94876 9.4433 6.39477)
(-3.01743 2.40484 7.8578)
(-3.28561 14.2149 -3.66339)
(-2.69973 21.5373 -3.1678)
(-3.04888 8.10088 -4.02446)
(-3.07753 -1.56745 -5.42321)
(-2.45361 0.3712 -3.08772)
(-2.0003 2.43704 5.0015)
(-1.95428 -0.865702 -0.757783)
(-1.69174 -3.19237 -3.84018)
(-2.16204 -11.6748 5.14008)
(-2.06455 -4.79997 12.174)
(-2.21289 -0.291794 19.9654)
(-2.60248 -1.24808 9.72545)
(-2.45439 9.02969 2.96086)
(-2.34699 11.2393 -0.475959)
(-2.4033 21.1261 1.79099)
(-2.24316 12.1244 21.5077)
(-2.33801 2.98542 0.173158)
(-1.80942 8.6162 3.38399)
(-1.35335 14.9889 -7.9185)
(-0.823109 1.24252 -2.70533)
(-1.21402 6.70054 4.33761)
(-1.44983 3.54895 -4.17896)
(-1.85431 1.73314 3.39334)
(-1.51849 2.55734 7.37449)
(-1.18418 -1.05658 2.87684)
(-0.797084 4.47441 1.83872)
(-1.2282 -3.68306 -4.48679)
(-1.08249 -0.237854 -4.05493)
(-0.478241 -3.38676 -11.5925)
(-0.458056 -3.01795 -18.0727)
(-0.964288 -4.81845 -21.1157)
(-1.0678 -5.83396 -23.2342)
(-0.862419 -2.74357 -21.1393)
(-0.969871 -11.1577 -24.3446)
(-0.305411 -19.1202 -22.262)
(0.422089 -16.2949 -23.7991)
(0.730843 -13.5395 -22.4257)
(0.795813 -22.9094 -17.1819)
(0.433512 -26.2537 -10.0908)
(0.435049 -24.8344 -1.94279)
(0.894317 -4.6149 3.30863)
(1.03309 -3.3442 -5.40215)
(0.658351 -11.1142 -3.0434)
(0.283525 -6.57601 -1.21927)
(0.00770777 -8.19069 9.19755)
(-0.490953 -8.49821 3.44566)
(-0.348732 1.93946 2.32698)
(-0.447118 13.486 1.27656)
(-0.430337 7.65811 -3.77369)
(-0.483437 3.33202 -5.51243)
(-0.853116 2.13927 1.5631)
(-0.251815 0.400561 -0.783424)
(-0.531045 -5.81527 -1.89365)
(-1.37135 -10.4076 -4.21943)
(-1.42493 -10.8628 -3.84814)
(-1.91721 -3.52845 0.42177)
(-1.92122 1.67472 -0.319347)
(-1.50233 -5.93041 -0.455886)
(-0.972295 -9.0401 -10.5296)
(-0.23431 -8.53897 -4.18005)
(-0.230131 0.557685 -4.7118)
(-0.365994 0.886006 -2.50318)
(-0.633746 5.03669 -3.34846)
(-0.371958 1.92599 -1.00998)
(-0.702095 13.1924 0.713132)
(-0.273875 4.95664 13.7695)
(-0.52866 -0.0495529 13.8178)
(-0.771649 4.98085 7.06172)
(-0.822087 0.734573 6.88733)
(-0.630969 12.7301 5.29739)
(-1.04115 16.0827 -3.03537)
(-0.775607 4.36318 1.84969)
(-0.211039 6.92403 -0.903381)
(-0.438362 2.3086 4.11693)
(-0.208027 -2.53551 7.19364)
(-0.231384 5.7716 15.4754)
(-0.201479 -5.29301 -11.5681)
(0.216915 -4.43735 -16.2805)
(0.59724 2.96072 -10.0002)
(0.587454 6.84234 -12.1535)
(0.614991 -2.06997 -12.0765)
(0.165585 -0.241658 -0.207321)
(-0.0130863 -7.46436 -10.2004)
(-0.480614 -5.07039 -18.5687)
(-0.800478 -7.3105 -8.57999)
(-0.317736 -7.55181 -11.9062)
(-0.240385 3.39563 -16.7255)
(-0.178203 0.579147 -12.2609)
(-0.491755 -14.4013 0.517247)
(-1.05415 -5.41257 5.14093)
(-1.83705 4.00639 3.67137)
(-2.23101 5.53614 -3.57297)
(-2.03832 5.13075 -2.46073)
(-1.62384 -1.70764 -7.12194)
(-1.5821 -2.76097 2.41038)
(-1.9956 -11.7878 -2.36906)
(-1.93287 -5.74561 -6.96257)
(-2.16961 -4.16283 -16.5446)
(-1.84723 5.69748 -17.9265)
(-1.51931 16.704 -13.8888)
(-1.52691 0.740637 -6.84417)
(-1.80442 -0.18629 -0.0276921)
(-1.83706 0.466708 -1.2241)
(-1.59458 8.95424 0.660809)
(-2.08541 13.1831 2.93707)
(-1.97994 16.7366 5.66458)
(-2.40284 21.288 -0.47436)
(-2.8047 22.3329 -4.318)
(-3.3537 25.2501 -4.05532)
(-3.43039 22.9026 -9.81362)
(-3.94857 14.493 -14.5598)
(-4.4282 9.56708 -3.64781)
(-3.49686 6.67712 -5.0768)
(-3.0554 8.66715 -2.6177)
(-2.51093 4.92695 -1.05099)
(-3.27306 5.34227 -4.64752)
(-4.46429 6.91112 2.59695)
(-4.27302 -3.36292 -1.90729)
(-4.64047 9.59328 -1.53732)
(-4.2217 10.6154 1.90303)
(-3.7698 3.73283 0.428406)
(-3.71551 5.21223 8.13791)
(-3.87721 6.73915 -0.444632)
(-4.71274 3.526 6.02098)
(-5.37862 -0.853485 12.1838)
(-5.89266 -4.39309 13.2445)
(-5.67903 -2.00323 17.7719)
(-5.26315 -4.0307 11.6766)
(-5.1252 -6.8203 12.2172)
(-4.94105 -6.52415 3.38839)
(-4.96681 -16.915 -0.00676411)
(-4.88839 -3.22852 3.80775)
(-4.66793 -0.798168 3.63726)
(-3.93268 -16.8134 2.40742)
(-3.72728 -2.29917 -7.08043)
(-3.52074 -11.1138 0.356426)
(-4.2447 -4.61496 1.3371)
(-4.22425 5.55312 -3.45855)
(-3.84737 5.44034 2.68552)
(-3.7225 -4.92859 8.83702)
(-3.55605 -11.2067 -0.783149)
(-4.03202 -12.3418 7.0654)
(-3.65545 -9.13361 1.35498)
(-4.43342 -12.9439 -2.36528)
(-5.24535 -14.1682 -6.03583)
(-5.39509 -11.6228 10.7337)
(-5.98021 -17.0097 15.0644)
(-5.6856 -24.1338 3.12198)
(-6.02778 -17.3744 0.144728)
(-5.31711 -17.838 -9.62958)
(-4.90503 -16.4769 -4.94412)
(-4.3047 -15.512 -21.9398)
(-4.2148 -24.6232 -6.65118)
(-4.18071 -21.9992 -6.12998)
(-4.39074 -19.5533 -4.43326)
(-3.74568 -15.8354 1.84105)
(-3.16966 -8.33496 3.35983)
(-2.87369 -3.2033 7.23694)
(-2.5184 -8.80471 -6.32577)
(-2.36154 -6.94138 -3.84517)
(-1.50505 -2.30847 -5.56797)
(-1.07375 -2.71481 -12.8929)
(-0.521526 -11.8609 -5.16826)
(-0.582364 -3.28042 5.12447)
(-1.46182 -6.96956 13.4704)
(-1.1246 -8.09282 8.85873)
(-1.45519 -0.685939 1.39204)
(-1.48775 5.34656 12.6437)
(-1.50545 2.27695 14.8158)
(-1.94286 5.76022 9.46861)
(-1.4502 11.1278 11.0595)
(-0.982243 15.3963 -7.04003)
(-0.644149 2.11864 -4.47713)
(0.0717488 -7.75728 4.84883)
(1.48588 -8.17869 5.85418)
(1.94333 -1.89674 -0.845128)
(2.83306 -3.12348 -5.97294)
(3.73006 -8.10937 -8.25939)
(4.48579 -12.1439 3.07464)
(5.51348 -6.02038 0.922718)
(6.37452 -4.46282 12.0451)
(7.23846 -0.890168 13.1232)
(7.84896 4.94055 1.46249)
(8.61964 7.06517 2.33474)
(9.43743 -1.475 5.97894)
(11.0292 -3.87908 8.3891)
(12.3171 0.231357 8.0685)
(15.0292 0.689716 5.64604)
(16.5467 -0.680028 7.62949)
(17.9194 -5.37094 15.9126)
(18.9918 -5.74966 -0.402305)
(20.0011 -1.90049 7.26622)
(22.2753 4.22694 9.18059)
(23.1841 -8.6117 -1.4163)
(24.8858 -3.28512 -1.59907)
(26.7454 -3.6795 -5.1143)
(28.7893 -9.85576 -11.2964)
(30.2849 -3.44311 -6.86772)
(31.9168 -3.16331 -10.803)
(33.3395 1.63005 -5.31958)
(35.5483 3.60446 0.428059)
(36.9231 1.83897 8.98109)
(39.4977 12.5501 5.60826)
(42.957 1.99122 3.05637)
(45.0483 4.88968 -0.382166)
(46.7415 5.81126 4.15764)
(50.1518 -3.13138 -0.809235)
(52.6208 8.67194 7.87011)
(55.6545 8.27371 2.63377)
(54.6826 2.82111 2.39702)
(60.4529 6.89604 6.28504)
(64.7026 2.58453 -0.811811)
(68.3345 1.40071 -5.75261)
(70.628 -0.65856 -16.795)
(73.9143 -4.24048 -20.4154)
(77.4389 -1.68895 -25.2984)
(80.2336 0.582973 -20.3063)
(82.5049 -5.38779 -7.61067)
(86.3024 -0.660436 -3.16538)
(90.6259 -4.5469 -4.93976)
(95.249 3.08988 -8.26701)
(100.231 0.468678 -11.983)
(108.956 -1.50404 -17.5647)
(116.265 4.81531 -19.5304)
(119.976 10.9728 -22.8321)
(130.757 4.58652 -14.4174)
(135.803 13.1922 -9.28585)
(143.936 6.42706 -1.74015)
(150.997 -0.477913 -15.5247)
(157.084 -8.37358 0.575749)
(164.391 -10.2998 1.11912)
(176.217 -6.86298 -5.72371)
(193.009 -11.4415 1.05669)
(209.197 -12.2626 -3.5635)
(217.344 -20.1757 1.37219)
(237.92 -11.5011 -3.77796)
(246.456 -1.13453 -8.64505)
(283.387 3.38654 -4.89808)
(319.292 -1.28257 -3.42329)
)
;

boundaryField
{
    sides
    {
        type            calculated;
        value           nonuniform List<vector> 2((319.292 -1.28257 -3.42329) (-318.938 4.82349 1.64305));
    }
    empty
    {
        type            empty;
    }
}


// ************************************************************************* //
