/*--------------------------------*- C++ -*----------------------------------*\
  =========                 |
  \\      /  F ield         | OpenFOAM: The Open Source CFD Toolbox
   \\    /   O peration     | Website:  https://openfoam.org
    \\  /    A nd           | Version:  7
     \\/     M anipulation  |
\*---------------------------------------------------------------------------*/
FoamFile
{
    version     2.0;
    format      ascii;
    class       scalarField;
    location    "0.015/lagrangian/dsmc";
    object      Ei;
}
// * * * * * * * * * * * * * * * * * * * * * * * * * * * * * * * * * * * * * //


231943
(
1.07682e-21
8.41305e-21
1.16628e-21
1.16327e-21
2.24797e-21
3.27281e-21
2.01053e-21
5.53902e-21
3.80348e-21
1.61245e-21
1.14467e-21
4.33974e-21
1.27033e-21
7.04876e-21
1.1617e-20
1.05639e-21
2.43442e-22
2.68808e-21
2.45014e-23
5.61108e-21
8.12616e-22
4.07384e-21
1.35501e-21
1.71561e-21
1.14081e-22
7.06703e-22
9.52871e-22
9.99992e-23
7.2613e-22
4.08361e-25
3.35315e-21
5.56737e-21
5.905e-23
2.20922e-22
1.03752e-21
2.53247e-21
4.34958e-21
3.89955e-21
1.02505e-23
2.45745e-22
4.81224e-21
2.02245e-21
1.06722e-21
1.74432e-23
1.78848e-21
3.19988e-21
2.99358e-21
7.97566e-21
2.99404e-22
7.63467e-22
1.9999e-21
1.66798e-21
5.9945e-22
9.74501e-22
1.91028e-21
4.81388e-21
1.26212e-21
3.35926e-21
3.21644e-21
2.5741e-21
6.33505e-21
2.22706e-21
8.94481e-22
2.71261e-22
1.217e-21
3.68225e-21
3.45809e-21
4.25382e-21
1.38311e-21
1.46316e-22
2.53183e-21
6.41563e-23
1.36654e-22
8.87755e-22
4.06805e-22
5.06504e-21
2.92903e-21
2.01846e-21
2.80618e-21
1.03652e-21
9.55572e-22
5.83499e-22
8.98179e-22
7.5994e-22
3.75682e-22
4.37915e-21
5.50523e-22
3.66114e-22
3.93222e-22
5.54941e-21
3.98099e-21
1.20396e-21
3.18038e-22
6.43515e-22
1.76312e-22
1.41658e-21
5.63694e-21
6.23993e-22
6.88366e-22
4.22586e-21
3.90395e-21
7.87483e-21
1.44428e-21
5.25754e-21
1.41326e-21
1.53095e-21
1.39799e-21
1.18161e-21
1.60905e-21
1.77175e-21
3.2389e-22
3.21802e-21
7.54346e-21
3.36878e-21
5.62915e-24
1.7793e-21
9.14468e-22
2.42456e-21
9.03823e-22
2.34606e-21
1.00494e-20
4.49076e-21
3.96212e-21
1.52037e-22
1.02587e-22
2.13492e-21
6.7381e-22
8.40374e-22
5.78178e-22
7.61207e-22
9.84561e-22
4.95292e-21
1.72176e-21
1.65656e-21
4.10385e-22
1.54959e-21
8.25708e-21
6.45024e-22
2.2314e-21
1.08151e-21
1.86939e-21
5.17918e-23
1.73227e-21
2.27988e-21
3.7266e-21
2.37278e-21
1.1656e-21
3.06448e-22
7.36704e-22
2.94757e-21
6.45116e-21
9.70548e-21
9.48208e-22
8.531e-22
2.55208e-21
7.0431e-21
4.80975e-21
4.32702e-22
2.59056e-21
1.74703e-21
3.00947e-22
3.67267e-21
1.45928e-21
8.55905e-22
1.56152e-21
1.01964e-21
1.44428e-20
7.99052e-22
2.32675e-21
3.06303e-21
1.07828e-21
1.43068e-21
1.11876e-22
4.6189e-21
1.27815e-22
3.90669e-21
7.29657e-22
3.34133e-22
5.00944e-22
2.95037e-21
5.73076e-21
2.90494e-21
2.03888e-21
2.49291e-21
7.92636e-22
4.27896e-22
3.4613e-23
2.4576e-21
1.01423e-22
2.82299e-21
1.84558e-21
6.58289e-21
3.88919e-22
1.00892e-21
3.71698e-22
2.64788e-21
4.20238e-21
3.48522e-21
1.81738e-23
6.43651e-22
5.13954e-21
4.057e-21
1.8274e-21
6.2087e-22
5.94717e-21
4.41309e-21
5.40579e-21
4.28066e-22
1.05085e-21
2.82813e-21
3.24714e-22
3.29277e-21
2.01032e-21
1.19931e-21
6.27653e-21
6.18579e-21
4.94792e-22
5.70278e-22
2.72276e-22
7.99535e-21
5.93449e-21
3.92234e-21
2.60823e-21
2.88029e-21
1.5529e-21
2.21479e-21
2.78028e-21
8.05357e-22
7.76942e-21
5.86012e-21
1.47186e-21
3.13717e-21
1.17372e-21
8.54399e-22
3.00315e-21
1.34541e-21
3.09601e-21
1.28045e-21
1.84079e-21
3.56539e-21
2.82383e-21
1.32729e-21
1.20069e-21
1.45356e-21
1.81422e-21
4.83162e-21
2.99323e-23
2.77484e-21
6.44076e-22
1.95658e-21
3.86442e-21
6.72899e-22
1.19241e-21
6.62521e-22
2.82085e-22
7.63133e-21
1.28404e-22
4.71402e-21
6.92069e-23
4.91277e-23
1.15533e-21
2.63004e-21
5.30881e-21
3.37606e-22
7.4483e-22
1.14799e-21
1.61738e-22
6.95109e-22
1.70425e-21
1.65845e-21
2.64974e-21
3.95849e-22
1.72694e-21
3.68794e-23
5.14976e-22
7.80574e-23
1.27984e-21
1.02564e-21
1.82833e-21
4.36275e-21
2.43308e-21
1.98538e-21
1.69581e-21
3.07378e-21
2.3009e-21
1.13463e-21
2.36428e-22
2.99173e-21
1.35807e-21
6.18633e-21
1.7066e-21
1.91235e-21
1.07391e-21
4.00646e-21
8.34975e-22
5.10803e-22
1.47831e-21
3.82213e-21
2.52385e-21
2.31825e-21
4.45169e-22
1.67402e-21
1.72141e-21
1.35641e-21
2.49988e-21
3.63883e-22
6.76956e-22
2.60792e-22
2.83604e-21
1.30818e-21
5.76219e-22
3.04635e-21
9.4598e-22
3.92861e-21
5.43164e-22
8.17329e-22
3.54264e-21
9.25117e-23
3.23762e-21
1.11812e-20
8.45926e-22
1.03102e-21
9.08648e-23
5.40896e-21
8.97576e-21
1.15391e-21
4.79301e-21
1.231e-21
3.11623e-21
2.05795e-21
2.59288e-22
2.77949e-21
2.9196e-21
2.93909e-21
1.26139e-21
1.81464e-21
4.12537e-21
4.49806e-21
1.89253e-23
2.71517e-21
1.87016e-22
1.69313e-21
8.47022e-22
1.83877e-22
1.89585e-21
2.67277e-21
5.22808e-22
6.51814e-21
1.03172e-21
3.62132e-21
1.77025e-22
2.97729e-21
7.38354e-22
9.49259e-22
1.07258e-21
5.91227e-21
1.11195e-21
1.38902e-21
1.20335e-22
3.54801e-22
7.67135e-23
1.3946e-22
5.17369e-21
9.4496e-22
1.00972e-21
5.86075e-21
1.17933e-22
7.96954e-22
3.33625e-21
1.07621e-21
1.66529e-21
1.01675e-20
8.36876e-21
1.50187e-21
6.33554e-21
6.04495e-22
2.68884e-23
1.4187e-21
4.01266e-23
2.12685e-21
2.22156e-21
2.16824e-21
4.69116e-21
1.6706e-22
1.38531e-21
6.84998e-21
9.08545e-21
6.11422e-23
7.07936e-22
2.88057e-21
9.27632e-22
1.45579e-21
1.67879e-21
5.07463e-23
9.50339e-22
2.62595e-21
3.36497e-21
5.31939e-22
3.35941e-21
5.38086e-21
1.41428e-21
8.63915e-23
9.00743e-22
2.26851e-21
1.47977e-21
7.62014e-21
3.8346e-21
6.3211e-22
5.81611e-21
4.27471e-21
5.3788e-22
4.74997e-21
4.55811e-22
7.50966e-21
3.08121e-23
1.78677e-21
4.63094e-22
1.34745e-21
9.22912e-21
2.27144e-23
8.29275e-22
1.58832e-21
9.55357e-22
6.56309e-23
1.1093e-21
4.64262e-22
6.29546e-22
8.9948e-22
2.88323e-22
3.4545e-23
7.02614e-21
1.23468e-21
2.41653e-23
8.85805e-21
6.99582e-21
2.71738e-21
8.84784e-22
1.50578e-21
2.7858e-21
1.04382e-20
1.60374e-21
2.44104e-21
1.01645e-21
1.0317e-21
3.74308e-22
3.34855e-21
3.46671e-21
2.1539e-21
3.29314e-21
1.04035e-22
3.64012e-23
3.29652e-21
2.45288e-22
4.8662e-24
1.42919e-21
1.61861e-22
7.02774e-22
3.68918e-21
1.76751e-21
2.59958e-21
2.59686e-21
2.77831e-21
7.74647e-23
4.8776e-21
1.88057e-21
6.28407e-21
1.64248e-21
3.64852e-21
6.09781e-23
1.042e-21
3.65228e-21
3.3053e-21
8.39219e-23
1.85897e-21
4.02771e-21
6.09551e-21
2.74222e-21
1.37183e-21
3.61296e-21
2.50265e-22
3.19542e-21
5.81366e-21
5.48396e-22
5.3301e-22
3.06074e-21
7.9447e-23
1.55346e-21
1.12462e-21
1.84721e-21
9.14957e-22
2.19037e-21
1.31828e-21
1.50138e-21
1.79361e-22
4.08831e-21
7.92195e-22
7.81554e-21
2.49405e-21
3.59384e-22
2.98226e-21
1.08033e-21
3.76221e-22
6.76633e-22
1.12995e-21
2.46561e-21
1.05689e-21
6.37421e-22
9.28286e-22
2.60231e-21
3.56894e-22
2.65677e-21
2.53334e-21
1.38283e-21
2.00268e-21
8.3332e-21
3.57369e-21
2.39266e-21
9.77658e-22
1.58278e-22
4.23695e-21
2.58836e-22
7.1263e-22
2.06065e-21
1.44169e-21
1.79376e-21
3.72199e-22
7.83136e-22
1.92508e-21
1.47089e-22
8.27854e-22
2.22125e-21
5.30876e-22
2.51924e-21
1.14092e-21
1.50956e-21
7.30154e-23
2.32103e-21
7.72276e-21
8.37895e-22
1.22978e-22
2.89514e-21
3.96097e-21
3.85275e-21
3.00485e-22
1.42578e-21
2.64055e-21
4.16049e-22
6.84325e-22
2.42398e-21
1.10802e-21
1.45826e-21
1.21031e-22
3.11851e-21
2.51959e-21
2.86437e-22
1.42808e-22
3.42661e-21
3.31889e-22
6.55089e-21
3.08846e-21
2.81745e-21
8.78913e-21
3.47368e-21
2.7311e-21
2.17743e-21
2.99544e-22
2.4675e-21
3.89637e-22
3.9924e-21
2.32474e-21
4.24019e-21
1.99296e-21
2.47186e-21
5.64672e-21
2.06363e-21
6.64189e-22
1.35762e-21
5.51799e-21
3.29912e-21
2.54025e-21
3.81284e-21
1.0805e-21
5.81767e-22
5.57914e-21
5.69473e-22
2.63304e-21
1.43753e-21
1.44494e-21
2.42778e-22
3.69917e-22
1.27516e-21
3.33889e-21
4.35931e-21
3.96069e-22
2.02664e-21
3.65601e-21
6.23983e-21
4.90405e-22
4.51263e-21
6.68148e-21
6.90459e-22
4.52684e-21
9.52779e-22
1.12319e-21
1.00937e-21
2.04388e-22
1.37837e-21
9.86068e-22
8.4298e-22
3.0968e-22
3.53232e-22
9.13405e-21
8.20202e-22
1.55942e-22
3.09325e-21
3.91166e-22
8.24229e-23
1.77893e-21
9.34749e-22
2.75722e-21
6.11301e-22
9.70191e-21
3.10751e-22
4.39318e-21
1.08574e-21
1.80859e-21
3.02928e-22
2.34096e-21
5.5973e-22
3.02715e-21
1.40071e-21
2.21924e-21
1.00965e-22
2.43408e-21
1.8093e-21
3.07587e-22
9.24115e-22
4.10276e-22
1.78767e-21
1.10705e-21
2.67004e-21
6.38881e-23
4.90318e-21
1.86552e-22
6.56244e-23
2.7033e-23
2.26438e-22
6.82031e-21
2.73352e-21
7.54197e-22
3.80525e-21
5.58539e-22
1.06158e-21
2.2747e-21
1.24686e-22
3.36469e-22
1.11253e-21
3.4108e-21
2.9131e-21
2.96998e-22
1.32707e-21
1.47848e-21
2.88729e-21
4.94186e-22
3.05756e-21
1.01704e-21
5.15228e-21
3.02808e-21
1.46485e-22
2.70588e-21
3.01152e-22
1.27098e-22
6.67328e-22
6.43331e-22
2.97383e-21
2.72982e-21
5.90765e-21
8.62155e-22
1.88248e-21
1.66863e-21
7.88185e-22
3.04658e-21
2.54108e-21
6.95866e-21
2.03981e-21
1.92758e-21
8.3064e-23
4.07965e-21
8.69981e-22
2.89426e-21
7.0694e-22
5.00821e-21
1.44525e-21
3.51031e-22
1.37573e-22
4.467e-23
4.08595e-21
3.80772e-22
1.08346e-21
5.12201e-21
2.72816e-21
3.23459e-21
8.57068e-21
9.40006e-21
2.72159e-21
1.6912e-21
1.72505e-21
1.77179e-21
9.09294e-22
4.81325e-21
1.96907e-21
7.71478e-22
5.09501e-21
2.23601e-21
8.91412e-22
1.42769e-21
3.08443e-22
2.21953e-21
3.1732e-21
3.74412e-21
2.82858e-21
5.74674e-22
3.928e-22
1.04661e-21
2.5093e-21
2.5615e-21
1.02418e-21
1.32676e-21
5.98392e-21
4.70223e-22
2.98087e-21
1.1657e-21
7.39324e-22
9.6769e-22
5.23554e-21
1.10109e-21
6.41185e-22
2.40728e-21
3.68508e-21
7.2651e-22
2.10897e-21
6.26294e-22
4.12548e-22
2.56589e-21
5.44174e-21
7.7312e-22
4.21014e-22
1.03331e-20
9.52906e-22
1.35482e-23
8.881e-22
1.16235e-21
4.71798e-21
1.71995e-21
2.14087e-22
4.86848e-22
5.64116e-22
2.08991e-21
3.83975e-21
4.51354e-21
3.90981e-22
6.25943e-22
2.12124e-21
3.07716e-21
3.47386e-21
4.81763e-21
4.75415e-21
5.34534e-22
1.62087e-22
7.38385e-21
1.81957e-21
6.63482e-22
2.7258e-21
8.69032e-22
6.94712e-22
7.91621e-22
5.87737e-22
4.04872e-22
1.33684e-21
9.56112e-22
5.28593e-21
1.41354e-21
4.27284e-21
2.52922e-21
1.9996e-21
1.81259e-21
4.92948e-22
8.28431e-22
7.61685e-23
6.28911e-22
1.23126e-21
3.84862e-21
2.23648e-21
1.33599e-21
5.7791e-22
8.37523e-22
4.55513e-21
7.1128e-23
2.61239e-23
9.14844e-22
2.06446e-21
1.41022e-21
7.28343e-21
1.25179e-21
4.46812e-21
4.2019e-22
1.58263e-21
6.96167e-21
7.50674e-21
1.83362e-21
5.05471e-22
1.36306e-21
8.7627e-22
4.76964e-22
1.72464e-21
1.47874e-21
1.75581e-21
8.30467e-22
3.7073e-22
3.23501e-21
6.47922e-22
1.69164e-21
1.30534e-21
1.10781e-21
4.70024e-21
3.49544e-21
1.73125e-21
3.31963e-21
9.0364e-22
1.3708e-21
4.48952e-22
3.06641e-21
2.56944e-21
1.73879e-21
3.47658e-21
9.06785e-22
2.49038e-21
9.1425e-22
1.02469e-21
1.3733e-21
1.68753e-21
2.29084e-21
1.01593e-21
2.90966e-21
9.5622e-22
1.79729e-21
1.28289e-21
1.91335e-21
1.82373e-22
2.40604e-21
2.36116e-21
5.32006e-21
2.10352e-21
6.77225e-21
1.59907e-21
1.12314e-21
1.32608e-21
1.30338e-22
3.41072e-21
4.79672e-23
4.06092e-21
2.02261e-22
1.63746e-21
2.4606e-21
1.82014e-21
6.17465e-21
3.14102e-21
6.27069e-23
1.94046e-21
3.715e-22
2.21042e-21
1.14791e-20
2.6824e-21
3.50795e-21
2.75906e-21
2.60689e-21
2.80126e-21
7.36416e-21
1.12022e-21
2.7349e-21
1.72174e-21
1.82854e-22
2.03273e-21
2.57649e-21
4.32449e-21
4.00874e-21
8.54495e-22
4.20685e-21
4.11778e-21
1.72966e-22
5.02396e-22
1.01144e-22
3.62433e-21
1.12835e-21
1.65081e-21
6.05057e-22
1.29091e-22
2.86281e-21
8.39079e-21
1.17742e-21
3.33833e-22
1.03155e-22
1.62681e-21
3.42053e-22
1.19206e-21
6.73573e-23
9.76951e-22
2.15935e-21
8.31213e-24
8.02731e-23
7.37646e-21
2.65818e-22
4.95808e-22
1.44654e-21
5.70012e-22
7.97035e-21
4.7722e-22
4.43945e-22
6.66243e-22
5.8761e-21
5.87155e-22
1.48418e-21
4.5738e-21
4.47581e-21
2.46459e-22
5.81617e-21
3.02152e-21
1.3218e-21
2.19522e-21
5.80021e-21
1.71583e-21
8.5211e-23
1.64857e-22
3.64773e-21
1.37878e-21
3.32412e-21
1.92244e-21
2.26925e-21
2.15929e-22
1.86061e-21
2.96842e-21
2.06796e-21
8.30753e-22
2.36223e-21
1.56794e-22
8.05087e-22
1.28191e-21
4.03244e-22
2.67776e-21
6.6421e-21
5.95793e-21
1.74077e-21
3.03745e-21
4.74019e-22
2.19563e-21
1.02296e-21
1.50592e-21
1.04314e-21
7.59366e-22
1.43926e-22
2.75407e-21
1.68702e-21
4.61962e-22
9.47003e-22
1.51931e-21
2.01233e-21
5.56835e-21
3.65646e-21
9.53858e-21
2.26438e-22
5.10568e-23
2.63814e-21
2.84222e-21
3.39825e-22
1.64662e-21
4.08449e-21
6.31867e-21
1.37144e-21
4.61505e-21
3.44199e-21
1.88182e-21
1.74489e-22
1.14175e-21
3.16585e-21
3.31455e-21
3.00031e-21
7.53655e-21
4.9482e-23
5.67735e-21
9.79829e-22
3.41128e-21
6.10787e-21
1.59888e-21
1.87729e-21
2.99654e-22
2.00025e-21
3.37858e-23
4.2347e-21
8.43405e-22
5.86917e-22
6.85334e-21
1.60884e-21
7.92681e-22
1.98134e-21
1.00112e-21
9.19596e-22
1.02891e-21
1.37017e-21
7.30198e-21
5.83521e-22
2.45578e-21
2.19467e-21
1.60555e-21
2.72718e-21
2.33455e-22
6.23014e-21
1.81771e-21
2.20328e-21
2.21501e-21
3.87064e-22
8.62332e-22
3.85158e-21
2.07593e-22
1.37971e-21
5.63495e-21
1.05264e-21
3.1476e-23
4.33321e-21
1.80246e-21
5.55827e-21
1.22115e-20
1.51571e-21
5.50687e-22
3.02555e-21
2.22341e-21
1.57787e-22
2.9379e-21
1.45066e-21
5.86141e-22
1.23107e-21
2.4541e-22
3.97561e-21
9.32174e-22
2.04954e-21
8.04425e-22
1.95916e-22
3.42022e-21
2.84883e-21
5.53931e-21
5.84945e-22
1.48734e-21
8.66667e-22
2.79437e-22
1.4989e-21
6.98266e-21
1.16193e-21
2.11559e-21
2.93423e-22
1.0277e-22
8.24859e-23
2.12884e-22
3.26381e-22
2.81221e-21
4.34841e-21
4.17716e-21
3.06258e-22
6.44673e-21
7.71916e-22
1.3158e-21
1.25339e-21
1.29938e-21
8.69213e-22
2.69544e-21
3.30688e-21
8.33613e-22
9.26429e-22
1.88409e-21
4.17394e-21
6.2508e-23
5.61461e-22
1.76998e-21
7.60891e-22
1.32036e-21
2.26308e-22
7.2514e-22
1.24471e-21
1.0802e-21
6.84209e-21
1.74219e-22
3.7358e-22
2.88196e-21
3.02436e-22
1.3758e-21
1.18185e-21
1.38782e-21
3.42393e-22
1.71714e-21
1.02728e-22
5.3018e-22
1.72246e-21
1.82938e-22
5.21591e-22
3.34041e-22
5.97516e-22
2.36911e-21
1.61663e-21
2.16093e-21
1.04733e-21
4.26681e-21
3.33899e-21
1.73759e-21
3.41848e-23
5.22806e-22
2.33984e-21
6.06007e-22
2.41581e-21
2.58958e-22
2.48141e-22
1.26415e-21
3.97103e-21
6.12762e-21
1.25719e-21
2.12175e-21
1.25685e-22
1.5814e-21
2.05922e-21
2.70026e-22
4.60048e-22
4.02367e-22
2.27616e-21
1.50911e-21
6.06755e-22
3.01871e-21
6.08958e-22
1.9322e-21
3.37553e-21
1.57107e-21
9.23076e-22
1.51327e-21
1.31083e-22
1.75627e-21
2.99598e-23
1.39077e-21
1.49813e-21
1.52811e-21
6.18179e-21
2.35352e-21
3.21405e-22
2.38017e-21
2.16058e-21
2.29285e-22
1.22993e-21
1.20397e-20
1.19722e-21
3.35798e-21
7.35453e-22
5.84568e-22
3.70741e-21
1.15953e-21
8.71004e-22
1.37935e-21
4.97997e-22
1.32752e-21
4.0565e-22
6.6131e-21
4.67614e-21
4.22962e-21
1.50696e-21
2.55809e-23
3.5739e-21
2.00651e-21
1.96598e-21
3.35227e-22
2.25469e-22
8.80632e-22
3.67247e-21
1.35277e-21
1.76037e-21
2.69415e-21
1.68789e-21
6.8734e-23
1.38684e-21
1.48679e-21
4.24203e-23
2.20923e-21
3.57946e-21
4.66365e-21
4.70676e-22
1.0278e-21
8.18641e-22
9.01966e-22
7.75234e-22
2.52071e-21
6.41819e-22
7.15044e-22
6.31358e-21
5.94185e-21
4.32247e-21
5.96729e-21
1.08917e-21
4.34209e-24
8.70602e-21
3.93534e-21
6.22592e-21
7.58157e-22
3.73168e-21
1.1764e-21
1.97489e-21
2.05236e-22
3.88906e-21
3.81521e-21
1.04155e-22
2.29618e-22
3.79715e-21
6.12011e-22
2.5999e-21
5.53252e-22
1.76227e-21
2.14414e-21
5.96559e-21
5.96205e-22
1.85539e-21
3.78827e-22
1.36826e-21
5.71139e-22
1.44289e-21
2.25607e-22
3.01033e-21
8.53539e-22
1.23279e-21
3.86332e-21
7.79332e-23
1.56486e-21
1.83918e-21
2.64836e-22
1.89008e-21
1.14826e-21
1.81933e-21
3.39125e-22
3.02812e-22
1.2348e-21
3.84236e-21
3.77375e-21
1.68439e-21
6.38386e-21
4.37393e-23
3.46578e-22
1.15445e-21
6.09098e-21
9.34613e-22
4.56292e-21
2.79715e-22
3.06734e-21
6.02533e-22
4.42011e-21
2.55094e-23
9.92568e-22
1.25636e-21
2.72206e-21
2.9213e-21
2.90875e-21
3.57418e-21
3.00998e-23
5.98128e-22
1.43971e-22
5.08108e-21
4.78408e-22
3.18535e-22
4.66164e-22
9.00736e-22
2.15662e-21
4.74292e-21
1.57051e-21
1.38112e-21
5.72482e-22
4.07541e-23
8.06467e-21
3.323e-22
8.98109e-22
7.48552e-21
7.9412e-22
2.68661e-21
8.04832e-22
4.91892e-22
1.90423e-21
8.97937e-22
4.75357e-22
2.00595e-21
2.43594e-21
2.27261e-21
1.2245e-22
5.54361e-21
1.98145e-22
5.77935e-21
4.53905e-21
4.35288e-21
4.1514e-21
1.19549e-22
1.77696e-22
5.33353e-22
3.86773e-21
5.47023e-22
3.17931e-21
1.61527e-21
1.14436e-21
2.62595e-21
2.75078e-21
6.44719e-21
1.16106e-21
8.37113e-22
5.59275e-21
8.77114e-21
8.23907e-22
2.34087e-21
1.03529e-21
2.84735e-22
5.65845e-21
2.0195e-21
4.76838e-21
4.06463e-21
2.26955e-21
4.75109e-22
4.67506e-22
5.17926e-21
5.05418e-21
1.4281e-21
2.20754e-21
2.64673e-21
1.27051e-21
1.03425e-21
3.30292e-22
1.53741e-21
2.37071e-21
1.05644e-21
5.86028e-21
3.62099e-22
4.72786e-21
5.91871e-23
7.36627e-22
2.79343e-21
1.84553e-20
1.9457e-21
7.45614e-22
2.1672e-22
4.00544e-22
9.04105e-22
6.6221e-22
1.08994e-21
3.57859e-21
2.75247e-21
1.23235e-23
6.85536e-22
4.58388e-23
2.67531e-21
3.36218e-21
4.81156e-23
1.52778e-21
2.46291e-21
1.35589e-20
4.65017e-22
1.35725e-21
4.13212e-21
3.68549e-21
8.28806e-22
6.81979e-22
1.13623e-21
5.48222e-21
2.24593e-21
9.50556e-22
2.74142e-21
1.04106e-20
1.50485e-21
2.51461e-22
2.0186e-21
1.40255e-21
4.11353e-23
6.93385e-22
1.29689e-22
5.357e-21
3.06459e-22
2.28035e-21
2.73332e-22
1.5107e-21
2.35086e-21
8.60943e-22
5.79477e-22
6.99689e-22
3.42144e-21
2.72803e-22
3.07187e-21
2.49189e-21
5.18696e-22
5.83566e-21
3.91243e-21
1.24446e-21
3.80978e-21
5.53616e-21
6.71771e-21
3.70093e-21
3.23466e-21
5.27042e-21
2.9728e-21
2.24624e-21
8.03125e-23
8.00971e-21
8.46419e-22
4.46651e-22
5.9371e-22
2.78973e-21
1.02131e-21
3.69718e-21
6.6414e-23
2.44514e-21
4.22165e-22
5.08289e-22
8.32241e-22
5.85812e-21
3.90034e-22
3.75465e-22
4.57211e-21
2.67939e-21
1.81078e-22
4.24558e-22
1.16449e-21
3.68828e-22
3.18409e-22
1.45382e-22
9.71477e-22
4.15146e-22
5.00491e-22
2.32999e-21
1.44642e-21
6.45636e-24
7.46584e-21
3.90963e-21
9.92305e-21
5.73099e-21
2.79968e-21
1.09463e-21
4.3229e-22
1.00077e-20
3.90464e-21
1.08393e-21
2.8421e-21
9.57655e-24
2.68998e-21
3.11148e-21
1.15928e-21
1.09798e-21
6.55587e-21
2.2184e-21
3.68389e-21
3.13678e-21
1.34988e-22
1.09136e-21
1.15227e-22
3.99082e-21
1.12219e-22
2.94228e-21
4.18548e-22
7.10101e-22
1.2571e-21
4.49753e-22
1.5659e-21
2.87835e-22
2.98876e-21
5.40136e-23
7.35332e-22
2.38208e-22
1.46711e-21
2.34015e-21
9.5723e-22
2.18848e-21
3.85447e-21
7.87674e-21
1.07756e-22
3.35319e-21
2.35361e-21
2.62123e-21
1.18033e-21
3.14349e-21
1.74193e-21
2.23926e-21
2.78854e-21
8.83182e-22
1.95939e-21
1.40123e-21
7.10037e-21
1.52348e-21
2.66926e-21
4.41538e-22
7.56569e-21
2.45544e-21
2.33407e-21
2.62977e-22
3.66755e-22
1.28746e-21
1.80863e-21
6.21055e-22
2.9406e-22
3.66199e-21
1.00321e-21
7.32758e-23
6.40901e-21
3.63623e-21
6.87987e-22
1.35346e-22
6.7056e-21
1.61966e-21
7.40168e-21
9.15568e-22
2.9631e-21
1.49492e-21
1.19871e-21
5.62864e-21
1.03644e-21
1.75121e-21
7.96786e-22
5.08673e-21
6.90009e-23
7.1319e-21
6.46668e-23
6.42617e-22
1.4154e-22
4.04507e-21
8.82422e-22
1.79233e-21
1.21157e-21
4.98536e-21
2.46112e-22
5.12896e-22
9.70237e-22
2.99577e-22
1.18669e-21
1.3961e-21
4.10727e-22
4.21791e-21
5.17326e-21
1.86728e-25
1.63778e-21
5.7924e-22
9.45658e-22
1.24199e-21
5.25164e-21
1.74619e-21
7.20191e-21
2.11714e-22
7.84223e-22
2.42407e-22
1.93335e-21
1.89088e-21
8.4827e-22
1.31288e-22
2.21032e-21
1.86841e-21
1.06897e-21
1.54663e-21
3.66896e-21
9.56489e-22
3.57999e-21
4.27953e-22
6.36728e-22
6.94866e-21
3.88488e-22
1.32364e-21
1.34388e-21
3.76689e-21
2.06188e-21
9.79748e-22
2.49935e-22
5.62497e-22
5.95795e-21
6.48992e-22
4.62124e-21
1.54725e-21
1.89657e-22
3.13662e-21
2.50508e-21
3.33268e-21
4.88679e-21
2.86253e-21
3.8775e-22
4.25148e-21
3.13552e-22
8.9942e-22
2.52805e-21
6.31209e-22
9.50094e-22
7.21651e-22
2.13749e-21
2.73969e-21
1.03819e-21
1.07751e-21
2.31767e-21
1.16711e-21
3.21448e-22
1.08757e-21
2.21848e-21
6.28124e-21
1.84037e-22
2.8871e-21
9.16148e-22
3.72418e-21
3.16688e-22
2.27468e-21
5.6655e-21
6.81776e-21
9.89689e-22
2.79622e-21
1.27263e-21
2.92883e-23
7.09441e-22
5.06248e-22
1.02705e-21
2.65416e-21
1.52649e-21
1.91286e-21
4.12742e-21
2.16865e-22
8.91514e-22
3.16471e-21
3.43106e-22
1.93916e-22
1.50331e-21
4.89076e-21
2.64451e-21
1.91624e-21
6.16194e-22
5.1018e-21
3.0511e-22
3.95868e-22
2.36618e-22
1.64421e-22
1.29388e-21
1.51457e-21
9.72895e-22
1.2101e-21
1.62923e-21
1.48314e-21
1.37686e-21
8.61373e-22
6.40689e-23
8.89043e-22
1.00081e-21
1.29749e-21
1.81166e-21
1.23307e-22
3.22899e-22
1.72426e-21
2.77305e-22
3.32637e-21
1.53825e-21
8.95414e-21
1.02921e-21
3.9168e-22
1.88351e-21
1.94065e-21
2.94817e-22
2.59771e-22
3.12095e-21
1.28639e-21
1.08516e-21
1.93397e-22
1.15766e-21
2.9584e-21
1.61131e-21
2.40764e-21
4.84741e-22
1.18806e-21
1.37375e-21
2.91121e-21
3.92478e-21
2.36346e-22
6.45364e-22
4.67861e-21
1.10984e-21
7.18196e-21
4.11712e-21
1.0074e-21
1.45123e-21
3.55841e-21
1.42275e-22
3.38694e-21
4.62992e-21
2.33739e-21
1.86961e-22
8.6877e-23
2.63483e-21
8.03608e-22
2.66286e-21
3.3757e-21
5.18276e-21
1.9246e-21
2.19957e-21
4.7651e-22
4.27701e-21
5.34325e-22
2.67798e-21
1.01438e-23
6.40462e-23
3.40439e-22
7.43066e-22
4.67559e-21
2.39425e-21
1.63899e-21
5.58551e-22
2.45762e-21
4.69329e-22
8.77176e-21
3.66146e-21
2.43219e-21
2.49369e-21
1.84253e-21
3.71265e-22
1.3839e-21
2.18959e-21
3.28502e-21
1.14225e-21
2.97018e-22
3.27185e-22
2.01551e-21
2.34171e-21
6.562e-21
4.44988e-22
1.04296e-21
1.97053e-21
5.78293e-22
5.56857e-22
3.28784e-23
1.28007e-21
1.10857e-21
3.27022e-21
5.84916e-21
8.39829e-21
4.43735e-22
1.90051e-21
4.695e-21
1.74725e-21
4.42816e-21
2.30784e-22
3.93864e-21
1.52577e-22
4.3734e-21
3.43047e-22
3.48127e-21
1.77067e-21
3.12143e-21
1.53766e-21
1.18526e-21
2.82784e-21
1.81017e-21
1.00136e-22
1.30176e-21
9.50507e-23
2.74616e-21
3.71877e-21
2.20861e-21
5.47947e-22
4.60262e-21
4.95429e-21
7.69488e-23
2.41679e-21
1.92694e-21
1.02222e-21
1.27914e-21
2.08345e-21
6.6333e-22
4.24602e-23
5.62971e-21
3.23028e-22
2.92723e-21
2.52129e-21
6.89431e-22
2.88307e-23
2.04885e-21
5.7585e-21
6.05036e-22
2.18054e-22
1.10595e-21
1.44022e-22
6.27948e-21
6.35786e-21
9.21977e-22
1.80796e-21
1.10623e-21
4.85915e-22
7.08963e-21
9.24804e-21
7.94612e-21
6.7217e-21
9.45937e-22
1.04746e-22
4.43099e-21
4.96131e-22
4.05559e-21
3.21274e-22
2.59093e-21
4.24186e-21
3.9204e-21
6.63037e-22
1.79163e-22
2.58519e-21
1.08517e-20
6.57993e-22
3.26817e-21
1.49373e-21
1.45944e-21
1.55849e-22
1.86605e-21
1.03557e-21
4.41943e-22
1.8226e-21
1.01698e-21
5.1675e-21
6.16309e-22
2.56868e-21
3.70398e-22
8.77102e-22
1.197e-21
2.19392e-23
2.89746e-21
6.42575e-21
1.03489e-21
1.35889e-21
2.79534e-21
5.18313e-22
1.43952e-22
5.39896e-22
1.77113e-21
1.59537e-21
2.83553e-21
6.49202e-22
2.63494e-21
2.78134e-21
1.69665e-21
5.96792e-22
7.47829e-21
1.83934e-21
1.61622e-22
2.96921e-22
2.91681e-21
1.72045e-21
2.06161e-21
4.08275e-22
3.32153e-22
4.94319e-22
3.05457e-21
4.81948e-22
2.88175e-21
1.7131e-21
2.7958e-21
1.48287e-21
1.05426e-21
3.09223e-21
2.55636e-21
3.40477e-21
1.45182e-21
1.13848e-21
9.38821e-23
3.6807e-22
2.28453e-22
1.81268e-21
1.24565e-21
1.34345e-21
4.17107e-21
8.86251e-22
3.16515e-21
1.7927e-21
2.2826e-22
4.14408e-21
1.08165e-21
3.91256e-21
4.5807e-22
9.08885e-22
1.13897e-21
1.00093e-21
4.59336e-21
1.994e-21
3.3368e-22
1.6717e-21
2.43302e-21
2.36872e-21
6.10145e-21
4.38361e-21
5.83666e-22
3.80445e-22
6.30732e-22
1.075e-21
1.71457e-21
1.28677e-21
1.26237e-21
6.92567e-22
1.12171e-21
2.28332e-21
6.53106e-22
9.06455e-22
1.39296e-21
9.41423e-21
2.93839e-21
1.93882e-21
6.83647e-21
1.63794e-21
1.54319e-21
2.24869e-21
7.49885e-22
8.17553e-22
5.22918e-21
5.75461e-21
8.19026e-23
3.60825e-22
2.60794e-21
2.54929e-21
2.69615e-21
1.07335e-21
4.90789e-21
4.66247e-21
6.20788e-21
1.31356e-21
1.45377e-21
4.05208e-21
3.76227e-21
8.98222e-22
1.03e-20
8.58747e-22
3.87413e-22
4.3194e-21
2.79469e-21
4.83946e-21
8.39402e-24
4.12605e-21
5.54506e-23
2.01191e-21
1.11142e-21
7.57669e-21
5.04133e-22
2.38694e-23
2.13224e-21
5.26764e-22
5.77927e-21
9.11027e-22
1.41642e-21
1.61906e-21
1.81053e-21
2.73416e-21
5.23629e-22
3.69137e-21
1.41621e-21
7.83557e-22
2.43594e-22
4.5256e-21
5.77434e-22
5.14809e-21
4.05804e-21
4.93958e-21
3.17961e-21
1.82297e-21
4.70817e-21
3.80698e-21
7.06433e-21
1.05312e-21
1.45656e-21
4.61651e-21
2.04307e-21
6.188e-21
5.29244e-23
5.43541e-22
6.49038e-22
3.38328e-22
9.8814e-22
8.80418e-22
5.03393e-22
9.10868e-23
2.65339e-21
1.342e-20
3.23101e-21
4.39061e-22
5.75873e-21
3.79568e-21
2.81417e-21
3.5959e-22
4.38956e-22
2.78812e-21
3.28255e-21
2.41984e-21
1.57335e-21
1.06322e-21
9.84172e-22
2.70514e-21
3.45299e-21
1.65367e-22
2.05871e-21
6.68227e-22
1.98418e-21
4.83813e-21
1.19712e-21
1.24315e-21
2.41715e-21
1.33364e-21
4.50595e-23
7.13718e-22
1.41121e-21
5.09559e-21
6.86924e-22
6.15167e-21
1.87155e-21
8.34246e-22
6.75867e-22
6.75689e-21
3.7005e-23
1.73126e-21
7.70794e-22
1.59307e-21
1.01814e-21
1.58242e-22
5.30561e-21
2.83847e-21
4.47045e-21
3.80011e-21
5.07461e-21
4.36635e-22
4.84741e-22
1.35804e-21
5.03609e-21
3.96368e-21
9.5483e-21
7.80219e-22
5.27628e-22
2.58959e-21
6.14942e-23
2.84608e-21
1.59031e-21
5.5734e-22
2.28437e-21
4.49147e-21
2.00603e-21
2.6863e-22
1.92234e-21
4.07958e-21
6.56013e-23
6.9523e-22
3.00081e-22
1.3022e-22
2.62498e-22
3.18401e-21
1.3425e-21
2.62537e-21
3.52691e-22
1.25288e-21
1.80832e-22
1.11926e-21
1.30016e-21
7.12144e-21
3.65528e-21
5.90307e-22
1.62054e-22
1.15439e-21
1.07376e-21
2.28429e-21
2.34457e-22
1.83219e-21
6.14406e-22
4.21023e-21
6.46066e-22
4.10157e-21
4.89814e-22
1.71808e-21
9.82609e-22
3.47458e-21
8.21114e-22
1.5079e-21
3.57156e-22
4.1737e-22
1.33356e-21
1.94205e-21
9.69015e-22
2.07363e-22
3.66952e-21
1.92394e-21
6.26977e-21
1.69053e-21
3.58469e-22
5.497e-21
6.00428e-22
5.62144e-22
2.71304e-21
6.48112e-22
2.98885e-21
1.12492e-21
4.43041e-21
3.21008e-21
2.48114e-21
6.5617e-21
7.01691e-21
7.12645e-22
1.62064e-21
3.30263e-22
4.65413e-22
2.68276e-22
5.48058e-21
5.9734e-21
4.87936e-21
6.88729e-22
3.18359e-21
4.98261e-21
5.46864e-21
5.20986e-23
2.41839e-21
2.42999e-21
2.56002e-21
1.14882e-21
3.55112e-21
2.30485e-22
6.11225e-21
1.39101e-21
1.19878e-21
9.01535e-22
1.50145e-21
1.30285e-22
2.99559e-21
5.95529e-22
9.33946e-22
3.24219e-21
6.82768e-22
4.63993e-21
9.12717e-22
1.47787e-22
6.33158e-22
2.36008e-21
1.00429e-21
1.80936e-22
6.00023e-22
6.29797e-22
5.44708e-22
1.69556e-21
7.44694e-22
2.66305e-22
5.03539e-21
4.9925e-21
2.90547e-22
5.14427e-22
2.62754e-21
5.2606e-22
6.81991e-21
7.68364e-22
4.58802e-22
4.3464e-21
5.71091e-21
9.26794e-21
1.29046e-21
1.82057e-22
3.90961e-21
2.00696e-22
1.63158e-22
2.05934e-22
5.14539e-21
2.43898e-21
1.90642e-21
4.30615e-22
4.95365e-21
8.98531e-22
6.78997e-21
4.89678e-22
7.33922e-22
7.74182e-23
1.4809e-21
2.69446e-21
1.55518e-22
1.19701e-21
2.01665e-21
3.41356e-21
2.36054e-21
5.99056e-22
4.21989e-21
4.57754e-22
6.77777e-22
1.09619e-21
2.9973e-22
4.79526e-22
1.0079e-21
2.07887e-22
5.82627e-21
5.51353e-21
1.65696e-21
8.43066e-22
3.38335e-22
8.59446e-24
3.02119e-21
1.99458e-21
6.6331e-22
1.97658e-21
1.56477e-21
3.37344e-21
3.77444e-21
4.16069e-21
3.22692e-22
5.00117e-22
7.00937e-21
2.85146e-21
4.96214e-21
1.98028e-22
7.5838e-22
7.07794e-21
3.9123e-21
1.72902e-22
1.51298e-21
5.96021e-22
1.18758e-21
1.4529e-21
5.29102e-22
2.3448e-22
1.3892e-21
2.10408e-21
2.07621e-21
1.4768e-22
3.37343e-21
2.28255e-21
1.61126e-22
1.21418e-21
7.1612e-22
2.60984e-21
1.38099e-21
6.24083e-22
1.51394e-21
8.07616e-22
5.97442e-21
9.65807e-21
7.29129e-22
1.67599e-21
1.69785e-21
3.62074e-22
1.49269e-21
5.11341e-22
2.40712e-21
3.44804e-21
3.04799e-22
2.91426e-21
1.66893e-21
2.60145e-21
1.6559e-21
1.07645e-21
2.52019e-21
3.40883e-23
2.84365e-21
9.31738e-21
2.36677e-22
3.0559e-21
6.70816e-22
1.53736e-21
1.60512e-21
1.69403e-21
3.83573e-21
5.86876e-22
1.92148e-21
2.78544e-21
8.50394e-22
6.95459e-22
1.0714e-21
3.34039e-21
2.22016e-21
2.39345e-21
3.7317e-23
1.17942e-21
5.60317e-21
3.51243e-22
1.0208e-21
1.07873e-21
6.65506e-22
1.13879e-21
2.14606e-21
1.35507e-22
3.91984e-22
2.59002e-21
8.92218e-22
4.94387e-22
1.20054e-21
6.07885e-21
4.2942e-21
1.47945e-23
7.62099e-23
3.73275e-21
1.71701e-21
4.51073e-22
6.30379e-23
2.89395e-23
9.7393e-22
3.71598e-21
1.05669e-21
3.22131e-21
5.42539e-21
2.50649e-21
1.55451e-21
7.38931e-21
1.14539e-21
5.0781e-22
7.08114e-22
1.61011e-21
2.28923e-22
3.77799e-21
1.73302e-21
4.5764e-21
9.79676e-22
2.63731e-21
2.55361e-21
3.69874e-22
7.71363e-22
1.20355e-21
2.65517e-22
6.31826e-21
5.83318e-23
6.09197e-21
2.17797e-21
5.86224e-22
6.87171e-22
7.25802e-21
7.84255e-22
7.12047e-21
1.83443e-21
1.35633e-21
7.99682e-21
3.6612e-21
5.49705e-22
3.53148e-21
2.42459e-21
8.6043e-23
1.05235e-21
2.75985e-21
1.03775e-21
1.45821e-22
1.94457e-21
1.71174e-21
4.12191e-21
2.13088e-21
1.4022e-21
8.46859e-21
1.83622e-21
1.86022e-21
8.14806e-22
1.72453e-21
1.41503e-21
4.72522e-21
8.53906e-22
2.53756e-21
1.04809e-21
5.03808e-22
9.72598e-21
1.96476e-21
5.21325e-22
7.45878e-22
4.92791e-22
6.34417e-22
5.3887e-21
2.08023e-21
5.0257e-21
9.63075e-22
6.26899e-21
3.712e-22
2.10274e-21
3.95304e-21
3.4943e-21
4.70274e-21
7.9052e-22
5.50373e-22
4.94945e-21
6.42273e-22
2.45228e-21
1.74449e-21
1.89601e-21
5.56848e-21
1.04488e-21
1.31393e-21
1.53098e-21
2.49432e-22
8.18216e-22
1.27535e-21
1.15343e-21
1.2443e-21
3.00216e-22
2.153e-21
2.40177e-21
3.28111e-22
3.44014e-21
5.3191e-23
1.97642e-21
3.6346e-21
5.40856e-22
7.18926e-21
3.46482e-22
2.71524e-21
2.06728e-21
1.88844e-21
6.75748e-22
1.77007e-22
2.0578e-21
5.13038e-21
2.52623e-21
5.92368e-22
5.76176e-22
4.64597e-22
1.59455e-21
1.94162e-21
9.75905e-22
5.2033e-21
2.11273e-21
5.7516e-23
1.03906e-21
1.51665e-22
7.53196e-21
1.57589e-23
4.37845e-22
7.90213e-23
2.3018e-21
2.06259e-21
1.53334e-21
3.77963e-23
1.22167e-21
6.50852e-21
5.88118e-21
1.50291e-21
8.19061e-22
4.49667e-21
2.14937e-21
2.49388e-22
3.61282e-22
6.71287e-22
4.07895e-21
8.53704e-22
7.23382e-23
1.22308e-21
2.17979e-21
3.45278e-21
4.14844e-21
5.64515e-22
2.33677e-21
3.52572e-22
4.79888e-22
8.75285e-21
5.93727e-22
1.55698e-21
7.37237e-22
9.94222e-21
3.77231e-21
1.834e-21
3.01303e-22
2.55617e-21
1.40715e-22
4.16415e-21
1.74027e-21
1.62401e-21
3.04588e-21
2.54354e-21
1.25202e-21
2.41073e-21
2.78888e-22
3.00709e-22
1.00956e-21
3.73445e-21
3.93437e-22
1.93127e-22
6.57595e-21
7.90335e-22
3.23529e-21
2.82686e-22
8.53955e-23
2.37805e-21
3.71897e-22
3.22094e-21
3.60748e-22
4.77717e-21
2.78155e-21
4.39526e-21