/*--------------------------------*- C++ -*----------------------------------*\
  =========                 |
  \\      /  F ield         | OpenFOAM: The Open Source CFD Toolbox
   \\    /   O peration     | Website:  https://openfoam.org
    \\  /    A nd           | Version:  7
     \\/     M anipulation  |
\*---------------------------------------------------------------------------*/
FoamFile
{
    version     2.0;
    format      ascii;
    class       volScalarField;
    location    "0.0036";
    object      dsmcSigmaTcRMax;
}
// * * * * * * * * * * * * * * * * * * * * * * * * * * * * * * * * * * * * * //

dimensions      [0 3 -1 0 0 0 0];

internalField   nonuniform List<scalar> 
500
(
1.02464e-15
1.00024e-15
9.94451e-16
9.76222e-16
1.0044e-15
9.882e-16
9.85742e-16
9.72292e-16
9.94414e-16
1.00839e-15
1.00029e-15
1.00543e-15
1.0446e-15
1.02571e-15
1.01168e-15
1.03259e-15
1.00588e-15
9.80661e-16
9.99625e-16
1.02e-15
9.99257e-16
1.00527e-15
1.01718e-15
1.01222e-15
1.00593e-15
9.99213e-16
1.01634e-15
1.02135e-15
1.04315e-15
9.72717e-16
9.96292e-16
1.00609e-15
9.89245e-16
9.86076e-16
1.01832e-15
9.92179e-16
9.92116e-16
1.05423e-15
9.98745e-16
1.0063e-15
9.9732e-16
9.90387e-16
1.01472e-15
9.68447e-16
9.98804e-16
1.01874e-15
1.0012e-15
9.98755e-16
1.00589e-15
9.83024e-16
9.90546e-16
9.97573e-16
1.0001e-15
1.02319e-15
1.02215e-15
1.00819e-15
1.00289e-15
1.03166e-15
1.02371e-15
9.97849e-16
9.83084e-16
9.88337e-16
9.98659e-16
9.73906e-16
9.74892e-16
9.79484e-16
1.00549e-15
9.83159e-16
9.85781e-16
1.03166e-15
1.00495e-15
9.88154e-16
9.9841e-16
1.00304e-15
1.01921e-15
9.78108e-16
9.98472e-16
9.89856e-16
9.94802e-16
9.80219e-16
9.69169e-16
1.01859e-15
9.92594e-16
1.00206e-15
1.01012e-15
1.03763e-15
1.03246e-15
9.85505e-16
1.0043e-15
9.81784e-16
9.84184e-16
1.00878e-15
1.00102e-15
9.80245e-16
9.95115e-16
9.88273e-16
9.75807e-16
9.82149e-16
9.88812e-16
1.00186e-15
9.95278e-16
9.85541e-16
9.77953e-16
9.87111e-16
9.83376e-16
9.93597e-16
9.98511e-16
9.775e-16
1.01301e-15
9.94389e-16
9.88716e-16
9.79617e-16
1.00786e-15
9.9452e-16
9.83665e-16
1.00142e-15
9.99082e-16
9.7025e-16
9.81233e-16
9.71937e-16
1.01709e-15
1.00033e-15
9.88621e-16
1.00395e-15
9.7568e-16
1.00056e-15
9.87379e-16
1.00447e-15
9.76211e-16
9.74561e-16
9.93273e-16
9.97945e-16
9.98424e-16
9.89586e-16
1.01704e-15
9.90309e-16
9.9692e-16
1.00244e-15
9.87199e-16
1.00033e-15
1.03089e-15
9.90877e-16
9.79834e-16
1.00168e-15
9.90569e-16
1.00566e-15
1.0433e-15
9.87285e-16
9.85121e-16
1.00495e-15
9.86126e-16
1.01372e-15
9.81876e-16
9.81348e-16
1.00194e-15
9.78397e-16
9.69092e-16
9.842e-16
9.99333e-16
9.8135e-16
9.87178e-16
9.84191e-16
9.85269e-16
9.79547e-16
9.77945e-16
1.05869e-15
9.75568e-16
9.8319e-16
9.92916e-16
1.00482e-15
9.61605e-16
9.8205e-16
1.00936e-15
9.79023e-16
9.93822e-16
9.96162e-16
9.87272e-16
9.78316e-16
9.88291e-16
9.92378e-16
9.83536e-16
9.98349e-16
9.891e-16
9.67198e-16
9.91577e-16
9.72224e-16
9.79834e-16
9.85288e-16
9.65868e-16
9.91205e-16
9.77771e-16
9.80727e-16
9.75349e-16
9.84265e-16
9.86982e-16
9.73419e-16
9.91165e-16
9.61306e-16
9.76491e-16
9.64955e-16
1.00832e-15
1.01698e-15
9.79366e-16
9.79974e-16
9.92065e-16
9.80883e-16
1.00329e-15
9.99258e-16
1.03357e-15
9.9365e-16
9.79894e-16
9.68644e-16
9.89319e-16
9.53821e-16
9.774e-16
9.7818e-16
9.6642e-16
1.00993e-15
9.81368e-16
1.033e-15
9.73432e-16
9.77989e-16
9.88637e-16
9.80969e-16
9.78205e-16
1.0261e-15
9.46413e-16
9.6315e-16
9.55949e-16
9.55719e-16
9.60782e-16
1.00167e-15
9.73995e-16
9.55246e-16
9.57784e-16
9.45746e-16
9.64023e-16
1.00171e-15
9.94895e-16
9.34301e-16
9.68232e-16
9.56687e-16
9.41821e-16
9.92652e-16
9.62611e-16
9.46586e-16
9.43118e-16
9.79502e-16
9.3571e-16
9.26991e-16
8.96328e-16
9.29739e-16
9.15053e-16
9.04352e-16
9.09423e-16
9.08948e-16
8.88732e-16
9.33487e-16
8.84374e-16
9.06832e-16
8.90452e-16
9.38476e-16
9.35011e-16
9.11084e-16
8.82817e-16
9.19279e-16
8.98147e-16
9.40203e-16
9.1373e-16
8.8522e-16
8.99439e-16
8.9642e-16
9.05921e-16
9.04105e-16
8.94337e-16
8.87065e-16
9.15734e-16
9.02009e-16
8.94719e-16
8.85074e-16
8.83352e-16
9.24465e-16
8.87875e-16
8.8059e-16
8.95643e-16
9.29297e-16
9.19038e-16
9.28263e-16
8.75577e-16
9.34476e-16
8.97216e-16
8.9528e-16
8.84196e-16
9.07706e-16
8.80066e-16
9.2672e-16
8.80447e-16
8.89255e-16
9.02437e-16
8.71059e-16
8.72336e-16
8.71511e-16
8.75326e-16
9.10228e-16
8.742e-16
8.8282e-16
8.9425e-16
9.04433e-16
8.87096e-16
8.97866e-16
9.05009e-16
9.05254e-16
9.01942e-16
8.92489e-16
8.77436e-16
9.18069e-16
9.07952e-16
8.93881e-16
8.77069e-16
9.18852e-16
8.79981e-16
8.81223e-16
8.86649e-16
8.8513e-16
8.91661e-16
8.95103e-16
8.82727e-16
8.69009e-16
8.5697e-16
9.43365e-16
8.62665e-16
8.6911e-16
8.90658e-16
8.67482e-16
9.20035e-16
8.52358e-16
8.95497e-16
8.76871e-16
8.60232e-16
8.77767e-16
8.40992e-16
8.47788e-16
8.52743e-16
8.67594e-16
8.50017e-16
8.68459e-16
8.51049e-16
8.27684e-16
8.29648e-16
8.32555e-16
8.30606e-16
8.29902e-16
8.19892e-16
8.28495e-16
8.16836e-16
8.11252e-16
8.22238e-16
8.23197e-16
8.33646e-16
8.03482e-16
8.37218e-16
8.04278e-16
8.39734e-16
8.37301e-16
7.96009e-16
8.18387e-16
8.09945e-16
8.29304e-16
8.48669e-16
8.12972e-16
8.40842e-16
8.35372e-16
8.33e-16
8.42012e-16
8.25483e-16
7.81403e-16
8.36385e-16
7.97543e-16
8.25829e-16
8.22099e-16
8.09945e-16
8.03646e-16
8.03762e-16
8.02009e-16
8.23e-16
8.149e-16
8.09537e-16
8.43561e-16
8.12502e-16
8.23512e-16
7.98529e-16
8.41583e-16
8.01143e-16
7.92395e-16
8.37999e-16
8.37139e-16
8.19969e-16
8.16577e-16
7.98155e-16
7.81671e-16
7.87042e-16
8.02802e-16
7.9466e-16
8.05479e-16
8.01138e-16
8.0435e-16
7.8541e-16
8.24409e-16
7.97177e-16
8.04513e-16
8.1257e-16
7.87614e-16
7.73832e-16
7.93725e-16
8.06792e-16
7.92112e-16
8.09849e-16
7.83508e-16
7.41399e-16
7.26039e-16
7.60153e-16
7.31325e-16
7.15342e-16
7.2327e-16
7.5343e-16
7.25973e-16
7.14019e-16
7.32923e-16
7.28625e-16
7.36609e-16
6.97887e-16
7.27632e-16
7.23692e-16
7.17027e-16
7.10518e-16
7.18388e-16
7.10493e-16
7.15358e-16
7.11832e-16
6.98589e-16
7.30092e-16
7.64187e-16
7.21248e-16
7.12359e-16
7.22028e-16
7.40304e-16
7.02132e-16
7.17412e-16
7.09708e-16
6.99177e-16
6.95066e-16
7.20105e-16
7.1348e-16
6.82478e-16
7.14263e-16
6.93852e-16
7.40962e-16
7.1268e-16
7.11906e-16
7.05938e-16
7.04199e-16
7.07776e-16
7.11096e-16
6.91713e-16
7.17092e-16
7.3759e-16
7.25989e-16
7.02459e-16
7.06156e-16
7.13017e-16
7.22205e-16
7.11526e-16
7.48643e-16
7.31268e-16
7.25596e-16
7.26874e-16
7.08255e-16
7.03446e-16
7.2646e-16
7.12342e-16
7.32756e-16
7.37415e-16
7.12893e-16
7.16515e-16
7.45289e-16
7.29249e-16
7.20683e-16
7.00845e-16
7.3615e-16
7.1389e-16
7.01495e-16
7.15826e-16
7.13029e-16
7.24143e-16
7.12808e-16
7.29059e-16
7.09691e-16
7.37003e-16
7.45152e-16
7.15034e-16
)
;

boundaryField
{
    sides
    {
        type            symmetry;
    }
    empty
    {
        type            empty;
    }
}


// ************************************************************************* //
