/*--------------------------------*- C++ -*----------------------------------*\
  =========                 |
  \\      /  F ield         | OpenFOAM: The Open Source CFD Toolbox
   \\    /   O peration     | Website:  https://openfoam.org
    \\  /    A nd           | Version:  7
     \\/     M anipulation  |
\*---------------------------------------------------------------------------*/
FoamFile
{
    version     2.0;
    format      ascii;
    class       volScalarField;
    location    "0.0036";
    object      linearKE;
}
// * * * * * * * * * * * * * * * * * * * * * * * * * * * * * * * * * * * * * //

dimensions      [1 -1 -2 0 0 0 0];

internalField   nonuniform List<scalar> 
500
(
1619.94
1570.63
1600.81
1954.13
1486.56
1593.92
1647.07
1689.42
1307.02
1799.09
1620.28
1520.22
1714.59
1680.01
1643.63
1720.67
1812.12
1522.54
1640.94
1721.44
2007.47
1581.2
1880.1
1612.09
1852.65
1627.71
2115.51
1660.7
1908.09
1508.28
1821.7
1645.88
1613.47
1720.98
1893.01
1555.34
1559.14
1715.74
1681.2
1633.71
1562.41
1561.36
1636.71
1792.29
1567.32
1705.3
1783.26
1560.31
1766.56
1711.25
1630.46
1752.79
1606.27
1727.55
1621.83
1438.17
1813.52
1687.26
1829.46
1820.36
1829.86
1645.51
1768.72
1660.14
1556.19
1677.34
1533.52
1898.41
1815.26
1805.41
1528.59
1745.68
1650.17
1517.79
1363.99
1789.22
1845.95
1941.84
1677.28
1773.1
1698.38
1580.35
1782.91
1514.93
1569.5
1459.64
1665.82
1687.8
1459.85
1461.2
1640.24
1638.02
1719.77
1475.32
1660.62
1783.34
1635.83
1529.75
1717.85
1620.85
1508.28
1391.97
1433.03
1569.7
1599.94
1632.29
1462.05
1286.46
1521.69
1457.08
1653.23
1424.61
1648.88
1450.56
1158.4
1388.73
1550.44
1684.38
1229.92
1372.27
1498.03
1441.15
1356.51
1294.93
1440.31
1329.86
1171.85
1281.57
1413.98
1224
1325.12
1188.38
1101.97
1053.46
1442.21
1161.22
1149.42
1327.02
1274.03
1239.8
1241.07
1149.41
1262.36
1328.23
1207.05
1209.26
1062.94
1173.67
1091.62
1223.04
1092.54
1014.99
1086.26
1056.63
1216.33
1292.19
1025.43
1166.45
1124.48
1118.41
1072.4
1286.55
1066.38
988.642
1079.24
970.133
1053.58
941.259
1125.64
1069.55
1111.85
821.995
1115.8
977.051
1130.79
1012.92
1071.1
1027.92
1077.51
1031.4
935.068
780.187
876.159
927.961
1036.28
922.652
1015.62
978.825
999.904
1092.57
840.424
930.942
956.906
881.333
856.748
871.017
973.641
794.585
1026.34
996.495
775.597
731.637
970.506
711.777
828.784
708.279
919.158
757.674
873.511
797.326
801.795
748.695
769.483
1026.76
727.831
844.232
981.438
914.152
808.521
856.164
959.301
859.69
930.242
753.424
799.784
662.026
1084.11
902.516
752.144
676.077
719.663
816.786
766.302
884.378
836.332
841.222
808.734
824.688
781.329
723.678
860.574
783.543
919.845
766.299
851.06
881.218
751.816
689.207
833.985
755.235
892.016
769.313
773.833
803.882
845.463
752.763
814.595
943.596
874.824
718.142
646.285
761.03
745.392
876.327
896.217
762.478
810.336
768.212
680.784
809.126
896.184
752.098
655.644
765.003
712.957
704.802
854.026
848.695
687.142
945.714
881.111
976.839
862.321
783.311
887.867
913.558
666.131
781.084
832.732
799.833
783.943
885.525
848.79
594.151
914.472
709.477
834.366
815.78
771.487
807.294
775.401
785.493
774.595
913.308
761.737
816.005
867.524
734.381
877.78
773.934
942.138
717.485
686.538
725.959
739.851
831.375
902.171
719.272
748.888
942.325
964.882
781.977
926.377
846.699
847.072
693.761
916.713
754.697
805.288
650.21
792.645
791.552
858.191
1079.24
824.741
926.065
899.755
804.638
800.4
948.093
744.032
731.459
783.856
759.126
858.258
794.845
792.726
866.944
828.148
817.959
836.964
812.745
718.351
901.122
975.729
773.56
875.258
790.157
719.815
994.27
846.261
823.167
822.692
838.877
808.062
997.042
1071.16
821.724
814.857
808.251
716.206
798.009
824.574
805.433
940.845
863.227
942.859
802.716
837.493
1058.54
836.107
1014.21
969.532
854.241
1047.89
898.628
894.863
852.792
852.768
882.497
830.315
942.568
883.447
863.023
731.551
845.596
1027.31
857.884
977.48
651.931
801.903
976.304
907.753
984.951
848.444
654.226
909.911
825.399
776.841
740.454
929.683
893.272
973.98
805.431
712.028
847.618
914.831
801.933
805.099
726.017
244.283
164.601
165.468
193.888
120.367
192.38
185.03
137.167
158.043
132.898
158.356
161.869
160.795
189.609
148.524
146.554
172.393
172.584
138.495
116.535
171.437
191.552
173.394
189.917
192.458
168.056
175.057
149.967
146.955
150.205
153.819
201.998
122.505
153.3
167.931
206.836
207.274
188.717
209.291
130.138
195.429
112.594
121.497
140.084
184.395
127.55
197.078
181.462
136.249
165.054
176.386
209.379
149.717
177.863
195.991
152.876
138.133
162.768
149.191
163.316
144.655
158.755
194.246
195.028
165.965
192.691
193.218
153.482
170.581
181.142
187.692
169.68
167.205
207.854
176.645
180.108
136.842
167.28
143.484
177.889
)
;

boundaryField
{
    sides
    {
        type            symmetry;
    }
    empty
    {
        type            empty;
    }
}


// ************************************************************************* //
