/*--------------------------------*- C++ -*----------------------------------*\
  =========                 |
  \\      /  F ield         | OpenFOAM: The Open Source CFD Toolbox
   \\    /   O peration     | Website:  https://openfoam.org
    \\  /    A nd           | Version:  7
     \\/     M anipulation  |
\*---------------------------------------------------------------------------*/
FoamFile
{
    version     2.0;
    format      ascii;
    class       volVectorField;
    location    "0.00216";
    object      momentum;
}
// * * * * * * * * * * * * * * * * * * * * * * * * * * * * * * * * * * * * * //

dimensions      [1 -2 -1 0 0 0 0];

internalField   nonuniform List<vector> 
125
(
(-0.0411569 0.0798079 -0.00837593)
(0.39802 -0.016197 0.0159687)
(0.23638 0.211827 -0.0163436)
(-0.0515562 0.148946 -0.120525)
(-0.0266931 -0.0200857 -0.173318)
(0.227058 0.0635455 0.0273209)
(0.0206286 -0.260121 0.234748)
(0.0657693 -0.297561 0.109959)
(-0.125105 -0.0356278 0.160502)
(0.0763235 0.132936 -0.114858)
(0.144261 0.0677889 -0.017554)
(0.0421557 -0.266879 -0.0800898)
(0.36276 0.205394 -0.0409592)
(0.0385714 0.0696194 -0.0814484)
(-0.0452373 0.166641 -0.05234)
(0.210129 -0.293629 0.0916103)
(0.0950497 0.070636 0.0413319)
(0.0938948 0.0481805 -0.0767482)
(0.0237223 0.0293037 -0.0714882)
(-0.294749 -0.121539 0.229842)
(0.305976 0.161898 -0.0395088)
(-0.185184 -0.0122665 0.146967)
(-0.0614419 -0.0356727 0.129963)
(-0.143903 -0.122465 -0.0175399)
(-0.328288 0.0821808 -0.210462)
(-0.029609 0.130628 -0.0106096)
(0.167043 -0.0892042 -0.117202)
(0.267776 0.199599 -0.0877088)
(0.238169 -0.120097 -0.0102872)
(0.0279189 -0.0934771 -0.0807644)
(-0.187351 0.0784297 -0.00910729)
(0.0383141 0.121433 -0.0395985)
(0.0571186 -0.00466816 0.0365922)
(-0.00341214 0.239622 -0.0605861)
(0.03009 0.0066299 0.0661372)
(0.0114128 0.203829 -0.0202295)
(-0.186638 0.112986 -0.306002)
(0.00818438 0.216414 0.0787487)
(0.00883419 0.111975 -0.104275)
(0.0437835 -0.172689 0.233373)
(-0.206021 0.264893 -0.136721)
(-0.0500942 0.4691 0.152698)
(-0.0193177 -0.0662139 0.046655)
(0.0328076 -0.0203582 -0.00808199)
(0.0211768 0.0727146 -0.0466913)
(0.00632916 -0.108755 -0.0828058)
(-0.518276 0.213458 -0.146048)
(-0.0441399 -0.011955 0.266121)
(-0.0951203 -0.14316 0.0576843)
(-0.22244 0.19055 -0.133169)
(0.107139 -0.132792 0.0871415)
(0.186725 0.173453 -0.200127)
(0.244403 -0.0673793 -0.242056)
(0.0566714 -0.0501522 -0.032016)
(-0.0859273 -0.0476406 -0.182331)
(0.156195 0.0127977 0.101979)
(0.0275408 -0.0204134 -0.228791)
(0.0785499 0.201182 0.110873)
(0.341538 -0.162095 0.135263)
(0.0580224 -0.154191 -0.0238319)
(-0.0444181 0.091699 -0.125573)
(0.105832 -0.193989 0.00346483)
(-0.108189 0.00187223 -0.0448073)
(0.18159 -0.0613377 -0.0092517)
(-0.154639 0.0106788 -0.119132)
(-0.211358 -0.0636423 0.132304)
(0.0553803 -0.357039 -0.109114)
(-0.0279208 -0.245506 0.02588)
(0.00819707 -0.0488358 0.0676612)
(-0.036398 0.127595 -0.0478827)
(-0.236447 -0.101832 0.173544)
(0.0420407 -0.0044068 0.229942)
(0.2035 -0.077423 0.133083)
(-0.105614 -0.0401103 -0.216994)
(-0.00052087 0.0310033 -0.0350025)
(-0.0125756 0.0920912 -0.066414)
(0.0499913 -0.180997 -0.296967)
(-0.0382764 -0.0427637 -0.0119181)
(0.124454 0.000382115 0.145215)
(-0.290744 -0.147182 -0.0846099)
(0.0252933 0.175033 0.131147)
(0.0124049 0.179393 -0.0683347)
(0.0086472 0.370804 0.0116727)
(-0.125773 -0.202727 0.110071)
(-0.0266417 0.073453 0.208004)
(-0.0500339 0.0593221 0.0801055)
(0.0666622 -0.287139 -0.0383938)
(0.11031 -0.122876 0.221216)
(-0.215209 -0.234111 0.0676235)
(-0.104347 0.00691763 0.124849)
(-0.0563426 0.155069 0.196228)
(0.157231 0.0435773 -0.0554622)
(-0.034742 0.00613087 -0.03125)
(-0.0371212 0.0243858 0.0388071)
(0.223445 0.218727 0.230373)
(-0.173201 0.157227 -0.0296856)
(-0.20351 0.0442003 0.0424296)
(0.062635 0.133861 0.162825)
(0.0859795 0.0925451 -0.0534479)
(0.035652 -0.176818 0.18991)
(-0.0279904 -0.189192 0.118551)
(-0.0772521 -0.00441993 -0.0362278)
(-0.181893 -0.0852868 -0.161315)
(0.193028 0.0655288 0.123669)
(0.0654902 -0.00288659 -0.187538)
(0.35819 0.00912047 -0.0491601)
(0.0253101 -0.0552516 -0.0101827)
(-0.190802 -0.189533 -0.109028)
(0.0390462 0.200896 -0.191757)
(0.0662772 0.00374449 0.122788)
(0.0649411 0.114441 -0.0555189)
(0.0367158 0.0985835 -0.205396)
(-0.171409 -0.00127671 -0.160597)
(-0.110192 0.085022 -0.285444)
(0.0843216 -0.18471 0.0712529)
(0.0434007 -0.218108 -0.0556599)
(0.214188 0.13814 0.18128)
(0.293149 0.118693 -0.0662717)
(0.118671 -0.241303 0.174854)
(0.106513 -0.0489883 -0.239956)
(-0.161573 0.00536633 0.00478156)
(0.0987408 -0.132409 -0.18288)
(0.156771 -0.0168673 0.127575)
(-0.0657581 0.0345269 0.0870984)
(-0.224314 -0.133867 0.0879759)
)
;

boundaryField
{
    sides
    {
        type            symmetry;
    }
    empty
    {
        type            empty;
    }
    procBoundary0to1
    {
        type            processor;
        value           uniform (0.160929 0.00304246 0.0014612);
    }
}


// ************************************************************************* //
