/*--------------------------------*- C++ -*----------------------------------*\
  =========                 |
  \\      /  F ield         | OpenFOAM: The Open Source CFD Toolbox
   \\    /   O peration     | Website:  https://openfoam.org
    \\  /    A nd           | Version:  7
     \\/     M anipulation  |
\*---------------------------------------------------------------------------*/
FoamFile
{
    version     2.0;
    format      ascii;
    class       scalarField;
    location    "0.01/lagrangian/dsmc";
    object      Ei;
}
// * * * * * * * * * * * * * * * * * * * * * * * * * * * * * * * * * * * * * //


5331
(
3.076398109e-21
9.482398614e-21
9.716132926e-22
1.255725364e-20
5.113738947e-22
2.868307607e-23
3.2351989e-22
4.518759242e-21
6.82997225e-22
1.554767941e-21
2.063220399e-21
3.557627198e-21
2.555815851e-21
6.39785097e-21
5.619909843e-22
3.390498809e-21
2.579670378e-22
1.827561361e-21
2.279190201e-21
1.793651589e-20
1.15240105e-20
2.953817584e-21
4.984035178e-21
3.387052812e-22
7.798543696e-21
3.498895928e-22
2.637605811e-21
7.227492187e-21
8.52451018e-21
2.046954788e-21
4.715245166e-21
1.871483943e-21
1.710056525e-21
3.389719653e-21
8.99217515e-21
5.560496907e-21
2.322925643e-21
6.493956458e-21
1.089703097e-21
1.96430432e-21
4.984438161e-21
5.794650695e-22
1.693576228e-20
3.723532896e-21
1.794419592e-20
2.169804119e-21
7.072683958e-22
2.644820625e-22
5.854031198e-22
3.002380927e-22
2.950367358e-21
1.759837537e-21
8.406830051e-21
5.334963596e-21
4.862984045e-22
2.621757641e-21
1.229555019e-21
4.606171049e-22
7.804765713e-21
2.015533877e-21
3.978182944e-21
3.234819093e-22
1.944169492e-21
2.050477199e-21
2.464927888e-21
2.575578348e-20
2.376079864e-20
2.430577009e-21
2.39570451e-21
1.888284787e-21
2.206121578e-21
2.282447008e-22
1.035983004e-21
6.904799858e-21
1.962488719e-21
5.799485137e-21
7.178136683e-21
1.785395336e-21
6.01843388e-22
4.538875773e-22
9.799297933e-21
7.169566307e-23
4.605941122e-22
2.711663567e-21
6.04761837e-22
4.254600926e-22
3.888879945e-21
1.477479201e-21
1.226641586e-20
1.843758893e-20
1.403826635e-20
1.643984507e-22
9.558014161e-21
5.182425287e-21
1.633987725e-21
1.060736195e-20
1.986396035e-21
6.549818807e-21
2.314033321e-21
7.580717318e-22
4.588630271e-21
4.455558912e-21
1.974891338e-21
1.184380733e-20
1.683739713e-21
4.100008263e-21
1.396808213e-21
1.141396713e-20
5.070938272e-21
7.68031906e-21
5.438423539e-21
2.120251962e-21
4.639099222e-21
1.704307917e-21
1.468387029e-21
1.016234728e-20
1.679490723e-21
2.470953388e-21
2.518216986e-21
2.938724744e-21
1.5408406e-21
1.006348694e-21
3.165462924e-21
6.776752486e-24
2.438385901e-21
4.929079772e-22
9.019634341e-21
6.313298579e-21
2.241200503e-21
4.516495287e-22
2.02656483e-23
4.041668787e-21
4.7649122e-22
2.255947134e-21
5.048870074e-21
7.440133893e-21
3.270767597e-21
1.121808013e-20
1.846509715e-21
5.48093499e-21
4.582988799e-22
8.983788431e-21
4.034501878e-21
9.156334142e-21
3.247890337e-21
5.534660898e-21
1.089630263e-20
1.072187677e-20
8.021122057e-22
1.726042325e-20
1.536119577e-21
5.224119211e-21
7.379610397e-21
4.25007893e-21
5.226818803e-21
1.459548493e-20
1.237241181e-20
4.236233128e-21
5.553869137e-21
8.941864437e-22
9.165807177e-21
4.51385261e-21
1.065656241e-22
2.805581712e-21
2.059864404e-21
8.081618803e-21
2.327326037e-22
2.715585774e-21
1.130604361e-21
1.552819909e-21
2.333273571e-21
4.895297759e-21
1.018637468e-20
5.968880594e-22
1.303790137e-22
1.94664712e-20
3.264808476e-21
7.635181112e-21
1.756111856e-20
6.197023793e-21
2.480404212e-21
8.47506172e-21
6.023187854e-21
1.122420776e-21
1.100620403e-21
1.884222061e-21
1.285798834e-21
3.084544407e-21
1.845982927e-20
9.243269423e-21
1.440186927e-20
1.061296393e-21
9.798450195e-23
3.180050697e-21
2.669430137e-21
5.119603935e-21
7.174690752e-21
1.130459612e-20
1.347083842e-20
5.8718347e-21
1.529382479e-20
2.952772563e-20
2.861484059e-21
4.320794621e-21
9.6681305e-23
2.805007784e-21
3.815193768e-21
1.459928609e-20
8.735132031e-22
3.767787296e-21
9.24270893e-21
9.067621161e-21
2.142076112e-20
6.582811978e-22
8.630556384e-21
9.258670389e-22
1.208189742e-21
2.604963767e-21
3.866511596e-22
5.577321749e-21
3.534292533e-21
1.538600228e-21
6.643056893e-21
5.92414365e-22
1.945791659e-21
1.838139386e-22
1.102989991e-20
3.409045935e-21
9.856325698e-22
1.256641667e-20
1.506573909e-20
7.201015153e-21
6.601421804e-22
7.673020822e-22
8.64491825e-22
2.810404127e-20
2.015692511e-21
1.416247476e-20
4.78639238e-22
1.815780119e-21
1.014168065e-21
5.780698348e-21
1.414291427e-21
1.409984669e-21
1.417414681e-22
5.323339893e-21
8.434212931e-22
1.373310565e-21
5.069997729e-22
1.34166658e-20
4.026982999e-22
1.462564343e-20
3.928133938e-21
4.76960507e-22
7.106791329e-21
4.887350402e-21
5.621153241e-21
4.965034278e-21
5.383540187e-21
4.098427293e-21
4.597228197e-21
2.765043262e-21
1.3985404e-21
7.451815503e-22
2.062192297e-21
4.193657473e-21
1.44145457e-21
9.858274082e-21
4.799547691e-21
7.555064149e-21
2.608944422e-22
1.208430535e-20
1.658916492e-21
5.431736608e-21
1.303990049e-20
1.036238305e-20
2.835098532e-21
4.697084006e-21
8.244396422e-21
2.994707873e-22
2.761706249e-21
3.881161772e-21
1.728512514e-20
3.798293265e-21
5.18621057e-21
3.704395955e-21
1.122451135e-21
8.082169637e-23
7.310296729e-21
1.249808407e-21
4.654088978e-21
1.227248021e-21
3.391927457e-21
2.465912412e-21
3.216437504e-21
6.233285868e-21
6.327524726e-22
2.245751338e-21
2.186049877e-20
2.969513369e-21
1.098373701e-21
1.91011968e-21
6.64123475e-22
8.089147322e-22
9.11743484e-21
5.607846088e-21
6.773069361e-21
4.301136511e-21
2.570497178e-20
9.089631681e-22
3.182709102e-21
3.217646979e-21
6.361667484e-21
4.064986616e-21
2.161153253e-21
2.969726031e-21
4.29429164e-21
9.517758608e-22
5.120984898e-21
2.783316387e-22
3.061551162e-21
1.110123308e-21
1.345493262e-21
2.076974164e-21
1.992979208e-21
7.123479654e-22
4.26733007e-21
2.089115029e-21
2.999625411e-21
1.518726955e-21
1.23139262e-20
6.605319572e-21
1.415221673e-20
8.862383132e-21
2.647698834e-21
5.592280023e-22
1.126897866e-21
9.341943691e-21
1.171924411e-22
5.989243298e-21
3.301166207e-21
8.159931272e-21
4.128800147e-21
1.288417867e-21
1.554205752e-22
2.134297595e-21
7.75031422e-21
6.765561827e-21
7.807212633e-21
2.229559671e-20
1.376056193e-20
2.081640179e-21
8.482964846e-21
1.122105143e-22
2.528122293e-21
5.664570054e-21
1.378632473e-21
2.053236896e-21
4.413890266e-21
7.625609141e-21
7.224139241e-21
3.442211399e-21
6.542340254e-23
2.078244672e-21
3.409135723e-21
4.374758633e-21
6.261699639e-21
6.223741199e-21
9.83758922e-23
5.334219567e-21
1.042268509e-21
1.499531918e-21
1.251757364e-20
4.367556317e-21
9.772635057e-22
6.010621714e-23
2.507387589e-22
4.768657549e-22
3.659860552e-21
2.294529053e-21
6.717981496e-22
8.668753543e-23
6.003953817e-21
3.30478524e-21
3.092200243e-20
2.027568922e-21
7.110062946e-21
1.081193343e-21
1.959659987e-22
2.661153676e-21
1.049764058e-21
9.412509427e-22
9.120278321e-22
5.310709998e-21
3.924757914e-21
2.093658739e-21
9.012773555e-23
1.419197242e-20
6.760381061e-22
2.857062603e-21
4.221141439e-21
9.020936833e-21
1.854650725e-21
4.363587074e-21
2.46996989e-21
1.441582093e-20
4.228375575e-21
3.437837377e-21
1.267025425e-22
4.780884141e-21
4.341621525e-21
2.444414012e-22
2.319567089e-21
9.651067489e-21
9.039373249e-21
3.617743263e-21
7.112738938e-21
1.279110143e-20
9.486919838e-21
3.269708362e-21
6.985386059e-21
2.820761789e-20
2.791619705e-21
7.237745177e-21
9.115844629e-21
2.614088094e-21
5.985373211e-21
1.005886071e-20
6.990602849e-22
1.718352296e-21
2.278501998e-20
4.874428805e-21
1.760400223e-20
2.571250495e-20
1.497638059e-21
8.166004456e-21
3.592092824e-21
7.117316723e-22
5.381610475e-21
1.81934756e-21
5.663251606e-21
1.056114929e-20
6.485949133e-21
1.270867591e-21
3.71710812e-21
1.423370127e-21
6.073947498e-22
2.498027663e-22
9.196249784e-21
8.680580361e-21
4.70606455e-21
1.867251437e-20
8.41413283e-23
4.569836412e-21
1.82881646e-21
2.127562215e-21
1.715123712e-20
2.838856825e-21
9.486538321e-23
6.375471579e-21
4.486960657e-22
6.275250713e-22
3.163946483e-21
3.754804028e-21
7.129597647e-21
7.051967806e-22
1.89283366e-22
2.139122766e-21
6.343494322e-21
4.981751536e-21
1.200997505e-21
1.503629891e-20
2.340576048e-21
1.396346078e-21
9.978989e-22
2.416233922e-22
3.790731213e-21
5.860156389e-21
9.654098762e-21
6.749823303e-22
2.009766126e-21
1.800294417e-21
1.35757802e-20
2.355184626e-21
3.279920741e-21
1.991785417e-21
1.996334313e-20
7.242407211e-21
1.610123049e-21
2.226751918e-21
4.871285146e-22
1.844113825e-21
2.224413603e-21
2.874884403e-22
2.468166696e-22
2.334147201e-21
3.908505391e-21
8.437063013e-21
2.255151868e-21
7.023827549e-21
6.587474287e-21
4.49002004e-21
4.900293077e-21
1.396175669e-20
9.457940942e-21
2.178705917e-21
8.03129555e-22
7.970347952e-21
7.00014608e-21
6.755903228e-21
1.668721501e-21
1.564476197e-20
1.181387874e-21
6.058229608e-21
5.764586773e-21
4.185422212e-22
3.666811179e-21
4.909682755e-21
3.744882131e-21
1.073224545e-20
2.870174931e-21
1.087727296e-21
3.72948597e-22
5.725270037e-21
5.775790674e-22
2.26418229e-21
4.499601123e-20
1.225909454e-20
7.181618177e-21
1.279973988e-21
2.924800686e-21
2.788961019e-21
7.534076934e-22
4.225252834e-21
4.988224432e-21
1.207924805e-20
2.121214512e-22
4.429410167e-21
1.088326347e-20
1.134486895e-20
3.058626593e-21
3.803767552e-21
1.76936506e-21
1.227120196e-20
1.673532116e-21
4.936944923e-21
5.6712715e-21
8.055526578e-21
5.435353521e-21
3.480740653e-21
5.280433593e-21
1.106236526e-21
3.106752047e-22
1.826000542e-20
4.779521248e-21
8.474168167e-21
4.730859967e-22
1.747832499e-21
2.351574917e-22
2.156190154e-21
1.056151398e-21
2.044501146e-21
7.121417643e-22
1.226121741e-20
4.808537486e-22
1.18872446e-21
2.052222155e-21
1.697617622e-20
1.138867045e-21
2.919811116e-21
7.474001423e-21
1.686465759e-21
1.307356427e-21
2.275374941e-21
7.394436197e-21
2.177318273e-21
1.846259606e-20
1.227795137e-20
2.548391601e-20
6.746236138e-21
1.002489128e-20
6.26628468e-21
1.057353104e-20
5.928380848e-21
2.161078214e-21
1.115375032e-20
3.340384167e-22
5.624161294e-21
7.522571082e-21
1.258224114e-21
1.619943775e-20
6.715854059e-21
1.940102874e-21
2.398295217e-21
7.663114837e-21
3.066754393e-21
4.424122916e-21
2.687183994e-21
3.011402154e-21
1.014729572e-20
5.725881607e-22
2.007209351e-20
1.865577686e-20
3.737197398e-22
1.283153727e-20
1.757180792e-20
2.861998904e-21
3.107566421e-21
7.507413173e-21
3.758063686e-21
4.635501179e-21
1.016548298e-20
9.115447443e-23
4.685914674e-21
2.164639847e-21
3.036303503e-21
5.164974656e-21
4.505401094e-21
9.677791138e-21
9.93355074e-21
1.810665611e-20
9.926225903e-22
1.024380629e-21
1.370435507e-20
4.776061119e-21
1.701453322e-20
9.883068741e-22
3.290040298e-21
4.647865891e-21
1.011737621e-20
8.483988263e-21
3.3733833e-21
1.273082876e-20
4.898276519e-21
1.940280655e-21
6.943898043e-21
1.028756052e-20
6.63202506e-22
2.4883911e-21
4.023146351e-22
4.796551937e-21
1.383960665e-20
2.638111202e-22
6.562573634e-22
2.592697329e-21
6.773355663e-21
7.839575445e-21
3.645688405e-21
2.618955308e-21
5.32353006e-21
2.33311834e-21
6.490248068e-21
1.322219618e-21
2.968612675e-21
9.079820771e-21
8.799654633e-22
3.917793381e-21
7.425162649e-21
6.241131989e-21
1.084931577e-20
3.122083108e-21
8.107837794e-21
9.067212109e-21
2.047905131e-20
1.07998215e-20
2.243361955e-21
1.455159337e-20
1.307670826e-20
2.888156857e-21
6.284522191e-21
3.028628164e-23
4.878670546e-21
3.865105822e-21
8.782379657e-22
7.168240858e-22
1.450123404e-20
1.39646925e-21
1.422313063e-20
8.293701881e-23
5.037004344e-22
1.404882509e-21
4.398224045e-21
5.713444073e-22
2.347455743e-21
6.11631432e-22
9.428405403e-21
4.808799338e-21
1.715159052e-20
2.079692483e-21
4.864672334e-21
2.105816733e-20
2.91363414e-21
1.609815814e-20
9.16746501e-23
2.452097199e-21
1.18084899e-22
2.199011999e-21
1.697765177e-21
2.631310499e-21
9.377764306e-21
2.964161058e-21
8.425744415e-22
1.646897733e-21
4.097779254e-21
9.365335134e-21
4.250082732e-21
3.58574398e-21
3.65941363e-21
4.837451856e-21
4.733663724e-21
4.059623641e-22
8.097477726e-22
8.452319162e-21
4.816008338e-22
1.781389649e-21
1.955271132e-21
1.018183316e-20
3.8086843e-22
2.621107309e-21
3.760038336e-21
6.939109562e-21
4.748641125e-21
4.447784788e-22
1.330170926e-21
5.243926571e-21
2.888441348e-21
4.389892205e-21
6.899297921e-22
3.643137659e-21
1.079320701e-20
6.322970836e-22
4.859496784e-21
5.660890998e-21
4.16284246e-21
1.606719943e-21
1.575983904e-21
3.551926916e-21
1.756757239e-23
3.98887995e-21
4.496839883e-22
1.793638348e-20
7.427517048e-21
4.303899854e-21
1.372161251e-20
4.442758224e-21
3.385843798e-21
4.015085171e-22
7.22756723e-23
2.923563828e-21
4.779311187e-22
2.178644032e-21
4.923669613e-21
3.179187135e-21
2.614174008e-21
5.138278193e-21
4.766292849e-21
1.124594395e-21
3.39315341e-21
1.993659246e-21
6.606399162e-21
1.244646691e-22
3.064849765e-23
5.999030739e-21
1.181232708e-20
1.215844912e-22
3.270318203e-21
6.499600819e-21
5.875075292e-21
1.658003258e-20
2.664230999e-21
1.614979051e-20
6.622490089e-21
5.716460609e-21
9.607386502e-22
1.356987612e-21
3.495003483e-20
3.062693187e-21
1.915833322e-21
2.001727539e-21
2.527516999e-22
5.166866118e-21
8.028625662e-21
2.07701243e-20
1.448313895e-21
8.693056856e-21
7.227315968e-22
8.255879997e-21
5.253164595e-21
5.510830531e-21
8.416034436e-21
1.413417793e-21
4.118872773e-21
3.214745623e-21
1.11215789e-21
4.089842675e-21
4.184955327e-22
3.160408635e-21
2.109364874e-21
2.799094946e-21
1.323695068e-21
8.403358944e-22
6.403158358e-21
3.553273047e-20
3.154413211e-21
1.919873688e-21
5.688899278e-21
1.159601657e-22
3.581525216e-21
3.106413185e-21
1.243345811e-20
4.638062643e-21
5.051269745e-23
3.851852229e-21
5.191702121e-22
5.062432939e-21
4.372423944e-22
5.547309123e-21
4.828971089e-21
3.325503183e-21
5.628048773e-21
8.062504126e-21
2.432132483e-21
2.549056844e-21
1.00520907e-22
3.000643992e-21
1.17046727e-20
2.67429894e-21
3.155390243e-21
3.739197998e-21
3.00038654e-21
5.963713192e-21
2.734889676e-21
1.282207587e-20
4.158782625e-22
5.227415703e-21
2.039884405e-22
3.678918482e-21
6.382928315e-21
5.506988653e-21
8.298311522e-23
4.06299813e-22
2.483475265e-21
1.088537242e-20
2.375308063e-21
1.497191472e-21
3.746749503e-21
1.646269307e-21
4.274744558e-21
8.889750791e-21
8.541662281e-21
2.216187278e-21
5.04710761e-21
1.623605199e-21
1.077550902e-21
7.742817044e-21
1.922704432e-21
1.103373332e-21
1.230983753e-20
5.457565235e-22
1.030819078e-20
2.56431838e-21
6.166869093e-21
9.543192253e-21
7.628926127e-21
7.458864465e-22
2.038275284e-22
4.608870119e-21
4.705501976e-21
2.040388303e-22
1.726215285e-20
5.078671517e-21
4.639423244e-21
2.567829778e-21
1.544504096e-21
2.924303713e-21
7.433096721e-22
2.707863634e-21
4.400883494e-22
2.545072982e-21
3.621491129e-21
1.283049811e-22
4.324636667e-21
1.122211332e-20
4.531928009e-21
3.151382518e-21
2.791456103e-21
1.088138872e-21
3.268979022e-21
3.079037426e-21
3.805138767e-21
6.486323325e-21
2.088218024e-21
7.117816276e-21
3.552319053e-22
2.712512001e-21
1.694850613e-22
4.332222052e-21
8.326472975e-21
1.799030564e-21
1.112349316e-21
4.560926943e-21
1.744039439e-20
1.495659106e-20
3.314504108e-21
1.91935987e-21
5.181559179e-21
3.513348026e-21
3.320473185e-21
2.343834837e-21
5.377125558e-22
7.078685204e-21
5.327780067e-21
3.292852341e-21
6.134965897e-21
9.137364369e-21
1.43376442e-21
4.389219424e-21
7.1295271e-21
1.524741376e-20
6.390170997e-21
3.918325207e-21
6.196406976e-21
6.283576614e-21
6.290274359e-21
1.161121094e-20
2.997805322e-21
5.961693496e-23
3.964649865e-21
1.097962779e-20
5.145209195e-21
7.307124863e-22
5.998895022e-21
1.065497686e-20
8.239583747e-21
8.438656536e-23
8.198627925e-22
6.64173562e-22
9.386937971e-21
7.596286152e-23
8.409486039e-21
1.833787535e-22
2.804881217e-21
7.973251367e-22
8.433231822e-22
1.433154124e-20
3.567519381e-21
1.297005374e-21
1.56990236e-20
1.556798452e-21
5.744427202e-21
2.914665147e-21
2.916291275e-22
1.060485676e-21
3.595554452e-22
3.379430912e-22
2.107703151e-22
1.20690675e-20
2.046049808e-21
8.656779333e-21
4.57706559e-22
1.177282988e-20
2.701877902e-21
9.224151817e-21
1.498324559e-22
1.2530418e-22
1.394234331e-21
7.853784178e-21
3.795063747e-21
1.185181883e-20
7.284405976e-22
5.122318471e-21
1.093452704e-21
3.49608014e-22
6.319681406e-21
2.135158427e-20
4.681052628e-21
6.545974723e-21
9.994615896e-22
1.369536901e-20
3.159286731e-21
2.629958657e-21
2.069646166e-21
1.151376071e-20
7.48156247e-21
5.177640155e-21
6.032758485e-21
1.337516914e-21
1.009334576e-20
1.756001719e-21
1.348809068e-21
1.106601775e-21
2.041038621e-21
1.917186536e-21
4.704255309e-21
1.782607649e-21
5.469777238e-21
7.96647145e-21
1.753140623e-21
5.422659716e-21
5.724114834e-22
5.432893817e-21
2.376716902e-21
9.929339578e-21
1.139765578e-20
2.305929728e-21
1.517008943e-21
2.477729677e-21
6.683205189e-22
2.496393139e-21
4.783262143e-21
6.757692529e-21
5.315021153e-21
1.151032942e-21
4.84789007e-22
5.540969597e-21
2.769241063e-21
4.261590639e-21
1.466740799e-21
7.083923402e-21
3.123962003e-21
4.716170377e-21
2.126517626e-21
1.425333819e-20
5.167528698e-21
3.50139408e-21
2.517256827e-21
1.510716396e-21
4.578637951e-21
1.01703088e-20
1.874023527e-21
2.379731255e-22
1.612273332e-22
8.565800633e-22
4.090025706e-22
2.614632683e-20
8.944413422e-21
9.720672185e-22
6.063962228e-21
2.229440304e-21
1.645937667e-21
1.621682407e-22
3.947574521e-22
4.53798983e-21
3.117878398e-21
2.107097382e-21
1.066118085e-20
1.25561887e-21
1.757553594e-21
1.237000319e-20
5.482865714e-23
6.101097314e-21
3.326312486e-20
1.986918227e-21
7.690750502e-21
8.185700134e-21
1.039375273e-21
5.245661725e-21
1.105826587e-20
5.964259781e-22
3.568208864e-23
3.430853889e-21
6.816006982e-21
5.040596417e-22
1.06623787e-20
1.322498274e-21
1.915373189e-21
2.952324748e-20
7.125045564e-22
6.228901947e-21
2.441093598e-21
5.784408401e-21
1.585333485e-22
4.590850475e-21
7.681870071e-21
1.994062815e-21
3.272369449e-21
1.25062577e-21
1.518989841e-21
1.015188501e-20
3.366106826e-21
4.986124741e-22
1.229379321e-21
9.141940252e-21
2.297508513e-21
8.529437451e-21
2.943346245e-22
2.686838846e-22
3.318703999e-21
4.30651544e-21
3.050600021e-21
5.741780257e-22
1.284476312e-21
7.630386322e-21
7.992149877e-21
4.689328382e-21
1.521665136e-21
5.918787678e-23
8.39506563e-22
2.812127526e-21
7.064143656e-21
3.469484813e-21
9.28954563e-22
3.105098035e-21
3.346042122e-21
1.06915492e-21
1.475847497e-20
5.883860696e-21
1.742225016e-20
7.359183205e-21
1.489978469e-21
1.867129773e-21
1.167883229e-21
5.591875045e-22
2.346354642e-22
5.96340959e-22
5.213726004e-21
2.554354414e-21
7.440149348e-22
1.111857538e-22
2.564286495e-21
2.568542727e-21
3.597249745e-21
4.358587916e-21
7.72835695e-22
3.123118945e-21
2.331552437e-21
4.780167818e-22
8.659417192e-21
1.465380729e-21
1.586123464e-21
5.039541912e-22
6.06710419e-21
1.16530184e-21
5.02269662e-21
8.047378068e-21
1.411005024e-21
6.306462406e-21
7.591280397e-21
9.777279139e-22
3.676237269e-22
1.226124328e-20
1.268009702e-20
9.594849286e-22
4.571325171e-21
4.320211921e-22
9.130803414e-23
3.17772377e-21
1.481704068e-20
5.52253773e-21
2.589750357e-21
7.795943105e-22
4.869066377e-21
3.587876607e-21
2.036198334e-21
4.35929169e-22
3.480054025e-21
1.112759579e-20
3.504580439e-22
5.284617224e-21
3.13169528e-21
7.285782552e-22
1.03258865e-20
1.687482543e-22
3.344835244e-21
8.843748643e-21
8.707203373e-22
1.662203802e-21
3.235256071e-21
1.235261467e-20
2.298327294e-21
3.909591136e-21
2.771169265e-20
9.016440812e-21
5.701043465e-21
1.42755364e-21
1.202089012e-20
3.511482098e-21
5.192625843e-21
1.35292581e-20
3.295255992e-21
5.908663519e-21
1.689111152e-21
6.773529051e-21
1.082474536e-20
5.795599631e-21
2.213239887e-21
5.91683227e-21
1.69373267e-21
5.621467642e-21
3.222541504e-21
6.046304935e-21
2.905636962e-21
1.357907796e-21
2.034657041e-21
2.183007402e-21
3.411189508e-21
2.572169381e-21
2.651911461e-20
1.888669403e-21
1.06997927e-20
1.910703589e-21
1.307021993e-21
2.258527716e-21
1.060148551e-20
6.413916062e-22
7.973888303e-21
3.392354063e-21
6.658678796e-22
1.009049813e-20
7.647042366e-22
3.08113481e-22
9.012505159e-21
2.924639695e-21
8.680374006e-21
3.335691441e-21
6.437990672e-22
9.386181532e-22
1.798432981e-20
1.445162686e-22
7.439329895e-21
4.55236092e-21
9.052927373e-21
3.370298489e-21
3.01327541e-21
3.283109517e-22
1.559662726e-20
1.83206241e-21
8.040692495e-23
4.648060853e-21
1.485399348e-20
9.835599902e-21
8.340790903e-22
8.859144844e-21
3.467512906e-21
6.646733189e-21
2.018206769e-22
2.232671188e-21
2.227763534e-21
9.979225093e-22
1.021376604e-21
2.345630921e-20
4.580205353e-21
1.007595792e-21
7.057427104e-21
3.81400101e-21
1.636325221e-20
9.643588187e-23
8.82807367e-21
9.868168789e-22
1.526595428e-20
3.841769158e-21
4.392839708e-22
3.769982328e-21
1.142858348e-21
4.794693899e-21
1.510495751e-21
8.203211632e-21
1.253030007e-22
1.372358506e-21
5.644180978e-21
6.141043815e-21
6.547207347e-21
1.549262885e-21
3.666022136e-22
1.250479263e-21
2.381198823e-21
1.028019524e-21
1.211320299e-21
9.980129238e-21
1.432154854e-20
2.337502757e-22
7.907758033e-21
6.762659762e-21
1.291518943e-21
2.059010482e-21
5.279165073e-21
1.173390294e-20
5.130949621e-21
1.666524436e-21
6.267214693e-21
3.783043412e-21
9.865666807e-21
4.396746137e-21
3.497596732e-22
2.221595662e-21
5.836731434e-21
7.844619789e-21
2.833682564e-20
4.225256767e-21
3.06080328e-22
4.905227525e-21
1.236318832e-21
6.875627603e-21
1.437718894e-21
1.52006674e-21
1.774675084e-21
3.265022935e-21
3.803014495e-21
3.604118354e-21
1.356257217e-21
4.467419108e-21
7.907530034e-21
1.7432425e-20
1.740204069e-21
1.223278984e-20
4.137861837e-21
1.022040092e-21
1.971334402e-20
3.824930275e-21
5.952031098e-21
7.285784055e-22
1.493999498e-21
5.609474087e-21
1.347337681e-21
2.383197772e-20
1.253717852e-20
7.672782908e-22
3.835459949e-21
2.204777881e-21
2.36383342e-21
6.17282453e-21
5.516167339e-21
5.348773082e-21
1.777171153e-21
3.165907814e-21
3.69982111e-21
2.774844506e-21
1.690619516e-21
5.203906776e-22
3.768150934e-21
5.075230362e-22
8.53188927e-21
1.380544303e-21
1.658974904e-20
2.204664603e-21
3.848076346e-21
6.110249614e-22
2.952245694e-21
1.494769589e-21
2.603709422e-22
6.957805487e-21
1.288324982e-20
1.709026725e-20
1.056502678e-20
8.164308203e-22
1.77893912e-20
4.710184925e-22
6.576137345e-22
4.922966111e-21
1.049141556e-20
6.145030153e-21
2.409274696e-20
3.738358507e-21
9.116553258e-21
5.751123972e-22
1.581403765e-21
1.169562098e-20
3.189288791e-21
4.819103824e-21
5.169522336e-21
1.615563902e-20
1.145221863e-20
3.995407364e-21
2.540734997e-21
7.188551567e-21
3.649106795e-21
4.932112457e-21
1.490231266e-20
2.092680769e-20
1.064411396e-21
3.430356534e-21
3.403721503e-21
1.106002566e-20
2.965172332e-21
2.549635209e-21
2.984263623e-21
1.23000127e-20
8.13511735e-21
1.613443009e-21
4.72042672e-22
5.832039446e-22
2.496155488e-22
9.182635707e-21
1.0315138e-20
2.236379256e-21
1.252576975e-20
7.467387602e-21
4.782973504e-22
2.775429905e-21
2.370454687e-21
7.305091029e-21
1.581892735e-20
2.415318585e-21
3.310471247e-21
1.359257235e-22
5.463457969e-21
4.738867413e-21
2.967693974e-21
1.155166737e-23
2.240904352e-22
8.398545229e-21
6.291921063e-21
4.496329954e-21
8.8119169e-21
1.363229002e-21
5.366580589e-21
5.069937955e-21
4.664821907e-22
6.658119108e-22
4.228608528e-21
6.876035493e-21
1.599756079e-20
9.644055074e-21
6.760073215e-21
1.538426934e-21
7.038288127e-21
4.345265932e-21
1.153673838e-21
2.737160266e-21
1.360078245e-20
9.081395501e-23
5.206672463e-21
8.68085958e-21
2.220662644e-21
4.08042631e-21
4.587138004e-21
1.095305411e-21
3.182748932e-21
1.5341672e-21
4.215130622e-21
1.037405638e-22
2.482566157e-21
1.237434249e-21
5.768300284e-21
1.607692092e-20
4.723122419e-21
3.343493745e-21
1.781469415e-20
3.66333179e-21
4.898610363e-21
3.755139421e-23
2.974671537e-23
6.857870119e-21
2.187965776e-21
2.510129322e-21
5.165094181e-21
5.045597695e-21
3.932169943e-21
9.819850092e-21
4.891140662e-21
1.162001952e-21
1.898398002e-20
3.945641764e-21
3.536301546e-21
4.143534821e-21
2.464953892e-20
7.83611075e-22
1.038483185e-20
8.478981435e-22
1.238915177e-21
1.686938639e-21
6.021176129e-21
1.132498001e-20
1.714107168e-20
1.022279529e-20
1.242781395e-20
3.900188462e-22
2.086972711e-20
3.225410983e-21
3.680757684e-21
1.170859577e-21
7.787200864e-21
2.406554314e-21
1.350320964e-21
2.673947105e-21
2.044048321e-21
5.064835993e-22
2.621900682e-21
4.7134702e-21
1.063671981e-20
1.353320224e-20
1.770085191e-21
2.71515818e-20
9.530719406e-21
1.033291964e-21
6.518756624e-22
2.64243238e-21
1.568477098e-21
4.187639703e-22
6.820931319e-22
1.448509245e-21
3.29197857e-21
2.312738981e-21
5.605413908e-21
1.166625207e-20
8.467542755e-21
6.487356552e-21
7.958601746e-21
1.434180053e-21
3.934653866e-21
1.506563843e-21
4.258333171e-21
6.577500398e-21
2.738202865e-21
5.222833239e-21
2.87133816e-21
3.393002623e-21
3.669901924e-21
4.863793465e-21
1.45131837e-20
6.37114509e-21
3.57864585e-22
1.556141241e-21
6.480861785e-21
5.630219001e-21
1.341294727e-21
5.859954718e-22
5.744397334e-21
1.362861189e-20
3.694226904e-22
9.442285308e-22
1.120366426e-20
2.539212527e-21
3.000792119e-22
1.665292546e-20
1.491156042e-21
2.908767476e-21
1.960175316e-21
8.09322799e-23
1.271266356e-21
2.452180503e-22
3.349853334e-21
1.289886355e-20
4.900732643e-21
5.661428097e-22
6.826942114e-21
8.127764258e-21
7.256800818e-22
5.024498044e-21
5.023070193e-21
1.831374903e-21
8.57597593e-22
9.484500672e-23
7.573226324e-21
9.468999238e-21
1.255948696e-20
2.28450075e-21
1.486602411e-20
1.374135418e-21
5.183612099e-21
9.731919276e-21
4.13378135e-21
1.76343598e-21
3.566662965e-22
1.119766449e-21
8.067425006e-21
1.402141827e-21
1.865162421e-21
2.404552631e-21
2.75327369e-22
8.265109521e-21
1.006877488e-20
7.530398922e-21
2.662554032e-22
3.282439437e-21
1.308608339e-20
3.442502158e-21
4.744604688e-21
1.797541964e-21
2.534962745e-21
1.294316101e-20
3.385299821e-21
3.653423831e-21
5.769650984e-21
7.376555197e-21
8.51773859e-21
5.513590137e-21
1.11549986e-20
8.893175783e-21
4.79752717e-21
9.212618611e-21
4.214927025e-21
2.978521001e-21
1.185843704e-20
1.046354026e-20
1.579898081e-21
5.843376921e-21
4.366170449e-21
1.880577092e-21
1.541089884e-20
2.273400893e-21
7.182255303e-21
8.417678961e-22
3.389711807e-21
5.359182647e-21
9.783434597e-21
4.663057505e-21
4.837974232e-21
9.290309321e-21
5.677021434e-21
5.728124457e-21
1.104248431e-21
1.017546078e-20
1.641181458e-21
3.585332383e-20
1.102013535e-21
3.717701969e-21
2.639129257e-21
2.324379322e-21
6.337604446e-21
1.027620558e-21
1.097284126e-20
2.869764935e-21
6.20178526e-22
3.490728616e-21
7.814600188e-21
4.049796405e-21
5.350859468e-21
1.554725306e-21
2.523766251e-21
6.511227957e-21
1.044935994e-20
2.687776068e-21
9.153999823e-23
7.32273845e-21
9.893955654e-21
2.23706734e-20
2.18990116e-21
6.6947749e-21
4.288133628e-21
1.410090882e-22
3.578489769e-21
3.130546892e-21
1.338076271e-20
1.4122723e-20
3.379426594e-21
5.993677547e-21
2.00452604e-21
1.26425744e-22
1.282568805e-20
2.286552189e-21
7.989947142e-21
6.174752589e-21
1.036231037e-21
2.725335915e-21
1.542652764e-21
1.410160898e-20
7.690388524e-21
6.578526951e-21
3.207203421e-21
8.999404243e-21
5.678577543e-21
5.230251495e-21
7.152499163e-21
2.170577878e-21
2.742753068e-21
1.600448609e-20
5.553028314e-21
1.236321612e-20
5.58771987e-22
2.152120521e-21
3.465216676e-21
1.422900177e-20
1.142010519e-21
3.981640128e-21
2.816266785e-21
1.34322374e-20
3.847005967e-21
8.099588202e-22
3.830368332e-21
1.343813751e-20
3.295838442e-21
7.037540248e-21
1.594961584e-21
1.016396063e-20
5.297462483e-21
1.543154792e-21
3.773864206e-21
6.069487634e-21
1.059619857e-20
1.043594089e-20
2.289375527e-23
1.217500469e-21
1.432077685e-21
3.989668812e-21
3.92799631e-21
4.520718258e-22
3.271039085e-21
3.285909269e-21
6.24997379e-21
4.685510971e-21
3.915956018e-21
1.157086365e-21
2.226598489e-22
6.216931951e-21
4.130937828e-21
5.540524346e-21
8.875556917e-21
1.248757228e-22
8.063855841e-21
3.652811452e-21
3.767583633e-22
2.726057578e-21
5.459365794e-21
5.900187696e-21
5.586135579e-21
8.173351013e-21
4.91754931e-21
5.883815035e-21
2.663726019e-21
3.846979708e-21
4.33328553e-21
1.099287652e-21
1.160983595e-20
1.361995262e-21
3.025350799e-21
4.933866207e-21
1.154896441e-20
4.309017225e-21
1.138405446e-22
1.922983968e-20
1.388099127e-21
3.78406705e-21
6.615705699e-21
3.154777994e-21
8.77739101e-22
1.416359888e-21
2.509772139e-21
4.939100301e-21
7.910555279e-21
4.113940833e-21
3.079930211e-21
1.037656079e-21
3.712795331e-21
7.380652464e-21
9.87891051e-22
1.34162049e-21
9.221014374e-21
5.900120743e-21
5.224958426e-22
2.264078271e-21
6.469344673e-22
4.092896726e-23
7.051676639e-21
6.653396119e-23
1.23143963e-20
9.72194481e-21
6.312893602e-21
2.184652219e-22
6.048137371e-22
4.219574283e-22
8.264056358e-21
1.939202465e-21
2.04757351e-21
9.179757924e-22
7.260422469e-21
4.289911057e-21
1.415208361e-20
1.039460457e-20
6.620953509e-21
2.229918327e-21
2.178481664e-21
9.471925574e-21
1.09499237e-20
4.231679355e-23
1.201963066e-20
2.594202104e-21
4.873630946e-22
3.179011453e-21
3.522346137e-21
3.462775123e-21
3.484197741e-21
4.807185944e-21
8.043239122e-21
4.119573737e-21
1.36146137e-20
1.662614227e-21
3.928273873e-21
2.121349229e-21
4.048063792e-21
1.754594737e-21
4.991228461e-21
7.348956774e-22
3.511358014e-21
6.413359804e-21
5.544235123e-22
2.631767493e-21
2.450361434e-21
1.298497256e-21
7.802341874e-21
8.196869183e-22
1.095617151e-21
2.417286508e-22
4.470634696e-21
1.106002613e-20
8.668426869e-22
2.334682589e-20
3.461322979e-21
6.525930826e-22
2.230198435e-21
3.020908724e-21
1.069757055e-20
8.190396066e-21
2.192783103e-21
2.503583549e-21
5.953610815e-21
1.197049505e-22
1.377872455e-20
1.145936015e-21
7.58949009e-21
5.0734076e-21
1.27116128e-21
6.871917441e-22
2.181155488e-22
8.204722755e-21
1.384717245e-21
7.349499492e-22
2.204918858e-20
5.545743351e-21
7.52631962e-21
1.406805293e-21
2.022542386e-20
2.408021167e-21
1.755886795e-21
1.126146087e-20
9.792822162e-21
7.834505299e-21
5.549175136e-22
1.024664527e-21
1.906773973e-20
1.792769082e-21
4.519087692e-21
1.09558019e-21
6.725124884e-21
3.444712281e-21
1.734886247e-21
1.159719661e-21
9.003659864e-22
3.673764031e-21
2.339088805e-21
7.393220064e-21
4.703785874e-22
2.82849678e-21
9.728127404e-21
2.354380765e-21
7.742070013e-21
3.697667454e-21
2.18645333e-21
6.762135466e-22