/*--------------------------------*- C++ -*----------------------------------*\
  =========                 |
  \\      /  F ield         | OpenFOAM: The Open Source CFD Toolbox
   \\    /   O peration     | Website:  https://openfoam.org
    \\  /    A nd           | Version:  7
     \\/     M anipulation  |
\*---------------------------------------------------------------------------*/
FoamFile
{
    version     2.0;
    format      ascii;
    class       scalarField;
    location    "0.01/lagrangian/dsmc";
    object      Ei;
}
// * * * * * * * * * * * * * * * * * * * * * * * * * * * * * * * * * * * * * //


6921
(
7.103773496e-21
1.061393239e-20
1.909713621e-20
5.667765478e-21
2.578642001e-20
3.025959523e-21
6.0694265e-22
3.284904701e-21
9.009978168e-21
1.551019569e-20
1.365635334e-20
1.61516532e-21
3.38356581e-20
2.149402372e-20
2.922837922e-21
1.284539652e-20
1.775441159e-20
1.115828343e-20
6.427549622e-21
6.560196904e-21
2.836419915e-20
2.614846216e-20
2.640739308e-21
9.917920391e-21
1.349253437e-20
7.044261482e-21
8.205125595e-21
1.025787283e-22
8.319438782e-21
1.446763574e-20
3.083728289e-23
4.775095835e-21
1.666434556e-21
8.644618153e-21
6.501921197e-24
8.162494564e-21
2.975811107e-20
2.95383096e-21
4.664901827e-21
2.245077086e-20
2.55612379e-21
5.687613338e-21
1.792163961e-20
1.09140159e-20
8.57109482e-21
9.695566946e-22
9.807115421e-22
3.457762238e-21
8.838440784e-21
4.528169516e-21
5.628997657e-21
9.345906736e-21
2.723390836e-21
1.157809608e-20
1.455685059e-20
3.679374133e-20
1.494882519e-20
1.862802458e-21
1.007485934e-21
9.865323936e-21
4.615349625e-21
1.28894098e-20
3.101035172e-21
6.194649882e-21
1.019044732e-20
1.125440363e-20
1.494867846e-20
2.595390732e-21
1.873456857e-20
4.779432547e-21
1.373608197e-20
1.83939132e-21
6.903441943e-21
6.923122616e-21
1.145806985e-20
4.164132241e-21
2.984492869e-21
1.099655231e-21
2.235757157e-21
2.731294592e-20
1.286875382e-21
9.784136262e-21
3.802594847e-22
7.048022364e-21
4.428532752e-21
8.551170583e-21
4.424608276e-22
6.930410044e-22
2.54642924e-21
6.568911314e-21
9.458602921e-21
5.171434692e-22
7.236478912e-21
8.565539064e-22
5.7645562e-21
2.162704383e-20
5.130310226e-22
2.817028493e-20
2.993744385e-21
7.923633928e-21
8.974021268e-22
1.406339218e-20
1.321018062e-20
7.525144347e-21
3.967210454e-20
6.089100944e-21
5.921157033e-20
4.482704549e-21
3.018807716e-21
9.368453221e-21
4.536526474e-22
3.773486611e-21
2.382212127e-20
2.308961376e-20
2.134771379e-21
9.893207703e-21
6.965480923e-21
2.064353246e-20
3.092978524e-21
8.137442782e-22
1.284697312e-21
3.862756069e-21
8.689739296e-21
3.397613649e-21
4.511435001e-21
2.745604751e-20
1.467184206e-20
1.694094785e-20
2.915614768e-20
8.654482957e-20
2.753544194e-20
4.501091425e-21
9.263611958e-22
1.66148877e-21
7.634887771e-22
1.820502562e-20
1.799117272e-20
7.22612651e-21
7.577696578e-21
2.6760121e-21
3.203420179e-22
1.010875629e-20
7.960428405e-21
2.946704393e-20
3.821286472e-21
6.176721992e-21
6.803107727e-21
4.899676587e-21
1.343899219e-20
2.30805373e-21
1.423708312e-20
2.817616596e-21
4.28466563e-20
3.514486954e-21
1.205188067e-20
5.318045911e-21
6.725305913e-21
6.755827341e-21
8.736717729e-21
5.80689937e-21
6.73976112e-21
1.389753217e-20
6.307962159e-21
1.230282684e-20
1.157838115e-20
2.717525401e-20
1.275671214e-20
1.050103503e-22
4.191345873e-21
9.597147595e-21
1.841967855e-20
1.428292011e-20
2.154066135e-21
2.780727824e-21
1.225139637e-20
1.096089573e-20
4.168724398e-22
1.72799686e-20
3.054899213e-21
2.773697274e-21
5.452478376e-21
2.294637291e-20
2.909300871e-20
7.293160215e-21
1.145522434e-20
6.010602318e-21
8.646054773e-21
4.918695299e-20
2.409173179e-21
7.229338958e-21
2.603806152e-20
1.247741482e-20
5.755281191e-21
4.285876142e-20
5.398191893e-21
2.603442579e-20
3.027623411e-21
3.632335876e-21
1.156993247e-20
2.88555096e-20
2.14931467e-20
2.196959399e-20
1.954238245e-21
3.775818975e-20
6.914804968e-21
2.220015804e-22
3.364223295e-22
1.110962979e-20
7.035850769e-21
1.305434917e-20
9.951615733e-22
3.647293712e-21
3.03802138e-21
3.644787378e-20
3.281987651e-21
1.417350575e-21
2.109687352e-21
1.194968385e-22
1.27641401e-21
1.02025258e-20
9.067752689e-21
1.750446546e-21
4.868757677e-21
1.259801573e-22
1.598512973e-21
4.396985414e-21
4.901678046e-22
2.275175725e-21
9.34293216e-21
1.799355059e-20
2.937833668e-22
1.913899122e-21
2.408953818e-21
1.704427468e-20
1.621180221e-20
2.515816354e-20
2.693194904e-20
2.527927275e-21
1.023960376e-20
8.407994946e-21
1.208380965e-21
9.211051529e-22
4.923211088e-21
1.693958207e-21
2.320719767e-21
1.682805391e-23
6.122680291e-21
1.327780457e-20
6.364227326e-21
3.072519584e-20
2.457703175e-20
2.313728904e-20
2.268900779e-21
7.230768258e-21
1.955665617e-20
7.376381657e-21
1.951343934e-20
6.014231669e-21
2.76437611e-20
1.902164976e-20
2.217074329e-20
1.907360921e-21
2.041142191e-21
5.914382105e-21
1.577317022e-21
1.884302122e-20
6.001895972e-21
7.956531268e-22
5.119244446e-20
1.762894679e-21
3.979652971e-20
2.626407465e-21
2.500787999e-20
1.04772687e-21
4.587778569e-20
3.019175162e-20
1.991883859e-21
1.693795357e-20
1.741389938e-20
4.172382956e-21
1.092723778e-20
5.495245508e-22
2.191699653e-20
3.374317289e-21
5.236686479e-21
6.96576398e-21
3.30127771e-21
2.232129122e-21
4.925752167e-21
2.472229526e-21
6.416136261e-21
1.978030258e-20
4.962547077e-21
1.398528614e-21
5.492395694e-21
7.241759807e-22
5.051610484e-23
3.247607019e-21
2.255836337e-20
3.505900336e-21
1.12910979e-20
5.674790272e-21
2.019205872e-20
8.623142831e-22
2.024148771e-20
1.401312751e-20
2.666800338e-21
2.040135106e-21
7.979229869e-21
3.822597336e-21
9.331433269e-21
4.001728334e-21
2.909854607e-21
4.60121099e-20
1.019365158e-20
3.495964644e-21
1.229657145e-23
9.702509847e-22
1.11604028e-22
1.090309668e-20
2.514953328e-21
6.196780425e-21
6.576662854e-21
3.456335333e-21
1.320206045e-20
1.521709435e-20
4.493685297e-20
3.03731304e-21
1.738650751e-21
2.294708926e-21
6.640609471e-23
9.37204874e-21
1.782741267e-20
1.108539251e-20
5.399371981e-21
2.047274032e-20
2.791064785e-21
1.836115364e-20
1.018758791e-20
1.217872403e-20
9.937349585e-21
3.023554876e-21
5.94639752e-21
1.428833841e-20
1.919350537e-20
1.232986133e-21
7.636611505e-22
2.227022248e-21
8.08027373e-22
7.964665751e-22
1.160379024e-21
8.38083723e-21
5.917055042e-21
2.417442307e-21
5.926314695e-21
1.46385919e-20
2.311053473e-22
5.726253367e-22
1.792750295e-21
2.870585184e-20
1.717800416e-20
1.131667501e-22
8.20978323e-21
1.276224428e-20
2.630439195e-21
1.434637099e-21
1.171051311e-20
6.334484339e-22
3.527335386e-21
3.467317536e-22
5.458167212e-22
3.70213836e-21
1.506920942e-21
4.052464413e-21
9.142324768e-21
1.852453914e-21
2.150148152e-21
4.59698224e-20
1.43755687e-21
1.563788693e-22
1.983247646e-21
4.198796902e-21
3.498782651e-21
7.495979311e-21
3.843060263e-21
4.497709197e-20
2.967451512e-22
2.599256913e-20
1.77556344e-20
3.129152282e-21
3.954993833e-20
5.356249187e-21
5.252833466e-21
4.173856389e-21
2.482995562e-22
1.976063827e-21
1.202423155e-20
7.886558703e-21
2.574076231e-22
4.079547088e-21
1.53208598e-22
2.291808023e-20
1.28384974e-20
7.950563991e-22
7.613066766e-21
4.796702465e-20
2.780706453e-21
3.322163281e-22
8.924495361e-21
3.006203229e-21
1.321870008e-20
3.281433136e-21
1.634729769e-20
5.676430069e-20
3.896888475e-22
4.353638685e-21
9.338648423e-21
1.619669364e-21
4.228184336e-20
5.619780473e-22
2.127305019e-21
7.330870058e-21
2.635594085e-21
1.178273078e-20
4.811436868e-21
3.969695392e-21
1.077432664e-20
9.884679348e-21
3.966400199e-21
2.164516446e-21
7.222574602e-22
6.431329297e-21
6.159306637e-21
1.287611756e-20
1.479361454e-20
2.099171139e-20
5.590176791e-21
4.787017789e-21
2.307561548e-22
2.183398352e-21
4.023480021e-21
7.413010254e-21
6.5734687e-21
1.343087936e-21
3.765017761e-21
6.524841992e-23
2.218233548e-21
4.356528287e-21
2.435670016e-23
2.25222072e-21
5.446943494e-21
6.536459831e-22
3.25256451e-21
3.002392182e-21
5.187479755e-21
5.293742806e-22
2.231002678e-20
1.729218418e-21
1.476688299e-21
1.299340426e-22
1.736737524e-22
8.626068586e-21
2.142860554e-21
1.802334636e-21
2.173581475e-21
1.289945236e-21
2.499930676e-20
8.959117947e-21
2.523612609e-21
1.161846718e-21
3.94512074e-21
4.083884102e-20
3.59483884e-21
1.976800675e-21
1.732336977e-20
5.394553345e-21
9.210264962e-22
7.141021989e-23
1.22276193e-20
3.527102672e-20
1.656194457e-21
3.098124263e-20
2.391410283e-21
9.374002791e-21
4.016463036e-21
5.008261497e-21
9.200958191e-21
2.684367997e-20
2.519420632e-20
2.677432192e-21
4.117263321e-22
1.156754785e-21
1.874546386e-21
4.020696468e-21
2.605582629e-20
4.067427572e-22
2.326500723e-21
1.120801057e-20
6.925577068e-21
1.233773612e-21
3.170375051e-21
2.462456431e-21
5.474773029e-21
1.917888416e-20
2.942049963e-21
3.261205412e-21
6.776527038e-21
1.629358727e-21
7.695108118e-21
4.420313191e-21
5.326640391e-21
1.623003557e-20
5.401166875e-21
1.080989436e-20
2.503663257e-21
2.273444649e-20
3.09103892e-20
7.638515885e-21
7.462809553e-21
8.309186429e-21
2.163973302e-21
5.317395517e-22
1.900531983e-21
7.251151763e-22
1.19638255e-20
7.901594757e-22
3.64072266e-20
3.973260924e-22
1.309650177e-20
6.185937498e-21
4.470605733e-21
4.601628647e-22
4.024956061e-21
4.351276109e-22
2.652485585e-21
1.827351468e-20
7.559772818e-21
1.999471773e-20
4.395865259e-21
2.570408703e-21
1.606385706e-20
2.041644783e-21
1.038162103e-21
6.07992951e-21
2.518515075e-22
2.537167813e-20
3.8295487e-23
1.72232044e-20
2.327979974e-21
2.466049711e-21
2.589793285e-22
2.829541664e-21
1.200872097e-21
5.570200529e-21
5.870253701e-22
5.35098795e-22
6.689257711e-21
6.968596566e-21
2.42409146e-21
2.741471313e-21
5.988531332e-21
3.183957452e-23
1.990792394e-20
4.004884423e-21
7.593924446e-22
7.288604292e-21
3.999459591e-20
8.926367713e-21
1.43112324e-20
9.318907506e-23
1.276212326e-20
1.055865403e-20
3.588945269e-22
1.796064951e-21
3.864441651e-21
1.928293955e-21
1.222402149e-21
2.189555827e-21
2.235560856e-21
8.483781445e-21
9.201951639e-22
7.463682676e-21
3.721010138e-21
8.864545633e-21
8.350948819e-21
4.322359131e-21
1.104931182e-20
1.257859416e-21
4.750396023e-21
2.872935561e-21
1.415656254e-20
1.211299886e-22
2.484381926e-20
4.038212515e-21
3.234901147e-20
1.718007125e-20
1.397225457e-20
2.431324867e-21
1.146998856e-21
7.435457412e-21
6.861197675e-21
5.308485349e-21
6.426093773e-21
2.353731524e-21
9.91132774e-22
3.087106563e-21
8.701684915e-21
9.420958745e-22
1.404818444e-21
9.493077048e-22
7.08880789e-21
1.60288886e-20
5.59038426e-21
1.179998836e-21
4.044811991e-21
7.32988272e-21
1.910822963e-21
1.641878915e-21
8.164898382e-22
5.822071359e-22
2.805878214e-21
6.541027226e-21
5.901946246e-21
1.833176307e-23
3.435381977e-21
9.673820044e-22
1.204963011e-20
1.735589646e-20
5.760293762e-21
4.389176739e-22
1.15701804e-21
1.590311728e-21
8.652417978e-22
7.412181687e-21
1.216006605e-20
5.575321735e-21
2.756617691e-22
3.451821031e-21
4.75400091e-22
2.23055813e-21
3.50461938e-20
1.247086563e-20
3.044902517e-21
4.506451035e-22
1.163546899e-20
6.772792213e-22
2.129679492e-22
2.099910159e-21
2.643627886e-21
1.726484044e-20
1.619936447e-20
1.484682376e-20
1.755337454e-21
1.492414105e-21
1.283828472e-22
8.056905346e-22
7.189924923e-21
2.669846582e-21
1.021423267e-21
7.002057757e-21
3.318109357e-21
5.603681206e-22
2.138238886e-21
1.448850402e-21
8.795829708e-21
1.343182562e-20
5.163658751e-21
1.837045999e-21
1.227404095e-20
3.112656865e-21
3.37105098e-22
5.751514863e-21
8.37535359e-21
1.727076231e-21
8.02969473e-21
7.381402214e-21
7.442873602e-21
4.829019294e-22
6.101299491e-22
8.408050465e-21
2.265806536e-20
2.709104324e-21
5.231500389e-21
1.533607661e-20
3.242173102e-21
3.22650368e-21
3.720318213e-21
1.027281658e-20
1.510814338e-21
5.658150797e-22
2.696907751e-21
1.200791139e-21
9.39843051e-21
1.243518155e-20
4.262474934e-21
4.201001056e-21
5.650924032e-22
2.61209259e-21
1.435492824e-20
3.590888083e-21
1.531975519e-22
1.745034477e-21
6.838230147e-22
1.061904267e-20
1.756699986e-21
4.665120781e-21
4.630325923e-21
4.86401063e-22
4.677045288e-21
8.357022597e-21
6.170983566e-21
3.243547973e-22
1.767321993e-20
8.175801118e-22
1.795664684e-20
8.230042359e-21
1.631558883e-20
5.264768807e-21
1.781763967e-21
3.767966056e-21
8.893902557e-21
5.477291284e-21
3.526672031e-21
3.758159461e-21
3.3666461e-21
1.731374394e-21
2.420549474e-21
8.430672741e-21
4.222114621e-21
9.157535036e-21
4.938828825e-20
9.685577605e-21
8.361593165e-21
5.342639238e-22
8.012257547e-21
5.069862896e-22
8.738757685e-22
2.724261283e-21
1.361095247e-20
1.453258533e-21
3.126718172e-22
1.727579224e-20
2.617869244e-21
2.85585622e-21
1.997352166e-21
3.883632628e-21
7.217899382e-21
3.011824929e-21
4.456053765e-21
5.116022877e-21
1.651939236e-21
3.862529369e-22
1.61613615e-21
2.631610155e-21
2.272513688e-21
3.579879212e-21
1.36230279e-21
6.910336547e-21
6.009874599e-21
2.837579923e-21
9.179119626e-22
2.444496494e-21
4.019105124e-21
1.140248009e-21
2.003811268e-20
9.618928971e-21
3.365140039e-21
1.288116006e-20
3.509236032e-22
6.372411624e-21
1.35302765e-21
5.586789838e-22
6.214576201e-21
1.715425883e-20
1.147645175e-20
3.549750659e-21
2.314090215e-20
3.947112487e-20
2.400822648e-21
4.914919457e-21
3.329927635e-21
3.196705614e-20
4.301276574e-21
3.62437502e-21
5.839900223e-21
1.083498756e-20
5.101634332e-21
2.72187685e-21
2.027482099e-21
6.539030665e-21
1.220046736e-20
1.70195197e-20
1.153815239e-21
1.892922469e-20
1.51569502e-20
4.165050979e-21
6.145297737e-21
8.48812968e-23
3.408890809e-21
2.399300945e-21
1.653297298e-21
4.419784847e-23
2.491549608e-21
5.548599671e-21
4.996764591e-21
6.008516312e-22
1.729776125e-21
2.051204673e-21
4.200885302e-22
6.346913883e-21
2.70977505e-21
3.843732982e-21
1.406418521e-21
1.800832035e-20
6.3419603e-21
6.868895568e-22
3.828726556e-21
4.862318714e-21
4.322928877e-22
2.419209398e-21
1.28483909e-20
7.665253583e-21
7.907959664e-21
1.332125922e-21
4.54740069e-22
2.155677802e-21
2.140456686e-21
8.170555447e-22
9.445002575e-22
3.687949389e-22
1.299804874e-20
1.813234599e-20
7.406952479e-21
1.452381287e-21
2.74241425e-21
7.550318344e-21
2.673428537e-21
2.65804913e-20
4.064955995e-21
3.825207163e-21
1.843962841e-20
1.932236235e-21
1.620778915e-21
4.747339838e-22
2.682891204e-21
1.784054873e-20
3.042357162e-22
2.495510244e-22
1.221846569e-21
3.434803297e-21
2.928860408e-22
1.044800687e-21
6.357151633e-21
1.611394171e-21
5.892969608e-21
4.341542363e-21
1.227223239e-21
6.979229581e-21
2.327866993e-21
3.013745989e-21
7.033006463e-21
1.93437066e-21
4.831536535e-22
8.542925718e-21
5.920090585e-22
7.708508979e-21
5.102134381e-21
8.291880154e-21
1.73227839e-21
3.193496232e-21
1.665174092e-21
4.579403972e-21
1.830382396e-21
4.606190358e-22
8.608213656e-21
3.759811147e-21
6.015323798e-21
6.406134311e-22
2.884756708e-22
1.26902056e-20
1.42712024e-21
3.479238347e-21
1.939588794e-21
7.484497974e-21
2.496562567e-21
3.1201782e-21
2.577046386e-21
1.186736072e-20
3.240751846e-21
2.6704356e-21
2.249029894e-21
8.310474735e-21
7.368515104e-21
1.214255486e-20
1.024124144e-20
1.182001895e-20
2.07403983e-21
2.893837628e-22
1.797243606e-21
1.883448325e-21
1.154147825e-20
1.216095249e-20
5.334899129e-21
4.145797688e-21
1.083367963e-20
4.245971364e-21
6.344671713e-21
4.482583846e-23
5.68383641e-21
4.807400117e-21
5.109606956e-21
2.978389593e-21
3.712564662e-22
1.175849464e-20
9.459909694e-21
1.109784747e-21
3.814211973e-21
1.731074311e-20
2.15325277e-21
1.152370789e-21
2.734827617e-21
1.064769998e-22
9.325656885e-23
6.730977289e-21
1.049789016e-20
1.344446158e-21
3.014785409e-21
3.672774021e-21
2.66247651e-21
5.757182558e-21
1.452382229e-20
1.287143947e-21
1.601212084e-21
1.343121431e-21
3.113483756e-21
1.607186526e-21
6.666168812e-21
1.304902253e-21
5.416613652e-21
1.626250847e-20
2.009070904e-21
1.533613479e-20
4.665782781e-21
7.793213267e-21
1.066552212e-21
5.420460472e-21
1.208439167e-21
2.346598166e-20
4.834951452e-21
3.210759718e-20
1.610205681e-21
4.403435551e-21
4.246692078e-21
1.64398401e-21
3.77967858e-21
3.271056741e-21
1.515156089e-20
1.676150048e-20
9.545799748e-22
7.429124024e-21
9.206217849e-21
9.531797215e-23
3.18019564e-21
1.565206222e-20
4.015474723e-22
1.076225855e-20
1.268806005e-22
4.136879046e-21
6.049020705e-22
4.082851778e-21
1.787667601e-21
1.301580642e-21
7.408421604e-21
8.727951514e-21
1.655086444e-21
1.383507924e-21
2.376194344e-22
8.132209673e-21
1.033982964e-21
5.126961713e-21
4.763885295e-21
1.04711416e-20
8.030735693e-21
3.633238427e-21
1.878526934e-21
9.257069121e-21
8.120641397e-21
1.625587243e-20
8.679886963e-21
1.859936665e-21
8.590427505e-21
9.007858672e-21
1.714429241e-20
3.199107025e-21
2.430323814e-21
1.228571389e-20
2.619783041e-21
5.822623214e-21
5.840170239e-21
2.998141298e-22
4.806953383e-21
3.754346652e-21
3.79128799e-21
1.114959168e-20
4.099503119e-21
2.002326428e-21
6.334433958e-22
3.98147429e-21
2.720962528e-21
3.999987278e-21
1.165915597e-23
2.089620598e-21
2.414028305e-22
1.218043171e-20
4.758549146e-21
1.226499281e-20
4.366820131e-21
1.334210554e-21
6.928935569e-22
6.069960594e-22
1.716479241e-20
5.171075321e-20
4.455014585e-21
7.952247284e-21
5.97877638e-20
1.799230396e-20
1.132562492e-21
4.73635108e-21
6.194924044e-21
6.651850596e-22
1.664057628e-20
1.787665275e-21
3.239171981e-20
1.804542304e-21
8.347072405e-20
2.744019222e-21
7.535234496e-22
2.44744709e-21
2.234626176e-20
1.067876617e-21
8.160089606e-21
1.211743757e-20
4.186458934e-20
7.982067359e-22
1.805357821e-20
3.050786449e-22
4.03208474e-22
1.238014009e-21
5.110404692e-21
4.541546393e-22
8.157872137e-23
2.662978962e-21
1.181454832e-21
2.506820398e-21
1.014422423e-20
2.555738774e-21
5.071216615e-21
5.331444766e-21
1.877032449e-21
3.781279812e-21
9.854602431e-21
1.847662558e-22
4.38903222e-21
3.94886919e-21
5.823367527e-21
3.428096374e-21
1.706702108e-21
4.365616454e-21
2.329835413e-22
1.960678396e-21
3.655780424e-21
7.642767557e-22
9.235799452e-22
1.339601529e-20
3.359379108e-21
3.060778652e-21
3.801302406e-21
8.849577868e-21
5.22371592e-22
4.337181893e-21
4.240049841e-21
5.133718985e-21
1.946405356e-22
9.959780676e-21
9.392178463e-21
2.180962112e-20
1.945050747e-21
5.509822798e-21
1.853435229e-21
2.864625067e-21
4.256679015e-20
2.012971864e-20
2.972095789e-21
2.148655202e-20
1.015043306e-20
3.965079819e-21
9.308862358e-21
1.79977226e-20
2.01315757e-20
2.157426927e-20
7.457214744e-21
1.117259445e-20
3.617248783e-21
3.915605625e-21
1.27117729e-21
7.366701814e-20
8.904798114e-22
2.074422157e-21
2.738652309e-22
8.244248109e-21
8.265892844e-21
5.414933116e-21
2.015808613e-20
3.295151635e-21
5.300550702e-21
6.353030281e-21
1.193986358e-20
1.281688901e-21
5.133264416e-21
2.091384955e-22
1.316894817e-21
4.87416916e-21
4.113167641e-21
2.686091732e-21
6.897892151e-21
3.22319697e-22
1.298573029e-21
7.314885287e-21
1.137036859e-20
3.261099012e-21
8.197937576e-21
2.137222111e-22
7.36646645e-21
1.96883016e-21
3.096025454e-21
5.642999396e-22
6.81206784e-21
5.905652655e-21
8.117245825e-22
6.607886868e-21
6.161081897e-21
1.513232183e-21
6.440254099e-22
6.112483995e-21
5.979184601e-21
2.831167496e-21
9.035684326e-21
1.608089098e-20
3.285473131e-21
9.662155594e-21
2.65248953e-21
4.796467856e-22
5.595175657e-21
1.608964535e-21
6.821004026e-21
1.336690088e-22
1.171912002e-21
4.157944332e-22
5.079479844e-21
1.099200189e-21
4.692296851e-21
4.874848159e-21
3.219646406e-21
4.014300345e-21
5.983956626e-23
2.507670256e-22
7.727462477e-21
9.360713819e-21
7.404355397e-21
7.640886782e-21
2.73307163e-22
3.483893845e-21
1.019950986e-20
7.460620836e-21
4.386967918e-22
6.077050591e-21
6.082587168e-21
8.961663616e-22
1.666335922e-21
3.233654259e-21
1.707856241e-21
3.10023751e-21
6.456895656e-21
1.848946048e-21
6.869417955e-22
3.674747615e-21
1.61590123e-21
1.72762128e-21
4.119473122e-21
3.268000388e-22
7.576471553e-23
1.955743094e-21
7.194705564e-21
6.747130773e-21
7.349468493e-22
1.192451056e-21
1.517290338e-21
1.181735086e-20
1.643237275e-21
2.545316583e-21
1.680140652e-21
3.176294366e-21
4.592173008e-22
1.994183161e-21
4.096103242e-21
9.644282835e-22
1.800174487e-21
5.633495463e-22
1.409096485e-22
7.007553273e-22
9.385470428e-21
9.288747966e-21
6.143776956e-21
5.920509331e-21
1.391383692e-21
2.293721795e-22
6.645278094e-21
3.81863368e-21
7.912388675e-22
3.456282052e-21
1.182626723e-20
2.63869941e-20
2.90176934e-21
9.250245989e-23
5.925076792e-21
5.541471266e-21
2.146516031e-21
1.275411134e-20
5.882561075e-21
3.210475985e-21
5.399148114e-21
3.246209765e-21
1.620142802e-21
3.958304359e-22
4.02766368e-22
2.712905549e-21
1.501893702e-21
4.931591295e-21
1.305313428e-20
2.641837873e-21
6.614898528e-21
1.270191502e-21
9.37944914e-21
2.130173281e-21
2.711158113e-21
3.661815319e-21
5.342246578e-21
1.985099275e-21
1.787965158e-20
9.069354257e-21
2.018226793e-22
2.390787587e-20
2.195457057e-22
8.649030303e-21
1.691278869e-21
1.44272187e-21
8.477082383e-21
3.189773848e-21
3.141555565e-21
1.033818789e-22
5.778563762e-21
1.455803381e-20
1.690577503e-21
2.744097387e-21
1.74119198e-20
2.383190761e-20
5.376304981e-22
2.610762458e-21
4.51678048e-21
6.498868534e-21
1.992093301e-21
3.222022219e-20
1.186198835e-22
3.398931718e-20
8.760684383e-21
2.473587458e-21
5.11488711e-21
6.734129318e-21
7.578388347e-21
1.405902868e-20
4.275029036e-20
4.793357157e-21
9.239574906e-22
3.827240087e-21
2.104161331e-20
1.140844247e-20
5.097190184e-21
4.230496496e-21
6.048247898e-21
9.582193918e-21
5.830164265e-21
7.975014466e-22
1.937724227e-20
1.44425909e-21
2.280908598e-21
7.269809199e-22
4.927850589e-21
7.299566086e-21
1.316047618e-21
2.719947661e-21
1.181516036e-21
1.501263515e-20
1.599741035e-21
4.54751191e-21
1.016301964e-20
5.788649047e-21
1.933838152e-21
1.424262418e-20
3.398398214e-21
3.086548522e-23
4.368756861e-21
7.112629604e-22
2.220735856e-20
5.621174794e-21
1.954952634e-21
5.571974318e-21
1.318773603e-20
2.165641245e-21
3.664172749e-21
2.125356034e-21
1.843242283e-21
1.387337019e-20
1.987937303e-20
1.037191897e-20
1.210170565e-20
5.326351957e-22
4.597500201e-22
1.201962566e-20
1.362730636e-21
2.097302293e-21
3.367853572e-21
7.561579276e-21
5.918082062e-22
7.576904063e-21
5.945067986e-21
2.901711326e-20
5.55080676e-21
4.173358046e-21
1.860959515e-20
4.462507618e-21
5.461644307e-21
7.101082714e-21
9.425764044e-22
7.132456915e-21
1.472280977e-20
9.884769401e-21
2.2172596e-21
2.775661213e-21
3.374777103e-22
3.471423255e-21
5.032239108e-21
2.984364885e-21
5.449428147e-21
4.074567828e-22
1.118082836e-21
1.139689593e-20
5.287099369e-21
1.213958071e-21
1.602517513e-21
1.916137228e-20
8.16838373e-21
1.671075555e-21
2.721664058e-21
6.44579334e-21
8.253528268e-21
1.268578785e-21
5.725886894e-21
4.430686522e-21
4.142065279e-21
3.867121648e-21
1.521322256e-22
1.311572897e-21
4.04421894e-21
2.62145073e-21
5.576331392e-21
6.409022613e-21
2.414115315e-21
3.479744835e-21
3.005724501e-21
7.932772879e-21
6.688372721e-21
8.822199046e-21
9.05129713e-23
7.251528486e-21
2.380804188e-21
1.876578007e-22
4.321851178e-21
3.288340054e-23
4.567136903e-21
4.645919766e-21
8.32244655e-21
2.13669577e-21
2.995958998e-21
5.224374219e-21
3.317703006e-21
3.368442595e-21
1.001971208e-21
5.290342438e-21
4.967990158e-21
7.383743451e-22
7.46684683e-21
5.127356035e-21
5.16224859e-21
1.183099199e-22
4.074509709e-22
6.826854413e-21
9.878691372e-22
6.003993777e-22
1.995780019e-21
1.407152882e-20
4.82894426e-21
7.951628589e-21
3.442427234e-21
2.011478462e-21
2.091045289e-20
8.496588014e-21
3.566403273e-21
6.893628296e-20
2.451343592e-21
9.355997007e-21
7.556010329e-21
7.705163009e-21
5.866599867e-21
6.465131503e-22
2.591457726e-21
3.159242888e-22
1.131310405e-20
9.970666602e-22
4.11402304e-21
7.941014149e-23
1.905376886e-20
2.837325085e-21
9.554777424e-21
6.361351248e-21
1.02283443e-20
4.738575445e-21
2.648357004e-21
1.83958274e-21
5.995969237e-21
3.204558591e-21
4.514707705e-21
1.313558113e-22
4.73766761e-22
1.955886624e-22
1.406698394e-20
4.559104965e-21
2.622553196e-21
3.786485247e-21
1.093244345e-21
1.88295158e-21
3.032717384e-22
8.921025236e-22
1.776984152e-20
7.918745644e-21
3.111137591e-21
7.246564236e-21
4.290479721e-21
5.55621244e-21
6.40047679e-21
2.833113912e-20
1.219070236e-20
1.149827147e-21
2.390823619e-21
1.405071956e-21
8.550039555e-21
3.841300348e-21
8.040044783e-21
1.062423856e-20
1.214672756e-21
5.112096895e-22
1.874272836e-21
6.743228885e-21
1.389535262e-20
2.702208664e-21
1.233039552e-21
2.973790203e-21
3.291765341e-21
1.948281531e-21
3.999728833e-21
2.160066905e-21
1.124515682e-20
9.686553936e-22
1.233407117e-20
1.424574038e-21
1.572183855e-21
5.644130407e-21
1.668772084e-21
7.847222617e-22
2.250470821e-21
3.124881464e-21
4.380262563e-21
2.618316685e-21
6.45651402e-21
5.723512746e-21
1.707057489e-21
9.39183325e-21
9.840027991e-21
2.340627809e-22
1.010854438e-21
4.839298194e-21
1.05101244e-21
3.080888012e-20
1.530349067e-20
7.207178343e-21
5.769169882e-22
1.2916174e-20
1.445862018e-21
1.115392732e-20
1.569986014e-21
7.195318322e-21
1.720158051e-20
9.771530391e-22
8.316752066e-21
1.756337744e-21
6.151870732e-23
1.170196955e-20
3.075603817e-20
2.442235255e-21
5.817856306e-21
4.511347364e-21
6.319645265e-21
4.754359552e-21
5.536343102e-21
6.129583932e-22
4.414783088e-21
7.713045781e-21
2.85723411e-21
6.601134745e-21
1.074676932e-20
2.229682553e-21
6.689794532e-22
3.145172564e-22
1.18194379e-21
5.006142062e-21
3.829739163e-21
2.615400392e-21
2.539051765e-21
2.43123613e-22
5.803214209e-21
8.327928956e-22
4.869421883e-21
3.078191565e-21
4.492677918e-21
6.549082045e-21
1.456583881e-21
3.340709213e-21
3.052165915e-21
1.360656172e-22
1.504138555e-21
4.694972002e-21
3.260204509e-22
6.803969521e-21
5.485653703e-24
2.992446922e-21
3.464478624e-21
9.988646891e-21
2.290724347e-21
5.541980662e-21
3.258246242e-21
1.243410723e-21
2.892703975e-21
1.591918673e-21
1.34712906e-20
4.030319209e-21
1.101091707e-20
5.369061358e-21
1.390337976e-21
5.029323209e-21
1.497645634e-21
2.841366477e-21
7.485744089e-21
1.161166194e-20
5.582408242e-21
8.104488437e-21
2.227734621e-21
4.310153491e-21
1.874707513e-21
2.234090158e-21
1.56025196e-21
4.597264459e-21
1.027424739e-20
2.212053682e-21
2.158637819e-21
1.116956856e-20
1.292364832e-21
3.238078943e-20
5.970128646e-23
3.261120084e-22
5.980540733e-21
1.267514443e-20
7.438610051e-21
4.128875788e-22
1.070255286e-20
6.903381607e-21
4.524954666e-21
6.348405488e-21
4.531827319e-21
1.328067327e-20
1.955092795e-21
1.201205306e-20
4.299847315e-21
2.109043296e-21
2.750950071e-22
2.834835118e-20
2.080286535e-21
2.492375266e-20
5.161419458e-21
3.404607387e-21
6.291961231e-22
4.144786555e-21
1.749000029e-21
2.186846563e-21
1.577680475e-21
2.384748117e-21
3.503750766e-21
1.161785787e-20
3.115430578e-21
3.953342593e-22
2.779598759e-21
9.067382041e-21
1.939623057e-21
3.201487437e-21
8.5898459e-21
6.013570321e-21
3.289915958e-21
9.656620686e-21
1.50034163e-21
4.142547507e-21
9.002854598e-22
5.337905622e-21
1.77336362e-21
1.874107528e-21
2.515678016e-21
1.067172331e-21
3.429865346e-20
2.000670804e-21
1.91785537e-21
7.494390043e-23
2.330077698e-21
3.445349563e-21
4.080549672e-23
4.984159326e-21
1.491488432e-21
3.066018046e-24
3.500779093e-21
3.753620695e-21
1.029078461e-21
4.129246758e-21
1.013708348e-20
5.038731721e-21
1.731142471e-21
4.10887421e-22
4.635626704e-21
1.165598176e-21
1.478182117e-21
7.11674928e-21
4.684950947e-21
1.518191108e-20
1.653032812e-21
5.14772687e-21
1.976929762e-21
3.882757754e-21
1.999895581e-21
1.825816223e-20
3.773789663e-21
3.930785141e-21
3.200909887e-21
3.486368031e-21
2.641388304e-21
1.055339545e-21
1.391497225e-21
9.132812302e-21
3.749888134e-21
2.869118617e-21
8.756575773e-21
1.448207308e-22
8.169121059e-21
9.003709578e-21
3.068068947e-22
4.127069545e-20
4.93128084e-20
8.473756747e-22
8.677595334e-21
1.375283436e-21
1.331733556e-21
2.465565896e-21
1.408958687e-20
2.950060684e-21
2.023097291e-21
6.595497475e-21
2.467593024e-21
4.44640283e-21
3.514752339e-20
3.109551864e-21
2.701460747e-20
2.189553746e-21
5.871183748e-21
1.12599179e-20
2.980329051e-21
1.367642324e-20
2.41843517e-21
1.192272934e-20
1.819519777e-21
3.30789857e-21
4.887153287e-22
6.230276872e-21
4.648361406e-21
3.991851242e-22
1.925397833e-21
2.50236386e-21
2.355891883e-21
1.107206559e-21
3.664762278e-21
5.351967624e-21
2.212460161e-21
2.353222624e-21
2.465174698e-20
1.835370229e-21
3.095566996e-21
1.639419e-21
1.226516565e-20
2.302660735e-21
8.401946658e-21
5.744759717e-21
5.892595687e-21
4.671365192e-21
1.664339657e-21
1.215966606e-20
3.271361237e-20
2.181625216e-21
9.24468143e-22
8.98676059e-21
2.762433987e-21
4.615813133e-21
5.892962461e-21
1.574541362e-21
2.196101023e-20
4.481239616e-22
4.202846711e-21
6.736197429e-21
3.219554511e-21
2.938247801e-21
4.084032312e-21
1.132266984e-21
8.315631727e-22
2.427677203e-21
5.590021762e-21
6.251307084e-21
1.240904325e-21
4.473354547e-22
9.697174925e-21
4.71474258e-21
1.44433057e-21
9.534117343e-22
5.257837342e-21
2.517435267e-21
1.528000773e-21
8.723673352e-21
9.05027107e-22
3.798361516e-21
2.694248069e-21
3.211563139e-22
1.625648264e-21
2.619938333e-22
4.742465515e-21
1.797247645e-21
2.231667127e-21
1.847490223e-21
2.169615317e-21
1.499145636e-20
9.72888172e-21
2.203754093e-21
5.310302949e-21
4.656251078e-20
3.61902731e-20
1.816526984e-20
9.614771189e-21
1.744011873e-21
5.082894323e-22
8.73681993e-23
4.526768619e-22
7.077450544e-21
1.64163739e-21
5.130289695e-22
1.741639193e-21
4.594538486e-21
7.202238983e-21
1.351124576e-21
1.179200556e-20
6.365546081e-21
2.112725111e-21
2.26662001e-20
5.110561866e-21
7.583192847e-20
2.173868102e-21
3.799611326e-21
3.571110975e-22
8.395382177e-21
1.685502316e-21
1.680240796e-21
3.431488917e-21
6.269925582e-21
1.361737381e-21
2.286253283e-21
3.279083553e-21
5.297847559e-21
6.50338448e-23
7.642961763e-21
2.449828427e-21
5.281027231e-21
1.442033801e-20
6.122174948e-22
3.025101806e-21
8.735148454e-21
9.64497254e-22
3.52781377e-21
3.640050623e-22
1.682674724e-21
8.341364901e-21
2.772909749e-21
6.734688291e-22
9.442495218e-22
2.75883971e-21
6.746559604e-22
2.905820456e-21
3.663228884e-21
6.583277841e-22
9.319864992e-22
4.239224329e-21
3.717815671e-21
8.033286833e-21
2.731090089e-21
6.739147568e-21
3.418518426e-21
3.202130486e-21
2.43075839e-20
6.770318218e-23
4.339729889e-21
5.409066405e-21
1.497781478e-21
1.377880582e-20
1.161614888e-21
3.6959378e-21
3.195647689e-22
1.302126726e-21
3.045489794e-21
3.182613461e-21
1.28724552e-20
4.649148581e-23