/*--------------------------------*- C++ -*----------------------------------*\
  =========                 |
  \\      /  F ield         | OpenFOAM: The Open Source CFD Toolbox
   \\    /   O peration     | Website:  https://openfoam.org
    \\  /    A nd           | Version:  7
     \\/     M anipulation  |
\*---------------------------------------------------------------------------*/
FoamFile
{
    version     2.0;
    format      ascii;
    class       volScalarField;
    location    "0.3";
    object      nut;
}
// * * * * * * * * * * * * * * * * * * * * * * * * * * * * * * * * * * * * * //

dimensions      [0 2 -1 0 0 0 0];

internalField   nonuniform List<scalar> 
1915
(
0.0128918
0.0129098
0.0129088
0.0128902
0.0128551
0.0128034
0.0127344
0.012646
0.0125349
0.0123958
0.0122211
0.0120008
0.0117227
0.0113733
0.0109412
0.0104208
0.00981716
0.00914869
0.00844629
0.00774719
0.00708687
0.00649523
0.00600317
0.00565786
0.00552509
0.000152877
0.00124363
0.00286383
0.00446248
0.00589607
0.00713635
0.00819114
0.00908021
0.00982604
0.01045
0.0109708
0.0114043
0.0117639
0.0120601
0.0123021
0.0124972
0.0126516
0.0127705
0.0128586
0.0129196
0.0129569
0.0129732
0.0129706
0.0129506
0.0129143
0.0128617
0.0127923
0.0127044
0.0125947
0.0124584
0.0122884
0.0120751
0.0118068
0.0114707
0.0110553
0.0105543
0.00997095
0.00932181
0.00863619
0.00795089
0.00730147
0.0067157
0.00621632
0.00583562
0.00563042
0.000153844
0.00127365
0.0029302
0.00455313
0.0059994
0.00724444
0.00829911
0.00918526
0.00992667
0.0105455
0.0110611
0.0114896
0.0118444
0.0121366
0.012375
0.0125672
0.0127192
0.0128364
0.0129231
0.0129831
0.0130197
0.0130354
0.0130324
0.0130124
0.0129764
0.0129247
0.0128569
0.0127716
0.012666
0.0125356
0.012374
0.0121726
0.0119202
0.0116049
0.011215
0.0107432
0.0101903
0.00956939
0.00890676
0.00823778
0.00759861
0.00701759
0.00651308
0.0061031
0.00582354
0.000154414
0.0012998
0.00298789
0.00463114
0.00608742
0.00733576
0.00838991
0.00927351
0.0100114
0.0106263
0.011138
0.0115627
0.0119142
0.0122034
0.0124393
0.0126296
0.0127802
0.0128965
0.0129827
0.0130426
0.0130793
0.0130956
0.0130934
0.0130746
0.0130403
0.012991
0.0129265
0.0128456
0.0127462
0.0126243
0.0124743
0.0122884
0.0120568
0.0117682
0.0114113
0.0109774
0.0104645
0.00988137
0.00924938
0.00860087
0.00797208
0.00739372
0.00688478
0.00645523
0.00611914
0.000154606
0.00132238
0.00303712
0.00469651
0.00615999
0.00741015
0.00846333
0.0093447
0.0100799
0.010692
0.0112009
0.0116231
0.0119723
0.0122596
0.0124942
0.0126834
0.0128335
0.0129496
0.0130362
0.0130968
0.0131346
0.0131522
0.0131518
0.0131353
0.0131038
0.013058
0.0129981
0.0129231
0.0128314
0.0127197
0.0125834
0.0124157
0.0122082
0.0119506
0.0116321
0.0112433
0.0107794
0.0102442
0.00965297
0.00903289
0.00841827
0.00784206
0.00732739
0.00688441
0.00651579
0.000154432
0.0013411
0.00307737
0.00474859
0.0062164
0.00746686
0.0085186
0.00939797
0.0101311
0.0107414
0.0112486
0.0116695
0.0120175
0.012304
0.012538
0.0127271
0.0128774
0.0129942
0.0130817
0.0131437
0.0131833
0.0132031
0.0132053
0.0131918
0.013164
0.0131226
0.0130681
0.0129999
0.0129168
0.0128163
0.0126947
0.0125465
0.0123647
0.0121403
0.0118636
0.0115249
0.0111172
0.0106398
0.0101014
0.00952217
0.00893154
0.00836223
0.00784169
0.00738562
0.00699735
0.0001539
0.00135568
0.003108
0.00478654
0.00625574
0.00750492
0.00855465
0.00943218
0.0101639
0.0107732
0.0112798
0.0117003
0.0120482
0.0123348
0.0125691
0.0127588
0.0129101
0.0130281
0.0131173
0.0131813
0.0132232
0.0132457
0.0132511
0.0132412
0.0132175
0.013181
0.0131323
0.0130713
0.0129971
0.012908
0.0128013
0.0126726
0.0125164
0.0123254
0.0120912
0.0118045
0.0114574
0.0110457
0.010572
0.0100487
0.00949773
0.00894793
0.00842785
0.0079589
0.007551
0.000153019
0.00136585
0.00312839
0.00480955
0.00627707
0.00752331
0.00857039
0.00944612
0.0101769
0.010786
0.0112929
0.0117139
0.0120626
0.0123501
0.0125855
0.0127765
0.0129294
0.0130492
0.0131405
0.0132069
0.0132516
0.0132772
0.0132861
0.0132801
0.0132608
0.0132294
0.0131866
0.0131326
0.0130671
0.012989
0.0128963
0.0127861
0.0126541
0.0124947
0.0123011
0.0120653
0.0117794
0.0114371
0.0110367
0.0105832
0.0100902
0.00957929
0.00907568
0.00860259
0.00817584
0.000151803
0.00137141
0.00313803
0.00481692
0.0062796
0.00752113
0.0085648
0.00943866
0.0101689
0.0107784
0.0112863
0.0117087
0.0120589
0.0123481
0.0125854
0.0127783
0.0129332
0.0130554
0.0131492
0.0132184
0.0132661
0.013295
0.0133075
0.0133055
0.0132906
0.0132641
0.013227
0.0131796
0.0131222
0.013054
0.0129741
0.0128803
0.0127699
0.0126387
0.0124818
0.0122926
0.0120643
0.0117903
0.0114659
0.011091
0.0106715
0.0102205
0.00975641
0.00929933
0.00886666
0.000150268
0.00137221
0.00313655
0.00480815
0.00626272
0.00749769
0.0085371
0.00940887
0.0101388
0.0107491
0.0112586
0.0116831
0.0120357
0.0123272
0.0125669
0.0127624
0.0129198
0.0130447
0.0131413
0.0132134
0.0132643
0.0132966
0.0133127
0.0133146
0.0133039
0.013282
0.0132501
0.0132087
0.0131583
0.0130989
0.0130298
0.0129501
0.0128579
0.0127506
0.0126248
0.0124758
0.0122981
0.0120859
0.0118339
0.0115386
0.0112006
0.0108254
0.0104235
0.0100086
0.00959512
0.000148437
0.00136819
0.00312375
0.00478297
0.00622613
0.0074526
0.00848677
0.00935612
0.0100858
0.0106973
0.011209
0.0116361
0.0119916
0.0122861
0.0125288
0.0127271
0.0128876
0.0130154
0.013115
0.0131903
0.0132444
0.0132801
0.0132997
0.0133052
0.0132984
0.0132807
0.0132533
0.0132171
0.0131727
0.0131204
0.0130602
0.0129918
0.0129142
0.012826
0.012725
0.0126084
0.0124722
0.012312
0.0121228
0.0119004
0.0116423
0.0113487
0.0110233
0.0106732
0.0103069
0.000146338
0.0013594
0.00309965
0.0047414
0.00616982
0.00738581
0.00841366
0.00928014
0.0100095
0.0106224
0.0111366
0.0115669
0.0119257
0.0122237
0.0124698
0.0126715
0.0128352
0.0129662
0.0130691
0.0131475
0.0132049
0.0132438
0.0132667
0.0132757
0.0132724
0.0132583
0.0132348
0.0132028
0.0131633
0.0131167
0.0130634
0.0130036
0.012937
0.0128631
0.0127808
0.0126885
0.0125838
0.0124637
0.0123246
0.0121626
0.0119741
0.0117569
0.0115104
0.011236
0.0109367
0.000144005
0.00134597
0.00306449
0.00468378
0.00609417
0.00729766
0.00831804
0.00918106
0.00990986
0.0105243
0.0110413
0.011475
0.0118376
0.0121394
0.0123893
0.0125947
0.012762
0.0128964
0.0130026
0.0130843
0.0131448
0.0131869
0.013213
0.013225
0.0132248
0.0132139
0.0131936
0.0131651
0.0131292
0.0130869
0.0130387
0.012985
0.0129262
0.0128622
0.0127928
0.0127174
0.0126349
0.0125434
0.0124406
0.0123237
0.0121896
0.0120352
0.011858
0.0116566
0.0114303
0.000141481
0.00132815
0.00301876
0.00461078
0.00599994
0.00718892
0.0082006
0.00905946
0.00978742
0.0104033
0.0109231
0.0113605
0.0117272
0.0120332
0.0122872
0.0124966
0.0126676
0.0128056
0.0129152
0.0130002
0.0130639
0.013109
0.013138
0.0131528
0.0131554
0.0131472
0.0131295
0.0131037
0.0130706
0.0130313
0.0129865
0.0129369
0.012883
0.0128254
0.0127642
0.0126994
0.0126308
0.0125576
0.0124785
0.0123918
0.0122954
0.0121864
0.0120624
0.0119204
0.0117581
0.00013881
0.00130628
0.00296319
0.00452347
0.00588834
0.00706079
0.00806248
0.00891638
0.00964303
0.0102601
0.0107827
0.0112239
0.0115948
0.0119053
0.0121636
0.0123772
0.0125522
0.012694
0.0128071
0.0128954
0.0129622
0.0130103
0.013042
0.0130595
0.0130645
0.0130585
0.013043
0.0130192
0.0129882
0.0129509
0.0129082
0.012861
0.01281
0.0127558
0.0126989
0.0126399
0.0125789
0.0125157
0.0124501
0.012381
0.0123072
0.0122268
0.0121376
0.0120372
0.0119227
0.00013604
0.00128085
0.00289884
0.00442326
0.00576099
0.00691495
0.0079053
0.00875332
0.00947807
0.010096
0.0106213
0.0110662
0.0114414
0.0117564
0.0120193
0.0122373
0.0124164
0.0125621
0.0126788
0.0127705
0.0128404
0.0128913
0.0129257
0.0129456
0.0129528
0.0129489
0.0129352
0.012913
0.0128834
0.0128474
0.0128059
0.0127599
0.0127101
0.0126572
0.0126021
0.0125453
0.0124873
0.0124283
0.0123685
0.0123075
0.0122447
0.0121789
0.0121088
0.0120324
0.0119478
0.00013322
0.00125242
0.00282699
0.00431198
0.00561997
0.00675354
0.00773114
0.00857226
0.00929436
0.00991263
0.0104402
0.0108888
0.0112683
0.0115879
0.0118554
0.0120779
0.0122613
0.0124109
0.0125314
0.0126264
0.0126994
0.0127533
0.0127902
0.0128125
0.0128218
0.0128197
0.0128076
0.0127867
0.0127582
0.012723
0.0126821
0.0126365
0.0125868
0.0125341
0.0124789
0.012422
0.012364
0.0123054
0.0122464
0.0121872
0.0121275
0.0120668
0.0120041
0.0119382
0.0118679
0.0001304
0.00122169
0.00274922
0.00419179
0.00546773
0.0065791
0.00754254
0.00837561
0.00909419
0.00971216
0.0102417
0.0106935
0.0110772
0.0114013
0.0116735
0.0119004
0.0120882
0.0122419
0.0123661
0.0124646
0.0125408
0.0125975
0.0126371
0.0126617
0.012673
0.0126727
0.0126621
0.0126424
0.0126148
0.0125802
0.0125396
0.0124939
0.0124439
0.0123905
0.0123343
0.0122761
0.0122166
0.0121562
0.0120954
0.0120343
0.0119732
0.0119117
0.0118493
0.0117852
0.0117189
0.000127624
0.00118946
0.00266733
0.00406519
0.00530712
0.00639462
0.00734243
0.00816624
0.00888029
0.00949714
0.0100279
0.0104826
0.0108701
0.0111986
0.0114753
0.0117068
0.011899
0.0120568
0.0121848
0.0122869
0.0123663
0.0124259
0.0124681
0.012495
0.0125084
0.0125099
0.0125008
0.0124823
0.0124556
0.0124216
0.0123812
0.0123354
0.0122849
0.0122306
0.0121731
0.0121132
0.0120515
0.0119885
0.0119247
0.0118604
0.0117958
0.0117308
0.0116653
0.0115987
0.0115308
0.000124933
0.00115654
0.00258326
0.00393489
0.00514128
0.00620339
0.00713415
0.00794739
0.00865578
0.00927056
0.00980185
0.0102588
0.0106497
0.0109822
0.0112633
0.0114992
0.0116956
0.0118576
0.0119895
0.0120951
0.0121777
0.0122403
0.0122852
0.0123146
0.0123301
0.0123335
0.012326
0.0123088
0.0122831
0.0122498
0.0122098
0.0121641
0.0121133
0.0120582
0.0119996
0.0119382
0.0118744
0.0118089
0.0117421
0.0116744
0.0116061
0.0115372
0.0114676
0.0113972
0.0113257
0.000122361
0.00112377
0.00249901
0.00380372
0.00497353
0.00600899
0.00692134
0.00772268
0.00842416
0.0090358
0.00956666
0.0100251
0.0104188
0.0107549
0.01104
0.0112801
0.0114807
0.0116467
0.0117824
0.0118915
0.0119775
0.0120431
0.0120907
0.0121226
0.0121404
0.0121457
0.01214
0.0121244
0.0120999
0.0120676
0.0120283
0.011983
0.0119322
0.0118769
0.0118177
0.0117552
0.01169
0.0116226
0.0115536
0.0114832
0.0114119
0.0113397
0.0112668
0.011193
0.0111183
0.000119936
0.00109196
0.00241652
0.00367451
0.00480727
0.00581512
0.00670784
0.00749598
0.00818927
0.00879654
0.00932591
0.00978492
0.0101806
0.0105197
0.0108084
0.0110523
0.0112568
0.0114267
0.011566
0.0116787
0.0117679
0.0118365
0.011887
0.0119214
0.0119416
0.0119491
0.0119454
0.0119315
0.0119086
0.0118776
0.0118394
0.0117949
0.0117448
0.0116898
0.0116306
0.0115678
0.011502
0.0114338
0.0113636
0.0112918
0.0112187
0.0111446
0.0110697
0.010994
0.0109174
0.00011768
0.00106178
0.00233756
0.00354992
0.00464578
0.00562549
0.00649762
0.00727134
0.00795515
0.0085568
0.0090835
0.00954204
0.00993887
0.0102802
0.0105717
0.010819
0.011027
0.0112004
0.0113433
0.0114593
0.0115517
0.0116233
0.0116766
0.0117137
0.0117363
0.0117462
0.0117446
0.0117327
0.0117116
0.0116823
0.0116457
0.0116026
0.0115537
0.0114997
0.0114413
0.0113791
0.0113138
0.0112457
0.0111755
0.0111036
0.0110303
0.0109559
0.0108806
0.0108046
0.0107279
0.00011561
0.00103382
0.00226364
0.00343231
0.00449212
0.00544365
0.00629454
0.00705285
0.00772599
0.00832076
0.00884355
0.00930045
0.00969735
0.0100399
0.0103336
0.0105836
0.0107946
0.0109711
0.0111171
0.0112362
0.0113316
0.0114062
0.0114623
0.011502
0.0115272
0.0115395
0.0115402
0.0115306
0.0115117
0.0114845
0.0114499
0.0114087
0.0113616
0.0113093
0.0112525
0.0111919
0.0111279
0.0110612
0.0109922
0.0109214
0.0108492
0.0107759
0.0107018
0.0106271
0.0105519
0.000113738
0.0010085
0.00219594
0.00332365
0.00434894
0.00527282
0.00610228
0.00684448
0.00750595
0.00809267
0.00861032
0.00906436
0.00946018
0.00980298
0.0100979
0.0103497
0.0105629
0.010742
0.0108907
0.0110126
0.0111108
0.0111881
0.0112468
0.0112892
0.011317
0.0113318
0.0113351
0.0113279
0.0113115
0.0112868
0.0112546
0.0112157
0.011171
0.0111211
0.0110667
0.0110084
0.0109468
0.0108823
0.0108157
0.0107472
0.0106773
0.0106064
0.0105348
0.0104627
0.0103903
0.000112075
0.000986115
0.00213532
0.00322543
0.0042184
0.00511578
0.00592414
0.00664995
0.00729902
0.0078767
0.00838806
0.00883805
0.00923157
0.00957346
0.00986847
0.0101212
0.0103359
0.0105168
0.0106677
0.0107918
0.0108924
0.0109721
0.0110334
0.0110783
0.0111086
0.011126
0.0111319
0.0111274
0.0111137
0.0110917
0.0110623
0.0110264
0.0109846
0.0109377
0.0108862
0.010831
0.0107724
0.0107112
0.0106477
0.0105824
0.0105159
0.0104484
0.0103803
0.0103118
0.0102431
0.000110629
0.000966842
0.00208229
0.0031387
0.00410215
0.0049748
0.00576293
0.00647253
0.00710887
0.00767679
0.00818088
0.00862568
0.00901571
0.0093555
0.00964949
0.00990205
0.0101173
0.0102992
0.0104515
0.0105773
0.0106798
0.0107616
0.010825
0.0108723
0.0109051
0.010925
0.0109336
0.0109319
0.0109211
0.0109021
0.0108758
0.0108431
0.0108047
0.0107612
0.0107133
0.0106617
0.0106068
0.0105494
0.0104897
0.0104284
0.0103659
0.0103025
0.0102386
0.0101744
0.0101101
0.00010941
0.000950762
0.00203711
0.00306407
0.00400132
0.00485157
0.00562093
0.00631501
0.00693871
0.00749647
0.00799254
0.00843117
0.00881659
0.00915307
0.00944487
0.00969613
0.00991086
0.0100929
0.0102456
0.0103725
0.0104762
0.0105596
0.0106249
0.0106742
0.0107093
0.0107317
0.0107429
0.0107441
0.0107363
0.0107205
0.0106976
0.0106683
0.0106335
0.0105938
0.0105499
0.0105023
0.0104516
0.0103984
0.0103431
0.0102862
0.0102281
0.0101692
0.0101098
0.0100503
0.00999069
0.00010843
0.000937896
0.00199984
0.00300183
0.00391661
0.00474732
0.00549991
0.00617968
0.00679125
0.00733881
0.00782638
0.00825801
0.00863778
0.0089698
0.00925819
0.00950697
0.00972003
0.00990104
0.0100535
0.0101804
0.0102848
0.0103692
0.0104359
0.0104869
0.010524
0.0105487
0.0105625
0.0105665
0.0105617
0.0105492
0.0105298
0.0105042
0.0104733
0.0104376
0.0103978
0.0103544
0.0103081
0.0102594
0.0102086
0.0101563
0.0101029
0.0100487
0.00999404
0.0099392
0.00988436
0.000107706
0.000928236
0.00197041
0.00295207
0.00384845
0.00466293
0.00540123
0.00606838
0.00666876
0.00720639
0.00768521
0.00810919
0.00848237
0.00880881
0.00909257
0.00933763
0.00954781
0.00972672
0.00987774
0.010004
0.0101082
0.010193
0.0102605
0.0103128
0.0103516
0.0103783
0.0103945
0.0104012
0.0103994
0.0103901
0.0103742
0.0103524
0.0103254
0.0102938
0.0102582
0.0102193
0.0101774
0.0101332
0.010087
0.0100394
0.00999057
0.009941
0.00989096
0.00984071
0.00979043
0.00010726
0.000921771
0.00194872
0.0029148
0.00379716
0.00459916
0.0053261
0.00598271
0.00657315
0.0071014
0.00757139
0.00798717
0.00835285
0.00867257
0.00895046
0.0091905
0.00939652
0.00957213
0.00972065
0.00984513
0.00994834
0.0100327
0.0101005
0.0101535
0.0101936
0.0102221
0.0102404
0.0102496
0.0102507
0.0102446
0.0102321
0.010214
0.0101909
0.0101634
0.010132
0.0100974
0.0100599
0.0100202
0.00997849
0.0099353
0.00989097
0.00984582
0.00980015
0.00975421
0.00970819
0.000107125
0.000918519
0.00193472
0.00289016
0.00376327
0.00455693
0.00527584
0.0059243
0.00650629
0.0070258
0.00748693
0.00789393
0.00825115
0.00856294
0.00883359
0.0090672
0.00926769
0.00943868
0.00958349
0.00970516
0.00980637
0.00988956
0.00995683
0.0100101
0.0100509
0.0100808
0.0101009
0.0101124
0.0101161
0.0101131
0.0101039
0.0100894
0.0100701
0.0100465
0.0100193
0.00998882
0.00995564
0.00992015
0.00988275
0.00984381
0.00980366
0.00976263
0.00972099
0.00967898
0.0096368
0.000107346
0.000918566
0.00192859
0.00287867
0.00374777
0.00453774
0.00525231
0.00589522
0.00647029
0.00698166
0.00743373
0.00783117
0.00817873
0.00848115
0.00874299
0.00896859
0.009162
0.00932692
0.0094667
0.00958434
0.00968253
0.0097636
0.00982962
0.00988238
0.00992345
0.00995419
0.00997577
0.0099892
0.0099954
0.00999515
0.00998914
0.00997801
0.00996232
0.00994259
0.0099193
0.0098929
0.0098638
0.0098324
0.00979905
0.00976409
0.00972784
0.00969059
0.00965261
0.00961413
0.00957535
0.00010799
0.000922121
0.0019309
0.00288163
0.00375272
0.00454422
0.00525846
0.00589846
0.00646796
0.0069714
0.00741378
0.00780042
0.0081367
0.0084279
0.00867903
0.00889476
0.00907931
0.00923653
0.0093698
0.00948212
0.00957612
0.00965408
0.00971798
0.00976954
0.00981023
0.00984132
0.0098639
0.00987893
0.00988723
0.00988951
0.00988641
0.00987849
0.00986628
0.00985022
0.00983074
0.00980823
0.00978307
0.00975559
0.00972611
0.00969494
0.00966234
0.0096286
0.00959395
0.00955862
0.00952283
0.000109154
0.000929611
0.00194296
0.00290161
0.00378187
0.00458087
0.00529901
0.00593851
0.0065032
0.00699819
0.00742943
0.00780323
0.00812589
0.00840345
0.0086415
0.0088451
0.00901875
0.00916641
0.00929153
0.00939708
0.00948564
0.00955941
0.00962026
0.00966981
0.00970943
0.00974028
0.00976337
0.00977956
0.00978958
0.00979408
0.00979362
0.0097887
0.00977977
0.00976723
0.00975145
0.00973276
0.00971147
0.00968786
0.00966219
0.00963472
0.00960567
0.00957527
0.00954373
0.00951128
0.00947814
0.000110982
0.000941805
0.00196732
0.00294335
0.00384169
0.00465505
0.00538132
0.00602198
0.00658146
0.00706612
0.00748343
0.00784117
0.00814688
0.00840759
0.00862958
0.00881837
0.00897874
0.00911477
0.00922994
0.00932718
0.00940896
0.00947738
0.00953419
0.00958088
0.00961868
0.00964865
0.00967168
0.00968853
0.00969985
0.00970619
0.00970806
0.00970588
0.00970004
0.00969088
0.00967871
0.00966382
0.00964645
0.0096268
0.00960508
0.00958143
0.00955603
0.00952902
0.00950057
0.00947088
0.00944016
0.000113686
0.000959998
0.0020085
0.00301503
0.00394291
0.00477838
0.00551636
0.00615821
0.0067099
0.00718014
0.00757875
0.00791555
0.00819973
0.00843944
0.00864174
0.00881261
0.00895705
0.00907922
0.00918254
0.00926985
0.00934348
0.00940537
0.00945711
0.00950003
0.00953522
0.00956361
0.00958596
0.00960292
0.00961504
0.0096228
0.00962661
0.00962685
0.00962386
0.00961792
0.00960931
0.00959825
0.00958494
0.00956953
0.00955209
0.00953269
0.00951135
0.0094881
0.00946301
0.00943619
0.00940784
0.000117605
0.000986345
0.00207438
0.0031305
0.00410291
0.00496866
0.00571991
0.00635959
0.00689724
0.00734557
0.00771793
0.00802687
0.00828346
0.00849709
0.00867551
0.00882504
0.00895077
0.00905679
0.00914638
0.00922218
0.00928632
0.00934053
0.00938619
0.00942445
0.00945623
0.0094823
0.0095033
0.00951975
0.00953211
0.00954076
0.00954606
0.00954831
0.00954782
0.00954485
0.00953966
0.00953245
0.00952339
0.00951257
0.00949999
0.00948557
0.00946914
0.00945051
0.00942949
0.00940602
0.00938025
0.000123382
0.00102481
0.0021793
0.00331383
0.00435003
0.00525273
0.00601363
0.0066413
0.00715258
0.00756665
0.00790173
0.00817358
0.00839522
0.00857701
0.00872712
0.00885189
0.00895625
0.00904403
0.00911821
0.00918111
0.00923458
0.00928006
0.00931871
0.00935145
0.00937902
0.00940203
0.00942096
0.00943624
0.00944819
0.00945712
0.00946332
0.00946705
0.00946858
0.00946815
0.00946605
0.0094625
0.0094577
0.00945175
0.00944464
0.00943617
0.00942596
0.00941345
0.00939801
0.00937911
0.00935657
0.000132215
0.00108393
0.00235196
0.00360978
0.00473205
0.00567067
0.00642535
0.00701926
0.00748253
0.00784375
0.00812685
0.00835058
0.00852923
0.00867346
0.00879119
0.0088883
0.00896918
0.00903713
0.00909465
0.00914361
0.00918549
0.00922141
0.00925225
0.0092787
0.00930131
0.00932051
0.00933665
0.00935002
0.00936085
0.00936937
0.00937578
0.00938029
0.00938315
0.00938459
0.00938492
0.00938443
0.00938342
0.00938211
0.00938062
0.00937882
0.00937626
0.00937206
0.00936495
0.0093533
0.00933574
0.000145984
0.00118593
0.00265975
0.00411119
0.00533338
0.00628051
0.00698582
0.00750393
0.00788522
0.0081688
0.00838291
0.00854735
0.00867589
0.0087781
0.00886071
0.00892848
0.00898481
0.00903221
0.00907248
0.009107
0.00913677
0.00916258
0.00918502
0.00920453
0.00922148
0.00923615
0.00924873
0.00925942
0.00926834
0.00927565
0.00928146
0.00928594
0.00928925
0.00929163
0.00929337
0.00929479
0.00929632
0.00929836
0.00930132
0.00930546
0.00931077
0.00931679
0.00932224
0.00932385
0.00931561
0.000168262
0.00140709
0.003304
0.00503964
0.0063061
0.00715475
0.00771323
0.00808543
0.00833994
0.00851929
0.00864956
0.00874694
0.00882168
0.00888045
0.00892767
0.00896635
0.00899857
0.00902582
0.00904916
0.00906935
0.00908697
0.00910245
0.0091161
0.00912817
0.00913883
0.00914823
0.00915647
0.00916363
0.00916978
0.00917498
0.00917928
0.00918278
0.00918557
0.0091878
0.00918969
0.00919151
0.00919365
0.00919659
0.00920096
0.00920748
0.00921713
0.00923154
0.00925301
0.00928002
0.0092921
0.000210525
0.00222154
0.00517636
0.00699081
0.00787974
0.00832408
0.00856419
0.0087052
0.0087943
0.00885411
0.00889628
0.00892728
0.00895086
0.00896934
0.00898421
0.00899645
0.00900673
0.0090155
0.0090231
0.00902976
0.00903565
0.0090409
0.0090456
0.00904983
0.00905362
0.00905703
0.00906007
0.00906277
0.00906513
0.00906718
0.00906893
0.00907039
0.00907159
0.00907259
0.00907345
0.00907429
0.00907526
0.00907662
0.00907874
0.00908221
0.00908835
0.00910071
0.00912866
0.00918622
0.00925956
)
;

boundaryField
{
    leftWall
    {
        type            nutkWallFunction;
        Cmu             0.09;
        kappa           0.41;
        E               9.8;
        value           nonuniform List<scalar> 
42
(
1.2829e-05
1.29858e-05
1.30826e-05
1.31224e-05
1.31069e-05
1.30372e-05
1.29149e-05
1.27416e-05
1.25197e-05
1.22524e-05
1.19438e-05
1.15987e-05
1.12231e-05
1.08237e-05
1.04079e-05
9.98327e-06
9.55723e-06
9.1368e-06
8.72818e-06
8.33664e-06
7.96644e-06
7.6209e-06
7.3026e-06
7.0135e-06
6.75527e-06
6.52945e-06
6.33774e-06
6.18221e-06
6.0656e-06
5.9916e-06
5.96534e-06
5.99398e-06
6.08774e-06
6.26141e-06
6.53649e-06
6.94438e-06
7.53488e-06
8.40091e-06
9.71566e-06
1.17561e-05
1.50529e-05
2.12937e-05
)
;
    }
    rightWall
    {
        type            nutkWallFunction;
        Cmu             0.09;
        kappa           0.41;
        E               9.8;
        value           nonuniform 0();
    }
    lowerWall
    {
        type            nutkWallFunction;
        Cmu             0.09;
        kappa           0.41;
        E               9.8;
        value           nonuniform 0();
    }
    atmosphere
    {
        type            calculated;
        value           nonuniform List<scalar> 
45
(
0.009
0.009
0.009
0.009
0.009
0.009
0.009
0.009
0.009
0.009
0.009
0.009
0.009
0.009
0.009
0.009
0.009
0.009
0.009
0.009
0.009
0.009
0.009
0.009
0.009
0.009
0.009
0.009
0.009
0.009
0.009
0.009
0.009
0.009
0.009
0.009
0.009
0.009
0.009
0.009
0.009
0.009
0.009
0.009
0.00925956
)
;
    }
    defaultFaces
    {
        type            empty;
    }
    procBoundary2to0
    {
        type            processor;
        value           nonuniform List<scalar> 
46
(
0.0128243
0.0128452
0.012847
0.0128313
0.012799
0.01275
0.0126835
0.0125972
0.0124875
0.0123491
0.0121742
0.0119524
0.0116711
0.0113167
0.0108778
0.0103489
0.00973569
0.00905718
0.00834453
0.00763486
0.00696442
0.00636715
0.00588333
0.00557151
0.00549494
0.000151592
0.00120408
0.00278548
0.00435751
0.00577637
0.00701069
0.0080653
0.00895772
0.00970892
0.0103392
0.0108667
0.0113068
0.0116723
0.0119741
0.0122208
0.0124199
0.0125776
0.0126993
0.0127897
0.0128527
0.0128527
)
;
    }
    procBoundary2to3
    {
        type            processor;
        value           nonuniform List<scalar> 
43
(
0.00564031
0.0056615
0.00573421
0.00591132
0.0062299
0.00667406
0.0072035
0.00780157
0.0084693
0.00919427
0.00993243
0.0106157
0.0111772
0.0115738
0.0117932
0.0118538
0.0117922
0.0116493
0.0114606
0.0112526
0.0110423
0.0108399
0.0106505
0.0104762
0.0103176
0.0101744
0.0100459
0.00993126
0.00982968
0.0097403
0.00966225
0.00959461
0.00953645
0.00948676
0.00944451
0.00940868
0.00937829
0.00935256
0.00933087
0.00931268
0.00929707
0.00928246
0.00926859
)
;
    }
}


// ************************************************************************* //
