/*--------------------------------*- C++ -*----------------------------------*\
  =========                 |
  \\      /  F ield         | OpenFOAM: The Open Source CFD Toolbox
   \\    /   O peration     | Website:  https://openfoam.org
    \\  /    A nd           | Version:  7
     \\/     M anipulation  |
\*---------------------------------------------------------------------------*/
FoamFile
{
    version     2.0;
    format      ascii;
    class       vectorField;
    location    "0.009/lagrangian/dsmc";
    object      U;
}
// * * * * * * * * * * * * * * * * * * * * * * * * * * * * * * * * * * * * * //


10852
(
(-829.523 35.7907 410.398)
(-338.217 669.298 -199.795)
(214.386 -131.42 112.473)
(42.8324 456.426 241.922)
(524.62 102.797 48.6287)
(-308.028 -245.168 -98.3141)
(-364.871 -406.068 -308.855)
(-293.989 -401.143 -276.301)
(768.78 42.8543 -829.52)
(337.661 -16.291 -591.667)
(207.185 -517.086 -226.346)
(566.267 477.083 -64.8442)
(550.716 -189.924 -110.967)
(-167.142 -83.6682 174.658)
(108.438 -214.656 -191.116)
(454.561 42.3521 798.452)
(75.3461 -52.6372 -71.3758)
(84.2603 32.0881 -505.504)
(298.001 131.704 348.677)
(155.148 -120.39 235.905)
(282.834 -165.621 -62.6247)
(291.864 616.964 193.888)
(-63.6942 -112.601 401.216)
(-35.5966 572.499 96.8131)
(-399.32 -120.338 -268.695)
(-201.243 -362.885 -319.513)
(619.044 175.434 133.753)
(771.654 -311.432 402.149)
(564.591 -162.937 506.178)
(-306.988 315.234 -569.537)
(78.6824 -45.5186 -639.889)
(-54.8476 -251.874 204.591)
(-477.723 434.058 281.231)
(-428.543 -457.768 -67.9494)
(310.893 149.69 244.602)
(486.762 400.152 296.181)
(-72.8488 146.987 334.31)
(-11.9386 174.504 -145.963)
(-486.557 187.347 -73.9989)
(-279.963 -38.6242 15.104)
(-336.745 23.7638 -70.5901)
(243.828 -3.69277 316.868)
(22.7917 36.3558 11.0247)
(-241.249 -82.0301 -52.453)
(59.4443 9.42348 156.424)
(-169.996 140.817 -202.516)
(-404.891 -384.755 -512.435)
(62.6182 424.49 176.596)
(-13.5244 -370.665 170.545)
(-58.2997 -44.3385 130.618)
(787.27 335.711 -268.441)
(-286.18 -334.746 -101.14)
(285.806 77.2081 -273.662)
(182.948 448.758 193.54)
(672.528 184.242 -642.352)
(-67.3892 -429.316 148.697)
(373.316 97.1574 113.682)
(-244.851 288.53 -489.343)
(401.351 453.344 98.3161)
(-341.508 -344.974 -221.337)
(64.9067 337.403 157.89)
(-9.08173 137.324 352.121)
(156.156 -378.003 -563.322)
(-453.573 231.877 -303.63)
(-436.219 -593.242 -148.509)
(-127.434 -370.745 -175.915)
(-252.213 43.1284 -187.16)
(552.697 -220.407 -52.8642)
(-161.282 79.3907 0.417559)
(-129.61 -458.999 406.697)
(131.788 61.7135 -250.776)
(203.886 246.38 109.852)
(595.547 -140.268 408.526)
(-810.838 656.304 -56.9305)
(200.606 -492.562 2.56433)
(-174.914 258.242 117.425)
(5.75104 -130.806 -930.919)
(-71.3779 -181.517 621.054)
(-134.332 271.816 239.014)
(414.072 95.8979 81.9779)
(172.8 496.129 -176.76)
(-191.898 21.7494 -458.495)
(10.8039 -66.4521 497.331)
(-309.591 98.5095 -334.64)
(-442.9 -197.86 410.629)
(-36.9264 -392.405 484.312)
(-322.795 187.754 -256.189)
(-216.196 371.811 -450.944)
(-101.604 -176.056 -87.1816)
(534.471 1203.15 32.7454)
(130.252 90.7487 376.57)
(823.075 -457.092 25.3031)
(390.081 -707.008 629.038)
(-302.98 -191.744 -56.7487)
(-484.804 334.103 -80.297)
(153.069 509.041 -327.008)
(-264.806 -768.942 246.639)
(128.073 -299.808 84.7777)
(-0.192652 -231.463 85.8345)
(370.407 -498.249 153.825)
(-135.967 569.383 -880.965)
(-47.2214 191.976 -244.506)
(425.069 63.9357 488.319)
(-69.6027 10.9527 250.08)
(414.442 -268.261 664.986)
(-427.06 -86.3949 -246.775)
(822.669 518.183 -58.3211)
(614.359 141.674 -268.223)
(-25.1189 112.537 303.136)
(201.241 3.04286 -338.765)
(243.569 -839.16 -57.3878)
(263.883 118.644 827.995)
(160.474 -187.402 247.663)
(132.03 -226.286 390.191)
(-97.8624 155.434 -99.3683)
(-157.832 -64.8017 -101.985)
(-252.374 164.263 -98.0531)
(389.73 -492.234 -189.937)
(-272.001 -525.595 511.101)
(-145.103 -198.599 -299.308)
(202.104 45.6012 -46.3472)
(-298.23 -135.468 -7.19573)
(483.366 165.111 -140.132)
(-318.826 107.25 -137.183)
(131.844 -125.958 269.041)
(-271.302 -255.616 259.273)
(-266.045 -184.41 65.853)
(-136.934 27.2681 204.668)
(510.312 -450.614 -281.041)
(-165.048 -398.746 -137.673)
(681.343 -69.2646 237.06)
(-278.97 -71.8794 -130.632)
(-338.085 -523.345 -452.68)
(624.007 -118.524 85.0771)
(-314.087 -16.7343 -11.1042)
(-636.095 -200.228 180.386)
(-218.153 312.811 -84.4838)
(-83.4656 114.846 -153.295)
(-49.8332 -31.2877 378.587)
(-240.49 -463.23 -279.795)
(152.297 -326.557 -58.5036)
(-37.8682 -58.0216 478.574)
(-46.943 -214.907 -108.287)
(-297.274 317.825 -542.228)
(45.5637 -246.118 -163.593)
(-190.785 743.758 42.1299)
(-203.753 159.931 712.45)
(1.9188 257.642 253.476)
(65.4373 601.999 106.754)
(-277.789 302.717 -199.871)
(-9.6695 -130.376 459.952)
(-28.5898 -206.587 502.856)
(18.8555 -65.4007 216.098)
(-8.25934 -680.441 685.052)
(13.203 897.111 -27.3406)
(142.205 -372.095 212.67)
(-242.959 -72.4623 -85.1851)
(-142.198 67.4669 -405.159)
(245.137 4.35232 -134.573)
(700.595 158.855 -26.2015)
(-695.263 542.135 -489.364)
(321.368 381.823 199.414)
(-604.838 -104.083 316.419)
(-675.837 -49.8972 53.2545)
(-404.925 120.027 37.2096)
(425.891 32.9613 -5.88204)
(-453.629 -316.367 438.774)
(-144.232 202.652 -111.997)
(-88.698 738.604 499.329)
(-477.458 -423.955 -174.165)
(-319.772 157.163 -27.9351)
(1203.12 -74.4393 288.176)
(149.052 -184.852 90.5317)
(-343.462 -27.1819 210.086)
(74.3557 -558.363 149.128)
(-31.5477 29.8177 15.0653)
(188.794 27.7529 371.229)
(141.691 162.494 -64.3389)
(-107.4 -250.391 309.172)
(-1008.02 -436.051 -516.132)
(-430.892 425.817 2.14199)
(307.269 80.347 623.5)
(403.057 -283.895 -306.64)
(-88.5111 552.121 399.354)
(-399.77 299.719 679.219)
(184.442 -530.913 -142.31)
(433.061 887.536 153.057)
(387.761 -528.604 445.035)
(137.222 79.7074 482.738)
(372.357 496.02 160.768)
(-39.5342 64.8335 116.598)
(-21.403 156.127 -92.0342)
(49.6785 -273.038 -653.889)
(48.0328 -379.173 -39.2932)
(49.732 141.527 8.75868)
(-471.734 -329.137 -147.992)
(-91.7873 126.246 352.798)
(-42.8317 120.545 -50.2655)
(-180.958 -388.513 254.771)
(18.0438 -180.701 37.8337)
(-45.537 -41.275 -147.083)
(747.357 -165.399 -355.448)
(-134.161 59.5801 -509.091)
(261.525 -300.542 451.678)
(-738.294 -146.617 -32.7727)
(-24.5348 231.315 -600.584)
(-216.467 -286.047 255.707)
(-398.147 -108.073 565.471)
(-234.168 -355.866 -135.586)
(127.688 -82.9177 385.076)
(-115.489 -524.884 288.432)
(421.898 325.139 -82.9313)
(37.9699 459.986 -329.395)
(-196.472 -322.022 -203.57)
(-294.414 64.0624 -282.04)
(-54.163 196.534 154.1)
(78.1577 -148.976 -184.138)
(236.324 671.582 -96.859)
(315.512 -596.008 264.938)
(655.518 539.305 -138.287)
(-684.36 33.2895 -51.0412)
(75.8357 475.103 352.398)
(328.648 -634.837 -424.57)
(-360.306 -682.194 161.065)
(350.387 27.3662 -197.807)
(6.34015 181.927 192.43)
(272.971 56.6585 -777.369)
(-24.7001 -473.724 -306.02)
(176.12 527.658 -8.33748)
(30.6493 -340.667 -1071.26)
(381.884 -197.046 -937.831)
(-16.2417 -1007.71 770.943)
(-684.384 -173.949 -228.394)
(403.437 -108.23 -246.804)
(-653.076 71.1361 255.532)
(-566.832 342.489 -115.358)
(75.4176 -211.985 33.7938)
(40.1762 -42.8436 -4.5625)
(230.942 544.505 184.05)
(50.5578 169.768 223.082)
(218.838 -183.309 -235.921)
(376.622 -43.61 -243.574)
(-92.5998 -270.419 -52.968)
(100.327 98.2979 -62.8075)
(-62.492 418.821 648.481)
(432.583 -386.57 -464.135)
(45.1514 189.959 -189.308)
(-10.7433 -255.107 183.008)
(310.111 -754.838 2.46213)
(459.466 55.7139 8.85481)
(-507.281 215.672 -93.8676)
(-352.448 123.984 -11.8886)
(-24.2814 678.524 52.0558)
(479.217 -28.193 630.557)
(415.552 43.8396 -44.4647)
(120.152 628.054 -204.318)
(-462.975 273.096 289.346)
(-62.7737 152.575 -379.396)
(-87.1931 319.549 63.3883)
(-360.16 -543.904 -148.494)
(-330.857 251.624 -243.112)
(-263.844 192.496 247.461)
(245.777 145.699 632.145)
(-645.367 197.501 189.297)
(-197.649 187.436 -190.657)
(-200.573 399.782 -38.3631)
(-243.182 28.4594 184.887)
(-27.6844 328.24 -411.266)
(323.816 401.968 255.939)
(-543.016 -232.608 -459.976)
(299.554 493.974 193.697)
(320.441 -137.042 251.048)
(-29.1181 -33.2342 73.0054)
(387.603 -12.0513 -604.865)
(-517.996 -176.178 -103.599)
(6.94639 171.382 124.827)
(609.447 -166.061 -288.534)
(-275.502 290.355 -247.643)
(-471.901 46.3305 165.155)
(71.9748 246.417 313.682)
(-277.668 250.796 278.023)
(-452.834 50.4522 -398.485)
(-115.299 434.494 314.291)
(233.874 -67.0703 -429.903)
(-182.018 236.454 142.671)
(143.564 207.98 396.572)
(-781.492 -241.906 -703.942)
(-642.185 -171.894 28.0979)
(239.455 -728.865 -99.1734)
(-89.3559 59.5712 212.445)
(383.401 396.998 226.426)
(123.472 -333.479 611.5)
(260.555 336.743 21.6605)
(-110.715 527.271 264.317)
(-311.613 -341.299 576.166)
(-463.72 330.475 138.163)
(489.948 460.354 88.8841)
(-38.3201 -205.745 -304.389)
(-53.7857 3.55327 -634.484)
(516.489 -106.322 20.4113)
(-372.452 -276.471 -334.756)
(-571.954 -32.2945 -53.2432)
(31.8035 623.349 -3.36035)
(40.6434 580.551 304.977)
(44.9881 72.4268 162.611)
(663.89 -501.23 -201.837)
(529.028 -357.198 458.06)
(-84.1536 48.2023 -21.8721)
(478.981 -173.403 -165.164)
(-48.5052 -57.6065 131.689)
(-66.5715 186.969 9.89662)
(606.245 161.678 197.126)
(137.695 -172.855 134.824)
(241.675 -356.431 126.102)
(49.821 70.0486 -211.407)
(-37.1113 354.892 368.21)
(-7.06428 507.515 -545.306)
(179.725 -255.797 79.2395)
(78.821 430.366 -189.207)
(115.002 341.112 -622.124)
(356.429 -560.888 48.2848)
(-122.815 -130.849 -105.074)
(631.58 149.175 -36.4748)
(331.064 293.087 344.623)
(-473.832 -68.6061 -224.763)
(-39.7384 -344.449 195.704)
(199.509 -37.8799 -390.52)
(398.944 -194.261 787.596)
(79.3761 172.478 120.576)
(-234.515 -344.517 662.474)
(-49.3382 191.473 22.0825)
(475.244 389.489 118.689)
(-308.575 -193.043 601.182)
(60.4342 -163.125 -24.3198)
(-472.633 -45.2165 -223.149)
(276.689 -460.248 66.9621)
(345.319 -7.11791 -512.863)
(-150.666 214.39 349.654)
(115.987 164.01 209.037)
(-63.6374 -176.905 -195.37)
(-108.293 -341.878 265.725)
(-138.266 247.802 402.838)
(60.441 -411.466 -122.225)
(36.5274 -114.342 -486.16)
(12.4908 -756.66 65.4958)
(-465.197 243.137 364.921)
(420.637 51.7403 330.532)
(71.0602 255.545 -274.186)
(412.549 438.236 145.569)
(-346.831 -123.134 -197.801)
(455.626 -217.672 -511.771)
(250.717 455.493 555.416)
(39.143 275.228 524.755)
(263.525 140.425 267.492)
(363.236 -125.157 573.596)
(209.365 -323.624 160.168)
(445.022 -575.429 298.127)
(13.8198 801.297 254.082)
(279.167 -437.893 -99.2611)
(163.52 -359.34 230.789)
(279.853 -133.608 178.521)
(1241.09 -34.6607 -31.2165)
(166.469 36.7549 39.6137)
(276.593 395.351 -900.646)
(371.039 -161.984 -292.57)
(526.608 161.691 -110.387)
(-435.717 -578.518 99.8118)
(-312.218 702.903 -51.794)
(309.371 325.183 444.526)
(-137.666 -256.032 506.809)
(39.7857 -108.5 39.5431)
(-616.904 805.59 -123.375)
(-235.187 -233.052 -326.766)
(278.263 -128.8 -100.199)
(123.169 -163.382 364.706)
(-297.468 -82.9078 -49.1813)
(-108.012 72.3508 531.469)
(-182.712 48.3283 273.106)
(491.153 491.215 -25.6674)
(98.5187 -271.133 249.371)
(127.783 -138.671 349.256)
(71.0814 -189.153 -8.88634)
(-3.3208 230.488 255.153)
(704.326 147.324 -431.906)
(-538.862 -597.909 -200.083)
(382.646 493.738 80.8315)
(-120.685 -128.558 -289.878)
(-114.025 -408.009 -198.577)
(57.9027 425.433 -307.439)
(-571.668 -187.932 589.092)
(89.964 -98.8089 -375.972)
(-451.49 -293.61 544.678)
(-1212.83 263.203 71.0829)
(-209.594 483.506 -1067.31)
(-552.168 -140.837 -501.793)
(-717.042 41.5828 -413.346)
(655.756 -11.1426 573.545)
(131.045 499.905 325.692)
(154.488 -249.08 -773.93)
(404.212 46.3197 -178.634)
(-479.53 -86.4787 -423.503)
(-484.333 -362.434 57.8298)
(305.433 -22.9179 -279.592)
(1.67125 624.177 294.416)
(-4.9588 207.011 487.116)
(-193.162 -136.569 116.01)
(41.1391 -367.659 214.565)
(-621.362 39.6095 247.42)
(-561.426 92.1995 -275.413)
(-579.202 369.368 32.6634)
(274.271 -378.656 354.068)
(193.389 -111.675 -320.17)
(-32.4916 -50.1238 -337.334)
(23.9566 223.432 -254.121)
(28.9059 -71.7401 298.208)
(197.251 192.956 368.777)
(-330.111 -68.7057 143.401)
(-400.881 573.384 -417.084)
(-49.3342 356.896 -573.08)
(-791.204 -452.884 232.146)
(-391.509 582.243 79.5931)
(-91.0346 302.6 -168.106)
(304.264 -297.019 -226.929)
(234.29 54.1298 -514.255)
(-318.495 107.985 -346.385)
(-13.6297 155.464 207.503)
(-85.3575 -208.986 170.01)
(-257.087 -534.287 376.545)
(199.532 -157.455 -180.817)
(-230.874 553.706 -560.977)
(-300.862 -114.483 -413.733)
(-1.09175 -51.6725 154.634)
(45.4357 -121.732 -75.9602)
(-272.461 595.832 -409.726)
(-59.098 296.89 509.308)
(317.764 -544.834 363.34)
(17.4871 113.356 217.161)
(564.062 298.781 -144.603)
(515.558 566.961 -36.0437)
(110.019 -404.503 19.1421)
(440.705 -550.182 297.51)
(11.5273 64.6468 -67.6169)
(-68.9924 -100.653 -479.326)
(-255.775 -526.211 -132.368)
(-544.108 -532.944 -136.86)
(263.696 183.745 -703.368)
(-325.305 -95.2871 6.99538)
(93.2323 -292.71 -354.017)
(88.1738 -367.74 124.426)
(-291.656 -124.965 -324.986)
(-146.145 -348.487 -168.067)
(-164.813 13.5626 -4.72721)
(-47.2661 -148.933 78.3435)
(226.655 127.79 21.8315)
(91.6804 292.29 -161.252)
(584.905 259.304 480.019)
(320.091 449.315 219.429)
(-297.283 88.7648 370.515)
(106.953 519.81 -264.011)
(-248.621 147.213 -801.104)
(159.659 173.525 -254.908)
(-584.6 -377.224 -53.7721)
(-31.4894 -360.29 314.374)
(557.417 126.625 -303.849)
(-35.1896 612.469 -91.6811)
(694.692 -524.801 68.494)
(-253.751 -168.848 -71.171)
(80.8199 366.034 -175.454)
(-17.4431 -248.651 -133.603)
(310.59 9.90292 -68.8857)
(114.055 540.216 -617.839)
(451.558 79.4199 84.2217)
(-254.764 -312.969 140.916)
(689.738 38.1828 -509.858)
(-6.45719 476.048 174.496)
(-547.727 -41.818 -619.524)
(-33.5088 -328.271 -360.327)
(-628.677 -145.548 -171.122)
(577.914 -216.742 5.77563)
(-226.757 -14.2821 662.869)
(-179.037 -362.621 -900.312)
(148.121 188.517 525.19)
(-531.355 446.058 -188.912)
(-184.725 783.616 560.603)
(71.4517 90.5361 -244.386)
(-393.139 -214.815 903.602)
(-288.68 -74.1085 84.0666)
(427.354 -7.83823 89.7944)
(-137.921 621.577 -226.201)
(-271.077 83.8162 -237.76)
(-485.678 -249.537 188.252)
(323.864 15.0309 -37.3082)
(-170.948 -483.25 15.7014)
(525.934 -700.749 -513.572)
(-220.305 511.208 -426.548)
(-734 3.45343 160.914)
(517.971 397.782 7.38986)
(790.701 -88.4916 -433.08)
(-215.306 -35.1921 -27.6618)
(-202.781 60.2268 -689.054)
(-128.207 471.639 0.75807)
(346.416 -459.172 104.012)
(-464.33 184.863 -295.059)
(-119.17 335.672 -185.028)
(-236.47 -53.6104 -216.13)
(258.841 210.478 -0.369401)
(-108.618 -523.009 745.299)
(128.671 164.239 70.3359)
(88.3874 -166.534 363.862)
(-187.959 546.676 -409.911)
(-12.8871 78.2716 78.9079)
(-296.406 -413.324 -122.443)
(-185.387 317.382 201.139)
(36.6511 225.263 248.978)
(-138.819 -149.484 -157.906)
(96.8654 376.955 -38.2248)
(-158.408 208.917 311.845)
(244.755 -416.606 -268.078)
(232.264 -573.446 695.661)
(427.833 302.619 446.689)
(-525.047 141.199 194.794)
(-438.836 -14.9015 242.974)
(-339.677 -249.321 142.348)
(40.6555 39.6866 -72.7274)
(410.925 -32.907 -246.42)
(301.106 149.605 204.346)
(311.96 497.334 -175.965)
(208.618 441.008 -861.815)
(523.366 466.754 -489.916)
(331.941 183.768 -39.2821)
(331.983 -229.006 361.658)
(-319.505 -614.941 -214.205)
(-383.615 -347.299 -213.106)
(153.146 213.058 381.652)
(-441.569 192.05 -490.246)
(205.982 279.492 294.66)
(-375.636 -587.04 -167.498)
(52.9349 -18.2733 24.1615)
(-276.669 -255.061 13.9212)
(151.255 335.789 -510.793)
(-902.167 86.413 521.369)
(-336.146 243.721 165.289)
(245.571 681.752 392.815)
(441.352 -149.963 -78.3566)
(300.399 -222.736 -88.7267)
(216.286 55.2809 -393.722)
(472.306 74.4744 272.631)
(516.675 -340.898 324.842)
(-220.534 461.191 -154.688)
(165.631 544.489 393.792)
(105.909 -179.198 121.057)
(-18.3083 973.06 -360.14)
(226.332 31.1521 435.901)
(110.515 304.313 -105.657)
(-217.606 587.269 233.131)
(-111.326 255.656 120.635)
(539.407 -394.083 268.039)
(-109.318 -770.418 -705.843)
(-340.343 242.034 281.288)
(-142.146 -397.824 242.4)
(-299.312 263.681 -398.139)
(-246.855 227.309 -30.2623)
(53.218 -243.686 734.471)
(-186.827 -53.0403 -33.335)
(180.991 -635.651 -388.417)
(-247.493 -560.206 221.178)
(161.299 476.781 -263.537)
(-497.816 -764.776 100.838)
(-112.34 -560.406 -156.337)
(518.504 712.368 -515.183)
(69.9772 -295.85 -392.305)
(-437.832 548.573 -227.959)
(400.375 187.972 -92.1938)
(409.869 -174.233 231.929)
(-306.355 -258.745 -395.242)
(98.1599 177.846 59.3354)
(142.482 -541.562 149.674)
(529.461 -107.65 427.052)
(273.611 661.365 -246.16)
(-80.9831 -210.647 361.169)
(91.5063 58.1942 -281.817)
(-297.946 202.072 -34.3918)
(228.612 -167.297 -305.381)
(-689.825 31.2208 -189.879)
(283.254 352.903 -27.0722)
(-300.504 296.642 740.784)
(-505.543 -323.676 33.2838)
(-406.829 -431.309 -69.8733)
(247.108 387.524 201.387)
(-123.269 360.182 838.339)
(567.062 239.41 -543.87)
(-501.942 313.784 -194.413)
(-507.688 0.784675 -288.954)
(132.562 129.477 -246.84)
(-130.542 204.644 -254.113)
(-374.57 228.125 255.774)
(-180.301 840.633 -244.475)
(-308.203 -59.724 34.2233)
(-236.082 288.544 -389.121)
(-221.143 19.701 95.7177)
(-77.1332 186.905 -550.68)
(262.413 -37.8115 526.918)
(324.947 322.112 -216.568)
(-810.339 -743.188 -185.848)
(-445.136 -920.402 -292.237)
(1.64785 2.29744 -225.883)
(-478.933 1105.07 -94.4842)
(-320.555 -557.323 -547.076)
(60.0868 -97.9825 162.235)
(383.672 -274.004 -112.434)
(-78.7652 -638.804 39.907)
(-192.532 150.181 -275.404)
(-283.544 -26.174 -701.806)
(-549.497 -75.3757 204.657)
(-330.331 -92.9739 356.328)
(-198.521 -613.031 313.772)
(91.7397 84.0731 -218.091)
(-41.348 -170.325 1.65974)
(741.62 -324.503 -263.285)
(342.481 156.318 -167.176)
(208.279 -528.366 -280.51)
(-134.736 -400.964 488.726)
(732.692 -244.172 30.2771)
(-205.679 -271.083 -238.9)
(-23.1047 -276.965 45.2703)
(-48.6943 -197.08 215.666)
(557.206 246.69 792.038)
(302.997 -93.7692 -233.471)
(379.567 785.742 -75.2053)
(-30.261 206.433 -325.679)
(422.574 -329.114 65.9847)
(518.76 -135.867 198.824)
(616.841 -8.79685 412.026)
(-263.198 -221.132 340.264)
(-370.889 236.047 201.694)
(-133.348 89.4649 -233.679)
(190.823 43.0313 -149.084)
(-287.092 -176.698 -311.851)
(-79.3823 190.808 81.6334)
(74.9448 -168.27 -199.576)
(-1016.92 -567.689 -243.468)
(-174.123 526.998 459.163)
(460.503 -371.669 366.979)
(454.765 -700.625 35.5368)
(-221.346 -278.321 -315.362)
(459.792 432.977 -327.738)
(207.919 -374.236 783.887)
(349.164 -727.883 -235.458)
(-306.189 381.688 -310.788)
(207.014 -330.108 -315.379)
(-368.356 -278.258 124.706)
(121.214 222.939 -993.914)
(-81.3419 -198.072 122.58)
(-130.062 -113.266 81.5474)
(-262.181 -156.748 -344.585)
(-68.9696 -267.723 183.706)
(479.074 -211.725 -528.553)
(-12.8782 -311.368 -310.109)
(-544.465 -114.012 262.026)
(-364.341 -134.641 -210.675)
(121.125 159.499 -338.625)
(240.832 176.57 284.014)
(-173.321 -209.429 21.6684)
(-170.962 -568.315 21.4815)
(117.12 583.89 81.0295)
(400.89 -627.465 -304.648)
(87.6752 -432.403 -597.883)
(-65.0648 407.625 454.516)
(-254.65 150.404 -302.671)
(-218.654 -334.09 482.789)
(424.775 -116.261 320.558)
(-384.971 -5.35868 -559.023)
(-40.1024 -446.407 -168.052)
(372.963 -75.7868 -1027.43)
(-226.905 72.8217 -298.277)
(-790.576 -200.62 758.157)
(357.057 -164.007 126.941)
(-522.881 479.644 -495.007)
(-47.1948 36.122 -265.447)
(379.5 627.759 -117.262)
(337.437 -229.348 296.158)
(1.0288 -88.7914 -137.985)
(321.42 556.869 -67.9536)
(-73.683 -280.3 -536.117)
(485.189 253.797 -65.8255)
(22.9804 -304.116 102.599)
(-98.8508 -288.251 -408.122)
(-149.015 -237.593 501.668)
(233.923 -181.754 -461.746)
(-533.255 -130.612 -8.4322)
(-236.494 -4.28741 511.588)
(-308.428 194.518 116.947)
(-358.377 164.119 -356.066)
(434.146 -65.1143 132.836)
(-108.825 224.752 -1069.19)
(-376.951 292.42 362.156)
(-286.362 -236.045 -71.8072)
(284.513 -38.4937 397.78)
(-679.546 32.0352 -246.156)
(222.031 320.779 86.2932)
(-652.476 544.236 350.307)
(-33.8302 -0.276245 -279.403)
(114.717 -776.581 443.48)
(-399.688 117.327 225.856)
(724.393 -17.5173 474.011)
(-583.671 284.53 -213.568)
(11.2168 -527.031 99.437)
(279.938 -177.863 -139.75)
(-576.09 448.642 324.384)
(-411.532 260.068 -144.338)
(-220.328 -150.397 -26.8509)
(480.402 -254.469 -748.96)
(32.8626 153.867 598.99)
(-193.264 -390.3 134.338)
(-192.982 3.0442 -137.746)
(-136.838 -46.7019 226.129)
(136.233 381.257 336.154)
(-230.573 990.545 403.41)
(-153.818 -35.6266 270.198)
(-358.575 94.5207 -100.679)
(468.714 11.0604 390.199)
(294.415 433.251 -63.9378)
(-364.323 -265.864 -216.524)
(-396.186 -169.896 -694.475)
(36.326 -344.212 -35.4615)
(459.095 174.889 115.43)
(45.6097 -226.083 63.5749)
(-192.259 -438.035 -453.854)
(366.611 334.345 -366.369)
(-32.7777 -7.4635 73.2072)
(-26.68 405.883 -265.45)
(-261.589 2.39573 108.04)
(-623.874 474.017 -79.317)
(367.774 695.765 471.442)
(-569.241 418.146 67.8526)
(-135.322 291.296 623.401)
(337.328 -204.001 165.567)
(-194.548 249.696 -522.686)
(474.305 -229.411 -605.698)
(-438.142 125.022 327.826)
(676.971 595.805 273.415)
(-33.5353 -247.482 -190.166)
(7.56064 275.772 -289.955)
(151.421 269.414 -73.9145)
(225.404 331.152 -47.1621)
(14.6114 -566.177 -119.05)
(-10.2909 -689.322 -570.706)
(315.217 40.5998 655.029)
(-158.878 -230.141 328.495)
(-234.323 -330.539 268.314)
(101.904 501.537 -490.697)
(395.642 425.111 -376.911)
(-506.623 -709.509 470.348)
(250.264 147.748 290.377)
(192.879 -54.9145 -243.29)
(594.119 352.024 95.7896)
(514.924 371.15 220.996)
(-8.25601 492.953 -348.877)
(-68.8382 -303.659 179.107)
(320.606 -323.491 215.405)
(-600.498 414.035 -152.03)
(65.1783 286.077 -50.5102)
(183.389 360.821 -868.193)
(354.565 712.471 -419.447)
(280.965 -403.98 -172.509)
(-320.09 230.659 -53.7796)
(389.835 -65.6273 -196.38)
(222.273 -122.713 -266.822)
(-279.079 364.927 300.291)
(612.66 -396.32 6.60177)
(-530.751 103.876 562.345)
(-178.612 -177.451 92.3745)
(619.012 -388.101 -149.754)
(15.0479 -262.883 -160.529)
(578.312 -113.018 -406.329)
(-81.4857 55.4784 -130.603)
(-380.867 -238.741 436.063)
(269.949 7.27803 -509.472)
(59.2236 215.167 528.901)
(-460.524 -204.483 58.7603)
(312.072 746.678 102.712)
(32.7298 -0.382066 275.839)
(-231.57 37.9872 137.951)
(160.54 -238.58 686.677)
(181.765 -385.978 137.322)
(610.192 42.387 228.118)
(-22.8543 -42.7766 -293.04)
(595.679 -83.5251 527.46)
(763.645 259.974 106.977)
(-627.884 81.8549 200.6)
(5.69561 296.634 -127.259)
(-193.71 -223.546 166.235)
(-50.6753 435.049 -78.5126)
(482.347 -142.872 -478.335)
(22.1397 -233.576 477.966)
(535.024 14.6549 -549.888)
(357.506 224.28 -121.286)
(735.708 75.7754 444.399)
(-376.156 20.5405 398.169)
(-314.725 96.777 246.527)
(450.061 -56.0467 120.284)
(528.582 -481.435 189.343)
(-283.175 -119.273 345.083)
(123.787 -19.5973 -419.623)
(239.908 -187.007 -344.983)
(178.063 215.096 405.928)
(391.606 -337.809 -399.981)
(-92.8391 -233.094 129.542)
(770.189 172.524 -38.0158)
(61.6956 707.494 175.986)
(-321.431 -91.3183 -10.2258)
(-773.552 -34.7835 -342.445)
(64.9629 179.332 -48.5434)
(155.013 75.3503 245)
(398.42 -98.2633 -67.8431)
(92.5642 51.117 -142.65)
(250.556 -355.758 30.2822)
(-225.927 -809.938 -195.32)
(278.135 336.149 -163.68)
(-149.437 206.99 -426.605)
(419.829 28.8913 -111.201)
(-41.5194 -47.7946 95.9949)
(37.6874 -381.156 522.123)
(58.0207 83.6772 697.07)
(13.2415 215.785 41.2718)
(43.9069 -294.832 -444.835)
(-61.4082 -172.206 207.41)
(-84.397 77.056 112.887)
(429.861 -136.558 -6.75836)
(-390.462 -325.832 335.378)
(741.595 190.358 282.905)
(695.953 406.939 14.3632)
(-658.041 473.287 257.284)
(317.18 170.52 561.155)
(533.438 364.372 -147.855)
(369.445 -383.976 -610.19)
(728.248 486.29 373.024)
(262.377 -942.113 497.363)
(-100.999 -30.6961 -134.211)
(-792.734 237.4 112.984)
(-0.507436 396.053 -481.539)
(-393.395 -209.566 -88.9658)
(-207.429 -122.844 -158.164)
(-75.9115 -12.9143 -80.7468)
(335.162 91.8199 -554.374)
(466.116 -666.629 356.313)
(-233.975 -24.4827 -120.277)
(-437.491 -114.006 7.34127)
(-357.116 -283.018 249.429)
(-39.6457 305.929 234.201)
(-478.581 117.258 357.925)
(191.486 -279.025 -103.792)
(455.123 455.826 462.204)
(136.299 594.91 -199.059)
(-41.4034 -902.421 -422.803)
(-378.478 -536.373 73.5058)
(-338.923 -275.717 408.78)
(468.872 667.116 -604.003)
(-443.257 -248.628 -6.28806)
(-190.254 103.934 115.933)
(144.017 245.354 -239.464)
(-92.4933 -104.558 263.408)
(-131.473 -170.938 281.158)
(98.9333 -893.992 -19.5161)
(-55.4186 697.182 -300.148)
(-320.234 263.367 468.621)
(111.076 -56.0716 652.198)
(5.0566 611.265 -29.8506)
(-53.8134 -354.076 -379.827)
(182.883 175.739 42.568)
(-579.69 -314.233 -62.431)
(-470.537 150.721 -255.474)
(-84.9713 55.1977 465.311)
(235.818 18.7331 -811.785)
(38.2912 -139.502 620.777)
(-478.866 -215.361 170.856)
(1.67015 322.567 -156.946)
(-307.985 664.437 -392.792)
(435.503 -139.998 -65.3375)
(223.867 410.607 -777.12)
(362.441 -210.524 -798.743)
(-257.01 28.0262 163.816)
(17.649 217.207 -297.801)
(-764.938 -192.454 -548.876)
(-6.53037 65.8082 -149.248)
(-288.94 738.326 -448.82)
(308.582 633.598 542.361)
(-107.43 -2.82821 -295.322)
(-226.43 319.226 -88.2462)
(-339.319 -53.2418 -62.0026)
(-302.674 333.426 -52.7508)
(-558.264 -38.0288 -606.182)
(551.182 217.119 27.2117)
(-199.007 191.495 -907.703)
(1.72536 438.799 358.656)
(231.444 -434.772 186.177)
(10.9529 704.452 55.6476)
(331.793 196.068 147.269)
(323.418 304.92 -84.0547)
(235.427 -829.377 97.4766)
(390.014 -378.888 -640.684)
(24.3896 -480.328 -3.72488)
(-346.658 385.405 -116.638)
(-286.186 672.05 -114.358)
(-461.079 73.6316 -10.6561)
(667.279 -124.444 6.0474)
(434.517 -607.809 384.893)
(-135.149 -202.107 176.483)
(-239.702 852.071 832.067)
(-87.2961 451.981 586.1)
(612.85 -133.485 -486.665)
(254.65 -449.184 -117.862)
(-31.7476 64.6919 238.781)
(297.363 -386.307 431.483)
(-185.272 699.849 -249.376)
(-121.996 -352.311 325.035)
(982.494 -312.645 -207.845)
(-189.743 -316.778 589.387)
(-450.991 489.542 352.249)
(140.208 432.363 -265.884)
(140.07 5.04348 106.513)
(218.745 -234.01 -244.781)
(51.8425 191.594 485.076)
(602.462 13.0732 69.6661)
(-658.628 -208.18 375.571)
(103.662 -92.7544 -501.124)
(-242.965 -110.174 529.343)
(100.838 -539.414 -837.684)
(661.773 23.2804 -22.4595)
(410.666 -175.369 105.488)
(-36.7957 -23.8135 -203.751)
(-341.669 284.357 256.985)
(42.313 -95.5037 467.59)
(-315.493 438.878 -87.9744)
(247.303 -454.455 -225.99)
(-47.4436 604.19 -147.898)
(-108.377 -328.855 44.5997)
(-84.4649 45.6459 -422.62)
(-342.925 57.3628 -314.21)
(196.945 190.696 3.16409)
(392.73 -406.171 199.03)
(297.038 509.976 -17.0601)
(-119.895 -266.132 -68.8246)
(-23.4772 489.133 -28.5573)
(-622.096 265.901 148.803)
(-436.994 139.577 -41.1578)
(-87.7761 195.351 184.202)
(47.5833 -562.965 -701.684)
(199.515 337.26 -357.178)
(468.041 300.102 215.563)
(-304.543 247.912 191.121)
(-238.543 507.494 79.7137)
(146.805 300.66 584.872)
(-561.509 104.988 92.2483)
(439.624 -54.5455 135.514)
(42.7501 -487.79 -767.896)
(73.1013 -244.8 -264.855)
(-230.515 -96.0578 -506.232)
(44.1476 90.1204 152.608)
(100.831 -188.752 -124.465)
(7.77247 -14.5052 373.509)
(520.044 285.403 -151.718)
(-306.447 -283.78 191.276)
(-98.6308 -289.242 -312.048)
(403.207 650.987 -50.4225)
(-32.2899 561.042 129.854)
(-344.092 101.669 187.123)
(-232.573 242.623 270.548)
(-176.148 134.184 118.539)
(172.219 68.3575 291.585)
(-27.9517 135.06 -356.049)
(113.013 -42.4053 -372.725)
(-35.4168 576.474 -407.561)
(43.6827 836.926 -56.5655)
(-529.02 -254.194 -229.4)
(-388.438 321.818 -225.121)
(-132.808 -131.337 -281.089)
(663.86 360.409 56.0596)
(215.599 6.40747 372.721)
(-93.1865 381.505 -152.114)
(272.176 161.909 -354.988)
(-553.763 354.326 441.631)
(-48.0528 -229.989 -106.647)
(-368.493 72.3333 162.808)
(-64.1514 514.569 100.099)
(-213.372 -367.201 175.665)
(-116.056 552.951 -199.399)
(-517.506 1.63379 191.598)
(-203.599 128.882 119.435)
(92.7 -210.862 224.134)
(226.383 484.133 -44.0873)
(-58.8023 378.177 810.266)
(-398.614 -462.603 -146.29)
(439.754 -145.663 -156.656)
(-208.224 -29.7952 -95.5456)
(395.025 -99.2632 482.735)
(-33.89 309.514 -374.286)
(522.907 48.4867 -261.439)
(23.3747 -115.535 -225.446)
(-187.849 123.584 290.717)
(274.955 -389.384 43.895)
(0.642724 100.868 -453.296)
(-209.504 -322.512 514.548)
(-386.815 240.444 -548.111)
(403.03 94.4457 -147.019)
(-586.033 -372.149 -531.899)
(48.3999 480.17 97.0241)
(233.593 333.983 191.158)
(115.29 109.937 101.696)
(-21.2967 384.13 182.943)
(-437.978 -272.791 -470.089)
(413.796 133.921 -677.425)
(-244.565 -306.347 293.085)
(-700.155 -519.814 435.258)
(-500.063 -224.104 -355.806)
(217.469 52.4497 86.7187)
(44.7229 41.4064 -136.095)
(290.257 -32.9596 60.1029)
(-218.844 -408.892 -260.856)
(-556.853 -105.469 325.407)
(42.0198 266.135 177.968)
(622.435 -294.546 -353.431)
(-200.639 19.7912 201.347)
(215.998 360.707 -31.7196)
(-8.66139 -874.944 -323.152)
(155.322 429.682 -106.034)
(-72.4085 344.844 53.3842)
(-273.674 -525.564 -663.893)
(-262.005 -67.5524 -271.922)
(-690.431 -167.845 108.988)
(-391.571 367.167 57.3259)
(369.391 601.623 -183.835)
(-24.797 64.7394 347.494)
(-389.583 -851.944 -243.575)
(-380.123 451.606 340.036)
(224.619 377.051 19.997)
(356.669 9.59966 27.4915)
(383.416 -365.017 -116.516)
(-792.607 -83.634 -611.711)
(48.4707 394.286 -26.728)
(-150.484 681.468 -946.702)
(-896.683 262.085 -1141.04)
(482.9 168.283 318.187)
(-404.661 -307.016 46.4025)
(184.043 -366.952 221.728)
(-86.3189 -293.803 281.978)
(-485.774 -376.772 -178.968)
(-99.7993 452.562 -187.09)
(144.357 -438.172 -139.362)
(-537.149 497.726 404.331)
(-149.061 -123.307 -39.4097)
(-65.657 -298.091 4.18079)
(84.667 48.7326 505.015)
(-152.222 54.7199 260.174)
(63.7735 -215.171 307.149)
(446.353 -293.486 723.288)
(232.417 132.475 296.599)
(-165.459 -127.172 146.284)
(313.398 -0.660032 338.708)
(-32.61 -454.389 65.1007)
(436.391 -302.564 -202.452)
(63.0175 123.937 -156.028)
(-174.391 127.609 -168.749)
(424.508 311.996 164.923)
(-297.052 260.003 238.216)
(-335.525 738.175 97.8744)
(-103.378 118.077 198.186)
(-86.983 37.134 101.438)
(-210.959 -291.057 351.168)
(29.083 63.3434 -67.5237)
(-480.115 -13.7733 411.684)
(-577.629 -214.274 -100.505)
(1.12574 664.057 680.515)
(-204.481 -315.898 209.484)
(-280.688 181.359 113.678)
(-301.523 38.4358 175.955)
(252.222 68.2822 351.784)
(373.946 350.631 345.835)
(175.8 -123.277 339.936)
(-278.752 -359.418 -225.792)