/*--------------------------------*- C++ -*----------------------------------*\
  =========                 |
  \\      /  F ield         | OpenFOAM: The Open Source CFD Toolbox
   \\    /   O peration     | Website:  https://openfoam.org
    \\  /    A nd           | Version:  7
     \\/     M anipulation  |
\*---------------------------------------------------------------------------*/
FoamFile
{
    version     2.0;
    format      ascii;
    class       volScalarField;
    location    "0.0018";
    object      rhoN;
}
// * * * * * * * * * * * * * * * * * * * * * * * * * * * * * * * * * * * * * //

dimensions      [0 -3 0 0 0 0 0];

internalField   nonuniform List<scalar> 
125
(
4.71429e+22
4.60714e+22
5.10714e+22
4.25e+22
4.14286e+22
4e+22
4.32143e+22
5.5e+22
5.07143e+22
4.35714e+22
4.46429e+22
4.64286e+22
4.21429e+22
5.39286e+22
5.17857e+22
5.03571e+22
5e+22
4.25e+22
4.85714e+22
4.21429e+22
5.03571e+22
4.25e+22
4.53571e+22
4.10714e+22
4.71429e+22
4.78571e+22
4.39286e+22
4.32143e+22
4.42857e+22
5.39286e+22
4.82143e+22
5.25e+22
4.25e+22
4.92857e+22
4.25e+22
5.03571e+22
4.35714e+22
4.53571e+22
4e+22
4.42857e+22
3.92857e+22
4.14286e+22
5.39286e+22
4.71429e+22
5.17857e+22
5e+22
5.67857e+22
5.25e+22
5.32143e+22
5.67857e+22
5.57143e+22
5.64286e+22
4.67857e+22
6.17857e+22
5.64286e+22
5.35714e+22
6.82143e+22
5.5e+22
5.71429e+22
6.64286e+22
6.5e+22
6.67857e+22
7.14286e+22
6.28571e+22
6.60714e+22
6e+22
6.25e+22
6.32143e+22
6.39286e+22
6.82143e+22
6.17857e+22
6.82143e+22
6.35714e+22
6.85714e+22
6.46429e+22
6.75e+22
6.39286e+22
6.89286e+22
6.64286e+22
6.57143e+22
6.32143e+22
6.67857e+22
6.53571e+22
7.07143e+22
4.64286e+22
3.03571e+22
2.32143e+22
2.39286e+22
2.75e+22
2.75e+22
2.42857e+22
2.60714e+22
3.07143e+22
2.42857e+22
2.35714e+22
3.03571e+22
2.75e+22
2.75e+22
3.03571e+22
2.32143e+22
2.46429e+22
2.85714e+22
2.67857e+22
2.53571e+22
2.60714e+22
2.67857e+22
2.46429e+22
2.75e+22
3.14286e+22
2.96429e+22
2.5e+22
2.71429e+22
2.67857e+22
2.71429e+22
2.96429e+22
2.82143e+22
3.28571e+22
1.78571e+22
2.25e+22
1.92857e+22
2.28571e+22
2.25e+22
2.67857e+22
2.35714e+22
2.39286e+22
)
;

boundaryField
{
    sides
    {
        type            symmetry;
    }
    empty
    {
        type            empty;
    }
    procBoundary2to1
    {
        type            processor;
        value           uniform 4.46429e+22;
    }
    procBoundary2to3
    {
        type            processor;
        value           uniform 2.17857e+22;
    }
}


// ************************************************************************* //
