/*--------------------------------*- C++ -*----------------------------------*\
  =========                 |
  \\      /  F ield         | OpenFOAM: The Open Source CFD Toolbox
   \\    /   O peration     | Website:  https://openfoam.org
    \\  /    A nd           | Version:  7
     \\/     M anipulation  |
\*---------------------------------------------------------------------------*/
FoamFile
{
    version     2.0;
    format      ascii;
    class       volScalarField;
    location    "0.0018";
    object      rhoN;
}
// * * * * * * * * * * * * * * * * * * * * * * * * * * * * * * * * * * * * * //

dimensions      [0 -3 0 0 0 0 0];

internalField   nonuniform List<scalar> 
125
(
4.10714e+22
4.46429e+22
4.03571e+22
4.57143e+22
4.5e+22
4.78571e+22
5e+22
4.64286e+22
4.53571e+22
4.82143e+22
4.32143e+22
4.82143e+22
5.03571e+22
4.78571e+22
4.71429e+22
5.03571e+22
5e+22
4.46429e+22
4.28571e+22
5.07143e+22
4.67857e+22
4.57143e+22
3.82143e+22
5.07143e+22
3.89286e+22
4.14286e+22
4.57143e+22
4.75e+22
5.85714e+22
4.32143e+22
5.5e+22
4.53571e+22
5.14286e+22
4.25e+22
4.57143e+22
4.25e+22
3.89286e+22
4.64286e+22
4.39286e+22
5.07143e+22
4.64286e+22
4.75e+22
4.39286e+22
4.82143e+22
4.46429e+22
4.89286e+22
4.82143e+22
5.78571e+22
4.82143e+22
5.67857e+22
4.92857e+22
6.17857e+22
6.5e+22
5.96429e+22
5.53571e+22
5.21429e+22
6.75e+22
6.17857e+22
6.28571e+22
6.39286e+22
6.85714e+22
6.39286e+22
6.25e+22
6.07143e+22
7.10714e+22
6.53571e+22
7e+22
5.21429e+22
6.28571e+22
7.03571e+22
6.07143e+22
6.39286e+22
5.89286e+22
6.57143e+22
7.14286e+22
6.39286e+22
7.10714e+22
6.35714e+22
7.32143e+22
7.07143e+22
6.39286e+22
7.53571e+22
7.28571e+22
5.53571e+22
3.53571e+22
2.71429e+22
2.78571e+22
2.71429e+22
2.5e+22
2.64286e+22
2.17857e+22
2.78571e+22
2.92857e+22
2.71429e+22
1.89286e+22
2.35714e+22
2.32143e+22
3.10714e+22
2.07143e+22
2.64286e+22
2.89286e+22
2.71429e+22
2.60714e+22
3.07143e+22
2.78571e+22
3.10714e+22
2.78571e+22
2.60714e+22
2.89286e+22
3.03571e+22
2.82143e+22
2.92857e+22
2.25e+22
2.35714e+22
2.57143e+22
2.28571e+22
2.67857e+22
2.78571e+22
2.28571e+22
2.39286e+22
2.75e+22
2.67857e+22
2.75e+22
2.71429e+22
2.07143e+22
)
;

boundaryField
{
    sides
    {
        type            symmetry;
    }
    empty
    {
        type            empty;
    }
    procBoundary2to1
    {
        type            processor;
        value           uniform 4.17857e+22;
    }
    procBoundary2to3
    {
        type            processor;
        value           uniform 2.35714e+22;
    }
}


// ************************************************************************* //
