/*--------------------------------*- C++ -*----------------------------------*\
  =========                 |
  \\      /  F ield         | OpenFOAM: The Open Source CFD Toolbox
   \\    /   O peration     | Website:  https://openfoam.org
    \\  /    A nd           | Version:  7
     \\/     M anipulation  |
\*---------------------------------------------------------------------------*/
FoamFile
{
    version     2.0;
    format      ascii;
    class       volScalarField;
    location    "0.015";
    object      linearKE;
}
// * * * * * * * * * * * * * * * * * * * * * * * * * * * * * * * * * * * * * //

dimensions      [1 -1 -2 0 0 0 0];

internalField   nonuniform List<scalar> 
250
(
0.410097
0.415685
0.428401
0.441727
0.449387
0.461524
0.41812
0.41007
0.448736
0.435293
0.437438
0.421785
0.416673
0.411565
0.416718
0.448567
0.428472
0.441724
0.44302
0.438827
0.460931
0.429788
0.406541
0.425785
0.429744
0.448068
0.413475
0.418413
0.421662
0.41179
0.419797
0.463285
0.408007
0.430989
0.451134
0.433484
0.422828
0.424791
0.451476
0.455621
0.428473
0.426025
0.427126
0.454117
0.455281
0.404255
0.415999
0.428823
0.442037
0.430662
0.435502
0.439105
0.446929
0.452623
0.429666
0.421236
0.439643
0.445018
0.428713
0.423613
0.399996
0.425365
0.434179
0.439802
0.428873
0.437391
0.450481
0.436331
0.430225
0.431947
0.428204
0.438478
0.391191
0.437988
0.440315
0.433568
0.434994
0.411262
0.435956
0.441239
0.447536
0.426932
0.401408
0.433176
0.456546
0.449568
0.460636
0.454738
0.436749
0.416352
0.429283
0.433699
0.412424
0.439545
0.393454
0.444232
0.446837
0.445623
0.407893
0.413031
0.426221
0.415826
0.46352
0.430213
0.435486
0.435035
0.439481
0.446119
0.418688
0.433834
0.437094
0.425262
0.423993
0.431201
0.419767
0.44281
0.444186
0.440487
0.435681
0.441664
0.420805
0.426948
0.423984
0.436821
0.450013
0.429863
0.422613
0.427481
0.472672
0.457622
0.441612
0.438084
0.437885
0.422394
0.463087
0.433086
0.443116
0.425801
0.426556
0.442303
0.468133
0.439037
0.42777
0.409653
0.418578
0.448887
0.417715
0.438148
0.408514
0.445008
0.437647
0.415664
0.432057
0.425983
0.435777
0.444182
0.401813
0.461721
0.433858
0.459355
0.442646
0.444298
0.41252
0.423059
0.454371
0.413655
0.455332
0.435802
0.448438
0.434364
0.426032
0.411649
0.448676
0.448879
0.441788
0.418621
0.458947
0.427481
0.444678
0.444444
0.440266
0.440657
0.415766
0.418683
0.417359
0.426935
0.439247
0.442294
0.440973
0.472065
0.437256
0.440234
0.420511
0.437591
0.439621
0.404942
0.414786
0.388987
0.420085
0.428364
0.428415
0.42647
0.436542
0.425358
0.448613
0.445903
0.453284
0.417866
0.456241
0.412847
0.415797
0.45365
0.419912
0.413289
0.469612
0.458606
0.494142
0.434039
0.434687
0.432751
0.433764
0.445216
0.435555
0.446975
0.47287
0.414984
0.434436
0.44874
0.433907
0.41279
0.451939
0.447043
0.417427
0.491485
0.438112
0.445195
0.429837
0.437303
0.449353
0.462828
0.440962
0.469902
0.42593
0.452538
0.446114
0.470323
0.436454
0.443041
0.383762
0.426213
)
;

boundaryField
{
    sides
    {
        type            symmetry;
    }
    empty
    {
        type            empty;
    }
    procBoundary2to1
    {
        type            processor;
        value           uniform 0.462803;
    }
    procBoundary2to3
    {
        type            processor;
        value           uniform 0.43326;
    }
}


// ************************************************************************* //
