/*--------------------------------*- C++ -*----------------------------------*\
  =========                 |
  \\      /  F ield         | OpenFOAM: The Open Source CFD Toolbox
   \\    /   O peration     | Website:  https://openfoam.org
    \\  /    A nd           | Version:  7
     \\/     M anipulation  |
\*---------------------------------------------------------------------------*/
FoamFile
{
    version     2.0;
    format      ascii;
    class       vectorField;
    location    "0.001/lagrangian/dsmc";
    object      U;
}
// * * * * * * * * * * * * * * * * * * * * * * * * * * * * * * * * * * * * * //


63443
(
(105.198863 240.2074332 376.7977597)
(-68.91093131 181.6659294 -209.4521629)
(-124.9605652 -55.08032578 -162.4236151)
(-162.2729745 230.3668442 166.3881173)
(-115.3561586 -739.6914066 -115.8904708)
(622.0813736 198.7660443 -329.7622719)
(-362.5035792 -8.453486054 496.5735552)
(-173.7316258 364.7472353 183.2449483)
(414.6851602 42.27323346 29.42870132)
(-144.6447561 -177.6051139 -39.13332652)
(-199.2107068 4.723489207 191.3853877)
(218.4693091 255.8889021 -227.5497586)
(32.60933825 232.4466254 124.3895058)
(-318.7247145 62.22762269 -26.33572703)
(62.14249353 -81.39516372 269.5940657)
(-436.2532683 355.5301989 -88.72211708)
(336.0995615 242.705635 -704.2422042)
(1.824252658 96.85490989 -223.5701912)
(150.9918981 -198.6612027 386.7153296)
(102.6425479 -12.57234265 227.4096672)
(-70.44334795 216.1346946 -188.0096077)
(-66.36876979 -290.4715993 89.86892102)
(345.3511855 116.4224547 212.9250904)
(151.1951449 -608.6000568 234.6798445)
(43.03960927 191.0313533 -312.1041791)
(-66.25513964 470.5255055 -133.6925619)
(-129.7815445 106.0028545 -136.7700898)
(61.34587063 -100.9068039 -113.1402603)
(-18.25477206 130.9108496 -259.6605779)
(74.50973724 81.9139328 -29.75010675)
(-184.7579609 -86.77885038 444.4871037)
(-460.3602051 38.99159167 83.80362469)
(734.1442764 152.0644706 -157.2485089)
(-28.04243344 -232.8081762 147.9869294)
(-511.0457403 330.4536191 -398.4772701)
(-61.88976535 -317.276019 160.9100108)
(-514.1327586 -336.6244381 53.64041557)
(-148.3564819 -55.53434444 319.658774)
(218.3149486 334.0233142 51.64296577)
(134.8155875 101.4680046 110.753276)
(14.28661441 543.9832948 193.6203925)
(-65.42581373 -82.34616471 -130.1498978)
(99.79655192 205.6884318 121.2847161)
(-122.0008428 68.37538879 -332.6940094)
(237.8714602 238.1661801 242.0870274)
(150.9435586 -218.0267426 242.0541092)
(223.5699011 -189.0280176 -239.9360527)
(56.73116459 230.6707105 -353.8928874)
(-80.50486182 -275.2711854 28.39623635)
(98.20584031 -153.6463553 152.5414568)
(-326.4449241 -308.0778937 -385.2703649)
(73.71284545 49.87840522 -215.7813436)
(96.98200126 -70.38018084 -230.3871028)
(-72.47783805 -253.2338061 282.6390102)
(50.68098047 -57.76471737 113.4738332)
(436.5041988 67.82827039 15.49350337)
(-47.42503497 -111.9100177 -187.7399464)
(493.4618717 -378.0153667 165.7688232)
(242.1360657 -187.1127034 -704.0737185)
(381.2350437 55.63371898 -231.9687931)
(195.3398988 358.0390656 -356.5082887)
(-454.2799698 -216.8825041 508.207171)
(161.0700426 -395.0492284 74.93939025)
(612.3691081 189.1246907 351.6644234)
(-29.67352366 -144.9726253 -53.61182055)
(177.2319415 223.6794562 354.1273204)
(-145.8504687 -226.9973506 -126.2804594)
(303.6246217 -94.14596915 148.6294989)
(90.48153561 246.0957917 566.2337016)
(-162.9913227 -47.89457715 -242.7316936)
(-95.97692309 131.824258 -84.48227939)
(274.5241764 93.60536276 -83.71729546)
(62.95892429 263.6857464 -126.4711335)
(103.768439 -342.3018489 325.9847074)
(-57.20938124 213.60488 20.9177374)
(532.9356066 241.0198247 34.37278244)
(453.0770156 -113.6584179 -50.33710577)
(-347.8479244 -341.6719241 -124.4368798)
(-49.41533533 -388.1379799 -336.6835661)
(250.9603298 -39.86629556 183.2292994)
(298.5885843 -10.88716607 -542.0999053)
(-65.9196899 -55.05398247 130.9881957)
(366.3358544 -23.98045018 182.158326)
(-144.8850326 -213.7662992 -117.8461805)
(-63.67334426 -297.552096 -345.2388721)
(86.07866656 -135.1453979 -127.2124876)
(395.9484642 103.8214651 -103.6332449)
(-147.1554134 -2.48464703 208.2741673)
(-415.5444088 -780.6585623 -281.458523)
(-195.8577269 110.6212795 45.94663882)
(176.6559597 -180.0825881 -526.3836587)
(-75.73190235 -146.7925057 150.8258111)
(260.914277 453.9578944 -493.6730395)
(-227.370683 -92.93834826 180.1275375)
(189.583424 306.1216631 474.6166371)
(526.5873064 -82.38378828 -193.1164264)
(-432.4349308 -630.0193771 464.6570161)
(-177.5097607 -146.1041219 -13.6929711)
(81.52542402 28.37555141 -85.40954468)
(127.7150586 306.656659 -380.8786408)
(149.0355065 153.1137511 132.7724469)
(462.9144086 7.025692532 23.46304715)
(-131.953478 188.5012495 64.1394243)
(353.5562104 53.13763394 -2.158240473)
(-478.0437504 -90.98245905 412.5946852)
(-433.099296 759.5841204 -401.1997911)
(-141.4000728 -9.661579213 157.9779701)
(-567.5751037 -253.8573078 87.67172696)
(298.3221521 -330.4248085 447.3522936)
(-89.78674294 -121.2020102 -372.217599)
(-54.81780522 145.3535392 342.6292131)
(503.1194393 192.1789067 -227.2856804)
(-119.4550258 -150.9711599 -29.95271448)
(216.1388822 -177.9068845 -460.7006982)
(-205.2128017 15.08908161 -181.6591645)
(-77.02465618 -525.2101383 326.4318022)
(-243.6355909 67.44273427 -242.4828899)
(-172.4537104 350.5061974 325.0726443)
(-193.1970735 174.5258281 6.729474352)
(-207.8196932 -140.3648378 230.2049295)
(-10.45414608 -128.0958774 194.7462947)
(173.043259 -110.6811246 854.7674857)
(-22.50463663 86.26583909 14.06400475)
(-358.9955491 25.20177772 556.0423601)
(-436.0955246 -324.8618372 -241.3735875)
(-434.1565672 -504.1341789 218.8844026)
(-228.0802167 132.2724265 -925.8807622)
(217.2308406 386.8955206 -292.1214295)
(-138.7440406 -28.44278142 -142.1860585)
(17.0139515 41.55452738 -1.845439759)
(189.1372883 216.5080476 480.1526531)
(-518.003216 299.4134579 216.7957122)
(85.67217755 -9.971674395 -97.16720598)
(393.6197968 -266.9420089 -645.3880466)
(-175.8331086 36.47016192 -484.5077935)
(206.1100266 147.810704 -375.554401)
(-179.0582824 -616.5076417 -248.8132892)
(50.68470344 336.2561294 -47.38738295)
(-105.6895771 141.1518863 162.7698065)
(-43.43077035 74.60585756 -129.1275482)
(-71.59541172 52.90138316 -219.8424738)
(-364.7354226 -1006.241094 -316.4871952)
(439.8628508 226.6693631 43.99550661)
(-494.6380812 259.7130984 -184.1623544)
(-219.4233319 -331.2298467 239.5228068)
(-136.6616778 177.454675 -4.567139534)
(-252.7614042 213.3683019 278.6079747)
(-106.7203651 55.43167679 -224.472974)
(637.7077933 51.26181703 -451.311123)
(-706.8521488 179.3699835 -430.4607284)
(-227.3798989 232.3031099 -123.8865208)
(-206.2858845 -443.169452 -416.0714479)
(-75.62506371 -355.6942627 -574.2564791)
(176.8589692 4.823760037 -196.8607621)
(-246.3488952 216.2558418 147.9583988)
(22.87008554 296.0809625 -335.8384704)
(194.1995689 -327.8310313 -534.1350846)
(123.444715 -232.9743456 -354.0722667)
(156.741311 -239.6394494 -122.2417469)
(-420.7906804 174.5270729 618.6122601)
(-91.42557401 -86.146549 49.29398118)
(-125.8156848 -109.3224903 -291.4097015)
(47.14991584 -336.7868703 38.48806514)
(519.3607937 -109.2872068 659.4993342)
(-76.90204389 10.62063691 250.6527953)
(106.1134128 -28.17599609 -15.54138357)
(-115.4909164 238.7369251 -508.4607071)
(-224.1440457 131.6360719 274.7786259)
(223.3938445 -201.4665514 -697.0249396)
(99.91843793 242.2219658 118.2536149)
(-382.4913499 -55.6993001 -62.63703174)
(22.78683515 75.52184261 13.32019512)
(476.8624432 160.7521107 -519.4520817)
(-339.6162945 166.8281688 0.4818209136)
(-364.7181425 55.01071397 147.5260249)
(-617.3991727 309.3534528 29.99481494)
(53.83189319 -338.0642161 51.27426378)
(172.6421831 294.8500594 -247.4021407)
(-159.3201338 -103.1417675 -307.392615)
(309.4524813 -315.881918 211.0746908)
(366.8828198 319.7793462 118.8826533)
(303.2416302 253.4953547 -221.1533812)
(-71.88769633 -76.27729447 263.823114)
(490.4831944 -348.1826607 -85.18323763)
(-110.9612024 -168.0878481 36.93030539)
(350.4621254 106.9095436 124.997457)
(203.6865216 69.11020638 -48.00767872)
(201.2488443 304.7064079 -227.2444705)
(493.1812335 -179.6636132 -149.9471405)
(-131.5529764 264.8000231 378.767899)
(-257.5699163 530.8066934 -139.9486691)
(19.67256149 365.3453074 536.9641488)
(98.22668059 6.086919779 378.5620618)
(-656.2546704 319.4894339 -194.7342701)
(-165.9548323 -184.8255423 -79.0785949)
(-86.84107879 325.6501581 -238.6884442)
(45.33302921 -64.34651596 199.1436945)
(276.4240157 207.0207052 823.4546847)
(91.34228235 -206.4580685 -26.59927942)
(85.37393988 21.27242873 -60.33750829)
(-106.5511253 413.9571682 253.5255297)
(-200.7092329 -7.697147092 490.6292181)
(344.4321239 355.1529986 54.98427218)
(-116.6980976 -25.85933438 60.07271048)
(-415.4846259 191.4211685 -117.1755147)
(-7.910065789 155.3751942 -53.49896255)
(50.1891439 144.5364343 -160.6441247)
(-247.0309517 267.765853 336.2876379)
(-167.5006284 176.0411485 -287.3406133)
(454.3929716 67.27055577 49.83855939)
(212.7615635 206.5391123 -136.0174749)
(68.10749755 23.30371229 -39.10045746)
(145.7030271 -318.9285099 -63.16140749)
(-485.929587 -242.1447659 -426.7226095)
(-92.3689955 36.15221793 -308.2418745)
(311.8514451 -218.4619415 130.4284931)
(-71.27540621 -11.74108909 54.95930692)
(174.207576 441.7831689 -350.3009797)
(-95.47333825 333.6774394 -218.88766)
(19.33819066 274.9451091 535.1122225)
(161.2636047 78.52010569 -348.9489643)
(-165.1891171 -462.1679171 108.1097593)
(-74.77208573 -543.8020276 47.8233279)
(192.666722 -308.8417322 -32.33109342)
(-34.83730032 438.9660406 -203.6325791)
(659.2435953 -170.9002144 171.4318033)
(-147.42607 -97.83309265 229.4903259)
(116.1882812 -329.4293636 20.33510977)
(-88.61431981 -173.0535196 100.3863028)
(-449.1687905 -141.6507718 145.4595576)
(-579.6367761 33.01391475 416.7878326)
(-206.1586866 262.2074066 -582.9130327)
(-35.95115691 212.2280405 -418.5944785)
(-177.2319625 -331.6695895 148.4714726)
(-75.73108663 454.4584649 137.3409495)
(-461.9308847 515.6335101 55.64295115)
(-82.03803762 260.5975441 360.9644917)
(385.9465519 -275.7259161 -631.0573401)
(-310.5116098 -86.63973617 276.3123822)
(-42.7505174 -29.10209036 -502.6236742)
(-95.68887818 -123.3262748 25.31101511)
(-501.1161363 -205.2066339 80.57646803)
(26.79545164 -525.9969899 -264.6401504)
(100.0322435 273.9181047 225.5380006)
(232.6080015 384.4865914 266.2040208)
(-113.2296178 -32.72126403 327.5589702)
(-81.01648087 -247.7875742 -11.83687154)
(62.06552467 606.0157091 -48.41941234)
(-497.8077792 -62.21094291 24.41494409)
(127.1651503 -58.76226482 -222.5619446)
(184.8713046 554.3244653 189.0808712)
(-118.5699466 435.940741 59.87496482)
(700.5589899 -251.3846304 284.0388472)
(-39.26823126 -321.8617233 623.450982)
(-64.05342245 464.0852561 -291.5901193)
(-42.84789468 124.8523876 175.640582)
(-52.43969294 124.2417379 142.206954)
(-130.3545235 225.2054942 -144.7926627)
(470.8152233 -23.97180092 72.20726569)
(-352.1011261 -1.966270345 281.4002058)
(168.5802669 778.0289722 19.93434102)
(-56.68829717 174.1173644 191.6058834)
(-268.7293949 112.8101408 343.9667591)
(72.18077533 695.1699116 -319.0395241)
(-235.2388982 -362.7125805 -742.3689536)
(129.3704834 -52.32172599 311.9416021)
(-457.9690993 -52.5144398 70.41475745)
(121.8501745 -451.6884115 158.4896154)
(-165.3612963 -593.7993114 -1010.035212)
(329.6934178 -673.6623324 -113.4710842)
(233.4328694 131.5901335 -217.0855118)
(31.98151863 -354.0495075 -329.353623)
(-233.0534112 295.3667072 -279.8457929)
(53.51252991 203.000209 -406.9700956)
(51.16737916 131.9063852 -288.3743453)
(575.0539523 477.1954544 -325.1396038)
(205.5439876 249.4492968 43.78380505)
(-688.5970965 115.8283927 -583.3582921)
(5.411519517 -77.38509094 -230.3645023)
(-22.56996293 -57.11424187 -151.4071481)
(-20.95663431 19.2854454 -88.27384614)
(-305.2230758 -490.8469966 -552.5962431)
(-193.8235826 176.7991051 83.27106537)
(51.81445039 251.5861118 -217.2791207)
(249.2481677 322.9593042 -503.0712902)
(370.8215029 22.61392285 -366.4907731)
(-99.77457019 -240.0935485 123.0338026)
(474.8375679 230.3752271 159.5001718)
(-56.5574126 315.9985604 -44.81055819)
(-144.7076454 92.55686116 -153.5505374)
(171.7477532 -79.6671631 237.9152801)
(-281.32583 -255.9150544 224.6861317)
(-111.7400561 -166.1331917 442.2448938)
(-215.1245813 90.48438697 -204.7741543)
(20.17194444 256.6760174 -119.3635407)
(-106.2670114 244.8911106 -305.3916633)
(-120.6576679 -71.17373326 -85.79122658)
(411.4281205 134.7875611 -10.13365773)
(-72.95517552 334.1547006 463.2844412)
(210.3291563 108.9766758 186.6981446)
(159.1160971 69.60342295 -188.8450943)
(18.35280562 -82.84093166 -35.57253334)
(353.2691965 -403.2254872 -107.5135746)
(-1.101722961 -229.5642342 54.23361396)
(-665.3111135 256.2911582 203.8992593)
(24.05934119 165.0776312 161.9168759)
(101.34658 105.0693679 26.90221504)
(-18.43971366 99.32801624 -36.92320311)
(45.64093128 -396.4576963 167.1233928)
(2.081426209 254.9182341 -775.0858011)
(59.3111376 -577.944391 498.4014744)
(-409.3053747 -435.2343722 -265.5783748)
(-376.9766237 -26.54743652 -253.1653937)
(-143.9088691 201.1854966 -54.67666648)
(-501.9366152 -107.39167 229.232862)
(-118.8417496 385.7331469 69.81671153)
(51.11752546 258.1695992 235.0274748)
(-339.4114108 169.9507641 322.390691)
(-201.7647516 632.0417682 -485.0607544)
(6.110204247 231.9178729 -486.5946907)
(-95.24721086 -184.0471757 -187.6950952)
(-524.5104979 795.5479278 40.69820466)
(138.4631643 272.8036306 -354.625691)
(19.08865344 -11.62280353 124.5047708)
(249.030692 100.3368087 9.657212259)
(22.71014205 333.794524 130.7292036)
(77.90108727 226.779808 -284.9136274)
(-258.8329367 -389.420969 375.7882889)
(-505.5936185 499.787545 176.4509811)
(-455.5895161 -533.9495335 271.8075514)
(108.0276436 77.36287567 -559.4691456)
(260.0302235 -903.7110149 6.381870207)
(-70.77863147 -95.50471136 512.2563335)
(170.5937944 -148.6802632 -439.2483234)
(139.056984 355.7151481 419.4829179)
(225.1278558 -249.7928301 239.6360366)
(-92.88966017 -174.7592603 -224.0626545)
(-137.9229147 304.4006468 83.25554194)
(457.6619715 -79.85108983 -79.78844518)
(-232.7332906 48.76531312 51.52282959)
(-107.0162123 -299.8261567 138.3794481)
(162.8945213 -155.5962337 -190.2091964)
(-83.42142046 195.1696212 35.78547574)
(48.43168687 -136.5971943 -324.2165312)
(318.077794 50.38159738 119.9511239)
(-473.4323959 34.89941085 151.745802)
(22.50932168 -78.42905928 152.1248526)
(211.5963085 -271.4937524 328.3330022)
(-337.2607561 52.08648504 -134.2577071)
(-539.67428 40.6138984 504.7725777)
(197.1604537 23.95828305 -96.95639821)
(-421.5315912 132.9808733 7.88795468)
(-51.22251325 -43.87795963 -266.3044607)
(277.4496725 -83.91070499 -3.623436243)
(25.1654008 294.8565859 334.4213984)
(1073.292177 112.2529656 131.9831281)
(-117.9859706 -325.7736498 -255.1130045)
(377.0823681 33.73084734 -186.3462644)
(96.45244346 62.23227889 -76.79224884)
(-283.8194218 -30.91244454 29.82335195)
(435.935011 -206.5025345 -506.5848458)
(-24.0134305 -617.7213481 17.81695482)
(-615.5170768 -377.353516 66.87821071)
(61.78798344 -413.8278932 -532.5007252)
(-136.2231985 -64.68726797 -569.9459253)
(-97.36634464 49.81488291 -237.1550685)
(145.3542439 180.2900923 160.6524674)
(-166.4142533 331.2094873 14.34569969)
(257.3297706 33.83658299 238.7628383)
(-380.3658426 320.2872313 476.9776597)
(-152.9311096 352.0242407 373.9138945)
(163.0810905 154.8823022 -525.3987446)
(46.16576103 482.8940552 246.1400096)
(436.6063893 186.5202511 274.8510614)
(-346.0529393 -54.45936136 140.5554552)
(63.4348725 -74.07237044 96.64913172)
(-87.71361706 -426.6994533 -23.05810707)
(-40.00768878 -52.42411636 149.8159736)
(-597.4487137 -135.3700511 -136.1079925)
(-257.7218374 12.33980838 142.5412505)
(-283.9312669 33.87933677 -18.37974416)
(-283.1726872 355.2886453 -65.6963324)
(192.7223042 -278.489066 -117.5217629)
(141.7945426 275.0273402 -469.7599461)
(615.3066842 -539.1972132 -35.57974788)
(76.06090131 137.6511584 -313.7298203)
(513.003562 -598.8559565 -46.5627329)
(-48.67848834 59.91140347 479.4273492)
(-812.7111037 -242.9103888 195.7465985)
(-6.487948861 -49.36758567 -193.165745)
(-321.3831957 649.1234587 9.306885733)
(22.45490085 520.3900867 433.4434056)
(570.2535051 -21.04276057 -223.6694368)
(-196.5930016 -76.05256594 164.5508941)
(-119.7756811 199.9156141 -295.1954261)
(293.5081072 799.5204374 396.9494721)
(17.11847637 136.1415255 -324.9092639)
(265.0116539 -215.2041782 -46.63913642)
(-252.2209168 148.7847236 -58.71774874)
(-306.2942043 -95.92714512 168.686107)
(-9.721619548 198.2347643 480.0683554)
(82.11207084 213.8674373 -40.02728375)
(-325.3539052 -283.0827143 150.7105358)
(-152.3327253 408.1393625 27.14788801)
(-542.1422633 -68.19441903 -172.6752384)
(427.4721741 -888.4740532 -170.7138853)
(850.1593632 222.8894714 552.1495691)
(17.99330235 -44.36840288 243.6573135)
(312.57313 -5.703620326 267.5125886)
(312.2022353 95.00544284 -154.3939667)
(51.95225814 -207.486347 -665.1170994)
(-167.4573314 215.2621934 -256.3364232)
(733.4201603 47.13832167 -69.97613828)
(320.4518628 265.4765597 178.9399545)
(-504.3978732 148.5395366 105.651908)
(-285.7781951 -128.133011 -45.90575444)
(-302.2927115 216.1635316 -324.4244387)
(-34.66749811 24.7482879 90.25600547)
(-113.3517825 -0.7345192968 350.413869)
(305.0180581 -395.7231535 -44.08191545)
(425.8836733 508.8154691 -110.5956316)
(-127.8588691 -203.952733 -91.48692687)
(106.955395 -7.452310192 -167.076505)
(238.4032558 -123.581569 -72.68073791)
(-334.3780813 -129.0065634 391.0680872)
(-94.93892518 -461.5658621 -264.4179172)
(72.30522433 1.076517499 -38.60393428)
(-100.3041543 132.4618871 40.70829062)
(86.87793455 95.43444074 247.617134)
(72.17001352 44.25696998 138.7352573)
(-50.29406712 120.8642795 -175.0805414)
(-53.40669735 151.5142862 -34.18799828)
(-184.5757816 256.1233119 -94.62305103)
(394.5604772 -244.4039128 -160.0017225)
(116.4292853 -208.0980112 147.3539797)
(312.3267101 -75.85518802 157.5423058)
(64.85528967 -200.789259 259.8610437)
(-239.0576011 93.86386268 347.5003283)
(-3.222172766 271.2377227 4.246064177)
(270.5462408 -60.04426291 88.6854808)
(-263.9916267 -161.7232453 439.6571316)
(146.463063 261.961966 -10.90131406)
(530.9610065 -193.1186045 109.9518735)
(265.3419493 110.6557904 166.7794485)
(311.779635 -144.4920306 47.23721128)
(38.36521964 219.4969332 264.2034827)
(678.8026682 83.76935431 229.7755369)
(-38.02704135 395.9004474 -366.8631672)
(-94.62433704 60.89194909 528.8757915)
(-44.11381304 -399.3565017 -319.8077682)
(-123.4816815 -292.3900055 0.8205310911)
(-349.4712224 173.9435349 -243.424758)
(35.72781626 -163.9044034 -25.99438772)
(138.8971752 -62.07061373 226.0239185)
(-269.1221162 -227.6528218 119.4607064)
(65.87495571 -64.35695287 656.1712406)
(152.6219578 37.40273336 71.98443329)
(-248.7383767 55.66278519 -208.5821989)
(-110.5155162 412.3312091 18.246397)
(-184.2416967 -182.9510629 -7.226951428)
(83.14216954 -109.4393031 -427.6593838)
(-46.1694453 515.0707164 107.2766704)
(-134.8066368 2.857791703 15.09874988)
(73.41765065 624.3802447 369.5468707)
(-154.0499414 325.2717639 -215.9587352)
(28.51293455 -693.0697643 113.1862998)
(-259.0115894 193.1370535 -10.16825419)
(-273.3575681 336.8689334 356.2573692)
(3.58988734 -300.5082897 202.6835351)
(97.96597331 -525.5564635 -526.2623995)
(83.85283703 -125.5799466 -160.6139147)
(-234.4517176 -63.63893554 659.404457)
(97.29693552 -324.8102427 -121.3334098)
(-238.1318342 -35.44162265 -79.88343177)
(-46.81436749 -76.61777569 -44.15214928)
(309.2708565 -467.6282614 -88.99355268)
(312.4710954 162.4004213 66.45745389)
(-506.5895341 -116.9733648 26.7442986)
(150.1222858 -154.8475261 192.0801498)
(-164.9721012 19.34105799 43.206972)
(-122.2848237 -476.2554535 192.3183403)
(220.3241213 142.1183322 79.63752737)
(-359.3099443 -28.59424069 93.10473653)
(-267.7195246 -171.4496258 72.74452753)
(176.0689255 -284.9687637 128.2092846)
(-65.32900101 -172.2065806 128.0714385)
(-156.4764557 294.9073517 -230.6374162)
(214.4135968 15.31572432 -30.97544223)
(-428.1528957 189.2680279 -225.8021633)
(-393.7275327 -671.3479998 -188.0580357)
(-99.25633611 -74.76198896 236.0891818)
(42.21973616 -229.546324 -271.5596075)
(160.6568525 39.60100807 356.5725277)
(-17.38552868 -183.7126592 149.235106)
(-39.18285446 25.91063098 57.81621419)
(356.7281439 374.566928 145.7423162)
(88.05589227 -246.1197744 -179.6300262)
(-182.9092088 -323.1489744 128.3461914)
(-269.0829611 -316.5486696 -140.2494024)
(157.8555684 -52.36585254 -309.4776704)
(-38.89020844 352.8636393 222.0913961)
(198.8658073 -98.41503342 -122.1382009)
(18.7658545 42.0233582 -209.9734469)
(-391.4905258 100.1175196 142.8912848)
(539.8564958 50.19481426 -264.4946393)
(118.6215576 -387.1131731 146.7404224)
(-145.7889835 -371.0586048 -460.5744595)
(629.532649 241.4690029 7.554121537)
(-380.2369935 -441.7916812 -130.5233736)
(199.9466889 -118.7543168 58.44683947)
(277.7071876 -170.2861267 74.58128941)
(77.23324663 234.4061385 -560.2009685)
(434.7334801 53.39547816 -200.1060635)
(49.76232186 48.53470579 163.7485504)
(-463.3212109 -14.43462826 -297.722788)
(-74.29841506 -38.25910885 102.6915777)
(-93.3592689 375.1584434 15.34126548)
(-61.31843992 158.0893375 -421.8715666)
(435.7562029 284.092379 -862.5583983)
(355.5370047 285.2018672 -88.61599218)
(-123.7230833 371.8321071 523.8657351)
(291.0220371 -697.0600437 -129.1367137)
(-204.5953112 131.9485397 -259.6956643)
(-205.2747991 16.25009433 41.93383607)
(307.7399587 -368.4117141 -46.31946897)
(255.6162697 -264.0747487 -299.5996411)
(256.6063493 -209.6647709 239.3271332)
(138.8708733 -20.83804342 21.60906547)
(-772.1997347 398.4881052 -266.6261348)
(-186.6189141 346.1709408 -131.2456509)
(-922.0731158 -399.3626637 488.1897182)
(-43.64269329 55.21330847 148.6419777)
(367.2678854 1.420247765 164.6397248)
(-416.3627587 -270.9706408 12.34948841)
(37.66784985 -202.4396155 496.1270698)
(388.6242986 381.4520143 -143.3480985)
(-410.7738469 -65.95570322 278.0571659)
(72.90341171 451.670869 -80.10807529)
(-172.8732456 -181.1450525 -123.2274863)
(-18.31077615 -21.90841191 388.8911859)
(83.53212019 -200.1383739 219.0868118)
(431.3782303 -528.4057593 285.0797961)
(-276.7446693 354.2221538 -51.19044067)
(212.1986312 -124.3750616 457.5835143)
(165.348628 -7.366631064 433.0283968)
(193.4952124 81.64028238 285.9168802)
(-54.72728805 -203.4530742 -126.5984262)
(-296.613806 -295.0578258 -265.7965645)
(-177.2134593 348.653171 294.0361908)
(-232.9409727 157.6209423 77.6523965)
(-42.18092948 140.5859619 -48.98693841)
(-113.7896466 111.455995 56.31664618)
(-299.4948496 34.25395443 189.1545853)
(-126.0274844 41.23151748 -33.04207512)
(-238.3440476 -511.708221 -208.9276751)
(152.3565721 23.12657788 15.36584451)
(-410.1625237 -232.1036824 266.8751465)
(499.7970932 87.56408043 -156.4981001)
(156.9854926 845.7383956 -100.6021662)
(-52.56873658 -159.2236326 -44.82700824)
(-329.1529905 -73.73355671 121.1883165)
(-451.3218437 32.81962471 287.9358094)
(11.10120788 141.8045147 -157.0315908)
(162.304951 -12.01522248 133.0092705)
(430.7853532 -39.68658735 187.6998681)
(-12.74613557 459.5521946 214.2119862)
(-264.0345228 101.6636383 -381.0953546)
(-117.5500383 -1.746394695 367.8650089)
(-137.7897531 0.3768520066 -45.94893931)
(185.7428879 -155.9720878 203.1830599)
(-84.61372432 -3.611052634 -85.70847411)
(-99.89256859 728.2185606 512.0620948)
(-112.2232644 116.1272144 6.052505904)
(-26.84346099 562.5053548 -75.75026134)
(-202.8725817 -71.2481956 -214.3154748)
(71.87897373 -13.78284378 300.5059569)
(59.64104664 -172.4257473 2.58541055)
(-3.679306158 397.1145505 253.0680839)
(-274.119114 292.0075683 122.5488964)
(-375.1279663 -277.6115722 -17.69101037)
(40.03189011 164.0956382 -59.31229226)
(-109.4548106 80.54155875 -135.3656028)
(152.1618696 201.0093662 -362.3609286)
(-122.4121287 163.4130313 285.4209802)
(-28.99807988 -97.62254565 410.2144923)
(41.69408721 -44.25536798 -16.67329153)
(-207.332525 133.8069817 160.0094014)
(38.67102648 -478.3264908 -34.05007082)
(-579.6417029 299.9545793 112.4793676)
(374.2240502 140.2419976 406.3936408)
(336.0488195 41.27737187 23.84625021)
(-125.369934 137.6631257 -235.2688215)
(196.4662099 -410.4901996 319.0147405)
(49.93555779 -547.6126346 302.7017726)
(123.9662214 224.4343355 -49.2750773)
(198.175868 131.9049609 63.4649463)
(96.40072964 155.6468711 -786.4864232)
(-129.0578143 -756.1972769 202.8735407)
(-2.690744131 -286.6594056 -403.7720366)
(-273.1045504 -12.39810557 -136.5928041)
(-20.01113704 -237.6743325 -17.89490829)
(-169.9531655 -392.5115434 190.0752616)
(-279.2662415 278.6133586 336.5823911)
(785.375947 -113.8988911 84.24100847)
(41.77328878 66.38599416 97.7765642)
(315.4178111 -238.6566306 -259.7713814)
(251.8445591 -382.3122648 289.1790157)
(100.6995667 221.3501351 237.9023765)
(351.9342482 221.5679546 316.4796426)
(-489.6467867 6.353827628 88.55046388)
(-215.0057325 -155.5832663 483.6168468)
(8.463580916 155.7280253 35.3318352)
(-653.7017546 -209.6024702 -59.43858046)
(201.2017745 132.7402001 138.9345171)
(-27.2103512 307.9202209 -228.7058997)
(102.6986991 1130.342865 102.0628969)
(-265.2223868 -358.8858313 401.473144)
(85.97358762 219.5908355 109.2836313)
(55.68868102 8.672656871 -227.7407684)
(46.30327631 49.9436959 -117.1536344)
(587.0919922 -85.42088371 -172.8937016)
(-75.58264503 -150.6001449 26.51281799)
(232.0277061 -92.8617488 90.30362046)
(-59.76077037 384.2714089 222.2207575)
(527.6651033 291.2973431 356.3707238)
(586.6467502 -585.0067721 47.33635636)
(-264.4682417 -321.720874 40.29003478)
(-31.2972383 349.3794633 -306.9146292)
(-193.910066 -170.0781806 -57.68993729)
(-374.3859284 -68.23832323 688.3172817)
(-221.4073094 -204.5988969 -189.1873171)
(360.5442415 -87.22800787 476.2950107)
(-302.1846273 25.17145022 -537.6319396)
(130.7074773 345.2169793 -29.05563525)
(125.780661 180.5945467 -370.5608557)
(160.8350489 389.5785946 861.1537257)
(45.14442148 329.4382384 -83.80222659)
(97.11882564 294.4774031 497.005822)
(29.13157142 -63.47985026 -67.16179161)
(-249.6142128 -114.8902331 170.4141265)
(-190.1923729 -355.6308196 421.3312458)
(-78.93011497 64.61810424 10.11639178)
(-158.4190338 -166.3680175 -234.9663834)
(491.2746409 77.71010148 414.3144614)
(91.36057483 -439.3877358 141.6751998)
(-152.3660683 204.085582 -364.9625793)
(-65.46845326 -61.71849942 52.06378618)
(-189.9625685 22.3083502 449.3012461)
(-204.9370953 -208.6940826 -559.5006815)
(48.40711095 -135.4422408 71.26498797)
(-204.1643991 227.9393237 -44.82533292)
(296.7102292 -252.5182256 -185.4269964)
(158.2950577 482.680031 46.81784112)
(-9.634080774 -159.4883849 -492.8609742)
(159.0164199 -88.06594692 35.30358328)
(-370.3375408 -197.8625344 57.28085433)
(-397.4466765 -24.97638693 232.9709907)
(190.3655642 298.9423457 -410.6014471)
(-392.4106416 -273.6602947 11.62177042)
(80.81228886 237.4448995 348.7151697)
(6.446146773 -278.8838431 -105.5642982)
(98.16295861 -326.0493455 399.5497084)
(377.5744074 23.17506836 274.639287)
(-176.3951714 67.89115918 35.73941632)
(18.40513944 48.38944938 291.6717149)
(-230.5925553 -183.3498096 -3.315791181)
(165.1882113 -16.49001098 47.94698878)
(88.11859372 -79.42842115 -300.3019091)
(-267.5693724 -15.40519661 -344.8480585)
(92.15618227 43.39791941 -113.9313951)
(116.5063058 712.9128166 266.4110029)
(-176.7946121 -15.01110593 -442.6130576)
(-87.27115475 284.6267164 -197.2246176)
(424.9802681 1.885249937 162.4025784)
(339.2241861 272.4342867 121.9943951)
(-77.8666009 261.7531774 -50.23134739)
(-79.43503348 159.5129621 37.2739717)
(-270.6117071 29.46464224 87.68156524)
(92.71144727 -189.2097994 208.2399822)
(37.2211074 -1.403176339 -172.9619627)
(22.5772014 -62.07390942 -118.4138004)
(-47.97321753 201.6804056 148.0758876)
(-270.7318822 -29.17867041 10.68405789)
(-79.91289053 -146.3562862 281.7147224)
(-213.4679606 -43.70653999 -204.7165585)
(478.6886126 -65.88380759 -87.73202715)
(-25.11557115 -6.130079806 -191.1336687)
(-73.66703584 -243.6100411 226.5255659)
(433.1714333 -139.0182797 -673.5409941)
(99.73135409 100.6817508 -46.32938922)
(-83.82244766 -163.9504965 -154.4496133)
(72.19190581 -165.0354537 -41.56188644)
(68.78296005 -150.5983663 -25.44074217)
(174.9937095 21.25646431 460.0405899)
(-35.76154832 335.3072597 450.978829)
(374.7286028 -105.2947451 -95.97052959)
(-368.3132003 -95.24596944 -260.6007528)
(108.2484155 64.41617227 260.404095)
(344.8567086 34.83068588 -458.5728513)
(-25.51750936 457.4468757 -60.08012493)
(120.3769288 414.7295319 -80.42095813)
(108.1480777 -148.2284179 -75.39808815)
(129.2497405 -13.89376604 267.4710648)
(244.6350981 -53.91997407 180.4082362)
(261.6851528 203.6811774 -506.5699937)
(-127.2139812 546.6979632 252.9901074)
(236.5262247 486.7974277 -58.34904224)
(194.6414452 100.2679775 168.8449654)
(500.827892 20.3629616 195.1838912)
(162.8903931 -2.200520882 390.7606884)
(-386.2477933 362.8441534 3.627823744)
(-305.9438741 -199.2881959 105.7440926)
(398.8411134 1.392798774 357.3413133)
(-38.10394349 -223.7504368 -67.23457701)
(-46.40890499 302.58763 -248.3744853)
(-567.7315614 137.5794378 -110.63766)
(686.0217594 26.6365758 -5.822587926)
(74.00573126 224.102224 418.7401316)
(-35.859217 148.9862445 -280.6893448)
(150.7094092 96.80096972 -180.8573854)
(156.0005531 -268.433674 434.8362229)
(-141.8629542 -3.834941188 162.663825)
(-453.5174783 93.28622023 -180.2335191)
(-137.287859 386.4091449 -97.49906862)
(429.4155815 -317.0744009 -334.9891956)
(-256.4129979 75.43747563 -400.0797978)
(231.5355873 290.5979863 -59.90442399)
(169.7091481 -231.7254286 -127.3242447)
(-115.1990012 218.3102094 -176.6002023)
(263.7945125 236.8574586 71.50788774)
(335.289128 158.4955095 61.93476947)
(175.2502499 27.72365716 201.8696685)
(21.79360423 114.9179678 -8.123629445)
(-207.6452442 134.391414 -376.7602741)
(80.82457524 301.0922694 79.1406908)
(295.0827405 190.1035015 88.28460073)
(-116.8795644 -3.950085857 38.8304473)
(-98.37170165 -79.61784449 114.4998285)
(330.3064458 -529.2139597 -331.4376989)
(-208.2654245 31.00138904 -267.2914994)
(-126.8972856 589.0872099 271.3962543)
(204.2167587 141.8277212 66.8906944)
(-294.7530127 -585.6566379 -397.083621)
(5.858457235 43.9780342 -327.3374054)
(-394.516187 -290.8530373 -128.9444377)
(7.709551284 142.5795163 98.39163348)
(184.9254216 -368.5551902 423.5248275)
(1.937422508 -75.88560661 161.3672528)
(-273.0809336 -38.76563338 -382.4064956)