/*--------------------------------*- C++ -*----------------------------------*\
  =========                 |
  \\      /  F ield         | OpenFOAM: The Open Source CFD Toolbox
   \\    /   O peration     | Website:  https://openfoam.org
    \\  /    A nd           | Version:  7
     \\/     M anipulation  |
\*---------------------------------------------------------------------------*/
FoamFile
{
    version     2.0;
    format      ascii;
    class       volScalarField;
    location    "0.2";
    object      epsilon;
}
// * * * * * * * * * * * * * * * * * * * * * * * * * * * * * * * * * * * * * //

dimensions      [0 2 -3 0 0 0 0];

internalField   nonuniform List<scalar> 
1935
(
0.0461769
0.147467
0.269375
0.370488
0.457649
0.534683
0.604521
0.669378
0.730998
0.790813
0.850059
0.909863
0.971294
1.03539
1.10318
1.17565
1.25378
1.33842
1.43033
1.53002
1.63774
1.75331
1.87603
2.0046
2.13699
2.27041
2.40128
2.52533
2.63771
2.73329
2.80696
2.85402
2.87051
2.85322
2.79933
2.70971
2.59962
2.46299
2.29655
2.09989
1.87694
1.64055
1.42141
1.27371
0.0854691
0.123916
0.16519
0.198625
0.225767
0.248544
0.268413
0.286404
0.303246
0.319481
0.335543
0.35181
0.368629
0.386327
0.405223
0.425624
0.44782
0.472078
0.498622
0.52761
0.559111
0.59307
0.629276
0.667333
0.706633
0.746342
0.785414
0.822614
0.856587
0.885955
0.909448
0.926067
0.935261
0.937103
0.932456
0.927049
0.934191
0.953943
0.988474
1.04285
1.12787
1.26489
1.48704
1.80955
0.130539
0.146829
0.169942
0.187729
0.201419
0.21241
0.221698
0.229993
0.237802
0.245496
0.253365
0.261653
0.270573
0.280323
0.291087
0.303037
0.316329
0.331095
0.347435
0.365399
0.384973
0.406056
0.428444
0.451808
0.475689
0.499486
0.522478
0.543845
0.562724
0.578289
0.589854
0.596998
0.599707
0.59853
0.594743
0.591142
0.593963
0.607269
0.635933
0.687069
0.773818
0.924835
1.1996
1.68261
0.164291
0.169959
0.18346
0.192763
0.19938
0.204466
0.208707
0.212575
0.216419
0.220501
0.225028
0.230175
0.236093
0.24292
0.250779
0.259779
0.270013
0.281548
0.294419
0.308616
0.32407
0.340641
0.3581
0.376122
0.394278
0.412038
0.428789
0.443864
0.456594
0.466381
0.472793
0.47567
0.475245
0.472267
0.468148
0.465334
0.468224
0.481156
0.509619
0.561304
0.649465
0.802819
1.08805
1.63231
0.19174
0.188132
0.195423
0.199403
0.201532
0.202869
0.203945
0.205098
0.20657
0.208549
0.211182
0.214598
0.218907
0.224204
0.230575
0.238086
0.246789
0.256709
0.267838
0.280125
0.293466
0.30769
0.322553
0.337728
0.352805
0.367298
0.380666
0.392341
0.401788
0.408565
0.412412
0.413348
0.411772
0.408562
0.405205
0.404077
0.409053
0.424757
0.457729
0.51778
0.621151
0.799135
1.12058
1.72885
0.214746
0.20117
0.203885
0.204519
0.203821
0.202716
0.201681
0.201
0.200872
0.20144
0.202819
0.205103
0.208373
0.212695
0.218124
0.224697
0.232434
0.24133
0.251347
0.262407
0.274381
0.287082
0.30026
0.313594
0.326697
0.339127
0.350406
0.360057
0.367652
0.37288
0.375622
0.376036
0.374645
0.372427
0.370928
0.372519
0.380993
0.40141
0.441629
0.514429
0.641498
0.861886
1.2521
1.96241
0.234511
0.210204
0.20909
0.207554
0.205122
0.202474
0.200045
0.198113
0.196866
0.196436
0.196921
0.198396
0.200921
0.20454
0.209286
0.215174
0.222201
0.230339
0.23953
0.249677
0.26064
0.272227
0.284191
0.296225
0.307975
0.319043
0.329017
0.337503
0.344174
0.34883
0.351473
0.352378
0.352172
0.351916
0.353226
0.358542
0.371825
0.39884
0.449151
0.539152
0.697262
0.972848
1.45423
2.29889
0.251919
0.216392
0.211833
0.208765
0.205255
0.201651
0.198325
0.195553
0.19353
0.192388
0.19222
0.193093
0.195054
0.198131
0.202342
0.207685
0.21414
0.221665
0.230189
0.239606
0.249774
0.260504
0.271561
0.282664
0.293493
0.303704
0.312948
0.32091
0.327358
0.332191
0.335517
0.337713
0.339501
0.342032
0.347033
0.357131
0.376695
0.4127
0.477191
0.591418
0.791922
1.13752
1.72179
2.70177
0.267615
0.220631
0.212879
0.208604
0.204368
0.200161
0.196266
0.192945
0.190394
0.18875
0.188109
0.188531
0.190055
0.192703
0.196479
0.201371
0.207348
0.214361
0.222331
0.231154
0.240691
0.250765
0.261162
0.271632
0.281897
0.291665
0.300653
0.308626
0.315432
0.321068
0.325735
0.329906
0.334404
0.340501
0.35011
0.366224
0.394017
0.44251
0.527905
0.679616
0.947441
1.39843
2.09833
3.16372
0.282059
0.223547
0.21281
0.20748
0.202688
0.198072
0.19381
0.190135
0.187236
0.18525
0.184272
0.184361
0.185553
0.187861
0.191283
0.195802
0.201381
0.207968
0.215486
0.223836
0.232891
0.242493
0.252455
0.262563
0.272584
0.282282
0.291441
0.299896
0.30758
0.314577
0.321179
0.327964
0.335877
0.346368
0.361664
0.3854
0.424161
0.49043
0.608188
0.823885
1.2141
1.84739
2.67188
3.71153
0.295579
0.225564
0.21202
0.205694
0.20041
0.195477
0.190965
0.187061
0.183939
0.181728
0.18052
0.180371
0.181314
0.183358
0.186499
0.190715
0.195972
0.202217
0.209382
0.21738
0.2261
0.235411
0.245156
0.255162
0.265246
0.275229
0.284959
0.294347
0.303406
0.312309
0.321449
0.331525
0.343653
0.359561
0.381987
0.415595
0.469275
0.561305
0.729976
1.05285
1.64468
2.55517
3.45254
4.31853
0.308559
0.226982
0.210753
0.203436
0.197665
0.192453
0.187754
0.183703
0.180445
0.178098
0.176745
0.176438
0.177206
0.179058
0.181987
0.185974
0.190987
0.196982
0.203903
0.211678
0.220221
0.229429
0.239184
0.249357
0.259817
0.270444
0.281156
0.291939
0.302892
0.314284
0.32663
0.340791
0.358131
0.380808
0.412342
0.458951
0.532983
0.661088
0.90223
1.38365
2.2173
3.29606
4.18158
4.88828
0.321054
0.227969
0.209179
0.200857
0.194584
0.189102
0.184249
0.1801
0.176768
0.174351
0.172921
0.172525
0.173187
0.174916
0.177706
0.181541
0.186398
0.192244
0.199039
0.206734
0.215269
0.224577
0.23458
0.245198
0.256354
0.267994
0.280108
0.292762
0.306153
0.320665
0.336966
0.356139
0.379918
0.411087
0.454306
0.517952
0.61864
0.791901
1.1158
1.68038
2.51578
3.50136
4.46166
5.30903
0.333163
0.22865
0.207399
0.198054
0.191258
0.1855
0.180508
0.176291
0.172927
0.17049
0.169039
0.168612
0.169231
0.170902
0.173625
0.17739
0.182184
0.18799
0.194788
0.202555
0.211264
0.220885
0.231385
0.242736
0.254923
0.267961
0.281918
0.296956
0.313382
0.331727
0.35286
0.378179
0.409934
0.4518
0.510003
0.595544
0.729173
0.950579
1.2991
1.78192
2.46103
3.34869
4.36086
5.53891
0.344952
0.229106
0.20548
0.195095
0.187755
0.181714
0.176588
0.172323
0.168955
0.166535
0.165107
0.164699
0.16533
0.167008
0.169736
0.173514
0.178343
0.184225
0.191163
0.199164
0.208237
0.218393
0.22965
0.242037
0.255606
0.270449
0.286725
0.304706
0.324838
0.347837
0.374844
0.407684
0.449308
0.504603
0.58175
0.694585
0.867173
1.11693
1.4299
1.81989
2.37425
3.17025
4.16877
5.53574
0.356471
0.229393
0.203462
0.192026
0.184129
0.1778
0.172542
0.16824
0.164889
0.162515
0.161145
0.1608
0.161495
0.16324
0.166044
0.16992
0.174885
0.180963
0.188184
0.196587
0.206222
0.217147
0.229433
0.243174
0.258495
0.275578
0.29469
0.316234
0.34083
0.369435
0.403545
0.445542
0.499308
0.571235
0.671671
0.817384
1.02483
1.27483
1.52682
1.81353
2.26381
2.98278
3.95759
5.33691
0.36775
0.229546
0.201367
0.18888
0.180423
0.173805
0.168421
0.16409
0.160772
0.158466
0.157184
0.156939
0.157744
0.159613
0.162564
0.166624
0.171828
0.178224
0.185875
0.194856
0.205259
0.217194
0.230793
0.246221
0.263689
0.283481
0.305992
0.331789
0.361708
0.397013
0.439653
0.492725
0.56126
0.653299
0.781345
0.961246
1.18704
1.39118
1.54986
1.75003
2.12894
2.79136
3.75343
5.09814
0.378816
0.229591
0.199209
0.18568
0.176672
0.169772
0.164267
0.159919
0.156646
0.154426
0.153257
0.153145
0.154103
0.156151
0.159317
0.163645
0.169191
0.176032
0.184263
0.194001
0.205384
0.21858
0.233789
0.251257
0.271292
0.294299
0.320826
0.351642
0.387852
0.431102
0.483908
0.550255
0.636459
0.752218
0.912114
1.12082
1.31401
1.42757
1.50366
1.64693
1.97761
2.60001
3.55819
4.89133
0.38969
0.229545
0.196997
0.182445
0.172904
0.165737
0.160124
0.155768
0.152553
0.150436
0.149401
0.149453
0.150604
0.152882
0.15633
0.161008
0.167
0.174412
0.183377
0.194054
0.206636
0.221355
0.238484
0.258363
0.281413
0.308183
0.339403
0.376085
0.419669
0.472265
0.537088
0.619154
0.726097
0.869414
1.05986
1.26168
1.37199
1.39661
1.41584
1.52054
1.81127
2.39473
3.34511
4.70044
0.400396
0.229419
0.194735
0.179189
0.169144
0.161734
0.156031
0.151681
0.148537
0.146537
0.145657
0.145898
0.147279
0.149836
0.15363
0.158742
0.165282
0.173392
0.183244
0.195048
0.209056
0.225568
0.244944
0.267628
0.294174
0.325296
0.361947
0.405431
0.457586
0.521088
0.599988
0.700366
0.831103
1.00446
1.20918
1.34727
1.36401
1.32473
1.30664
1.38084
1.63047
2.16213
3.07728
4.44422
0.410964
0.229226
0.192426
0.175925
0.165418
0.157794
0.152024
0.147698
0.14464
0.142772
0.142065
0.14252
0.144164
0.147047
0.151248
0.156873
0.164064
0.172999
0.183897
0.19702
0.212686
0.231274
0.253241
0.279148
0.309702
0.345816
0.3887
0.440007
0.502051
0.578184
0.673369
0.794737
0.952701
1.15275
1.32778
1.3708
1.31345
1.23282
1.18946
1.23659
1.44129
1.90281
2.73925
4.0509
5.50104
0.42144
0.228978
0.190073
0.172668
0.161747
0.153951
0.148143
0.143861
0.140904
0.139181
0.138663
0.139355
0.141294
0.144547
0.149214
0.155432
0.163375
0.173263
0.185365
0.200005
0.217572
0.238532
0.263451
0.293026
0.328139
0.36993
0.419917
0.48016
0.553527
0.644159
0.757912
0.902929
1.08982
1.29116
1.38788
1.34669
1.24031
1.13427
1.0731
1.09565
1.25381
1.63206
2.34859
3.52157
4.98516
0.431896
0.228695
0.187683
0.169435
0.158161
0.15024
0.144426
0.140211
0.13737
0.135808
0.135493
0.136441
0.138704
0.142369
0.14756
0.154447
0.163242
0.174212
0.187681
0.204042
0.223761
0.247405
0.275658
0.309374
0.349632
0.39784
0.455867
0.526245
0.612492
0.719553
0.85414
1.02568
1.23472
1.39175
1.39624
1.29385
1.15757
1.03668
0.962944
0.964005
1.0779
1.37033
1.94393
2.9164
4.26216
0.442449
0.228407
0.18527
0.166251
0.154696
0.146703
0.140919
0.136794
0.134085
0.132692
0.132593
0.133816
0.136429
0.140543
0.146314
0.153944
0.16369
0.175872
0.190875
0.209165
0.2313
0.257953
0.289947
0.328305
0.374337
0.429753
0.496825
0.578624
0.679394
0.804827
0.962465
1.16192
1.36354
1.43793
1.36766
1.22613
1.07298
0.944145
0.861965
0.845329
0.920467
1.1343
1.56521
2.31254
3.41501
0.453284
0.228157
0.18286
0.163158
0.1514
0.143391
0.137674
0.133658
0.131092
0.129878
0.130004
0.131514
0.1345
0.1391
0.145501
0.153946
0.164742
0.178264
0.194969
0.215406
0.240232
0.270238
0.306398
0.349932
0.402406
0.465874
0.543063
0.637655
0.754601
0.900276
1.08326
1.30075
1.45102
1.43935
1.31654
1.15191
0.990591
0.858615
0.771401
0.741194
0.784815
0.933057
1.23934
1.77546
2.58782
0.464694
0.228011
0.180508
0.160223
0.148345
0.140372
0.13475
0.130858
0.12844
0.127407
0.127762
0.12957
0.132948
0.138064
0.145143
0.154472
0.166412
0.181405
0.199984
0.22279
0.250589
0.284308
0.325085
0.374357
0.433981
0.506394
0.594836
0.703649
0.8384
1.00611
1.21564
1.42047
1.48827
1.40919
1.25303
1.07617
0.912468
0.780756
0.691374
0.651598
0.671178
0.768543
0.976378
1.33957
1.89019
0.47713
0.228052
0.178313
0.157553
0.145625
0.137727
0.132217
0.128452
0.126178
0.125321
0.125904
0.128015
0.131799
0.137458
0.145257
0.155534
0.16871
0.185299
0.205923
0.231324
0.262389
0.300191
0.346054
0.401654
0.469173
0.551475
0.652363
0.776801
0.930911
1.12251
1.34724
1.49894
1.48635
1.35954
1.18349
1.00167
0.839487
0.710526
0.621331
0.575535
0.577819
0.637886
0.773516
1.00887
1.35975
0.491258
0.2284
0.176459
0.15531
0.143369
0.135554
0.130149
0.126497
0.124353
0.12366
0.124464
0.126878
0.131078
0.137301
0.145858
0.15714
0.171636
0.189942
0.212777
0.240997
0.275623
0.317889
0.369319
0.431859
0.508045
0.601217
0.715771
0.857174
1.03205
1.24865
1.4587
1.53083
1.45613
1.29845
1.11175
0.92982
0.771875
0.647501
0.560378
0.51149
0.502028
0.535921
0.621291
0.768815
0.983007
0.508052
0.229283
0.175264
0.153723
0.141733
0.133961
0.128623
0.12505
0.123008
0.122459
0.123472
0.126186
0.130807
0.137611
0.146954
0.15929
0.175181
0.195313
0.220515
0.25177
0.290248
0.337357
0.394842
0.464942
0.550589
0.655638
0.785029
0.944618
1.14152
1.37268
1.53259
1.52896
1.40825
1.23103
1.03996
0.861298
0.709526
0.5911
0.507495
0.457786
0.440848
0.456995
0.508598
0.598645
0.725723
0.529016
0.231358
0.175255
0.153091
0.140891
0.133055
0.127707
0.124159
0.12218
0.12175
0.122956
0.125963
0.131007
0.138403
0.148556
0.161984
0.179328
0.201379
0.229086
0.263575
0.306179
0.358498
0.422517
0.500796
0.596702
0.71464
0.859963
1.03874
1.25812
1.47564
1.562
1.49989
1.34846
1.1601
0.969206
0.796331
0.652205
0.540735
0.461677
0.412797
0.391496
0.395958
0.425384
0.478907
0.552791
0.556828
0.236605
0.177244
0.153772
0.141013
0.132923
0.127451
0.123854
0.121894
0.121556
0.122942
0.126237
0.131707
0.139701
0.150678
0.165222
0.184062
0.208101
0.238422
0.276312
0.323286
0.381154
0.45216
0.539213
0.646162
0.777956
0.940256
1.13927
1.3753
1.54858
1.55994
1.45206
1.2804
1.08716
0.899974
0.734943
0.599749
0.495987
0.42206
0.375073
0.35156
0.348529
0.363598
0.394245
0.436317
0.59191
0.247236
0.181778
0.155999
0.142233
0.133613
0.127872
0.124148
0.122164
0.121897
0.123456
0.127041
0.132939
0.141539
0.153348
0.169019
0.189376
0.215439
0.248445
0.289858
0.341399
0.405108
0.483504
0.579874
0.698598
0.845117
1.02531
1.24525
1.47172
1.57639
1.53028
1.39027
1.20642
1.01298
0.832884
0.677592
0.551986
0.456268
0.387957
0.343413
0.319063
0.311353
0.317203
0.333583
0.356704
0.629038
0.265152
0.189518
0.159854
0.144496
0.135117
0.128954
0.125032
0.122995
0.122792
0.124529
0.128413
0.134753
0.143968
0.156615
0.173416
0.19529
0.223383
0.259096
0.304093
0.36033
0.430098
0.516203
0.622331
0.753425
0.915389
1.11435
1.35371
1.54211
1.57111
1.47887
1.31736
1.12807
0.939684
0.768855
0.624165
0.508502
0.420927
0.358336
0.316787
0.292435
0.281883
0.281844
0.2893
0.301051
0.662744
0.295226
0.201414
0.165396
0.147684
0.137306
0.130649
0.126484
0.124388
0.124262
0.126199
0.130409
0.137216
0.147068
0.160567
0.178499
0.201877
0.231978
0.270372
0.318947
0.379922
0.455871
0.549889
0.666046
0.809794
0.987526
1.20558
1.43969
1.56497
1.53605
1.41036
1.23641
1.04839
0.867986
0.70799
0.57453
0.468942
0.389425
0.332493
0.294115
0.270453
0.258229
0.254437
0.256276
0.261111
0.686542
0.349272
0.218846
0.172652
0.151691
0.140074
0.132883
0.128471
0.126335
0.12632
0.1285
0.133084
0.140405
0.150937
0.165321
0.184402
0.209279
0.241353
0.28237
0.334453
0.400122
0.482269
0.584264
0.710477
0.866705
1.0599
1.29612
1.49591
1.54602
1.47389
1.32797
1.15052
0.968304
0.798368
0.650408
0.528567
0.432994
0.3613
0.309827
0.274627
0.252055
0.238986
0.232813
0.231091
0.231655
0.718115
0.452689
0.243209
0.181618
0.156553
0.143496
0.135684
0.131012
0.128841
0.128971
0.131445
0.136467
0.144377
0.155665
0.171004
0.19129
0.217699
0.251746
0.295345
0.35086
0.421131
0.509409
0.619292
0.755252
0.923065
1.13067
1.3642
1.50078
1.49249
1.38972
1.2351
1.06105
0.888666
0.731295
0.596251
0.486175
0.400384
0.336153
0.289841
0.257716
0.236416
0.223107
0.215449
0.211456
0.209344
0.783418
0.48418
0.271522
0.191936
0.16231
0.1478
0.139287
0.134273
0.132031
0.132304
0.135105
0.140629
0.149219
0.161372
0.177785
0.199395
0.227444
0.263544
0.30976
0.368683
0.443467
0.537748
0.65531
0.800392
0.977871
1.19359
1.38587
1.45026
1.40473
1.28759
1.13445
0.969847
0.810591
0.66735
0.545712
0.447282
0.370867
0.313641
0.27213
0.242907
0.222952
0.209757
0.20127
0.195826
0.192023
0.809232
0.413698
0.278886
0.20102
0.168804
0.153141
0.143884
0.138385
0.136048
0.13647
0.139625
0.145709
0.15508
0.168237
0.185881
0.208988
0.238853
0.277154
0.326086
0.38844
0.467671
0.567838
0.692894
0.846803
1.03377
1.2393
1.35393
1.36218
1.29452
1.17543
1.0309
0.879745
0.735623
0.607258
0.499018
0.411824
0.344226
0.293471
0.256361
0.229831
0.211224
0.198358
0.189472
0.183146
0.178271
0.806145
0.411786
0.268961
0.204263
0.174147
0.158104
0.148622
0.142945
0.140693
0.141415
0.145018
0.151752
0.162032
0.17635
0.1954
0.220195
0.25207
0.29274
0.34452
0.410375
0.494105
0.600213
0.732619
0.895346
1.07795
1.21984
1.27883
1.2571
1.17905
1.06364
0.930391
0.793943
0.665363
0.551714
0.456358
0.379719
0.320252
0.275386
0.242263
0.2182
0.2009
0.18849
0.179475
0.172667
0.167133
0.772109
0.383516
0.262306
0.203727
0.175112
0.159631
0.150345
0.145163
0.143416
0.144769
0.149178
0.156902
0.168359
0.18406
0.204741
0.231462
0.265628
0.309054
0.364118
0.433773
0.521779
0.632254
0.76736
0.922273
1.06474
1.15965
1.18629
1.14948
1.06777
0.958252
0.836593
0.714527
0.60087
0.501142
0.417788
0.350836
0.298736
0.259162
0.229615
0.20779
0.19173
0.179846
0.170877
0.163834
0.15795
0.760163
0.362752
0.254218
0.200816
0.173416
0.158559
0.150313
0.146264
0.14549
0.147729
0.153133
0.162029
0.174838
0.19212
0.214665
0.243557
0.280205
0.326397
0.384319
0.456498
0.545691
0.653891
0.779619
0.908052
1.01695
1.08101
1.0877
1.04303
0.962009
0.860312
0.750461
0.642191
0.542518
0.455638
0.383218
0.324992
0.27947
0.244597
0.218232
0.198424
0.183524
0.172197
0.163387
0.156272
0.150223
0.770618
0.348583
0.244244
0.195906
0.17079
0.157206
0.150106
0.14726
0.147756
0.151342
0.158141
0.168468
0.182777
0.201671
0.225953
0.256671
0.295121
0.342909
0.401876
0.473879
0.560559
0.660834
0.769279
0.872297
0.95227
0.992614
0.986308
0.938818
0.862096
0.769709
0.671958
0.576938
0.490249
0.415058
0.352447
0.301968
0.262248
0.231515
0.207962
0.18996
0.176134
0.165371
0.156791
0.149712
0.143615
0.798351
0.338303
0.233804
0.189802
0.167512
0.155823
0.150287
0.148918
0.150874
0.155919
0.164159
0.175911
0.191636
0.211931
0.23757
0.269513
0.308874
0.357008
0.415228
0.484332
0.564248
0.652374
0.741944
0.82151
0.87798
0.900716
0.886167
0.839006
0.768792
0.686635
0.601014
0.518583
0.443824
0.379136
0.325209
0.281528
0.246878
0.219761
0.198679
0.182286
0.169446
0.159236
0.150927
0.143952
0.137885
0.836243
0.33067
0.224826
0.183872
0.164053
0.154303
0.150464
0.150698
0.154207
0.160755
0.170431
0.183532
0.200505
0.221898
0.248426
0.280926
0.320207
0.367178
0.422516
0.486227
)
;

boundaryField
{
    leftWall
    {
        type            epsilonWallFunction;
        value           nonuniform List<scalar> 
44
(
0.0461769
0.0854691
0.130539
0.164291
0.19174
0.214746
0.234511
0.251919
0.267615
0.282059
0.295579
0.308559
0.321054
0.333163
0.344952
0.356471
0.36775
0.378816
0.38969
0.400396
0.410964
0.42144
0.431896
0.442449
0.453284
0.464694
0.47713
0.491258
0.508052
0.529016
0.556828
0.59191
0.629038
0.662744
0.686542
0.718115
0.783418
0.809232
0.806145
0.772109
0.760163
0.770618
0.798351
0.836243
)
;
    }
    rightWall
    {
        type            epsilonWallFunction;
        value           nonuniform 0();
    }
    lowerWall
    {
        type            epsilonWallFunction;
        value           nonuniform List<scalar> 
44
(
0.0461769
0.147467
0.269375
0.370488
0.457649
0.534683
0.604521
0.669378
0.730998
0.790813
0.850059
0.909863
0.971294
1.03539
1.10318
1.17565
1.25378
1.33842
1.43033
1.53002
1.63774
1.75331
1.87603
2.0046
2.13699
2.27041
2.40128
2.52533
2.63771
2.73329
2.80696
2.85402
2.87051
2.85322
2.79933
2.70971
2.59962
2.46299
2.29655
2.09989
1.87694
1.64055
1.42141
1.27371
)
;
    }
    atmosphere
    {
        type            inletOutlet;
        inletValue      nonuniform 0();
        value           nonuniform 0();
    }
    defaultFaces
    {
        type            empty;
    }
    procBoundary0to1
    {
        type            processor;
        value           nonuniform List<scalar> 
44
(
1.11425
1.93763
2.24887
2.49501
2.79777
3.21847
3.75507
4.34545
4.90381
5.38116
5.70837
6.02206
6.36407
6.72903
6.97755
6.92843
6.69542
6.42372
6.14237
5.85344
5.85344
6.61213
6.27106
5.65904
4.70366
3.5966
2.58549
1.79819
1.24356
0.874932
0.636378
0.482346
0.381367
0.313441
0.266321
0.232573
0.207649
0.188714
0.173961
0.16221
0.152665
0.144782
0.138135
0.13244
)
;
    }
    procBoundary0to2
    {
        type            processor;
        value           nonuniform List<scalar> 
46
(
0.557062
0.631485
0.702947
0.762357
0.800397
0.810414
0.790923
0.746012
0.683302
0.611573
0.53765
0.466915
0.402939
0.347561
0.301232
0.263454
0.233194
0.209215
0.190291
0.175323
0.163378
0.153699
0.145682
0.138861
0.132882
0.877043
0.325078
0.218465
0.179277
0.161137
0.152916
0.150545
0.152231
0.157179
0.165123
0.176108
0.190392
0.208381
0.230506
0.257347
0.289529
0.327639
0.37214
0.423122
0.557062
0.479922
)
;
    }
}


// ************************************************************************* //
