-3.5 	900 	4.99404e-13 	1129.9
-3.486 	900 	5.40914e-13 	1129.9
-3.472 	900 	5.4158e-13 	1129.9
-3.458 	900 	4.8727e-13 	1129.9
-3.444 	900 	4.62456e-13 	1129.9
-3.43 	900 	4.30392e-13 	1129.9
-3.416 	900 	3.87078e-13 	1129.9
-3.402 	900 	4.01101e-13 	1129.9
-3.388 	900 	4.62999e-13 	1129.9
-3.374 	900 	4.43679e-13 	1129.9
-3.36 	900 	3.76711e-13 	1129.9
-3.346 	900 	2.73705e-13 	1129.9
-3.332 	900 	1.20096e-13 	1129.9
-3.318 	900 	8.44766e-14 	1129.9
-3.304 	900 	8.84463e-14 	1129.9
-3.29 	900 	7.90408e-14 	1129.9
-3.276 	900 	2.32375e-13 	1129.9
-3.262 	900 	4.47468e-13 	1129.9
-3.248 	900 	4.84772e-13 	1129.9
-3.234 	900 	3.2618e-13 	1129.9
-3.22 	900 	1.11681e-13 	1129.9
-3.206 	900 	7.37692e-14 	1129.9
-3.192 	900 	2.89156e-13 	1129.9
-3.178 	900 	4.89391e-13 	1129.9
-3.164 	900 	5.26238e-13 	1129.9
-3.15 	900 	5.57198e-13 	1129.9
-3.136 	900 	5.54566e-13 	1129.9
-3.122 	900 	4.88955e-13 	1129.9
-3.108 	900 	5.10839e-13 	1129.9
-3.094 	900 	5.88003e-13 	1129.9
-3.08 	900 	5.591e-13 	1129.9
-3.066 	900 	4.92177e-13 	1129.9
-3.052 	900 	5.28971e-13 	1129.9
-3.038 	900 	5.76678e-13 	1129.9
-3.024 	900 	6.17683e-13 	1129.9
-3.01 	900 	6.99341e-13 	1129.9
-2.996 	900 	7.35359e-13 	1129.9
-2.982 	900 	6.13668e-13 	1129.9
-2.968 	900 	3.99019e-13 	1129.9
-2.954 	900 	2.0223e-13 	1129.9
-2.94 	900 	1.03351e-13 	1129.9
-2.926 	900 	9.05906e-14 	1129.9
-2.912 	900 	1.46731e-13 	1129.9
-2.898 	900 	2.24836e-13 	1129.9
-2.884 	900 	1.88042e-13 	1129.9
-2.87 	900 	9.64861e-14 	1129.9
-2.856 	900 	7.38078e-14 	1129.9
-2.842 	900 	1.4601e-13 	1129.9
-2.828 	900 	2.77523e-13 	1129.9
-2.814 	900 	4.48847e-13 	1129.9
-2.8 	900 	4.9347e-13 	1129.9
-2.786 	900 	3.6633e-13 	1129.9
-2.772 	900 	2.91911e-13 	1129.9
-2.758 	900 	3.04471e-13 	1129.9
-2.744 	900 	2.92723e-13 	1129.9
-2.73 	900 	2.64338e-13 	1129.9
-2.716 	900 	1.79569e-13 	1129.9
-2.702 	900 	1.73022e-13 	1129.9
-2.688 	900 	2.77602e-13 	1129.9
-2.674 	900 	3.20601e-13 	1129.9
-2.66 	900 	3.79916e-13 	1129.9
-2.646 	900 	3.68608e-13 	1129.9
-2.632 	900 	2.58772e-13 	1129.9
-2.618 	900 	2.29902e-13 	1129.9
-2.604 	900 	3.05335e-13 	1129.9
-2.59 	900 	3.10491e-13 	1129.9
-2.576 	900 	2.55672e-13 	1129.9
-2.562 	900 	2.62789e-13 	1129.9
-2.548 	900 	3.67943e-13 	1129.9
-2.534 	900 	4.91118e-13 	1129.9
-2.52 	900 	4.55457e-13 	1129.9
-2.506 	900 	3.16525e-13 	1129.9
-2.492 	900 	1.56512e-13 	1129.9
-2.478 	900 	7.15323e-14 	1129.9
-2.464 	900 	6.42786e-14 	1129.9
-2.45 	900 	2.88191e-14 	1129.9
-2.436 	900 	6.67398e-14 	1129.9
-2.422 	900 	1.1559e-13 	1129.9
-2.408 	900 	1.11159e-13 	1129.9
-2.394 	900 	5.94742e-14 	1129.9
-2.38 	900 	5.84167e-14 	1129.9
-2.366 	900 	1.61799e-13 	1129.9
-2.352 	900 	1.69326e-13 	1129.9
-2.338 	900 	1.04236e-13 	1129.9
-2.324 	900 	5.28517e-14 	1129.9
-2.31 	900 	3.66579e-14 	1129.9
-2.296 	900 	3.89895e-14 	1129.9
-2.282 	900 	1.40865e-13 	1129.9
-2.268 	900 	2.28494e-13 	1129.9
-2.254 	900 	1.57455e-13 	1129.9
-2.24 	900 	9.82273e-14 	1129.9
-2.226 	900 	1.25468e-13 	1129.9
-2.212 	900 	2.44003e-13 	1129.9
-2.198 	900 	3.04453e-13 	1129.9
-2.184 	900 	2.71641e-13 	1129.9
-2.17 	900 	2.13346e-13 	1129.9
-2.156 	900 	1.94946e-13 	1129.9
-2.142 	900 	1.59165e-13 	1129.9
-2.128 	900 	1.50513e-13 	1129.9
-2.114 	900 	2.74977e-13 	1129.9
-2.1 	900 	3.07163e-13 	1129.9
-2.086 	900 	1.48125e-13 	1129.9
-2.072 	900 	6.69951e-14 	1129.9
-2.058 	900 	1.09829e-13 	1129.9
-2.044 	900 	1.69573e-13 	1129.9
-2.03 	900 	2.66912e-13 	1129.9
-2.016 	900 	2.07244e-13 	1129.9
-2.002 	900 	8.24625e-14 	1129.9
-1.988 	900 	4.9721e-14 	1129.9
-1.974 	900 	4.46205e-14 	1129.9
-1.96 	900 	5.85842e-14 	1129.9
-1.946 	900 	7.11926e-14 	1129.9
-1.932 	900 	9.50784e-14 	1129.9
-1.918 	900 	1.77035e-13 	1129.9
-1.904 	900 	2.79451e-13 	1129.9
-1.89 	900 	2.58128e-13 	1129.9
-1.876 	900 	1.52402e-13 	1129.9
-1.862 	900 	8.38579e-14 	1129.9
-1.848 	900 	6.56345e-14 	1129.9
-1.834 	900 	1.29333e-13 	1129.9
-1.82 	900 	1.82872e-13 	1129.9
-1.806 	900 	3.04757e-13 	1129.9
-1.792 	900 	4.34426e-13 	1129.9
-1.778 	900 	4.61549e-13 	1129.9
-1.764 	900 	3.6328e-13 	1129.9
-1.75 	900 	1.94799e-13 	1129.9
-1.736 	900 	1.39242e-13 	1129.9
-1.722 	900 	1.85119e-13 	1129.9
-1.708 	900 	1.99695e-13 	1129.9
-1.694 	900 	1.55223e-13 	1129.9
-1.68 	900 	9.42878e-14 	1129.9
-1.666 	900 	1.25563e-13 	1129.9
-1.652 	900 	2.08147e-13 	1129.9
-1.638 	900 	2.26294e-13 	1129.9
-1.624 	900 	2.8672e-13 	1129.9
-1.61 	900 	3.44799e-13 	1129.9
-1.596 	900 	3.2751e-13 	1129.9
-1.582 	900 	2.25676e-13 	1129.9
-1.568 	900 	9.43881e-14 	1129.9
-1.554 	900 	9.81426e-14 	1129.9
-1.54 	900 	1.63687e-13 	1129.9
-1.526 	900 	1.57104e-13 	1129.9
-1.512 	900 	9.81169e-14 	1129.9
-1.498 	900 	7.10383e-14 	1129.9
-1.484 	900 	1.79864e-13 	1129.9
-1.47 	900 	3.4821e-13 	1129.9
-1.456 	900 	3.13384e-13 	1129.9
-1.442 	900 	1.51186e-13 	1129.9
-1.428 	900 	1.78444e-13 	1129.9
-1.414 	900 	3.2448e-13 	1129.9
-1.4 	900 	2.93468e-13 	1129.9
-1.386 	900 	1.06512e-13 	1129.9
-1.372 	900 	1.56243e-13 	1129.9
-1.358 	900 	1.54069e-13 	1129.9
-1.344 	900 	1.24924e-13 	1129.9
-1.33 	900 	2.51565e-13 	1129.9
-1.316 	900 	1.90689e-13 	1129.9
-1.302 	900 	1.24935e-13 	1129.9
-1.288 	900 	1.75686e-13 	1129.9
-1.274 	900 	2.70566e-13 	1129.9
-1.26 	900 	4.27413e-13 	1129.9
-1.246 	900 	5.04561e-13 	1129.9
-1.232 	900 	4.61134e-13 	1129.9
-1.218 	900 	3.867e-13 	1129.9
-1.204 	900 	1.8029e-13 	1129.9
-1.19 	900 	1.25915e-14 	1129.9
-1.176 	900 	3.1028e-13 	1129.9
-1.162 	900 	2.33346e-12 	1129.9
-1.148 	900 	1.16535e-11 	1129.9
-1.134 	900 	4.96136e-11 	1129.9
-1.12 	900 	1.97825e-10 	1129.9
-1.106 	900 	7.66873e-10 	1129.9
-1.092 	900 	2.9163e-09 	1129.9
-1.078 	900 	1.08901e-08 	1129.9
-1.064 	900 	3.9903e-08 	1129.9
-1.05 	900 	1.43412e-07 	1129.9
-1.036 	900 	5.05366e-07 	1129.9
-1.022 	900 	1.74546e-06 	1129.9
-1.008 	900 	5.9066e-06 	1129.9
-0.994 	900 	1.95757e-05 	1129.9
-0.98 	900 	6.35123e-05 	1129.9
-0.966 	900 	0.000201632 	1129.9
-0.952 	900 	0.000626047 	1129.9
-0.938 	899.999 	0.00190014 	1129.89
-0.924 	899.996 	0.00563488 	1129.89
-0.91 	899.99 	0.0163198 	1129.86
-0.896 	899.972 	0.046149 	1129.78
-0.882 	899.923 	0.127426 	1129.57
-0.868 	899.794 	0.343856 	1128.99
-0.854 	899.456 	0.909096 	1127.51
-0.84 	898.582 	2.36897 	1123.68
-0.826 	896.305 	6.17275 	1113.77
-0.812 	890.582 	15.7462 	1089.18
-0.798 	881.029 	31.7794 	1049.05
-0.784 	871.384 	48.0486 	1009.52
-0.77 	864.1 	60.3966 	980.383
-0.756 	858.362 	70.1542 	957.869
-0.742 	853.332 	78.7415 	938.432
-0.728 	848.595 	86.8526 	920.388
-0.714 	843.97 	94.7942 	903.011
-0.7 	839.388 	102.686 	886.022
-0.686 	834.826 	110.564 	869.335
-0.672 	830.281 	118.435 	852.935
-0.658 	825.754 	126.297 	836.819
-0.644 	821.245 	134.147 	820.986
-0.63 	816.755 	141.988 	805.433
-0.616 	812.284 	149.817 	790.153
-0.602 	807.831 	157.637 	775.139
-0.588 	803.394 	165.448 	760.385
-0.574 	798.974 	173.253 	745.886
-0.56 	794.57 	181.052 	731.635
-0.546 	790.179 	188.846 	717.625
-0.532 	785.804 	196.637 	703.852
-0.518 	781.443 	204.423 	690.313
-0.504 	777.095 	212.208 	677.002
-0.49 	772.761 	219.991 	663.913
-0.476 	768.439 	227.772 	651.045
-0.462 	764.131 	235.552 	638.394
-0.448 	759.836 	243.33 	625.956
-0.434 	755.553 	251.107 	613.727
-0.42 	751.284 	258.882 	601.706
-0.406 	747.027 	266.656 	589.89
-0.392 	742.784 	274.428 	578.277
-0.378 	738.555 	282.197 	566.864
-0.364 	734.34 	289.962 	555.65
-0.35 	730.139 	297.721 	544.633
-0.336 	725.954 	305.476 	533.812
-0.322 	721.784 	313.223 	523.186
-0.308 	717.632 	320.962 	512.752
-0.294 	713.497 	328.69 	502.511
-0.28 	709.382 	336.403 	492.466
-0.266 	705.293 	344.087 	482.628
-0.252 	701.247 	351.716 	473.029
-0.238 	697.279 	359.221 	463.749
-0.224 	693.462 	366.455 	454.943
-0.21 	689.933 	373.174 	446.91
-0.196 	686.88 	379.004 	440.04
-0.182 	684.475 	383.52 	434.683
-0.168 	682.886 	386.649 	431.175
-0.154 	682.003 	388.433 	429.251
-0.14 	681.566 	389.099 	428.308
-0.126 	681.435 	389.24 	428.028
-0.112 	681.518 	389.098 	428.226
-0.098 	681.743 	388.75 	428.741
-0.084 	681.945 	388.438 	429.211
-0.07 	682.032 	388.203 	429.433
-0.056 	682.06 	387.99 	429.519
-0.042 	682.095 	387.853 	429.608
-0.028 	682.14 	387.813 	429.721
-0.014 	682.173 	387.833 	429.816
0 	682.172 	387.87 	429.839
0.014 	682.12 	387.901 	429.762
0.028 	682.038 	387.929 	429.625
0.042 	681.968 	387.976 	429.494
0.056 	681.932 	388.068 	429.424
0.07 	681.918 	388.189 	429.409
0.084 	681.889 	388.278 	429.373
0.098 	681.827 	388.317 	429.282
0.112 	681.747 	388.341 	429.161
0.126 	681.674 	388.38 	429.041
0.14 	681.628 	388.462 	428.971
0.154 	681.614 	388.568 	428.962
0.168 	681.602 	388.629 	428.959
0.182 	681.572 	388.622 	428.922
0.196 	681.53 	388.59 	428.867
0.21 	681.491 	388.575 	428.826
0.224 	681.471 	388.6 	428.827
0.238 	681.47 	388.652 	428.866
0.252 	681.465 	388.68 	428.894
0.266 	681.442 	388.656 	428.88
0.28 	681.417 	388.603 	428.855
0.294 	681.399 	388.554 	428.859
0.308 	681.391 	388.528 	428.908
0.322 	681.394 	388.52 	428.992
0.336 	681.404 	388.496 	429.073
0.35 	681.409 	388.437 	429.121
0.364 	681.404 	388.366 	429.138
0.378 	681.398 	388.324 	429.142
0.392 	681.408 	388.314 	429.166
0.406 	681.439 	388.303 	429.232
0.42 	681.476 	388.26 	429.327
0.434 	681.479 	388.203 	429.384
0.448 	681.421 	388.165 	429.391
0.462 	681.248 	388.142 	429.379
0.476 	680.804 	388.125 	429.369
0.49 	679.726 	388.111 	429.388
0.504 	677.223 	388.102 	429.449
0.518 	671.699 	388.101 	429.554
0.532 	660.139 	388.142 	429.709
0.546 	637.234 	388.296 	430.024
0.56 	595.83 	388.133 	430.103
0.574 	540.5 	388.312 	430.43
0.588 	498.708 	390.181 	432.769
0.602 	481.553 	390.57 	433.175
0.616 	475.636 	388.841 	430.712
0.63 	473.564 	387.327 	428.5
0.644 	472.974 	385.913 	426.39
0.658 	473.445 	385.211 	425.356
0.672 	475.022 	385.544 	425.74
0.686 	477.11 	386.7 	427.222
0.7 	478.568 	388.255 	429.307
0.714 	479.079 	389.397 	430.84
0.728 	479.067 	389.911 	431.51
0.742 	478.784 	390.368 	432.113
0.756 	478.058 	390.65 	432.456
0.77 	476.94 	390.432 	432.117
0.784 	475.861 	389.8 	431.243
0.798 	474.981 	388.462 	429.388
0.812 	474.385 	386.73 	426.986
0.826 	474.239 	385.678 	425.524
0.84 	474.553 	385.417 	425.17
0.854 	475.237 	385.614 	425.434
0.868 	476.147 	386.378 	426.456
0.882 	477.209 	388.164 	428.892
0.896 	477.841 	389.494 	430.711
0.91 	477.289 	388.02 	428.726
0.924 	468.399 	368.558 	402.413
0.938 	417.566 	250.579 	284.639
0.952 	339.863 	80.9599 	152.609
0.966 	302.487 	6.05825 	111.791
0.98 	300.129 	0.351157 	109.255
0.994 	300.007 	0.0199285 	109.109
1.008 	300 	0.00112952 	109.1
1.022 	300 	6.40514e-05 	109.1
1.036 	300 	3.63415e-06 	109.1
1.05 	300 	2.06325e-07 	109.1
1.064 	300 	1.17226e-08 	109.1
1.078 	300 	6.66867e-10 	109.1
1.092 	300 	3.83093e-11 	109.1
1.106 	300 	2.44724e-12 	109.1
1.12 	300 	3.46714e-13 	109.1
1.134 	300 	2.75924e-13 	109.1
1.148 	300 	2.77721e-13 	109.1
1.162 	300 	2.02654e-13 	109.1
1.176 	300 	2.16275e-13 	109.1
1.19 	300 	2.59021e-13 	109.1
1.204 	300 	2.06202e-13 	109.1
1.218 	300 	1.17213e-13 	109.1
1.232 	300 	8.95223e-14 	109.1
1.246 	300 	1.44156e-13 	109.1
1.26 	300 	1.62142e-13 	109.1
1.274 	300 	9.53196e-14 	109.1
1.288 	300 	9.47301e-14 	109.1
1.302 	300 	1.4762e-13 	109.1
1.316 	300 	9.21637e-14 	109.1
1.33 	300 	4.47227e-14 	109.1
1.344 	300 	8.515e-14 	109.1
1.358 	300 	7.16178e-14 	109.1
1.372 	300 	2.72683e-14 	109.1
1.386 	300 	4.01082e-14 	109.1
1.4 	300 	3.69207e-14 	109.1
1.414 	300 	3.25232e-14 	109.1
1.428 	300 	3.21896e-14 	109.1
1.442 	300 	3.66002e-14 	109.1
1.456 	300 	3.3783e-14 	109.1
1.47 	300 	3.53425e-14 	109.1
1.484 	300 	3.89287e-14 	109.1
1.498 	300 	4.91746e-14 	109.1
1.512 	300 	4.25966e-14 	109.1
1.526 	300 	3.63273e-14 	109.1
1.54 	300 	5.54791e-14 	109.1
1.554 	300 	8.25536e-14 	109.1
1.568 	300 	7.48806e-14 	109.1
1.582 	300 	6.16875e-14 	109.1
1.596 	300 	8.46382e-14 	109.1
1.61 	300 	4.21382e-14 	109.1
1.624 	300 	5.9158e-14 	109.1
1.638 	300 	8.74821e-14 	109.1
1.652 	300 	9.27476e-14 	109.1
1.666 	300 	1.72665e-13 	109.1
1.68 	300 	2.83087e-13 	109.1
1.694 	300 	3.25146e-13 	109.1
1.708 	300 	2.40879e-13 	109.1
1.722 	300 	1.5038e-13 	109.1
1.736 	300 	1.84024e-13 	109.1
1.75 	300 	2.22364e-13 	109.1
1.764 	300 	1.90067e-13 	109.1
1.778 	300 	1.68241e-13 	109.1
1.792 	300 	1.58134e-13 	109.1
1.806 	300 	1.49928e-13 	109.1
1.82 	300 	1.57392e-13 	109.1
1.834 	300 	2.39123e-13 	109.1
1.848 	300 	3.16976e-13 	109.1
1.862 	300 	3.10053e-13 	109.1
1.876 	300 	3.08289e-13 	109.1
1.89 	300 	3.85083e-13 	109.1
1.904 	300 	5.17209e-13 	109.1
1.918 	300 	6.1127e-13 	109.1
1.932 	300 	6.05668e-13 	109.1
1.946 	300 	5.37059e-13 	109.1
1.96 	300 	5.52273e-13 	109.1
1.974 	300 	6.02588e-13 	109.1
1.988 	300 	5.71077e-13 	109.1
2.002 	300 	4.91333e-13 	109.1
2.016 	300 	4.18553e-13 	109.1
2.03 	300 	3.68398e-13 	109.1
2.044 	300 	3.13516e-13 	109.1
2.058 	300 	2.60798e-13 	109.1
2.072 	300 	2.42927e-13 	109.1
2.086 	300 	1.9405e-13 	109.1
2.1 	300 	1.1093e-13 	109.1
2.114 	300 	1.31412e-13 	109.1
2.128 	300 	1.61407e-13 	109.1
2.142 	300 	1.04288e-13 	109.1
2.156 	300 	8.6337e-14 	109.1
2.17 	300 	1.48219e-13 	109.1
2.184 	300 	2.0793e-13 	109.1
2.198 	300 	2.15589e-13 	109.1
2.212 	300 	2.02526e-13 	109.1
2.226 	300 	1.91629e-13 	109.1
2.24 	300 	1.62063e-13 	109.1
2.254 	300 	1.82303e-13 	109.1
2.268 	300 	2.24219e-13 	109.1
2.282 	300 	2.66443e-13 	109.1
2.296 	300 	2.80377e-13 	109.1
2.31 	300 	2.23703e-13 	109.1
2.324 	300 	1.5489e-13 	109.1
2.338 	300 	8.94091e-14 	109.1
2.352 	300 	4.26126e-14 	109.1
2.366 	300 	5.08078e-14 	109.1
2.38 	300 	9.98136e-14 	109.1
2.394 	300 	7.60667e-14 	109.1
2.408 	300 	7.58277e-14 	109.1
2.422 	300 	1.58563e-13 	109.1
2.436 	300 	2.40955e-13 	109.1
2.45 	300 	2.47246e-13 	109.1
2.464 	300 	1.70059e-13 	109.1
2.478 	300 	6.7792e-14 	109.1
2.492 	300 	4.8415e-14 	109.1
2.506 	300 	7.61832e-14 	109.1
2.52 	300 	1.06363e-13 	109.1
2.534 	300 	1.81277e-13 	109.1
2.548 	300 	1.83349e-13 	109.1
2.562 	300 	9.06934e-14 	109.1
2.576 	300 	4.37552e-14 	109.1
2.59 	300 	5.13265e-14 	109.1
2.604 	300 	3.87433e-14 	109.1
2.618 	300 	1.00878e-13 	109.1
2.632 	300 	2.38406e-13 	109.1
2.646 	300 	3.35523e-13 	109.1
2.66 	300 	3.1531e-13 	109.1
2.674 	300 	1.61624e-13 	109.1
2.688 	300 	7.07652e-14 	109.1
2.702 	300 	9.75063e-14 	109.1
2.716 	300 	8.23226e-14 	109.1
2.73 	300 	1.18766e-13 	109.1
2.744 	300 	2.06169e-13 	109.1
2.758 	300 	1.66896e-13 	109.1
2.772 	300 	7.33067e-14 	109.1
2.786 	300 	7.97296e-14 	109.1
2.8 	300 	1.25631e-13 	109.1
2.814 	300 	7.51189e-14 	109.1
2.828 	300 	1.39316e-14 	109.1
2.842 	300 	6.51102e-14 	109.1
2.856 	300 	1.24478e-13 	109.1
2.87 	300 	1.09856e-13 	109.1
2.884 	300 	9.92613e-14 	109.1
2.898 	300 	7.59008e-14 	109.1
2.912 	300 	5.60442e-14 	109.1
2.926 	300 	1.06675e-13 	109.1
2.94 	300 	1.30845e-13 	109.1
2.954 	300 	8.2079e-14 	109.1
2.968 	300 	7.61521e-14 	109.1
2.982 	300 	6.65942e-14 	109.1
2.996 	300 	2.80001e-14 	109.1
3.01 	300 	2.67203e-14 	109.1
3.024 	300 	3.11126e-14 	109.1
3.038 	300 	5.0022e-14 	109.1
3.052 	300 	5.06498e-14 	109.1
3.066 	300 	8.37329e-14 	109.1
3.08 	300 	7.3127e-14 	109.1
3.094 	300 	2.26929e-14 	109.1
3.108 	300 	3.74005e-14 	109.1
3.122 	300 	8.98587e-14 	109.1
3.136 	300 	1.17699e-13 	109.1
3.15 	300 	1.05456e-13 	109.1
3.164 	300 	6.88645e-14 	109.1
3.178 	300 	6.19038e-14 	109.1
3.192 	300 	4.6964e-14 	109.1
3.206 	300 	6.86658e-14 	109.1
3.22 	300 	1.52425e-13 	109.1
3.234 	300 	1.56482e-13 	109.1
3.248 	300 	8.09614e-14 	109.1
3.262 	300 	3.99644e-14 	109.1
3.276 	300 	6.01588e-14 	109.1
3.29 	300 	7.45528e-14 	109.1
3.304 	300 	7.08815e-14 	109.1
3.318 	300 	3.36319e-14 	109.1
3.332 	300 	1.11014e-14 	109.1
3.346 	300 	1.99189e-14 	109.1
3.36 	300 	2.33606e-14 	109.1
3.374 	300 	1.10035e-14 	109.1
3.388 	300 	6.09187e-14 	109.1
3.402 	300 	1.87914e-13 	109.1
3.416 	300 	2.57546e-13 	109.1
3.43 	300 	1.50619e-13 	109.1
3.444 	300 	4.35633e-14 	109.1
3.458 	300 	9.57936e-14 	109.1
3.472 	300 	1.82095e-13 	109.1
3.486 	300 	2.21425e-13 	109.1
3.5 	300 	2.32784e-13 	109.1
3.5 	300 	2.32784e-13 	109.1
