/*--------------------------------*- C++ -*----------------------------------*\
  =========                 |
  \\      /  F ield         | OpenFOAM: The Open Source CFD Toolbox
   \\    /   O peration     | Website:  https://openfoam.org
    \\  /    A nd           | Version:  7
     \\/     M anipulation  |
\*---------------------------------------------------------------------------*/
FoamFile
{
    version     2.0;
    format      ascii;
    class       volScalarField;
    location    "0.003";
    object      dsmcRhoN;
}
// * * * * * * * * * * * * * * * * * * * * * * * * * * * * * * * * * * * * * //

dimensions      [0 -3 0 0 0 0 0];

internalField   nonuniform List<scalar> 
1000
(
55
75
72
48
54
56
75
64
67
57
81
75
68
67
78
74
89
89
72
82
82
76
93
83
94
85
81
90
94
94
86
93
82
105
87
97
93
93
89
101
98
100
98
105
91
115
115
106
117
93
102
100
114
110
121
73
127
115
114
127
128
143
109
116
100
120
119
113
128
132
117
115
133
137
136
133
141
151
149
127
148
135
138
141
119
139
163
152
157
139
176
168
152
146
162
176
149
154
164
151
148
180
150
154
170
159
146
143
159
161
148
154
149
176
179
148
164
178
157
156
188
155
163
147
188
163
156
181
164
163
156
167
165
184
147
170
173
150
175
156
150
159
182
166
177
179
179
163
176
167
175
156
169
161
174
152
185
161
173
171
173
176
184
149
168
158
182
183
156
155
149
180
169
161
175
157
171
196
165
183
192
165
168
158
181
168
167
158
175
171
146
150
161
191
181
176
158
165
169
169
175
174
153
162
164
184
166
162
164
176
161
166
169
180
156
173
153
171
145
168
152
166
175
161
143
167
180
162
159
161
155
171
178
161
160
155
173
169
185
152
162
173
208
171
176
205
174
184
146
187
156
190
172
166
159
173
155
173
175
161
156
179
170
169
166
160
165
173
176
182
175
155
190
180
195
169
154
153
170
151
179
172
160
164
154
160
179
187
161
175
165
142
180
166
172
165
162
175
157
172
177
171
156
158
185
160
152
180
158
162
173
172
172
153
170
167
164
159
178
157
161
144
155
184
188
157
183
205
153
179
146
174
189
177
165
171
155
199
172
165
195
186
164
175
156
175
172
173
165
159
157
179
170
162
137
174
193
156
168
180
163
191
172
175
178
150
173
175
177
164
149
157
184
174
166
184
173
149
198
170
162
162
164
178
174
167
170
158
185
159
182
168
156
168
171
157
154
173
148
157
173
145
155
165
156
157
141
129
151
159
162
136
131
142
141
128
147
154
150
154
123
127
143
131
139
154
107
150
141
128
113
121
133
148
120
135
123
124
108
163
125
138
132
116
111
121
132
132
90
112
100
102
120
103
94
109
121
103
109
104
103
110
109
130
103
106
103
114
117
97
94
102
104
117
103
90
100
96
99
104
100
111
96
106
117
94
120
101
126
91
108
104
104
113
115
96
118
89
97
122
100
104
109
112
98
102
105
99
100
102
92
106
105
103
108
92
105
111
109
103
116
102
101
94
79
123
109
95
121
100
100
105
110
84
107
112
107
103
101
105
109
86
89
83
92
100
83
80
83
75
93
93
88
79
82
93
91
81
80
68
72
83
86
73
73
76
67
84
77
80
81
68
79
76
84
80
70
72
69
90
92
77
78
72
57
64
62
92
89
78
77
78
71
77
82
69
71
84
72
66
74
73
78
75
70
69
72
67
85
65
75
74
85
71
66
77
83
67
69
74
83
91
71
76
73
67
69
92
55
84
77
71
59
69
72
62
68
54
60
51
56
65
63
66
49
53
53
57
54
42
55
51
48
48
59
57
53
49
37
57
51
50
60
51
45
53
56
49
48
52
44
52
54
47
41
45
59
42
46
58
39
44
48
54
48
50
51
60
58
51
53
45
53
56
49
50
40
53
56
53
48
50
69
44
43
37
45
43
46
39
51
64
50
46
60
49
40
47
48
42
59
53
55
45
45
56
47
44
44
50
52
59
53
43
57
62
59
47
58
39
58
44
51
50
55
43
41
43
48
63
37
37
53
49
42
44
45
39
52
45
51
39
42
59
60
63
47
35
41
57
49
43
56
49
53
33
54
51
61
45
36
41
46
47
42
34
39
42
41
62
50
53
48
51
41
56
49
53
49
50
63
45
46
48
53
44
56
47
54
41
44
52
47
42
48
53
41
45
45
44
53
54
49
50
51
54
50
45
54
46
34
50
45
48
46
55
55
47
62
45
43
57
35
47
55
55
55
47
47
55
40
47
47
52
48
50
47
51
58
50
51
47
55
52
53
48
44
51
42
50
42
41
44
51
52
45
54
56
53
55
45
49
52
55
50
36
46
56
46
40
35
34
47
46
58
41
43
46
36
40
40
33
49
35
52
49
46
49
50
35
40
38
46
46
39
38
40
43
48
40
33
51
46
34
45
46
40
40
36
26
54
28
27
39
36
42
40
34
42
25
37
33
33
24
34
35
37
37
39
30
22
37
36
31
23
29
29
33
20
40
26
27
24
26
26
27
43
28
30
21
26
33
25
16
27
22
26
32
23
25
24
18
30
20
19
13
22
14
24
23
22
25
15
19
19
18
16
13
15
12
)
;

boundaryField
{
    sides
    {
        type            zeroGradient;
    }
    empty
    {
        type            empty;
    }
}


// ************************************************************************* //
