/*--------------------------------*- C++ -*----------------------------------*\
  =========                 |
  \\      /  F ield         | OpenFOAM: The Open Source CFD Toolbox
   \\    /   O peration     | Website:  https://openfoam.org
    \\  /    A nd           | Version:  7
     \\/     M anipulation  |
\*---------------------------------------------------------------------------*/
FoamFile
{
    version     2.0;
    format      ascii;
    class       volScalarField;
    location    "0.003";
    object      iDofMean;
}
// * * * * * * * * * * * * * * * * * * * * * * * * * * * * * * * * * * * * * //

dimensions      [0 -3 0 0 0 0 0];

internalField   nonuniform List<scalar> 
1000
(
1.20667e+20
7.13833e+19
7.37833e+19
7.70167e+19
1.31617e+20
1.39283e+20
9.70167e+19
9.84833e+19
1.01233e+20
1.5425e+20
1.15967e+20
1.216e+20
1.71933e+20
1.18583e+20
1.18183e+20
1.12533e+20
1.01067e+20
1.035e+20
1.1185e+20
1.1055e+20
1.10467e+20
1.26267e+20
1.74367e+20
1.1375e+20
1.08833e+20
1.12383e+20
1.62417e+20
1.11433e+20
1.12967e+20
1.07433e+20
1.0475e+20
1.56283e+20
1.36567e+20
9.63833e+19
9.90833e+19
9.84e+19
1.483e+20
9.93667e+19
1.05667e+20
1.576e+20
1.0095e+20
1.084e+20
1.65667e+20
1.17767e+20
1.21733e+20
1.2305e+20
1.24467e+20
1.66483e+20
1.2475e+20
1.44167e+20
2.08417e+20
1.13367e+20
1.678e+20
1.28167e+20
1.28383e+20
1.797e+20
1.8105e+20
2.23783e+20
1.70833e+20
1.18533e+20
1.29267e+20
1.874e+20
1.363e+20
1.34933e+20
1.3205e+20
1.51583e+20
2.12633e+20
1.4495e+20
1.29933e+20
1.78967e+20
1.26067e+20
1.265e+20
1.33317e+20
1.3235e+20
1.37333e+20
1.41267e+20
1.90683e+20
1.89217e+20
1.32517e+20
1.2235e+20
1.12933e+20
1.18283e+20
1.64133e+20
1.64383e+20
1.811e+20
1.24583e+20
1.196e+20
1.07833e+20
1.06717e+20
1.06983e+20
1.152e+20
1.16883e+20
1.2135e+20
1.7e+20
1.252e+20
1.73983e+20
1.3445e+20
1.49367e+20
1.43417e+20
1.73583e+20
1.134e+20
1.36433e+20
1.36867e+20
1.34383e+20
1.21717e+20
1.206e+20
1.174e+20
1.148e+20
1.58333e+20
1.63917e+20
1.43483e+20
1.3085e+20
1.309e+20
1.79267e+20
1.446e+20
1.511e+20
1.48017e+20
1.43183e+20
1.838e+20
1.802e+20
1.303e+20
1.81867e+20
1.34383e+20
1.3915e+20
1.404e+20
1.87267e+20
1.9115e+20
1.86417e+20
1.37683e+20
1.3715e+20
2.39017e+20
1.55533e+20
1.68633e+20
1.412e+20
2.32183e+20
1.3385e+20
1.82517e+20
1.823e+20
1.338e+20
1.67017e+20
1.26333e+20
1.29683e+20
1.4885e+20
1.52e+20
2.05733e+20
1.60067e+20
1.62417e+20
1.5425e+20
1.46117e+20
1.46e+20
1.9425e+20
1.386e+20
1.36917e+20
1.3605e+20
1.8305e+20
2.21117e+20
1.62767e+20
1.6685e+20
2.11383e+20
1.67217e+20
1.45083e+20
1.94983e+20
1.4715e+20
1.46667e+20
1.45517e+20
1.92183e+20
1.8805e+20
1.40217e+20
1.48917e+20
1.50033e+20
1.60167e+20
2.21967e+20
1.67567e+20
1.67267e+20
2.08967e+20
1.46433e+20
1.9475e+20
1.49083e+20
1.492e+20
1.59317e+20
1.98783e+20
1.968e+20
2.34617e+20
1.316e+20
1.31367e+20
1.34917e+20
1.87967e+20
1.35717e+20
1.86433e+20
1.36367e+20
1.43533e+20
1.4655e+20
2.47817e+20
1.99433e+20
1.5075e+20
1.50733e+20
1.95767e+20
1.32967e+20
1.36433e+20
1.383e+20
1.474e+20
1.5015e+20
2.0775e+20
1.68633e+20
1.65117e+20
1.62533e+20
1.79883e+20
2.20133e+20
2.61383e+20
2.09883e+20
1.48533e+20
1.4545e+20
1.40267e+20
1.42117e+20
1.92767e+20
1.92117e+20
1.94117e+20
1.90117e+20
1.45483e+20
1.947e+20
1.499e+20
1.5175e+20
1.60167e+20
1.59883e+20
1.65383e+20
1.62367e+20
1.57667e+20
2.09917e+20
1.58417e+20
2.03217e+20
1.53517e+20
1.4385e+20
1.39683e+20
1.872e+20
1.38867e+20
1.43e+20
1.65283e+20
1.70233e+20
1.805e+20
1.87183e+20
1.86567e+20
1.50083e+20
1.52983e+20
2.01267e+20
1.59867e+20
2.32983e+20
1.81567e+20
1.88467e+20
2.31883e+20
2.22633e+20
1.691e+20
1.99083e+20
1.4575e+20
1.44117e+20
1.49083e+20
1.52717e+20
1.48217e+20
1.5115e+20
1.45233e+20
1.367e+20
1.36117e+20
1.398e+20
1.40867e+20
1.397e+20
1.891e+20
1.3415e+20
1.30033e+20
1.26967e+20
1.28883e+20
1.31067e+20
1.3435e+20
1.38417e+20
1.44517e+20
1.44233e+20
1.3875e+20
1.42083e+20
1.47133e+20
1.508e+20
1.54383e+20
1.57083e+20
1.54433e+20
3.013e+20
1.484e+20
1.46767e+20
1.46e+20
1.44567e+20
1.43183e+20
1.40383e+20
1.3655e+20
1.88217e+20
1.3105e+20
1.31483e+20
1.32917e+20
1.29817e+20
1.76733e+20
1.24583e+20
1.228e+20
1.84183e+20
1.84817e+20
1.34433e+20
2.31283e+20
1.32417e+20
1.347e+20
1.37167e+20
1.85217e+20
1.34467e+20
1.37633e+20
1.4135e+20
1.41983e+20
1.409e+20
1.50567e+20
1.602e+20
1.63067e+20
1.51983e+20
1.4015e+20
1.40983e+20
1.4305e+20
1.909e+20
1.44033e+20
1.467e+20
1.547e+20
1.65283e+20
1.6645e+20
1.6795e+20
2.18183e+20
1.56833e+20
2.46567e+20
1.51983e+20
2.36933e+20
1.58883e+20
2.06767e+20
1.5105e+20
1.5355e+20
2.0745e+20
1.597e+20
2.12183e+20
1.596e+20
1.69667e+20
1.73117e+20
2.27667e+20
1.69333e+20
2.72383e+20
1.83967e+20
1.83417e+20
2.28783e+20
1.779e+20
1.7605e+20
1.85633e+20
1.91717e+20
1.697e+20
1.58067e+20
1.57567e+20
1.55367e+20
1.49367e+20
2.00767e+20
1.459e+20
1.95983e+20
1.432e+20
1.38483e+20
1.41067e+20
1.408e+20
1.32917e+20
1.36483e+20
2.02233e+20
1.542e+20
2.06733e+20
2.009e+20
2.01317e+20
1.5515e+20
1.57317e+20
1.58233e+20
1.5375e+20
1.56533e+20
2.17567e+20
1.8295e+20
1.84917e+20
2.399e+20
1.83917e+20
1.60383e+20
1.62067e+20
1.61217e+20
1.579e+20
1.49717e+20
1.52417e+20
1.58433e+20
1.59267e+20
1.61217e+20
1.60967e+20
2.12667e+20
2.11183e+20
2.09433e+20
2.26767e+20
1.82283e+20
1.652e+20
2.058e+20
1.5605e+20
2.08483e+20
1.52333e+20
2.00817e+20
2.05e+20
2.06217e+20
1.52617e+20
1.5215e+20
1.52033e+20
2.06483e+20
1.56367e+20
2.09583e+20
1.47733e+20
1.41567e+20
1.9465e+20
2.49283e+20
2.15933e+20
1.643e+20
2.17317e+20
1.69533e+20
2.05983e+20
2.029e+20
2.00633e+20
1.50217e+20
1.5755e+20
1.745e+20
1.98283e+20
1.43733e+20
1.53133e+20
1.524e+20
1.47983e+20
1.4545e+20
1.521e+20
2.317e+20
1.365e+20
1.23867e+20
1.18633e+20
1.1965e+20
1.212e+20
1.18783e+20
1.36217e+20
1.38017e+20
1.90217e+20
1.74967e+20
1.2265e+20
1.27133e+20
1.63883e+20
1.46567e+20
1.34617e+20
1.295e+20
1.77483e+20
1.2335e+20
1.68783e+20
1.15733e+20
1.17567e+20
1.67833e+20
1.2215e+20
1.25833e+20
1.29617e+20
1.30917e+20
1.2935e+20
1.30633e+20
1.32333e+20
1.319e+20
1.79983e+20
2.30883e+20
1.33667e+20
1.70683e+20
1.72283e+20
1.43483e+20
1.24733e+20
1.23617e+20
1.26067e+20
1.21617e+20
2.21033e+20
2.23217e+20
1.76983e+20
1.29867e+20
1.34033e+20
1.3765e+20
1.99833e+20
1.58967e+20
1.58233e+20
1.62017e+20
1.60567e+20
1.36467e+20
1.43e+20
1.94367e+20
1.92283e+20
1.38167e+20
1.85817e+20
1.3975e+20
1.39467e+20
1.38667e+20
1.35217e+20
1.3365e+20
1.3165e+20
1.75333e+20
1.75717e+20
1.484e+20
1.90733e+20
1.39833e+20
2.39433e+20
1.39083e+20
1.43233e+20
1.52517e+20
2.0195e+20
1.53683e+20
1.56283e+20
1.652e+20
2.23567e+20
1.71483e+20
1.45467e+20
1.4155e+20
1.58e+20
1.8255e+20
2.01367e+20
1.72517e+20
2.04017e+20
1.547e+20
1.75333e+20
2.25017e+20
1.507e+20
1.53217e+20
2.13567e+20
1.69e+20
1.56083e+20
1.41233e+20
1.4245e+20
1.40983e+20
1.43583e+20
1.4705e+20
1.46333e+20
2.478e+20
1.4235e+20
1.50333e+20
1.35417e+20
2.8235e+20
1.84717e+20
1.33117e+20
1.29833e+20
1.28383e+20
2.26817e+20
1.22683e+20
1.65617e+20
1.13467e+20
1.1715e+20
1.75183e+20
1.27433e+20
1.277e+20
1.30383e+20
1.62617e+20
1.7405e+20
1.97383e+20
1.25333e+20
1.25067e+20
2.378e+20
1.70167e+20
1.29767e+20
1.2865e+20
1.79517e+20
1.84133e+20
1.56567e+20
1.6005e+20
1.37383e+20
1.4365e+20
1.50217e+20
1.53617e+20
2.0345e+20
2.04e+20
1.5735e+20
1.59767e+20
2.152e+20
2.1135e+20
1.94717e+20
1.86667e+20
1.88567e+20
2.35417e+20
1.90917e+20
2.3985e+20
1.74583e+20
1.782e+20
1.89733e+20
2.07967e+20
1.80517e+20
1.74783e+20
1.70333e+20
1.69483e+20
1.704e+20
1.63267e+20
2.09117e+20
2.65433e+20
1.8315e+20
2.277e+20
1.72633e+20
1.79517e+20
1.88483e+20
1.9415e+20
2.006e+20
1.85667e+20
1.814e+20
1.796e+20
1.71767e+20
1.583e+20
1.495e+20
2.079e+20
1.5545e+20
1.54317e+20
1.55433e+20
2.08767e+20
1.538e+20
2.43233e+20
1.97317e+20
1.61133e+20
1.59633e+20
1.61533e+20
2.05117e+20
1.46667e+20
1.46317e+20
1.47933e+20
2.01117e+20
1.52833e+20
1.46883e+20
1.38933e+20
1.34467e+20
1.3225e+20
1.81467e+20
1.28767e+20
1.2595e+20
1.305e+20
2.542e+20
1.7525e+20
1.65083e+20
1.38967e+20
1.85217e+20
1.36883e+20
1.4355e+20
1.97283e+20
1.4885e+20
1.9155e+20
1.405e+20
1.419e+20
1.48633e+20
2.07867e+20
1.587e+20
1.60433e+20
1.64917e+20
2.18867e+20
2.04767e+20
1.44717e+20
1.93517e+20
1.656e+20
1.4695e+20
1.35717e+20
1.387e+20
1.38567e+20
1.37533e+20
1.30033e+20
1.34183e+20
1.44417e+20
1.4725e+20
2.004e+20
2.0155e+20
1.43017e+20
1.86217e+20
2.35233e+20
1.31933e+20
1.344e+20
1.8745e+20
1.386e+20
1.51617e+20
2.06433e+20
1.56833e+20
1.548e+20
2.4045e+20
1.425e+20
1.95667e+20
1.48917e+20
1.47217e+20
1.49067e+20
2.02667e+20
1.58633e+20
1.60283e+20
1.64983e+20
1.67117e+20
2.24133e+20
1.8255e+20
1.80017e+20
1.75867e+20
1.6785e+20
2.078e+20
2.08817e+20
1.49367e+20
1.511e+20
1.51683e+20
1.52883e+20
1.629e+20
1.68183e+20
1.74367e+20
1.72483e+20
1.653e+20
1.79817e+20
1.81383e+20
2.25583e+20
2.05033e+20
1.61883e+20
2.3125e+20
2.33483e+20
2.31933e+20
1.68567e+20
2.67233e+20
1.68567e+20
3.20183e+20
1.75983e+20
1.55667e+20
1.54917e+20
1.57483e+20
1.79617e+20
1.83983e+20
1.6385e+20
1.657e+20
1.6825e+20
1.76167e+20
1.6865e+20
1.657e+20
1.67933e+20
1.68417e+20
2.0645e+20
1.90917e+20
1.659e+20
1.6825e+20
1.6415e+20
2.134e+20
1.59967e+20
2.04767e+20
1.80983e+20
2.2515e+20
1.77767e+20
1.6855e+20
1.67267e+20
1.64783e+20
1.6355e+20
2.24567e+20
1.907e+20
1.50333e+20
1.5725e+20
1.60533e+20
2.09767e+20
1.91967e+20
1.888e+20
1.41883e+20
1.49433e+20
1.49333e+20
1.62767e+20
2.3045e+20
1.6735e+20
1.55267e+20
1.47967e+20
1.44783e+20
1.46633e+20
1.4975e+20
1.77133e+20
1.81667e+20
2.228e+20
2.17183e+20
2.15883e+20
1.76033e+20
1.8915e+20
1.89767e+20
2.36317e+20
1.79e+20
1.5995e+20
1.54667e+20
1.53783e+20
1.78933e+20
1.71317e+20
1.82083e+20
2.12417e+20
1.43683e+20
1.88083e+20
1.3765e+20
1.38083e+20
1.91317e+20
1.9865e+20
1.51933e+20
2.12183e+20
1.61767e+20
1.61217e+20
1.83533e+20
1.82183e+20
1.52467e+20
1.516e+20
1.50083e+20
1.46883e+20
1.46133e+20
2.24183e+20
1.61533e+20
1.8565e+20
1.31617e+20
1.28017e+20
2.30233e+20
1.28717e+20
1.28e+20
1.80517e+20
1.81067e+20
1.76967e+20
1.335e+20
1.36217e+20
1.44683e+20
1.41567e+20
1.43167e+20
1.35083e+20
1.34633e+20
1.33417e+20
1.30467e+20
1.1985e+20
1.18383e+20
1.17567e+20
1.66017e+20
1.707e+20
1.19617e+20
2.194e+20
1.195e+20
1.738e+20
1.9565e+20
1.522e+20
2.0765e+20
1.92133e+20
1.532e+20
2.149e+20
2.19917e+20
2.19083e+20
1.68433e+20
1.5705e+20
2.2335e+20
2.24633e+20
1.74133e+20
1.58533e+20
2.04733e+20
2.0555e+20
1.6175e+20
1.5695e+20
2.03183e+20
1.55883e+20
1.71533e+20
1.72433e+20
1.738e+20
2.07917e+20
1.52017e+20
2.025e+20
2.02917e+20
2.04233e+20
1.4875e+20
1.981e+20
2.52033e+20
1.479e+20
1.42333e+20
1.455e+20
1.60217e+20
2.15733e+20
1.7435e+20
2.25817e+20
1.73933e+20
1.675e+20
1.71583e+20
1.78883e+20
2.31017e+20
1.819e+20
2.09733e+20
2.0805e+20
1.85933e+20
1.90333e+20
1.89733e+20
1.95533e+20
1.9975e+20
2.45983e+20
1.869e+20
1.8415e+20
1.81667e+20
1.74033e+20
1.73033e+20
1.84667e+20
1.8465e+20
1.75933e+20
2.147e+20
1.78867e+20
1.75033e+20
1.487e+20
1.91867e+20
1.84467e+20
1.38167e+20
1.38983e+20
1.90217e+20
1.4115e+20
1.421e+20
1.90317e+20
1.51383e+20
1.45383e+20
1.66367e+20
1.6855e+20
1.6315e+20
2.097e+20
1.59917e+20
1.4505e+20
1.40233e+20
1.327e+20
1.822e+20
1.83083e+20
1.333e+20
1.33617e+20
1.317e+20
1.723e+20
1.7775e+20
1.34483e+20
1.588e+20
2.62533e+20
1.58617e+20
2.61417e+20
1.57467e+20
1.34667e+20
1.85433e+20
1.335e+20
1.3395e+20
2.01883e+20
1.44067e+20
1.29e+20
1.79483e+20
1.31267e+20
1.32467e+20
1.276e+20
1.238e+20
1.25467e+20
1.74883e+20
1.2735e+20
1.7585e+20
1.68467e+20
1.1885e+20
1.71e+20
1.21967e+20
1.231e+20
1.26917e+20
1.27583e+20
1.31583e+20
1.325e+20
1.7705e+20
1.1995e+20
1.54283e+20
1.1535e+20
1.108e+20
1.12617e+20
1.66333e+20
1.17983e+20
1.70083e+20
1.1835e+20
1.65933e+20
2.13467e+20
1.09567e+20
1.05783e+20
1.123e+20
1.13e+20
1.64033e+20
1.13267e+20
1.12517e+20
1.61567e+20
1.06783e+20
1.08517e+20
1.09917e+20
1.11333e+20
1.07083e+20
1.05083e+20
1.081e+20
1.72633e+20
1.727e+20
2.15717e+20
1.35167e+20
1.22667e+20
1.3625e+20
1.7965e+20
1.399e+20
1.13583e+20
1.35183e+20
1.85133e+20
1.529e+20
1.5025e+20
1.00417e+20
9.99833e+19
1.4815e+20
1.46233e+20
9.69167e+19
1.0295e+20
1.056e+20
1.03183e+20
1.01533e+20
1.49567e+20
8.65167e+19
7.81167e+19
7.78167e+19
7.70667e+19
8.355e+19
8.20667e+19
7.88e+19
1.21383e+20
6.44e+19
6.39833e+19
6.625e+19
)
;

boundaryField
{
    sides
    {
        type            calculated;
        value           nonuniform List<scalar> 2(6.625e+19 1.20667e+20);
    }
    empty
    {
        type            empty;
    }
}


// ************************************************************************* //
