/*--------------------------------*- C++ -*----------------------------------*\
  =========                 |
  \\      /  F ield         | OpenFOAM: The Open Source CFD Toolbox
   \\    /   O peration     | Website:  https://openfoam.org
    \\  /    A nd           | Version:  7
     \\/     M anipulation  |
\*---------------------------------------------------------------------------*/
FoamFile
{
    version     2.0;
    format      ascii;
    class       volScalarField;
    location    "0.003";
    object      iDof;
}
// * * * * * * * * * * * * * * * * * * * * * * * * * * * * * * * * * * * * * //

dimensions      [0 -3 0 0 0 0 0];

internalField   nonuniform List<scalar> 
500
(
5.625e+20
6.05e+20
5.875e+20
6.1e+20
6.55e+20
6.5e+20
7.825e+20
7.275e+20
7.15e+20
7.25e+20
7.325e+20
7.55e+20
8.2e+20
8.425e+20
8.125e+20
7.875e+20
7.775e+20
8.3e+20
8.2e+20
8.425e+20
8.975e+20
9.225e+20
9.175e+20
8.7e+20
8.85e+20
1.0375e+21
1.005e+21
9.85e+20
1.05e+21
1.05e+21
1.015e+21
1.12e+21
1.115e+21
1.0625e+21
1.065e+21
1.175e+21
1.1875e+21
1.18e+21
1.1825e+21
1.2025e+21
1.335e+21
1.1325e+21
1.225e+21
1.3e+21
1.2325e+21
1.25e+21
1.295e+21
1.2725e+21
1.4025e+21
1.48e+21
1.3425e+21
1.4775e+21
1.5025e+21
1.4575e+21
1.46e+21
1.49e+21
1.55e+21
1.3575e+21
1.46e+21
1.6375e+21
1.595e+21
1.5925e+21
1.5725e+21
1.6225e+21
1.4525e+21
1.685e+21
1.615e+21
1.535e+21
1.5025e+21
1.5925e+21
1.5925e+21
1.4775e+21
1.6425e+21
1.5875e+21
1.555e+21
1.605e+21
1.595e+21
1.52e+21
1.655e+21
1.5175e+21
1.5625e+21
1.495e+21
1.5525e+21
1.685e+21
1.525e+21
1.545e+21
1.6325e+21
1.53e+21
1.4775e+21
1.5875e+21
1.595e+21
1.595e+21
1.4675e+21
1.6475e+21
1.515e+21
1.62e+21
1.61e+21
1.5525e+21
1.6675e+21
1.57e+21
1.51e+21
1.6975e+21
1.5625e+21
1.5575e+21
1.5325e+21
1.58e+21
1.4875e+21
1.4625e+21
1.63e+21
1.69e+21
1.6275e+21
1.675e+21
1.655e+21
1.53e+21
1.5925e+21
1.5775e+21
1.475e+21
1.52e+21
1.515e+21
1.7675e+21
1.5125e+21
1.6225e+21
1.575e+21
1.4875e+21
1.5675e+21
1.565e+21
1.61e+21
1.57e+21
1.7425e+21
1.575e+21
1.475e+21
1.595e+21
1.595e+21
1.7e+21
1.5775e+21
1.56e+21
1.4925e+21
1.625e+21
1.5725e+21
1.5075e+21
1.4625e+21
1.535e+21
1.5875e+21
1.4075e+21
1.59e+21
1.595e+21
1.53e+21
1.595e+21
1.5175e+21
1.5675e+21
1.5625e+21
1.5075e+21
1.6025e+21
1.5425e+21
1.6175e+21
1.48e+21
1.51e+21
1.6975e+21
1.53e+21
1.595e+21
1.54e+21
1.4475e+21
1.5775e+21
1.61e+21
1.51e+21
1.5975e+21
1.61e+21
1.57e+21
1.5425e+21
1.6425e+21
1.4925e+21
1.5625e+21
1.655e+21
1.5125e+21
1.655e+21
1.535e+21
1.62e+21
1.4875e+21
1.65e+21
1.6775e+21
1.665e+21
1.5025e+21
1.3975e+21
1.41e+21
1.525e+21
1.5775e+21
1.5725e+21
1.655e+21
1.515e+21
1.54e+21
1.615e+21
1.515e+21
1.5575e+21
1.4625e+21
1.5825e+21
1.45e+21
1.6125e+21
1.5525e+21
1.485e+21
1.525e+21
1.635e+21
1.46e+21
1.6e+21
1.675e+21
1.5575e+21
1.5375e+21
1.5375e+21
1.475e+21
1.4625e+21
1.495e+21
1.6175e+21
1.555e+21
1.525e+21
1.575e+21
1.5725e+21
1.565e+21
1.5225e+21
1.6125e+21
1.6575e+21
1.505e+21
1.5925e+21
1.6425e+21
1.5375e+21
1.6975e+21
1.5275e+21
1.525e+21
1.5375e+21
1.665e+21
1.6725e+21
1.5e+21
1.6875e+21
1.595e+21
1.52e+21
1.58e+21
1.6025e+21
1.6075e+21
1.5025e+21
1.59e+21
1.5175e+21
1.6575e+21
1.56e+21
1.5725e+21
1.5375e+21
1.6175e+21
1.615e+21
1.5525e+21
1.4325e+21
1.62e+21
1.54e+21
1.52e+21
1.515e+21
1.5825e+21
1.53e+21
1.55e+21
1.6075e+21
1.5475e+21
1.6225e+21
1.6275e+21
1.53e+21
1.5875e+21
1.75e+21
1.5925e+21
1.5475e+21
1.61e+21
1.5675e+21
1.61e+21
1.445e+21
1.59e+21
1.5875e+21
1.655e+21
1.6625e+21
1.5525e+21
1.5e+21
1.485e+21
1.5525e+21
1.6075e+21
1.545e+21
1.6225e+21
1.5125e+21
1.51e+21
1.6125e+21
1.5275e+21
1.6825e+21
1.655e+21
1.585e+21
1.5175e+21
1.515e+21
1.545e+21
1.5575e+21
1.5875e+21
1.585e+21
1.65e+21
1.6075e+21
1.5375e+21
1.4675e+21
1.5025e+21
1.515e+21
1.5725e+21
1.55e+21
1.5925e+21
1.4975e+21
1.5175e+21
1.51e+21
1.4e+21
1.4625e+21
1.4775e+21
1.625e+21
1.5275e+21
1.4475e+21
1.5325e+21
1.5875e+21
1.64e+21
1.4625e+21
1.525e+21
1.43e+21
1.63e+21
1.6325e+21
1.575e+21
1.4975e+21
1.5975e+21
1.585e+21
1.515e+21
1.6025e+21
1.525e+21
1.5475e+21
1.565e+21
1.5775e+21
1.5e+21
1.56e+21
1.615e+21
1.565e+21
1.5675e+21
1.53e+21
1.5225e+21
1.47e+21
1.53e+21
1.6375e+21
1.6175e+21
1.675e+21
1.59e+21
1.49e+21
1.535e+21
1.5525e+21
1.5225e+21
1.615e+21
1.5e+21
1.5875e+21
1.58e+21
1.5475e+21
1.6e+21
1.51e+21
1.6775e+21
1.5025e+21
1.5625e+21
1.49e+21
1.635e+21
1.53e+21
1.6075e+21
1.5825e+21
1.565e+21
1.535e+21
1.4625e+21
1.5525e+21
1.6525e+21
1.5725e+21
1.485e+21
1.6775e+21
1.605e+21
1.5625e+21
1.5325e+21
1.605e+21
1.4925e+21
1.5575e+21
1.515e+21
1.545e+21
1.555e+21
1.5425e+21
1.5775e+21
1.515e+21
1.4875e+21
1.575e+21
1.5525e+21
1.525e+21
1.7575e+21
1.465e+21
1.59e+21
1.5275e+21
1.53e+21
1.5375e+21
1.5925e+21
1.76e+21
1.78e+21
1.5975e+21
1.54e+21
1.595e+21
1.625e+21
1.53e+21
1.5525e+21
1.615e+21
1.5275e+21
1.44e+21
1.5925e+21
1.6125e+21
1.515e+21
1.64e+21
1.5e+21
1.625e+21
1.5625e+21
1.5925e+21
1.5825e+21
1.5125e+21
1.51e+21
1.5225e+21
1.57e+21
1.4825e+21
1.6025e+21
1.5775e+21
1.5725e+21
1.41e+21
1.6425e+21
1.5425e+21
1.5425e+21
1.435e+21
1.55e+21
1.5525e+21
1.595e+21
1.4875e+21
1.5925e+21
1.585e+21
1.5675e+21
1.6e+21
1.6825e+21
1.6025e+21
1.565e+21
1.6825e+21
1.475e+21
1.4775e+21
1.5125e+21
1.6375e+21
1.6125e+21
1.5075e+21
1.4975e+21
1.4575e+21
1.5175e+21
1.365e+21
1.435e+21
1.47e+21
1.3775e+21
1.39e+21
1.395e+21
1.465e+21
1.3925e+21
1.3775e+21
1.3025e+21
1.2175e+21
1.3e+21
1.3e+21
1.34e+21
1.1925e+21
1.2925e+21
1.2075e+21
1.2725e+21
1.25e+21
1.1875e+21
1.1675e+21
1.18e+21
1.12e+21
1.0975e+21
1.21e+21
9.975e+20
9.5e+20
1.0075e+21
1.055e+21
1.0325e+21
9.75e+20
9.125e+20
9.375e+20
9.25e+20
9.45e+20
9.275e+20
8.65e+20
8.8e+20
9.075e+20
8.4e+20
8.55e+20
8.15e+20
8.05e+20
8.325e+20
7.225e+20
7.075e+20
7.575e+20
7.9e+20
7.225e+20
7.25e+20
6.975e+20
6.45e+20
5.875e+20
6.25e+20
5.925e+20
4.5e+20
)
;

boundaryField
{
    sides
    {
        type            zeroGradient;
    }
    empty
    {
        type            empty;
    }
}


// ************************************************************************* //
