/*--------------------------------*- C++ -*----------------------------------*\
  =========                 |
  \\      /  F ield         | OpenFOAM: The Open Source CFD Toolbox
   \\    /   O peration     | Website:  https://openfoam.org
    \\  /    A nd           | Version:  7
     \\/     M anipulation  |
\*---------------------------------------------------------------------------*/
FoamFile
{
    version     2.0;
    format      ascii;
    class       volScalarField;
    location    "0.003";
    object      internalE;
}
// * * * * * * * * * * * * * * * * * * * * * * * * * * * * * * * * * * * * * //

dimensions      [1 -1 -2 0 0 0 0];

internalField   nonuniform List<scalar> 
1000
(
0
0
0.206571
0
0
0.140971
0.160971
0
0.444427
0
0
0.00299232
0.0477199
0
0.065792
0.195816
0.0782411
0
0.0969999
0.0500638
0.307939
0.15235
0.0951929
0.0229947
0.0831157
0.0760808
0.0872814
0.151843
0.193014
0.332662
0.0381452
0
0.2711
0.0988486
0.204427
0
0.30203
0.0288775
0.371635
0.11947
0.300583
0
0.0868964
0
0.0837351
0.104661
0.256359
0.256635
0.169176
0
0.578342
0.583451
0.438908
0.0862059
0.413808
0.237135
0.0923316
0.186834
0
0.192567
0.124867
0.0571265
0.251712
0.290854
0.0740119
0.20496
0
0.4661
0.42013
0.542598
0.0588875
0.354533
0.550574
0.189313
0.277887
0.0378082
0.186693
0.587546
0.293155
1.02345
0.222168
0.0897531
0.000592826
0
0.417214
0.430424
0.284328
0.102214
0
0.159442
0.0370696
0
0.125532
0.19873
0.25095
0.132394
0.00665335
0.108482
0.0163901
0.0298528
0.0418822
0.435801
0.107751
0.180034
0.255768
0.41382
0.160693
0.199483
0.359583
0.0363326
0.242502
0.255906
0
0.510376
0
0.216042
0.366899
0.175545
0.0192479
0.454644
0.183715
0.285968
0.59353
0
0.0154759
0.138245
0.585303
0.0440432
0.343398
0.425787
0.404915
0.201142
0.326402
0.272084
1.02482
0.764533
0.120454
0.179292
0.622136
0.27869
0.0604746
0.00948159
0
0.28763
0
0.018101
0.0715353
0.174027
0.207358
0
0.819645
0.510358
0.780073
0.0371314
0.0629908
0.566101
0
0.184502
0.807473
0.367102
0
0.219037
0.346002
0.224102
0.585646
0.0250348
0.17665
0.471377
0.0378322
0.728982
0.390087
0.472304
0.390224
0.188218
0.228953
0.160317
0.116045
0
0.26063
0.141039
0.159533
0.158575
0.165013
0.0467894
0.165322
0.21594
0.204988
0.0167511
0.347115
0.379405
0.22137
0.273197
0.357337
0.409111
0.0467728
0.164336
0
0.123598
0.121157
0.119843
0.532444
0.0466168
0.305956
0.488459
0.0223238
0.655511
0.058466
0.253914
1.04134
0.247224
0
0.653168
0.255446
0.575379
0.210794
0.0245882
0.372522
0
0.325041
0.524778
0.110279
0.208533
0.624045
0.187401
0.0815401
0.226656
0.0778738
0.597933
0.0975944
0.956884
0.305778
0.117094
0.253225
0.12809
0.551732
0.536737
0.520116
0.365598
0.307331
0.139126
0.152832
0.343965
0.161412
0.397647
0.355728
0.669458
0.520651
0.249416
0.0619842
0.113365
0.473778
0.145224
0.366487
0.892173
0.675725
0.163941
0
0.312111
0.593644
0.403154
0.981763
0.721381
0.772139
0.442445
0.356984
0.17397
0.341159
0.311049
0.149766
0
0.370207
0.73982
0.256638
0.599366
0.90801
0.600079
0.107794
0.175589
0.0867928
0.507549
0.782976
0.494608
0.166396
0.137635
0.0926423
0.164876
0.0587996
0.142661
0.111358
0.462992
0.264068
0.125565
1.20057
0.046082
0.585941
0.934788
0.756735
0.400592
0.108884
0.178742
0.820727
0.41294
0.535088
0.0993424
0.574456
0.259403
0
0.142684
0.588929
0.306089
0.172809
0.25259
0.241338
0.324962
0.504914
0.00808446
0.188476
0.20698
0.233459
0.363494
0.646983
0.699564
0.120372
0.0995033
0.858236
0.104437
0.414054
0.186967
0.433546
0.521313
0.921626
0.332926
0.0029412
0.0260289
0.0811516
0.421154
0.857552
0.274452
0.306281
1.25931
0.209427
0.571568
0.563095
0.714918
0.117412
0.57205
0.142823
0.193371
0.199553
0.642255
0.159193
0.333524
0.583681
0.0402927
0.607656
0
0.235272
0.0781748
0.121178
0.17379
0.561832
0.57089
0.0569226
0.252812
0.0141413
0.174132
0.634632
0.183743
0.0746984
0.409227
0.0545253
0.490194
0
0.279528
0.0570311
1.30156
0.773656
0.155936
0.0936613
0.372894
0.0729717
0.511543
0.176775
0.024967
0.351115
0.632547
0
0.242897
0.532416
0.39742
0.0843465
0.276098
0.480019
0.10754
0
0.104619
0.0469574
0.276693
0.608762
0.389327
0.190156
0.432799
0.682297
0.731741
0.0601149
0.290499
0.149908
0.21761
0.234734
0.541107
0.288566
0
0.0190776
0.113723
0.0776079
0.00327587
0.377656
0.38309
0.0519509
0.819023
0.0718749
0.441429
0.379744
0.162418
0.299222
0.123048
0.0396425
0.518993
0.343983
1.00997
0.397834
0.609551
0.824147
0.104404
0.352665
0.292309
0.161213
0.546135
0.245124
0.432328
0.14353
0.0515891
0.183362
0.0181215
0.0256713
0.16375
0
0.157431
0.229472
0.765082
0.253703
0.244289
0.227974
0
0.259513
0.121213
0.0157811
0.400042
0.195993
0.345509
0.476878
0.55067
0.357211
0.111434
0
0.448375
0.263225
0.155083
0.321371
0.22128
1.05661
0.354619
0.403872
0.490265
0.411743
0.0272475
0.393199
0.33347
0.447867
0.983837
0.342081
0.17564
0.107802
0.460743
0.258085
0.648341
0.325828
0.517368
0.0339366
0
0.311653
0.173885
0.475072
0.729593
0.271406
0.0219293
0.368798
0.280422
0.183377
0.0217028
0.131918
0.17096
0.277479
0.207053
0.360633
0.239536
0.901448
0.0335881
0.268381
0.247195
0.4452
0.00850198
0
0.205052
0.842946
0.252588
0.108989
0.366913
0.503791
0.111895
0
1.1374
0.788157
0.187518
0.217908
0.116234
0.102489
0
0.179603
0.95688
0.272966
0.189129
0.493654
0.536469
0.00506711
0.378463
0.141555
0.0223542
0.0914291
1.12523
0.0196738
0.160046
0.0455054
0.851232
0.1446
0.470672
0.0570277
0.143602
0.456708
0.277467
0.0524602
0.00346067
0.622833
0.0662034
0.19715
0.323316
0.321228
0.361517
0.148385
0.0339309
0.22387
0.417336
0.441357
0.467407
0
0.0142692
0.0691531
0.405427
0.305205
0.1713
0.00847529
0.275698
0.0610673
0.530827
0.189785
0.345089
0.511442
0.626838
0.399223
0.263367
0.518354
0.138623
0.0764043
0
0
0.388656
0.383561
0.0918316
0.263309
0.0976133
0.509276
0.346348
0.383701
0.332783
0.0743664
0.0439863
0.487635
0.112026
0.388452
0.547709
0.162662
0.135637
0.167998
0.191368
0.137535
0.527988
0.673493
0.346164
0.139441
0
0.64046
0.171911
0.0771983
0.735166
0.425575
0.0807423
0.359441
0.00337802
0.234214
0.137515
0.0570151
0.0647568
0.614046
0.282811
0
0.13732
0.441874
0.0762617
0.271243
0.235219
0.481329
0.695889
0.164713
0.620956
0.759491
0.217689
0.359316
0.287779
0.300296
0.248803
0.57852
0.118457
0.4318
0.716108
0.190689
0.0877424
1.11706
0.348416
0.0139932
0.275165
0.0177907
0.250211
0.238349
0.154709
0.406114
0
0.365178
0.0732829
0.347746
1.0522
0.374776
0.529842
0.539041
0
0.428927
0.592992
0.316948
0.0126312
0.428816
0.0409779
0.383877
0.875428
0.229665
0.254804
0.238769
1.77856
0.37128
0.156178
0.104429
0.759205
0.238952
0.264906
0
0.601937
0.292883
0.242685
0.299848
0.0582051
0.651181
0.224161
0.283004
0.0914862
0.320716
0
0.212201
0.653728
0.544297
0.163261
0.288319
0.42752
0.185416
0.252429
0.325198
0.0130471
0.337546
0.141455
0.4858
0.383777
0.190006
0.13401
0.341034
0.611945
0.108507
0.135893
0.339528
0.213221
0.263802
0.669518
0.336767
0.26954
0.422077
0.241228
0.557208
1.14373
0.154298
0.242119
0.225144
0.221455
0.242985
0.204058
0.577334
0.213729
0.829024
0.120691
0.424258
0.771976
0.602153
0.403171
0.452359
0.353727
0.746881
0.0383543
0.400041
0.0399455
0.197695
0.0428771
0.593864
0.498851
0.126851
0.190281
0
0.274077
0.619223
0.51614
0.657088
0.07938
0.284174
0.236422
0.906506
0.23076
0.360055
0.0624632
0.172403
0.495618
0.198871
0.54585
0.0822529
0
0.809138
0.113375
0.474826
0
0.386823
0
0.0698961
0.120949
0.273199
0.256825
0.068833
0.212955
0
0.415321
0.471563
0.165401
0.188309
0.391084
0.242414
0.11206
0.452294
0.0935187
0.0126453
0.442419
0.104048
0.240342
0.632698
0.737882
0.311944
0.627078
0.153418
0.406384
0.0536938
0.312744
0.41927
0
0.201944
0.493579
0.23677
0.28673
0.154137
0.161417
0.229672
0.209137
0.406835
0.372833
0.120959
0.286119
0.192644
0.666081
0.436303
0.314839
0.102529
0.346984
0
0.353145
0.603704
0.990365
0.112619
0.192762
0
0.432034
0.16497
0.196474
0.821636
0.0874889
0.0597688
0.279571
0.153537
0.0929332
0.384213
0.287228
0.475136
0.467959
0.0860641
0.292533
0.066121
0.445037
0.433846
0.0264807
0.185461
0.134662
0.361582
0.583013
0.0881425
0.0853088
0.275164
0.461828
0.471744
0.454209
0.105119
0.0428867
0.623914
0
0.131811
0.201551
0
0.478843
0
0.198693
0.236756
0.337632
0.752967
0.0996125
0.487374
0.135824
0.605373
0.113821
0.0967453
0.429039
0.41357
0.243551
0.122657
0.236997
0.438205
0.0397959
0.00407903
0.890365
0.330942
0.0251666
0.865941
0.22074
0.343136
0.503724
0
0.100973
0.120035
0.109933
0.185326
0.787439
0.0121443
0.662736
0.361879
0.0415098
0.0376692
0.874531
0
0.276203
0.271765
0.155518
0.36397
0.0422658
0.191568
0.655394
0.0766162
0.241236
0.143567
0.456415
0
0.401662
0.207423
0.344283
0.376671
0
0.145418
0.313868
0.210606
0
0.457376
0.221184
0
0.151554
0.0808289
0.314471
0.162448
0.232679
0.0299498
0.350716
0.306619
0
0.0490327
0.13482
0.133269
0.492567
0.00136186
0.563568
0.0511075
0.131093
0.0266787
0.371579
0.00274226
0.135376
0.204941
0.0230391
0.394633
0.550056
0.0120735
0.25161
0.0521214
0.210185
0.0287279
0.206456
0.652181
0
0.367463
0.0230322
0
0.0948426
0.065508
0.139383
0.384655
0.239276
0
0.0613366
0.0108972
0.272234
0
0.376769
0.0337842
0.0692067
0.149002
0.393795
0.170791
0.160783
0.0433593
0.114189
0
0.01109
0.177832
0.473195
0.119936
0.162211
0.0103387
0.0223643
0.0836
0
0.10963
0.181979
0
0.0709587
0
0.14245
)
;

boundaryField
{
    sides
    {
        type            zeroGradient;
    }
    empty
    {
        type            empty;
    }
}


// ************************************************************************* //
