/*--------------------------------*- C++ -*----------------------------------*\
  =========                 |
  \\      /  F ield         | OpenFOAM: The Open Source CFD Toolbox
   \\    /   O peration     | Website:  https://openfoam.org
    \\  /    A nd           | Version:  7
     \\/     M anipulation  |
\*---------------------------------------------------------------------------*/
FoamFile
{
    version     2.0;
    format      ascii;
    class       volScalarField;
    location    "0.003";
    object      internalT;
}
// * * * * * * * * * * * * * * * * * * * * * * * * * * * * * * * * * * * * * //

dimensions      [1 2 -2 0 0 0 0];

internalField   nonuniform List<scalar> 
1000
(
228.399
229.929
223.802
219.326
219.452
230.25
231.439
239.653
241.605
242.583
246.384
251.928
256.842
262.641
254.982
249.025
245.325
249.955
258.754
262.353
250.346
253.39
265.411
264.419
265.921
259.764
260.805
260.207
271.854
287.569
285.575
278.408
275.872
282.198
279.878
277.842
263.335
271.29
272.829
278.96
281.821
277.221
278.091
279.936
277.069
282.388
286.023
279.723
285.983
282.721
279.926
282.014
288.787
289.061
301.963
304.322
293.892
281.855
283.845
280.952
282.334
277.929
285.804
288.643
279.809
265.609
280.384
286.75
282.385
288.716
295.435
289.008
292.631
291.717
291.2
293.74
301.564
292.141
289.783
278.146
280.867
285.582
285.075
290.138
299.323
295.06
301.755
296.845
288.103
294.997
298.785
302.361
294.994
291.463
298.496
306.79
311.056
309.251
304.528
303.295
300.963
307.036
299.044
287.944
291.122
282.6
292.567
305.058
302.243
301.255
305.514
304.599
300.648
300.376
308.825
297.529
291.958
294.483
291.428
295.725
291.657
287.21
288.744
291.61
287.675
286.077
279.102
282.861
287.002
286.779
289.457
295.329
298.578
296.68
300.488
314.254
300.199
300.472
292.902
293.435
294.087
305.517
303.903
300.274
313.413
305.55
295.898
290.487
297.473
297.955
289.94
306.128
302.985
294.737
304.04
292.038
298.036
284.922
292.164
296.778
300.826
301.49
301.107
300.344
293.172
298.279
298.016
292.631
297.453
302.965
296.703
285.52
281.974
296.234
311.838
295.31
301.238
293.063
276.26
291.653
300.936
299.586
308.287
307.576
302.878
308.149
316.185
311.208
318.436
309.35
302.226
307.748
311.206
300.66
289.063
291.165
289.818
292.392
287.192
284.88
287.228
301.743
302.231
303.095
295.486
296.816
305.587
294.697
306.203
304.438
300.689
299.802
301.925
294.095
292.028
304.649
301.746
298.325
286.782
291.303
305.763
295.28
301.607
304.04
309.988
298.488
296.756
297.003
303.45
310.461
298.21
299.88
299.611
296.044
302.43
299.341
304.731
301.301
315.484
307.147
299.549
306.738
304.439
295.33
294.717
295.072
301.164
300.468
293.281
289.19
298.96
299.027
298.654
298.697
303.312
309.649
305.438
291.972
285.895
294.265
285.503
281.911
290.364
295.569
303.724
299.36
306.866
295.591
302.228
292.065
295.344
295.948
299.66
297.134
295.162
287.46
285.037
296.274
294.419
289.428
293.179
285.872
283.807
286.387
288.732
284.624
285.355
300.883
293.742
298.886
306.168
300.055
304.649
304.284
294.703
299
299.087
314.995
314.258
314.568
317.681
315.961
307.732
304.768
313.411
310.047
315.75
326.763
315.121
307.396
291.057
296.724
300.586
308.462
299.742
295.733
295.465
282.113
282.693
281.429
282.816
302.618
295.625
307.836
303.021
302.881
303.986
305.957
288.284
290.94
300.868
306.449
300.536
295.749
281.167
296.489
306.943
296.183
300.399
291.268
292.318
296.056
288.612
296.759
299.47
296.076
288.838
290.508
294.012
300.417
293.371
293.729
288.294
299.281
290.093
287.507
276.979
292.592
285.451
292.044
294.658
308.262
303.484
299.211
298.211
311.073
301.069
301.346
301.099
314.549
308.447
308.446
301.769
301.042
311.951
306.992
317.171
319.943
309.577
315.591
314.62
318.29
311.587
317.909
317.019
328.818
322.506
312.107
312.422
326.597
331.164
335.251
333.526
330.988
331.018
329.38
326.919
326.465
325.015
317.954
319.425
316.048
315.433
314.803
320.082
315.741
309.11
310.871
310.961
324.756
312.065
323.016
327.305
319.164
316.326
318.422
315.809
333.058
330.348
332.315
324.222
316.373
321.26
327.127
332.548
326.601
327.035
318.868
319.265
319.692
321.03
326.77
323.913
329.453
326.528
333.983
341.267
337.681
340.49
342.971
339.789
334.959
330.806
331.701
338.873
329.37
333.352
319.951
326.758
324.682
322.485
331.846
336.269
331.156
323.316
325.076
324.869
316.99
321.076
322.501
321.026
320.792
316.801
314.846
310.088
306.447
311.872
311.518
302.762
301.309
302.497
297.846
294.112
296.373
291.575
291.603
285.535
282.252
281.726
285.233
284.303
284.991
285.655
282.711
277.676
278.846
278.115
279.055
273.399
273.321
272.061
267.129
266.422
268.298
264.1
261.213
254.984
257.578
255.656
258.185
258.492
253.357
259.285
261.926
258.788
253.815
262.333
261.498
262.861
262.019
265.891
262.672
264.878
260.5
262.495
270.015
264.373
270.885
269.597
273.364
271.602
271.683
270.551
273.408
273.844
273.914
276.443
277.637
279.362
282.279
276.144
269.961
271.193
276.821
281.822
283.757
280.16
279.153
281.975
278.2
274.498
275.051
279.841
274.737
278.585
281.011
286.739
285.452
283.881
282.364
281.321
285.876
285.631
287.414
287.289
287.578
281.208
286.494
289.566
285.689
289.117
292.34
294.315
291.402
301.095
293.642
293.64
295.411
295.09
294.021
294.819
290.403
293.815
289.966
293.929
295.943
289.315
289.637
297.149
290.477
292.276
286.983
290.537
291.887
292.237
295.243
296.773
292.868
293.879
290.717
288.719
294.973
295.465
289.398
291.077
292.37
295.577
296.881
297.716
298.969
301.657
300.909
297.555
296.049
298.094
293.381
295.416
295.519
295.508
292.938
297.571
303.936
301.728
296.391
293.688
293.603
296.544
296.029
294.653
296.867
293.853
296.385
297.072
289.317
287.771
288.36
289.769
296.691
300.033
293.528
293.96
295.211
290.565
295.401
295.372
293.744
296.402
298.834
295.956
307.273
302.329
293.203
294.517
294.259
294.297
296.399
298.863
298.098
296.957
290.17
288.199
292.609
300.743
299.985
298.431
305.938
301.317
296.297
291.23
293.755
293.188
296.674
292.427
298.771
303.487
305.884
296.815
301.75
301.245
303.311
296.032
306.528
309.427
309.508
301.441
302.136
304.925
304.179
300.464
292.175
295.835
298.084
296.012
298.398
294.118
297.618
292.467
294.832
294.464
293.668
298.311
296.8
301.281
300.133
305.211
301.47
307.517
298.954
298.287
292.195
297.602
290.431
291.586
286.761
287.939
290.656
290.933
289.51
297.94
298.566
300.311
297.817
302.745
298.972
300.374
297.39
297.573
304.487
299.642
297.713
299.54
295.856
302.331
299.316
297.068
295.556
300.272
300.144
296.362
295.153
296.032
296.135
300.234
304.022
296.609
304.164
306.399
298.451
294.967
299.919
295.75
299.318
301.704
302.175
309.095
304.91
296.52
297.669
298.864
301.071
295.123
292.733
297.352
302.514
297.402
301.636
297.321
298.59
292.817
300.977
293.527
293.942
287.967
291.979
298.505
310.038
301.344
305.735
303.371
300.359
296.234
301.006
299.724
300.28
307.293
302.504
309.486
313.945
312.297
312.297
312.263
314.485
314.157
311.225
307.759
307.341
299.767
302.515
303.361
302.595
306.418
307.929
305.194
300.423
299.696
301.238
295.98
296.592
303.399
303.051
299.355
299.985
295.941
302.894
300.246
297.816
293.156
299.408
293.992
302.157
302.352
302.782
303.117
302.996
299.384
306.071
301.491
306.777
310.193
302.152
302.305
298.122
305.041
307.196
298.97
307.229
308.753
302.066
303.588
303.555
304.934
298.617
302.325
305.66
298.187
296.399
305.723
304.48
298.772
301.817
305.873
303.428
303.942
300.419
293.278
300.071
308.629
305.126
306.111
304.004
297.283
298.025
294.311
297.919
295.591
302.17
303.502
298.925
298.403
298.113
295.985
295.575
296.955
308.165
304.731
301.95
306.128
310.737
303.049
309.302
308.277
307.662
313.19
309.466
304.986
302.678
306.716
307.287
305.436
304.051
299.901
298.379
295.174
292.752
296.101
301.54
297.086
299.424
296.636
298.574
300.87
303.239
301.253
298.044
300.044
296.098
297.931
297.704
297.944
299.307
303.147
298.307
309.419
304.734
308.483
304.443
308.752
312.206
307.33
303.4
300.78
299.362
294.875
294.853
296.66
296.364
296.658
296
294.143
292.669
295.36
296.542
300.26
299.813
301.051
294.967
294.589
293.525
296.791
293.233
296.736
289.547
293.29
291.344
289.666
284.761
286.278
294.271
294.218
289.096
286.246
285.67
284.171
285.346
283.39
285.816
283.327
283.204
287.835
287.717
285.426
284.665
286.754
282.466
281.042
282.437
279.626
281.194
279.311
277.59
281.435
284.278
281.018
277.111
276.111
283.68
279.894
274.775
273.331
272.197
267.987
270.126
270.546
264.214
263.872
263.799
271.785
262.842
268.895
266.856
269.378
268.189
259.326
255.038
259.677
254.737
256.525
254.782
255.799
256.784
252.881
247.045
240.655
240.924
236.901
231.183
225.626
222.843
221.736
216.88
)
;

boundaryField
{
    sides
    {
        type            calculated;
        value           nonuniform List<scalar> 2(216.88 228.399);
    }
    empty
    {
        type            empty;
    }
}


// ************************************************************************* //
