/*--------------------------------*- C++ -*----------------------------------*\
  =========                 |
  \\      /  F ield         | OpenFOAM: The Open Source CFD Toolbox
   \\    /   O peration     | Website:  https://openfoam.org
    \\  /    A nd           | Version:  7
     \\/     M anipulation  |
\*---------------------------------------------------------------------------*/
FoamFile
{
    version     2.0;
    format      ascii;
    class       volScalarField;
    location    "0.003";
    object      internalEMean;
}
// * * * * * * * * * * * * * * * * * * * * * * * * * * * * * * * * * * * * * //

dimensions      [1 -1 -2 0 0 0 0];

internalField   nonuniform List<scalar> 
500
(
1.04528
1.22477
1.38304
1.52526
1.64332
1.76043
1.8646
1.95153
1.99903
2.08097
2.16651
2.26843
2.33736
2.442
2.47979
2.51752
2.57715
2.62704
2.71429
2.77481
2.84608
2.8905
2.95125
2.99587
3.03058
3.05044
3.14775
3.13173
3.1628
3.22565
3.27354
3.26176
3.30588
3.3605
3.43508
3.38439
3.45373
3.49055
3.53467
3.49985
3.53374
3.57778
3.62919
3.63931
3.60617
3.65048
3.62147
3.66656
3.70131
3.71708
3.70276
3.72819
3.69613
3.76012
3.70184
3.72984
3.7344
3.74817
3.77309
3.70044
3.74585
3.75543
3.73886
3.77646
3.74696
3.75749
3.7838
3.75284
3.78471
3.77321
3.74046
3.74538
3.77623
3.73866
3.78194
3.72068
3.72753
3.79912
3.7839
3.78649
3.79538
3.74001
3.76103
3.78774
3.7468
3.75453
3.73171
3.77227
3.76837
3.7747
3.75996
3.77671
3.73311
3.71694
3.72234
3.73665
3.78595
3.76158
3.7748
3.78253
3.79959
3.74632
3.73893
3.78159
3.76262
3.78786
3.78918
3.75527
3.79029
3.77094
3.74817
3.75537
3.82369
3.81503
3.82184
3.78008
3.78641
3.80616
3.77747
3.76944
3.79708
3.75886
3.77878
3.77457
3.75469
3.78664
3.77577
3.75275
3.74452
3.74114
3.74461
3.75157
3.75516
3.75144
3.77156
3.76706
3.76501
3.77318
3.74795
3.73667
3.70448
3.76612
3.76056
3.73368
3.77772
3.8099
3.75398
3.72913
3.78669
3.79133
3.78407
3.76002
3.74451
3.76409
3.78749
3.77561
3.79493
3.83233
3.75517
3.73953
3.79584
3.78417
3.78659
3.76903
3.81263
3.76554
3.79218
3.77982
3.75653
3.82633
3.76797
3.77957
3.81735
3.78656
3.7773
3.77458
3.79518
3.77483
3.76282
3.74926
3.76603
3.75295
3.76728
3.78626
3.75187
3.7818
3.77515
3.76715
3.74716
3.77047
3.77376
3.77263
3.76489
3.76595
3.80864
3.7605
3.75155
3.79815
3.78017
3.77124
3.76585
3.75845
3.75756
3.77015
3.74427
3.75052
3.68543
3.76354
3.73781
3.70296
3.78537
3.72149
3.773
3.78941
3.76489
3.72763
3.70713
3.72245
3.73803
3.72643
3.75339
3.76597
3.72102
3.74617
3.75204
3.76159
3.81186
3.75306
3.72611
3.75025
3.74028
3.81132
3.77544
3.72353
3.76166
3.7886
3.76728
3.76044
3.77798
3.76487
3.76625
3.77376
3.76137
3.73378
3.76662
3.73606
3.75965
3.75349
3.7454
3.77622
3.70681
3.71162
3.72544
3.71713
3.72172
3.76719
3.75588
3.75237
3.72792
3.74256
3.75254
3.72215
3.74519
3.76557
3.72321
3.70008
3.74844
3.73509
3.75142
3.76327
3.75748
3.75006
3.73855
3.70975
3.72458
3.76185
3.72092
3.73082
3.72394
3.74314
3.69451
3.71233
3.71077
3.73289
3.70956
3.78207
3.74799
3.68868
3.71805
3.7133
3.71301
3.72027
3.71511
3.75814
3.72913
3.73089
3.75367
3.72683
3.7176
3.71781
3.68306
3.72098
3.73367
3.70739
3.67977
3.71845
3.74358
3.73351
3.73089
3.78429
3.76405
3.75397
3.77728
3.74123
3.79143
3.72338
3.75452
3.77508
3.73781
3.70445
3.73149
3.79852
3.75698
3.76641
3.76611
3.70611
3.7411
3.7384
3.74426
3.80885
3.75557
3.73191
3.73934
3.71148
3.73714
3.78952
3.7436
3.7624
3.73269
3.75448
3.77692
3.71847
3.69464
3.73692
3.73772
3.72821
3.72301
3.69124
3.70837
3.69872
3.73568
3.76763
3.7516
3.69899
3.72884
3.74781
3.77982
3.77997
3.77
3.771
3.78075
3.7717
3.74085
3.76095
3.75298
3.76041
3.73502
3.7665
3.78454
3.76319
3.75321
3.74092
3.75622
3.72332
3.74664
3.73779
3.68626
3.76791
3.75254
3.77138
3.75439
3.73244
3.72265
3.75945
3.74217
3.70268
3.75677
3.76963
3.76512
3.74252
3.78202
3.80864
3.80473
3.75038
3.73648
3.74115
3.7504
3.71316
3.75376
3.79104
3.76427
3.73853
3.78237
3.7775
3.77513
3.79827
3.80465
3.77867
3.75779
3.75434
3.79891
3.78529
3.74372
3.77411
3.74466
3.80726
3.7572
3.76694
3.76905
3.7626
3.76037
3.78696
3.7619
3.77276
3.77894
3.7734
3.80126
3.83231
3.83125
3.8274
3.82538
3.83114
3.82677
3.80814
3.83162
3.75923
3.7934
3.81342
3.78272
3.78556
3.76308
3.80329
3.80548
3.77593
3.80426
3.77504
3.74093
3.73569
3.74837
3.75478
3.74859
3.75381
3.6363
3.69787
3.67995
3.61381
3.60838
3.559
3.53756
3.55859
3.48664
3.47716
3.471
3.4582
3.3842
3.35629
3.38139
3.34529
3.29814
3.27631
3.24212
3.20098
3.16901
3.06107
3.09966
3.04881
3.01151
2.92102
2.89893
2.86232
2.78428
2.73938
2.66609
2.64147
2.57446
2.51235
2.41365
2.37803
2.30348
2.19853
2.13848
2.04252
1.96046
1.88492
1.77906
1.65372
1.56798
1.43073
1.29075
1.09238
)
;

boundaryField
{
    sides
    {
        type            calculated;
        value           nonuniform List<scalar> 2(1.09238 1.04528);
    }
    empty
    {
        type            empty;
    }
}


// ************************************************************************* //
