/*--------------------------------*- C++ -*----------------------------------*\
  =========                 |
  \\      /  F ield         | OpenFOAM: The Open Source CFD Toolbox
   \\    /   O peration     | Website:  https://openfoam.org
    \\  /    A nd           | Version:  7
     \\/     M anipulation  |
\*---------------------------------------------------------------------------*/
FoamFile
{
    version     2.0;
    format      ascii;
    class       volScalarField;
    location    "0.003";
    object      internalE;
}
// * * * * * * * * * * * * * * * * * * * * * * * * * * * * * * * * * * * * * //

dimensions      [1 -1 -2 0 0 0 0];

internalField   nonuniform List<scalar> 
500
(
0.818454
1.1202
0.952925
0.939464
1.11859
1.16888
1.42765
1.38103
1.11539
1.22595
1.31741
1.39137
1.49333
1.4917
1.50893
1.4561
1.5472
1.56186
1.51869
1.50998
1.78772
1.87879
1.77541
1.75852
1.70462
2.05578
1.88647
1.78397
2.28323
2.39555
1.95104
2.26009
2.32328
2.27572
2.46083
2.66635
2.54396
2.29402
2.48555
2.5452
3.05613
2.52763
2.79763
2.92304
2.61272
2.63341
3.05143
2.9952
3.24097
3.29056
3.13916
3.0079
3.58213
3.6004
3.37987
3.47773
3.53005
3.34149
3.42683
3.90375
3.85846
3.74846
3.72494
3.96532
3.53014
4.1492
3.90754
3.63117
3.37477
3.7021
3.72499
3.61921
3.92502
4.05781
3.87537
3.76158
3.54524
3.69004
4.09227
3.62549
3.82658
3.61698
3.56202
4.10109
3.70311
3.39765
3.9312
3.55792
3.67137
4.05055
3.85989
4.03134
3.83937
4.02093
3.64678
3.97048
3.93997
3.71266
3.92913
3.77288
3.64401
3.9671
3.66931
3.83263
3.34661
3.75198
3.58009
3.37863
3.87346
4.10702
3.80408
3.85183
3.81487
3.68554
3.66502
3.58348
3.65729
3.6356
3.69576
4.49075
3.45925
3.65856
3.76373
3.61527
3.70939
3.59802
3.85948
3.63581
4.10139
3.90958
3.80533
3.96807
4.0467
3.96984
3.95944
3.75659
3.41937
3.7488
3.98361
3.60477
3.50636
3.60736
3.55835
3.64665
3.88011
3.6821
3.62961
3.86421
3.49724
3.59293
3.76741
3.50579
3.79185
3.65589
4.03035
3.61705
3.66568
4.35311
3.5206
3.84448
3.63169
3.43532
3.70019
3.77188
3.58964
3.71723
3.92415
3.92724
3.77519
3.82337
3.66478
3.75806
3.8929
3.85378
4.01471
3.60054
3.81077
3.51344
3.91806
4.23796
3.80332
3.49336
3.58087
3.42418
3.70362
3.80628
3.83874
4.09931
3.39875
3.71286
3.76514
3.55917
3.9035
3.54844
3.74638
3.39662
3.80551
3.90361
3.53944
3.84019
3.90468
3.47092
3.57983
4.20577
3.82242
3.71179
3.5263
3.53433
3.53954
3.38821
3.74604
3.72451
3.29598
3.60933
4.00739
3.88969
3.91707
3.84235
3.90196
3.35704
3.56959
3.9468
3.56533
4.15468
3.66178
3.72866
3.95216
3.97888
3.98243
3.3662
4.19058
3.66887
3.84352
3.54186
3.82083
4.01592
3.47453
3.52528
3.5093
3.99196
3.89515
3.83336
3.71906
4.02
3.89511
3.88182
3.80285
3.89133
3.94918
3.6925
3.71715
3.70147
3.73582
3.63285
3.83075
3.8716
4.06555
3.9907
3.47904
3.66448
4.36044
3.76475
3.67037
3.60247
3.80177
3.8676
3.49943
3.90815
3.75172
4.19288
4.02836
3.68422
3.56567
3.62291
3.65759
3.81608
3.98677
4.00964
3.49793
3.41163
4.08092
3.5531
3.97745
3.67669
3.71334
3.66023
3.66633
3.60289
3.44656
3.90487
3.90721
4.0479
3.75877
3.79327
3.5136
3.71886
3.42774
3.87416
3.74675
3.6628
3.56709
3.88756
3.47187
3.1097
3.36506
3.37297
3.62246
3.55717
3.90583
3.84783
3.5912
3.92181
3.67142
3.83838
3.35242
3.8247
4.00367
3.74518
3.60267
3.5712
3.96814
3.92036
3.82282
3.5202
3.63971
3.58001
3.67605
3.70796
3.77776
3.89285
3.69657
3.47908
3.59941
3.65423
3.46634
3.91241
3.95744
4.03849
3.84511
4.17429
3.75024
3.53502
3.87774
3.67438
3.67937
3.42747
4.08113
3.63326
3.70901
3.53382
3.81616
4.09965
3.73872
3.75606
3.47685
3.72082
3.68523
3.88715
3.83233
3.63752
3.85078
3.47304
3.78702
4.05179
3.70935
3.63567
4.15182
3.63324
3.7683
3.51671
3.96115
3.47101
3.80815
3.75773
3.9063
3.70533
3.50978
4.01327
3.65209
3.47075
4.02814
3.83165
3.52052
4.11368
3.30032
3.53512
3.38639
3.59458
3.67339
3.74121
4.27835
4.3933
4.05526
3.70508
3.78075
3.88205
3.63593
3.92282
3.91989
3.68108
3.6466
3.90861
4.0611
3.50364
4.06113
3.5664
4.04101
3.6948
3.83722
3.85939
3.44453
3.90897
3.64795
3.83048
3.63985
3.60712
3.65122
3.93398
3.48919
3.79801
3.8558
3.75966
3.66371
3.9876
3.79677
3.92296
3.47897
3.77061
3.39521
3.57597
3.94584
3.95963
3.98222
3.82823
4.00462
3.65255
3.68389
3.38531
4.14442
3.91729
3.62502
3.79079
3.2072
3.33799
3.51333
3.15896
3.34798
3.30374
3.44567
3.27908
3.40354
3.14345
3.28906
2.96485
2.6126
2.83519
2.97962
2.79761
2.43069
2.94647
2.76906
2.73338
2.61719
2.58539
2.50309
2.78306
2.25747
2.38722
2.43384
1.98233
1.93072
2.10304
2.23053
2.13476
1.94816
1.79145
1.85909
1.86642
2.01852
1.9184
1.72966
1.7147
1.77517
1.63219
1.54653
1.61786
1.54626
1.55088
1.2032
1.34059
1.35744
1.51927
1.34088
1.32107
1.29926
1.17267
0.959387
1.14475
0.916772
0.763973
)
;

boundaryField
{
    sides
    {
        type            zeroGradient;
    }
    empty
    {
        type            empty;
    }
}


// ************************************************************************* //
