/*--------------------------------*- C++ -*----------------------------------*\
  =========                 |
  \\      /  F ield         | OpenFOAM: The Open Source CFD Toolbox
   \\    /   O peration     | Website:  https://openfoam.org
    \\  /    A nd           | Version:  7
     \\/     M anipulation  |
\*---------------------------------------------------------------------------*/
FoamFile
{
    version     2.0;
    format      ascii;
    class       volScalarField;
    location    "0.003";
    object      internalT;
}
// * * * * * * * * * * * * * * * * * * * * * * * * * * * * * * * * * * * * * //

dimensions      [1 2 -2 0 0 0 0];

internalField   nonuniform List<scalar> 
1000
(
882.718
880.971
872.544
877.555
881.767
881.578
879.955
890.971
889.072
902.17
908.076
897.306
891.526
891.108
894.892
893.081
898.248
897.399
894.78
901.682
914.573
899.855
907.964
898.321
902.744
906.027
906.964
904.12
897.6
904.189
899.189
902.925
902.952
908.859
898.847
899.336
906.445
894.767
900.781
894.147
900.724
894.889
886.825
890.342
882.974
887.038
889.811
895.276
899.499
900.716
894.55
904.734
906.041
898.925
898.588
903.983
895.477
892.457
903.714
907.734
905.647
906.269
909.646
915.225
916.855
919.307
902.984
901.814
898.318
898.952
902.467
901.327
891.269
884.177
880.777
891.478
900.551
902.521
902.933
918.509
922.731
916.892
912.692
910.588
914.231
907.204
901.946
905.648
907.128
899.108
898.591
891.805
888.949
896.905
895.51
887.954
874.324
884.173
891.635
891.065
888.083
893.197
888.447
893.556
895.95
900.601
900.067
890.42
891.13
885.647
884.271
892.128
894.553
902.269
908.426
898.412
898.82
906.959
903.048
898.116
897.256
895.817
896.067
892.282
884.246
889.922
897.655
899.852
896.166
895.547
895.222
893.757
890.356
891.727
881.207
880.966
879.463
881.704
884.17
886.942
893.318
897.367
891.571
890.7
898.557
890.611
890.076
894.047
901.333
903.406
906.162
897.983
896.949
897.84
897.031
904.836
899.255
901.808
898.247
896.079
904.734
903.783
898.78
903.902
908.514
921.035
923.759
910.72
904.114
906.088
910.718
903.56
899.286
895.324
896.563
905.462
909.446
906.739
905.624
897.875
894.804
893.032
894.274
896.282
890.423
894.696
893.88
886.418
891.665
891.436
892.726
897.003
884.164
887.44
886.414
889.735
885.248
886.396
897.769
889.238
884.562
886.699
893.238
891.692
895.447
904.313
898.347
893.553
885.283
889.16
896.627
888.016
905.036
897.505
891.574
897.128
901.907
903.407
906.912
913.824
911.87
918.077
908.59
912.337
909.873
912.029
915.562
910.607
920.174
915.481
910.388
918.953
913.132
911.503
915.329
914.452
913.947
922.402
921.468
914.275
915.654
912.99
912.467
897.601
900.793
901.6
905.832
906.253
905.827
902.207
900.586
903.47
903.341
896.374
903.083
896.36
900.007
909.318
896.803
903.62
907.208
914.127
901.059
901.678
912.655
908.387
918.062
913.999
911.209
909.898
909.116
907.138
899.889
896.171
905.245
910.366
913.126
911.419
900.974
897.744
899.988
897.169
895.246
904.637
907.401
894.547
891.546
895.571
900.865
896.802
901.066
890.484
900.669
902.022
898.06
897.403
895.564
886.181
885.279
896.864
892.999
899.816
891.522
898.458
903.152
893.378
894.262
892.919
895.256
897.658
911.863
906.039
895.283
897.26
899.739
895.254
902.265
908.877
904.642
905.3
904.534
901.013
898.204
900.799
905.232
909.664
912.84
917.561
915.558
912.712
916.725
907.272
902.409
906.37
904.733
907.013
889.359
890.969
885.246
894.937
895.649
890.597
894.27
900.724
890.277
899.972
891.461
884.282
890.395
889.425
897.422
907
905.044
899.273
892.321
886.49
888.588
888.313
886.365
895.298
890.782
891.742
895.649
898.428
896.331
897.058
892.522
898.224
895.93
886.461
894.117
893.783
884.437
891.309
889.361
892.567
873.763
884.433
888.687
879.502
883.556
888.019
891.106
893.455
895.453
885.649
879.446
885.458
889.834
884.376
877.616
870.87
883.913
880.112
876.602
889.906
884.857
883.365
874.455
876.444
869.611
868.551
872.622
869.165
863.07
863.95
863.494
867.767
866.975
858.649
849.718
857.848
858.323
857.469
847.629
850.335
864.262
861.669
857.463
858.94
862.873
860.133
862.408
858.746
854.113
863.168
860.864
861.669
856.149
852.648
853.292
852.076
852.515
835.233
844.481
846.243
844.368
830.666
827.663
834.787
826.299
830.677
826.494
826.749
826.845
826.655
820.538
827.25
822.343
813.715
816.855
813.561
805.175
807.517
799.585
806.377
815.265
817.372
814.775
815.208
803.19
804.692
799.558
795.535
800.833
806.712
799.701
792.711
783.67
774.318
770.408
780.601
773.758
760.124
764.178
764.032
766.762
764.979
757.625
753.07
751.824
754.013
753.296
752.9
755.573
744.45
738.62
745.981
744.131
737.262
734.064
728.774
712.461
706.032
710.653
710.345
713.405
707.695
715.312
698.007
686.81
683.123
681.526
679.273
678.25
678.209
679.132
671.885
668.159
670.417
664.291
661.14
652.784
645.233
650.712
660.329
661.098
658.979
652.28
648.875
638.8
632.4
635.579
633.878
638.26
629.296
626.605
627.766
625.153
624.505
621.185
613.551
614.126
611.936
614.631
612.975
608.483
609.993
603.279
604.861
597.454
589.046
589.641
587.696
589.273
586.855
590.508
583.564
580.999
580.07
583.564
582.413
573.159
564.088
573.384
571.275
567.177
563.307
558.049
556.268
557.206
555.07
547.183
547.698
544.432
546.249
542.695
545.598
544.745
534.257
532.854
530.899
533.616
526.381
526.217
517.405
508.575
504.54
494.203
498.215
495.877
499.437
490.255
493.295
491.48
497.013
499.267
494.549
488.793
489.058
481.978
478.63
476.295
472.1
467.183
467.159
467.93
472.211
464.757
458.311
452.602
451.479
445.694
447.9
445.738
449.118
450.145
439.624
438.284
439.578
437.415
431.285
429.109
423.172
421.854
428.126
428.531
423.748
423.605
420.3
415.284
421.574
419.392
416.219
414.604
412.151
410.182
404.846
403.875
404.135
391.712
396.886
395.962
391.094
395.113
389.3
394.057
402.141
402.002
402.214
396.336
389.064
384.001
383.283
374.789
381.456
377.605
370.413
374.336
378.13
377.255
376.504
372.951
374.372
366.89
371.361
374.049
373.75
367.645
368.292
364.959
365.339
358.611
358.04
365.937
352.821
353.144
349.368
349.806
345.802
341.269
339.317
341.394
343.092
345.141
340.626
341.99
347.503
339.524
337.592
327.827
334.069
334.365
333.865
321.917
320.502
322.857
314.813
317.613
319.242
312.223
312.319
307.062
300.184
306.588
300.791
302.504
298.002
292.224
291.732
291.06
290.396
294.981
299.846
297.555
300.732
301.954
302.657
293.38
292.932
296.755
298.785
294.061
291.104
291.145
296.003
302.351
299.779
300.214
293.762
299.832
303.139
302.235
297.192
297.151
307.107
304.321
306.403
307.707
302.808
306.341
299.134
301.426
314.311
303.235
295.276
290.864
288.992
293.959
283.897
291.917
298.429
301.185
300.049
311.625
313.727
319.54
314.622
309.085
308.073
308.128
305.346
303.022
306.485
312.283
303.089
301.428
297.523
303.488
301.645
295.469
293.108
304.813
305.004
306.154
300.156
292.418
291.08
292.021
298.614
296.889
301.905
291.036
288.62
299.279
302.651
301.267
304.754
303.254
295.353
296.489
305.704
301.268
293.548
303.209
308.197
309.041
303.635
303.037
297.994
298.155
302.965
296.431
308.153
306.021
310.47
305.796
302.359
303.535
299.131
297.979
298.765
302.277
299.502
306.849
307.832
314.164
305.098
301.144
298.951
292.71
287.747
291.678
290.977
287.874
295.446
296.754
298.277
295.762
296.94
299.241
303.316
299.4
303.298
302.292
303.598
305.549
309.457
311.015
299.148
302.753
300.489
304.928
307.383
302.216
298.301
295.097
300.871
301.037
302.442
300.317
305.443
312.057
309.092
312.748
311.23
305.574
302.467
301.966
303.35
303.921
302.064
299.341
302.399
298.272
300.298
305.013
306.234
294.54
290.747
290.171
293.454
299.774
301.585
297.227
301.795
295.993
302.434
293.868
298.399
297.306
302.414
306.641
308.885
297.299
296.154
296.773
290.604
290.606
288.658
284.059
290.928
295.597
293.133
299.354
291.595
298.556
302.363
302.524
300.861
296.331
301.663
301.346
301.254
306.947
310.692
304.952
306.432
308.088
303.337
304.047
295.608
293.638
296.497
291.425
298.373
304.193
295.434
297.029
301.478
303.522
304.02
296.638
292.809
295.622
291.739
296.443
296.398
297.823
299.344
300.145
298.802
295.882
297.638
299.947
299.572
293.436
292.635
291.248
294.955
302.811
293.799
301.033
295.869
291.674
299.95
296.987
300.216
303.501
308.729
308.077
306.401
300.766
309.411
308.984
303.445
302.419
293.813
288.46
285.229
286.646
289.519
288.594
288.925
290.222
290.637
292.294
283.811
290.056
293.317
295.721
302.008
302.62
302.308
299.37
297.877
298
302.339
302.511
306.55
303.498
297.736
302.39
304.63
306.792
306.138
301.828
306.697
303.103
302.654
303.517
308.368
306.804
298.87
302.35
303.56
301.074
294.095
300.274
297.833
303.029
295.446
295.8
307.643
301.81
307.108
300.459
291.63
294.988
298.075
)
;

boundaryField
{
    sides
    {
        type            symmetry;
    }
    empty
    {
        type            empty;
    }
}


// ************************************************************************* //
