/*--------------------------------*- C++ -*----------------------------------*\
  =========                 |
  \\      /  F ield         | OpenFOAM: The Open Source CFD Toolbox
   \\    /   O peration     | Website:  https://openfoam.org
    \\  /    A nd           | Version:  7
     \\/     M anipulation  |
\*---------------------------------------------------------------------------*/
FoamFile
{
    version     2.0;
    format      ascii;
    class       volScalarField;
    location    "0.003";
    object      linearKE;
}
// * * * * * * * * * * * * * * * * * * * * * * * * * * * * * * * * * * * * * //

dimensions      [1 -1 -2 0 0 0 0];

internalField   nonuniform List<scalar> 
1000
(
0.939856
1.10753
1.24253
0.789774
0.885663
0.88025
1.25667
0.909446
1.13483
0.787144
1.15336
1.23235
1.13162
1.05859
0.981494
1.10652
1.25901
1.31801
1.03888
1.05317
1.34117
1.26256
1.393
1.36603
1.31711
1.33158
1.25983
1.21234
1.39813
1.37625
1.24898
1.17827
0.940838
1.33544
1.18684
1.47661
1.44966
1.3645
1.34408
1.47252
1.54734
1.41053
1.29339
1.61187
1.22769
1.69969
1.82785
1.43828
1.6391
1.4931
1.47454
1.24421
1.6634
1.55427
1.94778
0.992711
1.91309
1.65489
1.53751
1.54209
1.69708
1.98643
1.51531
1.5794
1.54966
1.85123
1.56966
1.83118
1.83808
1.85122
1.85487
1.59781
1.95735
2.05023
1.83255
1.95054
2.04453
1.89177
2.17985
1.89578
2.26824
1.87908
2.1168
2.36253
1.62174
2.20238
2.36908
2.21674
2.38538
2.09138
2.30855
2.4528
2.08164
2.2577
2.37218
2.57759
2.35685
2.40924
2.47716
2.26092
2.13808
2.75044
2.07834
2.38456
2.8026
2.73983
2.36932
2.30027
2.36178
2.60293
2.13065
2.50598
2.22442
2.81462
2.6767
2.27555
2.49219
2.61722
2.47629
2.31472
2.71719
2.20523
2.45601
2.22897
2.73402
2.36527
2.49842
2.837
2.20077
2.79275
2.41197
2.63295
2.9892
2.91998
2.28756
2.6503
2.67249
2.19254
2.80818
2.34576
2.41905
2.07886
2.64751
2.27717
2.87988
2.79333
2.60061
2.32104
2.74399
2.52178
3.0181
2.38865
2.76882
2.56705
2.61372
2.53828
2.9471
2.6285
2.62343
2.29513
3.02373
2.31948
2.74299
2.44857
2.74088
2.64324
2.9337
3.02118
2.67477
2.44548
2.46775
2.86884
2.83051
2.42363
2.33505
2.38634
2.4688
3.04297
2.55578
2.90348
2.82405
2.48544
2.60024
2.48667
2.97374
2.53315
2.55575
2.51664
2.89397
2.37777
2.29105
2.34284
2.36639
2.777
2.69876
2.97881
2.5724
2.61038
2.83407
2.86068
2.68765
2.83342
2.1779
2.54637
2.78989
2.93739
2.64641
2.70332
2.5539
2.94265
2.8352
2.7714
2.52883
2.54921
2.81614
2.86393
2.21101
2.54477
1.92934
2.53042
2.02935
2.70695
2.97202
2.58535
2.48143
2.26298
3.21032
2.49378
2.42221
2.54927
2.30722
2.49571
2.86302
2.54807
2.26457
2.24433
2.32989
2.48286
2.91583
2.05123
2.24848
2.59798
3.27169
2.67168
2.81245
3.0915
2.50345
2.69695
2.49268
2.82345
2.58524
2.9638
2.66571
2.42452
2.41305
2.7496
2.45317
2.7973
2.7461
2.71536
2.30035
2.6381
2.66428
2.61826
2.71436
2.49498
2.27086
2.96424
2.64046
2.48938
2.51351
2.30379
2.8906
2.91357
3.06824
2.68024
1.97362
2.42221
2.79786
2.35982
2.56908
2.85016
2.38842
2.67475
2.21954
2.27705
2.87832
2.79611
2.56411
2.7633
2.4218
2.35127
2.63137
2.61214
2.69595
2.36727
2.33527
2.6588
2.36585
2.53793
3.22117
2.25881
2.36287
2.49239
3.01764
2.70022
2.09542
2.83798
2.60752
2.46986
2.76576
2.58508
2.68395
2.28155
2.718
2.75822
2.63562
2.4123
2.64858
2.53289
2.52135
2.35568
2.37004
2.65344
2.92739
2.58102
2.92215
3.63574
2.39916
2.67797
2.48058
2.6006
3.14093
2.8629
2.25324
2.67816
2.52744
2.99182
2.28584
2.51712
2.8699
2.83722
2.60315
2.73876
2.30542
2.79765
2.82195
2.79255
2.70117
2.51229
2.35462
2.84768
2.7269
2.42962
1.92295
2.70818
2.85067
2.57224
2.79898
2.62274
2.43421
3.33612
2.7125
2.44707
2.89866
2.59201
2.80476
2.87145
2.68132
2.18631
2.45764
2.38371
2.61666
2.76715
2.39746
2.6336
2.81122
2.24706
3.1214
2.53553
2.38142
2.53266
2.69746
2.78665
2.59208
2.47955
2.5082
2.35388
3.3393
2.66936
2.91859
2.42265
2.29492
2.49087
2.2663
2.4024
2.10993
2.62245
2.10343
2.24587
2.50755
2.16881
2.17337
2.37644
2.20196
2.46816
1.96298
1.80431
2.1665
2.08974
2.25508
1.80596
1.97063
1.93797
2.10103
1.91034
2.23489
2.4022
2.20369
1.95765
1.76759
1.95883
2.22299
1.80077
2.0087
2.26896
1.62811
2.15169
2.0177
1.8668
1.68219
1.96878
2.02615
2.25383
1.83059
2.02881
1.84045
1.83443
1.68399
2.1392
1.96152
2.08276
1.959
1.63946
1.46538
2.03279
2.07336
1.55145
1.13791
1.68097
1.37547
1.68227
1.64414
1.53051
1.41489
1.6161
1.87568
1.578
1.36519
1.33136
1.39237
1.74712
1.42318
1.90666
1.39737
1.60429
1.54769
1.81781
1.74458
1.27378
1.14674
1.36828
1.39467
1.53482
1.46837
1.34252
1.43384
1.61462
1.51258
1.45935
1.44658
1.56496
1.32383
1.83663
1.78977
1.14601
1.79962
1.3741
1.62588
1.29643
1.44309
1.52752
1.58377
1.51635
1.50415
1.42394
1.5111
1.37387
1.40662
1.92311
1.43045
1.60404
1.69258
1.52264
1.35635
1.45724
1.42682
1.58615
1.38589
1.36362
1.47963
1.52682
1.66655
1.30209
1.7763
1.25941
1.56922
1.70465
1.58979
1.58127
1.88396
1.3764
1.38401
1.37591
1.13087
1.72399
1.6144
1.36334
1.5172
1.32187
1.44444
1.57917
1.56613
1.30782
1.41375
1.77446
1.81218
1.79079
1.42507
1.89404
1.57876
1.30474
1.59568
1.22936
1.43189
1.67806
1.22033
1.20621
1.49024
1.25872
1.65051
1.54066
1.59085
1.41068
1.39969
1.75836
1.92519
1.47393
1.45689
1.20327
1.14481
1.7925
1.72812
1.50758
1.48655
1.33027
1.20843
1.72027
1.39918
1.39724
1.41486
1.50041
1.67971
1.57253
1.78418
1.86466
1.25774
1.22029
1.14594
1.83817
1.83931
1.58678
1.63474
1.64808
1.13096
1.2772
1.30962
1.80093
1.67106
1.84042
1.38705
1.6866
1.42894
1.53208
1.58697
1.54036
1.30752
1.69352
1.46228
1.30806
1.49633
1.35237
1.63378
1.5865
1.53477
1.24826
1.45653
1.34712
1.72399
1.21694
1.49267
1.51064
1.58806
1.35194
1.32408
1.5596
1.54748
1.40185
1.59338
1.59614
1.70801
1.80042
1.22866
1.60104
1.52662
1.38129
1.4862
1.90072
1.14603
1.76257
1.71388
1.34579
1.04461
1.25687
1.24953
1.1975
1.26846
1.03913
1.11075
1.01241
1.03085
1.09702
1.07829
1.10693
0.928262
0.927054
0.923082
1.01338
0.854586
0.681251
0.788127
0.851741
0.677472
0.742993
0.830449
0.808396
0.902091
0.734231
0.530965
0.786768
0.836167
0.783296
0.804829
1.04903
0.679349
0.828457
0.996104
0.731158
0.722256
0.914956
0.728198
0.822815
0.897307
0.68907
0.566685
0.669718
0.922525
0.66057
0.796423
1.04037
0.585431
0.646972
0.698605
0.76261
0.719546
0.663214
0.792683
0.880164
0.843118
0.852163
0.782922
0.645157
0.902659
0.827916
0.590945
0.824629
0.543007
0.717444
0.795972
0.770183
0.805735
0.761158
1.01814
0.862755
0.679335
0.616966
0.55983
0.689712
0.700418
0.650136
0.766137
0.970585
0.723141
0.525154
0.959879
0.773205
0.643321
0.771364
0.660465
0.670943
1.10584
0.834225
0.823128
0.610848
0.677799
0.802748
0.695776
0.695106
0.740487
0.677357
0.838801
0.897515
0.9606
0.599691
0.968854
0.990826
0.985097
0.668614
0.905326
0.597299
0.919163
0.775342
0.706943
0.891875
0.760039
0.681153
0.536042
0.827131
0.781292
1.03346
0.57976
0.526888
0.839648
0.561234
0.723685
0.57187
0.813442
0.614155
0.694127
0.5267
0.786212
0.621384
0.59918
0.870995
0.814244
0.817992
0.876705
0.607638
0.649109
1.03451
0.945241
0.681645
1.06311
0.854118
0.845191
0.550808
0.975656
0.778891
1.04782
0.651281
0.64175
0.583686
0.723445
0.614922
0.665009
0.569465
0.510332
0.583007
0.580021
0.893516
0.695293
0.780768
0.673711
0.78086
0.646094
0.875133
0.833051
0.688839
0.694113
0.917558
1.07863
0.838438
0.722127
0.796482
0.727008
0.769493
0.776781
0.852843
1.10652
0.638073
0.698673
0.648056
0.706106
0.645122
0.708757
0.681898
0.796011
0.738441
0.883271
0.708981
0.69199
0.752146
0.79376
0.770626
0.892723
0.740301
0.949743
0.809712
1.0744
0.5994
0.575413
0.641162
0.723896
0.712409
0.571287
0.821752
0.765591
0.733077
0.995073
0.64343
0.627276
0.756814
0.631899
0.777709
0.875492
0.994107
0.848083
0.670874
0.775393
0.925348
0.701236
0.650402
0.693683
0.894602
0.64493
0.577797
0.739452
0.822524
0.76173
0.755203
0.980299
0.776129
0.789224
1.01694
0.831918
0.707792
0.619195
0.693531
0.628116
0.746572
0.792252
0.661435
0.656702
0.663015
0.735241
0.656369
0.674846
0.772292
0.979505
0.921277
0.716101
0.844962
0.622868
0.818142
0.705303
0.567162
0.632347
0.727559
0.664372
0.570927
0.47664
0.417613
0.672983
0.804614
0.80671
0.569328
0.650943
0.654766
0.511731
0.628354
0.514685
0.507578
0.627573
0.563913
0.875528
0.603581
0.479744
0.599012
0.805746
0.5134
0.512976
0.575809
0.617883
0.718325
0.569369
0.491201
0.595744
0.625856
0.805859
0.454754
0.374828
0.865982
0.587076
0.432572
0.608275
0.713207
0.586706
0.741933
0.644123
0.360423
0.755594
0.601146
0.468363
0.389396
0.566283
0.703609
0.574202
0.569422
0.594536
0.362561
0.5127
0.417441
0.501019
0.369762
0.442664
0.445725
0.532569
0.494508
0.511127
0.380943
0.214188
0.502346
0.498712
0.51718
0.385954
0.425846
0.402048
0.433223
0.317901
0.579436
0.275243
0.291484
0.27809
0.378253
0.399865
0.460191
0.766334
0.400342
0.411498
0.289179
0.322046
0.487275
0.46936
0.231695
0.443496
0.332612
0.344031
0.415075
0.348334
0.338821
0.343278
0.248761
0.409978
0.257383
0.27546
0.237201
0.329936
0.185656
0.273088
0.246097
0.348154
0.412106
0.25084
0.393845
0.305882
0.215143
0.244865
0.194587
0.206064
0.17631
)
;

boundaryField
{
    sides
    {
        type            zeroGradient;
    }
    empty
    {
        type            empty;
    }
}


// ************************************************************************* //
