/*--------------------------------*- C++ -*----------------------------------*\
  =========                 |
  \\      /  F ield         | OpenFOAM: The Open Source CFD Toolbox
   \\    /   O peration     | Website:  https://openfoam.org
    \\  /    A nd           | Version:  7
     \\/     M anipulation  |
\*---------------------------------------------------------------------------*/
FoamFile
{
    version     2.0;
    format      ascii;
    class       volScalarField;
    location    "0.003";
    object      linearKEMean;
}
// * * * * * * * * * * * * * * * * * * * * * * * * * * * * * * * * * * * * * //

dimensions      [1 -1 -2 0 0 0 0];

internalField   nonuniform List<scalar> 
1000
(
0.217933
0.215406
0.216862
0.229867
0.236553
0.24746
0.257655
0.262716
0.270426
0.276161
0.276012
0.284274
0.288334
0.31698
0.320834
0.31915
0.284364
0.305679
0.339142
0.332771
0.33288
0.335845
0.308653
0.301872
0.309526
0.310764
0.311601
0.310913
0.309076
0.274827
0.266435
0.267097
0.28964
0.256412
0.264392
0.266517
0.268582
0.273522
0.298218
0.312066
0.307487
0.324232
0.338836
0.344136
0.347386
0.345248
0.336988
0.318944
0.335311
0.371376
0.283284
0.296667
0.30418
0.307534
0.310151
0.31539
0.314855
0.31515
0.309542
0.308451
0.350117
0.361669
0.363374
0.360751
0.35697
0.396944
0.42137
0.362573
0.324186
0.322845
0.320383
0.33068
0.348922
0.34292
0.341882
0.341388
0.339205
0.341207
0.324837
0.314518
0.305031
0.310288
0.302933
0.304211
0.329284
0.323517
0.327605
0.324666
0.316729
0.320042
0.354123
0.352833
0.354129
0.342373
0.377996
0.414174
0.436742
0.541331
0.520621
0.431708
0.348955
0.400271
0.401357
0.395933
0.378407
0.375641
0.374432
0.371389
0.480533
0.4906
0.4138
0.415855
0.418793
0.455912
0.420513
0.41697
0.414654
0.41349
0.393724
0.390524
0.389933
0.390592
0.396808
0.418059
0.404591
0.39547
0.401556
0.394342
0.395989
0.393572
0.395329
0.446979
0.497643
0.425728
0.405263
0.409864
0.404413
0.402281
0.395994
0.428083
0.388638
0.411247
0.427788
0.435352
0.437452
0.455546
0.461002
0.445288
0.435612
0.433059
0.427525
0.408409
0.406556
0.402986
0.388222
0.408103
0.413564
0.414063
0.418823
0.42832
0.387069
0.395077
0.403742
0.404238
0.399408
0.394316
0.391106
0.387317
0.396069
0.396324
0.402926
0.424587
0.40486
0.40775
0.394471
0.366904
0.365257
0.379979
0.379512
0.373153
0.360718
0.3573
0.35461
0.356968
0.350245
0.357735
0.375232
0.376712
0.376126
0.371887
0.389851
0.394066
0.393728
0.395479
0.400371
0.404777
0.388882
0.368066
0.372427
0.376506
0.410711
0.42241
0.427164
0.432751
0.421985
0.423306
0.447804
0.442043
0.447842
0.451216
0.431454
0.42982
0.423051
0.420851
0.427318
0.430806
0.444846
0.440242
0.45494
0.452833
0.459558
0.463361
0.481055
0.483789
0.506535
0.494511
0.456881
0.461989
0.463286
0.449007
0.445531
0.41089
0.39661
0.391764
0.397531
0.409257
0.42702
0.439037
0.515792
0.52921
0.524147
0.428702
0.452311
0.456516
0.46684
0.552335
0.524416
0.533458
0.492592
0.457623
0.452251
0.4283
0.422786
0.421288
0.429824
0.433428
0.430374
0.436364
0.426079
0.421039
0.415617
0.423669
0.409208
0.401235
0.402075
0.39716
0.390764
0.386884
0.388618
0.390896
0.394883
0.394889
0.416839
0.423797
0.407796
0.416731
0.438118
0.446596
0.44804
0.453322
0.450193
0.443567
0.439894
0.444734
0.443
0.438134
0.433728
0.431124
0.419735
0.427098
0.414034
0.419794
0.430049
0.421355
0.408346
0.401167
0.39752
0.433304
0.439884
0.436384
0.425649
0.436985
0.439429
0.43517
0.424244
0.420705
0.423492
0.431342
0.432632
0.431086
0.465534
0.492896
0.504377
0.486002
0.443019
0.446428
0.44606
0.440424
0.454295
0.457877
0.466735
0.483564
0.49219
0.495294
0.496201
0.481638
0.637773
0.470588
0.494888
0.459973
0.441542
0.414124
0.419335
0.425614
0.427655
0.433817
0.434906
0.458052
0.466241
0.479159
0.461921
0.462337
0.478302
0.476334
0.465815
0.464608
0.460157
0.523156
0.544909
0.486609
0.462535
0.461013
0.44849
0.423794
0.421243
0.424616
0.447358
0.439688
0.422203
0.426511
0.418245
0.402308
0.4064
0.423999
0.427756
0.431012
0.455531
0.469974
0.472367
0.477908
0.498388
0.474002
0.479162
0.515564
0.557111
0.559396
0.569538
0.547
0.466844
0.47029
0.467024
0.457692
0.450759
0.455636
0.457141
0.455579
0.453386
0.455792
0.459991
0.456272
0.452841
0.468097
0.471433
0.444331
0.418769
0.42614
0.436466
0.421421
0.416885
0.417478
0.432355
0.430415
0.431255
0.436934
0.440743
0.436738
0.442275
0.424908
0.414729
0.417976
0.433018
0.445747
0.451412
0.458396
0.463318
0.453436
0.473654
0.460246
0.466179
0.485116
0.53237
0.478227
0.464036
0.473161
0.457854
0.450597
0.447893
0.463142
0.530308
0.408735
0.369489
0.363022
0.355994
0.355077
0.358344
0.366333
0.371024
0.37575
0.373124
0.367735
0.374501
0.399343
0.389142
0.379178
0.366041
0.361687
0.357624
0.35365
0.357343
0.357816
0.360452
0.372797
0.378944
0.380954
0.383136
0.381965
0.384628
0.386921
0.390553
0.38967
0.392981
0.394549
0.41653
0.41466
0.385484
0.368025
0.366037
0.36649
0.36045
0.370492
0.379642
0.607981
0.381799
0.381287
0.378855
0.40815
0.43412
0.435955
0.43732
0.4353
0.391428
0.402503
0.407607
0.404385
0.399624
0.396736
0.406807
0.416879
0.416161
0.414106
0.412524
0.405932
0.587833
0.600239
0.468306
0.40107
0.396932
0.401441
0.404745
0.424268
0.461801
0.458021
0.464921
0.486904
0.486113
0.489853
0.490088
0.455341
0.453387
0.483807
0.49859
0.522471
0.496882
0.485271
0.488447
0.50141
0.515501
0.493245
0.500167
0.506946
0.507665
0.492979
0.480428
0.477707
0.46498
0.454407
0.457515
0.449096
0.439093
0.418556
0.434033
0.394286
0.388028
0.390463
0.388387
0.385951
0.391191
0.383754
0.371735
0.352538
0.351347
0.355664
0.371083
0.374727
0.377372
0.382143
0.455128
0.509386
0.465694
0.379206
0.382721
0.409725
0.48302
0.385259
0.38266
0.385152
0.395715
0.522666
0.548704
0.395588
0.414897
0.420055
0.421439
0.423774
0.424846
0.424741
0.43443
0.447555
0.60544
0.544039
0.521982
0.534728
0.501272
0.506923
0.505836
0.48797
0.499303
0.484918
0.500901
0.50336
0.498954
0.489592
0.486662
0.488741
0.472316
0.460269
0.494703
0.530631
0.518747
0.508729
0.510067
0.527436
0.536498
0.539055
0.49125
0.484463
0.48838
0.480084
0.466834
0.456594
0.474501
0.474893
0.480909
0.485678
0.492891
0.489966
0.479878
0.476192
0.471239
0.464265
0.46743
0.461126
0.447049
0.446178
0.44635
0.44671
0.441624
0.433788
0.425087
0.415272
0.420432
0.420316
0.409767
0.401267
0.412005
0.502688
0.63638
0.617085
0.486946
0.4681
0.470151
0.480462
0.485048
0.475572
0.447568
0.427887
0.422104
0.413242
0.418666
0.420978
0.428931
0.52624
0.561773
0.482566
0.433059
0.527116
0.420322
0.414504
0.410708
0.411916
0.409004
0.400318
0.376668
0.379532
0.381303
0.383795
0.384944
0.387709
0.380866
0.372896
0.385057
0.379561
0.379414
0.382519
0.386364
0.429986
0.440451
0.443025
0.441233
0.391983
0.394544
0.400249
0.404136
0.405995
0.427642
0.437504
0.440743
0.446612
0.458459
0.464517
0.538466
0.591337
0.590222
0.578148
0.542781
0.772963
0.509702
0.427226
0.431092
0.421941
0.406436
0.410611
0.416133
0.424378
0.423458
0.419314
0.434199
0.447137
0.468401
0.418866
0.420964
0.420878
0.421186
0.417687
0.408171
0.407601
0.414924
0.744859
0.638106
0.408737
0.409208
0.413643
0.419547
0.419282
0.412187
0.417755
0.417628
0.431428
0.431916
0.423037
0.423997
0.422829
0.505021
0.476256
0.424914
0.423766
0.4194
0.41881
0.410467
0.464815
0.429018
0.439586
0.436449
0.42791
0.429853
0.42447
0.430988
0.428074
0.419362
0.400249
0.448379
0.468266
0.475803
0.410075
0.412825
0.42241
0.501805
0.498171
0.548325
0.57641
0.489014
0.414418
0.414441
0.418708
0.423873
0.429116
0.497028
0.509437
0.488473
0.466924
0.46473
0.519131
0.583023
0.508637
0.463249
0.45666
0.439902
0.43538
0.428929
0.436984
0.429706
0.425551
0.434038
0.420809
0.404299
0.409902
0.410283
0.415187
0.43527
0.442815
0.450541
0.452955
0.456645
0.476545
0.478895
0.450552
0.437408
0.433486
0.431122
0.433769
0.432043
0.423447
0.424803
0.422616
0.415296
0.41952
0.409756
0.407743
0.413981
0.414205
0.411017
0.420105
0.428259
0.447521
0.444311
0.430625
0.402947
0.398468
0.387826
0.379446
0.375902
0.380835
0.383032
0.377891
0.390264
0.380802
0.381306
0.387227
0.54015
0.454148
0.476381
0.496168
0.494004
0.459667
0.510224
0.534796
0.53357
0.526037
0.464851
0.481116
0.483769
0.479134
0.466284
0.461194
0.461473
0.468002
0.445498
0.437279
0.435342
0.448221
0.452116
0.462171
0.462366
0.458935
0.459802
0.462913
0.460491
0.442276
0.437183
0.449247
0.429645
0.396566
0.398314
0.414872
0.423832
0.440301
0.448459
0.445402
0.441843
0.453087
0.473248
0.480328
0.479976
0.575522
0.550547
0.491227
0.499216
0.501133
0.504906
0.530457
0.530416
0.524714
0.524526
0.511064
0.482183
0.477596
0.495182
0.49162
0.484875
0.462599
0.455006
0.434013
0.420488
0.401345
0.394239
0.406457
0.401157
0.45602
0.391858
0.392672
0.38623
0.412008
0.403489
0.425186
0.42526
0.433893
0.422658
0.422154
0.38787
0.381474
0.375035
0.600593
0.389548
0.388591
0.382979
0.379614
0.352352
0.364119
0.376856
0.437646
0.439622
0.387185
0.392346
0.382424
0.361237
0.356933
0.354825
0.355116
0.36257
0.344332
0.347334
0.346179
0.359228
0.368671
0.367478
0.356291
0.354049
0.345779
0.345491
0.361421
0.318827
0.314513
0.314788
0.314395
0.314425
0.337706
0.332802
0.335556
0.343293
0.334607
0.308858
0.345087
0.319468
0.313321
0.31456
0.326348
0.329614
0.332497
0.332715
0.328667
0.323086
0.308884
0.301444
0.380752
0.38951
0.390143
0.386177
0.379693
0.356461
0.280794
0.279189
0.279822
0.287873
0.278503
0.276348
0.285639
0.318134
0.318296
0.326132
0.308667
0.291029
0.283873
0.424857
0.301427
0.260841
0.276397
0.328229
0.238678
0.240848
0.247791
0.244814
0.23922
0.236136
0.238635
0.25496
0.312823
0.309446
0.304522
0.29963
0.243693
0.216113
0.215964
0.207183
0.20857
0.208653
0.201331
0.199581
0.199872
0.200509
0.20574
)
;

boundaryField
{
    sides
    {
        type            calculated;
        value           nonuniform List<scalar> 2(0.20574 0.217933);
    }
    empty
    {
        type            empty;
    }
}


// ************************************************************************* //
