/*--------------------------------*- C++ -*----------------------------------*\
  =========                 |
  \\      /  F ield         | OpenFOAM: The Open Source CFD Toolbox
   \\    /   O peration     | Website:  https://openfoam.org
    \\  /    A nd           | Version:  7
     \\/     M anipulation  |
\*---------------------------------------------------------------------------*/
FoamFile
{
    version     2.0;
    format      ascii;
    class       volScalarField;
    location    "0.003";
    object      p;
}
// * * * * * * * * * * * * * * * * * * * * * * * * * * * * * * * * * * * * * //

dimensions      [1 -1 -2 0 0 0 0];

internalField   nonuniform List<scalar> 
1000
(
5.19055
5.1857
5.16036
5.17641
5.17659
5.18963
5.19159
5.18217
5.15346
5.19129
5.12931
5.18964
5.19442
5.17281
5.1832
5.23465
5.22106
5.20261
5.22113
5.22298
5.22881
5.25227
5.22218
5.19197
5.20297
5.22272
5.22928
5.19559
5.20148
5.17745
5.2103
5.21926
5.17497
5.23157
5.23993
5.21985
5.21106
5.21841
5.23238
5.20439
5.18009
5.21486
5.18623
5.20121
5.19011
5.2092
5.19253
5.21694
5.23474
5.2157
5.18631
5.19653
5.21043
5.1843
5.23808
5.20433
5.19457
5.22045
5.21434
5.22841
5.23321
5.2202
5.17873
5.206
5.21562
5.2274
5.20581
5.1933
5.20299
5.22333
5.22376
5.21761
5.23137
5.21148
5.22784
5.18968
5.21426
5.19452
5.19176
5.24618
5.22919
5.252
5.24
5.22873
5.23936
5.21572
5.22968
5.23892
5.21739
5.20821
5.22849
5.21604
5.22157
5.20828
5.24932
5.23349
5.23795
5.24201
5.27401
5.25783
5.2158
5.22908
5.23818
5.25557
5.23668
5.23283
5.25209
5.21824
5.26265
5.25717
5.25952
5.23624
5.23483
5.28751
5.28995
5.23317
5.2689
5.2479
5.26736
5.28757
5.24883
5.23436
5.24654
5.26923
5.223
5.25484
5.2605
5.28717
5.26888
5.27888
5.24849
5.2695
5.25244
5.2427
5.27022
5.26017
5.26578
5.28134
5.28679
5.21595
5.23943
5.27542
5.25461
5.26063
5.259
5.26898
5.28499
5.33094
5.27606
5.28547
5.28295
5.25664
5.23201
5.277
5.25011
5.26497
5.28853
5.27304
5.2324
5.24263
5.23346
5.29646
5.28306
5.2409
5.24198
5.2504
5.28768
5.25006
5.2848
5.29968
5.25041
5.25903
5.28896
5.26846
5.25171
5.24235
5.24088
5.28593
5.28048
5.29976
5.25974
5.29173
5.2339
5.24342
5.2652
5.2892
5.29838
5.26853
5.2469
5.28114
5.29172
5.2852
5.31207
5.32526
5.27301
5.29416
5.29267
5.25993
5.31872
5.31686
5.24493
5.30149
5.30669
5.28782
5.29587
5.26888
5.27044
5.29389
5.2825
5.30196
5.29059
5.28629
5.28844
5.28955
5.28289
5.27202
5.27633
5.26445
5.27976
5.27354
5.30076
5.30631
5.25817
5.2452
5.23624
5.25279
5.25642
5.29172
5.26806
5.27243
5.29742
5.25614
5.27857
5.27234
5.2434
5.29508
5.2526
5.27952
5.24909
5.27266
5.28716
5.26988
5.25109
5.26903
5.22429
5.28638
5.27452
5.29823
5.29521
5.28344
5.27954
5.28993
5.30459
5.27116
5.2865
5.30471
5.30168
5.27981
5.27068
5.29349
5.29773
5.27157
5.29514
5.30569
5.24303
5.23802
5.26295
5.28674
5.30836
5.29129
5.28891
5.29755
5.25011
5.28095
5.32548
5.25867
5.29609
5.29723
5.30067
5.28102
5.27189
5.26925
5.23197
5.25808
5.26999
5.27549
5.24948
5.24796
5.23491
5.29004
5.30591
5.29492
5.29235
5.25743
5.26913
5.28507
5.26603
5.2294
5.26315
5.2633
5.2931
5.28166
5.25539
5.26578
5.24119
5.27425
5.28445
5.24018
5.24069
5.27372
5.23227
5.29549
5.25711
5.22212
5.2319
5.19416
5.2045
5.2412
5.2181
5.27826
5.20158
5.24008
5.21141
5.21508
5.20702
5.25737
5.23253
5.21716
5.19033
5.19312
5.20804
5.14797
5.14008
5.16376
5.15584
5.16384
5.15727
5.14416
5.17304
5.17707
5.12835
5.1499
5.12885
5.13212
5.14642
5.16164
5.14103
5.11592
5.15964
5.12035
5.12671
5.10037
5.1293
5.12034
5.05495
5.03702
5.05973
5.06238
5.05008
5.05347
5.05075
4.99483
4.99831
4.98294
4.98678
5.02279
4.98015
4.98027
4.96158
4.95108
4.93906
4.93248
4.9303
4.92921
4.91184
4.88781
4.89308
4.91633
4.91893
4.89016
4.83564
4.8358
4.82639
4.82321
4.78633
4.81538
4.76199
4.76338
4.77426
4.78736
4.73824
4.71878
4.7113
4.68013
4.66986
4.68643
4.64714
4.66816
4.63257
4.64015
4.63564
4.60318
4.55202
4.5229
4.56623
4.54933
4.5324
4.48818
4.52267
4.45575
4.47064
4.42828
4.39557
4.40773
4.35358
4.35138
4.34699
4.3302
4.30981
4.30254
4.2945
4.29173
4.2286
4.23757
4.20857
4.2103
4.1715
4.15211
4.13746
4.1126
4.0932
4.06582
4.05101
4.03489
4.00362
3.97015
3.95039
3.95401
3.8979
3.89854
3.89144
3.86569
3.83356
3.79984
3.81815
3.77387
3.74341
3.7235
3.68791
3.66395
3.65655
3.63211
3.59873
3.58933
3.55957
3.51407
3.46878
3.50317
3.44386
3.39015
3.36359
3.35321
3.30871
3.2631
3.2391
3.21497
3.20445
3.18563
3.1391
3.11366
3.05096
3.02592
2.9775
2.97983
2.94235
2.91789
2.8744
2.85546
2.83138
2.8043
2.76906
2.74961
2.70114
2.64102
2.63137
2.6134
2.56698
2.54904
2.51881
2.4902
2.41496
2.36365
2.33073
2.29515
2.2727
2.24526
2.19835
2.17206
2.09997
2.03751
1.98618
1.97213
1.96937
1.9464
1.94959
1.96062
1.92902
1.96858
1.94126
1.93857
1.9117
1.92555
1.90719
1.92324
1.92303
1.89432
1.90174
1.91496
1.88667
1.88581
1.8547
1.85979
1.84554
1.84578
1.82489
1.85782
1.85226
1.81537
1.8308
1.85354
1.83778
1.84039
1.83814
1.81726
1.80363
1.78889
1.78836
1.79613
1.79694
1.76618
1.76133
1.73506
1.72772
1.73827
1.73485
1.73217
1.74807
1.75054
1.73427
1.71036
1.72627
1.72838
1.70325
1.70733
1.71257
1.68653
1.6804
1.67432
1.64525
1.62988
1.63556
1.63745
1.62658
1.62937
1.63476
1.61143
1.59188
1.5808
1.56682
1.58257
1.59746
1.61407
1.58336
1.56098
1.54242
1.53564
1.53147
1.52693
1.51702
1.50076
1.51426
1.5068
1.48852
1.492
1.49088
1.49484
1.49827
1.4855
1.46682
1.45864
1.46887
1.46438
1.4533
1.44416
1.40432
1.41948
1.39975
1.37764
1.3611
1.3399
1.32761
1.31699
1.32838
1.31287
1.31188
1.32167
1.3265
1.31175
1.27657
1.29877
1.28834
1.28414
1.25447
1.24404
1.2392
1.24373
1.24312
1.23198
1.23816
1.22979
1.21865
1.23194
1.20945
1.21148
1.21175
1.20076
1.18199
1.16974
1.15904
1.18168
1.17009
1.14906
1.14245
1.14025
1.11844
1.09644
1.11113
1.08998
1.09681
1.07945
1.06774
1.04964
1.06435
1.02938
1.01849
1.02007
1.0172
0.992084
0.983334
0.986408
0.97046
0.967416
0.945978
0.943762
0.948732
0.940022
0.942834
0.929284
0.913899
0.91811
0.896379
0.891723
0.868231
0.875309
0.869405
0.858476
0.852058
0.843489
0.828505
0.812178
0.795303
0.781253
0.778709
0.780304
0.766971
0.75685
0.741563
0.726298
0.719199
0.715956
0.695871
0.681407
0.665665
0.65645
0.652301
0.642033
0.628036
0.619393
0.618635
0.600863
0.589239
0.585627
0.580893
0.562445
0.55705
0.548306
0.530434
0.531723
0.523524
0.517485
0.503475
0.502137
0.513073
0.496839
0.491641
0.489674
0.501043
0.502186
0.50419
0.492664
0.496568
0.500744
0.49476
0.499578
0.502929
0.509941
0.491645
0.505157
0.500947
0.496114
0.50063
0.494159
0.505699
0.500414
0.490996
0.504414
0.49519
0.502544
0.497299
0.504915
0.502485
0.496959
0.502982
0.498189
0.506416
0.5029
0.511896
0.511553
0.503412
0.510794
0.507444
0.512322
0.509878
0.502724
0.491113
0.497497
0.503605
0.513316
0.511369
0.50304
0.500761
0.494569
0.513847
0.524807
0.518181
0.509209
0.4958
0.510226
0.514201
0.509151
0.496443
0.496394
0.497234
0.508429
0.509477
0.5014
0.502746
0.496088
0.494902
0.498788
0.493745
0.500187
0.506343
0.501912
0.51342
0.504938
0.506846
0.514156
0.511154
0.504296
0.515746
0.503099
0.50035
0.491446
0.485966
0.495807
0.505253
0.50326
0.510838
0.507611
0.511651
0.501339
0.508378
0.511513
0.501011
0.500766
0.509238
0.507789
0.510146
0.50374
0.509146
0.497901
0.50871
0.514761
0.511103
0.510333
0.502793
0.502215
0.505624
0.500426
0.506545
0.508702
0.51272
0.505664
0.501882
0.510781
0.519411
0.503478
0.499125
0.503719
0.50411
0.510025
0.511468
0.506141
0.503077
0.502587
0.500433
0.512707
0.509513
0.501472
0.496056
0.502924
0.497421
0.508162
0.502799
0.503527
0.502637
0.509073
0.513555
0.498445
0.505827
0.506788
0.514725
0.510222
0.516901
0.517633
0.502196
0.499665
0.505185
0.505365
0.494884
0.497581
0.507628
0.50047
0.502065
0.499006
0.50382
0.502003
0.504179
0.496294
0.497019
0.506612
0.501164
0.503002
0.505461
0.50285
0.496516
0.50026
0.496551
0.517447
0.506772
0.49576
0.501121
0.501167
0.501442
0.497579
0.495253
0.50277
0.510182
0.509287
0.507548
0.49778
0.495472
0.501026
0.504914
0.495502
0.49615
0.503037
0.502041
0.498375
0.498535
0.502996
0.499969
0.503412
0.506357
0.506939
0.506017
0.498575
0.490407
0.499417
0.512674
0.510112
0.50313
0.500812
0.494646
0.502575
0.506321
0.506516
0.510421
0.502897
0.503624
0.502072
0.497327
0.500551
0.504846
0.496084
0.493982
0.502191
0.502714
0.498425
0.498758
0.502156
0.501131
0.497942
0.494571
0.490641
0.488934
0.493666
0.493255
0.504753
0.50111
0.497771
0.493568
0.485031
0.497955
0.492944
0.498457
0.492208
0.512146
0.507506
0.499559
0.50683
0.519504
0.511847
0.509709
0.511957
0.512329
0.508275
0.511179
0.516566
0.516501
0.509943
0.508819
0.501555
0.51344
0.518343
0.52075
0.506485
0.511107
0.51375
0.511848
0.50933
0.502931
0.506825
0.517368
0.516853
0.521166
0.510811
0.498642
0.503566
0.508788
0.513745
0.511091
0.518042
0.517852
0.510349
0.510052
0.512561
0.518051
0.51945
0.51624
0.520452
0.506543
0.501992
0.503766
0.501936
0.508406
0.509956
0.510066
0.508243
0.506389
0.51416
0.521644
0.506163
0.504633
0.508726
0.502511
0.514895
0.513815
0.507732
)
;

boundaryField
{
    sides
    {
        type            symmetry;
    }
    empty
    {
        type            empty;
    }
}


// ************************************************************************* //
