/*--------------------------------*- C++ -*----------------------------------*\
  =========                 |
  \\      /  F ield         | OpenFOAM: The Open Source CFD Toolbox
   \\    /   O peration     | Website:  https://openfoam.org
    \\  /    A nd           | Version:  7
     \\/     M anipulation  |
\*---------------------------------------------------------------------------*/
FoamFile
{
    version     2.0;
    format      ascii;
    class       volScalarField;
    location    "0.003";
    object      rhoMMean;
}
// * * * * * * * * * * * * * * * * * * * * * * * * * * * * * * * * * * * * * //

dimensions      [1 -3 0 0 0 0 0];

internalField   nonuniform List<scalar> 
1000
(
2.02267e-05
1.98691e-05
1.92735e-05
1.93595e-05
1.90964e-05
1.86992e-05
1.96218e-05
1.88e-05
2.10312e-05
1.99876e-05
2.01996e-05
2.0665e-05
1.9506e-05
1.89364e-05
1.99768e-05
1.98369e-05
1.98586e-05
2.10726e-05
2.05402e-05
2.06975e-05
2.02686e-05
2.08285e-05
2.00361e-05
2.05375e-05
2.02996e-05
2.05805e-05
2.08665e-05
2.05321e-05
1.9425e-05
1.88697e-05
1.8562e-05
1.85167e-05
1.77843e-05
1.80416e-05
1.83927e-05
1.70453e-05
1.68043e-05
1.81803e-05
1.7882e-05
1.86461e-05
1.92498e-05
1.80773e-05
1.8309e-05
1.86019e-05
1.84903e-05
1.86853e-05
1.95467e-05
1.95036e-05
1.91092e-05
2.01093e-05
2.03492e-05
1.9654e-05
2.0732e-05
2.08707e-05
2.05301e-05
2.13749e-05
2.10544e-05
2.01101e-05
2.02275e-05
2.04999e-05
2.0062e-05
1.94882e-05
1.93909e-05
1.88651e-05
1.886e-05
1.91286e-05
1.92417e-05
1.98749e-05
1.99167e-05
1.96121e-05
1.95866e-05
1.96993e-05
1.92506e-05
1.92495e-05
1.98764e-05
2.0567e-05
2.0603e-05
2.04364e-05
2.04615e-05
2.08192e-05
2.13016e-05
2.10017e-05
2.24161e-05
2.09661e-05
1.98582e-05
1.95664e-05
2.03856e-05
1.97462e-05
1.86996e-05
1.87837e-05
1.97482e-05
1.87961e-05
1.79509e-05
1.77332e-05
1.82605e-05
1.88321e-05
1.89759e-05
1.82915e-05
1.77506e-05
1.89778e-05
2.00117e-05
1.79471e-05
1.90239e-05
1.8531e-05
2.02291e-05
2.06255e-05
2.02387e-05
2.08056e-05
2.17853e-05
2.11021e-05
2.25048e-05
2.11246e-05
2.02701e-05
2.01589e-05
2.02093e-05
2.02876e-05
1.96036e-05
2.03488e-05
2.02384e-05
2.19883e-05
2.04127e-05
2.0956e-05
2.20147e-05
2.09684e-05
2.12513e-05
2.11281e-05
2.17178e-05
2.01764e-05
2.01802e-05
2.06468e-05
1.91444e-05
2.05666e-05
1.96164e-05
1.89445e-05
1.92657e-05
1.98633e-05
2.14497e-05
2.09951e-05
2.16535e-05
2.02775e-05
2.12753e-05
2.01628e-05
2.04209e-05
1.85407e-05
1.85415e-05
1.84268e-05
1.82757e-05
1.85458e-05
1.92522e-05
1.97396e-05
1.93161e-05
1.90747e-05
1.92014e-05
1.88437e-05
1.9809e-05
1.85667e-05
1.94707e-05
1.88871e-05
1.85376e-05
1.77793e-05
1.78777e-05
1.74483e-05
1.8366e-05
1.88619e-05
2.02221e-05
2.08518e-05
2.04139e-05
1.91223e-05
1.9499e-05
2.05406e-05
1.98261e-05
2.051e-05
2.11695e-05
2.17128e-05
2.08119e-05
2.11691e-05
2.00465e-05
1.9344e-05
1.93052e-05
2.0186e-05
2.01632e-05
1.97792e-05
1.96412e-05
1.85616e-05
1.84047e-05
1.87039e-05
1.93014e-05
1.85489e-05
1.95796e-05
1.95432e-05
1.90127e-05
1.86081e-05
1.80501e-05
1.85981e-05
1.9399e-05
2.01647e-05
1.91793e-05
1.99625e-05
1.97125e-05
2.03255e-05
1.91828e-05
1.90383e-05
1.88782e-05
1.93723e-05
1.94773e-05
1.91557e-05
1.8681e-05
1.8884e-05
1.83226e-05
1.87399e-05
1.95428e-05
1.90952e-05
1.9697e-05
2.08704e-05
1.99962e-05
1.97733e-05
1.89294e-05
1.99148e-05
1.93285e-05
1.94506e-05
1.96056e-05
1.90018e-05
1.80226e-05
1.96017e-05
1.92146e-05
1.92487e-05
2.05824e-05
1.98819e-05
2.10188e-05
2.10684e-05
2.12772e-05
2.0832e-05
2.03372e-05
1.99024e-05
1.9914e-05
2.01163e-05
1.86062e-05
1.96156e-05
1.91727e-05
1.97052e-05
1.91983e-05
1.91417e-05
1.97113e-05
1.94076e-05
2.03713e-05
1.95432e-05
1.97536e-05
2.03593e-05
2.04232e-05
1.96924e-05
1.98338e-05
2.01853e-05
1.92464e-05
1.91739e-05
1.91018e-05
1.89387e-05
1.99043e-05
2.01953e-05
2.07258e-05
1.94963e-05
1.95893e-05
1.92979e-05
1.97377e-05
2.03403e-05
1.85066e-05
2.01771e-05
1.896e-05
1.9561e-05
2.02775e-05
1.83535e-05
1.80428e-05
1.78847e-05
1.8693e-05
1.88054e-05
1.90914e-05
1.82923e-05
1.75072e-05
1.86105e-05
1.84481e-05
1.83086e-05
1.85124e-05
1.74658e-05
1.81028e-05
1.82896e-05
1.82323e-05
1.803e-05
1.88561e-05
1.91096e-05
1.98078e-05
1.86856e-05
1.88864e-05
2.00946e-05
2.06592e-05
2.06266e-05
1.94157e-05
1.98605e-05
2.00872e-05
2.05732e-05
2.04445e-05
2.0045e-05
2.00566e-05
2.00217e-05
1.91813e-05
1.9189e-05
1.82454e-05
1.91134e-05
1.85427e-05
1.91766e-05
1.96354e-05
1.91146e-05
2.01764e-05
2.00221e-05
2.08212e-05
2.02023e-05
1.97067e-05
2.02616e-05
1.88682e-05
2.09583e-05
2.0596e-05
2.06863e-05
2.08506e-05
2.04321e-05
2.02852e-05
2.06731e-05
2.10847e-05
2.05429e-05
2.06197e-05
2.0422e-05
1.94215e-05
2.00919e-05
2.00977e-05
1.97505e-05
1.96164e-05
1.8524e-05
1.84334e-05
1.94169e-05
1.91065e-05
1.85706e-05
1.92227e-05
1.90964e-05
1.88794e-05
1.89305e-05
1.81741e-05
2.00427e-05
1.98245e-05
1.96583e-05
2.05638e-05
2.02434e-05
2.00101e-05
2.06789e-05
2.00442e-05
1.92723e-05
1.93192e-05
1.86407e-05
1.85128e-05
1.82439e-05
1.99586e-05
2.00636e-05
2.0076e-05
2.0319e-05
1.97571e-05
1.99911e-05
1.90658e-05
1.95591e-05
1.97989e-05
1.97261e-05
1.9325e-05
1.89208e-05
1.92731e-05
2.01938e-05
1.98338e-05
1.97183e-05
1.95955e-05
1.89627e-05
1.87232e-05
1.82272e-05
1.85117e-05
2.00469e-05
1.95908e-05
1.89832e-05
1.83105e-05
1.79254e-05
1.89747e-05
2.01825e-05
1.95804e-05
1.89681e-05
1.92828e-05
1.95858e-05
2.01992e-05
1.87887e-05
1.85543e-05
1.86108e-05
1.91111e-05
1.95746e-05
1.95102e-05
1.99024e-05
2.0894e-05
2.02535e-05
2.004e-05
1.95277e-05
1.94715e-05
1.9058e-05
1.93064e-05
1.94595e-05
1.94157e-05
1.93614e-05
1.85663e-05
1.96904e-05
1.88747e-05
1.79734e-05
1.8142e-05
1.82656e-05
1.86349e-05
1.87155e-05
1.84841e-05
1.83183e-05
1.96191e-05
1.75735e-05
1.78874e-05
1.89635e-05
1.88496e-05
1.85492e-05
1.78517e-05
1.82265e-05
1.83105e-05
1.78138e-05
1.67295e-05
1.69783e-05
1.75786e-05
1.7589e-05
1.69217e-05
1.75402e-05
1.7577e-05
1.78944e-05
1.81354e-05
1.70581e-05
1.74061e-05
1.7522e-05
1.68481e-05
1.66319e-05
1.67853e-05
1.59166e-05
1.68694e-05
1.63851e-05
1.63583e-05
1.61088e-05
1.60096e-05
1.54473e-05
1.59352e-05
1.6039e-05
1.62828e-05
1.69361e-05
1.58073e-05
1.60537e-05
1.68737e-05
1.60886e-05
1.51803e-05
1.65617e-05
1.68222e-05
1.71647e-05
1.58026e-05
1.51547e-05
1.49218e-05
1.52504e-05
1.48192e-05
1.47041e-05
1.59049e-05
1.58127e-05
1.49172e-05
1.59177e-05
1.50493e-05
1.374e-05
1.48188e-05
1.40112e-05
1.42433e-05
1.46367e-05
1.46688e-05
1.52245e-05
1.50823e-05
1.45743e-05
1.53427e-05
1.40728e-05
1.39849e-05
1.3986e-05
1.44224e-05
1.3826e-05
1.35497e-05
1.37264e-05
1.34873e-05
1.31014e-05
1.42689e-05
1.37462e-05
1.25581e-05
1.24411e-05
1.32269e-05
1.31428e-05
1.25151e-05
1.22361e-05
1.16707e-05
1.12317e-05
1.10158e-05
1.16742e-05
1.14591e-05
1.12542e-05
1.14642e-05
1.15157e-05
1.16083e-05
1.18222e-05
1.2114e-05
1.1434e-05
1.14471e-05
1.04129e-05
9.7526e-06
1.06791e-05
1.04009e-05
1.0907e-05
1.08124e-05
1.0895e-05
1.05946e-05
1.0564e-05
9.95565e-06
1.02784e-05
9.81383e-06
1.01169e-05
9.70455e-06
1.01002e-05
9.5666e-06
9.17639e-06
9.53986e-06
9.40075e-06
9.35696e-06
9.22638e-06
8.97954e-06
8.87336e-06
9.34185e-06
9.11129e-06
9.25273e-06
9.17794e-06
9.01131e-06
8.75479e-06
9.02798e-06
8.38279e-06
8.38046e-06
8.57537e-06
8.68194e-06
8.46455e-06
9.0179e-06
8.20531e-06
7.83719e-06
8.40216e-06
8.5591e-06
7.70893e-06
7.99606e-06
7.60469e-06
7.99723e-06
7.65468e-06
7.44543e-06
7.08428e-06
6.93547e-06
7.24625e-06
7.99103e-06
7.85153e-06
7.52486e-06
7.19665e-06
7.68684e-06
7.59035e-06
7.0339e-06
7.45085e-06
7.33886e-06
7.30786e-06
6.93044e-06
6.70375e-06
6.80993e-06
6.93703e-06
7.02692e-06
7.1765e-06
7.08854e-06
7.63956e-06
7.6167e-06
7.45046e-06
7.36831e-06
7.59694e-06
7.26136e-06
7.44736e-06
6.99748e-06
6.46389e-06
6.78978e-06
6.76498e-06
6.13645e-06
6.45652e-06
6.5193e-06
6.94051e-06
6.63478e-06
6.64136e-06
6.12211e-06
6.59486e-06
6.40228e-06
6.22829e-06
6.7022e-06
6.5379e-06
6.54643e-06
7.5051e-06
6.80373e-06
6.66887e-06
6.56851e-06
6.91029e-06
6.70918e-06
6.68592e-06
7.63569e-06
7.3129e-06
7.35281e-06
7.20556e-06
7.70001e-06
7.01491e-06
7.77209e-06
7.35514e-06
6.95756e-06
6.34919e-06
6.74986e-06
6.69988e-06
6.97694e-06
6.43056e-06
6.39801e-06
6.6557e-06
6.8293e-06
6.46234e-06
6.65337e-06
6.63013e-06
6.54604e-06
6.78978e-06
6.36159e-06
5.95898e-06
6.51581e-06
6.6681e-06
7.07807e-06
6.96764e-06
7.52874e-06
7.01491e-06
6.75451e-06
6.2899e-06
6.24301e-06
6.20116e-06
6.12444e-06
5.98184e-06
6.18024e-06
6.09111e-06
5.79119e-06
6.4108e-06
6.6588e-06
6.95097e-06
6.59099e-06
6.69445e-06
6.52783e-06
6.98662e-06
7.52913e-06
7.18658e-06
6.73087e-06
6.34957e-06
6.88316e-06
6.17404e-06
6.4356e-06
5.83962e-06
6.24418e-06
6.24456e-06
5.87915e-06
5.56411e-06
6.32555e-06
6.82349e-06
6.2868e-06
5.77879e-06
6.05275e-06
6.26277e-06
5.70788e-06
5.58155e-06
5.73771e-06
5.86287e-06
6.18528e-06
6.06825e-06
5.83381e-06
5.53234e-06
5.50173e-06
4.98674e-06
5.54125e-06
5.80126e-06
5.2328e-06
5.15685e-06
5.34711e-06
5.64859e-06
5.42113e-06
5.56683e-06
5.4932e-06
5.07354e-06
5.79971e-06
5.47383e-06
5.95123e-06
5.5242e-06
5.92332e-06
6.12986e-06
5.55133e-06
5.42849e-06
5.93805e-06
6.22519e-06
5.54513e-06
5.46336e-06
5.37618e-06
5.37346e-06
5.50405e-06
5.52536e-06
6.18179e-06
6.45381e-06
6.16823e-06
6.54797e-06
6.0047e-06
5.90317e-06
5.81444e-06
5.71795e-06
5.68656e-06
5.05416e-06
5.43081e-06
5.60015e-06
5.1212e-06
5.59201e-06
5.64743e-06
5.40756e-06
5.61255e-06
5.9396e-06
5.28589e-06
5.03324e-06
5.4746e-06
5.39633e-06
5.34169e-06
5.19173e-06
5.0065e-06
4.56281e-06
5.56837e-06
5.73655e-06
5.26806e-06
4.88986e-06
4.8763e-06
5.40718e-06
5.26806e-06
5.53156e-06
5.92875e-06
6.44955e-06
6.35694e-06
6.3891e-06
6.41777e-06
5.75205e-06
5.96207e-06
6.01594e-06
6.19186e-06
5.7536e-06
6.09305e-06
5.76987e-06
5.19948e-06
5.27465e-06
5.55055e-06
6.09537e-06
5.35874e-06
5.74469e-06
6.21279e-06
6.08336e-06
5.51064e-06
5.09872e-06
4.81275e-06
5.3537e-06
5.27426e-06
5.71175e-06
5.41958e-06
6.1938e-06
6.04345e-06
5.80165e-06
5.37734e-06
5.60364e-06
5.97486e-06
5.94503e-06
6.52201e-06
6.32206e-06
6.18256e-06
5.73655e-06
5.94774e-06
6.00276e-06
5.16034e-06
5.5738e-06
5.1987e-06
5.17041e-06
5.24365e-06
5.12818e-06
5.673e-06
5.07625e-06
5.3444e-06
5.41028e-06
5.41686e-06
5.78964e-06
5.12469e-06
4.99914e-06
4.87436e-06
5.34595e-06
5.18979e-06
5.18901e-06
5.46608e-06
5.38237e-06
5.72919e-06
5.64704e-06
5.29015e-06
5.0282e-06
5.37966e-06
5.33859e-06
5.4529e-06
4.24429e-06
4.66201e-06
5.12236e-06
5.28008e-06
5.50754e-06
5.47654e-06
5.70167e-06
5.13593e-06
5.42887e-06
4.98984e-06
5.18862e-06
4.8515e-06
4.94062e-06
5.17816e-06
5.24752e-06
5.36494e-06
4.98906e-06
4.99991e-06
5.46879e-06
5.96052e-06
5.60325e-06
5.7536e-06
5.81986e-06
5.1646e-06
5.3661e-06
5.38625e-06
6.16706e-06
5.22699e-06
5.16305e-06
5.67261e-06
5.49514e-06
5.31572e-06
6.15583e-06
6.34415e-06
6.06476e-06
6.04074e-06
5.76561e-06
5.96982e-06
5.70865e-06
5.52575e-06
5.51568e-06
5.60945e-06
5.81947e-06
5.47189e-06
5.49707e-06
5.64123e-06
5.66331e-06
5.71795e-06
5.79545e-06
5.52885e-06
5.09175e-06
5.30371e-06
5.35447e-06
5.59976e-06
5.92255e-06
6.04616e-06
5.72609e-06
5.7133e-06
5.44127e-06
5.54319e-06
5.74081e-06
5.45871e-06
5.26845e-06
5.4529e-06
5.95432e-06
5.68618e-06
5.6358e-06
6.07794e-06
5.43353e-06
5.54861e-06
5.29945e-06
4.92396e-06
5.22505e-06
5.1584e-06
5.35021e-06
5.86326e-06
5.45213e-06
5.74042e-06
5.18126e-06
5.01425e-06
4.78524e-06
5.23164e-06
5.39439e-06
5.14832e-06
5.08013e-06
5.2669e-06
5.90395e-06
5.30332e-06
5.08749e-06
5.44709e-06
5.28008e-06
5.12585e-06
5.08749e-06
5.17467e-06
5.3444e-06
5.46298e-06
5.4157e-06
5.84156e-06
5.10996e-06
5.72764e-06
5.4591e-06
5.70749e-06
5.58116e-06
5.33432e-06
5.59821e-06
4.87901e-06
5.27388e-06
5.60558e-06
5.14639e-06
5.10299e-06
5.53311e-06
5.70013e-06
5.36881e-06
4.96116e-06
5.24326e-06
5.08323e-06
5.13631e-06
5.02781e-06
5.46065e-06
5.58659e-06
5.45561e-06
5.67959e-06
5.74546e-06
5.62224e-06
5.42306e-06
5.66603e-06
6.20736e-06
5.8063e-06
6.23449e-06
6.29959e-06
5.93999e-06
5.76368e-06
5.71214e-06
5.60209e-06
5.0871e-06
5.39671e-06
5.40253e-06
5.456e-06
6.21317e-06
6.01594e-06
5.43856e-06
5.15375e-06
5.56605e-06
5.18669e-06
5.25334e-06
5.76871e-06
5.54319e-06
5.39012e-06
5.37966e-06
5.36145e-06
5.08904e-06
5.08826e-06
5.75128e-06
5.38547e-06
5.48003e-06
5.03595e-06
5.65518e-06
5.84311e-06
5.1677e-06
5.04951e-06
4.79221e-06
4.9135e-06
5.6575e-06
5.54977e-06
5.89155e-06
5.96363e-06
5.78228e-06
5.7133e-06
4.95419e-06
5.18204e-06
6.39724e-06
6.4356e-06
6.33136e-06
5.81173e-06
5.83033e-06
6.10274e-06
6.72196e-06
6.43599e-06
6.727e-06
6.2775e-06
6.16202e-06
6.52163e-06
6.25425e-06
6.63245e-06
6.05701e-06
5.63812e-06
5.85319e-06
6.03376e-06
5.74546e-06
6.11126e-06
5.42733e-06
)
;

boundaryField
{
    sides
    {
        type            symmetry;
    }
    empty
    {
        type            empty;
    }
}


// ************************************************************************* //
