/*--------------------------------*- C++ -*----------------------------------*\
  =========                 |
  \\      /  F ield         | OpenFOAM: The Open Source CFD Toolbox
   \\    /   O peration     | Website:  https://openfoam.org
    \\  /    A nd           | Version:  7
     \\/     M anipulation  |
\*---------------------------------------------------------------------------*/
FoamFile
{
    version     2.0;
    format      ascii;
    class       volScalarField;
    location    "0.003";
    object      rhoMMean;
}
// * * * * * * * * * * * * * * * * * * * * * * * * * * * * * * * * * * * * * //

dimensions      [1 -3 0 0 0 0 0];

internalField   nonuniform List<scalar> 
1000
(
2.8055e-06
1.65966e-06
1.71546e-06
1.79064e-06
3.06009e-06
3.23834e-06
2.25564e-06
2.28974e-06
2.35368e-06
3.58631e-06
2.69622e-06
2.8272e-06
3.99745e-06
2.75706e-06
2.74776e-06
2.6164e-06
2.3498e-06
2.40638e-06
2.60051e-06
2.57029e-06
2.56835e-06
2.9357e-06
4.05402e-06
2.64469e-06
2.53038e-06
2.61291e-06
3.77619e-06
2.59082e-06
2.62647e-06
2.49783e-06
2.43544e-06
3.63359e-06
3.17518e-06
2.24091e-06
2.30369e-06
2.2878e-06
3.44798e-06
2.31027e-06
2.45675e-06
3.6642e-06
2.34709e-06
2.5203e-06
3.85175e-06
2.73807e-06
2.8303e-06
2.86091e-06
2.89385e-06
3.87074e-06
2.90044e-06
3.35188e-06
4.84569e-06
2.63578e-06
3.90135e-06
2.97987e-06
2.98491e-06
4.17802e-06
4.20941e-06
5.20296e-06
3.97188e-06
2.7559e-06
3.00545e-06
4.35705e-06
3.16897e-06
3.1372e-06
3.07016e-06
3.52431e-06
4.94373e-06
3.37009e-06
3.02095e-06
4.16097e-06
2.93105e-06
2.94112e-06
3.09961e-06
3.07714e-06
3.193e-06
3.28445e-06
4.43339e-06
4.39929e-06
3.08101e-06
2.84464e-06
2.6257e-06
2.75009e-06
3.8161e-06
3.82191e-06
4.21058e-06
2.89656e-06
2.7807e-06
2.50712e-06
2.48116e-06
2.48736e-06
2.6784e-06
2.71754e-06
2.82139e-06
3.9525e-06
2.9109e-06
4.04511e-06
3.12596e-06
3.47277e-06
3.33444e-06
4.03581e-06
2.63655e-06
3.17207e-06
3.18215e-06
3.12441e-06
2.82991e-06
2.80395e-06
2.72955e-06
2.6691e-06
3.68125e-06
3.81106e-06
3.33599e-06
3.04226e-06
3.04343e-06
4.16795e-06
3.36195e-06
3.51307e-06
3.44139e-06
3.32901e-06
4.27335e-06
4.18965e-06
3.02948e-06
4.2284e-06
3.12441e-06
3.23524e-06
3.2643e-06
4.35395e-06
4.44424e-06
4.33419e-06
3.20114e-06
3.18874e-06
5.55714e-06
3.61615e-06
3.92072e-06
3.2829e-06
5.39826e-06
3.11201e-06
4.24351e-06
4.23848e-06
3.11085e-06
3.88314e-06
2.93725e-06
3.01514e-06
3.46076e-06
3.534e-06
4.7833e-06
3.72155e-06
3.77619e-06
3.58631e-06
3.39721e-06
3.3945e-06
4.51631e-06
3.22245e-06
3.18331e-06
3.16316e-06
4.25591e-06
5.14096e-06
3.78433e-06
3.87926e-06
4.91466e-06
3.88779e-06
3.37319e-06
4.53336e-06
3.42124e-06
3.41e-06
3.38326e-06
4.46826e-06
4.37216e-06
3.26004e-06
3.46231e-06
3.48827e-06
3.72388e-06
5.16072e-06
3.89593e-06
3.88895e-06
4.85848e-06
3.40458e-06
4.52794e-06
3.46619e-06
3.4689e-06
3.70411e-06
4.62171e-06
4.5756e-06
5.45484e-06
3.0597e-06
3.05427e-06
3.13681e-06
4.37022e-06
3.15541e-06
4.33457e-06
3.17053e-06
3.33715e-06
3.40729e-06
5.76174e-06
4.63683e-06
3.50494e-06
3.50455e-06
4.55157e-06
3.09148e-06
3.17207e-06
3.21548e-06
3.42705e-06
3.49099e-06
4.83019e-06
3.92072e-06
3.83896e-06
3.7789e-06
4.18229e-06
5.1181e-06
6.07716e-06
4.87979e-06
3.4534e-06
3.38171e-06
3.2612e-06
3.30421e-06
4.48183e-06
4.46671e-06
4.51321e-06
4.42021e-06
3.38249e-06
4.52677e-06
3.48518e-06
3.52819e-06
3.72388e-06
3.71729e-06
3.84516e-06
3.77503e-06
3.66575e-06
4.88056e-06
3.68319e-06
4.72479e-06
3.56926e-06
3.34451e-06
3.24764e-06
4.3524e-06
3.22865e-06
3.32475e-06
3.84284e-06
3.95793e-06
4.19662e-06
4.35201e-06
4.33767e-06
3.48944e-06
3.55686e-06
4.67945e-06
3.7169e-06
5.41686e-06
4.22142e-06
4.38185e-06
5.39129e-06
5.17623e-06
3.93158e-06
4.62869e-06
3.38869e-06
3.35071e-06
3.46619e-06
3.55066e-06
3.44604e-06
3.51424e-06
3.37668e-06
3.17827e-06
3.16471e-06
3.25035e-06
3.27515e-06
3.24802e-06
4.39658e-06
3.11899e-06
3.02328e-06
2.95197e-06
2.99654e-06
3.0473e-06
3.12364e-06
3.21819e-06
3.36001e-06
3.35342e-06
3.22594e-06
3.30344e-06
3.42085e-06
3.5061e-06
3.58941e-06
3.65219e-06
3.59057e-06
7.00523e-06
3.4503e-06
3.41233e-06
3.3945e-06
3.36118e-06
3.32901e-06
3.26391e-06
3.17479e-06
4.37604e-06
3.04691e-06
3.05699e-06
3.09031e-06
3.01824e-06
4.10905e-06
2.89656e-06
2.8551e-06
4.28226e-06
4.29699e-06
3.12558e-06
5.37734e-06
3.07869e-06
3.13178e-06
3.18912e-06
4.30629e-06
3.12635e-06
3.19997e-06
3.28639e-06
3.30111e-06
3.27592e-06
3.50068e-06
3.72465e-06
3.7913e-06
3.53361e-06
3.25849e-06
3.27786e-06
3.32591e-06
4.43842e-06
3.34878e-06
3.41078e-06
3.59677e-06
3.84284e-06
3.86996e-06
3.90484e-06
5.07276e-06
3.64637e-06
5.73268e-06
3.53361e-06
5.5087e-06
3.69404e-06
4.80733e-06
3.51191e-06
3.57004e-06
4.82321e-06
3.71302e-06
4.93326e-06
3.7107e-06
3.94475e-06
4.02496e-06
5.29325e-06
3.937e-06
6.33291e-06
4.27722e-06
4.26444e-06
5.31921e-06
4.13618e-06
4.09316e-06
4.31598e-06
4.45741e-06
3.94553e-06
3.67505e-06
3.66343e-06
3.61228e-06
3.47278e-06
4.66782e-06
3.39218e-06
4.55661e-06
3.3294e-06
3.21974e-06
3.2798e-06
3.2736e-06
3.09031e-06
3.17324e-06
4.70192e-06
3.58515e-06
4.80655e-06
4.67092e-06
4.68061e-06
3.60724e-06
3.65761e-06
3.67892e-06
3.57469e-06
3.6394e-06
5.05843e-06
4.25359e-06
4.29931e-06
5.57768e-06
4.27606e-06
3.72891e-06
3.76805e-06
3.74829e-06
3.67118e-06
3.48091e-06
3.54369e-06
3.68358e-06
3.70295e-06
3.74829e-06
3.74248e-06
4.9445e-06
4.91001e-06
4.86932e-06
5.27232e-06
4.23809e-06
3.8409e-06
4.78485e-06
3.62816e-06
4.84724e-06
3.54175e-06
4.66899e-06
4.76625e-06
4.79454e-06
3.54834e-06
3.53749e-06
3.53478e-06
4.80074e-06
3.63553e-06
4.87281e-06
3.4348e-06
3.29142e-06
4.52561e-06
5.79584e-06
5.02045e-06
3.81997e-06
5.05261e-06
3.94165e-06
4.78911e-06
4.71742e-06
4.66473e-06
3.49254e-06
3.66304e-06
4.05713e-06
4.61009e-06
3.3418e-06
3.56035e-06
3.5433e-06
3.44061e-06
3.38171e-06
3.53632e-06
5.38703e-06
3.17362e-06
2.8799e-06
2.75823e-06
2.78186e-06
2.8179e-06
2.76171e-06
3.16704e-06
3.20889e-06
4.42254e-06
4.06798e-06
2.85161e-06
2.95585e-06
3.81029e-06
3.40768e-06
3.12984e-06
3.01088e-06
4.12649e-06
2.86789e-06
3.92421e-06
2.6908e-06
2.73343e-06
3.90213e-06
2.83999e-06
2.92563e-06
3.01359e-06
3.04381e-06
3.00739e-06
3.03722e-06
3.07675e-06
3.06667e-06
4.18461e-06
5.36804e-06
3.10775e-06
3.96839e-06
4.00559e-06
3.33599e-06
2.90005e-06
2.87409e-06
2.93105e-06
2.82759e-06
5.13903e-06
5.18979e-06
4.11486e-06
3.0194e-06
3.11627e-06
3.20036e-06
4.64613e-06
3.69598e-06
3.67892e-06
3.76689e-06
3.73318e-06
3.17285e-06
3.32475e-06
4.51903e-06
4.47059e-06
3.21237e-06
4.32024e-06
3.24919e-06
3.2426e-06
3.224e-06
3.14379e-06
3.10736e-06
3.06086e-06
4.0765e-06
4.08541e-06
3.4503e-06
4.43455e-06
3.25113e-06
5.56683e-06
3.23369e-06
3.33018e-06
3.54601e-06
4.69534e-06
3.57314e-06
3.63359e-06
3.8409e-06
5.19793e-06
3.98699e-06
3.3821e-06
3.29104e-06
3.6735e-06
4.24429e-06
4.68178e-06
4.01101e-06
4.74339e-06
3.59678e-06
4.0765e-06
5.23164e-06
3.50377e-06
3.56229e-06
4.96542e-06
3.92925e-06
3.62894e-06
3.28367e-06
3.31196e-06
3.27786e-06
3.33831e-06
3.41891e-06
3.40225e-06
5.76135e-06
3.30964e-06
3.49525e-06
3.14844e-06
6.56464e-06
4.29466e-06
3.09496e-06
3.01863e-06
2.98491e-06
5.27349e-06
2.85239e-06
3.85059e-06
2.6381e-06
2.72374e-06
4.07301e-06
2.96282e-06
2.96902e-06
3.03141e-06
3.78084e-06
4.04666e-06
4.58916e-06
2.914e-06
2.9078e-06
5.52885e-06
3.95637e-06
3.01707e-06
2.99111e-06
4.17376e-06
4.2811e-06
3.64018e-06
3.72116e-06
3.19416e-06
3.33986e-06
3.49254e-06
3.57159e-06
4.73021e-06
4.743e-06
3.65839e-06
3.71457e-06
5.0034e-06
4.91389e-06
4.52716e-06
4.34e-06
4.38418e-06
5.47344e-06
4.43881e-06
5.57651e-06
4.05906e-06
4.14315e-06
4.4113e-06
4.83522e-06
4.19701e-06
4.06371e-06
3.96025e-06
3.94049e-06
3.9618e-06
3.79595e-06
4.86196e-06
6.17133e-06
4.25824e-06
5.29403e-06
4.01372e-06
4.17376e-06
4.38224e-06
4.51399e-06
4.66395e-06
4.31675e-06
4.21755e-06
4.1757e-06
3.99357e-06
3.68048e-06
3.47587e-06
4.83368e-06
3.61421e-06
3.58786e-06
3.61382e-06
4.85382e-06
3.57585e-06
5.65518e-06
4.58761e-06
3.74635e-06
3.71148e-06
3.75565e-06
4.76896e-06
3.41e-06
3.40186e-06
3.43945e-06
4.67596e-06
3.55337e-06
3.41504e-06
3.2302e-06
3.12635e-06
3.07481e-06
4.2191e-06
2.99383e-06
2.92834e-06
3.03412e-06
5.91015e-06
4.07456e-06
3.83819e-06
3.23097e-06
4.30629e-06
3.18254e-06
3.33754e-06
4.58684e-06
3.46076e-06
4.45354e-06
3.26663e-06
3.29917e-06
3.45573e-06
4.8329e-06
3.68978e-06
3.73007e-06
3.83431e-06
5.08865e-06
4.76082e-06
3.36466e-06
4.49926e-06
3.8502e-06
3.41659e-06
3.15541e-06
3.22477e-06
3.22167e-06
3.19765e-06
3.02328e-06
3.11976e-06
3.35769e-06
3.42356e-06
4.6593e-06
4.68604e-06
3.32514e-06
4.32954e-06
5.46918e-06
3.06745e-06
3.1248e-06
4.35821e-06
3.22245e-06
3.52509e-06
4.79957e-06
3.64638e-06
3.5991e-06
5.59046e-06
3.31312e-06
4.54925e-06
3.46231e-06
3.42279e-06
3.4658e-06
4.712e-06
3.68823e-06
3.72659e-06
3.83586e-06
3.88546e-06
5.2111e-06
4.24429e-06
4.18539e-06
4.0889e-06
3.90251e-06
4.83135e-06
4.85499e-06
3.47278e-06
3.51307e-06
3.52664e-06
3.55454e-06
3.78742e-06
3.91026e-06
4.05402e-06
4.01024e-06
3.84322e-06
4.18074e-06
4.21716e-06
5.24481e-06
4.76702e-06
3.76379e-06
5.37656e-06
5.42849e-06
5.39245e-06
3.91918e-06
6.21317e-06
3.91918e-06
7.44426e-06
4.09161e-06
3.61925e-06
3.60181e-06
3.66149e-06
4.17609e-06
4.27761e-06
3.80951e-06
3.85252e-06
3.91181e-06
4.09587e-06
3.92111e-06
3.85252e-06
3.90445e-06
3.91569e-06
4.79996e-06
4.43881e-06
3.85718e-06
3.91181e-06
3.81649e-06
4.96155e-06
3.71922e-06
4.76083e-06
4.20786e-06
5.23474e-06
4.13307e-06
3.91879e-06
3.88895e-06
3.83121e-06
3.80254e-06
5.22118e-06
4.43377e-06
3.49525e-06
3.65606e-06
3.7324e-06
4.87707e-06
4.46323e-06
4.3896e-06
3.29879e-06
3.47432e-06
3.472e-06
3.78432e-06
5.35796e-06
3.89089e-06
3.60995e-06
3.44023e-06
3.36621e-06
3.40923e-06
3.48169e-06
4.11835e-06
4.22375e-06
5.1801e-06
5.04951e-06
5.01929e-06
4.09277e-06
4.39774e-06
4.41207e-06
5.49436e-06
4.16175e-06
3.71884e-06
3.596e-06
3.57546e-06
4.1602e-06
3.98311e-06
4.23344e-06
4.93869e-06
3.34064e-06
4.37294e-06
3.20036e-06
3.21044e-06
4.44811e-06
4.61861e-06
3.53245e-06
4.93326e-06
3.76108e-06
3.74829e-06
4.26715e-06
4.23576e-06
3.54485e-06
3.5247e-06
3.48944e-06
3.41504e-06
3.3976e-06
5.21226e-06
3.75565e-06
4.31636e-06
3.06009e-06
2.97639e-06
5.35293e-06
2.99266e-06
2.976e-06
4.19701e-06
4.2098e-06
4.11448e-06
3.10387e-06
3.16704e-06
3.36389e-06
3.29143e-06
3.32862e-06
3.14069e-06
3.13022e-06
3.10194e-06
3.03335e-06
2.78651e-06
2.75241e-06
2.73343e-06
3.85989e-06
3.96878e-06
2.78109e-06
5.10105e-06
2.77837e-06
4.04085e-06
4.54886e-06
3.53865e-06
4.82786e-06
4.4671e-06
3.5619e-06
4.99643e-06
5.11306e-06
5.09369e-06
3.91608e-06
3.65141e-06
5.19289e-06
5.22272e-06
4.0486e-06
3.6859e-06
4.76005e-06
4.77904e-06
3.76069e-06
3.64909e-06
4.72401e-06
3.62429e-06
3.98815e-06
4.00907e-06
4.04085e-06
4.83406e-06
3.53439e-06
4.70812e-06
4.71781e-06
4.74842e-06
3.45844e-06
4.60582e-06
5.85978e-06
3.43868e-06
3.30925e-06
3.38288e-06
3.72504e-06
5.0158e-06
4.05364e-06
5.25024e-06
4.04395e-06
3.89438e-06
3.98931e-06
4.15904e-06
5.37114e-06
4.22918e-06
4.8763e-06
4.83716e-06
4.32295e-06
4.42525e-06
4.4113e-06
4.54615e-06
4.64419e-06
5.71911e-06
4.34542e-06
4.28149e-06
4.22375e-06
4.04628e-06
4.02303e-06
4.2935e-06
4.29311e-06
4.09045e-06
4.99178e-06
4.15865e-06
4.06953e-06
3.45727e-06
4.4609e-06
4.28885e-06
3.21238e-06
3.23136e-06
4.42254e-06
3.28174e-06
3.30383e-06
4.42486e-06
3.51966e-06
3.38016e-06
3.86803e-06
3.91879e-06
3.79324e-06
4.87552e-06
3.71806e-06
3.37241e-06
3.26043e-06
3.08528e-06
4.23615e-06
4.25669e-06
3.09922e-06
3.10659e-06
3.06202e-06
4.00597e-06
4.13269e-06
3.12674e-06
3.6921e-06
6.1039e-06
3.68784e-06
6.07794e-06
3.6611e-06
3.131e-06
4.31133e-06
3.10388e-06
3.11434e-06
4.69379e-06
3.34955e-06
2.99925e-06
4.17299e-06
3.05195e-06
3.07985e-06
2.9667e-06
2.87835e-06
2.9171e-06
4.06604e-06
2.96089e-06
4.08851e-06
3.91685e-06
2.76326e-06
3.97575e-06
2.83573e-06
2.86208e-06
2.95081e-06
2.96631e-06
3.05931e-06
3.08063e-06
4.11641e-06
2.78884e-06
3.58709e-06
2.68189e-06
2.5761e-06
2.61834e-06
3.86725e-06
2.74311e-06
3.95444e-06
2.75164e-06
3.85795e-06
4.9631e-06
2.54743e-06
2.45946e-06
2.61097e-06
2.62725e-06
3.81377e-06
2.63345e-06
2.61601e-06
3.75643e-06
2.48271e-06
2.52301e-06
2.55556e-06
2.5885e-06
2.48969e-06
2.44319e-06
2.51333e-06
4.01373e-06
4.01528e-06
5.01541e-06
3.14262e-06
2.852e-06
3.16781e-06
4.17686e-06
3.25268e-06
2.64081e-06
3.14301e-06
4.30435e-06
3.55492e-06
3.49331e-06
2.33469e-06
2.32461e-06
3.44449e-06
3.39993e-06
2.25331e-06
2.39359e-06
2.4552e-06
2.39901e-06
2.36065e-06
3.47743e-06
2.01151e-06
1.81621e-06
1.80924e-06
1.7918e-06
1.94254e-06
1.90805e-06
1.8321e-06
2.82216e-06
1.4973e-06
1.48761e-06
1.54031e-06
)
;

boundaryField
{
    sides
    {
        type            calculated;
        value           nonuniform List<scalar> 2(1.54031e-06 2.8055e-06);
    }
    empty
    {
        type            empty;
    }
}


// ************************************************************************* //
