/*--------------------------------*- C++ -*----------------------------------*\
  =========                 |
  \\      /  F ield         | OpenFOAM: The Open Source CFD Toolbox
   \\    /   O peration     | Website:  https://openfoam.org
    \\  /    A nd           | Version:  7
     \\/     M anipulation  |
\*---------------------------------------------------------------------------*/
FoamFile
{
    version     2.0;
    format      ascii;
    class       volScalarField;
    location    "0.003";
    object      rhoNMean;
}
// * * * * * * * * * * * * * * * * * * * * * * * * * * * * * * * * * * * * * //

dimensions      [0 -3 0 0 0 0 0];

internalField   nonuniform List<scalar> 
500
(
3.03374e+20
3.43193e+20
3.7385e+20
4.00677e+20
4.21471e+20
4.44002e+20
4.56618e+20
4.76612e+20
4.82774e+20
5.02267e+20
5.23885e+20
5.32992e+20
5.38854e+20
5.61672e+20
5.75748e+20
5.75536e+20
5.89721e+20
6.02661e+20
6.14412e+20
6.22602e+20
6.33323e+20
6.46061e+20
6.51238e+20
6.63104e+20
6.62828e+20
6.60491e+20
6.74012e+20
6.84475e+20
6.84659e+20
6.88169e+20
6.90992e+20
6.98431e+20
7.05209e+20
7.08328e+20
7.261e+20
7.19726e+20
7.31908e+20
7.50935e+20
7.5823e+20
7.42531e+20
7.53115e+20
7.601e+20
7.56745e+20
7.6578e+20
7.62375e+20
7.67385e+20
7.66822e+20
7.68871e+20
7.72652e+20
7.68773e+20
7.70852e+20
7.75622e+20
7.90266e+20
7.92241e+20
7.80118e+20
7.76732e+20
7.82368e+20
7.94302e+20
7.93357e+20
7.89996e+20
7.94098e+20
7.9728e+20
7.87627e+20
7.7562e+20
7.68839e+20
7.8273e+20
7.91668e+20
7.9008e+20
7.82015e+20
7.77854e+20
7.74154e+20
7.70197e+20
7.78665e+20
7.68381e+20
7.71492e+20
7.7242e+20
7.88251e+20
7.88204e+20
7.84578e+20
7.90457e+20
7.9112e+20
7.75313e+20
7.74669e+20
7.8121e+20
7.88002e+20
7.92294e+20
7.90841e+20
7.93983e+20
7.90323e+20
7.84625e+20
7.86523e+20
7.88218e+20
7.96484e+20
7.84146e+20
7.74488e+20
7.74083e+20
7.8828e+20
7.93136e+20
7.88043e+20
7.85217e+20
7.9209e+20
7.83815e+20
7.8835e+20
7.93449e+20
7.88616e+20
7.9312e+20
7.95478e+20
7.86071e+20
7.90735e+20
7.95196e+20
7.93074e+20
7.88138e+20
7.95173e+20
7.93591e+20
7.99995e+20
7.93587e+20
8.00365e+20
7.96432e+20
7.7912e+20
7.92658e+20
7.94076e+20
7.79597e+20
7.77582e+20
7.85115e+20
7.85455e+20
7.8875e+20
7.97934e+20
7.9628e+20
7.81835e+20
7.72941e+20
7.59738e+20
7.73851e+20
7.72228e+20
7.70735e+20
7.88032e+20
7.9515e+20
7.89377e+20
7.88427e+20
7.9036e+20
7.74161e+20
7.59773e+20
7.70691e+20
7.70083e+20
7.63903e+20
7.86143e+20
7.88624e+20
7.80481e+20
7.73772e+20
7.86357e+20
7.93659e+20
7.90484e+20
7.81318e+20
7.73794e+20
7.69567e+20
7.73255e+20
7.80121e+20
7.94385e+20
7.93454e+20
7.88525e+20
7.80483e+20
7.81131e+20
7.8857e+20
7.8938e+20
7.7825e+20
7.81886e+20
7.87242e+20
7.83588e+20
7.83326e+20
7.80024e+20
7.88917e+20
7.8776e+20
7.86998e+20
7.88223e+20
7.87182e+20
7.8638e+20
7.84578e+20
7.83603e+20
7.82635e+20
7.76275e+20
7.86872e+20
7.92659e+20
7.8268e+20
7.80451e+20
7.79901e+20
7.72682e+20
7.76097e+20
7.93116e+20
8.03863e+20
7.92286e+20
7.90596e+20
7.92345e+20
7.89109e+20
7.88847e+20
7.81101e+20
7.77983e+20
7.73865e+20
7.67168e+20
7.76515e+20
7.74658e+20
7.75679e+20
7.78172e+20
7.76902e+20
7.67372e+20
7.72364e+20
7.78162e+20
7.8416e+20
7.75533e+20
7.85607e+20
7.8438e+20
7.78101e+20
7.9374e+20
7.8503e+20
7.91811e+20
7.86681e+20
7.76926e+20
7.69759e+20
7.68353e+20
7.79236e+20
7.72023e+20
7.69472e+20
7.71903e+20
7.69942e+20
7.84364e+20
7.93487e+20
7.96126e+20
7.89967e+20
8.01782e+20
7.7763e+20
7.7215e+20
7.81853e+20
7.78053e+20
7.893e+20
7.81313e+20
7.76206e+20
7.72136e+20
7.80393e+20
7.83493e+20
7.95761e+20
7.96858e+20
7.75462e+20
7.76241e+20
7.80308e+20
7.80337e+20
7.70368e+20
7.74208e+20
7.7133e+20
7.77914e+20
7.75237e+20
7.71149e+20
7.72986e+20
7.4642e+20
7.55194e+20
7.71444e+20
7.72067e+20
7.82541e+20
7.91618e+20
7.9508e+20
7.90824e+20
7.84113e+20
7.93622e+20
7.90833e+20
7.79402e+20
7.83829e+20
7.92733e+20
7.8139e+20
7.77905e+20
7.75269e+20
7.74237e+20
7.79639e+20
7.78906e+20
7.78908e+20
7.87445e+20
7.88349e+20
7.78936e+20
7.81539e+20
7.8522e+20
7.71862e+20
7.60942e+20
7.65462e+20
7.73258e+20
7.73459e+20
7.81716e+20
7.87368e+20
7.915e+20
7.81546e+20
7.89418e+20
7.76729e+20
7.71625e+20
7.69636e+20
7.80513e+20
7.74618e+20
7.77423e+20
7.85019e+20
7.90016e+20
7.76623e+20
7.74415e+20
7.81732e+20
7.84838e+20
7.76972e+20
7.75277e+20
7.68323e+20
7.71375e+20
7.7476e+20
7.8119e+20
7.74391e+20
7.84263e+20
7.79912e+20
7.7807e+20
7.761e+20
7.83256e+20
7.83487e+20
7.81808e+20
7.87285e+20
7.708e+20
7.71495e+20
7.78661e+20
7.8673e+20
7.93812e+20
7.91621e+20
7.78465e+20
7.76957e+20
7.86182e+20
7.81002e+20
7.86937e+20
7.87676e+20
7.74966e+20
7.77062e+20
7.7814e+20
7.68634e+20
7.92689e+20
7.91169e+20
7.86584e+20
7.91339e+20
7.78884e+20
7.78896e+20
7.83246e+20
7.72243e+20
7.72694e+20
7.72233e+20
7.75166e+20
7.80767e+20
7.7896e+20
7.79263e+20
7.76635e+20
7.86612e+20
7.92314e+20
7.91048e+20
7.88063e+20
7.77339e+20
7.7846e+20
7.8989e+20
7.84359e+20
7.77302e+20
7.76765e+20
7.81422e+20
7.82432e+20
7.85546e+20
7.73691e+20
7.88136e+20
7.77624e+20
7.76506e+20
7.83635e+20
7.75615e+20
7.8197e+20
7.85557e+20
7.85955e+20
7.88675e+20
7.95758e+20
7.94895e+20
7.91744e+20
7.7894e+20
7.76669e+20
7.85543e+20
7.77789e+20
7.83824e+20
7.77078e+20
7.71462e+20
7.81869e+20
7.74836e+20
7.77981e+20
7.73269e+20
7.8262e+20
7.87157e+20
7.94812e+20
7.97768e+20
7.8687e+20
7.90301e+20
8.01047e+20
7.88373e+20
7.88558e+20
7.88599e+20
7.93284e+20
7.82903e+20
7.79087e+20
7.84603e+20
7.87733e+20
7.8091e+20
7.71103e+20
7.76886e+20
7.76226e+20
7.7373e+20
7.74927e+20
7.73628e+20
7.75349e+20
7.79988e+20
7.92268e+20
7.96583e+20
7.9126e+20
7.88844e+20
7.85082e+20
7.797e+20
7.83714e+20
7.7843e+20
7.79995e+20
7.8404e+20
7.85958e+20
7.77003e+20
7.74597e+20
7.71075e+20
7.77455e+20
7.76684e+20
7.78503e+20
7.70426e+20
7.76324e+20
7.78449e+20
7.739e+20
7.81268e+20
7.98121e+20
8.08208e+20
8.01085e+20
7.99703e+20
8.04142e+20
7.98003e+20
7.92351e+20
7.9808e+20
7.88239e+20
7.86495e+20
7.81483e+20
7.76398e+20
7.799e+20
7.7719e+20
7.82033e+20
7.83837e+20
7.87025e+20
7.8974e+20
7.85314e+20
7.70795e+20
7.69776e+20
7.70511e+20
7.74944e+20
7.86223e+20
7.78569e+20
7.67939e+20
7.72766e+20
7.69885e+20
7.64641e+20
7.7947e+20
7.57757e+20
7.49987e+20
7.52446e+20
7.43545e+20
7.40955e+20
7.32411e+20
7.35516e+20
7.34068e+20
7.23824e+20
7.23982e+20
7.09116e+20
7.01077e+20
7.06802e+20
7.00728e+20
6.94655e+20
6.94298e+20
6.75727e+20
6.70219e+20
6.67205e+20
6.57318e+20
6.39148e+20
6.37252e+20
6.28908e+20
6.22578e+20
6.13003e+20
6.01947e+20
5.98593e+20
5.85219e+20
5.7227e+20
5.56155e+20
5.5322e+20
5.36402e+20
5.15371e+20
5.04445e+20
4.93436e+20
4.79942e+20
4.66262e+20
4.45201e+20
4.24985e+20
4.0535e+20
3.79675e+20
3.50977e+20
3.06398e+20
)
;

boundaryField
{
    sides
    {
        type            calculated;
        value           nonuniform List<scalar> 2(3.06398e+20 3.03374e+20);
    }
    empty
    {
        type            empty;
    }
}


// ************************************************************************* //
