/*--------------------------------*- C++ -*----------------------------------*\
  =========                 |
  \\      /  F ield         | OpenFOAM: The Open Source CFD Toolbox
   \\    /   O peration     | Website:  https://openfoam.org
    \\  /    A nd           | Version:  7
     \\/     M anipulation  |
\*---------------------------------------------------------------------------*/
FoamFile
{
    version     2.0;
    format      ascii;
    class       volScalarField;
    location    "0.003";
    object      rhoNMean;
}
// * * * * * * * * * * * * * * * * * * * * * * * * * * * * * * * * * * * * * //

dimensions      [0 -3 0 0 0 0 0];

internalField   nonuniform List<scalar> 
1000
(
1.55703e+20
1.76559e+20
1.88242e+20
1.95937e+20
2.00252e+20
2.07722e+20
2.14592e+20
2.18222e+20
2.24545e+20
2.29813e+20
2.38457e+20
2.41107e+20
2.53866e+20
2.56194e+20
2.54896e+20
2.58978e+20
2.73904e+20
2.70749e+20
2.78166e+20
2.8206e+20
2.83887e+20
2.80883e+20
2.89537e+20
2.96168e+20
3.02063e+20
3.04042e+20
3.06974e+20
3.07171e+20
3.06986e+20
3.08637e+20
3.14022e+20
3.18617e+20
3.21365e+20
3.27734e+20
3.26838e+20
3.36196e+20
3.41769e+20
3.44735e+20
3.42308e+20
3.47301e+20
3.53412e+20
3.51423e+20
3.52411e+20
3.54014e+20
3.57767e+20
3.49654e+20
3.62854e+20
3.52186e+20
3.57727e+20
3.65538e+20
3.67162e+20
3.61694e+20
3.72243e+20
3.69822e+20
3.73964e+20
3.71541e+20
3.75959e+20
3.80369e+20
3.8165e+20
3.81841e+20
3.82654e+20
3.89391e+20
3.84897e+20
3.87423e+20
3.87171e+20
3.85335e+20
3.90894e+20
3.96891e+20
3.98762e+20
3.96778e+20
3.95712e+20
3.96328e+20
3.97776e+20
4.01546e+20
3.9819e+20
3.9785e+20
3.9834e+20
4.00519e+20
4.08828e+20
4.13074e+20
4.17862e+20
4.09367e+20
4.15014e+20
4.16745e+20
4.05466e+20
4.1641e+20
4.16128e+20
4.20923e+20
4.21143e+20
4.22663e+20
4.18913e+20
4.13004e+20
4.20733e+20
4.13298e+20
4.2157e+20
4.254e+20
4.23001e+20
4.27932e+20
4.29553e+20
4.22099e+20
4.17173e+20
4.18298e+20
4.21118e+20
4.16412e+20
4.1733e+20
4.10246e+20
4.16503e+20
4.10856e+20
4.16818e+20
4.16442e+20
4.12899e+20
4.14421e+20
4.22003e+20
4.19575e+20
4.24639e+20
4.20725e+20
4.21679e+20
4.19569e+20
4.19968e+20
4.25257e+20
4.24918e+20
4.26273e+20
4.29944e+20
4.27662e+20
4.31005e+20
4.21383e+20
4.25157e+20
4.18034e+20
4.22945e+20
4.18005e+20
4.18292e+20
4.19268e+20
4.18112e+20
4.23433e+20
4.2528e+20
4.27073e+20
4.22144e+20
4.14631e+20
4.16341e+20
4.14319e+20
4.14122e+20
4.28046e+20
4.20512e+20
4.27295e+20
4.22505e+20
4.24554e+20
4.32083e+20
4.22146e+20
4.24457e+20
4.31726e+20
4.27798e+20
4.20937e+20
4.20929e+20
4.2093e+20
4.35216e+20
4.26753e+20
4.25758e+20
4.24884e+20
4.28726e+20
4.30606e+20
4.27712e+20
4.34133e+20
4.26728e+20
4.19285e+20
4.23433e+20
4.20571e+20
4.07798e+20
4.13151e+20
4.12373e+20
4.08477e+20
4.19255e+20
4.23262e+20
4.18347e+20
4.21345e+20
4.23034e+20
4.22901e+20
4.22642e+20
4.2592e+20
4.35252e+20
4.23938e+20
4.16225e+20
4.20178e+20
4.20947e+20
4.26366e+20
4.22214e+20
4.18988e+20
4.22832e+20
4.21379e+20
4.23062e+20
4.2176e+20
4.21933e+20
4.17994e+20
4.22859e+20
4.2131e+20
4.2076e+20
4.19028e+20
4.18052e+20
4.25913e+20
4.1387e+20
4.15328e+20
4.25273e+20
4.21916e+20
4.14178e+20
4.13819e+20
4.12944e+20
4.11603e+20
4.15239e+20
4.19497e+20
4.23918e+20
4.2071e+20
4.14157e+20
4.1399e+20
4.1577e+20
4.18925e+20
4.11392e+20
4.15808e+20
4.14684e+20
4.09407e+20
4.11528e+20
4.102e+20
4.20728e+20
4.22002e+20
4.21725e+20
4.25163e+20
4.27369e+20
4.27355e+20
4.27173e+20
4.2788e+20
4.23897e+20
4.23023e+20
4.1935e+20
4.18757e+20
4.24004e+20
4.16101e+20
4.25101e+20
4.24787e+20
4.2354e+20
4.25331e+20
4.22221e+20
4.26459e+20
4.29532e+20
4.20008e+20
4.15215e+20
4.2497e+20
4.29803e+20
4.35333e+20
4.29693e+20
4.30681e+20
4.27563e+20
4.19886e+20
4.15821e+20
4.18749e+20
4.19143e+20
4.09025e+20
4.20364e+20
4.20331e+20
4.11326e+20
4.09377e+20
4.12943e+20
4.19927e+20
4.21662e+20
4.1399e+20
4.2408e+20
4.19294e+20
4.33013e+20
4.22129e+20
4.32333e+20
4.26764e+20
4.27978e+20
4.4008e+20
4.37497e+20
4.21686e+20
4.29988e+20
4.20913e+20
4.17606e+20
4.18492e+20
4.18897e+20
4.22381e+20
4.25603e+20
4.30013e+20
4.22324e+20
4.21208e+20
4.22693e+20
4.20512e+20
4.21244e+20
4.2327e+20
4.20064e+20
4.25378e+20
4.18578e+20
4.16551e+20
4.24361e+20
4.21268e+20
4.26989e+20
4.19248e+20
4.23963e+20
4.11145e+20
4.17364e+20
4.24851e+20
4.17442e+20
4.25919e+20
4.24523e+20
4.2241e+20
4.2507e+20
4.24159e+20
4.1876e+20
4.15067e+20
4.07305e+20
4.12721e+20
4.12083e+20
4.14204e+20
4.11188e+20
4.16907e+20
4.18199e+20
4.15011e+20
4.19723e+20
4.09023e+20
4.08767e+20
4.12438e+20
4.07834e+20
4.06174e+20
4.15801e+20
4.09028e+20
4.04516e+20
4.14252e+20
4.18188e+20
4.18574e+20
4.22516e+20
4.25113e+20
4.12303e+20
4.23932e+20
4.20836e+20
4.18518e+20
4.26762e+20
4.2318e+20
4.21784e+20
4.29125e+20
4.23311e+20
4.28065e+20
4.36382e+20
4.2955e+20
4.30719e+20
4.34869e+20
4.31928e+20
4.27905e+20
4.29269e+20
4.28061e+20
4.22047e+20
4.15533e+20
4.20793e+20
4.22357e+20
4.28769e+20
4.2118e+20
4.17773e+20
4.24725e+20
4.3145e+20
4.33324e+20
4.36644e+20
4.31727e+20
4.23058e+20
4.23529e+20
4.20127e+20
4.15529e+20
4.13258e+20
4.16267e+20
4.12572e+20
4.08893e+20
4.10929e+20
4.19562e+20
4.19828e+20
4.27573e+20
4.25782e+20
4.27207e+20
4.23875e+20
4.30548e+20
4.26839e+20
4.28424e+20
4.34019e+20
4.3162e+20
4.34931e+20
4.31161e+20
4.33751e+20
4.35556e+20
4.34158e+20
4.29312e+20
4.25167e+20
4.17797e+20
4.24125e+20
4.28333e+20
4.29969e+20
4.27208e+20
4.27452e+20
4.33359e+20
4.36938e+20
4.25205e+20
4.29057e+20
4.20064e+20
4.27966e+20
4.26393e+20
4.34608e+20
4.27242e+20
4.30753e+20
4.30896e+20
4.26149e+20
4.22173e+20
4.22427e+20
4.27738e+20
4.29728e+20
4.31421e+20
4.20783e+20
4.11178e+20
4.17619e+20
4.06645e+20
4.08211e+20
4.10035e+20
4.17529e+20
4.10539e+20
4.1007e+20
4.17637e+20
4.07087e+20
4.16608e+20
4.13106e+20
4.08475e+20
4.07354e+20
4.07435e+20
4.0623e+20
4.07915e+20
4.04691e+20
3.97618e+20
3.97552e+20
4.01254e+20
4.02888e+20
3.96347e+20
3.95167e+20
3.9511e+20
3.89224e+20
3.92373e+20
3.90804e+20
3.91472e+20
3.88521e+20
3.848e+20
3.79983e+20
3.90269e+20
3.81529e+20
3.87899e+20
3.79205e+20
3.79754e+20
3.81023e+20
3.78829e+20
3.73449e+20
3.67793e+20
3.70419e+20
3.7485e+20
3.72183e+20
3.72423e+20
3.66087e+20
3.63919e+20
3.62788e+20
3.61979e+20
3.67602e+20
3.60261e+20
3.50181e+20
3.52164e+20
3.49572e+20
3.46164e+20
3.4409e+20
3.44287e+20
3.42765e+20
3.36127e+20
3.38829e+20
3.34909e+20
3.33288e+20
3.29218e+20
3.26998e+20
3.27143e+20
3.264e+20
3.17718e+20
3.12297e+20
3.0895e+20
3.17606e+20
3.10413e+20
3.08702e+20
3.03856e+20
3.01845e+20
3.03047e+20
2.96607e+20
2.94237e+20
2.99147e+20
2.92398e+20
2.93178e+20
2.86795e+20
2.83375e+20
2.80976e+20
2.79023e+20
2.76251e+20
2.7471e+20
2.76558e+20
2.74626e+20
2.68884e+20
2.6133e+20
2.60277e+20
2.58197e+20
2.53312e+20
2.48972e+20
2.41933e+20
2.48939e+20
2.41815e+20
2.41947e+20
2.41399e+20
2.37539e+20
2.42183e+20
2.42159e+20
2.40038e+20
2.33539e+20
2.34563e+20
2.2665e+20
2.28723e+20
2.27887e+20
2.21168e+20
2.19941e+20
2.16626e+20
2.14838e+20
2.16418e+20
2.13798e+20
2.10346e+20
2.06051e+20
2.03797e+20
2.00403e+20
1.98501e+20
1.97972e+20
1.93592e+20
1.9472e+20
1.95492e+20
1.94788e+20
1.92224e+20
1.92434e+20
1.93169e+20
1.91596e+20
1.87115e+20
1.82449e+20
1.83335e+20
1.79692e+20
1.7693e+20
1.78948e+20
1.80367e+20
1.76183e+20
1.74058e+20
1.72406e+20
1.7185e+20
1.73909e+20
1.70573e+20
1.71932e+20
1.69085e+20
1.64979e+20
1.62277e+20
1.63363e+20
1.59495e+20
1.60263e+20
1.62613e+20
1.60542e+20
1.62898e+20
1.64691e+20
1.65487e+20
1.6286e+20
1.66211e+20
1.5777e+20
1.6065e+20
1.68382e+20
1.67143e+20
1.571e+20
1.58608e+20
1.60922e+20
1.55157e+20
1.54666e+20
1.52763e+20
1.47232e+20
1.5062e+20
1.51334e+20
1.46979e+20
1.45757e+20
1.46748e+20
1.48971e+20
1.43108e+20
1.40935e+20
1.43776e+20
1.40276e+20
1.42699e+20
1.46157e+20
1.4244e+20
1.44013e+20
1.44967e+20
1.43671e+20
1.44673e+20
1.4608e+20
1.42854e+20
1.41282e+20
1.40582e+20
1.41747e+20
1.41912e+20
1.4027e+20
1.40524e+20
1.3891e+20
1.39718e+20
1.37662e+20
1.43526e+20
1.40547e+20
1.40682e+20
1.38614e+20
1.38162e+20
1.34146e+20
1.30444e+20
1.3529e+20
1.37729e+20
1.37063e+20
1.38787e+20
1.32231e+20
1.31151e+20
1.31483e+20
1.34727e+20
1.31866e+20
1.30608e+20
1.29627e+20
1.36552e+20
1.39952e+20
1.33895e+20
1.3778e+20
1.34664e+20
1.32525e+20
1.30688e+20
1.2447e+20
1.27396e+20
1.24603e+20
1.26118e+20
1.20338e+20
1.23526e+20
1.22927e+20
1.22207e+20
1.22013e+20
1.20046e+20
1.24485e+20
1.22723e+20
1.2546e+20
1.23698e+20
1.2584e+20
1.28286e+20
1.22802e+20
1.26361e+20
1.28284e+20
1.26474e+20
1.23709e+20
1.20667e+20
1.23028e+20
1.25615e+20
1.24283e+20
1.21211e+20
1.23723e+20
1.26713e+20
1.2411e+20
1.21611e+20
1.21825e+20
1.22197e+20
1.21352e+20
1.21321e+20
1.21393e+20
1.21472e+20
1.21781e+20
1.25452e+20
1.23972e+20
1.23919e+20
1.21582e+20
1.21556e+20
1.21175e+20
1.19385e+20
1.22955e+20
1.24266e+20
1.23172e+20
1.25791e+20
1.22357e+20
1.20694e+20
1.22799e+20
1.21775e+20
1.26635e+20
1.25861e+20
1.27649e+20
1.27678e+20
1.29451e+20
1.24568e+20
1.24346e+20
1.28891e+20
1.31282e+20
1.25853e+20
1.26358e+20
1.2376e+20
1.22905e+20
1.22142e+20
1.23578e+20
1.25689e+20
1.23797e+20
1.27518e+20
1.27177e+20
1.25082e+20
1.27965e+20
1.26527e+20
1.27429e+20
1.242e+20
1.22627e+20
1.23972e+20
1.24701e+20
1.24196e+20
1.20106e+20
1.23797e+20
1.26576e+20
1.21379e+20
1.22933e+20
1.24039e+20
1.21779e+20
1.20617e+20
1.21449e+20
1.22667e+20
1.22064e+20
1.20977e+20
1.21821e+20
1.19165e+20
1.18634e+20
1.21632e+20
1.16438e+20
1.17456e+20
1.22007e+20
1.21607e+20
1.21738e+20
1.20165e+20
1.24417e+20
1.21276e+20
1.275e+20
1.26573e+20
1.30704e+20
1.24046e+20
1.27983e+20
1.24324e+20
1.24088e+20
1.26463e+20
1.23564e+20
1.2217e+20
1.25037e+20
1.19111e+20
1.23333e+20
1.21383e+20
1.24557e+20
1.26303e+20
1.22792e+20
1.18583e+20
1.23171e+20
1.23468e+20
1.21296e+20
1.22228e+20
1.20794e+20
1.2318e+20
1.1999e+20
1.20404e+20
1.23433e+20
1.22848e+20
1.21052e+20
1.19832e+20
1.26803e+20
1.27327e+20
1.25709e+20
1.24641e+20
1.21528e+20
1.19873e+20
1.20018e+20
1.16214e+20
1.17154e+20
1.15047e+20
1.20897e+20
1.16083e+20
1.15337e+20
1.1454e+20
1.1727e+20
1.19098e+20
1.18298e+20
1.1736e+20
1.19642e+20
1.18486e+20
1.18553e+20
1.22534e+20
1.25916e+20
1.23848e+20
1.24095e+20
1.23522e+20
1.22236e+20
1.25876e+20
1.23464e+20
1.22977e+20
1.21454e+20
1.21142e+20
1.21145e+20
1.21686e+20
1.2159e+20
1.18136e+20
1.22626e+20
1.19975e+20
1.18739e+20
1.21335e+20
1.24607e+20
1.2006e+20
1.16374e+20
1.1793e+20
1.17258e+20
1.13758e+20
1.19038e+20
1.18861e+20
1.18223e+20
1.19557e+20
1.19883e+20
1.15072e+20
1.18348e+20
1.1729e+20
1.14818e+20
1.13872e+20
1.168e+20
1.19812e+20
1.20091e+20
1.22924e+20
1.24128e+20
1.2279e+20
1.25979e+20
1.28465e+20
1.26246e+20
1.26559e+20
1.24242e+20
1.23406e+20
1.24349e+20
1.27829e+20
1.234e+20
1.21707e+20
1.2119e+20
1.22713e+20
1.248e+20
1.25873e+20
1.25662e+20
1.24669e+20
1.25164e+20
1.20762e+20
1.21089e+20
1.23965e+20
1.18462e+20
1.20817e+20
1.17789e+20
1.18575e+20
1.20237e+20
1.19892e+20
1.18241e+20
1.17776e+20
1.22987e+20
1.19788e+20
1.21214e+20
1.21122e+20
1.23506e+20
1.22115e+20
1.20502e+20
1.22263e+20
1.22038e+20
1.24401e+20
1.22333e+20
1.21802e+20
1.22278e+20
1.22374e+20
1.20952e+20
1.20301e+20
1.21326e+20
1.23499e+20
1.22282e+20
1.23978e+20
1.1908e+20
1.22317e+20
1.20224e+20
1.23894e+20
1.24833e+20
1.27254e+20
1.22612e+20
1.24311e+20
1.27001e+20
1.27908e+20
1.32561e+20
1.27071e+20
1.23932e+20
1.21921e+20
1.18406e+20
1.21428e+20
1.18388e+20
1.18983e+20
1.18639e+20
1.21603e+20
1.25626e+20
1.2572e+20
1.23563e+20
1.2364e+20
1.25344e+20
1.25534e+20
1.25121e+20
1.22825e+20
1.21909e+20
1.25763e+20
1.18612e+20
1.23474e+20
1.25486e+20
1.24272e+20
1.24582e+20
1.28511e+20
1.26016e+20
1.23802e+20
1.22748e+20
1.20886e+20
1.2329e+20
1.20257e+20
1.19505e+20
1.222e+20
1.23878e+20
1.19635e+20
1.19727e+20
1.19751e+20
1.22397e+20
1.25736e+20
1.24953e+20
1.20308e+20
1.20519e+20
1.13647e+20
1.13494e+20
1.14811e+20
1.13588e+20
1.11621e+20
1.12571e+20
1.13215e+20
1.12508e+20
1.14112e+20
1.10731e+20
1.12318e+20
1.11103e+20
1.08157e+20
1.10602e+20
1.12234e+20
1.11176e+20
1.116e+20
1.10808e+20
1.09209e+20
1.08101e+20
1.10099e+20
1.0868e+20
1.07907e+20
1.07739e+20
1.07744e+20
1.07441e+20
1.03309e+20
1.02399e+20
1.04377e+20
1.0198e+20
1.0278e+20
1.00502e+20
9.71017e+19
9.49408e+19
9.46242e+19
9.54467e+19
9.43283e+19
9.628e+19
9.75533e+19
9.278e+19
9.67775e+19
9.95575e+19
9.33075e+19
9.09783e+19
9.19692e+19
8.95325e+19
8.95733e+19
8.80033e+19
8.50567e+19
8.32833e+19
8.11683e+19
7.97842e+19
8.24517e+19
8.21217e+19
8.052e+19
8.06133e+19
8.08333e+19
7.71225e+19
7.19475e+19
7.45625e+19
7.62325e+19
7.32408e+19
7.41058e+19
7.15808e+19
7.004e+19
6.98408e+19
6.54008e+19
6.41825e+19
6.19942e+19
6.12033e+19
5.90783e+19
5.51033e+19
5.31725e+19
5.048e+19
4.64225e+19
)
;

boundaryField
{
    sides
    {
        type            calculated;
        value           nonuniform List<scalar> 2(4.64225e+19 1.55703e+20);
    }
    empty
    {
        type            empty;
    }
}


// ************************************************************************* //
