/*--------------------------------*- C++ -*----------------------------------*\
  =========                 |
  \\      /  F ield         | OpenFOAM: The Open Source CFD Toolbox
   \\    /   O peration     | Website:  https://openfoam.org
    \\  /    A nd           | Version:  7
     \\/     M anipulation  |
\*---------------------------------------------------------------------------*/
FoamFile
{
    version     2.0;
    format      ascii;
    class       volScalarField;
    location    "0.003";
    object      rhoNMean;
}
// * * * * * * * * * * * * * * * * * * * * * * * * * * * * * * * * * * * * * //

dimensions      [0 -3 0 0 0 0 0];

internalField   nonuniform List<scalar> 
1000
(
4.20423e+20
4.26343e+20
4.23051e+20
4.25215e+20
4.18471e+20
4.2257e+20
4.21449e+20
4.18981e+20
4.18591e+20
4.18029e+20
4.16605e+20
4.22139e+20
4.18679e+20
4.17407e+20
4.16112e+20
4.18305e+20
4.19593e+20
4.18996e+20
4.1855e+20
4.1927e+20
4.16113e+20
4.18798e+20
4.18718e+20
4.15113e+20
4.13564e+20
4.15668e+20
4.18921e+20
4.15017e+20
4.19051e+20
4.17341e+20
4.17696e+20
4.19785e+20
4.16634e+20
4.20475e+20
4.24801e+20
4.24234e+20
4.20735e+20
4.22913e+20
4.20913e+20
4.20266e+20
4.17412e+20
4.21624e+20
4.1969e+20
4.21342e+20
4.21243e+20
4.22948e+20
4.1878e+20
4.19808e+20
4.25522e+20
4.24195e+20
4.20574e+20
4.21886e+20
4.20513e+20
4.2196e+20
4.23373e+20
4.19008e+20
4.1921e+20
4.24272e+20
4.22678e+20
4.19304e+20
4.17231e+20
4.15776e+20
4.14792e+20
4.14365e+20
4.1206e+20
4.1191e+20
4.11073e+20
4.12313e+20
4.17089e+20
4.202e+20
4.20803e+20
4.22351e+20
4.223e+20
4.23765e+20
4.26358e+20
4.24636e+20
4.2582e+20
4.20552e+20
4.19628e+20
4.20078e+20
4.15815e+20
4.16407e+20
4.16225e+20
4.11758e+20
4.14859e+20
4.18037e+20
4.2026e+20
4.19881e+20
4.20706e+20
4.21212e+20
4.23229e+20
4.26141e+20
4.25795e+20
4.2233e+20
4.27133e+20
4.28181e+20
4.29269e+20
4.29171e+20
4.27451e+20
4.25431e+20
4.245e+20
4.27591e+20
4.27077e+20
4.2479e+20
4.25593e+20
4.20732e+20
4.21629e+20
4.24509e+20
4.25045e+20
4.2766e+20
4.29689e+20
4.28389e+20
4.2823e+20
4.25145e+20
4.24295e+20
4.21789e+20
4.25843e+20
4.25353e+20
4.23241e+20
4.24685e+20
4.22056e+20
4.22813e+20
4.24022e+20
4.26685e+20
4.2805e+20
4.27842e+20
4.24251e+20
4.23301e+20
4.24173e+20
4.22402e+20
4.23038e+20
4.25816e+20
4.28014e+20
4.27663e+20
4.32315e+20
4.30275e+20
4.31015e+20
4.31675e+20
4.27988e+20
4.26152e+20
4.27605e+20
4.29768e+20
4.29252e+20
4.28173e+20
4.27268e+20
4.29351e+20
4.28349e+20
4.27756e+20
4.24538e+20
4.2404e+20
4.24218e+20
4.20849e+20
4.25249e+20
4.26446e+20
4.25079e+20
4.21709e+20
4.2367e+20
4.22877e+20
4.20213e+20
4.17442e+20
4.18655e+20
4.20341e+20
4.22587e+20
4.2068e+20
4.17688e+20
4.1646e+20
4.21194e+20
4.17884e+20
4.21558e+20
4.22843e+20
4.22042e+20
4.22062e+20
4.26343e+20
4.2423e+20
4.24453e+20
4.20883e+20
4.18329e+20
4.23049e+20
4.26415e+20
4.26446e+20
4.22067e+20
4.26395e+20
4.22269e+20
4.24477e+20
4.28776e+20
4.27485e+20
4.2612e+20
4.27571e+20
4.27147e+20
4.30392e+20
4.30565e+20
4.31778e+20
4.33022e+20
4.33547e+20
4.28379e+20
4.2712e+20
4.27937e+20
4.26623e+20
4.32927e+20
4.33055e+20
4.29217e+20
4.28953e+20
4.29368e+20
4.28669e+20
4.31431e+20
4.2943e+20
4.24967e+20
4.26432e+20
4.25935e+20
4.26737e+20
4.28652e+20
4.27745e+20
4.27718e+20
4.30787e+20
4.27573e+20
4.29102e+20
4.25988e+20
4.24415e+20
4.23325e+20
4.21609e+20
4.2062e+20
4.1885e+20
4.13629e+20
4.15468e+20
4.17092e+20
4.16712e+20
4.15217e+20
4.16911e+20
4.1579e+20
4.15974e+20
4.18725e+20
4.15338e+20
4.15695e+20
4.17946e+20
4.18197e+20
4.15758e+20
4.13522e+20
4.15057e+20
4.14385e+20
4.18669e+20
4.1977e+20
4.16353e+20
4.19064e+20
4.18313e+20
4.17882e+20
4.20713e+20
4.22513e+20
4.22838e+20
4.20225e+20
4.21688e+20
4.20894e+20
4.23555e+20
4.26398e+20
4.2734e+20
4.26304e+20
4.27559e+20
4.2353e+20
4.24483e+20
4.21201e+20
4.23238e+20
4.24134e+20
4.26e+20
4.27659e+20
4.23515e+20
4.19314e+20
4.15859e+20
4.1661e+20
4.18781e+20
4.21284e+20
4.19435e+20
4.19665e+20
4.19542e+20
4.1929e+20
4.26589e+20
4.29022e+20
4.22373e+20
4.26366e+20
4.25955e+20
4.30399e+20
4.27839e+20
4.26952e+20
4.23627e+20
4.19734e+20
4.20581e+20
4.23142e+20
4.25603e+20
4.23948e+20
4.23657e+20
4.23472e+20
4.27526e+20
4.3059e+20
4.27465e+20
4.25439e+20
4.27263e+20
4.28312e+20
4.2922e+20
4.27444e+20
4.24158e+20
4.28119e+20
4.26423e+20
4.28992e+20
4.26381e+20
4.20591e+20
4.24022e+20
4.23549e+20
4.2431e+20
4.25935e+20
4.2278e+20
4.19253e+20
4.21252e+20
4.19745e+20
4.19145e+20
4.1861e+20
4.1721e+20
4.1803e+20
4.15789e+20
4.1779e+20
4.1937e+20
4.14741e+20
4.18882e+20
4.16754e+20
4.19275e+20
4.19011e+20
4.20978e+20
4.21844e+20
4.22091e+20
4.18602e+20
4.16071e+20
4.14291e+20
4.15744e+20
4.17491e+20
4.11087e+20
4.10653e+20
4.11757e+20
4.09799e+20
4.1674e+20
4.17615e+20
4.17935e+20
4.21685e+20
4.20734e+20
4.18816e+20
4.20093e+20
4.18505e+20
4.1642e+20
4.18157e+20
4.20183e+20
4.19087e+20
4.1787e+20
4.18818e+20
4.12438e+20
4.13491e+20
4.11926e+20
4.13543e+20
4.13782e+20
4.13992e+20
4.12016e+20
4.12805e+20
4.14046e+20
4.11566e+20
4.12417e+20
4.09147e+20
4.0343e+20
4.02351e+20
4.02324e+20
4.01791e+20
4.04304e+20
4.02896e+20
4.01766e+20
3.99227e+20
3.99778e+20
3.97494e+20
3.99043e+20
3.99876e+20
4.00657e+20
4.01299e+20
3.97523e+20
4.00082e+20
4.01682e+20
4.00737e+20
3.98926e+20
3.95359e+20
3.94424e+20
3.92245e+20
3.96325e+20
3.94426e+20
3.98106e+20
3.92969e+20
3.92965e+20
3.91747e+20
3.93956e+20
3.90756e+20
3.86397e+20
3.83683e+20
3.83181e+20
3.81206e+20
3.808e+20
3.81628e+20
3.82912e+20
3.82265e+20
3.84533e+20
3.80708e+20
3.77207e+20
3.75917e+20
3.75841e+20
3.78586e+20
3.76739e+20
3.7767e+20
3.75331e+20
3.7492e+20
3.67988e+20
3.69152e+20
3.67681e+20
3.68899e+20
3.70598e+20
3.66274e+20
3.65333e+20
3.62357e+20
3.61818e+20
3.60979e+20
3.55955e+20
3.56288e+20
3.56637e+20
3.52795e+20
3.53193e+20
3.52565e+20
3.50593e+20
3.4704e+20
3.4773e+20
3.50336e+20
3.52183e+20
3.48886e+20
3.44854e+20
3.42443e+20
3.41422e+20
3.40268e+20
3.38132e+20
3.3759e+20
3.37817e+20
3.34907e+20
3.3561e+20
3.337e+20
3.30705e+20
3.29372e+20
3.29289e+20
3.30167e+20
3.25957e+20
3.26168e+20
3.238e+20
3.20905e+20
3.1981e+20
3.19037e+20
3.17731e+20
3.16753e+20
3.15332e+20
3.14055e+20
3.10475e+20
3.0597e+20
3.09036e+20
3.04767e+20
2.99203e+20
2.9791e+20
2.97535e+20
2.93525e+20
2.91552e+20
2.88382e+20
2.88159e+20
2.90748e+20
2.86455e+20
2.84173e+20
2.81541e+20
2.78166e+20
2.75952e+20
2.73901e+20
2.73682e+20
2.6868e+20
2.68262e+20
2.66792e+20
2.6643e+20
2.63708e+20
2.60796e+20
2.57541e+20
2.58917e+20
2.54629e+20
2.5056e+20
2.49517e+20
2.51073e+20
2.48199e+20
2.4714e+20
2.46351e+20
2.42369e+20
2.36536e+20
2.34448e+20
2.31861e+20
2.2938e+20
2.28292e+20
2.25439e+20
2.23148e+20
2.2367e+20
2.176e+20
2.13691e+20
2.10225e+20
2.10071e+20
2.09229e+20
2.06992e+20
2.08667e+20
2.09338e+20
2.08187e+20
2.11258e+20
2.09903e+20
2.10309e+20
2.0715e+20
2.09619e+20
2.07178e+20
2.09207e+20
2.10453e+20
2.0675e+20
2.06683e+20
2.08958e+20
2.06671e+20
2.08622e+20
2.05241e+20
2.06119e+20
2.05061e+20
2.06477e+20
2.05087e+20
2.10037e+20
2.0867e+20
2.05809e+20
2.06691e+20
2.09969e+20
2.07378e+20
2.0772e+20
2.09977e+20
2.08953e+20
2.07371e+20
2.07065e+20
2.05423e+20
2.06314e+20
2.05932e+20
2.05046e+20
2.05899e+20
2.03862e+20
2.03137e+20
2.03371e+20
2.03223e+20
2.04497e+20
2.04812e+20
2.07435e+20
2.05386e+20
2.03349e+20
2.0596e+20
2.07441e+20
2.06482e+20
2.07803e+20
2.09243e+20
2.04578e+20
2.04105e+20
2.0557e+20
2.04008e+20
2.02938e+20
2.04334e+20
2.03966e+20
2.02816e+20
2.04623e+20
2.066e+20
2.02803e+20
2.02829e+20
2.02321e+20
2.00262e+20
2.03701e+20
2.07481e+20
2.09234e+20
2.03936e+20
2.02936e+20
2.01024e+20
2.02551e+20
2.02333e+20
2.02082e+20
2.00003e+20
1.99425e+20
2.03434e+20
2.04584e+20
2.02036e+20
2.01224e+20
2.03927e+20
2.02996e+20
2.04013e+20
2.0372e+20
2.04026e+20
2.00799e+20
2.02272e+20
2.04876e+20
2.04712e+20
2.04989e+20
2.0043e+20
2.01687e+20
2.00818e+20
1.96852e+20
1.96913e+20
1.94844e+20
1.92351e+20
1.91384e+20
1.9456e+20
1.93411e+20
1.94428e+20
1.96888e+20
1.9733e+20
1.95035e+20
1.91892e+20
1.96647e+20
1.96785e+20
1.97368e+20
1.92853e+20
1.91985e+20
1.90828e+20
1.91975e+20
1.93253e+20
1.92842e+20
1.93533e+20
1.92864e+20
1.92687e+20
1.93749e+20
1.9034e+20
1.93085e+20
1.93363e+20
1.92582e+20
1.90258e+20
1.88852e+20
1.88445e+20
1.92985e+20
1.9017e+20
1.86827e+20
1.84636e+20
1.86219e+20
1.82903e+20
1.79307e+20
1.81035e+20
1.78462e+20
1.79491e+20
1.77249e+20
1.77022e+20
1.75527e+20
1.78767e+20
1.74983e+20
1.73108e+20
1.72096e+20
1.74598e+20
1.71657e+20
1.67995e+20
1.69609e+20
1.67721e+20
1.68446e+20
1.65814e+20
1.66286e+20
1.6661e+20
1.64492e+20
1.65508e+20
1.63647e+20
1.61367e+20
1.62766e+20
1.61089e+20
1.60462e+20
1.56668e+20
1.59052e+20
1.57257e+20
1.57451e+20
1.5671e+20
1.55184e+20
1.55293e+20
1.51994e+20
1.51551e+20
1.49457e+20
1.47605e+20
1.49573e+20
1.47038e+20
1.45749e+20
1.44426e+20
1.40756e+20
1.42246e+20
1.44571e+20
1.40069e+20
1.37435e+20
1.36495e+20
1.38739e+20
1.35871e+20
1.33184e+20
1.31732e+20
1.30469e+20
1.31186e+20
1.29708e+20
1.28727e+20
1.27405e+20
1.28043e+20
1.25695e+20
1.26043e+20
1.27615e+20
1.25624e+20
1.26748e+20
1.26948e+20
1.27495e+20
1.25287e+20
1.22106e+20
1.22149e+20
1.19581e+20
1.17899e+20
1.18501e+20
1.20953e+20
1.22322e+20
1.20498e+20
1.19851e+20
1.22503e+20
1.22718e+20
1.20893e+20
1.23894e+20
1.25642e+20
1.24872e+20
1.19525e+20
1.22242e+20
1.20301e+20
1.20897e+20
1.23293e+20
1.21378e+20
1.23026e+20
1.21658e+20
1.19362e+20
1.23272e+20
1.21263e+20
1.2458e+20
1.23015e+20
1.24203e+20
1.23934e+20
1.19739e+20
1.20805e+20
1.22515e+20
1.23074e+20
1.22198e+20
1.26778e+20
1.2759e+20
1.2404e+20
1.2416e+20
1.24593e+20
1.2357e+20
1.22807e+20
1.22078e+20
1.19439e+20
1.21172e+20
1.20412e+20
1.23035e+20
1.21332e+20
1.18453e+20
1.1905e+20
1.15667e+20
1.19525e+20
1.21646e+20
1.21052e+20
1.21231e+20
1.20903e+20
1.24313e+20
1.23512e+20
1.24789e+20
1.23159e+20
1.20947e+20
1.21041e+20
1.22649e+20
1.21758e+20
1.22914e+20
1.22225e+20
1.2085e+20
1.20496e+20
1.21954e+20
1.20415e+20
1.21239e+20
1.22522e+20
1.21038e+20
1.21608e+20
1.22785e+20
1.23224e+20
1.23866e+20
1.20895e+20
1.21659e+20
1.23304e+20
1.22451e+20
1.20634e+20
1.18035e+20
1.1799e+20
1.17159e+20
1.2246e+20
1.20652e+20
1.21713e+20
1.2174e+20
1.23023e+20
1.20279e+20
1.23015e+20
1.22408e+20
1.19669e+20
1.19065e+20
1.21546e+20
1.19195e+20
1.20876e+20
1.2082e+20
1.2035e+20
1.1763e+20
1.1859e+20
1.19804e+20
1.21113e+20
1.18052e+20
1.16373e+20
1.18758e+20
1.18985e+20
1.19437e+20
1.22408e+20
1.24097e+20
1.24575e+20
1.24028e+20
1.23046e+20
1.23994e+20
1.25118e+20
1.22901e+20
1.22781e+20
1.22807e+20
1.23733e+20
1.23155e+20
1.21139e+20
1.18655e+20
1.20899e+20
1.19491e+20
1.18376e+20
1.2087e+20
1.195e+20
1.17652e+20
1.1823e+20
1.19569e+20
1.20655e+20
1.20552e+20
1.21746e+20
1.19928e+20
1.18079e+20
1.19985e+20
1.22749e+20
1.18573e+20
1.21548e+20
1.21533e+20
1.22662e+20
1.21423e+20
1.2318e+20
1.2395e+20
1.22055e+20
1.20428e+20
1.20461e+20
1.19385e+20
1.19081e+20
1.17685e+20
1.21151e+20
1.197e+20
1.22093e+20
1.22207e+20
1.24955e+20
1.23771e+20
1.24351e+20
1.22078e+20
1.23405e+20
1.2395e+20
1.22436e+20
1.22691e+20
1.229e+20
1.22862e+20
1.21359e+20
1.18679e+20
1.20022e+20
1.24565e+20
1.24108e+20
1.20537e+20
1.24499e+20
1.25125e+20
1.23836e+20
1.22723e+20
1.23309e+20
1.22016e+20
1.23841e+20
1.22441e+20
1.23285e+20
1.20273e+20
1.20688e+20
1.21795e+20
1.21669e+20
1.18297e+20
1.18162e+20
1.23313e+20
1.21636e+20
1.21568e+20
1.19716e+20
1.19538e+20
1.20857e+20
1.21495e+20
1.22496e+20
1.21645e+20
1.20707e+20
1.16475e+20
1.1598e+20
1.19275e+20
1.22116e+20
1.21404e+20
1.20555e+20
1.22107e+20
1.21903e+20
1.22794e+20
1.24164e+20
1.23045e+20
1.2263e+20
1.20694e+20
1.22761e+20
1.21777e+20
1.23876e+20
1.25933e+20
1.24666e+20
1.22415e+20
1.20483e+20
1.21976e+20
1.20759e+20
1.19652e+20
1.22281e+20
1.22023e+20
1.20833e+20
1.22091e+20
1.18366e+20
1.1835e+20
1.17757e+20
1.1879e+20
1.19384e+20
1.20244e+20
1.20567e+20
1.18166e+20
1.18166e+20
1.17503e+20
1.20205e+20
1.20428e+20
1.1915e+20
1.17662e+20
1.22121e+20
1.21491e+20
1.20768e+20
1.22293e+20
1.25179e+20
1.24318e+20
1.2205e+20
1.23406e+20
1.25708e+20
1.2513e+20
1.2591e+20
1.2483e+20
1.25843e+20
1.2546e+20
1.26898e+20
1.24997e+20
1.24296e+20
1.24987e+20
1.27842e+20
1.24696e+20
1.25559e+20
1.27229e+20
1.24581e+20
1.21653e+20
1.20335e+20
1.21658e+20
1.24659e+20
1.21841e+20
1.22851e+20
1.20134e+20
1.19017e+20
1.23834e+20
1.23553e+20
1.24382e+20
1.20486e+20
1.2202e+20
1.22941e+20
1.20374e+20
1.21019e+20
1.22817e+20
1.24444e+20
1.26208e+20
1.25854e+20
1.24655e+20
1.22024e+20
1.21325e+20
1.25986e+20
1.23801e+20
1.24156e+20
1.2476e+20
1.2501e+20
1.23494e+20
1.24358e+20
1.24593e+20
1.23283e+20
1.22226e+20
1.19813e+20
1.21555e+20
1.22329e+20
1.24352e+20
1.24578e+20
1.23236e+20
)
;

boundaryField
{
    sides
    {
        type            symmetry;
    }
    empty
    {
        type            empty;
    }
}


// ************************************************************************* //
