/*--------------------------------*- C++ -*----------------------------------*\
  =========                 |
  \\      /  F ield         | OpenFOAM: The Open Source CFD Toolbox
   \\    /   O peration     | Website:  https://openfoam.org
    \\  /    A nd           | Version:  7
     \\/     M anipulation  |
\*---------------------------------------------------------------------------*/
FoamFile
{
    version     2.0;
    format      ascii;
    class       volScalarField;
    location    "0.003";
    object      translationalT;
}
// * * * * * * * * * * * * * * * * * * * * * * * * * * * * * * * * * * * * * //

dimensions      [1 2 -2 0 0 0 0];

internalField   nonuniform List<scalar> 
1000
(
894.217
880.977
883.495
881.731
895.973
889.517
892.221
895.848
891.713
899.468
891.766
890.427
898.613
897.601
902.203
906.38
901.253
899.347
903.511
902.28
910.14
908.362
903.329
905.904
911.224
910.051
904.119
906.745
899.034
898.548
903.48
900.532
899.643
901.173
893.422
891.187
897.085
893.724
900.376
896.938
898.854
895.846
895.032
894.099
892.401
892.074
898.07
900.081
891.023
890.561
893.168
892.143
897.452
889.888
896.119
899.62
897.499
891.21
893.525
903.144
908.465
909.377
904.294
909.991
916.772
919.179
917.246
912.29
903.527
900.342
899.128
894.777
897.244
890.743
888.104
885.198
886.918
894.628
896.12
904.543
910.86
913.53
911.842
919.753
914.732
903.683
901.309
903.717
898.237
895.579
894.782
886.552
888.213
893.22
890.136
885.279
883.788
884.676
893.657
895.145
889.937
885.754
888.363
896.113
891.207
900.84
902.231
890.335
896.78
890.369
886.56
885.315
885.404
900.804
903.025
898.64
896.163
893.619
901.408
901.79
900.759
896.667
896.191
894.45
883.776
889.596
898.093
904.67
899.687
905.175
898.61
896.322
888.832
887.912
882.967
885.462
884.884
886.143
894.699
886.514
887.479
889.077
886.635
889.889
891.496
888.853
893.641
902.661
900.139
902.804
901.994
904.688
891.131
896.271
894.572
904.273
904.115
903.157
901.878
909.639
905.419
912.641
905.494
902.341
908.99
913.135
909.283
909.966
908.004
907.794
901.061
902.496
898.52
899.494
896.163
902.155
907.408
904.997
896.928
900.136
902.608
898.88
897.745
894.698
889.407
896.159
900.59
892.477
889.697
888.751
890.173
886.577
888.525
889.655
891.551
897.766
895.801
893
889.834
889.261
885.074
895.169
895.181
893.451
889.084
888.674
898.273
899.17
898.283
899.897
893.955
895.121
895.543
889.35
894.908
889.883
897.12
898.419
903.351
905.959
912.776
917.592
920.746
914.409
909.294
912.999
916.92
919.326
917.684
918.039
916.331
916.602
919.726
913.69
908.132
922.46
920.008
921.304
917.481
912.17
912.278
916.76
907.582
912.317
905.502
910.1
904.189
907.556
912.679
907.49
908.532
904.601
901.058
893.406
898.185
898.632
906.662
900.896
906.346
905.887
904.697
896.287
896.802
907.38
905.647
912.3
914.988
914.361
912.645
913.72
912.81
914.568
906.923
896.642
899.075
901.772
899.682
900.745
892.022
894.034
894.342
900.91
902.832
905.512
902.069
897.791
896.85
897.206
895.368
896.217
892.509
897.169
901.006
891.241
891.037
891.84
892.32
892.979
890.427
893.992
893.669
897.201
905.027
899.478
896.279
900.313
898.612
897.736
905.374
906.76
902.861
915.077
909.607
906.585
906.5
904.813
902.271
905.211
911.28
912.673
904.007
905.223
900.837
897.259
894.033
902.15
905.372
908.203
907.414
904.73
903.533
907.025
906.592
908.326
911.265
897.48
894.457
891.501
888.535
891.236
886.892
887.911
887.638
892.65
891.421
889.746
888.51
886.745
892.299
899.203
898.027
896.806
898.367
896.281
884.385
885.474
887.765
885.569
888.741
887.501
894.114
896.744
899.775
897.07
898.952
899.815
895.295
897.834
900.153
897.011
899.974
895.287
893.026
891.088
886.528
890.57
885.829
886.494
889.052
887.866
885.888
888.018
891.213
881.458
878.928
876.089
877.702
877.966
882.706
880.166
878.27
884.53
889.374
884.648
887.281
891.376
881.986
883.006
877.756
874.006
881.929
883.883
877.058
871.623
873.595
874.627
869.224
866.109
873.722
877.009
877.164
872.329
863.027
861.447
860.908
862.689
868.897
866.83
864.754
875.48
873.027
871.61
868.141
869.003
864.593
869.813
870.621
864.855
855.392
845.794
849.76
853.944
856.822
855.965
852.213
850.428
847.553
847.761
842.991
841.363
844.638
846.645
843.009
835.805
837.598
838.577
831.272
832.897
832.378
829.8
830.133
827.973
822.895
824.445
820.932
819.785
821.136
821.048
818.454
820.672
817.776
816.282
816.45
810.647
813.528
808.092
798.276
805.482
800.09
801.025
794.417
794.218
787.361
788.609
793.186
787.816
780.353
776.263
777.663
778.825
778.757
769.178
768.345
763.442
763.834
753.915
749.099
747.049
740.556
744.173
739.484
730.217
728.082
724.72
721.055
721.362
713.543
703.364
698.99
690.606
684.305
679.965
681.745
681.076
676.715
678.361
671.12
674.926
669.858
667.636
668.425
665.337
666.754
665.844
661.831
663.627
666.444
663.77
661.202
654.717
654.526
653.526
651.865
647.478
644.49
640.654
642.924
638.876
641.556
639.384
641.869
641.725
634.048
629.917
629.964
625.739
630.553
630.561
632.013
623.877
619.587
616.444
616.028
619.076
618.307
613.507
618.187
611.235
611.594
609.202
607.073
603.475
597.465
595.087
592.807
597.107
596.315
589.923
584.118
581.714
579.752
581.468
580.883
576.741
573.11
575.509
568.455
565.914
566.682
562.713
557.66
558.735
562.344
557.128
555.74
549.124
548.224
547.279
549.379
545.064
539.128
533.459
533.631
537.039
529.525
533.364
531.924
528.146
520.723
526.141
525.976
517.701
514.196
510.272
507.481
509.761
504.852
506.888
500.646
498.083
499.91
498.417
494.521
491.65
488.708
486.205
486.89
487.141
481.841
478.367
474.194
471.251
471.14
469.335
470.347
469.242
465.91
462.72
463.379
461.844
458.082
460.54
460.229
454.447
453.895
451.604
449.975
448.625
445.484
443.5
445.65
445.469
448.166
443.498
442.902
442.901
444.548
442.374
442.593
441.1
436.871
433.125
431.237
426.086
426.143
429.314
421.971
418.605
423.956
421.234
419.09
415.977
413.215
411.076
412.439
413.913
412.603
411.297
410.203
408.552
403.034
402.509
401.396
398.601
400.431
394.91
393.813
393.684
386.419
387.027
380.093
378.61
382.113
377.857
377.803
376.115
371.894
373.735
366.205
358.691
359.834
359.107
353.227
342.705
347.726
349.158
345.31
343.855
341.557
335.527
331.54
332.929
328.592
324.101
320.105
311.197
305.827
303.85
298.695
293.982
291.064
297.852
304.233
300.932
302.034
299.296
300.038
297.355
303.063
297.732
293.596
295.545
296.421
292.058
289.926
295.782
297.926
299.31
301.605
297.224
294.1
294.879
297.723
297.923
297.939
296.374
295.774
292.174
292.803
294.443
293.663
300.609
301.568
294.524
298.028
298.08
292.452
290.396
293.952
297.975
294.993
300.293
300.719
298.269
297.819
297.375
302.927
302.183
305.265
307.592
304.662
309.695
311.379
312.478
310.046
304.228
297.019
297.278
301.538
295.519
291.958
297.267
297.54
300.251
303.07
295.461
297.922
297.322
297.484
296.235
296.988
298.818
299.329
300.346
305.792
297.858
297.919
300.648
306.238
300.233
302.953
297.582
300.414
301.564
298.316
306.517
298.834
302.116
303.991
302.005
301.234
301.897
299.327
302.665
303.238
304.626
303.457
308.562
305.683
301.985
306.417
306.577
310.697
311.207
305.658
313.11
312.935
306.296
307.789
303.471
299.726
296.907
298.104
295.297
295.428
298.367
300.684
296.716
294.438
297.086
295.091
299.954
305.81
308.96
301.39
304.644
306.196
307.233
308.82
308.72
303.892
304.649
298.605
305.312
299.128
304.102
308.317
307.304
303.031
304.472
301.419
302.03
303.934
304.351
303.936
302.475
298.011
300.516
303.752
306.6
301.007
306.238
303.484
302.832
297.842
295.751
292.036
293.767
293.664
294.454
291.714
296.036
296.475
296.943
297.888
296.439
296.331
305.308
299.653
300.874
295.753
297.899
291.536
290.105
293.285
293.664
290.903
298.449
298.385
301.267
298.182
299.769
297.352
297.952
300.575
303.382
304.123
295.466
298.947
296.928
301.619
304.771
299.632
300.111
299.4
301.84
303.634
310.036
306.26
303.27
304.078
304.334
302.283
297.065
293.899
296.442
295.356
298.157
301.474
301.793
297.141
298.62
290.784
287.889
293.311
293.52
296.964
298.202
301.521
301.713
295.424
298.066
300.388
295.401
302.634
300.269
300.733
301.002
299.255
304.04
301.037
305.107
302.532
298.975
300.044
296.473
303.005
302.989
303.752
302.561
299.606
300.178
300.589
298.21
302.483
300.479
295.19
294.208
294.056
299.725
297.276
294.397
290.418
290.627
299.192
300.378
295.035
294.192
294.836
292.471
297.582
303.246
302.715
301.742
300.603
307.249
307.266
307.972
303.456
294.533
298.264
299.163
307.239
307.504
305.087
307.08
305.265
302.275
301.519
298.107
297.098
302.403
300.668
299.685
289.616
293.656
296.592
296.057
295.527
298.087
294.935
298.898
306.469
299.946
305.062
303.129
297.531
299.905
298.732
298.41
)
;

boundaryField
{
    sides
    {
        type            symmetry;
    }
    empty
    {
        type            empty;
    }
}


// ************************************************************************* //
