/*--------------------------------*- C++ -*----------------------------------*\
  =========                 |
  \\      /  F ield         | OpenFOAM: The Open Source CFD Toolbox
   \\    /   O peration     | Website:  https://openfoam.org
    \\  /    A nd           | Version:  7
     \\/     M anipulation  |
\*---------------------------------------------------------------------------*/
FoamFile
{
    version     2.0;
    format      ascii;
    class       volScalarField;
    location    "0.003";
    object      translationalT;
}
// * * * * * * * * * * * * * * * * * * * * * * * * * * * * * * * * * * * * * //

dimensions      [1 2 -2 0 0 0 0];

internalField   nonuniform List<scalar> 
1000
(
147.922
220.282
218.177
232.137
155.003
153.938
220.272
223.071
226.263
159.627
204.726
202.044
150.142
229.194
234.401
244.231
243.629
259.979
270.007
268.307
269.921
241.796
163.626
239.119
254.073
246.9
175.769
250.568
247.175
230.057
229.708
157.879
186.538
239.243
241.951
246.051
168.396
251.292
257.477
183.602
276.146
277.07
192.827
272.863
267.233
262.667
252.998
177.834
237.55
214.784
128
242.433
170.661
225.877
228.271
166.924
165.543
134.695
172.846
246.824
255.873
183.708
252.605
253.148
256.238
250.395
189.83
238.466
235.99
171.38
239.611
246.728
245.811
243.101
232.332
224.202
166.908
169.338
231.031
242.763
256.008
249.253
176.148
176.784
171.64
241.129
253.151
280.344
278.471
281.141
292.004
287.776
277.899
193.254
282.947
212.817
308.264
345.305
343.333
234.412
292.346
278.669
278.256
279.209
293.159
292.141
299.59
303.522
289.465
286.159
275.336
301.28
304.871
234.078
280.806
266.037
268.324
277.07
206.493
209.062
288.67
207.217
284.511
289.386
276.537
202.923
201.438
202.822
275.161
274.219
158.812
277.235
281.156
290.134
167.985
294.003
213.606
212.723
285.364
241.709
296.818
305.967
277.52
276.573
205.29
271.988
271.377
278.108
287.63
286.194
212.383
283.711
286.246
285.444
204.545
176.952
244.028
234.545
188.925
242.126
257.404
195.023
263.592
264.812
263.469
197.245
199.887
264.87
255.339
253.578
241.664
183.211
232.154
234.125
181.495
241.321
181.086
245.698
245.093
225.511
175.143
175.268
145.934
261.743
257.05
255.806
192.362
267.209
194.465
262.699
261.953
259.271
153.329
191.356
256.204
259.031
191.632
267.095
263.366
262.74
268.168
269.706
197.95
245.721
243.437
246.81
234.947
190.484
163.223
203.871
275.048
281.019
287.758
282.175
211.582
213.638
216.499
217.118
289.79
218.083
285.607
284.975
280.896
281.631
283.213
282.001
269.009
207.059
273.466
207.056
267.973
269.637
269.756
200.738
275.937
275.387
247.711
247.993
273.062
269.006
267.441
271.78
274.478
212.462
269.685
216.97
267.849
263.741
203.548
198.073
257.799
206.969
278.923
281.571
277.721
273.396
279.829
278.441
283.038
296.142
293.438
291.271
278.51
274.883
204.329
283.322
285.827
289.69
285.692
281.709
277.032
269.518
274.169
280.269
281.67
280.641
284.625
283.782
278.126
276.34
279.378
141.746
284.744
291.114
291.499
291.308
291.465
295.305
295.645
218.003
303.766
306.285
309.488
310.601
222.004
309.887
312.02
226.976
229.625
313.045
177.539
317.759
314.115
305.495
220.926
301.291
295.822
293.098
292.877
293.939
294.57
289.554
289.313
303.549
303.559
303.433
298.853
221.812
301.016
298.066
288.234
281.538
284.696
283.71
218.818
295.538
233.694
297.091
197.595
278.203
205.925
264.681
263.313
197.738
257.973
196.957
261.652
257.694
257.141
202.377
262.8
163.644
249.972
249.307
195.938
250.671
251.995
268.918
268.885
276.204
282.005
282.011
278.282
273.622
202.288
280.028
219.723
295.394
293.198
290.822
285.663
291.083
285.96
201.563
266.043
200.364
217.342
223.181
289.569
287.621
299.265
293.871
292.816
227.483
289.106
287.913
226.384
283.798
275.12
273.96
273.91
275.022
286.313
284
273.802
272.324
268.263
270.757
207
206.801
207.305
198.914
248.35
256.993
193.639
259.001
198.742
261.592
197.204
193.13
199.528
268.758
270.016
272.045
201.811
264.261
201.365
274.825
280.922
206.319
167.193
198.812
264.326
202.844
261.91
211.347
224.223
220.493
297.751
295.941
288.911
232.016
308.996
296.034
288.657
292.865
295.85
291.21
214.135
287.338
287.356
294.455
285.907
280.8
289.183
258.843
259.125
190.616
205.349
288.625
283.079
229.234
252.066
268.375
269.037
195.284
277.798
201.709
297.951
293.854
207.356
294.476
290.595
283.531
282.076
284.578
283.63
281.743
285.402
208.841
164.191
284.054
230.207
226.133
253.783
281.753
282.645
277.186
282.583
160.638
162.428
276.47
279.163
270.109
261.69
193.763
256.261
258.903
250.392
250.036
275.957
270.701
201.921
202.575
278.243
205.493
279.384
286.493
287.856
293.095
295.449
295.818
294.829
300.299
298.786
202.171
272.559
161.074
278.421
284.31
291.481
218.467
291.339
299.59
283.093
210.924
275.067
300.242
308.091
293.48
262.273
249.218
277.612
228.55
303.032
271.789
219.774
316.053
315.191
229.054
288.914
304.689
327.94
322.94
317.54
305.195
299.486
295.345
170.257
281.127
276.295
279.617
132.353
203.267
280.278
285.742
292.291
162.804
290.906
205.083
298.218
292.049
203.546
281.659
282.599
279.755
260.414
263.547
220.068
288.283
292.539
164.818
255.702
285.271
285.587
206.465
206.8
311.903
317.503
277.482
278.529
269.767
264.623
200.938
200.925
260.296
262.018
200.367
263.831
269.446
269.978
273.674
202.227
251.732
200.51
266.802
268.906
245.553
231.247
268.898
275.509
276.671
275.347
274.94
278.344
211.973
179.771
277.476
218.306
283.173
274.325
270.209
266.854
259.37
254.735
257.044
261.916
269.584
284.61
294.805
220.006
293.678
299.432
299.956
226.91
305.574
189.873
231.625
278.893
276.805
275.797
215.463
292.116
292.331
288.723
212.719
276.439
283.718
293.724
296.703
305.996
223.29
306.583
306.828
303.794
188.945
335.243
345.844
334.96
242.233
327.601
317.962
234.799
303.698
220.76
284.375
277.635
259.151
188.797
246.685
247.508
300.349
242.224
225.077
281.982
235.256
238.339
266.002
285.466
279.588
278.811
276.487
276.962
270.611
253.247
250.011
184.627
185.166
255.873
192.636
157.738
277.092
272.015
196.765
268.523
271.27
204.096
268.827
271.608
157.301
267.168
197.43
261.9
266.122
276.292
207.888
267.372
268.128
267.782
267.924
230.529
309.845
314.089
315.328
311.424
327.082
235.039
273.982
273.265
267.15
255.802
243.003
238.655
234.647
236.468
243.783
229.567
232.445
200.352
195.701
248.796
175.084
173.658
173.376
231.916
146.455
234.393
198.732
325.929
253.171
254.649
253.175
223.787
216.669
242.102
242.608
238.94
235.307
246.031
245.233
242.394
241.277
227.24
236.104
246.7
242.596
245.978
189.002
246.428
217.903
227.985
187.794
230.46
240.574
246.746
247.288
253.624
183.992
211.889
256.817
271.564
275.14
214.415
206.145
211.008
287.302
319.337
317.342
316.118
235.677
278.549
257.605
270.416
278.525
277.571
275.131
266.011
265.918
209.74
207.187
207.077
278.993
282.522
251.598
188.295
244.901
262.784
268.441
266.615
231.495
237.732
225.171
196.68
281.833
206.907
284.782
285.583
209.005
211.267
280.498
204.791
270.128
273.208
248.31
250.347
283.43
274.439
274.214
278.55
281.729
184.345
250.396
218.681
304.906
309.42
174.754
305.489
306.062
220.685
220.265
223.715
302.701
302.997
297.746
302.228
289.519
286.247
284.345
279.607
279.862
301.589
309.243
313.123
218.903
220.315
306.397
167.581
311.858
272.606
223.178
300.113
230.332
244.745
287.544
227.577
232.116
232.414
296.121
283.541
207.158
206.858
264.728
280.962
215.656
215.027
275.441
268.235
204.796
265.251
248.32
248.256
251.464
211.9
286.577
216.469
217.862
215.288
283.403
211.235
171.07
279.038
268.614
263.697
249.431
189.345
243.4
191.417
246.563
253.577
254.314
254.729
200.259
253.858
258.941
253.955
252.612
251.003
253.164
247.593
255.82
207.784
270.141
273.332
270.385
266.469
265.336
257.405
255.855
265.084
207.352
243.42
237.985
272.087
201.549
205.48
281.009
274.962
224.578
264.991
263.946
195.062
260.026
266.452
246.376
243.15
255.421
193.096
251.965
255.961
261.229
269.789
272.054
203.886
278.755
274.215
276.187
196.708
197.052
269.628
261.365
160.105
233.906
144.231
232.975
256.889
184.578
254.027
253.541
171.889
228.388
255.784
183.798
260.293
264.909
274.655
274.321
268.934
189.094
257.858
196.465
180.716
251.461
175.684
244.591
242.701
250.405
245.258
240.183
244.466
179.571
243.038
209.115
260.773
265.634
263.035
186.655
263.584
185.621
265.09
188.009
144.099
265.184
267.848
316.105
320.258
223.362
315.52
313.164
207.265
241.313
236.493
232.446
234.994
235.351
236.237
236.964
169.378
169.319
139.501
208.262
214.601
185.607
191.399
191.317
202.881
183.693
160.774
140.002
143.678
212.246
211.065
144.245
143.858
210.107
214.345
253.262
254.043
251.378
174.358
228.138
215.463
216.102
206.322
193.314
193.555
186.725
133.899
209.852
211.417
210.905
)
;

boundaryField
{
    sides
    {
        type            calculated;
        value           nonuniform List<scalar> 2(210.905 147.922);
    }
    empty
    {
        type            empty;
    }
}


// ************************************************************************* //
