/*--------------------------------*- C++ -*----------------------------------*\
  =========                 |
  \\      /  F ield         | OpenFOAM: The Open Source CFD Toolbox
   \\    /   O peration     | Website:  https://openfoam.org
    \\  /    A nd           | Version:  7
     \\/     M anipulation  |
\*---------------------------------------------------------------------------*/
FoamFile
{
    version     2.0;
    format      ascii;
    class       volScalarField;
    location    "0.003";
    object      translationalT;
}
// * * * * * * * * * * * * * * * * * * * * * * * * * * * * * * * * * * * * * //

dimensions      [1 2 -2 0 0 0 0];

internalField   nonuniform List<scalar> 
1000
(
197.009
209.53
220.37
228.65
231.427
234.576
240.085
244.367
247.301
249.806
249.769
251.681
250.918
257.881
263.501
261.881
259.752
264.455
265.985
263.468
264.882
271.825
272.453
272.485
272.513
271.804
273.133
277.438
280.777
281.731
279.706
277.407
277.454
276.518
276.173
276.586
278.896
274.958
276.288
279.679
275.754
282.359
284.878
289.718
286.402
288.761
284.316
292.907
291.473
289.922
289.127
293.863
288.508
288.898
291.153
291.699
290.729
292.044
290.209
291.899
292.106
290.756
294.745
291.782
293.492
293.685
291.317
289.151
290.922
291.325
293.755
296.094
294.706
293.923
297.166
294.866
298.021
296.679
294.357
289.463
293.42
297.894
296.118
299.624
300.636
296.822
291.27
291.023
291.631
291.38
295.896
301.007
293.648
299.428
296.125
295.927
294.451
293.401
291.985
296.013
299.792
299.637
298.953
306.271
306.115
307.266
304.862
304.189
299.731
301.171
303.176
301.058
299.478
300.624
298.445
299.134
301.356
302.965
300.372
297.52
296.856
296.154
293.108
295.483
293.848
298.432
297.644
300.296
299.408
301.034
304.544
300.121
302.115
300.069
298.437
295.853
301.646
306.969
305.387
306.892
306.064
299.98
299.915
297.344
300.64
298.321
293.9
298.892
298.499
294.525
297.865
302.235
302.259
300.797
298.403
295.706
297.395
300.21
296.487
293.869
291.343
293.325
294.701
302.541
297.118
301.31
306.227
302.26
304.991
307.08
302.164
304.452
302.134
298.127
299.793
302.623
297.342
294.695
292.642
298.46
304.972
301.328
297.901
296.623
300.438
295.37
296.906
298.461
298.726
296.984
299.627
298.608
295.886
297.387
298.609
298.707
299.169
297.932
303.179
301.995
298.044
296.5
302.202
303.418
302.245
303.657
302.908
301.338
298.391
299.123
299.95
303.393
303.813
299.333
304.436
303.821
304.313
304.275
301.028
306.72
300.067
297.974
298.608
293.832
295.928
294.42
291.984
290.678
290.777
293.381
295.774
297.874
294.242
297.436
292.96
294.06
293.441
294.382
293.091
294.992
291.962
294
296.731
294.288
290.782
287.332
289.497
290.76
294.892
298.095
302.603
299.39
299.163
303.866
302.132
296.358
304.522
302.294
300.437
297.624
297.608
300.342
298.054
295.389
292.591
294.346
290.934
291.925
290.812
290.098
286.164
292.996
293.709
299.51
301.398
299.306
303.075
296.902
294.266
292.824
296.222
299.673
296.443
296.465
295.377
295.78
296.219
292.845
299.963
301.543
298.309
297.244
293.791
297.979
297.49
298.145
297.713
297.4
297.077
293.966
293.054
294.809
292.678
294.845
293.547
300.067
306.108
303.94
305.244
301.206
301.746
302.85
301.803
298.815
298.479
304.494
306.401
302.864
305.303
304.328
300.925
304.058
300.99
301.253
303.771
301.684
301.77
297.949
304.637
297.657
295.932
297.528
295.74
296.154
297.474
296.27
295.677
295.314
289.821
294.89
296.084
292.188
293.227
295.602
296.47
298.728
299.746
300.413
299.845
298.584
300.305
301.469
302.521
297.573
294.386
294.869
291.521
293.646
298.091
299.615
301.541
306.428
305.31
307.169
302.737
308.613
305.674
299.1
298.857
298.596
299.849
295.153
295.343
298.46
298.752
295.303
292.765
293.462
294.455
295.089
294.183
295.188
297.315
297.003
297.252
302.204
301.064
294.495
294.355
296.488
299.73
292.602
294.064
296.949
299.027
300.26
295.349
294.471
289.69
292.833
292.953
291.521
296.524
296.619
296.061
296.287
291.289
289.626
295.959
302.749
303.01
305.672
305.66
304.413
297.983
302.843
300.311
299.289
300.873
297.112
295.793
299.782
300.41
297.695
299.649
297.011
296.46
301.926
300.412
297.534
298.008
299.697
298.863
295.796
296.3
294.76
299.193
297.467
294.345
298.828
296.157
292.007
293.394
288.754
291.723
289.76
289.296
289.407
293.509
292.061
289.84
290.384
287.545
286.911
290.152
291.747
290.009
288.789
280.097
283.576
285.4
287.026
285.642
285.007
287.786
283.392
283.79
287.35
276.656
280.294
279.819
281.073
280.73
279.479
277.66
281.011
282.203
281.115
277.224
276.601
272.358
274.881
271.406
270.17
274.232
271.915
270.405
266.863
263.665
262.865
263.144
261.567
264.499
260.665
260.333
257.371
258.924
261.233
258.038
257.299
258.865
256.194
261.616
260.38
259.291
260.841
262.506
261.566
264.385
264.798
268.863
266.195
270.253
271.683
276.51
278.224
277.255
282.422
279.265
284.987
284.811
290.769
290.483
291.58
292.61
296.615
296.971
297.699
301.456
306.015
305.944
310.965
313.809
316.774
313.873
311.099
315.081
319.044
322.354
326.24
327.295
331.344
329.68
333.521
333.826
336.013
332.512
332.187
331.724
337.664
329.398
337.519
342.951
344.684
341.851
346.853
343.624
336.886
339.956
340.721
333.538
338.41
339.504
335.346
336.081
337.251
330.571
330.916
336.68
336.502
333.609
342.51
340.262
345.332
351.602
348.404
346.844
348.163
355.785
351.111
344.884
348.16
353.253
343.84
347.238
344.042
332.915
336.816
337.945
339.504
338.65
323.978
330.401
332.913
333.794
331.318
329.258
329.978
331.219
332.179
322.574
323.198
320.104
319.239
317.561
319.302
318.988
318.646
321.323
320.942
317.386
310.582
314.191
315.323
318.012
318.556
321.535
317.808
319.412
318.629
311.781
303.542
297.52
307.588
296.75
301.483
302.693
308.647
315.508
309.584
312.173
309.782
321.716
313.434
314.159
313.569
311.6
310.095
310.497
314.24
310.38
308.706
291.558
294.917
295.366
292.69
291.971
300.505
304.574
298.851
299.773
297.224
300.592
302.495
295.232
289.899
296.354
299.006
299.21
302.113
304.44
302.804
304.193
294.152
297.785
297.213
296.118
298.297
305.713
304.598
308.854
308.554
304.135
305.879
298.075
290.932
298.617
301.257
303.183
303.224
298.794
296.882
292.618
289.449
287.527
291.314
299.533
292.249
282.597
286.381
293.608
295.801
303.407
300.068
297.091
294.147
297.626
291.133
290.054
297.138
292.708
293.619
299.976
299.234
297.335
301.088
298.719
300.084
304.648
298.238
296.098
308.093
307.09
307.011
308.715
309.955
301.69
303.283
302.267
303.093
304.579
311.893
310.664
308.761
308.911
303.84
298.189
298.491
295.978
298.366
294.585
298.83
293.817
291.975
286.531
286.751
284.378
292.077
297.458
293.542
296.558
292.834
283.904
298.367
295.18
297.463
296.621
296.227
299.484
304.622
307.022
306.451
302.642
302.768
301.583
304.388
305.721
306.995
295.942
304.446
301.54
302.802
291.515
287.939
289.051
289.419
298.5
300.761
303.17
310.344
309.711
308.477
305.03
319.102
317.096
310.598
311.895
307.54
307.988
306.341
300.039
294.436
300.432
303.225
292.782
293.261
295.848
300.623
297.6
293.048
287.213
295.031
292.233
297.643
299.71
298.199
298.173
300.744
299.102
299.163
300.666
306.682
298.656
303.257
311.149
305.646
315.36
318.385
310.858
298.911
301.136
304.151
300.949
307.689
306.209
306.028
313.357
316.704
308.888
303.022
297.049
286.004
285.733
294.08
286.337
279.327
286.697
288.548
291.401
289.233
287.673
277.471
286.35
298.042
303.827
294.996
291.355
298.605
292.692
290.65
283.46
300.806
301.139
296.911
301.151
302.438
299.773
304.323
304.622
298.652
302.608
305.169
298.049
306.549
293.924
294.152
297.21
295.163
300.011
300.884
296.048
287.991
294.984
291.847
295.953
298.6
297.656
301.617
299.733
302.572
303.842
296.461
296.631
295.092
306.346
294.508
294.491
289.721
295.8
290.49
282.86
283.106
277.151
288.255
289.591
296.47
297.954
294.649
298.874
295.164
300.565
299.776
297.325
287.644
288.662
289.546
286.852
280.623
285.457
293.771
295.526
289.414
289.476
286.436
290.631
284.939
285.806
283.654
292.059
293.02
282.493
292.285
285.715
290.014
286.634
288.768
282.113
289.657
290.278
287.636
279.098
286.077
286.474
291.467
290.059
302.098
298.725
296.842
303.624
304.573
297.787
294.785
290.491
296.483
301.08
298.986
294.802
294.978
292.91
285.572
280.704
287.571
291.194
289.567
288.076
287.601
282.583
279.168
270.902
269.391
273.425
283.973
287.635
280.438
274.869
281.614
287.422
284.041
288.735
285.299
289.223
287.354
287.482
279.574
279.517
275.121
268.384
273.874
274.494
272.415
274.545
275.223
274.25
277.145
280.751
271.829
277.867
270.034
270.016
266.848
265.401
265.616
266.639
274.305
264.734
253.025
258.101
259.681
256.152
251.31
251.449
242.677
247.319
247.027
246.377
233.846
230.813
222.765
212.896
201.329
)
;

boundaryField
{
    sides
    {
        type            calculated;
        value           nonuniform List<scalar> 2(201.329 197.009);
    }
    empty
    {
        type            empty;
    }
}


// ************************************************************************* //
