/*--------------------------------*- C++ -*----------------------------------*\
  =========                 |
  \\      /  F ield         | OpenFOAM: The Open Source CFD Toolbox
   \\    /   O peration     | Website:  https://openfoam.org
    \\  /    A nd           | Version:  7
     \\/     M anipulation  |
\*---------------------------------------------------------------------------*/
FoamFile
{
    version     2.0;
    format      ascii;
    class       volVectorField;
    location    "0.003";
    object      UMean;
}
// * * * * * * * * * * * * * * * * * * * * * * * * * * * * * * * * * * * * * //

dimensions      [0 1 -1 0 0 0 0];

internalField   nonuniform List<vector> 
1000
(
(-0.0238633 -6.69527 18.213)
(0.123935 -5.74392 12.4687)
(-0.152845 0.254974 5.83624)
(0.129995 -4.04709 10.002)
(0.0310691 -1.36416 9.75131)
(0.0517945 -2.17927 12.7244)
(0.26231 -2.5606 18.2915)
(0.388497 -2.08741 5.52607)
(0.46188 0.834038 -2.38012)
(0.353244 -0.355056 -2.89213)
(0.436641 3.22184 0.290071)
(0.405783 8.20431 -3.81474)
(0.205441 11.5053 0.103804)
(0.207663 11.4884 5.54362)
(0.264627 9.06481 9.9273)
(0.311234 6.53514 9.57885)
(0.395033 4.50373 15.1548)
(0.355462 -2.0981 13.1327)
(0.424846 -2.901 4.79133)
(0.408391 -1.49049 6.939)
(0.534309 -0.407855 10.8008)
(0.411641 0.584575 6.37735)
(0.621464 -1.24177 10.0505)
(0.443535 -0.832425 15.4368)
(0.464299 3.83286 14.0469)
(0.630068 0.840689 10.8873)
(0.480036 -2.14359 12.393)
(0.44302 4.41851 13.3831)
(0.614622 -0.842884 9.66027)
(0.44826 1.64523 5.59506)
(0.663845 -5.06947 -1.4098)
(0.600546 -1.11929 -0.975293)
(0.349777 -4.94516 -2.85095)
(0.720358 -9.14891 -6.83095)
(0.602297 -14.9018 -1.23009)
(0.613731 -7.3877 -4.08903)
(0.673792 -9.47307 3.06123)
(1.06355 -7.92229 -0.851611)
(1.01512 -11.0081 5.98629)
(0.9415 -10.8425 1.88405)
(1.12509 -14.8198 -2.06719)
(1.1487 -16.5788 0.252965)
(1.2195 -15.3633 -2.82731)
(1.4043 -13.7227 3.84313)
(1.77407 -6.80702 1.99128)
(1.30231 -7.63788 7.95713)
(1.37731 -10.0763 -0.44812)
(1.54172 -10.1409 3.02707)
(1.55321 -13.3926 0.83804)
(1.46129 -9.39506 0.444095)
(1.55096 -0.79585 3.64483)
(1.58935 0.487789 9.74159)
(1.56132 0.966863 1.74943)
(1.58211 -0.80806 1.56788)
(1.72649 -7.44769 6.23682)
(1.38878 -11.3349 6.39285)
(1.02818 -6.30528 5.20635)
(1.09655 -3.75195 -1.83503)
(0.964578 -4.44035 2.44597)
(1.12818 -7.70662 4.18014)
(1.25242 -5.39329 8.13102)
(1.30649 -4.07479 5.86325)
(1.30833 -6.7183 5.38156)
(1.19126 -2.4057 1.8138)
(1.22906 -8.1489 -2.62037)
(1.13911 -14.0223 -5.78315)
(1.07943 -13.3113 -13.6571)
(1.45871 -8.22435 -5.86064)
(1.45941 -6.12564 -7.87829)
(1.66444 -3.60809 -12.2825)
(1.87754 -5.93024 -8.63217)
(1.87405 0.229609 -8.00838)
(1.92195 3.44924 -4.45496)
(2.00206 -0.0310514 -7.16452)
(2.05302 -1.58776 -3.21326)
(1.95163 4.11623 0.0596277)
(1.87691 6.04149 2.41885)
(2.05696 4.78979 -1.50048)
(2.33524 -3.13005 -1.76574)
(2.44446 2.25755 -1.7007)
(2.68239 5.38041 -5.2081)
(2.70273 1.52566 -10.7771)
(2.87291 1.76314 -1.73051)
(2.77407 -2.1401 -3.46166)
(2.96025 -10.6409 -4.5247)
(2.95337 -11.0614 -1.93546)
(3.13077 -16.0479 1.2233)
(2.93163 -17.1482 1.05028)
(2.84482 -13.7698 3.59072)
(2.77993 -9.62119 -0.180341)
(2.42956 -22.8036 0.758765)
(2.31215 -30.1485 -1.25705)
(2.05377 -26.0452 -6.75213)
(1.85668 -16.0638 -16.7441)
(1.88751 -8.86254 -15.0949)
(1.78106 -9.2685 -23.484)
(1.47374 -6.10442 -18.69)
(1.49306 -2.85141 -13.7339)
(1.39366 -0.241284 -10.2577)
(1.17757 0.539285 -16.7568)
(1.15065 -6.24965 -7.73501)
(1.34455 -4.05782 -5.22301)
(1.81696 -6.96118 -2.2913)
(2.04954 1.18798 -6.32987)
(1.95654 10.4527 -4.29048)
(1.78187 7.12918 -7.98939)
(1.73883 4.69017 2.19566)
(1.34036 1.48372 1.1861)
(1.11458 6.02756 -2.74067)
(0.674003 3.39519 -5.71885)
(0.876441 0.481637 -5.28956)
(0.645851 5.19048 -6.63302)
(0.927008 7.92561 -6.22111)
(1.11407 10.8202 -7.74572)
(0.976043 8.00289 -7.73211)
(1.09594 10.3983 -8.38554)
(0.998497 3.38799 -7.04374)
(1.14872 3.08785 -6.68285)
(1.17926 -1.89604 -4.03209)
(1.02746 3.75944 2.34327)
(1.12403 -2.04951 -3.19235)
(1.02826 -2.27382 -2.71007)
(1.20142 -2.30152 -2.00551)
(1.44893 -3.95744 -2.73375)
(1.03244 1.37446 -5.25732)
(1.18816 -2.27226 0.339834)
(0.898285 -6.31024 -5.74338)
(0.655724 -6.34465 -11.7951)
(0.723258 -0.546393 -9.90784)
(0.734139 -1.00095 -3.87017)
(0.708129 0.185836 -1.94609)
(0.749939 -2.10593 -5.35584)
(0.709166 -6.42954 0.657969)
(0.619535 4.40383 0.0367446)
(0.759081 -0.672743 5.26265)
(0.670461 -7.17177 2.45117)
(0.490831 -5.89771 -2.67883)
(0.365088 -0.172384 -0.277098)
(0.202376 -1.00097 1.75385)
(0.32142 1.76899 2.01478)
(0.288244 -0.801951 -2.9129)
(-0.101827 -8.80903 -12.4837)
(-0.142973 -5.19128 -9.78783)
(-0.297578 -5.46433 -10.66)
(-0.310725 -3.89262 -17.8644)
(-0.352272 4.12624 -15.0745)
(-0.521397 -0.270874 -10.1776)
(-0.807576 2.57188 -6.71847)
(-0.544648 -0.324037 -3.47706)
(-0.84252 2.25675 -3.09853)
(-1.18809 0.270214 -5.72654)
(-0.91535 3.01878 -4.33427)
(-1.16166 2.79461 -4.13084)
(-1.13974 8.22228 -6.3019)
(-1.02711 7.06763 -5.98836)
(-0.837891 9.61409 -4.23157)
(-0.60007 3.95452 2.37124)
(-0.314917 4.55256 7.7728)
(-0.182176 10.0438 6.60789)
(0.0555231 14.0341 9.20526)
(-0.0634259 13.6547 14.5714)
(-0.215038 9.8855 11.4658)
(-0.305858 6.06826 9.32737)
(-0.303167 9.52773 7.64189)
(-0.27143 13.6397 14.2789)
(-0.598448 9.48888 11.2376)
(-0.71933 20.063 10.6895)
(-0.88159 19.7641 5.26715)
(-0.781051 24.7855 6.1869)
(-0.93795 18.5123 6.30896)
(-0.522058 11.6773 11.1057)
(-0.279323 9.30837 12.6293)
(0.235091 7.3854 10.5866)
(0.230836 8.09405 6.33931)
(0.0608028 13.8824 2.94139)
(0.170114 9.15822 0.828836)
(0.514685 7.43901 -0.239103)
(0.463082 2.80326 -1.47141)
(0.641505 -1.96616 -0.500343)
(0.486884 -6.22606 -3.14284)
(0.462251 -5.13745 -6.79994)
(0.528197 -6.18151 -7.65987)
(0.482564 -6.13575 -9.1266)
(0.569888 -2.57205 -12.4213)
(0.548728 -8.54234 -3.39904)
(0.459357 -2.89744 1.51609)
(0.534245 -4.2638 4.34722)
(0.549714 4.24505 4.58956)
(0.502141 -3.15739 4.44932)
(0.448919 -2.24885 6.56213)
(0.194447 -1.45352 2.76137)
(-0.0933392 -8.52477 2.66997)
(0.232345 1.2139 4.23157)
(0.104732 -0.552152 4.85284)
(0.481396 5.84527 -2.14828)
(0.325918 3.51753 -0.847563)
(0.323394 6.48073 -3.89414)
(0.144033 5.07092 -4.97283)
(0.291467 -0.963148 -3.43977)
(0.145838 3.1457 -8.1211)
(0.0771367 2.23198 -12.1164)
(0.0587697 -4.49694 -11.3649)
(-0.177907 -3.30664 -6.83144)
(-0.670523 4.65251 -13.056)
(-0.743791 5.35774 -7.27831)
(-0.9485 6.80767 2.89193)
(-0.973471 9.65836 0.039194)
(-1.23789 12.2454 -4.98286)
(-1.30607 7.3222 -7.81682)
(-1.22129 1.5101 -12.7494)
(-1.16486 -6.68569 -5.11794)
(-1.33209 4.22411 0.93306)
(-1.44329 -0.490437 -8.28685)
(-1.38481 -0.862357 -2.26114)
(-1.32517 0.0594733 -0.977026)
(-1.2802 1.00045 5.71355)
(-0.916334 -3.92434 4.01397)
(-1.08657 1.00994 3.13752)
(-1.20279 0.816533 4.00349)
(-1.34219 0.254542 1.88415)
(-1.43082 2.10576 -3.52127)
(-1.33592 8.33341 -9.7052)
(-1.41615 6.60294 -4.57132)
(-1.4625 5.93139 -3.12545)
(-1.00349 6.27684 -1.13371)
(-1.0733 4.37312 0.89871)
(-0.99585 -3.28306 -3.439)
(-0.965966 -4.39858 -8.64845)
(-0.888676 -10.7914 -10.6139)
(-0.823909 0.439657 -7.37579)
(-0.618086 -0.683231 0.591484)
(-0.420363 8.78054 6.37523)
(-0.352493 4.64634 1.5631)
(0.0210531 0.628284 1.6728)
(0.131637 0.985294 -0.691534)
(-0.00707148 -3.50789 -2.1692)
(0.400964 5.19436 5.05546)
(0.688308 5.15087 -1.83227)
(0.847448 5.21613 -10.7029)
(0.803969 4.2669 -4.734)
(0.969108 1.3447 -4.09595)
(1.15343 -2.12901 -17.4621)
(1.01569 3.46785 -11.5141)
(1.05292 -1.32198 -5.22907)
(1.12229 3.95111 1.56327)
(0.972271 0.764573 4.42369)
(0.868587 0.98086 1.71699)
(1.27261 -8.11041 4.53297)
(1.35449 -8.17337 3.49713)
(1.26941 -0.298167 2.93271)
(1.18922 0.322879 -1.35229)
(1.00907 1.7841 -4.20391)
(1.09692 -2.50669 -0.963134)
(1.2473 -1.10759 4.90095)
(1.09711 6.18757 12.0191)
(0.942123 5.30869 16.6122)
(0.662112 5.06937 17.6855)
(0.163646 3.19704 16.2548)
(0.282393 8.31987 16.7823)
(0.307647 5.72002 4.19339)
(0.100958 2.59816 6.45152)
(0.298211 -2.66964 -0.251028)
(0.310015 0.621442 0.872437)
(0.160462 2.47214 -0.641984)
(0.0662924 1.7352 -2.01131)
(-0.0423383 1.23521 -4.33338)
(0.0812445 0.591023 -3.04708)
(0.0327315 6.53869 1.49532)
(0.0799999 11.1165 -1.96614)
(0.098339 12.281 -4.97266)
(0.279183 11.9169 -6.21158)
(-0.035848 12.3532 2.73437)
(0.0541928 11.4245 8.7142)
(0.0463872 14.5814 14.6061)
(-0.0582211 9.78283 8.88076)
(0.114265 11.5318 5.54744)
(0.0780284 14.4754 9.71611)
(-0.0122156 12.6138 13.5671)
(0.0657191 19.3157 10.1026)
(0.0712831 14.9093 16.3656)
(0.0825793 3.75732 12.6301)
(0.29216 6.30429 10.3608)
(0.115574 16.4625 10.8634)
(0.282918 10.1273 3.15827)
(0.542949 5.52609 2.87019)
(0.537937 8.19828 -0.809361)
(0.632136 1.79444 2.91127)
(0.449888 1.49197 6.61293)
(0.603887 -0.991218 11.8401)
(0.626964 0.449507 6.90899)
(0.663029 1.77605 1.22683)
(0.596019 1.5441 8.93604)
(0.520963 2.76381 7.18557)
(0.340166 1.90268 4.09489)
(0.426418 4.78205 1.46959)
(0.308281 2.49316 3.38336)
(0.188725 -2.98261 7)
(0.429021 3.68425 4.45106)
(0.695878 -0.269294 3.60324)
(0.82022 8.22963 0.246026)
(1.09993 4.71142 -4.11828)
(1.07166 -3.93515 2.27233)
(0.948089 -2.26944 7.58971)
(1.24987 5.15122 2.46721)
(1.43192 1.68106 0.296228)
(1.69033 -7.24274 3.77193)
(1.78048 -10.9646 0.862378)
(1.88955 -9.20584 1.28128)
(1.69252 -16.2719 9.14864)
(1.48001 -11.2059 9.25839)
(1.65278 -14.6159 4.91143)
(1.43206 -17.1836 -0.0487901)
(1.799 -22.746 -0.542661)
(1.81597 -25.8532 0.324037)
(2.31166 -23.7065 -1.42208)
(2.17043 -19.1472 -3.09998)
(2.57191 -13.8818 -4.71341)
(2.55611 -8.54706 -0.570602)
(2.85725 -2.09639 -4.73967)
(2.6329 -8.12125 -7.88901)
(2.75209 -6.10662 -8.64727)
(2.67271 -7.91961 1.406)
(2.83046 -7.51853 1.12813)
(2.90418 -1.68358 5.20113)
(3.44019 -2.32557 1.7818)
(3.41609 0.14747 -1.33585)
(3.41884 -5.02726 2.38432)
(3.43963 -3.1769 4.32221)
(4.03426 8.43636 5.25828)
(4.41442 7.28753 12.6883)
(4.45614 9.32595 17.5565)
(4.5981 14.9909 13.9224)
(4.82369 12.9126 18.1165)
(4.96107 8.04295 22.1859)
(5.31823 7.28147 22.9502)
(5.38676 4.38679 29.0315)
(5.94536 6.10057 31.8622)
(6.13184 4.33055 25.0181)
(6.56967 10.4544 22.4431)
(7.05195 9.01616 20.1517)
(7.60462 11.1183 14.5922)
(8.22111 10.4112 16.4743)
(8.44367 3.38239 16.6237)
(8.89332 2.54091 9.59907)
(9.25103 5.08695 5.68192)
(9.78325 15.1489 10.4376)
(10.1104 9.47053 9.21267)
(10.5586 5.69461 3.55233)
(10.9833 7.34394 -0.500691)
(11.3584 3.64609 2.0728)
(11.8136 6.04949 1.40758)
(12.3027 4.42587 5.02906)
(12.6952 -1.90871 0.6469)
(13.0589 -1.74384 3.80293)
(13.8877 -3.18647 5.6163)
(14.3079 -2.84572 7.25658)
(14.7675 0.551371 1.00754)
(15.0577 -7.74812 9.54375)
(15.7979 -3.51323 5.24466)
(16.645 -0.931371 3.97321)
(16.9678 4.55157 5.16074)
(17.9988 -0.372249 10.466)
(18.8725 3.67765 7.20063)
(19.5969 3.09521 -2.44107)
(20.2099 -4.62792 -0.717901)
(20.7647 -2.9737 -1.67243)
(21.1459 -2.79939 -1.68829)
(21.9798 -6.76403 4.4928)
(22.8721 -6.50778 0.479515)
(23.6466 -11.3756 -0.36595)
(24.3769 -18.7263 -2.99249)
(25.4428 -16.7195 -11.876)
(25.9805 -17.7893 -14.3928)
(26.834 -16.2966 -12.2638)
(27.8872 -12.2727 -8.96908)
(29.1318 -14.5897 -13.4133)
(29.9267 -9.38409 -18.24)
(30.4113 -6.58785 -15.3761)
(31.3871 -9.42547 -8.77252)
(32.5455 -4.55865 -10.6595)
(33.5675 -5.75319 -8.0891)
(34.7964 -2.3205 -8.7434)
(35.9768 5.17208 -5.47803)
(36.7882 5.73773 -2.02497)
(37.8252 5.53492 3.52148)
(38.3436 12.211 5.70852)
(40.0748 4.35227 0.0464302)
(40.8667 2.07425 1.58178)
(42.0879 3.67965 5.70283)
(42.8218 -0.797288 6.52258)
(44.2285 -2.72978 8.22717)
(45.9074 3.37255 13.1215)
(47.3638 6.05255 4.74521)
(48.1772 -0.204578 4.42462)
(49.4083 -4.82667 2.26801)
(50.8942 -3.79055 3.91314)
(51.8839 -0.977929 8.90548)
(53.0453 -9.60603 17.4928)
(54.0849 -11.4372 14.0242)
(54.6771 -6.02519 12.0017)
(56.4337 -5.00035 13.4541)
(58.0808 -1.6124 3.81037)
(59.3699 -5.2966 -1.91124)
(60.6113 -13.3838 -4.03382)
(61.2675 -6.09282 1.2427)
(62.9158 -6.7844 -7.99785)
(64.0191 -0.0834962 -5.09288)
(66.0555 -1.58363 2.63136)
(67.1481 -2.15479 0.804386)
(70.2397 -5.69182 -2.49865)
(71.3405 -2.7674 -4.48912)
(73.0954 1.57196 -6.66256)
(74.237 5.1275 -7.92856)
(75.3466 6.0935 -4.37296)
(77.6528 7.56962 -3.51626)
(79.2347 4.735 -6.38329)
(81.2039 1.14793 -5.72016)
(82.7016 1.10329 -10.8934)
(84.2891 2.15991 -13.4274)
(87.0001 -8.59416 0.293222)
(88.4379 -3.7341 -5.32258)
(89.879 1.01814 -0.853601)
(92.3446 1.07302 -1.96098)
(93.7221 -5.24172 -4.92693)
(95.1789 -12.8941 -4.45976)
(97.2197 -11.5833 -3.70916)
(99.87 -5.12375 -0.76838)
(101.131 -6.7391 -4.10764)
(102.052 -5.22088 -9.73044)
(103.123 -2.98829 -7.72636)
(105.992 -0.526118 -2.95354)
(108.998 -0.892074 -6.25006)
(111.391 2.58555 0.208582)
(113.179 -5.11173 -2.63506)
(115.644 -4.47652 -6.74238)
(117.898 -3.14584 5.39498)
(119.98 -0.16355 9.79373)
(121.614 0.928121 3.77195)
(124.579 -1.34212 6.81089)
(126.278 -6.95284 7.91629)
(129.217 0.143895 10.7353)
(132.341 0.456697 11.5242)
(134.714 2.89511 10.4779)
(136.699 0.484199 5.51528)
(138.198 -0.273867 5.85002)
(141.471 -5.46113 -1.96149)
(143.216 -6.65764 -3.49747)
(146.263 -6.80315 -0.177221)
(149.166 -1.48201 -1.48473)
(151.867 3.75829 -5.61704)
(154.451 4.08492 -5.0172)
(157.064 -0.00797182 -12.4872)
(159.242 -2.6753 -5.38976)
(162.536 -1.25131 -2.05658)
(165.232 0.282363 -3.2897)
(169.134 -3.75942 -3.45399)
(173.748 -2.55524 3.67066)
(174.136 -13.5429 2.53992)
(178.501 -15.8162 0.854324)
(184.165 -12.1118 -4.27037)
(186.979 -5.73251 -8.57292)
(189.715 -1.66222 -7.03916)
(194.721 5.72246 -5.37887)
(198.568 6.45311 -7.35223)
(202.886 7.60871 -6.09841)
(205.449 3.59416 -2.42653)
(205.887 0.661619 4.99464)
(211.365 3.48595 5.35777)
(215.53 7.18127 7.886)
(220.154 -2.57609 -1.30088)
(225.47 -1.84968 -8.53783)
(229.527 -2.14158 -6.25177)
(233.883 -1.52437 -1.96846)
(236.601 0.955466 -0.44804)
(243.994 7.20192 2.95859)
(246.703 5.6933 1.8687)
(250.51 2.40666 4.22946)
(253.549 7.7252 6.82566)
(258.77 3.52267 3.64686)
(264.062 3.94666 0.829789)
(270.123 -1.68749 -0.509861)
(271.735 2.58323 1.0314)
(278.79 3.28813 -0.903173)
(285.895 -0.645348 0.89469)
(290.403 -0.429091 5.38048)
(291.436 -1.95163 -0.610216)
(297.584 -2.42917 -3.28296)
(301.812 -7.60735 2.21518)
(305.628 -2.76676 -0.784579)
(313.42 -1.10912 1.38898)
(324.094 -0.756441 2.89932)
(330.309 -6.23777 1.4763)
(337.136 -1.11294 3.01756)
(343.775 -4.87834 2.10225)
(348.541 -3.21614 1.62288)
(356.22 -0.016904 -1.03477)
(362.834 1.05632 -4.79239)
(365.038 0.710744 -7.09045)
(379.175 2.41098 2.20688)
(389.548 -3.71616 -2.0516)
(396.898 3.00762 1.91085)
(395.759 -1.36245 -0.148985)
(396.241 3.41768 1.95108)
(398.967 -3.46633 -2.426)
(394.629 1.78613 2.22387)
(392.1 1.43668 6.09869)
(393.258 -1.25145 5.74188)
(386.346 -0.556709 1.68149)
(387.219 -5.54945 5.02348)
(385.224 -3.35634 5.66987)
(389.318 0.362447 2.75491)
(383.475 1.75537 0.311899)
(386.436 -0.053424 2.15012)
(380.806 -3.134 5.56478)
(376.833 -4.58679 -0.499071)
(382.582 -5.90961 -0.71934)
(380.736 3.38655 3.6969)
(374.719 5.80174 5.82094)
(377.573 5.74587 5.57634)
(372.783 -0.196863 3.34193)
(377.472 -3.89471 3.8722)
(374.687 1.60156 2.42671)
(375.25 2.7783 -2.83617)
(371.019 5.90035 -1.18654)
(372.021 5.59583 -1.40043)
(362.133 8.41803 2.47398)
(362.875 5.36601 5.3682)
(366.391 5.02244 4.35828)
(363.354 -1.49689 4.04163)
(356.205 -5.65005 1.20299)
(359.269 -0.875483 4.02293)
(356.967 2.50673 2.75442)
(351.674 2.31318 4.89361)
(351.852 2.96031 6.68273)
(352.944 1.71863 2.35317)
(352.217 1.08077 3.07285)
(353.519 -0.0836369 4.13655)
(350.459 2.91343 2.18944)
(349.358 4.58512 -0.806745)
(349.51 -0.726187 7.1029)
(346.786 3.56297 0.563297)
(348.568 10.7985 9.52287)
(348.489 13.045 9.64653)
(346.406 11.2913 8.87004)
(345.241 6.87651 7.38595)
(341.441 5.54606 5.07023)
(339.749 -1.01841 2.5329)
(333.609 4.0204 2.19622)
(335.236 -0.94931 0.604433)
(336.995 3.20113 5.70258)
(331.492 2.67823 6.58015)
(327.789 2.18515 1.11601)
(328.184 -3.18285 -0.711362)
(324.495 -1.58156 2.76838)
(321.594 3.22183 3.63119)
(327.392 -2.58028 4.2882)
(327.007 -5.30496 5.95223)
(323.534 -1.97725 5.5286)
(324.445 -1.83448 8.3942)
(324.343 -1.49948 8.86079)
(320.689 -0.890136 9.76658)
(320.224 3.72134 0.931257)
(320.785 3.2911 0.526826)
(316.809 -3.516 0.263776)
(312.037 -5.57668 3.15176)
(316.495 -3.26151 0.530829)
(315.132 -2.43333 3.68896)
(314.609 0.684223 -0.386836)
(316.145 0.63339 1.73837)
(309.796 -4.2749 1.41593)
(302.333 3.37978 3.72052)
(298.186 -3.3366 4.54706)
(303.869 -0.900807 6.994)
(303.823 1.41164 6.10463)
(304.607 1.67064 5.82949)
(300.761 3.96107 4.39701)
(299.825 4.28635 4.11751)
(298.454 2.63954 4.17649)
(300.566 -0.651954 4.44355)
(300.213 -1.38411 4.77641)
(292.824 -4.96691 3.81823)
(289.511 -2.97614 7.40181)
(291.741 -0.89919 9.86516)
(291.602 0.897855 4.98694)
(286.767 -3.87794 -0.139047)
(286.838 -4.34329 1.6569)
(284.026 -4.36588 0.788541)
(282.253 -6.59213 -2.84347)
(280.309 -5.4328 5.21792)
(282.94 -5.87603 0.0169742)
(279.777 -1.83022 -4.22912)
(274.441 -6.24062 -1.14219)
(273.081 -4.86598 -2.6729)
(271.063 -2.1145 3.18097)
(276.267 -3.38515 3.35305)
(273.098 -0.286379 0.539865)
(273.102 -0.0495789 0.0594805)
(276.733 0.515032 -4.1413)
(275.161 -0.292138 3.25411)
(276.181 0.289096 -1.04441)
(278.373 0.0477305 -8.65399)
(278.668 -0.896943 -0.396705)
(272.86 -2.93754 -1.01702)
(273.184 -2.11605 -1.14516)
(269.801 -0.618896 0.600872)
(264.792 -2.87307 1.7298)
(262.69 -1.33127 -4.53515)
(263.442 1.17205 -4.13029)
(266.294 5.95895 -3.01132)
(258.518 5.61099 0.345376)
(256.638 5.88523 1.7376)
(253.917 7.17264 6.92264)
(258.012 3.53608 8.54086)
(256.869 2.93762 3.23999)
(256.245 4.32371 1.83662)
(253.01 1.44767 1.15927)
(249.024 -1.38433 -0.883482)
(247.217 -1.21342 3.12523)
(244.342 -1.7219 2.36069)
(242.743 0.737173 -3.20246)
(240.751 4.6535 3.74914)
(236.722 0.507617 6.87751)
(238.141 -1.32222 -0.54592)
(232.398 -3.14095 -3.08432)
(228.731 -3.3287 -6.74192)
(227.101 -0.162856 -9.18904)
(227.334 0.542736 -3.97397)
(225.9 -1.67391 -1.07516)
(223.535 -2.61623 -2.64615)
(215.964 -3.77199 -2.8631)
(216.126 -3.76269 -1.08285)
(217.151 -2.70758 6.3321)
(216.903 -7.20112 10.8065)
(211.694 -6.3494 3.65554)
(212.539 -4.55719 10.3525)
(213.178 -7.28147 10.6437)
(207.923 -1.49971 13.303)
(207.315 -2.57319 10.1242)
(202.793 0.506258 8.60179)
(201.628 0.566472 8.74097)
(197.745 -2.86293 -0.554103)
(196.364 -5.00797 2.95574)
(189.034 -1.45388 7.00314)
(189.951 -4.91298 11.522)
(188.744 -3.02467 6.74519)
(186.182 3.05846 7.50784)
(180.102 3.98126 5.02187)
(179.569 5.1149 1.69542)
(179.682 3.61773 3.5838)
(174.601 0.530724 1.69928)
(173.078 0.589147 3.68816)
(168.928 -2.91178 3.69803)
(168.196 -0.71975 2.3692)
(164.564 -3.60235 -0.194867)
(160.628 1.15812 3.61714)
(158.854 -3.54302 4.84805)
(154.142 -7.64012 1.99439)
(151.919 -4.94639 5.17577)
(150.166 -4.45305 2.91102)
(144.921 -2.40256 5.29612)
(142.838 -6.32953 -0.824632)
(139.714 0.612848 2.44627)
(139.303 -3.19128 -3.21468)
(133.314 -2.25237 0.517474)
(129.993 0.221866 -5.53619)
(124.993 6.49875 -8.32132)
(121.844 9.37723 -6.17608)
(119.733 4.74015 -14.9734)
(115.433 -0.580192 -14.7555)
(113.587 -4.74823 -14.5583)
(109.853 -0.358389 -5.9358)
(108.147 0.439654 -6.44522)
(105.326 -2.53146 -5.14609)
(100.288 -1.07625 -1.39053)
(97.8932 0.840315 -0.304598)
(94.6619 -1.41906 1.34825)
(91.1884 -0.88729 -5.19312)
(88.774 2.06175 7.35752)
(83.3815 -3.8905 2.53631)
(77.4263 -0.75264 -2.58054)
(75.1569 -5.05614 -1.37032)
(71.9148 -5.61687 -8.82048)
(67.3275 4.0097 -3.80989)
(61.6662 10.2702 0.890438)
(58.4501 1.18606 -3.07552)
(55.1255 0.262544 -2.33987)
(51.2449 3.07666 -3.76073)
(46.9972 1.80194 -2.47795)
(41.657 7.9844 -1.27916)
(38.025 2.71725 4.7449)
(33.7246 4.27664 -1.31652)
(29.2968 7.75287 -1.10695)
(24.4171 7.61071 -1.36303)
(20.2274 8.66829 2.31786)
(15.1306 7.12334 3.85053)
(11.4185 10.0687 -11.3718)
(7.53161 4.75881 -12.2207)
(3.79523 4.2853 -11.3528)
(-0.303944 8.66547 -19.8337)
(-3.44859 1.76724 -17.4002)
(-5.64075 2.9401 -16.7435)
(-6.89323 3.08829 -17.1015)
(-7.15274 8.2295 -18.8262)
(-7.34365 2.72067 -10.9831)
(-7.51863 3.14665 -10.9783)
(-7.32223 -5.53605 -10.5541)
(-7.08446 3.74016 -9.56683)
(-7.50701 0.834184 -9.96128)
(-7.61253 4.7665 -12.0693)
(-7.52339 13.3283 -16.0825)
(-7.62926 12.5539 -12.2063)
(-7.57029 5.73924 -7.92298)
(-7.59301 0.78044 -9.11927)
(-7.22593 1.47523 -2.37819)
(-6.98558 0.609336 -3.12114)
(-6.61522 9.64115 -12.1585)
(-6.67553 17.6628 -7.67049)
(-6.32952 19.2278 -9.83598)
(-6.56496 16.5613 -8.54458)
(-6.589 17.7244 -2.50096)
(-7.57832 18.0358 -4.30497)
(-7.95448 17.683 -9.23311)
(-7.2499 13.964 -4.16986)
(-7.03584 1.23793 -8.19298)
(-7.0547 1.68736 -12.5532)
(-7.07848 8.58989 -12.905)
(-7.05498 2.37711 -11.9796)
(-6.37717 -0.966662 -15.0794)
(-6.28667 -12.0188 -7.47292)
(-6.30835 -7.89382 -8.29949)
(-6.55401 -4.0908 -7.93656)
(-7.09264 -0.509949 -7.81445)
(-7.46187 -8.10975 -7.45744)
(-7.46235 -14.4577 -3.21775)
(-7.38266 -21.9378 -11.391)
(-7.16502 -16.7382 -10.3146)
(-7.46425 -6.09796 -15.2684)
(-7.07999 -6.59031 -10.5077)
(-6.82336 -1.01571 -11.1945)
(-6.47724 4.59024 -14.4018)
(-6.66113 11.8348 -21.4761)
(-7.03821 8.14956 -31.3266)
(-7.1986 11.2628 -23.3175)
(-6.81844 15.7016 -22.8884)
(-6.57885 7.19147 -30.0688)
(-6.78855 1.69304 -22.1301)
(-6.31337 2.38966 -24.4428)
(-5.96327 6.0428 -14.911)
(-5.92524 4.86314 -11.7798)
(-6.31893 -4.84035 -5.98396)
(-6.28663 -1.27807 -10.8197)
(-6.36124 -3.90478 -13.5948)
(-6.29022 -17.0242 -16.1302)
(-6.27329 -18.0472 -13.7137)
(-5.63566 -13.9767 -15.9269)
(-5.05145 -17.0206 -11.2667)
(-5.16922 2.63747 -2.04189)
(-4.79391 3.90042 -5.99715)
(-4.98403 1.2526 -8.17415)
(-5.25014 4.60194 -12.192)
(-5.40395 6.22481 -9.94549)
(-5.84936 1.48932 -8.96854)
(-6.03586 -3.79909 -0.511894)
(-6.45545 -2.61024 -10.6937)
(-6.75388 -5.00452 -7.45509)
(-7.09438 -7.32158 -6.39696)
(-7.07219 -13.6161 -3.05005)
(-7.45862 -10.2176 -0.401181)
(-6.98834 -6.987 4.10119)
(-6.25186 -17.6922 2.88728)
(-6.1395 -12.2729 -2.06088)
(-5.86259 -11.1602 -5.63997)
(-6.10127 -9.77324 -12.8283)
(-6.50192 -10.6842 -4.9396)
(-6.45755 -10.0546 7.55317)
(-6.00478 -9.14473 8.88918)
(-5.53237 1.07623 8.17081)
(-5.59446 -0.968405 7.97763)
(-5.17087 -11.4353 3.43732)
(-5.44119 -14.1628 -6.43996)
(-5.52698 -11.8056 -4.43259)
(-5.76809 -5.39517 -3.13517)
(-6.06676 -2.3585 -1.45339)
(-6.92853 3.63753 -4.07161)
(-7.02223 5.82343 -1.7108)
(-6.62015 6.05821 -1.56963)
(-6.0005 4.28446 3.49045)
(-5.97395 6.27716 4.61865)
(-5.7063 6.00667 -0.537553)
(-5.468 12.8089 4.9537)
(-5.01499 8.12201 -4.60305)
(-5.29317 2.45969 -1.26666)
(-5.01543 8.89169 -0.0694553)
(-4.58978 11.0031 2.47728)
(-4.47328 1.74076 5.52726)
(-4.58693 8.04354 -4.05418)
(-4.48999 14.0257 3.40085)
(-4.36001 15.6388 -1.14179)
(-4.29933 10.012 -0.450924)
(-4.18673 -0.0640704 -1.31844)
(-4.22568 -4.44148 -0.531228)
(-4.25112 4.08297 3.59616)
(-4.05483 12.1992 0.514908)
(-3.68897 11.704 -6.51792)
(-3.62252 8.96405 -2.63821)
(-3.87871 17.2166 -6.52868)
(-3.80106 15.0204 0.384574)
(-3.79929 13.0335 2.33013)
(-3.72253 10.5067 -4.75544)
(-3.64068 10.9987 -7.29403)
(-3.6892 13.4406 -15.6365)
(-3.98818 13.496 -19.158)
(-4.10966 13.7257 -21.7363)
(-3.94917 11.9934 -13.9551)
(-3.91533 13.5838 -6.9089)
(-4.19344 9.86524 -10.4541)
(-3.80282 10.9613 -13.8593)
(-3.47028 -1.74721 -16.3832)
(-3.60878 9.99733 -15.5813)
(-3.86256 5.42987 -4.97631)
(-3.63098 8.17504 -1.44244)
(-3.83329 9.64255 -5.54735)
(-4.02732 11.4038 -10.7646)
(-3.7206 0.121064 -13.6154)
(-3.49529 2.06147 2.63107)
(-2.7426 4.93405 -9.72364)
(-2.1517 12.2267 -19.084)
(-1.67285 19.3386 -19.0046)
(-1.71359 14.079 -12.801)
(-1.5 12.9987 -4.94718)
(-1.38404 5.42224 5.05594)
(-0.862002 -0.641004 4.26278)
(-0.685298 12.2495 -0.954727)
(-0.429701 10.1094 -5.76254)
(0.254453 -1.75434 -7.92526)
(0.489012 3.93907 -10.3881)
(0.0499553 0.627772 -3.92745)
(-0.0460393 -0.679887 2.83737)
(-0.0270865 0.703543 5.47842)
(-0.0886062 9.21856 15.4961)
(0.531486 10.2416 5.34204)
(0.578974 -2.18037 8.50599)
(0.824371 -4.37534 0.470263)
(1.04394 -2.73915 2.48312)
(1.29742 -3.2691 -1.35757)
(1.27879 -4.88366 3.6004)
(1.13967 -5.88402 7.35291)
(1.42731 -9.54374 7.06756)
(1.69877 -10.0237 4.69502)
(1.7508 -8.66252 6.09109)
(1.71338 -3.79646 2.36607)
(1.97328 -2.20117 -7.04395)
(2.30945 -7.45299 -2.6984)
(2.45856 -6.44525 0.906872)
(2.74521 -3.08832 8.56143)
(2.93077 -1.64307 1.72043)
(2.9709 -4.48747 1.30302)
(2.63243 -0.243443 2.91573)
(2.21027 -6.74637 -0.0276865)
(1.97266 2.01289 3.96919)
(2.01885 -0.228419 -1.57783)
(1.72959 2.87246 -9.34878)
(1.65715 3.01023 -17.7231)
(1.4271 -12.3975 -13.7877)
(0.991989 -9.04271 -15.5558)
(1.20079 -14.0837 -17.516)
(0.922332 -10.2533 -19.9148)
(1.17962 3.68254 -18.6699)
(1.26807 0.42296 -16.1445)
(1.29992 -2.59711 -8.05148)
(1.0466 -8.29321 -4.63132)
(1.03733 5.47542 -6.94895)
(0.679685 10.4402 -4.68035)
(0.546688 1.88476 -9.80046)
(0.431969 -4.21823 -5.04059)
(0.00871821 -1.67469 -9.15023)
(-0.27432 -1.24116 -10.6125)
(-0.342778 4.04343 -13.7993)
(-0.314043 -2.0049 -14.5761)
(-0.334201 -5.90301 -11.6013)
(-0.32641 -5.29573 -7.63335)
(-0.24682 -3.72364 -15.3447)
(0.410677 -0.152193 -14.2596)
(0.776055 0.353607 -14.7998)
(0.965818 1.87514 -9.78666)
(0.609347 -0.132591 -5.9682)
(0.884144 -2.52547 -4.50509)
(0.295021 -16.7918 2.52196)
(0.242668 -5.77393 -1.71651)
(0.370835 -1.29746 2.88518)
(0.432815 1.89759 6.72756)
(-0.0704513 -4.45374 5.05704)
(-0.432421 -7.76373 5.10409)
(-0.123029 -7.25526 6.38546)
(0.0529714 -2.66105 12.4316)
(0.0544783 -1.43755 13.3607)
(0.200728 -8.44362 11.521)
(0.524942 -3.52217 4.73951)
(0.687259 0.943598 -8.81204)
(0.82353 -5.06185 -6.79536)
(1.37019 -1.11366 -4.54518)
(1.24782 -8.31358 -11.1922)
(1.7178 -3.21991 -6.13426)
(2.02642 3.70672 -12.2206)
(2.07787 15.0473 -8.10477)
(1.86821 17.1675 -1.0672)
(1.60265 6.99578 -2.80869)
(1.56789 7.75981 -0.288508)
(1.47375 11.1228 4.51408)
(1.73038 9.65146 9.01445)
(1.92293 13.9459 5.60847)
(2.25186 14.4647 4.8617)
(1.84925 6.38914 12.1628)
(1.88482 11.2004 15.1302)
(2.02281 7.27804 5.48574)
(2.12325 -0.20612 2.46109)
(2.33749 -2.83356 0.327585)
(1.74432 -5.66674 5.6247)
(1.4987 -12.1851 3.7393)
(1.31143 -22.4726 4.8366)
(1.15931 -10.4769 10.353)
(1.04212 -2.05282 8.17344)
(1.02454 -2.50706 9.36649)
(0.941384 -3.99311 8.70023)
(1.0313 -4.34022 -0.0687585)
(1.23723 -16.0742 1.93542)
(1.38815 -6.60557 -3.86361)
(1.63781 -12.7744 -8.52985)
(1.51948 -9.01326 -13.0135)
(1.57696 5.38287 -6.28337)
(1.22198 3.121 3.48745)
(1.41708 4.35152 4.03999)
(1.51491 -2.33288 1.24584)
(1.58306 0.585287 0.187768)
(1.36951 -0.636657 2.29044)
(1.18792 3.67675 -4.58719)
(1.04008 9.1278 -7.05026)
(1.00231 5.80917 -12.6142)
(1.10971 8.67727 -17.169)
(0.491734 9.76688 -19.1336)
(0.643132 7.73 -24.4265)
(0.202371 13.4211 -17.6225)
(0.0198163 11.1812 -10.3073)
(0.505143 5.98594 -9.81399)
(0.672045 3.78014 -5.22463)
(0.233605 5.44949 -4.2733)
(0.288393 -2.21938 -10.3122)
(0.580774 3.57518 -7.36802)
(0.422124 5.53559 -3.12342)
(0.231957 1.81657 1.91631)
(0.00210363 4.5264 8.96836)
(-0.172898 8.70322 14.2438)
(-0.168332 6.91776 22.311)
(-0.65493 11.1703 28.0655)
(-1.1224 1.28885 22.3218)
(-0.938425 -1.59405 27.5186)
(-1.16963 -8.04501 22.3897)
(-1.46565 0.444748 19.3055)
(-1.10975 0.469935 25.841)
(-1.52564 9.07201 22.5825)
(-1.41021 6.99339 17.4611)
(-1.52453 -1.42018 14.5305)
(-1.34743 5.40184 10.4326)
(-1.43464 9.04694 4.58871)
(-1.6738 4.87323 3.40761)
(-1.60145 4.71582 2.48592)
(-2.12898 11.2493 3.21347)
(-2.14181 10.7071 4.79624)
(-2.15485 8.62569 6.94068)
(-2.01331 6.53672 7.8761)
(-1.83716 4.32641 10.2687)
(-1.04944 4.84507 4.7301)
(-1.05545 1.06823 11.7334)
(-0.869669 -7.16522 8.28849)
(-0.604687 -4.00581 11.525)
(-0.319433 1.67224 14.8754)
(-0.514375 -0.462362 4.44565)
(-0.456874 -1.77279 3.58423)
(-0.795336 -5.80963 -0.437222)
(-0.660091 -5.73422 1.56993)
(-1.12745 -7.93593 2.51644)
(-1.22564 -8.11773 10.916)
(-0.990333 -14.9424 4.89743)
(-0.826686 -13.8679 10.0201)
(-0.954426 -14.9933 6.28423)
(-1.50876 -13.702 4.81547)
(-1.06856 -13.7847 0.557441)
(-0.808551 -0.77996 -0.285901)
(-0.811273 1.17059 -7.55666)
(-0.769791 4.80801 -4.80133)
(-0.897847 1.47292 -5.11958)
(-1.05963 1.88497 -7.58766)
(-0.990386 6.48281 -8.10335)
(-0.723633 8.25489 -4.86402)
(-0.850834 8.24267 -11.8881)
(-0.431195 8.05084 -16.7396)
(-0.192565 16.6754 -21.7887)
(-0.330686 19.9995 -14.5122)
(-0.319232 18.1927 -1.66084)
(-0.317461 10.9947 -6.50442)
)
;

boundaryField
{
    sides
    {
        type            symmetry;
    }
    empty
    {
        type            empty;
    }
}


// ************************************************************************* //
