/*--------------------------------*- C++ -*----------------------------------*\
  =========                 |
  \\      /  F ield         | OpenFOAM: The Open Source CFD Toolbox
   \\    /   O peration     | Website:  https://openfoam.org
    \\  /    A nd           | Version:  7
     \\/     M anipulation  |
\*---------------------------------------------------------------------------*/
FoamFile
{
    version     2.0;
    format      ascii;
    class       volScalarField;
    location    "0.006";
    object      internalEMean;
}
// * * * * * * * * * * * * * * * * * * * * * * * * * * * * * * * * * * * * * //

dimensions      [1 -1 -2 0 0 0 0];

internalField   nonuniform List<scalar> 
654
(
0.4332946203
0.437973499
0.4441738981
0.4065659397
0.4377676543
0.4433764996
0.4171326894
0.4151067183
0.396950287
0.4031971579
0.3864412973
0.4310334862
0.4253990158
0.4082984
0.3973912567
0.419192331
0.4372286962
0.4309511399
0.4057721596
0.4084477163
0.4154300506
0.4094337919
0.3995320598
0.3923072157
0.3922755422
0.4065214166
0.4069650808
0.3987920274
0.4025954395
0.4083411407
0.4087075476
0.4055142763
0.4148904317
0.4209413086
0.3805170582
0.4078509278
0.3917972637
0.3990755191
0.4108221698
0.4116742735
0.4085542498
0.3802757303
0.3903523178
0.4026407861
0.4014597136
0.3986536935
0.4174253071
0.3922182063
0.4122771029
0.4101865951
0.3977765386
0.4039561448
0.4250134211
0.4287782353
0.4130536189
0.421156241
0.4057692369
0.4082770331
0.4236081247
0.4136668606
0.4017854975
0.4029035691
0.3684944429
0.3796817418
0.3918731455
0.4097307429
0.4111568768
0.3943033041
0.4072050185
0.3910283529
0.4109740182
0.4080447527
0.3843742533
0.388627865
0.4149780468
0.4224028709
0.4225578712
0.3876545343
0.4205894241
0.4247932454
0.4366728732
0.4492256483
0.4291620211
0.4415734497
0.3663397167
0.3722669502
0.3717775337
0.4008995525
0.3987504608
0.3997084742
0.3903906143
0.3949797986
0.4000471617
0.4086236517
0.4016195374
0.4068903439
0.413545787
0.3663137058
0.3835832234
0.4014875072
0.3957567736
0.4048669897
0.3897447379
0.3913371024
0.3907883223
0.3954372087
0.4015796791
0.3928828998
0.3904633011
0.3984538199
0.4223183651
0.4451474948
0.4226800485
0.4453781982
0.3612996022
0.3655356851
0.3654846978
0.3803618263
0.3800081801
0.3832596516
0.3834833962
0.3992505055
0.3854516359
0.3941538519
0.3977865623
0.4019203649
0.4230803948
0.3795961064
0.3720681036
0.3982922231
0.382574366
0.4083451877
0.4152555405
0.3928239483
0.4082821602
0.4191891256
0.397573989
0.4007054464
0.4068541133
0.4189515586
0.402122022
0.4100341491
0.4231883201
0.4727781117
0.3779918411
0.388342972
0.3849595426
0.3754732636
0.3697626376
0.3749736894
0.3792383796
0.4032986157
0.3824592351
0.3863014423
0.4063819118
0.4024214293
0.4110125729
0.3818771437
0.3893227872
0.4007472221
0.4093399991
0.3913251732
0.3967365036
0.4022817644
0.4078257383
0.3910159332
0.3893423646
0.3991336889
0.3991871545
0.4041390929
0.4020706979
0.4472477381
0.4134340142
0.448612784
0.3510488004
0.3850431217
0.4002654939
0.4030486218
0.3744816121
0.3644581604
0.3843773954
0.3905318349
0.3931663159
0.3798076438
0.388679662
0.3976137715
0.4049753833
0.3778210322
0.3808248441
0.3984586627
0.3967517702
0.3924305718
0.433725114
0.42494546
0.4002936028
0.4047350832
0.3976028072
0.4069785581
0.4000945038
0.4085565154
0.4268820869
0.4263558063
0.4200593313
0.4410289289
0.3690708477
0.3875535414
0.3834670987
0.4001995961
0.3743297726
0.3838126126
0.390608299
0.3973376496
0.4027304072
0.3928807608
0.3865317115
0.3863804357
0.3800774085
0.3806988788
0.4051770355
0.404813213
0.3956071254
0.3909564536
0.4024953573
0.4141027881
0.4014242288
0.4033160114
0.4320582561
0.4046255257
0.392691267
0.4268338807
0.4442641306
0.4208968472
0.4372775494
0.4025146909
0.4018161535
0.3969424552
0.3960407444
0.3769414752
0.3863828244
0.3845784639
0.3930604969
0.4032228488
0.3777549848
0.4032239088
0.3757774295
0.3819193542
0.3663469958
0.3872852901
0.3694529818
0.3843323724
0.3855570615
0.4018563553
0.4219265518
0.4031945952
0.3980472075
0.4183923344
0.4193061315
0.3891792936
0.4073733038
0.3969186634
0.4194747735
0.4316472545
0.4173651069
0.443822656
0.3992458958
0.3843255757
0.3761746248
0.3837962614
0.4025169543
0.4248855722
0.3904528667
0.3908783511
0.4007622746
0.4046803818
0.3993336609
0.4010788125
0.3939710874
0.3758340294
0.3804596653
0.3951185095
0.3983444619
0.3855055611
0.3988863558
0.4174951718
0.4115171574
0.4343973852
0.4055155511
0.3928391898
0.3851377613
0.4024588344
0.4182377719
0.432861517
0.4413507731
0.4223113298
0.3931893954
0.3793322127
0.3687199272
0.3977172304
0.4170906451
0.4060971429
0.3978813176
0.4006756235
0.4029408759
0.4151061798
0.3885108171
0.380871851
0.3754262481
0.3694303933
0.3897016442
0.4118378516
0.3919200346
0.3837696588
0.3964424902
0.3918801193
0.4101451962
0.4008578925
0.4081275845
0.4067024832
0.4079360008
0.4021495643
0.4360513451
0.4250102174
0.4562743594
0.4431848617
0.3848214019
0.3884988102
0.3782351076
0.3579206965
0.4270596528
0.3895033447
0.3850431302
0.3836278391
0.3887986712
0.4045828753
0.3649028167
0.3841284859
0.3743427087
0.3783278587
0.3737066462
0.3843373783
0.3718046276
0.4009535111
0.4015966933
0.3917102688
0.428330604
0.3982238002
0.3886127453
0.4003812585
0.4026402646
0.4265679527
0.4537145502
0.4228076699
0.4435938838
0.4427922311
0.3713191059
0.3993801442
0.3770977874
0.3860699909
0.3902317402
0.3972705441
0.3994328167
0.3952946433
0.3767461447
0.3857000957
0.3658776868
0.39333821
0.37695906
0.3868157885
0.4039676677
0.3855622089
0.3913196254
0.3924220782
0.4005858499
0.4171848257
0.395933929
0.4100314275
0.4011646378
0.3957789684
0.3934490849
0.4290766421
0.4446982261
0.4338209523
0.4569372106
0.4331617987
0.3918312939
0.3940832017
0.3849949975
0.3785876036
0.3752736203
0.4069578678
0.411454692
0.3873437644
0.3818783093
0.3978502727
0.3657968162
0.4028046135
0.4090692363
0.3687584869
0.4069427042
0.3976183008
0.3926279235
0.3864513539
0.3926238043
0.3903005218
0.410933064
0.3979657888
0.4318571168
0.409347258
0.4114684989
0.4170846804
0.4332521746
0.4289010217
0.4582622024
0.4507441391
0.3944018433
0.3644272385
0.3942498738
0.3922117746
0.3783273465
0.3962641386
0.3851603267
0.3973245517
0.4119916857
0.3812124928
0.3808372242
0.3899812695
0.4014634926
0.387579672
0.4063342196
0.4117890286
0.3896714367
0.3986641305
0.3966842942
0.4072112203
0.4079464889
0.4094928142
0.4252375464
0.4172742903
0.397520147
0.413957582
0.4250694616
0.4339816373
0.4426951804
0.442290804
0.3820979915
0.375888494
0.3952019111
0.378388193
0.3555352065
0.3809710125
0.3744562358
0.4010330913
0.406422566
0.3861682062
0.3740560645
0.3777752342
0.412544619
0.3981616955
0.3952238633
0.3947142997
0.3896835742
0.382664428
0.4154907878
0.4140109554
0.4097648471
0.3960400824
0.4170066745
0.4153212614
0.4045350752
0.4144279453
0.4227151624
0.4327454377
0.4380803395
0.4147697524
0.4032542985
0.3950140703
0.410830523
0.385723803
0.3550943884
0.3633490119
0.4025313799
0.397905316
0.3936718314
0.3925853534
0.3803509762
0.3887703165
0.4050502217
0.4019128953
0.3855698945
0.383438076
0.3936726444
0.3888204509
0.4179502849
0.3996163745
0.4303025538
0.4082925032
0.4175574458
0.4336341253
0.4571888384
0.4281884041
0.4113485676
0.3950726297
0.4179079171
0.4045519018
0.4083571787
0.4138775217
0.4044492412
0.4039209897
0.3969944215
0.3821429616
0.386501247
0.3737751247
0.3710233918
0.3708008218
0.3941465783
0.3999682139
0.416338743
0.4015263328
0.3837670444
0.3851212349
0.3781190749
0.385535459
0.4137854443
0.4238213844
0.4255755086
0.3974834369
0.3996615127
0.3974920377
0.4188194007
0.4419376736
0.4223361277
0.4475141984
0.4163706008
0.4180771322
0.403073685
0.4064960233
0.3969065046
0.3879029603
0.4029141242
0.3837994922
0.3886954754
0.385192633
0.380123998
0.3833259193
0.3828225544
0.3885190911
0.3882273038
0.3922187705
0.3664453319
0.4201134601
0.4196611982
0.4099677203
0.4194823991
0.4303147997
0.4228318232
0.392572811
0.414879596
0.3903130425
0.417719781
0.4164122504
0.4300480188
0.4414974972
0.412031469
0.4384411191
0.3916863733
0.4008074624
0.4049496013
0.4107999021
0.4009095831
0.3994128819
0.3966195904
0.3939706549
0.3955794607
0.3851324738
0.3711496424
0.3834498462
0.4000271685
0.3972912722
0.3812391399
0.4007089016
0.3850453019
0.4111336872
0.4301450299
0.4329882307
0.400806558
0.4026760819
0.3983765596
0.4152681999
0.4181426843
0.4187106602
0.4333994103
0.4219630109
0.4092105429
0.4112832741
0.3864271081
0.3872077592
0.3972809345
0.3909284858
0.3957969632
0.428178595
0.4065950247
0.3859720232
0.3885578997
0.3844977899
0.3855582249
0.3882563834
0.3905020793
0.4049684451
0.3948101691
0.3971164362
0.3853128554
0.3984994778
0.4155540042
0.4191902064
0.4005197908
0.412506159
0.4011096263
0.4234549719
0.425721529
0.4266237259
0.4257207354
0.4348042428
0.4090378297
0.4129790072
0.401415806
0.3701764442
0.3881720724
0.3862649231
0.4034235241
0.3814712767
0.3967555663
0.3776496112
0.3772465197
0.3884257574
0.375811293
0.3821478244
0.3975573427
0.3848936646
0.3818930053
0.382573398
0.3923454321
0.4016752866
0.3876092121
0.3930917642
0.3834883959
0.393162429
0.4028735914
0.416876512
0.4063882436
0.4040650494
0.4151902847
0.3847824583
0.4076240901
0.4035054596
)
;

boundaryField
{
    flow
    {
        type            calculated;
        value           nonuniform List<scalar> 
55
(
0.4332946203
0.4171326894
0.4309511399
0.4209413086
0.421156241
0.4415734497
0.4453781982
0.4727781117
0.448612784
0.4410289289
0.4025146909
0.443822656
0.4223113298
0.4431848617
0.4427922311
0.4331617987
0.4507441391
0.442290804
0.4147697524
0.4045519018
0.4180771322
0.4384411191
0.4112832741
0.4129790072
0.4035054596
0.401415806
0.3701764442
0.3881720724
0.3862649231
0.4034235241
0.3814712767
0.3967555663
0.3776496112
0.3772465197
0.3884257574
0.375811293
0.3821478244
0.3975573427
0.3848936646
0.3818930053
0.382573398
0.3923454321
0.4016752866
0.3876092121
0.3930917642
0.3834883959
0.393162429
0.4028735914
0.416876512
0.4063882436
0.4040650494
0.4151902847
0.3847824583
0.4076240901
0.4035054596
)
;
    }
    obstacle
    {
        type            calculated;
        value           nonuniform 0();
    }
    frontAndBack
    {
        type            empty;
    }
    procBoundary3to1
    {
        type            processor;
        value           nonuniform List<scalar> 
36
(
0.4350889382
0.4023778352
0.4282964074
0.4261400717
0.4190653835
0.4141036483
0.4141036483
0.4126496974
0.4054267465
0.3940889928
0.410597117
0.4247737937
0.4247737937
0.4010023342
0.3901520038
0.4117668041
0.4091295298
0.4074734291
0.4074734291
0.3964430294
0.397446757
0.4108502837
0.4132790891
0.3876981632
0.4028237334
0.4028237334
0.3810156666
0.3987644335
0.4142883884
0.4175812848
0.3812414237
0.3852605752
0.3852605752
0.3820670225
0.393902474
0.393902474
)
;
    }
    procBoundary3to2
    {
        type            processor;
        value           nonuniform List<scalar> 
19
(
0.3941808089
0.3626051451
0.3571883365
0.3637660037
0.3902088373
0.3933969027
0.3794831842
0.3900685994
0.4041481736
0.3941902778
0.3976996483
0.3988570998
0.3891535681
0.3893921726
0.4125342985
0.4106950448
0.3911149782
0.3907034118
0.3976658975
)
;
    }
}


// ************************************************************************* //
