/*--------------------------------*- C++ -*----------------------------------*\
  =========                 |
  \\      /  F ield         | OpenFOAM: The Open Source CFD Toolbox
   \\    /   O peration     | Website:  https://openfoam.org
    \\  /    A nd           | Version:  7
     \\/     M anipulation  |
\*---------------------------------------------------------------------------*/
FoamFile
{
    version     2.0;
    format      ascii;
    class       volVectorField;
    location    "0.006";
    object      momentumMean;
}
// * * * * * * * * * * * * * * * * * * * * * * * * * * * * * * * * * * * * * //

dimensions      [1 -2 -1 0 0 0 0];

internalField   nonuniform List<vector> 
654
(
(0.01525453186 0.004714217008 -2.228706711e-05)
(0.01575612461 0.005060021647 -4.547204408e-05)
(0.01589133258 0.005117094294 -3.378352994e-06)
(0.01582148795 0.005038448101 -5.409125892e-06)
(0.01581821057 0.004992416153 3.506711826e-06)
(0.01584919533 0.004973377393 -2.095407345e-05)
(0.01559502526 0.004842316857 -5.166236298e-06)
(0.01357744392 0.00356024196 -5.871318049e-06)
(0.01393844163 0.003836195487 -5.188761822e-05)
(0.01439349463 0.004136831432 -3.989131455e-05)
(0.01475344565 0.00433584649 1.835278418e-05)
(0.01508268626 0.004521889696 4.788534877e-05)
(0.01557538083 0.004801548929 5.176666395e-05)
(0.01577717383 0.005019393623 -8.523957161e-06)
(0.01600547604 0.005059882692 -1.588988043e-05)
(0.01592753797 0.005020224012 -1.482722523e-05)
(0.01593988272 0.004989789977 8.624128057e-06)
(0.01599737871 0.004993345464 -3.602787649e-05)
(0.01052855546 0.00156959937 -1.026104503e-05)
(0.01097462702 0.001816919962 -2.560088243e-06)
(0.0115148056 0.002161203817 -6.752355612e-06)
(0.01200834522 0.002453311016 4.469726078e-06)
(0.01239983056 0.00268769623 -1.000020556e-05)
(0.01282706934 0.003040111124 -1.14666786e-05)
(0.01340459325 0.003415562929 3.490077878e-05)
(0.01389811972 0.00371520024 9.518778949e-06)
(0.01434413593 0.003972162961 -1.931792934e-05)
(0.01469873723 0.004237224008 -1.362936138e-05)
(0.01494962156 0.00444228463 -1.142178989e-05)
(0.01534293875 0.004679156474 -1.558451515e-06)
(0.01560891082 0.004884706764 -4.9628161e-05)
(0.01583152972 0.004990722121 -8.007890756e-05)
(0.01585951165 0.004933656618 -4.524396676e-06)
(0.01594685916 0.005008813984 -5.10233053e-05)
(0.008901916327 0.0003957149979 -1.077097226e-05)
(0.009025490793 0.0005233759641 -2.2096077e-05)
(0.009126656455 0.0006185737205 1.693485794e-05)
(0.009277325676 0.0007374649026 1.875524016e-05)
(0.009469442049 0.0008609673298 2.142008092e-05)
(0.00970683106 0.001004295696 8.830708856e-06)
(0.01002445846 0.00123104199 -2.650800761e-05)
(0.01033584957 0.00143228348 -3.007474231e-05)
(0.01065043474 0.001648065405 -2.930724324e-05)
(0.01102257399 0.001933740607 -2.280600598e-05)
(0.01147859054 0.002268932056 -2.761934844e-06)
(0.01203177671 0.002543518354 -2.153005039e-05)
(0.01251234119 0.002840514265 1.112070983e-05)
(0.01299940569 0.003196579772 1.607534498e-05)
(0.01356175532 0.003510285609 1.175650342e-05)
(0.01398022735 0.003798645886 -1.762447735e-06)
(0.01441355451 0.004073230361 5.50248156e-05)
(0.01489105811 0.004352914057 6.245031917e-05)
(0.01519388558 0.004579653305 1.318592092e-05)
(0.01553258591 0.004797249403 1.181610808e-05)
(0.01576969621 0.004953742109 -5.298398839e-05)
(0.01578569101 0.00489484169 -3.542906624e-05)
(0.008436452934 0.000128815545 -2.853759673e-05)
(0.008459845966 0.0001277164037 -2.133813337e-05)
(0.008466012274 0.0001480437073 -1.486050261e-05)
(0.008542316217 0.0001812252553 -9.830000107e-06)
(0.008611207374 0.0002251215405 -5.135265791e-06)
(0.00859735248 0.0002689447855 1.012925982e-05)
(0.008683526988 0.0003308243468 9.680261041e-06)
(0.008698386477 0.0003883650238 1.6872349e-05)
(0.008875866796 0.0004636102435 2.419615985e-05)
(0.008993263146 0.0005632205653 -1.357493614e-06)
(0.009210046312 0.0006607663556 1.074020163e-05)
(0.009398856541 0.0007648808698 1.409736829e-05)
(0.009634046046 0.0009214926389 4.452423616e-05)
(0.00995249785 0.001110520173 5.396897808e-05)
(0.01023924149 0.001297184565 6.405623267e-05)
(0.01063694278 0.001557619742 4.531105665e-05)
(0.01105859806 0.001809134781 4.302523338e-05)
(0.01143369113 0.002091770419 2.882513609e-05)
(0.01191299644 0.002389740442 2.852824283e-05)
(0.01246968218 0.002718682128 -2.835739352e-05)
(0.01296810751 0.003058370324 -5.43674455e-07)
(0.01337175094 0.003381357888 -8.12414901e-06)
(0.01388452345 0.003681289245 -4.966957354e-05)
(0.01433813635 0.003978168296 -1.49339099e-05)
(0.01480835043 0.004226084851 2.677763402e-05)
(0.01521006528 0.00450183075 3.845900976e-06)
(0.01544674205 0.004659391662 2.171199533e-05)
(0.01569347757 0.004816209524 2.276439404e-05)
(0.008323591747 4.393925538e-05 -1.461854363e-05)
(0.008388118779 4.646706554e-05 -1.825966095e-05)
(0.008401435999 4.644183264e-05 -1.182793436e-05)
(0.008395950863 8.685782652e-05 -7.542929896e-06)
(0.008449725157 0.0001219936995 4.88361287e-06)
(0.008479283613 0.0001604771735 9.338197601e-06)
(0.008533345651 0.0001817566357 3.842401657e-06)
(0.008615513478 0.0002195392021 2.26202951e-06)
(0.008709808334 0.0002558840713 8.46387867e-06)
(0.008761902645 0.0003006005551 -6.869952776e-06)
(0.008900063 0.0003719038547 -2.427490045e-06)
(0.009045924996 0.0004287531403 1.514605766e-05)
(0.009103769538 0.0005141173177 1.730636669e-05)
(0.009109388253 0.00062087241 1.782605569e-05)
(0.009366436692 0.0007322877021 1.532662744e-05)
(0.009580843694 0.0008577276679 9.357285826e-06)
(0.009799523395 0.001010711822 2.270573853e-05)
(0.009998295334 0.001204263609 1.785098349e-05)
(0.01037599198 0.001422325294 1.168925206e-05)
(0.01078065132 0.001667150138 2.739220245e-05)
(0.01118686248 0.001942208336 2.7430451e-05)
(0.01154782343 0.002213215852 4.365117275e-05)
(0.01205261124 0.002565719952 3.238038684e-05)
(0.01259960384 0.002897050311 -2.511947426e-06)
(0.01323719282 0.003257428022 -2.229278193e-05)
(0.01367402302 0.003512487479 3.265688044e-06)
(0.01413398605 0.003804942498 2.979813004e-05)
(0.01449856052 0.004077371312 4.974263765e-05)
(0.01497049191 0.004381251303 4.441309988e-05)
(0.01547188807 0.004603550953 6.658926577e-05)
(0.008468325181 4.780228459e-05 -2.948332724e-06)
(0.008443427955 5.522014837e-05 -3.075542179e-07)
(0.008390615171 7.712440932e-05 6.50123632e-06)
(0.008426608982 8.560236289e-05 2.676527344e-07)
(0.008410199801 9.423265848e-05 9.44382145e-06)
(0.008414172154 0.0001145512091 8.294645284e-06)
(0.008448741926 0.0001338476251 3.616322485e-06)
(0.008456425999 0.0001606345632 -2.182604511e-06)
(0.008506495856 0.000176683513 -4.698343016e-06)
(0.008570808752 0.0002106250665 2.950478014e-06)
(0.008584095115 0.0002664626606 6.492078244e-06)
(0.008630426158 0.0003409699169 -1.691547332e-05)
(0.008818564823 0.0004008619761 -3.662945517e-06)
(0.009046319017 0.0004444475309 -1.020893909e-05)
(0.009122538063 0.0005470223491 -1.854784707e-06)
(0.009307474426 0.0006865351211 -1.5626716e-05)
(0.00949622607 0.0007965105052 -1.156927298e-05)
(0.009720630355 0.0009374301563 -1.42376895e-05)
(0.01008455469 0.001090531961 -1.062231888e-05)
(0.01038553512 0.001327155341 4.88180723e-06)
(0.01072895969 0.001555848336 1.032771772e-05)
(0.011142751 0.001839104337 -1.085464331e-05)
(0.01151076618 0.002060018587 7.807691519e-06)
(0.01193780578 0.002411904135 9.038266526e-06)
(0.01250141323 0.002743634685 7.36200012e-07)
(0.0129555216 0.003102300857 -1.580585633e-05)
(0.01335165392 0.003395661798 -2.875956112e-05)
(0.01401833746 0.003710665793 -1.321972542e-05)
(0.01447149691 0.003994218908 -8.892668779e-06)
(0.01491418695 0.004237207198 -1.5329988e-07)
(0.00824264725 3.621945757e-05 1.777750813e-05)
(0.00823756359 3.966288865e-05 1.264374586e-05)
(0.008318067995 5.901149719e-05 1.939728785e-05)
(0.008334445234 6.280087475e-05 1.793151116e-05)
(0.008340695265 6.79053389e-05 1.515058226e-05)
(0.008347620991 7.271459594e-05 1.028128942e-05)
(0.008426570221 0.0001006718505 1.843113409e-05)
(0.008424227859 0.0001226638268 2.349582111e-05)
(0.008451365 0.000144431663 1.054694046e-05)
(0.008519998386 0.0001762380625 1.597869133e-05)
(0.008648940494 0.0002038457236 9.298026216e-06)
(0.008813207662 0.0002255817391 6.262773196e-06)
(0.008855610848 0.0002896275464 -7.8880372e-06)
(0.008938363702 0.0003804219883 -2.591971369e-05)
(0.009003336223 0.0004321719753 -2.702846589e-05)
(0.009073891575 0.0004955917523 -2.590383859e-05)
(0.009276206953 0.0006090205623 -1.775117938e-05)
(0.009430388304 0.0007299308501 -1.326708664e-05)
(0.009536168442 0.0008725166239 -1.194342478e-05)
(0.009801445987 0.001040563839 -2.865567879e-06)
(0.01014664737 0.001232451224 -1.202915996e-05)
(0.01051595409 0.001449135158 1.569252435e-06)
(0.01089871227 0.001707467963 1.172201501e-05)
(0.01135846627 0.001977915351 4.259191121e-06)
(0.01181151394 0.00229434734 -3.581383478e-06)
(0.01237129196 0.002588286397 -1.083712236e-06)
(0.01296540229 0.002971129964 -1.753338095e-05)
(0.01343050493 0.003196496588 -3.747313236e-05)
(0.01393879932 0.00356199943 -6.365461393e-06)
(0.01443062461 0.003893458607 -1.912919606e-05)
(0.008298189498 2.458335578e-05 8.575825777e-06)
(0.008320796773 1.932979981e-05 2.563789524e-06)
(0.008354650898 2.204451732e-05 1.125653079e-05)
(0.008362283178 4.139947491e-05 -1.163345893e-06)
(0.008376014544 6.502199966e-05 -9.086646609e-06)
(0.008402378767 7.974289983e-05 -2.718892451e-06)
(0.008556461668 7.214320665e-05 -8.185390112e-07)
(0.008559905777 8.277653554e-05 5.029941683e-06)
(0.00863706546 0.0001039870165 -1.004371338e-05)
(0.008659059276 0.0001333892232 -1.858787824e-05)
(0.008602080155 0.0001510581326 -1.954235787e-05)
(0.008631763695 0.0001791280038 -1.577807692e-05)
(0.00866848993 0.0002207105295 2.006594533e-06)
(0.008637121618 0.0002696282404 1.304342343e-06)
(0.008764357629 0.0003435171023 -9.856967158e-07)
(0.008847817632 0.0003756580336 -4.197472665e-06)
(0.009044331755 0.0004967844735 -3.374492763e-06)
(0.009197290846 0.0005908659067 -9.844831465e-06)
(0.009357081616 0.0006652956884 -9.770317068e-07)
(0.009436363941 0.0007809645042 -2.218698996e-05)
(0.009703229786 0.0009592974321 -1.671843136e-05)
(0.009934420229 0.001145764421 -1.169894836e-05)
(0.01027396169 0.001326062005 -2.897397832e-05)
(0.01070987441 0.001571465337 -8.541605162e-06)
(0.01112848774 0.001821691849 -1.691054785e-05)
(0.01168701373 0.002129014528 1.715975766e-05)
(0.01221452587 0.00246838817 9.306363289e-06)
(0.01276990793 0.002825935731 4.710443671e-06)
(0.01327466474 0.003109325914 -5.557959174e-05)
(0.0137135753 0.003420303701 -3.531440283e-05)
(0.008420603339 1.188654041e-05 -1.173354933e-05)
(0.008373085988 2.000022372e-05 2.049812176e-06)
(0.008365712716 2.597150698e-05 -8.11938543e-06)
(0.008375929966 1.160347901e-05 -1.114282565e-06)
(0.008461475762 2.401470801e-05 -6.776187837e-06)
(0.00837894983 2.910116761e-05 -1.398444949e-05)
(0.008381068473 5.972252347e-05 -1.412495612e-05)
(0.008438097512 7.78324633e-05 -1.536832113e-05)
(0.008431928938 7.153323408e-05 1.264662059e-06)
(0.008400561358 9.818096375e-05 -4.535193398e-07)
(0.008445522172 0.0001285964966 -3.502842535e-06)
(0.008527971023 0.0001565934532 1.068252485e-06)
(0.00848079613 0.0001684016623 -2.128364444e-05)
(0.008603069469 0.0001984774849 -5.444989423e-06)
(0.008717663647 0.0002455927849 -1.560252824e-05)
(0.008704798123 0.0003081012254 -4.428780353e-06)
(0.008780670522 0.0003681429862 -7.08166859e-06)
(0.008840109864 0.000444747281 -2.524623664e-05)
(0.00900415478 0.0005390331248 -2.08447906e-05)
(0.009192829056 0.0006247051082 -2.02441699e-05)
(0.009426172314 0.0007134998151 -4.239363906e-05)
(0.009711574946 0.0008846459863 -1.632213771e-05)
(0.01009630697 0.001066262577 -2.917324833e-05)
(0.01028662936 0.00125498409 -3.337763305e-05)
(0.01057298451 0.00144992856 -1.814899514e-05)
(0.0110186473 0.001682970024 -2.578188913e-05)
(0.01133118582 0.001982358085 3.681481481e-06)
(0.01186982547 0.002360309081 1.429510389e-05)
(0.01239833495 0.002627921354 2.954914905e-05)
(0.0130107146 0.003027790776 3.390510688e-06)
(0.008385166119 4.02708558e-06 5.321872628e-06)
(0.008433061181 1.041167116e-05 7.432670083e-06)
(0.008415759992 9.495482769e-06 3.975715776e-06)
(0.008476528551 1.728600735e-05 3.53583161e-06)
(0.008466336875 3.411310691e-05 1.004836406e-05)
(0.008523172573 3.553275773e-05 1.719369788e-05)
(0.008512926482 5.293865751e-05 2.078317011e-05)
(0.008465115526 5.594535894e-05 1.322548634e-05)
(0.008496044951 7.709168008e-05 9.340328235e-06)
(0.008551815282 7.208388202e-05 -4.382471083e-06)
(0.00855687475 0.0001064315248 -1.098504626e-05)
(0.008599571814 0.0001356042417 7.042286554e-07)
(0.008608923179 0.000158426808 -1.779325581e-06)
(0.008660014515 0.0001762720845 -6.69616835e-06)
(0.008647800967 0.0002060305533 -4.632331598e-06)
(0.008761065495 0.0002564082343 -1.756632272e-05)
(0.008786126777 0.0002870105518 -1.23860926e-05)
(0.008861293472 0.0003499447049 -1.020584874e-05)
(0.008971188442 0.0004326502038 -2.386480933e-05)
(0.009111834725 0.0004953136135 -1.337345282e-05)
(0.009160384905 0.0005513112198 -3.225645966e-05)
(0.009269931388 0.0006833463348 -3.081865558e-05)
(0.00949902522 0.0008071255338 -1.543119992e-05)
(0.009832528428 0.0009756603043 -4.299893358e-06)
(0.01021765756 0.001177404315 -1.578174064e-06)
(0.0104341326 0.001350302873 -2.546215149e-05)
(0.01092645699 0.001603065939 -2.241499108e-05)
(0.01147176876 0.001900714758 9.471948336e-06)
(0.01191073632 0.002231943506 2.577134166e-05)
(0.01242282586 0.00251841078 1.798806595e-05)
(0.008305253432 8.273575185e-07 -1.533877328e-05)
(0.00830742476 -1.352770899e-05 -2.09066749e-05)
(0.008351599077 -1.978024171e-05 -8.026460176e-06)
(0.008267676367 -1.470243689e-06 2.11298938e-06)
(0.008323090347 7.188396397e-07 -5.644409517e-06)
(0.008364622012 8.035724878e-06 -1.738436305e-06)
(0.008312411092 2.674985913e-05 -1.673979837e-05)
(0.008366090772 4.069576059e-05 -2.423789956e-05)
(0.008443711083 4.611715014e-05 -1.564276994e-05)
(0.008350056005 7.120459292e-05 -4.883374638e-06)
(0.008390201512 7.802564741e-05 -1.590000596e-05)
(0.008454998407 9.419173196e-05 -2.688370639e-05)
(0.008435853625 0.0001275258098 -2.553632421e-05)
(0.008461177642 0.0001529603671 -2.627906984e-05)
(0.008535228042 0.0001481660925 -9.140347873e-06)
(0.008581198617 0.0001858917603 -5.164963383e-06)
(0.008669958663 0.0002146859701 -1.385524898e-05)
(0.00873634008 0.0002716243224 -6.57919096e-06)
(0.008797267075 0.0003254875192 -7.134712842e-06)
(0.008923265472 0.0004102437754 -3.393034614e-06)
(0.00899402737 0.0004971734218 5.010402167e-06)
(0.00913322064 0.0005143844423 -8.19370969e-06)
(0.009230650369 0.0006073495278 -1.58928129e-05)
(0.009427896663 0.0007097526797 -2.261779598e-05)
(0.009692429802 0.0008867558769 -2.700143525e-05)
(0.0100078935 0.001085330008 -2.354608246e-05)
(0.01032668681 0.0012323285 -4.541620356e-05)
(0.01074241291 0.001494967514 -3.297024806e-05)
(0.01120631687 0.001771086903 -3.190859747e-05)
(0.01170543615 0.002084792159 -2.598728268e-05)
(0.00857053392 -4.564376822e-06 5.571432371e-06)
(0.008476641977 1.901550045e-05 9.90202837e-06)
(0.008428489423 3.140969168e-05 -4.915525182e-06)
(0.008430870732 7.608268668e-06 -1.464055789e-05)
(0.008426822836 9.865348776e-06 -2.070699727e-05)
(0.008446565457 1.360183934e-05 -2.374488254e-05)
(0.008466908927 2.030325689e-05 -1.828215312e-05)
(0.00845209694 3.4747078e-05 -2.785747991e-05)
(0.008462889046 5.455296876e-05 -3.368762998e-05)
(0.008538426746 5.785597442e-05 -2.732686664e-05)
(0.008479827117 6.474680196e-05 -1.560248726e-05)
(0.008437004641 8.174224962e-05 3.114123718e-06)
(0.008504801893 9.885022891e-05 4.442678023e-06)
(0.008585432607 0.0001117136665 1.123149933e-05)
(0.008496551438 0.0001494287672 1.130247726e-06)
(0.008569988762 0.000153456287 -2.286485314e-05)
(0.008578861539 0.0001944911934 -2.22156959e-05)
(0.008566166826 0.0002281637738 -4.021823321e-05)
(0.008664411691 0.0002657804116 -2.61715582e-05)
(0.008734395666 0.0002910603354 -2.549039085e-05)
(0.008953638336 0.0003449896258 -1.657824864e-05)
(0.009076021472 0.0004210779872 -2.538670149e-05)
(0.009213435082 0.0004965919783 -3.390635127e-05)
(0.009365713196 0.0005816546773 -1.214869624e-05)
(0.009471467176 0.0006779100404 -9.477895235e-06)
(0.009707880509 0.0008238124764 -1.115510682e-05)
(0.01001783496 0.001014313117 -1.074891447e-05)
(0.01021209248 0.001183780159 -2.516476357e-05)
(0.01065261928 0.001405925047 -2.56807857e-05)
(0.0111247871 0.001666376743 -2.568209502e-05)
(0.008335999267 4.624376247e-06 8.771973431e-06)
(0.008368778532 1.117705769e-06 9.86404826e-06)
(0.008416047289 1.073959341e-06 -3.520345329e-06)
(0.008451477328 4.557981815e-06 1.472705603e-06)
(0.00840868877 1.606957398e-05 -1.232472435e-05)
(0.008378045136 2.779627542e-05 -1.399376288e-05)
(0.008473527173 2.19637872e-05 -2.452043485e-05)
(0.008392762645 3.447285114e-05 -1.77108139e-06)
(0.008370882099 2.086143761e-05 1.532133047e-05)
(0.008379941576 4.068482372e-05 -3.716155438e-07)
(0.008396066987 7.387523059e-05 -6.855060744e-06)
(0.008448556581 7.370573366e-05 -1.928678768e-05)
(0.00843364454 8.660031806e-05 -3.162599518e-05)
(0.008492622867 9.11669953e-05 -2.498769614e-05)
(0.008533438448 0.0001144119383 -2.732671531e-05)
(0.008613859309 0.0001391893525 -1.107473465e-05)
(0.008633511404 0.0001612232153 6.421208307e-07)
(0.008827068193 0.0001687422077 6.202776294e-06)
(0.008864464731 0.0001925736432 -1.239457079e-05)
(0.008906468099 0.0002496872277 -9.520443229e-06)
(0.008961673077 0.0002611313673 -3.419524972e-06)
(0.009030083021 0.0003349808413 1.522986222e-05)
(0.00905401411 0.0003911225969 -9.550699788e-06)
(0.009135432347 0.0004775068385 -4.493843126e-06)
(0.009363144231 0.0005598945998 -3.470678516e-06)
(0.009482878767 0.0006629840549 -2.629789404e-05)
(0.009759107914 0.0008169416565 -3.241455228e-05)
(0.0100532126 0.0009248057074 -6.725777859e-05)
(0.01020472306 0.001090066542 -4.275047567e-05)
(0.01060043471 0.001310347426 -2.570101215e-05)
(0.008351048245 3.034560607e-06 1.312505863e-06)
(0.008367006513 1.158544572e-05 5.189100527e-06)
(0.008335561711 4.372083894e-06 8.663859646e-06)
(0.00828110421 1.735535301e-05 9.490708013e-06)
(0.008230040338 1.322009947e-05 2.000922547e-05)
(0.008240329416 1.111931919e-05 2.247621197e-05)
(0.008227376313 1.155962441e-05 2.188830171e-05)
(0.008294005806 7.680818155e-06 1.25583318e-05)
(0.008309713457 2.758677214e-05 1.135976137e-05)
(0.008286467038 4.304187363e-05 1.758858759e-05)
(0.008342399138 2.655124908e-05 2.503927103e-05)
(0.008399593743 3.962422327e-05 1.966035347e-05)
(0.008460956581 4.578375599e-05 1.120950997e-05)
(0.008464620299 6.14210097e-05 9.338742333e-06)
(0.008500352082 5.325733435e-05 -9.893659535e-07)
(0.00855037228 6.996484979e-05 2.330495995e-06)
(0.008593348808 0.0001089977023 9.564638514e-07)
(0.008575349162 0.0001243434268 9.196892998e-06)
(0.008647834949 0.0001372306176 1.967399121e-05)
(0.008723300436 0.000180693446 2.729497805e-05)
(0.008828944513 0.0002246551521 1.982122199e-05)
(0.008842946398 0.0002773369054 1.461170258e-05)
(0.008943329198 0.0003226591306 2.266317985e-05)
(0.009095506872 0.0003781165903 4.043826471e-06)
(0.009181697343 0.0004387330587 9.611522921e-06)
(0.009290209649 0.0004760131688 3.619489344e-05)
(0.00949654769 0.0005977466597 2.095023642e-05)
(0.009628935841 0.0007678726707 -1.075640348e-05)
(0.009846388616 0.0008936683609 -1.996747832e-05)
(0.01007511102 0.001075182549 -8.49536837e-06)
(0.008309528457 1.46831456e-05 -1.290825339e-05)
(0.008292540832 1.182623717e-05 2.206110804e-06)
(0.008273907178 1.83312881e-05 -6.857832616e-06)
(0.008316966165 1.516271205e-05 3.071655393e-06)
(0.008420602694 2.504214899e-05 2.02011092e-06)
(0.00838362812 5.531418862e-06 -3.177935468e-06)
(0.008375180203 2.301426925e-05 8.05573142e-06)
(0.008334148691 2.401007528e-05 1.4979519e-06)
(0.008321425537 7.27371368e-06 7.819591566e-06)
(0.008297687422 1.360713202e-05 2.156494318e-05)
(0.008292027862 1.529090062e-05 1.785943998e-05)
(0.008341165963 2.147263097e-05 1.837051331e-05)
(0.008311961408 2.276669763e-05 2.091017199e-05)
(0.008354928997 2.558365931e-05 1.810115886e-05)
(0.00833486581 3.524347754e-05 2.837459168e-05)
(0.008382348999 5.600501173e-05 2.084441363e-05)
(0.0083917144 4.706794892e-05 1.500220624e-05)
(0.008481456794 7.32410421e-05 1.556444331e-05)
(0.008541736981 0.0001003102082 1.016980878e-05)
(0.008571203182 0.0001344978972 -2.45769007e-06)
(0.008557563544 0.0001560126389 -4.309183425e-06)
(0.008652796535 0.0001800110079 -1.150481829e-05)
(0.008794984452 0.0002117556431 -1.088592922e-05)
(0.008868838036 0.0002716199652 -1.085020322e-05)
(0.008881309347 0.0003368738774 -1.990875966e-05)
(0.008961858221 0.0004075375174 -1.577314315e-05)
(0.009053079958 0.0005028579444 2.640321689e-06)
(0.009212411091 0.0006053958164 2.929235607e-05)
(0.009450942612 0.0007165021344 2.148173038e-05)
(0.009678648275 0.0008422467856 8.791096848e-06)
(0.008460003549 1.844131852e-05 -4.32501641e-06)
(0.008398004874 2.07716126e-05 -1.651673159e-05)
(0.008398016805 1.958702718e-05 -1.54836863e-05)
(0.008359122146 1.068232512e-05 -9.015369785e-06)
(0.008289683647 1.636013167e-05 -3.72338028e-06)
(0.008274042789 2.822627023e-05 -2.948341243e-06)
(0.008273657506 1.346352251e-05 -1.620143687e-05)
(0.008313297203 1.6274294e-05 -7.920649554e-06)
(0.008355412053 2.226832389e-05 -1.113186469e-05)
(0.008405891703 1.529322684e-05 -3.842976934e-06)
(0.008422942405 1.144877507e-05 -1.317012942e-05)
(0.008450666325 1.914593697e-05 -1.233573425e-05)
(0.008435531449 2.227733358e-05 -1.113109308e-05)
(0.008468959848 1.955551205e-05 -5.518613756e-06)
(0.008537130261 3.259376342e-05 -6.13564884e-06)
(0.008460087005 2.734777617e-05 -1.028043863e-06)
(0.008464045234 3.956587497e-05 6.1305367e-06)
(0.008413095312 5.156610446e-05 8.335548267e-06)
(0.008445316875 6.586292001e-05 -1.309976742e-05)
(0.008460621789 7.927238403e-05 -2.053682111e-05)
(0.008611655101 0.0001188325732 -1.179938234e-05)
(0.008625171185 0.0001527429446 -2.328433795e-06)
(0.008577837393 0.000173797508 8.466039549e-06)
(0.008684209594 0.0002251373855 4.478569691e-06)
(0.008773478417 0.0002963303544 -3.656587724e-06)
(0.008838471215 0.0003474148304 5.257086345e-06)
(0.008942789395 0.0003754410421 1.99202616e-05)
(0.009091319326 0.0004492383102 1.883072087e-05)
(0.009224591276 0.0005530400778 3.568199222e-05)
(0.009386350323 0.0006988192272 3.160815816e-05)
(0.008320233482 9.365325948e-06 8.61280113e-06)
(0.008315554016 -2.884323128e-06 8.103951677e-06)
(0.008379760259 1.14225879e-05 2.15530046e-06)
(0.008385281784 1.894147287e-05 7.984604749e-07)
(0.00844658432 2.393530756e-05 4.75154801e-06)
(0.008462337344 1.533195731e-05 -1.829108289e-06)
(0.008448384797 1.359194098e-05 -5.891374146e-06)
(0.008452249583 2.481326086e-05 -1.410807824e-05)
(0.008377213036 9.970662213e-06 -1.127907181e-05)
(0.008366266727 1.529609124e-05 -2.16101276e-05)
(0.008394320036 2.870549816e-06 -2.156511582e-05)
(0.008398265966 -1.230210563e-05 -2.439311126e-05)
(0.008388947092 -1.520176738e-06 -2.123521247e-05)
(0.008387396496 1.15929935e-05 -1.307377671e-05)
(0.008380129393 1.894975127e-05 -6.691449106e-06)
(0.008410396875 4.002353842e-05 -2.365076136e-05)
(0.008428646744 4.089813737e-05 -1.31687566e-05)
(0.008535681664 4.723187623e-05 -8.841489563e-06)
(0.008538122907 5.245360157e-05 -1.581496667e-06)
(0.008488734959 7.580488336e-05 -1.570219262e-06)
(0.008464742195 9.375164409e-05 1.585158874e-06)
(0.008501462436 0.0001147001877 1.080812426e-05)
(0.00850049654 0.0001780042914 1.788890216e-05)
(0.008522546178 0.000190285657 8.516583743e-06)
(0.008493546293 0.0002027321448 2.295216364e-05)
(0.008593809292 0.000266341245 4.699777355e-06)
(0.008693016947 0.0003103211787 1.063563888e-05)
(0.008746510063 0.0003496933229 1.090626176e-05)
(0.008895556311 0.0004488866734 -1.781375062e-06)
(0.009045892087 0.000530377318 1.239457489e-05)
(0.008352599954 1.084888712e-05 -6.121952305e-06)
(0.008347188981 2.446955972e-05 3.297536298e-06)
(0.008359653492 8.089605418e-06 5.321146901e-06)
(0.008336765687 8.805476834e-06 2.5420625e-06)
(0.008402591505 7.072184466e-06 -3.568168497e-06)
(0.0083902547 1.251658377e-05 -3.443661656e-06)
(0.008464815587 -8.431053432e-07 1.951174081e-06)
(0.008438555174 3.897570791e-06 8.519338031e-06)
(0.00850954218 2.463047961e-05 1.661974076e-05)
(0.008455667828 1.401894787e-05 6.936570203e-06)
(0.008427930411 1.131759569e-05 1.320350325e-05)
(0.008393762961 2.796709246e-05 1.580958249e-05)
(0.008392270962 1.388148521e-05 3.243596164e-06)
(0.008356639647 2.560664959e-05 -1.331454719e-05)
(0.008389707264 1.412045445e-05 -1.704811062e-05)
(0.008342628365 2.032423897e-05 -6.958536127e-06)
(0.00828892094 2.500666985e-05 -1.800744616e-05)
(0.008273353736 3.31179065e-05 -1.296794634e-05)
(0.008242249132 5.830745238e-05 -1.75659925e-06)
(0.008297673597 6.910346535e-05 7.290967434e-06)
(0.008325315796 8.691434817e-05 -6.582450942e-06)
(0.008337346467 0.0001074832746 -1.297156674e-05)
(0.008334693121 0.0001188348394 -1.593735253e-05)
(0.008501560984 0.0001417735231 -5.023593602e-07)
(0.008588679172 0.0001701079438 -6.778247437e-06)
(0.008743588636 0.0002059431484 -1.162830462e-05)
(0.008760748062 0.0002343933145 -1.527694882e-05)
(0.008878825002 0.0002981893708 -2.532965349e-05)
(0.008975979471 0.0003315839387 -1.337692928e-05)
(0.009111425335 0.0003994066777 -2.126744122e-05)
(0.008277268443 -1.543077237e-05 -2.673686861e-05)
(0.008329566251 -2.616561755e-05 -2.431385399e-05)
(0.008285617845 -7.023149517e-06 -2.734983527e-05)
(0.008310633632 -3.654546201e-06 -2.288359844e-05)
(0.008282833239 -2.497577997e-05 -1.453398297e-05)
(0.008320207023 -2.721918425e-05 6.114599575e-06)
(0.008276834945 -1.150049221e-05 -4.601125766e-07)
(0.00837596203 -4.768778515e-06 -1.474991182e-05)
(0.008363544787 -7.053816297e-06 -1.722240236e-05)
(0.008377841846 2.26312986e-05 -1.916883938e-05)
(0.008473653839 2.807254307e-05 -1.887461004e-05)
(0.008420789819 2.655905508e-05 -2.413379236e-05)
(0.008416712028 3.416176119e-05 -1.784134625e-05)
(0.008452590363 2.993050458e-05 -1.101381934e-05)
(0.008482665577 3.866697962e-05 -1.170429696e-05)
(0.008437071964 3.421879398e-05 -1.05104784e-05)
(0.008462942276 4.331864475e-05 -4.001715842e-07)
(0.00849241523 4.42524686e-05 -3.562029162e-06)
(0.008437888659 4.816791009e-05 -1.025134673e-05)
(0.008480585126 6.367472679e-05 -2.166418651e-05)
(0.008448401658 7.295641307e-05 -1.762023833e-05)
(0.00846837615 8.255311661e-05 -6.443208146e-06)
(0.008542420658 7.810803044e-05 -4.171607863e-07)
(0.008543121733 9.978822778e-05 -7.59112524e-06)
(0.008568177396 0.0001195987562 -1.771041538e-05)
(0.008617672936 0.0001351246419 -6.633951231e-06)
(0.008736886173 0.0002041878352 -1.073862711e-05)
(0.008781695882 0.000216511955 9.208506861e-06)
(0.008878488447 0.0002646613126 1.2216046e-05)
(0.008926536148 0.0003282572064 -1.594210478e-06)
(0.008346568481 -5.815685935e-06 9.886934503e-06)
(0.008365333324 -7.269624082e-06 9.243200052e-06)
(0.008342366366 -1.178477621e-05 4.762660997e-06)
(0.008317079343 -1.258223806e-05 -6.404573583e-06)
(0.008364416345 -5.63885937e-06 -8.388383583e-06)
(0.008353352693 -7.588273803e-06 -1.655255372e-05)
(0.008295163206 -3.455625512e-07 -2.012754695e-05)
(0.008223008542 -9.655870458e-06 -1.478969935e-05)
(0.008261329687 -5.206498855e-06 -1.188412288e-05)
(0.008340646506 -2.170628048e-05 -1.80841666e-05)
(0.008300827199 -2.092387368e-05 -2.041409273e-05)
(0.008340952405 7.017869134e-07 -1.713053567e-05)
(0.008344796407 9.093299966e-06 -1.919714378e-05)
(0.008316210352 2.271931969e-05 -1.376004593e-05)
(0.008266340196 2.789299274e-05 -1.092975774e-05)
(0.008298513792 2.750872136e-05 -2.18550367e-05)
(0.008304537854 2.997008652e-05 -1.49941167e-05)
(0.008356831593 3.147140832e-05 -2.660714746e-05)
(0.008338644755 3.880012227e-05 -1.87518004e-05)
(0.00839035409 4.368917809e-05 -1.170646412e-05)
(0.008475375344 5.18504554e-05 -1.175790847e-05)
(0.008515763726 5.927702914e-05 -8.981916606e-06)
(0.008549089432 7.004674579e-05 -1.997311069e-05)
(0.008549032558 8.025454193e-05 -2.322290291e-05)
(0.008478674969 8.663535722e-05 -5.716213124e-06)
(0.008514989535 0.0001107787648 -5.178714629e-06)
(0.008551453863 0.0001340800103 -3.259063507e-06)
(0.008587711972 0.0001760372749 1.009554279e-06)
(0.008706947793 0.0001943776942 5.38331978e-06)
(0.008782496126 0.0002432644602 1.220905827e-05)
(0.008304672557 -5.92970051e-06 -7.254452982e-06)
(0.008312791679 -6.912882287e-06 -9.597102359e-06)
(0.008387271539 -6.421094532e-06 -9.406476355e-07)
(0.008361125024 -1.091693351e-05 -4.553931594e-06)
(0.008393641273 -5.612217336e-06 -5.563534491e-06)
(0.00835559123 -4.102189314e-06 -1.753327214e-06)
(0.008446029281 -1.199795243e-05 -7.256415896e-07)
(0.008414087459 -5.17191587e-06 4.903015775e-06)
(0.008376498161 -3.158628163e-06 2.84150954e-06)
(0.008265761678 -3.22590857e-06 3.681569766e-06)
(0.008230872907 -6.245023536e-06 -3.274257989e-07)
(0.00822112097 5.712506761e-06 -1.483858062e-06)
(0.008355601168 -3.491651155e-06 4.048417029e-06)
(0.008398725703 1.647426124e-06 1.337623122e-06)
(0.008522390537 2.416823533e-05 7.929169241e-06)
(0.008472969126 2.183979502e-05 4.576423091e-06)
(0.008422738029 2.301106074e-05 -1.578774093e-07)
(0.008430755647 3.626048037e-05 -1.011337327e-05)
(0.008445217579 2.752576703e-05 -8.751346977e-06)
(0.008458064625 2.029512095e-05 -1.091978844e-05)
(0.008393065308 1.860433541e-05 -2.082021968e-05)
(0.008423444245 4.224223808e-05 -2.159175404e-05)
(0.008400177372 6.728009749e-05 -2.333314694e-05)
(0.008475903951 8.841625396e-05 -1.415464627e-05)
(0.00856903898 8.301409125e-05 -1.127563633e-05)
(0.008590425936 7.47808151e-05 -1.338832413e-05)
(0.008657314635 8.616054507e-05 -1.423894902e-06)
(0.008630940546 0.0001238553479 -9.954051399e-06)
(0.008707170699 0.0001523604461 -1.280141322e-05)
(0.0087227026 0.0001920827246 -4.907752019e-06)
(0.008338977736 -1.982962646e-05 4.282103597e-06)
(0.008340002353 -1.938038552e-05 2.187178455e-06)
(0.008337265628 -7.691912637e-06 -1.017201133e-05)
(0.008320028837 -1.101431898e-05 -6.041647549e-06)
(0.008292539981 -6.804666717e-06 -1.52949483e-05)