/*--------------------------------*- C++ -*----------------------------------*\
  =========                 |
  \\      /  F ield         | OpenFOAM: The Open Source CFD Toolbox
   \\    /   O peration     | Website:  https://openfoam.org
    \\  /    A nd           | Version:  7
     \\/     M anipulation  |
\*---------------------------------------------------------------------------*/
FoamFile
{
    version     2.0;
    format      ascii;
    class       volScalarField;
    location    "0.006";
    object      rhoM;
}
// * * * * * * * * * * * * * * * * * * * * * * * * * * * * * * * * * * * * * //

dimensions      [1 -3 0 0 0 0 0];

internalField   nonuniform List<scalar> 
654
(
1.078677703e-05
1.57309285e-05
1.77879258e-05
1.30690891e-05
1.003193181e-05
1.274955919e-05
1.353062165e-05
1.263721604e-05
1.379409947e-05
6.252555683e-06
7.905058212e-06
6.900835539e-06
9.764249705e-06
1.596301579e-05
1.389917597e-05
1.003193181e-05
1.771722417e-05
1.230015085e-05
7.556013857e-06
6.863346063e-06
7.258855446e-06
8.085117819e-06
9.955974963e-06
4.414398588e-06
8.380453009e-06
1.391360011e-05
1.261439199e-05
9.94610748e-06
5.243642741e-06
1.213136474e-05
8.56056655e-06
1.068221176e-05
1.068729663e-05
1.040729399e-05
6.885581617e-06
4.4674089e-06
5.868817917e-06
7.617597768e-06
4.81936912e-06
2.306091523e-06
5.313833931e-06
5.274165168e-06
6.752092747e-06
9.191955559e-06
1.167302142e-05
8.309088138e-06
8.119418196e-06
1.074343968e-05
9.505060182e-06
1.04841433e-05
1.021696384e-05
1.213356221e-05
1.049374066e-05
1.049705669e-05
1.218671334e-05
1.551550043e-05
4.990216321e-06
3.199892151e-06
6.063765344e-06
5.49138982e-06
3.896745803e-06
3.298783115e-06
4.511506095e-06
4.546909599e-06
2.894344269e-06
7.050267603e-06
7.597399786e-06
3.210922512e-06
4.234117708e-06
5.021862172e-06
3.629427693e-06
1.787495511e-06
7.381438961e-06
6.75204634e-06
8.206429731e-06
1.276840735e-05
8.971726115e-06
8.423471509e-06
9.944464195e-06
7.479273191e-06
9.296697033e-06
7.338234495e-06
1.153043622e-05
1.211154881e-05
4.768550219e-06
5.4040044e-06
7.333691741e-06
6.551635767e-06
6.140264422e-06
5.027040039e-06
6.079073543e-06
6.439129954e-06
5.540780514e-06
4.147484779e-06
5.305974966e-06
3.7270545e-06
3.594172433e-06
7.164505574e-06
4.732602133e-06
6.779917324e-06
4.811196469e-06
6.127970373e-06
5.749934814e-06
5.712628509e-06
6.372877165e-06
7.573279141e-06
1.092585765e-05
5.646138217e-06
1.437496416e-05
1.322675016e-05
1.261039329e-05
1.01245093e-05
8.249050604e-06
8.325835191e-06
4.321218212e-06
6.454883523e-06
7.486235188e-06
6.475710058e-06
2.302368043e-06
2.784235452e-06
4.910237584e-06
3.455327518e-06
3.878546389e-06
5.025835013e-06
4.743132015e-06
4.052079843e-06
6.125983154e-06
7.164505631e-06
5.97781318e-06
3.599538932e-06
4.895318031e-06
4.25564888e-06
6.780576137e-06
6.059796086e-07
3.841128555e-06
3.96217034e-06
7.283191849e-06
8.423471509e-06
8.951106684e-06
5.838392668e-06
1.003282768e-05
1.588445141e-05
8.249050678e-06
9.556306112e-06
4.39547446e-06
5.628417973e-06
4.385507167e-06
5.636856611e-06
3.914395458e-06
6.186982941e-06
3.35116382e-06
2.748985908e-06
3.324468334e-06
4.626410228e-06
2.894344246e-06
4.538641796e-06
5.228423928e-06
5.270782947e-06
3.570138425e-06
4.771575665e-06
5.57032403e-06
5.447312573e-06
6.265255452e-06
1.116644489e-05
6.897049736e-06
4.490884e-06
7.106127104e-06
5.108102349e-06
1.148282091e-05
6.4770012e-06
8.744044799e-06
9.196496872e-06
6.749633796e-06
1.106967993e-05
5.960239096e-06
6.905518554e-06
3.251449917e-06
7.770118045e-06
6.140264422e-06
3.867097183e-06
3.896745774e-06
1.805935961e-06
3.324468334e-06
3.430057365e-06
5.145716067e-06
4.700178328e-06
5.391258692e-06
1.729568642e-06
7.140276907e-06
6.61305957e-06
5.57032394e-06
8.169943705e-06
4.806903081e-06
6.146066782e-06
4.976485485e-06
7.485513676e-06
7.550928657e-06
9.67816888e-06
7.775356866e-06
1.094726092e-05
8.56056655e-06
1.216792666e-05
1.153043622e-05
8.231534149e-06
4.246961997e-06
4.953369373e-06
8.846375232e-06
7.009025365e-06
3.914395487e-06
5.181202367e-06
5.533491677e-06
3.926852502e-06
2.770390278e-06
4.546909564e-06
6.351531447e-06
7.536829524e-06
5.718896139e-06
3.046768445e-06
6.060560594e-06
4.688146816e-06
8.524745823e-06
4.851480726e-06
5.578850366e-06
3.116168688e-06
6.19885385e-06
4.31535316e-06
5.773862007e-06
8.244845776e-06
7.23253558e-06
5.290699971e-06
6.81087055e-06
8.45363935e-06
6.749633796e-06
8.231534224e-06
2.607941132e-06
4.878564933e-06
6.427538871e-06
5.409079302e-06
3.837896351e-06
4.331446923e-06
4.519999791e-06
2.748985888e-06
4.669269359e-06
3.908982788e-06
7.074633288e-06
5.83483876e-06
5.228423887e-06
6.505905729e-06
4.234117674e-06
7.199077864e-06
6.161208339e-06
6.04314442e-06
5.835476966e-06
5.712628413e-06
1.396391668e-06
4.490884e-06
8.438392202e-06
6.990148405e-06
8.498392716e-06
2.645350032e-06
8.56056655e-06
8.081091941e-06
9.281311092e-06
7.380546348e-06
4.84280647e-06
3.302246273e-06
6.502899834e-06
6.551635815e-06
3.7613973e-06
3.633990819e-06
3.896745774e-06
3.377055316e-06
3.957428039e-06
5.90226378e-06
4.100159627e-06
3.565517953e-06
3.594172489e-06
7.08242861e-06
4.732602133e-06
7.19907798e-06
4.136190476e-06
4.255648845e-06
3.690719511e-06
4.241857295e-06
8.119418196e-06
4.31535316e-06
9.060258564e-06
3.764092145e-06
6.599607106e-06
4.286230598e-06
5.246870378e-06
3.343977299e-06
5.250217035e-06
1.078677693e-05
6.407571103e-06
5.929443938e-06
3.780798049e-06
8.075656134e-06
3.914395458e-06
5.027040076e-06
3.428835918e-06
7.460452165e-06
4.9867025e-06
5.264337004e-06
4.020030125e-06
5.99637541e-06
2.940865449e-06
3.541214277e-06
4.234117674e-06
3.013520585e-06
3.038543369e-06
4.340474833e-06
3.089856651e-06
8.656255883e-06
6.198853902e-06
3.698874169e-06
7.017594732e-06
7.079461272e-06
4.610714249e-06
7.845134145e-06
3.313696143e-06
2.786274804e-06
6.749633796e-06
5.393388516e-06
5.065575119e-06
5.329199967e-06
4.914855322e-06
6.094246168e-06
4.989080401e-06
1.778454847e-06
4.442327728e-06
4.083396905e-06
4.511506095e-06
5.663761832e-06
6.351531497e-06
2.8366511e-06
5.963148301e-06
5.434936989e-06
1.021193085e-05
1.841483905e-06
4.304433712e-06
5.616964479e-06
1.888130855e-06
5.626357815e-06
3.229944358e-06
2.465916071e-06
5.862394329e-06
2.688020475e-06
9.764249705e-06
5.199784136e-06
7.271783746e-06
7.153079514e-06
6.936496357e-06
5.581990399e-06
3.352297983e-06
2.101758152e-06
2.268114547e-06
8.988600275e-06
5.526422872e-06
4.408528081e-06
1.636745874e-06
6.36085785e-06
4.669269395e-06
1.061009614e-05
2.894344224e-06
3.72705453e-06
5.391258734e-06
4.776337087e-06
5.063591751e-06
4.352414977e-06
7.595341847e-06
4.766654773e-06
3.175398826e-06
6.92458763e-06
4.365301213e-06
6.869034711e-06
5.773862007e-06
6.990148405e-06
7.142428335e-06
5.381615851e-06
4.049826701e-06
4.644537181e-06
4.687371187e-06
5.299087598e-06
3.725373774e-06
3.752881303e-06
4.990216321e-06
6.627561571e-06
4.528237041e-06
4.94995895e-06
6.70232759e-06
3.455327492e-06
1.06044582e-05
5.18483634e-06
3.939900656e-06
5.42904519e-06
3.512755086e-06
2.882614403e-06
4.732602133e-06
5.943612417e-06
3.713549323e-06
6.808628117e-06
5.063529681e-06
2.596459725e-06
1.100131614e-05
3.874404972e-06
6.395728369e-06
6.63073832e-06
6.329285369e-07
6.658833021e-06
3.221956981e-06
4.55195965e-06
6.749633796e-06
3.406230654e-06
4.543986892e-06
3.302246273e-06
6.048912595e-06
4.570225894e-06
5.373424715e-06
8.506868607e-06
6.079073589e-06
3.926852473e-06
5.223347411e-06
3.350556675e-06
2.814214776e-06
5.834838805e-06
3.431337656e-06
7.823105532e-06
3.154401418e-06
6.193898867e-06
4.81119643e-06
3.57499108e-06
4.377124596e-06
4.414398588e-06
5.063497047e-06
3.874404939e-06
4.530129282e-06
3.404682056e-06
4.430499758e-06
4.013482954e-06
8.007914311e-06
6.780532029e-06
8.155619323e-06
3.406230685e-06
4.246961997e-06
8.405224704e-06
5.594925403e-06
5.560930813e-06
6.063765344e-06
4.872877825e-06
3.35116382e-06
3.926852473e-06
4.590387745e-06
7.577542176e-06
4.663002582e-06
5.186740283e-06
2.287558455e-06
5.434937032e-06
2.324927359e-06
4.185557313e-06
5.317959227e-06
4.510126702e-06
4.97798744e-06
4.934107514e-06
5.674681277e-06
3.170160515e-06
3.109331786e-06
4.032030712e-06
3.344857176e-06
2.554434127e-06
8.744044799e-06
4.644537181e-06
5.906494111e-06
2.743844716e-06
3.873886206e-06
6.454883476e-06
4.914855322e-06
7.236802686e-06
1.765025572e-06
5.722633155e-06
3.896745774e-06
5.104719076e-06
4.748151045e-06
3.988483451e-06
8.763162209e-06
4.700178402e-06
4.656534314e-06
7.164505631e-06
8.219993172e-06
4.185557313e-06
4.727074791e-06
7.574111864e-06
1.20172577e-06
3.808418942e-06
5.587669626e-06
8.2775235e-06
5.685329634e-06
2.598707608e-06
7.05232109e-06
4.013482954e-06
3.405435335e-06
8.546216916e-06
7.499342267e-06
6.24437645e-06
6.704596062e-06
4.953369445e-06
4.310146235e-06
3.199892151e-06
5.065579479e-06
1.159942856e-06
3.273491723e-06
1.727663759e-06
5.777425506e-06
5.743262453e-06
1.157737689e-05
3.646286199e-06
6.862675312e-06
8.317551392e-06
1.16246367e-06
6.110470068e-06
4.13619051e-06
4.425300786e-06
9.699348363e-06
4.241857295e-06
3.928140225e-06
7.573279141e-06
4.530129282e-06
7.079461272e-06
5.243642741e-06
5.108868255e-06
3.313696172e-06
3.994257225e-06
5.62394211e-06
7.474847246e-06
3.79962999e-06
5.4040044e-06
4.46086813e-06
4.266522868e-06
6.29326258e-06
1.082861739e-06
4.36465563e-06
4.083396874e-06
4.036309689e-06
6.780614014e-06
2.974473716e-06
7.456061221e-06
5.881730899e-06
6.423828657e-06
1.743695506e-06
6.613059517e-06
4.136190476e-06
5.021132633e-06
4.977987522e-06
7.444296656e-06
5.674681229e-06
5.019597584e-06
3.90826292e-06
8.961507328e-06
4.520607004e-06
4.470259723e-06
3.313696143e-06
3.343977269e-06
1.96883137e-06
1.987157831e-06
3.79962999e-06
4.353125356e-06
2.268114547e-06
2.666576773e-06
4.375238883e-06
4.408528081e-06
1.714417959e-06
4.005124674e-06
5.777425462e-06
4.467408934e-06
4.180289097e-06
4.052079843e-06
5.147006525e-06
5.51701401e-06
4.898096923e-06
4.771575665e-06
6.836214348e-06
3.744642986e-06
6.951660537e-06
3.116168688e-06
2.531748524e-06
4.31535316e-06
4.530129243e-06
3.764092145e-06
5.333750032e-06
7.297441494e-06
6.902609772e-06
3.436554729e-06
3.468248179e-06
4.068616592e-06
2.682197348e-06
4.878564898e-06
8.166305215e-06
3.275817907e-06
6.677606894e-06
3.248585216e-06
6.624655543e-06
3.848580272e-06
6.489266862e-06
3.430057339e-06
2.251371821e-06
4.052079843e-06
2.531810645e-06
4.117737186e-06
4.316865123e-06
4.938433364e-06
4.895317991e-06
4.255648845e-06
2.403451541e-06
5.712628461e-06
1.833552689e-06
4.403118561e-06
5.151995644e-06
4.570066531e-06
3.344857176e-06
7.115609731e-06
6.074740052e-06
5.387394627e-06
3.46824821e-06
3.311929749e-06
6.481827318e-06
5.254395417e-06
2.797462722e-06
3.885059022e-06
3.7613973e-06
4.408528048e-06
4.519999825e-06
5.497971858e-06
3.957428039e-06
3.908982788e-06
6.431660868e-06
3.484749623e-06
4.81936912e-06
5.02256815e-06
4.316865088e-06
4.102128464e-06
3.038543394e-06
6.127970373e-06
7.295896822e-06
4.24185726e-06
5.674681277e-06
6.869034711e-06
2.664530195e-06
7.796122824e-06
4.700821454e-06
7.206525613e-06
5.983000943e-06
3.901679735e-06
6.093356672e-06
4.257218523e-06
)
;

boundaryField
{
    flow
    {
        type            zeroGradient;
    }
    obstacle
    {
        type            calculated;
        value           nonuniform 0();
    }
    frontAndBack
    {
        type            empty;
    }
    procBoundary3to1
    {
        type            processor;
        value           nonuniform List<scalar> 
36
(
1.409870675e-05
1.699678528e-05
1.012462318e-05
1.389917597e-05
1.467646899e-05
1.068729654e-05
1.068729654e-05
1.575338473e-05
1.571466363e-05
7.661044412e-06
1.62549179e-05
1.344226111e-05
1.344226111e-05
2.573169603e-06
2.427502277e-06
5.486202384e-06
8.596123642e-06
1.004151716e-05
1.004151716e-05
2.770390278e-06
6.860114678e-06
4.743132052e-06
5.915607107e-06
5.800313496e-06
1.070571994e-05
1.070571994e-05
7.182969868e-06
5.560930854e-06
4.375238883e-06
3.790016086e-06
7.71581945e-06
8.40350219e-06
8.40350219e-06
3.725373801e-06
5.404004479e-06
5.404004479e-06
)
;
    }
    procBoundary3to2
    {
        type            processor;
        value           nonuniform List<scalar> 
19
(
4.216059536e-06
2.736396573e-06
5.9905861e-06
5.177929508e-06
2.218603618e-06
2.218603618e-06
4.807568425e-06
6.434663154e-06
2.218603618e-06
4.289775436e-06
4.73385249e-06
6.952456108e-06
5.916870199e-06
5.843154258e-06
5.472793184e-06
4.216059536e-06
3.698266581e-06
6.434663154e-06
3.106757727e-06
)
;
    }
}


// ************************************************************************* //
