/*--------------------------------*- C++ -*----------------------------------*\
  =========                 |
  \\      /  F ield         | OpenFOAM: The Open Source CFD Toolbox
   \\    /   O peration     | Website:  https://openfoam.org
    \\  /    A nd           | Version:  7
     \\/     M anipulation  |
\*---------------------------------------------------------------------------*/
FoamFile
{
    version     2.0;
    format      ascii;
    class       volScalarField;
    location    "0.006";
    object      rhoMMean;
}
// * * * * * * * * * * * * * * * * * * * * * * * * * * * * * * * * * * * * * //

dimensions      [1 -3 0 0 0 0 0];

internalField   nonuniform List<scalar> 
654
(
4.503423096e-06
4.040807826e-06
4.072789076e-06
3.876979899e-06
4.298119763e-06
4.43828382e-06
4.471928907e-06
3.736514488e-06
3.548378351e-06
3.681088462e-06
3.63415029e-06
3.779380082e-06
4.005410762e-06
4.056663933e-06
4.032017294e-06
4.14966304e-06
4.293529881e-06
4.560310701e-06
3.562491997e-06
3.58065301e-06
3.606608574e-06
3.600198825e-06
3.619175047e-06
3.753925378e-06
3.590998703e-06
3.843155418e-06
3.836443016e-06
3.778889086e-06
3.870560144e-06
4.066033889e-06
4.116717706e-06
4.135872257e-06
4.335475672e-06
4.491273276e-06
3.330196508e-06
3.518917945e-06
3.496174237e-06
3.537243976e-06
3.558449927e-06
3.690080034e-06
3.601156039e-06
3.361488897e-06
3.521860453e-06
3.650763379e-06
3.729052323e-06
3.652685919e-06
3.762047745e-06
3.656511144e-06
3.938087095e-06
3.946960701e-06
3.899095227e-06
3.996203203e-06
4.197426421e-06
4.200397798e-06
4.295053667e-06
4.382778352e-06
3.512797489e-06
3.528893211e-06
3.630908207e-06
3.565193574e-06
3.46933369e-06
3.494649959e-06
3.301962914e-06
3.402789678e-06
3.440934906e-06
3.525056043e-06
3.460340727e-06
3.576211132e-06
3.544387092e-06
3.533780952e-06
3.635317645e-06
3.612713541e-06
3.590128746e-06
3.617174297e-06
3.739642532e-06
3.914130195e-06
3.965970836e-06
3.835892102e-06
4.014430652e-06
4.101771302e-06
4.179797536e-06
4.489158776e-06
4.414291928e-06
4.505137472e-06
3.37930197e-06
3.468952206e-06
3.331159911e-06
3.476948498e-06
3.513178359e-06
3.51571383e-06
3.47670537e-06
3.490248769e-06
3.496079348e-06
3.552666097e-06
3.499484318e-06
3.589190167e-06
3.520184676e-06
3.369968964e-06
3.493489765e-06
3.60733921e-06
3.566956493e-06
3.60374443e-06
3.611039437e-06
3.56367561e-06
3.618244494e-06
3.786512739e-06
3.828337534e-06
3.892705282e-06
4.005067372e-06
3.999207822e-06
4.129350549e-06
4.430999601e-06
4.340833113e-06
4.75502026e-06
3.441854419e-06
3.478728646e-06
3.369056051e-06
3.437469272e-06
3.538789835e-06
3.462749161e-06
3.449201025e-06
3.546238512e-06
3.458759378e-06
3.473657408e-06
3.526350607e-06
3.494143798e-06
3.629991063e-06
3.549010382e-06
3.523581463e-06
3.691432238e-06
3.588407387e-06
3.710955209e-06
3.71633393e-06
3.75382726e-06
3.807646087e-06
3.95449701e-06
3.936110586e-06
4.063879518e-06
3.979785732e-06
4.171827381e-06
4.106176848e-06
4.233940628e-06
4.339977686e-06
4.638973186e-06
3.56578089e-06
3.518974151e-06
3.586346273e-06
3.517807438e-06
3.520509482e-06
3.521041148e-06
3.512390601e-06
3.595894669e-06
3.551703489e-06
3.441697181e-06
3.65447443e-06
3.679116903e-06
3.840998817e-06
3.728361732e-06
3.613290076e-06
3.744437229e-06
3.665426799e-06
3.671969098e-06
3.666907939e-06
3.813381633e-06
3.86966226e-06
3.767124894e-06
3.8407137e-06
3.9429606e-06
4.129744549e-06
4.115977563e-06
4.112087567e-06
4.478623867e-06
4.266971122e-06
4.551900726e-06
3.337026179e-06
3.653807813e-06
3.596231714e-06
3.618019344e-06
3.579923998e-06
3.468619668e-06
3.573317674e-06
3.676986353e-06
3.592838006e-06
3.546048754e-06
3.577904306e-06
3.784268146e-06
3.812073389e-06
3.610409036e-06
3.619751903e-06
3.676078503e-06
3.700840239e-06
3.754962336e-06
3.919685916e-06
3.863688398e-06
3.841912951e-06
3.877485743e-06
3.882910888e-06
3.972175891e-06
4.018174413e-06
4.116776762e-06
4.285034588e-06
4.459959108e-06
4.396725907e-06
4.686473765e-06
3.545774086e-06
3.709984392e-06
3.614957381e-06
3.732241245e-06
3.641323356e-06
3.46666203e-06
3.668063346e-06
3.655053583e-06
3.7020794e-06
3.688786765e-06
3.541868558e-06
3.720067409e-06
3.65418966e-06
3.643281916e-06
3.870707948e-06
3.727203836e-06
3.701833239e-06
3.70450314e-06
3.891582848e-06
4.002590186e-06
3.933503246e-06
3.872528191e-06
4.066003357e-06
4.034748953e-06
4.192202899e-06
4.287275955e-06
4.344633186e-06
4.447187663e-06
4.443700388e-06
4.515420022e-06
3.72720179e-06
3.720783792e-06
3.648846645e-06
3.512618388e-06
3.606190196e-06
3.606178583e-06
3.723757939e-06
3.717605391e-06
3.629858813e-06
3.863293124e-06
3.730154951e-06
3.693825136e-06
3.593327704e-06
3.758070225e-06
3.692122946e-06
3.700115812e-06
3.639029191e-06
3.805532815e-06
3.986470684e-06
3.990838178e-06
3.860688411e-06
4.008879332e-06
4.043520681e-06
3.918099514e-06
4.232118903e-06
4.144270933e-06
4.302850647e-06
4.404944118e-06
4.485680524e-06
4.75960549e-06
3.756316134e-06
3.729401124e-06
3.604812088e-06
3.559420946e-06
3.864731146e-06
3.958494905e-06
3.628741526e-06
3.760974238e-06
3.708816989e-06
3.832904095e-06
3.801962605e-06
3.862154227e-06
3.698393899e-06
3.766256932e-06
3.754030958e-06
3.778647456e-06
3.742132539e-06
3.782252032e-06
3.893786701e-06
4.114965686e-06
4.055279392e-06
4.221499952e-06
3.918215902e-06
3.942033417e-06
4.075596356e-06
4.175105938e-06
4.412809042e-06
4.473773798e-06
4.522281594e-06
4.547116976e-06
3.654480998e-06
3.567329855e-06
3.653897852e-06
3.803977425e-06
3.763695354e-06
3.80108565e-06
3.877283477e-06
3.916067935e-06
3.902162268e-06
3.934891357e-06
3.818440519e-06
3.81258198e-06
3.68909064e-06
3.758650272e-06
3.827730625e-06
3.865862553e-06
3.834967883e-06
3.888541802e-06
3.865968375e-06
4.013175011e-06
4.083460812e-06
4.000311643e-06
4.02467238e-06
4.11635375e-06
3.962964114e-06
4.110705907e-06
4.496146133e-06
4.439609308e-06
4.541455947e-06
4.495652906e-06
3.791458543e-06
3.738590429e-06
3.713300277e-06
3.660812083e-06
3.948334316e-06
3.856560278e-06
3.842884281e-06
3.902090977e-06
3.793018186e-06
3.836823996e-06
3.621451514e-06
3.710927141e-06
3.759572939e-06
3.914601188e-06
3.702633618e-06
3.780179223e-06
3.740102129e-06
3.99649799e-06
3.970356618e-06
3.942933069e-06
4.111222509e-06
4.071223632e-06
4.154114608e-06
4.099419383e-06
3.988313162e-06
4.208290875e-06
4.578652939e-06
4.504511629e-06
4.556315285e-06
4.608077469e-06
3.800348697e-06
3.885539731e-06
3.900447276e-06
3.833966952e-06
3.869599123e-06
3.960642028e-06
3.986289687e-06
4.010306986e-06
3.919084646e-06
3.882816021e-06
3.727107206e-06
3.849422818e-06
3.767015405e-06
3.852362257e-06
3.954262504e-06
3.87389323e-06
4.00798077e-06
4.052609973e-06
4.056039493e-06
4.058651945e-06
3.958657256e-06
4.1637812e-06
4.094047524e-06
4.104951295e-06
4.053484747e-06
4.260587063e-06
4.556121372e-06
4.636367427e-06
4.686963213e-06
4.551936759e-06
3.894953808e-06
3.916513723e-06
3.886499303e-06
3.809965926e-06
3.872721824e-06
3.976642533e-06
3.965675468e-06
3.900544421e-06
3.897815913e-06
3.928891419e-06
3.724233762e-06
3.946796937e-06
4.131664767e-06
3.780324008e-06
4.075430833e-06
4.144714766e-06
4.088657875e-06
3.965551434e-06
3.961632261e-06
3.93772248e-06
4.128879994e-06
4.124646669e-06
4.305450704e-06
4.195353364e-06
4.231200861e-06
4.270141088e-06
4.44128676e-06
4.580814832e-06
4.668436209e-06
4.647924328e-06
3.987623276e-06
3.877470363e-06
3.96987658e-06
4.083325487e-06
3.811450963e-06
4.029270515e-06
3.908290445e-06
3.968748752e-06
4.040423023e-06
3.887221462e-06
3.938952528e-06
3.954914762e-06
4.033174767e-06
3.877770096e-06
3.922982565e-06
4.153783071e-06
4.093354198e-06
4.163148271e-06
4.094057359e-06
4.174984079e-06
4.188180286e-06
4.17885127e-06
4.406372972e-06
4.340088725e-06
4.146413392e-06
4.395812068e-06
4.391401574e-06
4.58501144e-06
4.592654125e-06
4.570742591e-06
4.170918322e-06
3.97188458e-06
4.020300805e-06
3.961200523e-06
3.810678962e-06
3.953045229e-06
3.82521955e-06
4.02653886e-06
4.119697603e-06
3.940077105e-06
4.036039347e-06
3.988324696e-06
4.129558246e-06
3.958259168e-06
4.052571714e-06
4.004866473e-06
4.044394697e-06
3.958552823e-06
4.219400337e-06
4.33189358e-06
4.147480499e-06
4.120855752e-06
4.340164986e-06
4.320072352e-06
4.27757152e-06
4.451118313e-06
4.509345393e-06
4.46405713e-06
4.569612635e-06
4.596919377e-06
4.111939669e-06
4.074344055e-06
4.023135531e-06
3.931171418e-06
3.825351763e-06
3.93507769e-06
3.975470708e-06
4.050941215e-06
4.089718206e-06
3.995647638e-06
3.990229579e-06
3.938147602e-06
4.119185849e-06
4.122523359e-06
4.026516778e-06
4.091023689e-06
4.139422982e-06
4.073589884e-06
4.142350109e-06
4.2959513e-06
4.368482839e-06
4.238172903e-06
4.297730289e-06
4.425169671e-06
4.706769984e-06
4.547578507e-06
4.35199928e-06
4.323543146e-06
4.449120384e-06
4.539772219e-06
4.1490715e-06
4.108503711e-06
4.056379536e-06
4.10566471e-06
4.095509376e-06
4.034929961e-06
4.074600876e-06
4.052471582e-06
3.988315567e-06
3.919408903e-06
4.186971281e-06
4.126439111e-06
4.249656343e-06
4.151724842e-06
4.056344897e-06
4.142627835e-06
4.126326595e-06
4.096256386e-06
4.248784936e-06
4.366901949e-06
4.418471649e-06
4.265809761e-06
4.251498202e-06
4.347948669e-06
4.340655084e-06
4.49954599e-06
4.470992181e-06
4.711280797e-06
4.528909622e-06
4.622365823e-06
4.366633254e-06
4.187524108e-06
4.052330505e-06
4.114313671e-06
4.230851192e-06
3.981708928e-06
4.101777662e-06
4.120955865e-06
4.089479019e-06
3.977303961e-06
3.958626774e-06
4.11841188e-06
4.017739897e-06
4.12748944e-06
4.092416186e-06
4.505505569e-06
4.509427936e-06
4.3470031e-06
4.443726687e-06
4.506929459e-06
4.458518293e-06
4.184747108e-06
4.343984753e-06
4.350283036e-06
4.333966859e-06
4.423536193e-06
4.504852946e-06
4.543696427e-06
4.455098346e-06
4.659602686e-06
4.359541599e-06
4.355054303e-06
4.159808216e-06
4.138635344e-06
4.277797468e-06
4.194444064e-06
4.096509335e-06
4.195841473e-06
4.118605303e-06
4.116010153e-06
4.103927084e-06
4.111691811e-06
4.131471104e-06
4.223772348e-06
4.140258941e-06
4.345343387e-06
4.269530702e-06
4.384597057e-06
4.507557499e-06
4.544582953e-06
4.349408232e-06
4.123713563e-06
4.256367714e-06
4.511274959e-06
4.421068806e-06
4.462506512e-06
4.529889053e-06
4.519152257e-06
4.486281718e-06
4.397955355e-06
4.292339604e-06
4.338394065e-06
4.234638389e-06
4.110020463e-06
4.232967281e-06
4.341215998e-06
4.221273251e-06
4.21264091e-06
4.259539437e-06
4.229051579e-06
4.309364359e-06
4.222147711e-06
4.209868733e-06
4.426077823e-06
4.282238621e-06
4.238359457e-06
4.221355557e-06
4.354482783e-06
4.403459189e-06
4.504954965e-06
4.434009887e-06
4.402845985e-06
4.344642282e-06
4.364353365e-06
4.530504645e-06
4.524765579e-06
4.46810342e-06
4.676964288e-06
4.521489451e-06
4.49748626e-06
4.425649597e-06
4.294806313e-06
4.199062505e-06
4.162827859e-06
4.312561607e-06
4.200836566e-06
4.362372086e-06
4.093417402e-06
4.211105389e-06
4.317126065e-06
4.221023562e-06
4.284275698e-06
4.375278592e-06
4.257710825e-06
4.281094789e-06
4.315561641e-06
4.391432645e-06
4.381057858e-06
4.354443422e-06
4.31208061e-06
4.216010067e-06
4.350408272e-06
4.420446945e-06
4.600071606e-06
4.567422079e-06
4.525867282e-06
4.588705999e-06
4.377039324e-06
4.619711749e-06
4.446506772e-06
)
;

boundaryField
{
    flow
    {
        type            calculated;
        value           nonuniform List<scalar> 
55
(
4.503423096e-06
4.471928907e-06
4.560310701e-06
4.491273276e-06
4.382778352e-06
4.505137472e-06
4.75502026e-06
4.638973186e-06
4.551900726e-06
4.686473765e-06
4.515420022e-06
4.75960549e-06
4.547116976e-06
4.495652906e-06
4.608077469e-06
4.551936759e-06
4.647924328e-06
4.570742591e-06
4.596919377e-06
4.539772219e-06
4.622365823e-06
4.659602686e-06
4.397955355e-06
4.49748626e-06
4.446506772e-06
4.425649597e-06
4.294806313e-06
4.199062505e-06
4.162827859e-06
4.312561607e-06
4.200836566e-06
4.362372086e-06
4.093417402e-06
4.211105389e-06
4.317126065e-06
4.221023562e-06
4.284275698e-06
4.375278592e-06
4.257710825e-06
4.281094789e-06
4.315561641e-06
4.391432645e-06
4.381057858e-06
4.354443422e-06
4.31208061e-06
4.216010067e-06
4.350408272e-06
4.420446945e-06
4.600071606e-06
4.567422079e-06
4.525867282e-06
4.588705999e-06
4.377039324e-06
4.619711749e-06
4.446506772e-06
)
;
    }
    obstacle
    {
        type            calculated;
        value           nonuniform 0();
    }
    frontAndBack
    {
        type            empty;
    }
    procBoundary3to1
    {
        type            processor;
        value           nonuniform List<scalar> 
36
(
4.485959469e-06
3.823224712e-06
3.93904973e-06
4.067576705e-06
4.151783839e-06
4.329809727e-06
4.329809727e-06
3.694204687e-06
3.604762104e-06
3.580944631e-06
3.804383388e-06
3.810401811e-06
3.810401811e-06
3.342869554e-06
3.444024421e-06
3.613232663e-06
3.569375624e-06
3.634419219e-06
3.634419219e-06
3.327304181e-06
3.53375951e-06
3.583061238e-06
3.528201424e-06
3.392156946e-06
3.546547658e-06
3.546547658e-06
3.416838596e-06
3.405762049e-06
3.406145002e-06
3.443498622e-06
3.390816638e-06
3.324795419e-06
3.324795419e-06
3.39871218e-06
3.472551536e-06
3.472551536e-06
)
;
    }
    procBoundary3to2
    {
        type            processor;
        value           nonuniform List<scalar> 
19
(
3.4862405e-06
3.42059727e-06
3.515560275e-06
3.478031879e-06
3.723883116e-06
3.771865486e-06
3.660779363e-06
3.786402663e-06
3.905500833e-06
3.960797483e-06
3.938668459e-06
4.054515632e-06
4.124255624e-06
4.084156447e-06
4.179392178e-06
4.279615707e-06
4.208248026e-06
4.303816422e-06
4.28727934e-06
)
;
    }
}


// ************************************************************************* //
