/*--------------------------------*- C++ -*----------------------------------*\
  =========                 |
  \\      /  F ield         | OpenFOAM: The Open Source CFD Toolbox
   \\    /   O peration     | Website:  https://openfoam.org
    \\  /    A nd           | Version:  7
     \\/     M anipulation  |
\*---------------------------------------------------------------------------*/
FoamFile
{
    version     2.0;
    format      ascii;
    class       volScalarField;
    location    "0.006";
    object      rhoN;
}
// * * * * * * * * * * * * * * * * * * * * * * * * * * * * * * * * * * * * * //

dimensions      [0 -3 0 0 0 0 0];

internalField   nonuniform List<scalar> 
654
(
1.28203731e+20
1.08890932e+20
6.866758467e+19
8.314727766e+19
5.593806071e+19
1.129078922e+20
7.122429437e+19
7.819091724e+19
3.943124063e+19
9.280329456e+19
9.361429112e+19
1.349136958e+20
4.08340988e+19
1.236016502e+20
4.157363846e+19
4.195354554e+19
5.64539461e+19
9.971401303e+19
3.749882808e+19
1.008203608e+20
1.27071904e+20
1.153222929e+20
1.033742598e+20
1.563818358e+20
3.943124063e+19
7.954568038e+19
1.069877613e+20
8.094821746e+19
9.527956387e+19
5.493406725e+19
6.928939805e+19
9.789160625e+19
8.468091991e+19
2.848971801e+19
9.532525688e+19
6.004581855e+19
3.631244844e+19
2.440129979e+19
7.379220824e+19
7.439004912e+19
7.499765615e+19
7.561527122e+19
5.082876202e+19
7.68815286e+19
7.753069486e+19
7.819091724e+19
9.200622814e+19
7.954568105e+19
5.349388064e+19
5.396547831e+19
1.225022975e+20
4.12005508e+19
9.700515641e+19
1.398451505e+20
1.270213787e+20
5.697943602e+19
9.1070651e+19
6.881488497e+19
1.271132728e+20
9.314939689e+19
8.213061732e+19
8.276516776e+19
3.574697133e+19
8.406414662e+19
6.052074834e+19
3.660194997e+19
7.379220824e+19
9.918673295e+19
9.999687567e+19
3.780763531e+19
5.08287612e+19
1.025087031e+20
1.03374259e+20
7.819091724e+19
9.200622737e+19
9.280329298e+19
1.069877604e+20
8.094821746e+19
8.16681976e+19
8.240110016e+19
6.928939743e+19
1.957832125e+20
8.468091915e+19
1.13958871e+20
1.121695102e+19
1.355973001e+20
7.968681846e+19
6.881488446e+19
9.24460166e+19
6.986204714e+19
7.039767093e+19
1.182359522e+20
1.429878842e+20
9.607330968e+19
4.841659792e+19
8.540454859e+19
1.229870118e+20
7.439004853e+19
1.62494923e+20
6.301272653e+19
7.624314304e+19
6.40679405e+19
6.460891292e+19
6.515909878e+19
5.257498795e+19
1.060609081e+20
9.361429112e+19
9.443958786e+19
4.083409951e+19
1.510686863e+20
6.928939805e+19
1.118761214e+20
7.056743262e+19
1.28203731e+20
1.233864613e+20
5.649887545e+19
7.968681962e+19
5.734573747e+19
1.040017687e+20
9.314939619e+19
7.039767146e+19
1.064123585e+20
5.957828555e+19
7.205498226e+19
9.683319584e+19
1.09805849e+20
1.352857151e+20
4.959336608e+19
1.249960936e+20
6.301272551e+19
7.624314242e+19
1.28135881e+20
3.876534743e+19
1.303181954e+20
1.182937209e+20
1.193185206e+20
8.024082096e+19
9.443958704e+19
2.722273253e+19
5.493406725e+19
1.247209165e+20
6.992257589e+19
9.879440656e+19
1.13958872e+20
7.851865773e+19
1.468970762e+20
5.691915646e+19
6.881488497e+19
2.311150415e+19
4.657469844e+19
4.693178097e+19
2.364719061e+19
1.07240914e+20
1.080824734e+20
7.262489744e+19
1.342071499e+20
1.475844165e+20
4.959336608e+19
1.124964842e+20
5.041018082e+19
8.895033354e+19
6.40679405e+19
9.045247734e+19
1.303181954e+20
1.314374688e+20
1.458337486e+20
1.203612314e+20
1.618964349e+20
9.52795647e+19
6.866758407e+19
1.385787949e+20
5.593806071e+19
8.468091915e+19
8.546915403e+19
5.608475512e+19
5.649887545e+19
4.55353255e+19
4.587658998e+19
9.24460166e+19
8.150572167e+19
5.866472621e+19
7.094157237e+19
8.340959977e+19
3.602749141e+19
1.210414957e+20
7.320389879e+19
3.689610383e+19
7.439004912e+19
1.499953135e+20
1.008203616e+20
1.016575224e+20
1.409494679e+20
1.421396072e+20
9.122273754e+19
1.051499759e+20
5.303045358e+19
6.686735023e+19
8.094821746e+19
6.805683133e+19
5.493406725e+19
1.108630369e+20
9.789160625e+19
8.468091915e+19
8.546915325e+19
6.730170614e+19
7.909842506e+19
9.107064967e+19
9.175317928e+19
1.155575216e+20
9.314939758e+19
5.866472665e+19
8.276516776e+19
5.957828555e+19
6.004581855e+19
7.262489744e+19
7.320389993e+19
6.149350687e+19
7.439004912e+19
8.749726551e+19
3.780763561e+19
7.624314304e+19
1.537630572e+20
1.292178248e+20
7.819091724e+19
5.257498707e+19
7.954568038e+19
1.337347016e+20
1.349136958e+20
4.08340988e+19
1.236016502e+20
6.928939682e+19
9.789160537e+19
9.879440567e+19
8.546915403e+19
1.233864621e+20
5.649887586e+19
1.024544824e+20
1.146914741e+20
8.089026392e+19
1.280804198e+20
1.407953419e+20
5.911797608e+19
5.957828509e+19
4.803665484e+19
1.089373453e+20
8.540454859e+19
4.919480511e+19
6.19917076e+19
6.249804679e+19
7.561527061e+19
5.082876161e+19
8.96951167e+19
1.033742598e+20
9.122273678e+19
2.628749375e+19
7.954568105e+19
9.361429112e+19
9.443958704e+19
1.497250302e+20
9.613461854e+19
1.524366757e+20
4.195354554e+19
1.270213799e+20
1.13958872e+20
7.851865773e+19
7.909842564e+19
1.138383137e+20
8.028403246e+19
1.271132728e+20
3.493102357e+19
1.290623977e+20
8.276516776e+19
1.429878853e+20
8.406414597e+19
1.089373462e+20
7.320389993e+19
3.689610412e+19
1.115850737e+20
9.999687567e+19
3.780763592e+19
7.624314242e+19
6.406793997e+19
1.162960423e+20
6.515909824e+19
1.182937219e+20
6.628806698e+19
1.337347016e+20
8.094821816e+19
1.497250302e+20
5.493406725e+19
1.108630369e+20
5.593806121e+19
8.468091991e+19
5.69794355e+19
8.973560819e+19
6.779865006e+19
5.691915646e+19
4.587658998e+19
4.62230083e+19
5.821837305e+19
1.290623977e+20
1.300595484e+20
1.07240914e+20
2.401832742e+19
9.683319584e+19
8.540454926e+19
4.919480511e+19
4.959336569e+19
1.374957029e+20
1.26025451e+20
3.812157121e+19
6.40679405e+19
9.045247808e+19
2.60636393e+19
7.886248126e+19
5.303045403e+19
9.361429112e+19
9.443958704e+19
8.166819831e+19
6.866758407e+19
1.108630359e+20
5.593806071e+19
2.258157844e+20
7.122429502e+19
6.730170662e+19
6.779865104e+19
7.968681904e+19
8.028403187e+19
1.155575207e+20
6.986204714e+19
5.866472621e+19
7.094157237e+19
1.07240914e+20
1.321008018e+20
4.841659867e+19
1.464077987e+20
9.838961021e+19
1.239834152e+20
9.999687487e+19
7.561527122e+19
1.01657524e+20
6.40679405e+19
2.584356495e+19
7.819091789e+19
3.943124063e+19
1.060609063e+20
1.738551106e+20
1.349136958e+20
2.722273253e+19
1.098681345e+20
6.928939805e+19
5.593806071e+19
1.270213787e+20
5.69794355e+19
3.365085307e+19
7.909842506e+19
1.366059755e+20
8.028403246e+19
1.386690249e+20
1.164367461e+20
1.05596508e+20
9.458876315e+19
8.340959977e+19
8.406414597e+19
1.815622422e+20
8.540454926e+19
8.609090961e+19
1.239834152e+20
4.999843743e+19
8.821781572e+19
7.624314242e+19
8.96951167e+19
9.045247734e+19
5.212727816e+19
6.571873439e+19
9.280329456e+19
6.68673508e+19
9.443958704e+19
9.527956387e+19
4.120055008e+19
8.314727692e+19
1.53829667e+20
1.270213799e+20
8.546915481e+19
1.233864613e+20
4.519910036e+19
7.968681962e+19
6.881488497e+19
4.622300864e+19
1.047930715e+20
5.866472577e+19
8.276516713e+19
9.532525688e+19
7.205498226e+19
8.472904636e+19
1.220064989e+20
1.229870137e+20
8.678839064e+19
9.999687567e+19
1.134229078e+20
1.90607856e+20
1.537630559e+20
5.168712991e+19
6.51590977e+19
7.886248126e+19
9.280329456e+19
1.203612314e+20
8.094821746e+19
2.722273277e+19
6.866758467e+19
8.314727692e+19
1.258606355e+20
8.468091915e+19
1.13958871e+20
1.12169511e+20
1.355973011e+20
1.138383129e+20
1.146914749e+20
5.777876037e+19
1.513677688e+20
1.407953429e+20
3.547078591e+19
9.532525615e+19
9.607330968e+19
1.331456453e+20
2.440129979e+19
4.919480511e+19
7.439004912e+19
6.249804679e+19
2.52050902e+19
1.016575232e+20
6.40679405e+19
7.753069486e+19
1.563818358e+20
1.182937219e+20
3.977284019e+19
1.337347016e+20
8.094821816e+19
8.166819831e+19
1.648022018e+20
5.543151844e+19
6.992257589e+19
1.411348652e+20
7.122429502e+19
7.851865717e+19
6.779865055e+19
1.024544816e+20
1.261606215e+20
1.040017687e+20
4.657469844e+19
1.525282882e+20
9.458876244e+19
9.532525688e+19
9.607331042e+19
1.573539445e+20
1.220064989e+20
7.379220824e+19
8.678839133e+19
7.499765675e+19
8.821781643e+19
5.082876202e+19
1.537630559e+20
5.168712948e+19
1.042545563e+20
1.577249625e+20
5.303045358e+19
8.024082027e+19
6.745684789e+19
1.633363966e+20
8.240110088e+19
1.385787949e+20
6.992257589e+19
1.129078922e+20
5.69794355e+19
5.608475512e+19
9.039820007e+19
1.252221442e+20
4.587658998e+19
8.089026452e+19
1.397240943e+20
4.693178097e+19
1.655303355e+20
7.149394266e+19
9.607330968e+19
8.472904702e+19
1.342071499e+20
3.689610412e+19
9.918673216e+19
4.999843783e+19
7.561527122e+19
1.27071903e+20
8.969511596e+19
1.550613897e+20
1.042545563e+20
5.257498707e+19
1.458337474e+20
1.069877613e+20
1.618964349e+20
9.527956387e+19
1.098681345e+20
5.543151844e+19
1.258606366e+20
1.129078932e+20
9.971401394e+19
1.009525607e+20
1.807964028e+20
4.55353255e+19
1.032223275e+20
6.933451245e+19
5.821837262e+19
2.346589049e+19
3.547078618e+19
1.787348566e+20
1.441099645e+20
1.210414948e+20
7.320389879e+19
9.838961021e+19
9.918673216e+19
1.124964842e+20
1.134229068e+20
7.624314304e+19
8.96951167e+19
6.460891238e+19
9.122273754e+19
5.257498795e+19
7.954568105e+19
2.674694032e+19
8.094821746e+19
2.722273253e+19
5.493406725e+19
8.314727766e+19
8.390709107e+19
1.129078922e+20
1.424485887e+20
6.730170614e+19
7.909842506e+19
6.830298775e+19
8.028403246e+19
1.271132728e+20
6.986204766e+19
4.693178097e+19
5.911797652e+19
8.340959977e+19
9.607330968e+19
2.057705428e+20
1.098058499e+20
1.106883115e+20
8.678838995e+19
9.999687487e+19
1.134229059e+20
1.524862848e+20
1.025087048e+20
1.55061391e+20
1.563818358e+20
6.571873383e+19
5.303045358e+19
1.872285822e+20
1.214223262e+20
5.444546554e+19
8.240110088e+19
9.700515641e+19
1.258606366e+20
9.879440567e+19
4.273457701e+19
1.009525592e+20
9.039820073e+19
6.830298775e+19
1.032223267e+20
5.77787608e+19
1.280804207e+20
1.407953429e+20
1.064123577e+20
5.957828509e+19
9.607331042e+19
1.452497949e+20
4.880259958e+19
1.598831179e+20
1.611784398e+20
9.999687487e+19
3.780763561e+19
1.143647146e+20
6.40679405e+19
5.168712991e+19
7.819091724e+19
5.257498751e+19
1.060609072e+20
8.024082027e+19
5.396547877e+19
1.633363966e+20
1.373351681e+20
6.928939743e+19
1.118761204e+20
1.129078922e+20
9.971401212e+19
5.608475552e+19
5.649887545e+19
1.252221442e+20
8.028403246e+19
1.386690249e+20
3.493102383e+19
8.21306167e+19
1.773539296e+20
8.340959977e+19
1.321008008e+20
1.331456453e+20
1.220064989e+20
8.609090894e+19
3.719502456e+19
4.999843783e+19
1.638330877e+20
7.62431418e+19
1.02508704e+20
2.584356495e+19
5.212727859e+19
1.577249625e+20
1.32576134e+20
9.361429112e+19
5.396547831e+19
5.444546554e+19
8.240110088e+19
1.385787949e+20
1.53829667e+20
1.270213799e+20
9.971401394e+19
1.233864613e+20
1.24297526e+20
1.138383137e+20
1.490989174e+20
9.24460166e+19
9.314939619e+19
1.290623977e+20
7.094157237e+19
7.149394266e+19
8.406414597e+19
1.089373453e+20
7.320389936e+19
7.379220824e+19
1.363817567e+20
9.999687487e+19
1.008203616e+20
5.082876202e+19
1.025087048e+20
1.292178248e+20
5.212727816e+19
7.886248126e+19
6.628806754e+19
1.069877613e+20
1.618964349e+20
1.225022964e+20
6.866758407e+19
9.700515727e+19
1.53829667e+20
8.468091915e+19
7.122429437e+19
)
;

boundaryField
{
    flow
    {
        type            zeroGradient;
    }
    obstacle
    {
        type            calculated;
        value           nonuniform 0();
    }
    frontAndBack
    {
        type            empty;
    }
    procBoundary3to1
    {
        type            processor;
        value           nonuniform List<scalar> 
36
(
7.122429502e+19
4.08340988e+19
5.493406677e+19
1.247209154e+20
9.789160625e+19
1.552483518e+20
1.552483518e+20
6.51590977e+19
7.88624806e+19
7.95456797e+19
4.012041014e+19
5.396547877e+19
5.396547877e+19
2.499921892e+19
1.134229078e+20
6.353595201e+19
7.688152797e+19
1.421396072e+20
1.421396072e+20
8.340959977e+19
9.607330968e+19
1.089373462e+20
8.540454926e+19
8.609090894e+19
8.678839064e+19
8.678839064e+19
1.138383129e+19
1.146914749e+20
1.155575216e+20
5.821837305e+19
5.866472621e+19
2.364719079e+19
2.364719079e+19
6.730170662e+19
1.242975269e+20
1.242975269e+20
)
;
    }
    procBoundary3to2
    {
        type            processor;
        value           nonuniform List<scalar> 
19
(
8.908265883e+19
8.908265883e+19
7.794732648e+19
1.002179905e+20
7.794732648e+19
8.908265883e+19
6.68119946e+19
8.908265883e+19
8.908265883e+19
6.681199412e+19
4.454132941e+19
1.224886559e+20
4.454132941e+19
7.794732592e+19
8.908265946e+19
1.224886559e+20
7.794732648e+19
1.002179912e+20
1.002179912e+20
)
;
    }
}


// ************************************************************************* //
