/*--------------------------------*- C++ -*----------------------------------*\
  =========                 |
  \\      /  F ield         | OpenFOAM: The Open Source CFD Toolbox
   \\    /   O peration     | Website:  https://openfoam.org
    \\  /    A nd           | Version:  7
     \\/     M anipulation  |
\*---------------------------------------------------------------------------*/
FoamFile
{
    version     2.0;
    format      ascii;
    class       volScalarField;
    location    "0.006";
    object      rhoN;
}
// * * * * * * * * * * * * * * * * * * * * * * * * * * * * * * * * * * * * * //

dimensions      [0 -3 0 0 0 0 0];

internalField   nonuniform List<scalar> 
654
(
2.279177441e+20
3.266727961e+20
3.708049572e+20
2.632997126e+20
2.097677277e+20
2.68156244e+20
2.848971775e+20
2.606363908e+20
2.891624313e+20
1.325761351e+20
1.604816419e+20
1.484050653e+20
2.04170494e+20
3.296044006e+20
2.910154692e+20
2.097677277e+20
3.669506496e+20
2.564074621e+20
1.624949217e+20
1.386279961e+20
1.524862848e+20
1.665766453e+20
2.067485196e+20
9.122273754e+19
1.708687094e+20
2.916674947e+20
2.674694032e+20
2.023705437e+20
1.088909301e+20
2.472033026e+20
1.801524349e+20
2.237522429e+20
2.258157864e+20
2.136728851e+20
1.429878853e+20
9.607330968e+19
1.210414948e+20
1.586084486e+20
9.838961099e+19
4.959336608e+19
1.124964842e+20
1.134229068e+20
1.397790956e+20
1.922038215e+20
2.455138671e+20
1.69413654e+20
1.708687094e+20
2.253794296e+20
2.006020524e+20
2.158619132e+20
2.177818622e+20
2.609368218e+20
2.217260718e+20
2.237522409e+20
2.540427574e+20
3.133868981e+20
1.024544824e+20
6.881488497e+19
1.271132728e+20
1.164367461e+20
8.213061732e+19
7.094157237e+19
9.532525688e+19
9.607331042e+19
6.052074834e+19
1.464077999e+20
1.598831179e+20
6.199170809e+19
8.749726621e+19
1.008203608e+20
7.62431418e+19
3.844076367e+19
1.550613884e+20
1.433500149e+20
1.70868708e+20
2.651522657e+20
1.872285806e+20
1.753878045e+20
2.04170494e+20
1.510686836e+20
1.940103128e+20
1.53829667e+20
2.399292709e+20
2.564074597e+20
1.009525592e+20
1.129977501e+20
1.479898057e+20
1.376297689e+20
1.271132728e+20
1.047930707e+20
1.290623967e+20
1.300595474e+20
1.191565702e+20
8.406414597e+19
1.089373453e+20
7.320389879e+19
7.379220708e+19
1.487800971e+20
9.999687567e+19
1.386279984e+20
1.01657524e+20
1.28135881e+20
1.162960433e+20
1.172863778e+20
1.314374699e+20
1.590913621e+20
2.273489927e+20
1.214223272e+20
2.994500631e+20
2.746703387e+20
2.632997126e+20
2.097677277e+20
1.693618383e+20
1.709383081e+20
8.973560819e+19
1.355973011e+20
1.593736392e+20
1.376297699e+20
4.62230083e+19
5.821837262e+19
1.055965072e+20
7.094157237e+19
8.340959977e+19
1.080824734e+20
9.683319584e+19
8.540454926e+19
1.229870137e+20
1.487800982e+20
1.249960936e+20
7.561527061e+19
1.016575232e+20
8.96951167e+19
1.421396072e+20
1.303181954e+19
7.88624806e+19
7.954568038e+19
1.471081718e+20
1.753878045e+20
1.905591277e+20
1.236016513e+20
2.078681941e+20
3.356283643e+20
1.693618398e+20
1.994280261e+20
8.973560883e+19
1.129977509e+20
9.107065033e+19
1.146914749e+20
8.089026452e+19
1.280804207e+20
7.039767146e+19
5.911797652e+19
7.149394266e+19
9.607330968e+19
6.052074787e+19
9.760519991e+19
1.106883124e+20
1.115850737e+20
7.499765615e+19
1.008203616e+20
1.143647146e+20
1.153222929e+20
1.292178248e+20
2.345727517e+20
1.445812157e+20
9.280329456e+19
1.471081718e+20
1.079309566e+20
2.450045949e+20
1.373351681e+20
1.801524333e+20
1.957832125e+20
1.411348652e+20
2.279177441e+20
1.233864613e+20
1.468970762e+20
6.830298825e+19
1.605680649e+20
1.271132728e+20
8.150572167e+19
8.21306167e+19
3.547078618e+19
7.149394266e+19
7.205498281e+19
1.089373462e+20
9.760519839e+19
1.106883115e+20
3.719502456e+19
1.499953135e+20
1.386279972e+20
1.143647127e+20
1.665766439e+20
1.033742598e+20
1.303181965e+20
1.051499759e+20
1.590913608e+20
1.604816405e+20
2.023705437e+20
1.633363952e+20
2.334697858e+20
1.801524349e+20
2.517212732e+20
2.399292709e+20
1.709383065e+20
8.973560819e+19
1.016979751e+20
1.821412993e+20
1.490989163e+20
8.089026512e+19
1.047930723e+20
1.173294533e+20
8.276516776e+19
5.957828555e+19
9.607330968e+19
1.331456453e+20
1.586084499e+20
1.229870137e+20
6.19917076e+19
1.249960936e+20
1.008203616e+20
1.779006671e+20
1.025087048e+20
1.162960423e+20
6.51590977e+19
1.314374677e+20
9.280329377e+19
1.203612314e+20
1.753878045e+20
1.497250289e+20
1.098681335e+20
1.385787936e+20
1.817986957e+20
1.411348652e+20
1.709383081e+20
5.608475552e+19
1.016979766e+20
1.366059765e+20
1.146914741e+20
8.089026392e+19
9.314939619e+19
9.386356124e+19
5.911797608e+19
9.532525615e+19
8.406414597e+19
1.452497938e+20
1.22006498e+20
1.106883115e+20
1.363817567e+20
8.749726551e+19
1.512305412e+20
1.27071904e+20
1.28135881e+20
1.162960423e+20
1.172863759e+20
2.628749375e+19
9.280329456e+19
1.738551121e+20
1.484050653e+20
1.76947763e+20
5.493406774e+19
1.801524349e+20
1.678141821e+20
1.975888131e+20
1.566934491e+20
1.009525599e+20
6.779865055e+19
1.366059765e+20
1.376297699e+20
8.089026452e+19
6.986204714e+19
8.21306167e+19
7.094157237e+19
8.340959977e+19
1.200916371e+20
8.472904702e+19
7.320389993e+19
7.379220824e+19
1.487800982e+20
9.999687567e+19
1.512305437e+20
8.895033282e+19
8.969511596e+19
7.753069486e+19
9.122273754e+19
1.708687094e+20
9.280329377e+19
1.872285822e+20
8.094821816e+19
1.361136639e+20
8.240110088e+19
1.108630369e+20
6.992257652e+19
1.129078932e+20
2.27917742e+20
1.346034123e+20
1.242975251e+20
7.968681904e+19
1.720372124e+20
8.089026452e+19
1.047930715e+20
7.039767146e+19
1.53706739e+20
1.07240914e+20
1.080824734e+20
8.472904636e+19
1.220064989e+20
6.149350638e+19
7.439004853e+19
8.749726551e+19
6.301272551e+19
6.353595201e+19
8.96951167e+19
6.460891292e+19
1.824454751e+20
1.314374688e+20
7.954568105e+19
1.471081718e+20
1.484050653e+20
9.52795647e+19
1.648022018e+20
6.928939743e+19
5.593806071e+19
1.411348652e+20
1.13958872e+20
1.009525599e+20
1.129977517e+20
1.024544816e+20
1.261606215e+20
1.040017687e+20
3.493102357e+19
9.386356194e+19
8.276516776e+19
9.532525688e+19
1.20091638e+20
1.331456463e+20
6.100324947e+19
1.229870128e+20
1.115850737e+20
2.124933591e+20
3.780763561e+19
8.895033354e+19
1.153222929e+20
3.876534743e+19
1.172863768e+20
6.571873439e+19
5.303045313e+19
1.203612304e+20
5.396547831e+19
2.04170494e+20
1.098681345e+20
1.524366757e+20
1.53829667e+20
1.411348652e+20
1.13958871e+20
6.730170614e+19
4.519910004e+19
4.553532517e+19
1.835063599e+20
1.155575207e+20
9.314939689e+19
3.519883599e+19
1.300595493e+20
9.532525688e+19
2.281741105e+20
6.05207474e+19
7.320389936e+19
1.106883124e+20
9.918673216e+19
9.999687487e+19
8.821781572e+19
1.524862848e+20
1.025087048e+20
6.460891238e+19
1.433500149e+20
9.200622814e+19
1.458337486e+20
1.203612314e+20
1.484050653e+20
1.497250289e+20
1.098681335e+20
8.314727692e+19
9.789160625e+19
9.879440656e+19
1.139588731e+20
7.851865717e+19
7.909842564e+19
1.024544824e+20
1.376297699e+20
9.244601728e+19
1.047930715e+20
1.407953419e+20
7.094157183e+19
2.14481828e+20
1.080824734e+20
8.472904636e+19
1.09805849e+20
7.379220824e+19
6.19917076e+19
9.999687567e+19
1.260254531e+20
7.624314242e+19
1.409494679e+20
1.033742598e+20
5.212727816e+19
2.365874438e+20
7.954568105e+19
1.337347016e+20
1.349136958e+20
1.361136639e+19
1.373351693e+20
6.928939743e+19
9.789160537e+19
1.411348652e+20
7.122429437e+19
8.973560883e+19
6.779865055e+19
1.252221442e+20
9.175317996e+19
1.155575207e+20
1.746551179e+20
1.290623977e+20
8.276516713e+19
1.072409132e+20
7.205498226e+19
6.052074787e+19
1.220064989e+20
7.379220766e+19
1.611784398e+20
6.249804679e+19
1.26025451e+20
1.016575232e+20
7.68815286e+19
9.045247734e+19
9.122273754e+19
1.05149975e+20
7.954568038e+19
9.361429112e+19
6.745684847e+19
9.52795647e+19
8.240110088e+19
1.662945553e+20
1.398451518e+20
1.693618383e+20
7.122429502e+19
8.973560819e+19
1.694966264e+20
1.138383129e+20
1.146914741e+20
1.271132728e+20
1.047930715e+20
7.039767146e+19
8.276516713e+19
9.532525688e+19
1.561191294e+20
9.683319659e+19
1.09805849e+20
4.919480549e+19
1.115850746e+20
4.999843783e+19
8.821781643e+19
1.143647146e+20
8.969511596e+19
1.03374259e+20
1.042545563e+20
1.182937219e+20
6.628806698e+19
6.686735023e+19
8.094821746e+19
6.805683193e+19
5.493406725e+19
1.801524333e+20
9.789160625e+19
1.270213787e+20
5.69794355e+19
7.851865717e+19
1.355973001e+20
1.024544816e+20
1.490989174e+20
3.466725622e+19
1.164367452e+20
8.21306167e+19
1.064123585e+20
9.532525688e+19
8.406414597e+19
1.815622436e+20
9.760519991e+19
9.838961099e+19
1.487800982e+20
1.749945324e+20
8.821781643e+19
1.016575224e+20
1.537630559e+20
2.584356495e+19
7.819091724e+19
1.182937209e+20
1.723489741e+20
1.203612314e+20
5.396547831e+19
1.497250289e+20
8.240110088e+19
6.928939805e+19
1.817986973e+20
1.552483532e+20
1.282037322e+20
1.346034142e+20
1.016979766e+20
9.1070651e+19
6.881488497e+19
1.040017687e+20
2.328734905e+19
7.039767146e+19
3.547078618e+19
1.191565711e+20
1.200916371e+20
2.420829896e+20
7.320389879e+19
1.475844153e+20
1.735767813e+20
2.499921872e+19
1.26025452e+20
8.895033354e+19
8.96951167e+19
2.067485196e+20
9.122273754e+19
7.886248193e+19
1.590913621e+20
9.361429112e+19
1.484050653e+20
1.088909301e+20
1.098681345e+20
6.928939805e+19
8.390709107e+19
1.129078922e+20
1.566934476e+20
7.851865717e+19
1.129977501e+20
9.107065033e+19
9.175317996e+19
1.271132728e+20
2.328734922e+19
9.386356194e+19
8.276516713e+19
8.340959977e+19
1.441099645e+20
6.052074787e+19
1.586084499e+20
1.229870128e+20
1.363817556e+20
3.749882808e+19
1.386279961e+20
8.895033282e+19
1.025087048e+20
1.033742607e+20
1.563818358e+20
1.182937209e+20
1.060609072e+20
8.024082096e+19
1.888791741e+20
9.52795647e+19
9.61346177e+19
6.928939743e+19
6.992257589e+19
4.234045957e+19
4.273457701e+19
7.851865717e+19
9.039820073e+19
4.553532517e+19
5.734573705e+19
9.244601728e+19
9.314939689e+19
3.519883573e+19
8.276516713e+19
1.191565702e+20
9.607331042e+19
8.472904702e+19
8.540454926e+19
1.106883124e+20
1.115850737e+20
9.999687487e+19
1.008203616e+20
1.397790956e+20
7.68815286e+19
1.421396072e+20
6.51590977e+19
5.257498751e+19
9.280329377e+19
9.361429032e+19
8.094821816e+19
1.088909311e+20
1.510686849e+20
1.385787949e+20
6.992257527e+19
7.056743262e+19
8.546915325e+19
5.608475552e+19
1.016979758e+20
1.707574694e+20
6.881488497e+19
1.386690249e+20
6.986204766e+19
1.407953429e+20
8.276516713e+19
1.310722282e+20
7.205498226e+19
4.84165983e+19
8.540454926e+19
4.919480511e+19
8.678839064e+19
8.749726621e+19
1.008203616e+20
1.016575224e+20
8.969511596e+19
5.168712991e+19
1.172863768e+20
3.943124063e+19
9.280329377e+19
1.069877613e+20
9.443958704e+19
6.805683193e+19
1.510686849e+20
1.247209154e+20
1.118761214e+20
7.056743326e+19
7.122429567e+19
1.346034123e+20
1.129977509e+20
5.691915687e+19
8.028403246e+19
8.089026452e+19
9.314939619e+19
9.386356194e+19
1.182359539e+20
8.340959977e+19
8.406414597e+19
1.331456443e+20
7.320389936e+19
9.838961099e+19
9.918673216e+19
8.749726551e+19
8.821781643e+19
6.353595253e+19
1.28135881e+20
1.550613897e+20
9.122273678e+19
1.182937219e+20
1.458337486e+20
5.349388064e+19
1.618964349e+20
9.527956387e+19
1.510686849e+20
1.247209165e+20
8.390709107e+19
1.270213787e+20
8.546915325e+19
)
;

boundaryField
{
    flow
    {
        type            zeroGradient;
    }
    obstacle
    {
        type            calculated;
        value           nonuniform 0();
    }
    frontAndBack
    {
        type            empty;
    }
    procBoundary3to1
    {
        type            processor;
        value           nonuniform List<scalar> 
36
(
2.991420391e+20
3.538955229e+20
2.060027504e+20
2.910154692e+20
3.076593339e+20
2.258157844e+20
2.258157844e+20
3.257954885e+20
3.285936692e+20
1.590913594e+20
3.343367511e+20
2.833187636e+20
2.833187636e+20
4.999843783e+19
5.041018122e+19
1.143647136e+20
1.793902319e+20
2.067485196e+20
2.067485196e+20
5.957828555e+19
1.441099645e+20
9.683319659e+19
1.220064989e+20
1.229870128e+20
2.231701474e+20
2.231701474e+20
1.479898068e+20
1.146914749e+20
9.244601728e+19
8.150572227e+19
1.642612334e+20
1.773539309e+20
1.773539309e+20
7.851865773e+19
1.129977517e+20
1.129977517e+20
)
;
    }
    procBoundary3to2
    {
        type            processor;
        value           nonuniform List<scalar> 
19
(
8.908265883e+19
5.567666177e+19
1.224886559e+20
1.113533227e+20
4.454132941e+19
4.454132941e+19
1.002179919e+20
1.336239882e+20
4.454132941e+19
8.908265883e+19
1.002179912e+20
1.447593206e+20
1.224886559e+20
1.22488655e+20
1.113533243e+20
8.908265883e+19
7.794732648e+19
1.336239882e+20
6.681199412e+19
)
;
    }
}


// ************************************************************************* //
