/*--------------------------------*- C++ -*----------------------------------*\
  =========                 |
  \\      /  F ield         | OpenFOAM: The Open Source CFD Toolbox
   \\    /   O peration     | Website:  https://openfoam.org
    \\  /    A nd           | Version:  7
     \\/     M anipulation  |
\*---------------------------------------------------------------------------*/
FoamFile
{
    version     2.0;
    format      ascii;
    class       volScalarField;
    location    "0.00216";
    object      dsmcRhoN;
}
// * * * * * * * * * * * * * * * * * * * * * * * * * * * * * * * * * * * * * //

dimensions      [0 -3 0 0 0 0 0];

internalField   nonuniform List<scalar> 
125
(
110
133
119
144
153
143
130
134
137
119
126
122
127
135
133
109
122
141
132
118
118
137
134
135
124
140
117
133
138
113
119
117
135
109
155
118
148
120
130
139
129
114
131
132
148
129
125
125
125
144
144
134
110
132
154
143
137
151
147
131
162
151
181
163
163
169
172
193
171
187
206
165
167
169
181
169
182
179
181
177
184
183
171
173
217
196
181
175
166
173
228
198
160
197
196
179
177
187
177
179
179
114
72
71
77
86
67
72
87
77
74
60
67
57
84
77
66
76
72
64
63
71
82
83
61
)
;

boundaryField
{
    sides
    {
        type            symmetry;
    }
    empty
    {
        type            empty;
    }
    procBoundary2to1
    {
        type            processor;
        value           uniform 129;
    }
    procBoundary2to3
    {
        type            processor;
        value           uniform 69;
    }
}


// ************************************************************************* //
