/*--------------------------------*- C++ -*----------------------------------*\
  =========                 |
  \\      /  F ield         | OpenFOAM: The Open Source CFD Toolbox
   \\    /   O peration     | Website:  https://openfoam.org
    \\  /    A nd           | Version:  7
     \\/     M anipulation  |
\*---------------------------------------------------------------------------*/
FoamFile
{
    version     2.0;
    format      ascii;
    class       volVectorField;
    location    "0.0075";
    object      momentum;
}
// * * * * * * * * * * * * * * * * * * * * * * * * * * * * * * * * * * * * * //

dimensions      [1 -2 -1 0 0 0 0];

internalField   nonuniform List<vector> 
250
(
(-0.000206188 1.68975e-05 -8.36779e-06)
(-0.000265063 3.61588e-08 -2.34552e-05)
(-0.000198131 -5.99891e-06 2.97161e-05)
(-0.000234141 2.31749e-05 5.67914e-05)
(-0.000281152 -3.45114e-05 5.27047e-05)
(-0.000207499 -5.92426e-05 -1.61505e-05)
(-0.00026095 -8.0321e-05 1.61558e-05)
(-0.000282697 -2.42359e-05 -5.33156e-05)
(-0.000182909 6.37517e-05 7.71751e-05)
(-0.000226909 6.20819e-05 -1.67272e-05)
(-0.000217433 3.2014e-05 2.92072e-05)
(-0.00033131 -2.34959e-05 -4.29312e-05)
(-0.000267444 4.16198e-05 -2.2408e-05)
(-0.000261274 -6.01924e-05 3.38066e-05)
(-0.000225098 3.79451e-05 5.29759e-05)
(-0.000148004 1.80516e-05 2.45315e-05)
(-0.000216222 -1.87899e-05 4.1209e-05)
(-0.000283143 -1.3283e-06 -1.25004e-05)
(-0.000218121 -4.82189e-05 5.20562e-05)
(-0.000181807 -4.43286e-06 -5.79986e-06)
(-0.000253231 -5.34538e-05 -8.93199e-05)
(-0.000295481 9.5382e-05 8.9319e-06)
(-0.00024484 -5.97957e-05 -4.32049e-06)
(-0.000195955 3.82797e-05 -3.51625e-05)
(-0.000161342 -2.03288e-05 -2.04078e-07)
(-0.000196259 -9.75519e-07 5.08071e-05)
(-0.000222813 4.87349e-05 -2.88015e-05)
(-0.000277825 1.14051e-05 -6.51924e-05)
(-0.000205542 -3.18205e-05 3.32526e-06)
(-0.000232584 4.00487e-05 4.58577e-05)
(-0.000171544 5.9394e-05 1.18453e-05)
(-0.000239291 4.43546e-05 2.98247e-05)
(-0.000176037 5.06602e-05 -1.61611e-05)
(-0.000219378 -5.65375e-05 0.000111768)
(-0.000156586 -2.59914e-05 -1.78342e-05)
(-0.000174557 -3.3522e-05 1.72972e-05)
(-0.000240233 -5.82866e-05 2.04275e-05)
(-0.000295413 -1.42267e-05 -1.14061e-05)
(-0.000201473 5.30575e-06 1.2905e-05)
(-0.000185427 -6.07959e-06 -3.5023e-05)
(-0.000179841 4.15114e-06 -1.63947e-05)
(-0.000191025 4.48469e-05 2.26891e-05)
(-0.000214043 2.97435e-05 4.31455e-05)
(-0.000165399 1.30013e-05 -8.17021e-06)
(-0.00015436 -4.18663e-05 -2.30803e-05)
(-0.00021132 6.42542e-05 -1.88736e-06)
(-0.000159688 -5.12995e-05 -6.69605e-05)
(-0.000293023 1.80507e-05 1.97937e-05)
(-0.000242994 2.41141e-06 4.02274e-05)
(-0.000221014 2.20741e-05 3.38585e-05)
(-0.00022756 2.8053e-05 2.63621e-06)
(-0.000137203 -1.33915e-05 -1.46518e-05)
(-0.000158153 -3.6738e-05 8.24565e-05)
(-0.000208194 -2.73807e-05 -4.42498e-05)
(-0.000217559 4.15541e-05 -1.84216e-05)
(-0.000206844 3.23214e-05 4.06902e-06)
(-9.26577e-05 -2.58789e-05 -5.03279e-06)
(-0.000239516 7.54476e-05 2.29755e-05)
(-0.000228619 -2.37204e-05 -1.4731e-05)
(-0.000175189 -3.36488e-06 -5.66817e-05)
(-0.000131311 9.15248e-05 -1.13017e-05)
(-0.000168291 1.88047e-05 -2.15698e-06)
(-0.000131011 6.78321e-05 -5.22806e-06)
(-0.000193322 -3.00878e-06 4.4406e-05)
(-0.000194577 1.58604e-07 3.71086e-05)
(-0.000164339 3.02147e-05 -8.83498e-06)
(-0.000154314 1.27821e-05 -4.21873e-05)
(-0.000164409 -8.07137e-06 -6.29154e-05)
(-0.000178791 5.37413e-06 -1.22179e-05)
(-0.000145436 -2.54407e-05 -1.20866e-05)
(-0.000112583 -4.19316e-06 1.75532e-05)
(-0.000140679 1.3191e-06 1.56481e-07)
(-0.000165001 5.43243e-05 -5.63931e-05)
(-7.87924e-05 1.49783e-05 1.77364e-05)
(-0.00023392 -3.55479e-05 1.66686e-05)
(-0.0001777 4.86408e-06 6.18779e-05)
(-0.000210908 2.32056e-05 3.52564e-05)
(-0.000191696 -2.31705e-05 -1.65016e-05)
(-0.000142248 7.37167e-06 -3.28462e-05)
(-0.000116532 4.03038e-05 -4.18353e-05)
(-0.000163052 -1.32661e-05 -6.95664e-05)
(-0.000132737 -2.28124e-05 -1.65632e-05)
(-0.000108998 2.84448e-05 4.03821e-05)
(-0.000156525 4.08747e-05 4.76046e-05)
(-0.000219452 3.67466e-05 1.74773e-05)
(-0.000147365 -7.09594e-05 -1.49435e-05)
(-0.000207727 -1.67348e-06 -3.36292e-05)
(-8.27591e-05 -1.92944e-05 -5.69325e-06)
(-0.000148372 -3.01036e-05 -3.67692e-05)
(-0.000218865 -5.67826e-05 1.80416e-05)
(-0.0001754 5.05624e-05 8.50432e-06)
(-0.000207124 6.49604e-05 -3.05511e-06)
(-0.000164944 -6.61867e-06 5.32518e-05)
(-0.000181027 -5.25579e-06 -2.18587e-05)
(-0.000116285 4.68829e-06 5.34235e-05)
(-0.000214538 -8.93074e-05 -3.86849e-05)
(-0.000127187 -4.31293e-05 1.67729e-05)
(-7.31307e-05 -6.34792e-06 2.8186e-05)
(-6.5821e-05 1.69547e-05 -1.3485e-05)
(-6.96095e-05 -1.27849e-06 1.14079e-05)
(-0.000203714 -1.8843e-05 -9.11852e-05)
(-0.000124752 3.11176e-05 5.18986e-05)
(-0.000146865 4.84269e-05 -1.41327e-05)
(-0.000189455 -1.20405e-05 -6.00942e-05)
(-0.000188615 1.52543e-05 1.08419e-05)
(-0.000174425 -2.11215e-05 -4.13334e-05)
(-0.000137993 -3.10348e-05 9.07684e-06)
(-0.000179105 -7.75245e-05 -5.46899e-05)
(-0.000118749 -4.12214e-05 -2.47131e-05)
(-0.000113076 2.20324e-05 -3.27296e-05)
(-0.000132764 -4.572e-05 -3.13e-05)
(-0.000190451 8.97143e-06 -2.17828e-05)
(-0.000169806 -9.01443e-06 -5.71808e-05)
(-0.000128843 -5.32634e-05 0.000101712)
(-7.6356e-05 7.55777e-05 1.92343e-05)
(-0.000183486 5.68041e-05 4.89646e-05)
(-8.84639e-05 5.33807e-06 3.86319e-05)
(-0.000135147 5.46042e-05 -3.88459e-05)
(-0.000118413 2.51544e-06 -5.72978e-05)
(-7.59817e-05 -2.28323e-05 2.44336e-05)
(-0.000108979 -8.19784e-05 -1.89373e-05)
(-0.000188736 -2.28471e-05 2.39603e-05)
(-7.96009e-05 2.62468e-05 -1.47702e-05)
(-0.00013 -7.46131e-05 1.81877e-05)
(-6.5419e-05 1.95489e-05 -1.50083e-05)
(-0.000108663 -4.0959e-05 -2.00649e-05)
(-0.000180917 2.53414e-05 1.08752e-05)
(-8.98444e-05 3.08959e-05 -9.34098e-06)
(-0.000104734 4.13337e-05 -2.48944e-05)
(-0.000101147 1.46566e-05 3.65102e-05)
(-0.000115505 -3.75731e-06 -6.60376e-05)
(-7.78851e-05 -2.58718e-05 1.98928e-05)
(-0.000111196 -7.27898e-05 -2.97099e-05)
(-7.97878e-05 -1.15817e-06 1.52957e-05)
(-0.000131675 -9.70469e-06 5.11151e-05)
(-9.44388e-05 2.30318e-06 -3.06699e-06)
(-0.000125483 5.92035e-05 6.61478e-06)
(-0.000126148 0.000101656 -1.37633e-05)
(-0.000172655 -4.67605e-05 -9.72421e-06)
(-0.000101396 -8.02889e-05 -1.89985e-05)
(-0.000136062 1.26973e-05 -1.61111e-05)
(-0.000117454 1.02415e-05 7.35458e-05)
(-0.000123256 5.00939e-05 5.31993e-05)
(-4.77263e-05 -3.8781e-05 -1.54919e-05)
(-0.000145576 -4.27403e-06 2.13099e-05)
(-0.000115495 -1.17643e-05 3.14129e-05)
(-3.04948e-05 -2.08047e-05 -9.16437e-05)
(-9.54492e-05 -3.89941e-05 -4.42717e-06)
(-9.98116e-05 -4.50829e-06 3.29885e-05)
(-3.70337e-05 -2.20252e-05 3.82917e-05)
(-0.000129514 -3.94065e-05 -2.10769e-05)
(-0.000171347 1.09369e-05 3.68074e-05)
(-5.81298e-05 1.25135e-05 -1.0591e-06)
(-5.08327e-05 1.23684e-05 -4.02611e-05)
(-2.90896e-05 2.9849e-05 9.2491e-05)
(-6.14229e-05 -2.35768e-05 3.9914e-07)
(-0.000111059 4.85096e-05 -4.22862e-06)
(-5.66059e-05 2.06251e-05 4.29419e-05)
(-0.000108794 -1.93857e-05 -2.32687e-05)
(-0.000120709 1.92247e-05 -2.49431e-05)
(-6.54139e-05 -6.19449e-05 -1.79962e-05)
(-9.26502e-05 -1.45503e-06 -6.89029e-05)
(-8.5092e-05 -3.64785e-05 -8.26747e-05)
(-3.24953e-05 4.91764e-06 2.11755e-05)
(-4.61008e-05 -5.00804e-05 -3.63776e-05)
(-0.000142841 -2.87588e-05 -3.9046e-05)
(-6.10342e-05 9.28766e-05 -2.51643e-05)
(-0.00010265 1.07257e-05 -2.90362e-05)
(-0.000103173 -3.89598e-05 -1.97022e-06)
(-1.67145e-05 -4.07399e-05 2.17112e-07)
(2.54946e-05 -5.76798e-05 1.07511e-05)
(-9.08568e-05 -6.20336e-05 4.89254e-05)
(-1.42381e-05 -9.20666e-05 2.42524e-05)
(-5.69606e-05 1.65878e-05 2.81086e-05)
(-9.43604e-05 -2.84784e-05 3.04435e-05)
(-0.000108785 5.30235e-05 4.84683e-06)
(-1.47186e-05 9.74759e-06 -8.24746e-05)
(-7.04345e-05 3.96297e-05 -3.89581e-05)
(-4.00191e-05 -1.93808e-05 -2.08466e-05)
(-7.81097e-05 5.23613e-06 -4.96315e-05)
(-3.48285e-05 2.059e-05 3.79118e-05)
(-1.11607e-05 2.63863e-05 1.74493e-05)
(-1.54549e-05 4.15049e-05 -1.92389e-05)
(-6.46026e-05 -2.14275e-05 -4.89843e-05)
(1.06337e-05 3.4908e-05 -1.02239e-05)
(-0.000101044 -3.18234e-05 -1.77271e-05)
(-4.07984e-05 3.59545e-05 6.54701e-05)
(-3.51023e-05 -5.01376e-05 -1.88271e-05)
(-5.1559e-05 3.97303e-05 -9.39351e-07)
(-9.02903e-06 -6.68084e-05 -3.47349e-05)
(-7.45259e-05 8.23537e-06 8.42554e-05)
(-6.58926e-05 1.8761e-05 -1.76323e-05)
(-3.35082e-05 -1.57889e-05 -9.60111e-05)
(6.5912e-07 -4.30735e-05 -1.49186e-05)
(-7.22847e-05 9.62201e-05 6.13763e-05)
(-0.000121429 -1.48772e-05 -5.64496e-06)
(-8.4897e-06 8.91664e-06 4.51972e-05)
(-2.95868e-05 -7.40839e-07 3.70457e-05)
(-2.52074e-05 -2.81159e-05 -3.70009e-05)
(-6.1805e-05 2.95578e-05 -2.80227e-05)
(-5.1838e-05 -4.2491e-05 -1.93862e-05)
(-8.06707e-05 6.61795e-06 -4.2421e-05)
(-5.78353e-05 2.63569e-05 1.05096e-05)
(-6.45402e-05 -1.73315e-05 -2.32028e-05)
(-6.11627e-05 -1.24537e-05 -4.29971e-05)
(-8.05094e-06 3.64649e-05 -6.7342e-06)
(-8.99532e-06 6.99857e-05 1.19508e-07)
(-6.31957e-05 -3.51946e-05 9.15629e-05)
(-5.7336e-06 6.19331e-06 1.98077e-05)
(-8.94804e-05 1.37424e-05 -3.04507e-05)
(-6.21835e-05 7.39703e-06 -1.67883e-05)
(9.25769e-06 5.27357e-05 -7.33149e-05)
(3.30877e-05 1.59593e-05 6.12791e-05)
(-4.7881e-06 1.02568e-05 2.18271e-05)
(-4.74565e-05 2.53505e-05 2.24952e-05)
(-6.96627e-05 -4.92536e-05 -5.39561e-05)
(-1.08078e-05 7.37907e-05 3.99632e-05)
(-2.13296e-05 -3.71432e-05 2.68228e-05)
(-5.581e-05 1.41751e-06 5.9948e-05)
(1.95298e-05 -5.39618e-05 3.246e-05)
(-1.7079e-05 2.51842e-05 3.12723e-05)
(-9.48703e-06 -1.06829e-05 -5.33482e-05)
(1.65482e-05 -5.39176e-05 -6.82448e-05)
(-2.83611e-05 -5.82022e-05 4.25508e-05)
(-4.29443e-05 4.72821e-05 4.85063e-05)
(-8.59119e-05 -4.63066e-05 -3.54055e-05)
(-4.61088e-07 -2.59498e-07 -1.9031e-05)
(5.46276e-05 2.44423e-05 3.2749e-05)
(1.65434e-05 1.72986e-05 1.84557e-05)
(-5.80752e-05 1.07814e-05 5.04858e-05)
(4.12477e-05 -1.00473e-05 -5.04173e-05)
(-5.3237e-05 -3.82345e-05 -9.33626e-05)
(-4.1129e-05 -3.56507e-05 -5.12157e-06)
(-1.69276e-05 -6.81507e-05 -5.02639e-06)
(4.82555e-06 3.75238e-05 3.77159e-05)
(4.56388e-05 1.84609e-05 -3.01273e-05)
(-4.69655e-05 -1.90974e-05 0.000115668)
(-3.5809e-05 4.81355e-06 3.31254e-05)
(-5.05817e-05 -8.79786e-06 -4.88674e-05)
(-2.55247e-05 5.3174e-05 6.67851e-06)
(-2.26546e-05 5.4241e-06 1.6015e-05)
(-6.87692e-05 1.76887e-05 3.04151e-05)
(9.62004e-07 -1.86324e-05 1.18492e-05)
(-2.70068e-05 -4.53664e-05 -5.50877e-05)
(-6.5706e-05 4.30661e-05 2.06804e-05)
(-2.04508e-05 2.83388e-05 7.82053e-05)
(-1.45033e-05 -3.06375e-05 -1.31238e-05)
(5.26936e-05 -5.31698e-05 -2.87366e-05)
(-3.8306e-05 -5.83324e-05 -2.63612e-05)
(2.1136e-05 -5.01148e-05 -3.92387e-05)
)
;

boundaryField
{
    sides
    {
        type            symmetry;
    }
    empty
    {
        type            empty;
    }
    procBoundary3to2
    {
        type            processor;
        value           uniform (-0.0002318 -6.74487e-05 -3.56847e-06);
    }
}


// ************************************************************************* //
