/*--------------------------------*- C++ -*----------------------------------*\
  =========                 |
  \\      /  F ield         | OpenFOAM: The Open Source CFD Toolbox
   \\    /   O peration     | Website:  https://openfoam.org
    \\  /    A nd           | Version:  7
     \\/     M anipulation  |
\*---------------------------------------------------------------------------*/
FoamFile
{
    version     2.0;
    format      ascii;
    class       volScalarField;
    location    "0.00108";
    object      internalE;
}
// * * * * * * * * * * * * * * * * * * * * * * * * * * * * * * * * * * * * * //

dimensions      [1 -1 -2 0 0 0 0];

internalField   nonuniform List<scalar> 
125
(
105.386
96.9678
136.011
90.9603
113.6
130.081
129.058
129.036
89.7317
96.7191
80.6996
109.421
91.1529
88.4341
105.076
94.6953
84.3989
112.054
118.322
112.335
125.347
115.189
129.51
106.85
86.3017
119.885
77.8292
96.1348
103.269
91.0235
105.692
105.594
93.6334
138.829
127.152
113.857
89.0743
118.761
94.6286
114.484
87.5614
96.8337
87.8432
119.631
97.0215
112.162
129.526
102.144
124.932
99.7047
111.705
130.78
122.986
124.339
92.8659
95.0167
148.975
133.748
68.2329
131.076
86.6813
100.047
63.712
112.032
95.9855
120.256
114.931
107.4
129.997
103.367
117.31
128.734
114.451
83.1421
118.074
108.542
121.244
97.6519
134.968
81.9899
124.054
119.577
83.9306
113.896
151.226
112.926
98.8209
110.11
113.712
105.406
96.078
136.019
96.0026
132.831
157.895
110.817
71.728
110.203
159.491
108.334
90.8867
150.704
111.991
119.629
102.8
112.798
130.301
123.334
136.92
93.1873
121.025
120.294
96.1747
107.528
71
125.657
119.098
100.74
93.7601
114.409
117.584
81.4533
107.586
102.306
107.242
)
;

boundaryField
{
    sides
    {
        type            symmetry;
    }
    empty
    {
        type            empty;
    }
    procBoundary3to2
    {
        type            processor;
        value           uniform 96.7053;
    }
}


// ************************************************************************* //
