/*--------------------------------*- C++ -*----------------------------------*\
  =========                 |
  \\      /  F ield         | OpenFOAM: The Open Source CFD Toolbox
   \\    /   O peration     | Website:  https://openfoam.org
    \\  /    A nd           | Version:  7
     \\/     M anipulation  |
\*---------------------------------------------------------------------------*/
FoamFile
{
    version     2.0;
    format      ascii;
    class       volScalarField;
    location    "0.00108";
    object      internalE;
}
// * * * * * * * * * * * * * * * * * * * * * * * * * * * * * * * * * * * * * //

dimensions      [1 -1 -2 0 0 0 0];

internalField   nonuniform List<scalar> 
125
(
136.492
102.842
114.849
105.639
113.375
107.349
102.749
105.578
102.281
102.485
149.501
124.217
122.459
69.0996
119.307
116.841
102.357
100.602
93.1264
78.9824
132.847
116.146
112.57
110.428
109.845
80.3356
80.0982
113.741
96.9807
115.91
75.1195
104.118
140.884
114.127
123.799
113.32
101.876
81.0173
131.243
100.975
73.9216
110.545
119.099
127.489
113.923
95.0853
124.794
97.9992
71.815
98.3192
105.377
95.69
155.288
90.2552
118.393
83.6736
109.131
124.894
102.326
100.187
94.0693
82.6275
137.573
83.2812
111.276
91.2237
84.7847
103.547
109.382
138.165
101.086
124.017
132.632
95.7529
118.22
101.753
116.069
125.753
92.1938
120.114
149.226
88.4782
156.32
108.359
114.079
125.084
122.641
102.618
87.1501
121.257
98.114
135.633
94.2972
118.504
119.075
88.5748
95.2132
119.447
119.81
97.6678
83.138
119.174
104.295
128.699
115.593
130.37
94.2432
127.428
127.492
100.851
107.799
106.559
89.2874
146.459
114.791
142.08
85.1029
110.996
103.059
127.273
120.856
119.244
136.004
84.5096
97.8592
)
;

boundaryField
{
    sides
    {
        type            symmetry;
    }
    empty
    {
        type            empty;
    }
    procBoundary3to2
    {
        type            processor;
        value           uniform 98.3956;
    }
}


// ************************************************************************* //
