/*--------------------------------*- C++ -*----------------------------------*\
  =========                 |
  \\      /  F ield         | OpenFOAM: The Open Source CFD Toolbox
   \\    /   O peration     | Website:  https://openfoam.org
    \\  /    A nd           | Version:  7
     \\/     M anipulation  |
\*---------------------------------------------------------------------------*/
FoamFile
{
    version     2.0;
    format      ascii;
    class       volVectorField;
    location    "0.006";
    object      momentum;
}
// * * * * * * * * * * * * * * * * * * * * * * * * * * * * * * * * * * * * * //

dimensions      [1 -2 -1 0 0 0 0];

internalField   nonuniform List<vector> 
1000
(
(-0.000512212 5.75192e-05 -0.000140461)
(0 0 0)
(-0.00031012 0.000161715 0.000227359)
(-0.000508472 0.000452905 4.96958e-05)
(-0.000284534 8.90076e-05 0.000204542)
(-0.000933333 0.000264985 0.000645826)
(-0.000667942 4.67426e-05 0.000285462)
(-0.00120386 0.000382418 -0.000953425)
(0 0 0)
(-0.00101228 -0.000127806 -0.000394058)
(-0.000301681 0.000267832 0.000436045)
(-0.000184389 0.000175653 -0.000172507)
(-0.000506279 -0.000156232 0.00041704)
(0.000502569 0.000924682 -0.000313138)
(0 0 0)
(-0.00132476 -0.000297062 0.000280835)
(0 0 0)
(-0.00134521 0.00123356 -0.000243331)
(-0.000252403 0.000289751 -5.96251e-05)
(-0.000286075 0.000900754 0.000109)
(-0.000192711 7.62525e-05 -0.000424106)
(-0.000601446 -0.000162429 0.000491613)
(-0.00075676 -5.39535e-05 0.000192511)
(0 0 0)
(-9.83079e-05 0.000248475 0.000330875)
(0.000121936 -2.09824e-05 -2.87017e-05)
(-0.0010324 -0.000113293 0.000260109)
(-0.00116955 -0.000762532 -0.000287023)
(-0.000818346 -0.000150502 -8.01077e-05)
(6.37719e-05 -0.000134348 0.000315234)
(0 0 0)
(-0.000173041 1.46164e-05 -0.000210343)
(-0.000104105 3.36812e-05 0.00019573)
(0 0 0)
(-0.000261952 0.00019575 0.000214027)
(-0.000725197 0.000379729 0.000598311)
(-0.000566309 -7.97809e-05 -2.90756e-06)
(0.000203498 0.000117798 0.00059831)
(0 0 0)
(-0.000431657 -0.000413809 -9.89372e-05)
(-0.000814894 -0.000549114 0.00108885)
(-0.00140256 -7.44093e-05 7.69312e-05)
(-0.00113858 0.00100666 -9.03693e-05)
(-0.000663784 0.000105502 -7.371e-05)
(-0.00117413 0.000285817 5.27444e-05)
(-0.000373089 0.000509712 8.6545e-05)
(-0.000213615 0.000208862 -0.000134466)
(-0.000279839 -1.84264e-05 0.00109261)
(0 0 0)
(-9.99626e-05 0.000371194 0.000158958)
(0.000156135 0.000191386 4.47559e-05)
(-0.000849891 -0.000626427 -0.000220709)
(-0.000677041 -0.000225316 0.000108212)
(0 0 0)
(-0.000133936 -0.000246154 0.000187976)
(-2.1392e-06 -0.000190887 0.000570447)
(-0.000250257 -5.1029e-05 0.0006855)
(-0.00210037 -0.000102043 6.10701e-05)
(0 0 0)
(0 0 0)
(0 0 0)
(-0.00102907 -0.000174229 -0.000416674)
(5.95247e-05 0.000156125 -0.000185385)
(-0.00020707 -0.000247475 -6.40528e-05)
(0 0 0)
(0 0 0)
(-0.00026718 -3.20179e-06 4.66584e-05)
(-7.25087e-05 -0.000442555 0.000944939)
(0 0 0)
(-4.3446e-05 -0.00027526 -9.68892e-05)
(-0.000687452 -0.000164042 0.00011431)
(-0.00121103 0.000175161 0.00027021)
(-1.44109e-05 -0.000202909 -0.000102353)
(-0.000120894 -0.000102764 -0.000271768)
(0.000382018 -0.000144643 0.0002231)
(-0.000916841 -5.29743e-06 -0.000184055)
(-0.000309597 0.000776376 -7.31818e-05)
(-0.000256762 0.000906514 0.000110099)
(0.000431065 -0.000130282 -0.000528745)
(-0.000118509 -0.000424362 -0.000426661)
(-0.000363822 5.22164e-05 0.000635646)
(0 0 0)
(-0.000185916 -0.000159627 -3.75771e-05)
(0.000511656 -0.000503517 -0.000668478)
(-0.000751931 -0.00108501 0.000802869)
(0 0 0)
(0.000159718 -0.000499917 0.000618651)
(0.000840622 5.12062e-05 0.000210898)
(-0.000949708 -0.000571763 0.000275736)
(0 0 0)
(-0.000236912 -0.000143525 1.02097e-05)
(-0.000497363 -0.000190914 -0.000130354)
(-0.000379457 0.000337599 1.71151e-06)
(-0.000735683 0.000250175 0.000374574)
(0 0 0)
(0 0 0)
(-0.0023159 0.000947119 -0.000671285)
(-0.00140643 -8.16554e-06 0.000163709)
(0 0 0)
(-0.000815612 9.5066e-05 0.000242068)
(0 0 0)
(0.000383718 -0.000961358 0.000555031)
(-0.000166457 -0.000494689 -0.000117061)
(0.000119916 -0.000362425 7.19108e-05)
(0 0 0)
(-0.000227372 -0.000288256 0.000473603)
(-0.00125129 -0.000378344 0.000516569)
(0 0 0)
(-2.12571e-05 -0.000183491 -1.89982e-05)
(-0.000212276 -0.00033838 7.8374e-05)
(-0.000490262 -0.000403569 -0.000456581)
(-0.000213832 -0.00036846 -0.000615499)
(-3.70977e-05 0.000515389 0.000571112)
(-0.00012287 0.000532104 -2.20866e-05)
(-0.000667614 0.000538502 -0.000149257)
(0 0 0)
(-5.50041e-05 -0.000383889 2.95578e-05)
(-0.000292947 -0.000541454 0.000291088)
(0.000259136 7.9916e-05 -0.000128636)
(-0.000842921 -0.000373362 6.9778e-06)
(0.000831277 0.000395237 -0.000223534)
(0.00010572 -0.000376255 3.63806e-05)
(-0.000259896 7.35516e-05 -0.00149092)
(0.000529598 -5.06684e-05 -0.000528599)
(-0.000161879 0.000148072 -0.000545948)
(-0.000669058 0.000484657 0.000537027)
(-0.000855875 -0.000901004 0.000623043)
(-0.000509032 5.9918e-05 -0.00039422)
(-0.000352692 0.000208224 -0.000147079)
(-0.000417348 0.00014883 0.000619624)
(-5.19282e-05 0.000183704 -0.000136687)
(-0.000241032 4.90063e-05 0.000486003)
(-0.000109674 -0.000358143 0.000808505)
(-0.000782291 0.000397786 -0.000206788)
(0 0 0)
(-0.0008674 -3.20888e-05 -0.00105957)
(0.000526373 0.00078621 0.000761349)
(-5.63148e-05 4.63128e-05 -0.000282827)
(-0.000513925 -0.000994063 6.02698e-05)
(0.000192545 0.000599187 0.000607785)
(-0.00143498 0.000201029 0.000321306)
(-0.000367243 0.000604459 0.00100717)
(-0.000994415 -0.000709554 0.00036331)
(-4.78126e-05 -0.000314785 -0.00012466)
(-0.000619369 -0.000397741 0.000557158)
(-9.44028e-05 0.000790641 -0.00103627)
(0.000280799 9.29623e-05 0.000384648)
(7.40568e-05 0.000512551 0.000239131)
(0.000133263 -0.000422125 0.000305138)
(0.000515861 0.000845885 -0.000483345)
(-0.000718219 -0.000957136 -0.000466005)
(0.000319188 -0.000508391 0.000349948)
(0.00032315 -0.000458942 -0.000103601)
(2.89168e-05 -0.000351562 0.000464681)
(-0.00100316 -0.00108342 0.0008621)
(-0.00029435 1.67409e-05 -0.000870783)
(-0.000330149 4.27463e-05 -0.000407141)
(-0.000302236 0.000188843 -0.0002164)
(-0.000313764 -0.000495172 0.000155935)
(-0.000721163 -0.000199755 -0.000332551)
(-0.000400067 -0.000306725 -0.000524919)
(-0.000789603 -0.000955611 -0.0014227)
(-0.000840667 6.97312e-05 -0.000227859)
(-0.000788598 -0.000182381 0.000741277)
(-0.000770763 -0.000346636 0.00176424)
(-5.64519e-05 -0.000371758 7.86355e-05)
(0.000103456 -0.000639743 0.000366204)
(-0.000743412 0.0002692 4.74768e-05)
(-0.000182646 -0.000232749 0.000714244)
(0.000372624 0.000154796 -0.00114679)
(2.30553e-05 -0.000153045 0.000138269)
(-0.0010144 2.33927e-05 3.04104e-06)
(-0.000444107 4.99599e-05 -0.00105448)
(0.000574894 -4.53293e-05 -0.000729123)
(9.98071e-05 0.000264794 0.0010979)
(0.000784258 0.00113866 -0.000662326)
(-0.00021618 0.000412 -0.000595305)
(-0.00056068 -0.000131328 -0.000231446)
(-0.000258774 0.000274268 -0.000381309)
(-0.000904136 -2.68751e-05 -0.00054368)
(-0.000172329 0.000109783 0.000213656)
(-0.000138205 -0.000319793 0.000876016)
(4.10567e-05 0.00033176 -0.00025571)
(-0.000465846 0.000566276 -0.000405362)
(0.000294678 -0.000340382 0.000330712)
(-0.00159542 6.85142e-05 1.80295e-05)
(0 0 0)
(0 0 0)
(6.00121e-05 9.09259e-05 -0.000170108)
(-0.000896981 -8.59787e-05 -0.000630342)
(0.000551969 -0.000357486 -6.8427e-06)
(-1.16402e-05 -0.000249513 -0.000167221)
(0.00013849 0.00150891 -0.000467789)
(-0.000628524 0.00051367 -0.000541448)
(0.00146353 -0.000106949 -0.00068561)
(0.000439548 0.000847372 0.000540434)
(0.000429397 -0.000323378 -0.00121078)
(-0.00143974 0.000212457 -2.22496e-05)
(-0.000136457 0.00116201 -0.000237479)
(0.00026978 -0.000400383 -0.000180487)
(-0.000272168 -0.000307988 7.78907e-05)
(-0.000563482 -2.02037e-05 -0.000432849)
(0 0 0)
(-0.000431996 0.000200618 -8.95306e-05)
(-0.000285754 -0.00102258 -0.00114354)
(-0.000204665 0.000210958 0.000617591)
(-0.000227729 -0.000463365 0.000134758)
(-0.00112864 0.000190636 0.000132478)
(-0.000492706 -0.000419867 -8.0334e-05)
(-0.000501498 -0.00026911 0.000184321)
(0.000174193 0.000300389 -3.28716e-05)
(-0.000523292 -0.000354047 -0.000367537)
(-0.000213751 -0.000349694 0.000144664)
(-0.00145757 0.000117982 0.000703294)
(-0.000866764 0.000390496 -0.000807041)
(0 0 0)
(-0.000477068 -0.000308544 -0.000268463)
(0.00123508 0.000438973 -0.000272445)
(-5.03236e-05 0.000226086 -0.000359456)
(-0.000356056 -0.000157073 -3.77595e-05)
(-0.000483072 -0.000372995 -0.000333087)
(-0.000322554 -0.000153775 -0.000595167)
(-0.000145181 -7.89992e-05 0.000396578)
(0.000366444 -0.000755809 0.000405883)
(-0.000457974 -0.000526821 0.000211524)
(1.16947e-05 7.47268e-05 -0.000579254)
(-0.000551948 0.000325161 -0.000235026)
(0 0 0)
(-0.000716081 0.00137429 -0.000321491)
(-0.000369803 9.40838e-05 -0.000427736)
(-0.00210588 0.000965964 -0.000422687)
(0.0010514 0.000142557 0.000188481)
(-0.00207321 -7.75904e-05 -0.00135594)
(5.93652e-05 -0.000261803 -0.00049827)
(0.000492331 -0.000544798 0.000606687)
(6.10892e-05 0.000699374 0.000256323)
(-0.000660356 -0.000309177 0.000998794)
(0.000270303 0.000370891 -7.11081e-05)
(-0.000656958 -0.000275678 -0.000117712)
(5.15641e-05 -7.33099e-05 -0.000155602)
(-0.000495117 0.000410046 -0.000663942)
(-0.00109987 0.000243178 0.000717926)
(0.000491404 0.000676066 0.000963564)
(-0.00199252 0.00206744 0.000262921)
(-2.8417e-05 0.000260781 0.00128402)
(0.0013902 -0.000788322 0.000152872)
(0.000457105 0.000395086 -0.000680613)
(-0.00029544 0.000241454 -0.000595273)
(0.000499725 -0.000575153 -0.000223564)
(-0.000180741 7.11263e-05 -0.000680456)
(-0.000219055 -0.000297749 -0.000191423)
(-0.000647769 0.000144847 -0.00061298)
(-0.00017075 0.000502401 -0.000141406)
(-0.000434383 0.00017246 -0.000686368)
(-0.000130968 -0.000674128 -0.000171144)
(0 0 0)
(-0.000432366 0.000293062 0.000791156)
(-0.000450047 -0.000848655 -0.000350508)
(-0.00169637 4.09544e-05 0.000276277)
(0.000196271 -0.000526159 -0.000107094)
(-0.000218388 -0.000269905 -0.000766643)
(0.000267415 -0.000658712 -0.000991368)
(0.00114808 4.59993e-05 -0.00134733)
(0.000202417 -2.70149e-05 0.000885745)
(-0.00012866 -0.000593608 -0.000584872)
(0.00123435 -0.000829935 0.000346047)
(0.000675818 -0.00121664 7.40386e-05)
(0 0 0)
(0.000413865 -1.27778e-06 9.88139e-05)
(-0.000558932 -0.000242091 -0.00062775)
(0.000253109 0.000263488 -0.000547419)
(0.000465479 -0.000405981 -0.000663112)
(-0.000134183 -0.000770051 0.000617877)
(-0.000895826 -0.00133062 -0.000468733)
(-1.32966e-05 0.000358501 0.00125045)
(-0.000425459 -0.000724388 -0.000392664)
(-0.000452489 0.000255731 -3.00729e-06)
(-0.000302474 0.000150764 8.71674e-05)
(0.000352654 0.000495346 0.000360482)
(-0.00107708 3.99293e-05 -0.000554848)
(-0.000180388 0.0010682 0.000488777)
(-0.000129416 0.000204461 0.00050373)
(0 0 0)
(0.00038021 -0.000433854 0.000466027)
(-0.000443533 0.000192063 -0.000342242)
(0 0 0)
(-0.000507467 -0.00121213 0.000452782)
(-7.24401e-05 -0.000130252 -8.17373e-05)
(0.000879231 -0.000709236 0.000129621)
(0.000918525 4.62904e-05 -0.00160907)
(-0.000449327 -0.000916232 -0.000375916)
(0.000177847 -0.000425337 8.18157e-05)
(0.000887639 -0.000748549 -0.000281868)
(0.000852468 -6.09082e-05 5.59814e-05)
(0.000691822 0.000646097 -0.00011019)
(0.000134397 0.000867287 -0.000102795)
(0.000628455 -8.15558e-05 0.000198476)
(0.000372422 5.88682e-06 -2.43162e-05)
(-0.000181553 -0.000451547 -0.000890587)
(-0.000150889 -6.78461e-05 -0.000123744)
(-0.000524448 6.45731e-05 0.000241236)
(0.000117967 -0.000213708 -0.000293574)
(0.000496893 0.000413852 0.000990591)
(0.000678884 0.000475037 -0.000390256)
(-0.000238259 -0.000257938 -0.000284597)
(-0.000474388 0.000533127 -0.000129775)
(-0.000688779 -0.000392521 -0.000709687)
(-0.000358688 0.00071319 0.000754762)
(0.000274828 0.000571456 0.000472008)
(0 0 0)
(0.000474632 -0.000152005 -0.000165115)
(-0.00073569 -0.000130118 0.00152635)
(0 0 0)
(0.001145 -0.000330474 -0.000450103)
(0.000877188 -0.00163606 5.49423e-05)
(0.000113736 -0.00165752 -0.000283038)
(-0.000600688 -0.00125948 0.000243648)
(-0.000663828 0.000645854 -0.000498683)
(0.00140814 -0.00119789 0.000763234)
(5.47478e-05 -0.0011111 -0.000799988)
(-0.000543277 -0.00160421 -0.000729196)
(-0.000711011 0.000198243 -0.000719459)
(0.000266423 1.36213e-05 -0.000366634)
(0.000115402 -0.000207835 0.000872637)
(-0.000761235 3.39851e-05 0.000234219)
(0.000832501 0.000258718 -0.000895448)
(0.000481827 0.000645265 -0.000882102)
(-0.000296433 0.00136345 -0.000772056)
(-0.000291534 -0.000455142 0.000595852)
(-0.000224184 0.00118382 1.59292e-05)
(-0.000154174 -0.000103649 0.000921187)
(0.00139756 -0.000308803 0.00070261)
(-0.00111804 0.000578416 -0.000438835)
(0.000632191 -0.000809244 0.000367495)
(-0.000776124 -8.54352e-05 0.000253611)
(0.00106892 5.23027e-05 0.000470596)
(-0.000447702 4.20251e-05 0.000183333)
(0.000238232 0.000255926 0.000822355)
(-0.000221801 -0.00032352 -0.00107347)
(-0.000266503 0.000279612 -0.000546079)
(-8.74564e-05 -0.000227036 0.000466577)
(0.000147754 0.000803117 -8.34331e-05)
(-0.000237363 -2.1368e-05 -0.00043041)
(0.00138109 -0.000963655 -0.00166736)
(0.000640588 0.000761108 -0.000599309)
(0.000648076 -2.875e-05 -0.000297674)
(-0.00044262 -0.000112636 0.000230327)
(0.000473951 0.000403432 -0.000155509)
(-0.000154912 7.22328e-05 0.000581385)
(-0.0001522 -0.000169924 0.000530301)
(-7.03506e-06 -6.74416e-05 0.000516117)
(-0.000104802 -0.000274118 0.000106802)
(0.000470476 -0.000186463 8.48869e-05)
(-0.000112089 -0.00165213 -0.00107891)
(-0.000204971 0.000314908 0.000462303)
(0.000491089 -0.00112284 -0.000519865)
(-0.000411416 0.000551538 0.000455616)
(-0.00050477 0.000180465 0.000186979)
(-0.000156777 0.00101009 -0.00075939)
(-7.63774e-05 0.000333625 -0.000524144)
(0.000144046 -6.09896e-05 0.000190637)
(-0.000164009 0.000550566 -0.00126863)
(-5.54576e-05 -0.000411919 0.000121611)
(0.000346641 -0.000420165 -0.000743121)
(0.00115523 -9.3459e-05 -0.000750041)
(-0.000141792 0.00111487 -0.000656019)
(0.000795598 -0.000158745 0.000125628)
(-0.00020125 0.000239778 0.000600648)
(0.00014726 0.000451811 0.0005649)
(0.000285583 -0.000120194 -6.12822e-05)
(-0.000665418 -0.000373177 0.000287002)
(-0.000440885 -0.000303631 5.61244e-05)
(-0.000403192 0.000561728 0.00156015)
(0.000174119 -9.0221e-05 -6.31947e-05)
(0.0002378 -0.00105356 -0.00134303)
(-8.49401e-05 0.000786458 -0.000855738)
(-0.000349115 -0.00103488 0.000199574)
(-6.16944e-05 2.79622e-05 0.000743321)
(0.000651002 -0.000172514 -0.00135491)
(0.000325339 -0.000869739 0.000526725)
(0.000894464 3.0331e-06 0.000382177)
(-0.000149486 -0.000601915 -0.000448708)
(-0.000719374 -0.00161935 0.000222978)
(0 0 0)
(-0.000814985 0.000369098 0.00110522)
(0.000593898 0.000251795 0.000597888)
(0.000767688 0.000711127 -0.000194999)
(-0.000159584 -0.000118326 0.000546841)
(0.000606307 0.000133041 0.000190705)
(0.00057869 0.000995886 0.000595037)
(-0.00128292 -0.000797334 0.00254091)
(0.00017293 -0.00121452 0.000170694)
(-0.000999294 0.000951382 -0.00083477)
(-0.000134779 -0.000732565 -0.000622386)
(0.000505391 0.000256965 -0.000225443)
(0.000239083 -0.000225667 -0.000578915)
(-0.000601615 -0.000564004 1.62916e-05)
(0.00193687 -0.000381584 0.000219897)
(-0.00108485 -3.6646e-05 -0.000622275)
(0.000646633 0.000245134 0.000226324)
(-9.69602e-06 -0.000849332 -0.000650577)
(0.000290745 0.000993442 0.00138088)
(0 0 0)
(0.0014472 0.000941516 0.000351578)
(0.000321048 -0.000775812 -0.000191102)
(0.000504134 0.000107497 0.000347256)
(-0.000242336 -2.751e-05 0.000347077)
(-0.000143928 -0.000539997 -0.000791393)
(0.000480505 2.05263e-05 -0.000408945)
(-0.000483894 0.000197697 0.000658115)
(-0.000220232 -9.03938e-05 0.000760343)
(9.80347e-05 0.00128582 0.000703037)
(0.00160978 0.000357757 0.000136726)
(-0.000458807 0.000842383 -0.000540823)
(0.000876273 0.00103247 0.000642481)
(0.000951374 0.000173604 0.00014058)
(-5.03083e-05 0.000239613 -0.00016409)
(-0.000179202 0.000682981 0.000696787)
(-0.000224796 0.000722404 0.000286169)
(-0.000882539 -0.00183095 0.000469556)
(-0.000651442 -0.00153111 -0.000895062)
(0.000473214 0.000495842 -0.000411395)
(0.000848381 -0.000160375 0.000326623)
(-0.000168618 0.00047947 0.00175273)
(-0.000970093 0.00023123 -0.000338996)
(-0.000337391 -0.000409465 -0.000390483)
(0.00024469 -0.00147966 0.000509395)
(-0.000226698 0.000594878 -0.000331215)
(-0.00126212 -0.000207874 2.87875e-05)
(-1.00862e-05 -1.57726e-05 -0.000752394)
(0.000823677 0.000531888 -0.000333149)
(0.000135821 0.000552898 0.000399431)
(-0.00108735 -0.000594605 0.00017343)
(-4.61843e-05 9.85691e-05 -0.000948153)
(-0.000117305 0.000863773 0.000166125)
(0.0010151 0.00126355 0.000479987)
(0.000731081 0.000342411 0.000959461)
(-0.00025971 0.000399561 0.000783342)
(0.000149617 -0.000202768 0.000131917)
(0.000858463 -9.66425e-05 0.000218825)
(-0.000401052 -0.000152622 -0.00101025)
(0.000264503 -0.000214961 -0.000583315)
(-0.000428366 0.000262663 0.000330784)
(0.000460317 -0.00010718 -0.000382967)
(-0.000555888 2.9175e-05 -0.000309036)
(-0.000669748 -0.00091066 0.000478315)
(-0.000494059 0.000335598 0.000212143)
(0.00083865 0.000153643 -0.000106225)
(0.000485405 0.000261255 0.000741913)
(-0.000210484 0.000680869 0.000434356)
(-0.000364343 -0.000175554 0.000491229)
(-0.000513377 -0.000640493 -0.000484221)
(0.000679247 0.00082113 -0.000446326)
(-0.000657784 0.00016761 0.00117381)
(-0.000178579 0.000455366 0.000137153)
(0.000214945 -0.000345135 0.000129783)
(-0.000304727 0.000415197 0.000964916)
(-0.000729376 0.000242293 -0.000315774)
(4.38228e-05 -7.6611e-05 -0.000290248)
(0.00057803 -0.000601768 0.00165703)
(6.38533e-05 0.000101261 0.00030298)
(0.000503838 0.000140982 0.000205196)
(-0.00013996 0.000128465 0.000126226)
(-0.000540805 -0.000266254 0.000824332)
(0 0 0)
(0 0 0)
(-4.99358e-05 0.000309914 -0.000968599)
(0.00114715 -0.00117769 0.000251106)
(-0.0001349 -9.47485e-05 0.000568954)
(0.000496134 4.51364e-05 -0.00123826)
(-0.000266653 0.000131687 -0.000448793)
(0.000501617 0.000398811 0.000725376)
(0.000115638 -0.00049846 0.000660663)
(-2.1179e-05 -0.000903189 0.000192754)
(0.000829547 -0.000752241 0.000771992)
(0.00054099 0.000610867 0.000121961)
(0 0 0)
(-0.000604203 0.00101852 0.000780967)
(0.000406511 -0.000277092 -0.000710595)
(-0.000200952 -0.000347965 0.00101616)
(-0.000589973 -2.65508e-05 0.000348414)
(0.000551204 -0.000427009 -2.51195e-05)
(-0.000150599 -0.000212144 -0.000197978)
(0.000747051 -0.000262704 8.42627e-05)
(-9.56641e-05 0.00015858 0.000166739)
(-4.21201e-05 -5.32729e-05 0.000242807)
(-0.000569141 -0.000331531 0.000192326)
(0.000460356 -0.000427146 0.00068658)
(-0.000438148 -0.00016894 0.000457471)
(0.00114219 -0.000239534 0.00129137)
(0.000519299 -0.000179525 -0.00025437)
(-0.000426778 0.000366133 -0.000205934)
(0.00051109 -4.86776e-05 0.000192071)
(0.000640738 -0.000164227 -0.000441118)
(-0.000283112 0.000454505 -0.000456653)
(-0.00173638 -0.000553483 0.000800681)
(0.000122172 -0.000129809 5.10174e-05)
(0 0 0)
(-0.000169212 -0.000935266 -0.000104136)
(-0.000351783 0.000664028 0.000498437)
(9.26427e-05 6.60954e-05 0.000332019)
(-0.000341318 0.000929366 0.00024542)
(-0.000331535 0.000822076 0.000788876)
(-7.25874e-05 0.000210606 -0.000273212)
(0 0 0)
(0.000418601 0.000267907 1.01216e-05)
(-0.000213149 -0.000431311 -0.00016103)
(-3.51316e-05 0.000114589 0.000268198)
(-0.000655018 -0.000366317 -7.59848e-05)
(0.000543556 -0.000271833 -0.000489399)
(0.000181769 -0.000427458 -0.000559318)
(0.000499163 0.000366718 0.000216832)
(0.000273606 -0.000814656 -0.000235148)
(0.000126081 0.000565133 0.00143848)
(-0.000813885 -0.00161062 0.000947634)
(0.00107036 -0.000900581 0.000491643)
(0.000387865 6.93649e-05 -0.000478038)
(0.000116598 -0.00100463 0.000292257)
(0.000179511 -7.30697e-05 -3.66946e-05)
(0.000217658 0.000928999 0.000639638)
(0 0 0)
(-0.000410851 0.000319897 -0.000557936)
(1.47608e-05 -0.000645498 -0.00138919)
(0.000240263 0.000157636 -0.000229334)
(-0.000809347 0.000179534 -0.000940413)
(0 0 0)
(-0.0014568 -0.000366605 -0.00123527)
(-0.000108304 -0.000198511 0.000233378)
(-8.08919e-05 0.000133286 0.000462584)
(0.000236201 0.000117239 0.000157898)
(7.59909e-05 -0.000750029 1.20105e-05)
(-0.000506816 4.96957e-05 0.000195967)
(-0.00158884 -0.000248422 0.00142957)
(-0.000180605 -0.00016065 0.000185242)
(-0.000320773 -0.00021761 0.000225813)
(0.000875331 0.000789946 -0.00041772)
(2.00367e-05 0.000610451 0.000388025)
(9.49031e-05 -0.00057987 0.000380245)
(0.00123757 0.001349 0.00166718)
(-0.000619808 0.000603989 -0.000178925)
(-0.000571032 0.000897448 0.000956399)
(0.00102858 -0.00075677 0.000138084)
(0.0011101 0.000602957 -0.00026462)
(7.00524e-05 -0.000507623 -0.000595832)
(-0.000232197 -0.000242715 -0.000141266)
(-0.000988382 0.000371214 -0.000385232)
(-0.000412703 0.000172272 -0.000278708)
(0.000335554 0.00154436 9.79154e-05)
(-0.000119238 3.71776e-05 0.000913687)
(-0.000274987 -0.000832409 -0.000475312)
(-3.866e-05 0.000689274 -0.000219149)
(-0.000757415 0.000213546 0.000138531)
(0.000160896 0.00109306 -0.000304576)
(-0.000361336 -0.000174534 0.00026219)
(0.000455237 -0.00033273 0.000207678)
(-0.00109299 -0.000695795 -0.00063046)
(0.000453486 0.00027136 0.000217888)
(-0.000564972 0.00169895 -0.00135405)
(0.000579852 8.57951e-05 -0.00024061)
(0.000146464 2.68175e-05 -0.000271946)
(-1.51913e-05 -0.000247037 -0.000917925)
(4.52676e-05 -0.000505077 -0.000138459)
(-2.84634e-05 -0.000426771 -0.000974583)
(-0.000474848 0.000921239 0.00124799)
(0.00095585 -2.70649e-05 0.0011069)
(0.000465455 -0.000357527 -0.000958338)
(0.00154015 -0.00209333 6.43016e-05)
(0.000182955 -0.00147896 0.00063694)
(0.00159279 0.000627222 0.00011156)
(-0.00113748 -0.000400252 -0.000274064)
(0.000562094 -0.000714881 -0.000306649)
(-0.000206643 0.000432964 0.000776384)
(-0.000426462 -0.000583817 -0.0014891)
(-7.12701e-05 0.000196062 -0.000128037)
(-0.000466657 0.00135989 -0.000194012)
(0.000777858 1.79436e-05 -4.15662e-05)
(-0.00126495 0.000312534 0.000457955)
(0.000941146 -0.000318591 0.000700649)
(0.000449478 0.000431271 -0.000750365)
(2.19183e-05 0.000138054 -0.000708508)
(0.000153524 0.00104441 -4.59583e-05)
(0 0 0)
(-2.78097e-05 4.41127e-05 -0.000695824)
(0.000256085 -0.000600727 0.000519239)
(0.000722095 1.6525e-05 3.95814e-05)
(-4.84236e-05 -0.00043255 6.65333e-05)
(-0.000318749 0.00110259 0.00110955)
(0 0 0)
(0.000777947 0.00100271 -0.000367715)
(-0.000914263 0.000724904 -0.000300626)
(-0.00162323 -0.000484785 0.000960999)
(0.000301991 -0.000455689 0.000156626)
(-0.000662555 0.000651867 0.000104613)
(-0.000628981 9.52928e-05 0.000473639)
(-0.000278826 -0.000682604 -0.000113055)
(-0.000404846 0.000442994 -0.000158681)
(0.000645886 -9.98038e-05 -0.000693246)
(0.000729801 -0.00038031 -0.000473916)
(-0.00107847 -0.00130817 -0.000894596)
(-9.42681e-06 -0.00115846 -0.00145804)
(-7.63912e-08 0.000144697 -0.000624839)
(0.000299903 0.000763798 0.000220621)
(0 0 0)
(-0.000456715 -3.10823e-05 -0.000290576)
(-0.000162706 -0.000713758 0.000613209)
(-0.00109366 -0.000177549 0.00128578)
(0.000228356 0.000418095 -0.000512614)
(-0.0009838 0.0013024 8.97781e-05)
(-0.00114612 -0.000172522 -0.000112841)
(-0.000289464 -0.000693394 0.000295766)
(0.000726729 0.000368915 -0.000591146)
(-7.22866e-05 0.00115821 0.00123067)
(0.000368001 0.000544299 0.000491851)
(-2.20443e-06 0.000178957 -0.000210579)
(5.87492e-05 -0.000802826 0.00086282)
(6.05459e-06 0.000311224 -0.000503407)
(-0.00131959 -0.000970782 -0.00156411)
(-0.000195367 0.000399092 -0.00143251)
(-0.000171652 0.0011551 -0.00107318)
(-0.000279516 0.000340313 0.000899726)
(0.000924178 -0.000103928 0.00100089)
(7.84296e-05 3.82076e-05 -0.00105665)
(-0.000131513 -0.000246926 -0.000389363)
(0 0 0)
(2.99074e-05 -0.000679198 7.27866e-05)
(-0.000260997 -0.000980912 0.000144284)
(0.000356774 0.00143523 0.000586515)
(1.12004e-05 0.00111778 -0.000236751)
(0.000280846 0.000718154 -0.000300058)
(0 0 0)
(0.00103744 -5.49165e-05 -0.000243515)
(-0.000305587 -2.93106e-05 -0.000401715)
(-0.000538206 0.00042344 0.00102571)
(0.00042942 0.000103639 -0.000572346)
(-0.000222763 4.17595e-05 -0.000538452)
(-7.63584e-05 -0.00029973 -0.000596298)
(-0.000202507 0.000398353 0.000355958)
(-0.000538596 -6.10288e-05 -0.000754456)
(0.000131372 -9.39337e-05 -0.000208101)
(0.000353332 -0.000932342 0.000401742)
(0.000193905 -9.39735e-05 -0.000308162)
(-0.00110428 0.000466028 -0.000160774)
(-0.000333069 0.000355741 0.000202526)
(-0.00115845 -0.000165061 -0.00181743)
(-0.000639257 0.00031479 0.000650202)
(0.00156393 0.0010544 -0.00013236)
(0.000425254 -0.000194028 -1.34687e-05)
(-0.000141397 0.000581723 -0.000228534)
(0.000324702 -0.000224566 -0.00018489)
(-4.17295e-05 0.000451783 -0.000430438)
(0.000358725 0.000857729 -0.000200769)
(-0.00111289 -0.000519865 0.000630007)
(-0.000150707 -8.83883e-06 -0.000533683)
(0.000387207 -3.28614e-05 -5.46042e-05)
(-2.7336e-05 6.69956e-05 0.000101805)
(-0.000350876 0.000667341 0.000677268)
(-0.000553175 -0.00013803 0.000305715)
(0.000277349 0.00100296 -0.00035022)
(0.000272431 -0.000794389 0.000358905)
(-0.000402796 0.000588996 -0.000302297)
(-0.000383763 -5.84792e-05 -9.06695e-05)
(0.00023326 -0.000330179 -0.000884473)
(-0.00035222 0.000287438 -0.000592737)
(-2.12373e-05 -0.000914806 -0.000616419)
(0.00127893 -0.00126401 -0.00116921)
(0.000989716 0.00109152 -0.000685101)
(-5.47509e-05 9.82927e-05 0.000443472)
(-0.000159095 0.000187967 0.000265016)
(-0.000215487 -0.000992824 -0.00134652)
(-0.000113716 -0.000122382 -0.000649031)
(-0.000962394 -8.07897e-05 -0.000321659)
(0.000324415 8.20245e-05 0.000453472)
(-0.000412938 6.22444e-05 0.000659669)
(0 0 0)
(-0.000335714 -0.000587287 -6.96723e-05)
(0.000315406 5.48311e-05 0.00115065)
(-9.45002e-05 0.000899811 0.000293226)
(-2.53299e-05 0.000762619 -0.00227047)
(0.000424927 -0.000226925 -2.55354e-05)
(0.0010212 0.00106676 -0.000476077)
(-0.000219418 -0.000434029 0.000668581)
(0.000853335 0.000445857 0.000731789)
(0.000515836 -0.000157673 0.00107679)
(5.444e-05 0.00167673 0.000421589)
(0.00042088 0.000576396 -0.00084208)
(0.000593889 -0.000543301 -2.69726e-05)
(0.000215216 -0.000167724 0.000160293)
(-0.00116271 0.000747702 -0.000310857)
(-0.000288484 0.000183683 -0.000538049)
(-0.000172418 -8.95738e-05 0.000520089)
(-0.000882297 0.000895001 -0.000447014)
(0.00013882 0.000691889 0.000478222)
(-0.000703908 6.33812e-05 -0.000195229)
(0.000166502 0.000361698 0.000978648)
(-4.28718e-05 0.000372203 -0.00107012)
(-0.000145112 0.00107136 0.000471713)
(-0.000558582 -8.74332e-05 5.64951e-05)
(-0.000421262 0.00080103 0.000778632)
(0.0011887 0.00018383 0.000886198)
(0.000196055 -0.000284832 -7.16203e-05)
(0.000515056 -0.00103829 -0.000337908)
(0.00065583 0.000332988 0.000201495)
(0.000344347 -0.000541371 -0.000878911)
(-0.000164989 7.52741e-05 6.21111e-05)
(1.41479e-05 -0.000290979 -7.56723e-05)
(-0.000213549 -0.000502665 -0.000160453)
(0.000362826 -0.000566464 -1.76258e-05)
(0.000192954 0.000701944 -0.000111965)
(-7.93552e-05 -0.000399542 0.000849956)
(0.000190109 -0.00055272 0.001185)
(0.000437497 0.000243729 0.000463729)
(-1.96456e-05 -0.00109493 0.000618755)
(0.00147196 -0.00123984 -0.000514821)
(-0.000869552 0.000700841 -0.000419136)
(-8.85739e-05 -0.000127097 0.000508832)
(0.00078086 -0.000338363 0.000922515)
(0.000363163 0.000220876 -6.80157e-05)
(-0.0006596 -0.000142501 -0.00105442)
(0.000440075 0.000612625 -0.000220406)
(-0.000814944 0.00017656 -0.000311695)
(-0.000841262 0.000296865 0.00171717)
(0.00060241 0.000613672 -0.000127343)
(0.000108333 0.000674098 -3.01528e-05)
(0.000483958 0.000182567 0.000758213)
(0.000758751 -0.000253388 -0.000290725)
(-0.00168126 0.000540737 6.69654e-06)
(2.97944e-05 -0.000353407 0.000521859)
(-0.000406498 -0.000156383 0.000564549)
(0.000308896 -0.000370026 0.00202801)
(7.23083e-05 0.000844938 0.000296659)
(-0.000564242 0.000166357 -0.00048451)
(0.000843777 8.52202e-05 -4.89485e-05)
(2.60151e-06 7.7164e-05 -0.000292706)
(0 0 0)
(-0.000264265 0.00106918 -0.00016375)
(-9.0703e-05 0.000399161 4.59315e-05)
(0.00103294 0.00035307 0.000159493)
(-0.000302445 5.86436e-05 0.00110986)
(0.000197643 -0.000746782 -0.0003746)
(-0.000603047 -0.000675718 0.000403137)
(-0.000291809 -0.000552374 0.000348972)
(-0.000159761 0.000769951 -0.000635656)
(0.000281002 0.000366111 -0.000398697)
(0.000776649 -0.000349656 1.763e-05)
(8.62699e-05 -0.000228409 0.000226795)
(-1.68151e-05 0.000269641 0.00020617)
(0.000225148 -8.73664e-05 0.000420805)
(-0.000581177 0.00011084 0.00151172)
(-0.000190356 0.000241979 0.000121955)
(0.000224911 0.00237324 0.000573266)
(0.000336457 -0.000355658 -0.00155578)
(-0.000404032 -2.47091e-05 0.000775184)
(0.000517347 0.000268299 0.000359108)
(-0.00085564 -0.00109278 9.97292e-05)
(0.000596639 -3.69524e-05 0.000161136)
(0.000106182 0.00210543 0.00251976)
(-0.000729559 0.000805811 -0.00121444)
(8.6241e-05 0.0010598 4.29042e-05)
(3.99599e-05 8.34164e-05 -0.000157036)
(-8.37036e-05 -2.74356e-05 0.00116546)
(0.000104801 0.00123365 -0.000890078)
(-0.000105004 -0.000261998 -0.000411463)
(-0.000328756 -0.00178539 0.000579283)
(-0.000365153 0.00042253 -3.25195e-05)
(0.000709991 -0.000495147 0.00089826)
(-0.000312747 -0.000396682 0.000112496)
(0.000741876 -0.000588168 -0.000144896)
(-0.00158131 -0.00129661 0.00098344)
(-0.000416692 0.000454109 -0.000258698)
(0.000405023 0.000191805 0.000162317)
(0.000180174 2.91764e-05 -0.00180055)
(0.000253908 1.55154e-05 0.00168608)
(-0.000265043 0.000259044 0.000197607)
(-0.00033768 1.73143e-05 -0.000521078)
(-0.000141117 -0.000318334 0.000306448)
(-0.00012527 -0.000158911 0.000390015)
(-0.000893994 0.000283425 -0.000117597)
(0.000803653 0.000229378 5.77966e-05)
(0.000518899 -5.03133e-05 0.00113064)
(0.00169091 0.000401895 -0.000269524)
(0.000337345 -0.000605433 0.00127237)
(0.00122183 0.000961139 0.00179444)
(7.21758e-06 -0.000106419 -0.000329317)
(0.000450786 -0.000767596 0.000651021)
(-2.39721e-05 -0.000237008 0.000223313)
(0.000218235 -0.000251254 -0.000133872)
(-0.000815614 -0.000427699 -4.21826e-06)
(0.000395659 0.000413709 -0.000831326)
(0.000198027 0.000323984 -0.000672879)
(-0.000207476 1.6036e-05 0.000417928)
(0.00024706 7.39459e-05 -0.000199417)
(-0.00056539 -0.00049999 -0.000831306)
(0.000342149 -0.000371595 0.000466895)
(0.000849318 0.000379042 -0.000995432)
(0.000130611 -7.45919e-05 0.000413157)