/*--------------------------------*- C++ -*----------------------------------*\
  =========                 |
  \\      /  F ield         | OpenFOAM: The Open Source CFD Toolbox
   \\    /   O peration     | Website:  https://openfoam.org
    \\  /    A nd           | Version:  7
     \\/     M anipulation  |
\*---------------------------------------------------------------------------*/
FoamFile
{
    version     2.0;
    format      ascii;
    class       volScalarField;
    location    "0.004";
    object      iDofMean;
}
// * * * * * * * * * * * * * * * * * * * * * * * * * * * * * * * * * * * * * //

dimensions      [0 -3 0 0 0 0 0];

internalField   nonuniform List<scalar> 
1000
(
1.20025e+20
7.3475e+19
7.4525e+19
8.05e+19
1.35788e+20
1.3685e+20
8.73625e+19
8.805e+19
9.13625e+19
1.53313e+20
1.07975e+20
1.11138e+20
1.67362e+20
1.03788e+20
1.02525e+20
1.00125e+20
9.11e+19
9.50875e+19
9.91125e+19
9.7625e+19
9.78375e+19
1.10487e+20
1.711e+20
1.20075e+20
1.0395e+20
1.02438e+20
1.51963e+20
1.00925e+20
9.9825e+19
9.9425e+19
9.705e+19
1.47912e+20
1.3455e+20
9.02875e+19
9.32125e+19
9.45e+19
1.46675e+20
9.7575e+19
1.02488e+20
1.497e+20
9.5325e+19
9.98375e+19
1.54763e+20
1.07237e+20
1.09362e+20
1.09988e+20
1.09487e+20
1.59687e+20
1.16938e+20
1.41575e+20
2.073e+20
1.079e+20
1.60262e+20
1.178e+20
1.21375e+20
1.732e+20
1.75512e+20
2.2705e+20
1.71913e+20
1.21063e+20
1.29125e+20
1.8075e+20
1.29437e+20
1.24975e+20
1.25812e+20
1.36225e+20
1.86388e+20
1.249e+20
1.18362e+20
1.7285e+20
1.27475e+20
1.29775e+20
1.28437e+20
1.25525e+20
1.27138e+20
1.27463e+20
1.76963e+20
1.75187e+20
1.19787e+20
1.20388e+20
1.13825e+20
1.15375e+20
1.65225e+20
1.664e+20
1.74813e+20
1.21162e+20
1.23213e+20
1.15062e+20
1.05588e+20
1.05487e+20
1.08275e+20
1.12138e+20
1.1755e+20
1.687e+20
1.30125e+20
1.519e+20
1.2e+20
1.279e+20
1.25213e+20
1.6605e+20
1.08925e+20
1.2035e+20
1.235e+20
1.251e+20
1.23475e+20
1.16275e+20
1.16013e+20
1.15437e+20
1.62438e+20
1.54387e+20
1.40525e+20
1.42437e+20
1.33363e+20
1.83212e+20
1.4975e+20
1.67275e+20
1.7125e+20
1.4845e+20
1.861e+20
1.792e+20
1.28888e+20
1.8045e+20
1.35263e+20
1.40737e+20
1.39888e+20
1.877e+20
1.83612e+20
1.81325e+20
1.30925e+20
1.30638e+20
2.32587e+20
1.55275e+20
1.54712e+20
1.37325e+20
2.30137e+20
1.32675e+20
1.77712e+20
1.78975e+20
1.31425e+20
1.69275e+20
1.26937e+20
1.39938e+20
1.41187e+20
1.41538e+20
2.11125e+20
1.49975e+20
1.499e+20
1.40338e+20
1.36375e+20
1.37225e+20
1.88225e+20
1.38775e+20
1.38875e+20
1.39575e+20
1.89263e+20
2.1825e+20
1.69163e+20
1.70025e+20
2.21713e+20
1.58887e+20
1.36588e+20
1.83012e+20
1.33688e+20
1.3535e+20
1.36138e+20
1.90037e+20
1.86575e+20
1.35637e+20
1.38588e+20
1.41575e+20
1.50663e+20
2.07725e+20
1.5425e+20
1.51562e+20
1.96988e+20
1.51438e+20
1.98287e+20
1.40325e+20
1.41512e+20
1.51038e+20
2.00537e+20
1.98613e+20
2.43737e+20
1.36163e+20
1.31662e+20
1.35463e+20
1.88412e+20
1.38475e+20
1.85925e+20
1.3625e+20
1.41325e+20
1.42438e+20
2.432e+20
1.93813e+20
1.46525e+20
1.4685e+20
1.93312e+20
1.43138e+20
1.468e+20
1.46213e+20
1.49638e+20
1.53212e+20
2.13013e+20
1.63275e+20
1.60775e+20
1.68162e+20
1.705e+20
2.209e+20
2.67013e+20
2.09337e+20
1.451e+20
1.39412e+20
1.39988e+20
1.446e+20
1.949e+20
1.97525e+20
1.98638e+20
1.93225e+20
1.47225e+20
1.98925e+20
1.47913e+20
1.50725e+20
1.56338e+20
1.58675e+20
1.641e+20
1.6315e+20
1.5795e+20
2.04213e+20
1.53125e+20
2.04238e+20
1.56562e+20
1.56988e+20
1.534e+20
1.97288e+20
1.44012e+20
1.46563e+20
1.64462e+20
1.87425e+20
1.96075e+20
1.76788e+20
1.80012e+20
1.56125e+20
1.62787e+20
2.14313e+20
1.62237e+20
2.2555e+20
1.78837e+20
1.8345e+20
2.24612e+20
2.17738e+20
1.58263e+20
1.93037e+20
1.41088e+20
1.45075e+20
1.50888e+20
1.47912e+20
1.4395e+20
1.44562e+20
1.41738e+20
1.37337e+20
1.353e+20
1.364e+20
1.348e+20
1.33e+20
1.85075e+20
1.36675e+20
1.37563e+20
1.3285e+20
1.34938e+20
1.337e+20
1.36713e+20
1.3605e+20
1.3885e+20
1.43712e+20
1.45488e+20
1.48688e+20
1.49712e+20
1.5075e+20
1.49737e+20
1.49625e+20
1.4645e+20
2.96113e+20
1.45462e+20
1.43913e+20
1.4315e+20
1.42238e+20
1.42687e+20
1.39725e+20
1.36662e+20
1.90913e+20
1.37712e+20
1.39175e+20
1.40712e+20
1.3615e+20
1.82362e+20
1.30725e+20
1.3205e+20
1.8795e+20
1.83e+20
1.33875e+20
2.33737e+20
1.36337e+20
1.38513e+20
1.39612e+20
1.946e+20
1.44925e+20
1.4435e+20
1.41062e+20
1.378e+20
1.41775e+20
1.465e+20
1.4715e+20
1.46738e+20
1.45912e+20
1.43025e+20
1.43275e+20
1.424e+20
1.90625e+20
1.53087e+20
1.5845e+20
1.617e+20
1.60712e+20
1.58763e+20
1.59225e+20
2.09888e+20
1.53412e+20
2.467e+20
1.49638e+20
2.29325e+20
1.721e+20
2.08988e+20
1.603e+20
1.67712e+20
2.23087e+20
1.72812e+20
2.225e+20
1.74025e+20
1.73575e+20
1.685e+20
2.16388e+20
1.6005e+20
2.59375e+20
1.67275e+20
1.644e+20
2.15838e+20
1.6635e+20
1.74887e+20
1.86225e+20
1.81013e+20
1.57213e+20
1.523e+20
1.5605e+20
1.56338e+20
1.57863e+20
2.08625e+20
1.512e+20
1.96788e+20
1.45588e+20
1.401e+20
1.409e+20
1.42488e+20
1.466e+20
1.54613e+20
2.01937e+20
1.551e+20
2.05275e+20
1.9655e+20
1.95862e+20
1.48413e+20
1.48387e+20
1.53925e+20
1.56862e+20
1.66925e+20
2.17512e+20
1.73938e+20
1.7625e+20
2.27288e+20
1.7455e+20
1.69337e+20
1.61025e+20
1.60275e+20
1.60687e+20
1.57337e+20
1.57425e+20
1.558e+20
1.56625e+20
1.574e+20
1.57425e+20
2.10112e+20
2.10962e+20
2.12425e+20
2.2665e+20
1.77462e+20
1.75513e+20
2.05337e+20
1.56975e+20
2.08262e+20
1.547e+20
2.0595e+20
2.063e+20
2.04275e+20
1.54463e+20
1.6225e+20
1.65737e+20
2.13362e+20
1.59088e+20
2.11788e+20
1.5565e+20
1.49712e+20
1.984e+20
2.47987e+20
2.08825e+20
1.55425e+20
2.05263e+20
1.53625e+20
2.0785e+20
2.07e+20
1.9935e+20
1.4625e+20
1.54637e+20
1.70875e+20
2.14475e+20
1.46925e+20
1.4755e+20
1.46237e+20
1.4005e+20
1.38238e+20
1.57075e+20
2.15775e+20
1.35562e+20
1.27775e+20
1.26225e+20
1.25613e+20
1.20437e+20
1.145e+20
1.294e+20
1.32013e+20
1.83625e+20
1.82662e+20
1.19012e+20
1.23238e+20
1.50838e+20
1.49925e+20
1.26613e+20
1.2545e+20
1.74887e+20
1.25212e+20
1.73538e+20
1.26025e+20
1.24338e+20
1.65475e+20
1.18125e+20
1.198e+20
1.209e+20
1.21238e+20
1.21463e+20
1.22675e+20
1.23938e+20
1.23463e+20
1.75325e+20
2.28075e+20
1.4735e+20
1.64987e+20
1.65312e+20
1.48975e+20
1.42162e+20
1.35937e+20
1.37437e+20
1.3455e+20
2.33537e+20
2.34075e+20
1.83588e+20
1.30213e+20
1.31238e+20
1.402e+20
1.94587e+20
1.444e+20
1.494e+20
1.57938e+20
1.72713e+20
1.39225e+20
1.376e+20
1.8725e+20
1.85937e+20
1.33987e+20
1.84225e+20
1.37238e+20
1.37638e+20
1.32075e+20
1.29688e+20
1.3335e+20
1.35588e+20
1.65225e+20
1.78312e+20
1.52563e+20
1.91513e+20
1.3875e+20
2.37312e+20
1.38512e+20
1.41088e+20
1.4765e+20
1.9735e+20
1.45675e+20
1.54737e+20
1.61063e+20
2.1225e+20
1.61763e+20
1.48375e+20
1.4585e+20
1.6415e+20
1.67925e+20
1.83212e+20
1.73713e+20
1.9885e+20
1.49338e+20
1.68125e+20
2.20538e+20
1.65512e+20
1.54162e+20
2.16675e+20
1.65175e+20
1.55687e+20
1.43362e+20
1.44788e+20
1.408e+20
1.407e+20
1.4215e+20
1.40062e+20
2.427e+20
1.42225e+20
1.497e+20
1.43912e+20
2.8885e+20
1.83375e+20
1.32838e+20
1.312e+20
1.3235e+20
2.298e+20
1.29087e+20
1.81975e+20
1.32475e+20
1.32362e+20
1.86462e+20
1.377e+20
1.34075e+20
1.419e+20
1.69525e+20
1.69512e+20
2.092e+20
1.316e+20
1.33712e+20
2.4405e+20
1.77137e+20
1.3235e+20
1.32837e+20
1.842e+20
1.89038e+20
1.59325e+20
1.66987e+20
1.4795e+20
1.42437e+20
1.44088e+20
1.48925e+20
2.00625e+20
2.01712e+20
1.53838e+20
1.601e+20
2.11488e+20
2.00025e+20
1.974e+20
1.753e+20
1.74588e+20
2.33962e+20
1.76388e+20
2.24925e+20
1.76038e+20
1.75825e+20
1.94775e+20
1.93337e+20
1.75987e+20
1.72762e+20
1.71288e+20
1.72225e+20
1.6665e+20
1.62737e+20
2.1145e+20
2.647e+20
1.78812e+20
2.33487e+20
1.9035e+20
1.80225e+20
1.81287e+20
1.80388e+20
1.8265e+20
1.71813e+20
1.6905e+20
1.67763e+20
1.6635e+20
1.68888e+20
1.6195e+20
2.08975e+20
1.51862e+20
1.51175e+20
1.5235e+20
2.02862e+20
1.47062e+20
2.37825e+20
1.86475e+20
1.45538e+20
1.44412e+20
1.46475e+20
1.9995e+20
1.448e+20
1.36975e+20
1.39437e+20
1.923e+20
1.42462e+20
1.3925e+20
1.32725e+20
1.29275e+20
1.29012e+20
1.769e+20
1.25337e+20
1.25125e+20
1.30875e+20
2.58187e+20
1.612e+20
1.658e+20
1.44837e+20
1.91275e+20
1.42012e+20
1.44463e+20
1.9455e+20
1.47075e+20
1.99812e+20
1.53288e+20
1.61687e+20
1.62625e+20
2.12863e+20
1.58138e+20
1.636e+20
1.67725e+20
2.16237e+20
2.025e+20
1.5945e+20
1.8545e+20
1.63325e+20
1.6105e+20
1.39962e+20
1.395e+20
1.42025e+20
1.4335e+20
1.47275e+20
1.50062e+20
1.48863e+20
1.472e+20
1.96813e+20
1.986e+20
1.43838e+20
1.89013e+20
2.40625e+20
1.40937e+20
1.39025e+20
1.89513e+20
1.405e+20
1.4805e+20
2.06625e+20
1.59213e+20
1.57087e+20
2.5665e+20
1.48925e+20
2.01825e+20
1.53813e+20
1.515e+20
1.47475e+20
1.99437e+20
1.54425e+20
1.56925e+20
1.64687e+20
1.67837e+20
2.18375e+20
1.67913e+20
1.649e+20
1.61113e+20
1.57837e+20
2.047e+20
2.05987e+20
1.52813e+20
1.52525e+20
1.54325e+20
1.64725e+20
1.656e+20
1.67e+20
1.66362e+20
1.61825e+20
1.6505e+20
1.71825e+20
1.70663e+20
2.12937e+20
2.23312e+20
1.74088e+20
2.24537e+20
2.23913e+20
2.22962e+20
1.6145e+20
2.58475e+20
1.61013e+20
3.237e+20
1.85813e+20
1.57637e+20
1.57338e+20
1.64662e+20
1.81863e+20
1.71925e+20
1.55525e+20
1.56925e+20
1.56125e+20
1.62712e+20
1.64725e+20
1.679e+20
1.65038e+20
1.65937e+20
1.90488e+20
1.8735e+20
1.67913e+20
1.6475e+20
1.59962e+20
2.11563e+20
1.63362e+20
2.04538e+20
1.76275e+20
2.24288e+20
1.83525e+20
1.807e+20
1.73925e+20
1.65275e+20
1.613e+20
2.22313e+20
1.85825e+20
1.72638e+20
1.60662e+20
1.54975e+20
2.05162e+20
1.91288e+20
1.94825e+20
1.5175e+20
1.55237e+20
1.65913e+20
1.8585e+20
2.34863e+20
1.76475e+20
1.67787e+20
1.61413e+20
1.57437e+20
1.57438e+20
1.58387e+20
1.74338e+20
1.74912e+20
2.25013e+20
2.23762e+20
2.20538e+20
1.86787e+20
1.84863e+20
1.81562e+20
2.24713e+20
1.7205e+20
1.66713e+20
1.58287e+20
1.65625e+20
1.70962e+20
1.78938e+20
1.745e+20
2.07563e+20
1.422e+20
1.84463e+20
1.3555e+20
1.45637e+20
2.00075e+20
2.02337e+20
1.5035e+20
2.06125e+20
1.54463e+20
1.56875e+20
1.74788e+20
1.65712e+20
1.45513e+20
1.469e+20
1.40413e+20
1.391e+20
1.38475e+20
2.081e+20
1.63813e+20
1.86325e+20
1.35838e+20
1.32575e+20
2.31413e+20
1.27062e+20
1.26475e+20
1.77312e+20
1.74963e+20
1.73788e+20
1.336e+20
1.4185e+20
1.408e+20
1.45413e+20
1.436e+20
1.32838e+20
1.30812e+20
1.30738e+20
1.29762e+20
1.21488e+20
1.19712e+20
1.21325e+20
1.73387e+20
1.7555e+20
1.25275e+20
2.27075e+20
1.32712e+20
1.94625e+20
2.00487e+20
1.53763e+20
2.06562e+20
1.93575e+20
1.56187e+20
2.14538e+20
2.16413e+20
2.17262e+20
1.67838e+20
1.6825e+20
2.18488e+20
2.18487e+20
1.6645e+20
1.49812e+20
1.96263e+20
1.9925e+20
1.55813e+20
1.49612e+20
2.01088e+20
1.57137e+20
1.59288e+20
1.64162e+20
1.6535e+20
2.06587e+20
1.511e+20
1.9385e+20
1.92275e+20
1.97087e+20
1.48438e+20
1.953e+20
2.46175e+20
1.4255e+20
1.41862e+20
1.42938e+20
1.515e+20
2.0515e+20
1.60162e+20
2.15675e+20
1.6615e+20
1.67713e+20
1.66825e+20
1.66488e+20
2.19325e+20
1.76325e+20
1.97562e+20
2.07663e+20
1.86675e+20
1.89338e+20
1.90937e+20
1.95675e+20
1.88937e+20
2.33513e+20
1.81287e+20
1.80413e+20
1.75875e+20
1.706e+20
1.67288e+20
1.73237e+20
1.75363e+20
1.68662e+20
2.17238e+20
1.80675e+20
1.80713e+20
1.71e+20
2.10775e+20
2.05612e+20
1.48813e+20
1.50575e+20
1.87513e+20
1.452e+20
1.43263e+20
1.9025e+20
1.43613e+20
1.428e+20
1.62125e+20
1.79975e+20
1.74888e+20
2.06625e+20
1.4825e+20
1.35262e+20
1.32875e+20
1.27375e+20
1.74425e+20
1.75025e+20
1.24587e+20
1.22513e+20
1.22175e+20
1.738e+20
1.75325e+20
1.2265e+20
1.41238e+20
2.4655e+20
1.53475e+20
2.4395e+20
1.458e+20
1.42575e+20
1.81988e+20
1.26938e+20
1.24363e+20
1.87925e+20
1.38837e+20
1.31338e+20
1.74912e+20
1.24e+20
1.23975e+20
1.22675e+20
1.19838e+20
1.18975e+20
1.66887e+20
1.22562e+20
1.66675e+20
1.69975e+20
1.21e+20
1.75013e+20
1.25075e+20
1.25175e+20
1.28437e+20
1.27375e+20
1.2735e+20
1.26775e+20
1.76725e+20
1.32388e+20
1.502e+20
1.31513e+20
1.11162e+20
1.09225e+20
1.59213e+20
1.08412e+20
1.56125e+20
1.0695e+20
1.54738e+20
2.031e+20
1.04825e+20
1.03212e+20
1.00625e+20
9.82e+19
1.5115e+20
1.01212e+20
1.00788e+20
1.5015e+20
9.47375e+19
9.335e+19
9.28e+19
9.285e+19
9.38125e+19
9.42e+19
9.7e+19
1.55513e+20
1.57613e+20
2.03062e+20
1.20812e+20
1.18563e+20
1.3565e+20
1.55262e+20
1.23463e+20
1.12e+20
1.31063e+20
1.65888e+20
1.49725e+20
1.47862e+20
9.6725e+19
9.4575e+19
1.48162e+20
1.45038e+20
9.5225e+19
9.55875e+19
1.01875e+20
9.9875e+19
9.77875e+19
1.44688e+20
8.805e+19
8.2275e+19
8.19875e+19
8.12125e+19
8.025e+19
7.895e+19
7.62e+19
1.21125e+20
6.7125e+19
6.71e+19
6.67125e+19
)
;

boundaryField
{
    sides
    {
        type            calculated;
        value           nonuniform List<scalar> 2(6.67125e+19 1.20025e+20);
    }
    empty
    {
        type            empty;
    }
}


// ************************************************************************* //
