/*--------------------------------*- C++ -*----------------------------------*\
  =========                 |
  \\      /  F ield         | OpenFOAM: The Open Source CFD Toolbox
   \\    /   O peration     | Website:  https://openfoam.org
    \\  /    A nd           | Version:  7
     \\/     M anipulation  |
\*---------------------------------------------------------------------------*/
FoamFile
{
    version     2.0;
    format      ascii;
    class       volScalarField;
    location    "0.004";
    object      internalE;
}
// * * * * * * * * * * * * * * * * * * * * * * * * * * * * * * * * * * * * * //

dimensions      [1 -1 -2 0 0 0 0];

internalField   nonuniform List<scalar> 
500
(
0.87241
0.954909
0.88001
0.931038
1.03564
1.12889
1.21463
1.23381
1.12764
1.33117
1.28213
1.07022
1.12365
1.38845
1.51139
1.44747
1.46309
1.33802
1.36782
1.39979
1.45384
1.42832
1.4824
1.55417
1.48148
1.76054
1.80369
1.75287
1.51736
1.88801
1.99286
1.93167
1.95532
1.79943
1.92239
2.10773
2.02176
2.19568
2.30694
2.1349
2.03588
2.26268
2.17062
2.3434
2.18336
2.14737
2.23454
2.49902
2.38892
2.71737
2.64206
2.60199
2.52579
2.48519
2.62875
2.88658
2.89106
2.74049
2.83584
2.93861
2.90173
2.8011
2.8755
3.21543
3.1243
3.48813
3.3041
3.38413
3.54338
3.27525
3.26761
3.20693
3.53333
3.68358
3.5474
3.49258
3.79697
3.67896
3.82511
3.80427
3.74189
3.55338
4.08369
3.86421
3.74375
3.69659
3.76431
3.71021
3.65844
3.54439
3.81441
3.62929
3.80632
3.8182
3.59941
3.66188
4.03441
3.58957
4.06463
3.62314
3.48088
4.04476
3.96905
3.74889
3.75774
3.33395
3.61077
3.55915
3.54954
3.55481
3.88498
4.21936
4.0089
3.2193
3.715
4.16426
3.75038
3.50062
3.84273
3.48931
3.48756
4.00765
3.63556
3.72086
3.8103
4.17325
4.06357
3.8824
3.78005
3.97753
3.86803
3.52874
3.87117
4.20319
4.12577
3.43161
3.55132
3.55876
3.77533
4.17362
3.63658
3.5602
3.58528
3.63095
3.52393
3.52081
4.19067
4.01835
4.21157
4.09234
4.09822
4.18361
3.89945
3.57615
3.90099
4.19638
4.00526
3.79479
3.62292
4.08853
3.87698
3.89158
3.76782
3.59436
3.42555
3.63577
4.07966
3.72284
3.6357
3.63875
3.59182
3.55588
3.52298
3.89405
3.52444
3.63113
3.71584
4.08532
3.45458
3.6723
3.64837
3.88598
3.88306
3.4977
3.8719
3.67796
3.81061
3.78688
3.88209
3.40527
3.77363
3.6438
3.72141
3.51565
3.59664
3.62484
3.35557
3.69987
3.80768
3.62574
3.51941
3.84737
4.01926
4.01622
3.72787
3.9806
3.79426
3.80168
3.95033
3.75996
4.09207
3.95603
3.62936
3.91212
3.81819
4.01599
3.57811
4.17774
3.78574
3.97128
3.89834
3.65244
4.03706
3.83027
3.48469
3.97336
3.75148
3.68628
3.9628
3.59824
3.81983
3.79066
3.46261
3.79399
3.80987
3.99111
3.43616
3.61589
3.99918
4.00509
3.49854
3.84697
3.75633
3.97435
3.82053
3.69404
3.54243
4.04118
3.71302
3.74101
4.08765
3.92025
3.91829
3.72127
3.82457
3.6384
3.65088
3.88684
3.84693
3.86518
4.03482
3.32921
3.77431
3.98532
3.87438
3.68628
3.76197
3.91963
3.56957
3.51911
3.81892
3.9551
3.71402
3.79604
4.1378
3.73492
3.44417
3.62651
3.62193
3.73659
4.04769
3.47825
3.59274
3.89179
3.4807
3.71929
3.82809
3.7417
3.63693
3.91657
3.54225
3.81114
4.00328
3.89696
3.73667
3.87079
3.81339
3.46872
3.50902
3.87422
3.67126
3.65754
3.78097
3.63807
3.76862
3.75769
4.07035
3.65963
3.72407
3.85764
3.34495
3.84226
4.20844
3.55225
3.56844
3.50539
3.66618
3.79675
3.92432
3.41058
3.41942
3.49442
3.73368
3.51507
3.77449
3.17269
3.39245
3.75677
3.8795
3.77661
3.51135
3.72043
3.48923
3.53532
3.876
3.83506
3.63386
3.66474
3.68862
3.98904
4.06277
3.45284
3.22477
3.68195
3.58593
3.69568
3.87966
3.63354
3.91679
3.64846
3.63885
3.96948
3.87036
3.95278
3.87172
3.4086
3.86406
3.8198
3.68087
3.59881
3.69277
3.75429
3.7933
3.88099
3.66001
3.74
3.65518
3.49304
3.58263
3.76863
3.71214
3.80479
3.72303
4.00206
3.8245
3.79538
4.09154
3.78118
3.6539
3.77086
3.52097
3.88771
3.69022
4.22268
3.79713
3.53377
3.74703
3.61756
3.75304
3.80467
3.5842
3.96055
3.8306
3.60186
3.7922
3.4352
3.80976
3.7074
3.84761
3.576
3.50469
3.58851
3.62848
3.85985
3.6471
3.73665
4.09432
3.67896
4.11662
3.98726
3.8705
3.84218
3.74839
3.80893
3.75066
3.52169
3.85087
3.90602
3.44759
3.69976
3.55246
3.70379
3.42431
3.58068
3.39805
3.55151
3.33382
3.67576
3.37695
3.47866
3.17694
3.30513
3.16448
3.43206
3.06996
3.11076
3.04426
2.70244
2.97805
3.06494
2.86395
2.80908
2.75017
3.14024
2.78337
2.63372
2.77399
2.37187
2.27452
2.71956
2.25538
2.63124
2.59364
2.40522
2.44171
2.29136
2.15922
2.13804
2.23791
2.14197
2.19822
2.17364
2.41814
1.91267
2.04264
1.98225
2.14993
1.88569
1.67835
1.9715
1.70692
1.7654
1.77755
1.68368
1.74675
1.66156
1.57538
1.58762
1.61226
1.51387
1.40829
1.39219
1.34082
1.41978
1.35522
1.74465
1.69208
1.29001
1.43585
1.26241
1.22125
1.3007
1.16526
0.904678
1.31111
1.1879
0.894645
0.876209
0.995705
0.897548
)
;

boundaryField
{
    sides
    {
        type            zeroGradient;
    }
    empty
    {
        type            empty;
    }
}


// ************************************************************************* //
