/*--------------------------------*- C++ -*----------------------------------*\
  =========                 |
  \\      /  F ield         | OpenFOAM: The Open Source CFD Toolbox
   \\    /   O peration     | Website:  https://openfoam.org
    \\  /    A nd           | Version:  7
     \\/     M anipulation  |
\*---------------------------------------------------------------------------*/
FoamFile
{
    version     2.0;
    format      ascii;
    class       volScalarField;
    location    "0.004";
    object      internalEMean;
}
// * * * * * * * * * * * * * * * * * * * * * * * * * * * * * * * * * * * * * //

dimensions      [1 -1 -2 0 0 0 0];

internalField   nonuniform List<scalar> 
1000
(
5.17403
5.22703
5.12925
5.17679
5.1595
5.18803
5.16778
5.18446
5.15485
5.21317
5.22405
5.24231
5.16118
5.14052
5.18561
5.16614
5.19329
5.1699
5.16967
5.23869
5.24231
5.23259
5.24943
5.18333
5.19329
5.19893
5.21898
5.19536
5.17894
5.21333
5.21048
5.25158
5.18511
5.24479
5.24195
5.25566
5.25896
5.22759
5.20249
5.18984
5.19763
5.22986
5.17192
5.20401
5.17615
5.2003
5.18225
5.2126
5.26509
5.26779
5.20154
5.26656
5.27171
5.23981
5.22038
5.23474
5.22181
5.25692
5.29755
5.26306
5.19485
5.19282
5.22097
5.21836
5.22426
5.22798
5.17526
5.17277
5.18734
5.22635
5.24367
5.26249
5.24999
5.18045
5.20548
5.23479
5.29914
5.24156
5.21644
5.3135
5.26921
5.23097
5.24312
5.18318
5.22635
5.22756
5.22189
5.24937
5.26195
5.22997
5.2508
5.24734
5.21826
5.21752
5.24747
5.26051
5.19056
5.26882
5.25294
5.21695
5.21097
5.24941
5.21853
5.23682
5.25193
5.18393
5.21617
5.22184
5.22531
5.21735
5.23262
5.25161
5.24549
5.27467
5.28421
5.24329
5.26215
5.28098
5.2601
5.24054
5.19191
5.1874
5.22955
5.23717
5.23334
5.27866
5.26403
5.24635
5.25465
5.24151
5.25734
5.22901
5.24737
5.28098
5.29332
5.22681
5.22969
5.24373
5.22101
5.23703
5.28291
5.28774
5.26497
5.24741
5.2856
5.26398
5.25976
5.30068
5.27041
5.29486
5.32492
5.27184
5.28564
5.28894
5.24897
5.25903
5.24955
5.24735
5.20812
5.14033
5.21786
5.21874
5.23622
5.24606
5.26101
5.27414
5.36603
5.24022
5.24412
5.28569
5.29325
5.23305
5.29298
5.24331
5.24888
5.26856
5.24186
5.26509
5.33778
5.27555
5.23417
5.25544
5.23658
5.25843
5.23593
5.24688
5.25901
5.23338
5.24928
5.29
5.28089
5.3281
5.25427
5.2815
5.21927
5.25994
5.25057
5.22826
5.36815
5.33696
5.24009
5.25882
5.27932
5.25629
5.29813
5.3278
5.27319
5.24909
5.21734
5.25895
5.30194
5.25658
5.32976
5.30773
5.27019
5.30813
5.30005
5.29654
5.28763
5.32614
5.27797
5.27432
5.18673
5.21069
5.23339
5.23574
5.25555
5.26152
5.30629
5.2704
5.27113
5.26492
5.2742
5.26562
5.28306
5.27777
5.22413
5.27631
5.25791
5.24879
5.26618
5.21223
5.25508
5.21576
5.226
5.23831
5.25099
5.25368
5.22901
5.24741
5.23634
5.26642
5.30617
5.25844
5.32155
5.25017
5.24393
5.27158
5.19081
5.26365
5.26125
5.30385
5.3041
5.29337
5.25851
5.15721
5.24066
5.26867
5.2684
5.23241
5.20313
5.20027
5.14974
5.22081
5.30369
5.24093
5.29077
5.30148
5.29621
5.24509
5.20521
5.18706
5.15412
5.18998
5.20435
5.17164
5.17035
5.14979
5.17206
5.17505
5.25184
5.15616
5.17362
5.2131
5.20182
5.19557
5.14683
5.08787
5.11304
5.11658
5.13668
5.13238
5.02427
5.11407
5.10151
5.07203
5.10188
5.07579
5.0452
5.04796
5.07097
5.06085
4.98685
4.99913
5.00438
4.9681
5.0126
5.06634
4.98382
5.02839
4.97731
5.00631
4.99202
5.01155
5.05518
5.06861
5.04929
5.0009
4.99447
5.01705
5.01381
4.91008
4.87177
4.9235
4.86365
4.92493
4.86279
4.86485
4.84257
4.8761
4.88911
4.88708
4.85619
4.86651
4.83395
4.88138
4.83111
4.79507
4.84056
4.75561
4.78475
4.79997
4.7955
4.775
4.73456
4.67832
4.69116
4.72392
4.67066
4.69417
4.65085
4.60218
4.60861
4.60956
4.60648
4.60865
4.57342
4.56934
4.53093
4.49427
4.50528
4.55274
4.51394
4.53673
4.51416
4.46844
4.43002
4.50027
4.51175
4.41848
4.38619
4.40293
4.39011
4.43703
4.41129
4.42221
4.33786
4.36267
4.37418
4.38583
4.31346
4.23528
4.24107
4.22991
4.1722
4.22549
4.21588
4.21184
4.17083
4.19271
4.13211
4.10505
4.07768
4.08113
4.07668
4.06914
4.06059
4.04583
4.04276
3.93106
3.90585
3.92067
3.93008
3.96202
3.86214
3.87909
3.89722
3.88061
3.85245
3.81185
3.82282
3.80529
3.77533
3.762
3.72149
3.74416
3.70613
3.69402
3.69775
3.7161
3.67573
3.63729
3.62687
3.53501
3.5701
3.54092
3.53081
3.48515
3.4503
3.48244
3.41514
3.40771
3.36823
3.35763
3.38952
3.3439
3.32769
3.32027
3.27492
3.23087
3.24053
3.22149
3.19807
3.19635
3.17167
3.1475
3.14695
3.19256
3.11961
3.07309
3.01331
3.00142
2.95009
2.92681
2.91494
2.92995
2.9224
2.85502
2.81148
2.7679
2.72813
2.73268
2.70851
2.66921
2.61782
2.60231
2.60677
2.60242
2.55876
2.51906
2.50065
2.51111
2.47396
2.46046
2.44801
2.43451
2.37239
2.36941
2.37886
2.3373
2.2793
2.25521
2.22169
2.18846
2.1732
2.16377
2.1224
2.11488
2.10472
2.01957
1.99338
2.00868
1.99598
1.96927
1.96317
1.97992
1.96648
1.98242
1.95111
1.96348
1.93266
1.93987
1.90148
1.91313
1.9187
1.91926
1.92092
1.93475
1.90247
1.89677
1.85318
1.84448
1.8527
1.85719
1.86503
1.87561
1.87234
1.84273
1.8571
1.85844
1.82316
1.82103
1.83957
1.81759
1.8161
1.81461
1.78473
1.79581
1.78614
1.79272
1.78454
1.75531
1.74173
1.73916
1.75114
1.74577
1.74951
1.76014
1.74189
1.7178
1.74158
1.73272
1.7146
1.70326
1.72733
1.68387
1.69242
1.70003
1.67869
1.67211
1.68411
1.65822
1.64728
1.66225
1.66531
1.63916
1.63273
1.64619
1.62943
1.64457
1.64498
1.63971
1.64067
1.6181
1.60709
1.59164
1.56609
1.56113
1.53294
1.52049
1.5375
1.55794
1.51764
1.52648
1.54583
1.554
1.56166
1.54619
1.53185
1.52899
1.50547
1.52493
1.51759
1.50079
1.46879
1.47284
1.47319
1.46126
1.43068
1.41986
1.39687
1.37471
1.37851
1.39526
1.39986
1.42605
1.43366
1.41097
1.37484
1.41462
1.40863
1.38598
1.36337
1.35502
1.34842
1.34516
1.36589
1.36219
1.35074
1.35134
1.34959
1.36575
1.33541
1.32573
1.33588
1.32446
1.31868
1.30689
1.29931
1.32555
1.28972
1.27988
1.26033
1.25129
1.24744
1.22974
1.24188
1.24218
1.25373
1.23654
1.22985
1.22128
1.22498
1.21434
1.18461
1.1839
1.18389
1.15964
1.14495
1.16404
1.17186
1.17855
1.14691
1.15566
1.15961
1.16285
1.16486
1.16758
1.1292
1.13998
1.11741
1.1118
1.09866
1.1064
1.10636
1.06558
1.0685
1.06013
1.06287
1.04905
1.04612
1.04156
1.04177
1.03975
1.03607
1.02355
1.02945
1.01389
1.01568
1.0071
0.978989
0.991309
0.975775
0.981471
0.968184
0.944341
0.937615
0.932561
0.939662
0.932164
0.927518
0.919446
0.915822
0.914053
0.923558
0.9177
0.901458
0.908984
0.902299
0.888494
0.883786
0.857297
0.847655
0.843315
0.828693
0.820605
0.828526
0.835519
0.80647
0.799986
0.810684
0.815011
0.801091
0.795062
0.790069
0.775499
0.767725
0.772284
0.767089
0.739613
0.747065
0.744282
0.735299
0.726529
0.715514
0.735501
0.713155
0.716925
0.712434
0.703295
0.7061
0.680948
0.685761
0.703368
0.680665
0.650194
0.654802
0.655919
0.641937
0.635835
0.646677
0.645936
0.630402
0.61557
0.627868
0.635562
0.6275
0.617671
0.600812
0.582715
0.581464
0.558687
0.565675
0.569138
0.570067
0.554754
0.554474
0.547825
0.540432
0.537449
0.515421
0.503977
0.518264
0.516649
0.515387
0.507416
0.500752
0.492749
0.490407
0.499697
0.494019
0.503695
0.489605
0.481589
0.504113
0.510846
0.501525
0.512142
0.505967
0.499021
0.507646
0.511371
0.506597
0.487938
0.495167
0.497081
0.513122
0.498415
0.502858
0.496907
0.506519
0.500678
0.496715
0.513603
0.509292
0.508557
0.513777
0.499739
0.497697
0.498454
0.500136
0.489314
0.493469
0.493836
0.516365
0.499458
0.499955
0.495206
0.479116
0.484505
0.489117
0.491843
0.50655
0.501721
0.492801
0.507456
0.515832
0.499827
0.491994
0.49629
0.500425
0.506105
0.494583
0.491874
0.500503
0.498273
0.493329
0.503259
0.504
0.480702
0.493387
0.495425
0.509808
0.50717
0.50359
0.496487
0.491963
0.506497
0.507715
0.496921
0.500752
0.505332
0.518659
0.50909
0.521633
0.519872
0.505055
0.493529
0.493269
0.492823
0.495084
0.495785
0.499463
0.490957
0.501883
0.501251
0.517539
0.518735
0.502654
0.491745
0.491757
0.502682
0.502687
0.50767
0.501753
0.508628
0.496944
0.496685
0.492008
0.509095
0.507611
0.502951
0.515905
0.521277
0.504105
0.49965
0.505469
0.496974
0.497351
0.490883
0.491795
0.490519
0.498629
0.504019
0.521794
0.48392
0.494784
0.516413
0.50667
0.515783
0.503533
0.502564
0.495114
0.499895
0.517932
0.524153
0.507896
0.490488
0.495125
0.503784
0.514721
0.497723
0.495873
0.504654
0.493854
0.510434
0.520641
0.50125
0.503437
0.505375
0.51646
0.515181
0.510507
0.508059
0.517611
0.499318
0.499147
0.508476
0.498882
0.492254
0.505664
0.503857
0.499702
0.498304
0.492653
0.497006
0.489025
0.485774
0.494116
0.501921
0.51203
0.491939
0.503399
0.488244
0.496598
0.505204
0.49949
0.496331
0.517255
0.520525
0.515657
0.522182
0.515167
0.52506
0.520884
0.514178
0.520826
0.501724
0.49914
0.488861
0.496339
0.497687
0.505877
0.49998
0.510734
0.497066
0.515927
0.492082
0.512127
0.510295
0.498656
0.50671
0.500254
0.501144
0.509383
0.50855
0.509901
0.504486
0.507992
0.529103
0.520293
0.510558
0.5045
0.517271
0.516596
0.503314
0.498494
0.506552
0.514344
0.522164
0.52311
0.52343
0.507478
0.497206
0.524218
0.51856
0.519159
0.506994
0.513399
0.508003
0.5145
0.502783
0.502313
0.512488
0.500734
0.507315
0.501646
0.503397
0.507544
0.497582
)
;

boundaryField
{
    sides
    {
        type            symmetry;
    }
    empty
    {
        type            empty;
    }
}


// ************************************************************************* //
