/*--------------------------------*- C++ -*----------------------------------*\
  =========                 |
  \\      /  F ield         | OpenFOAM: The Open Source CFD Toolbox
   \\    /   O peration     | Website:  https://openfoam.org
    \\  /    A nd           | Version:  7
     \\/     M anipulation  |
\*---------------------------------------------------------------------------*/
FoamFile
{
    version     2.0;
    format      ascii;
    class       volScalarField;
    location    "0.004";
    object      internalEMean;
}
// * * * * * * * * * * * * * * * * * * * * * * * * * * * * * * * * * * * * * //

dimensions      [1 -1 -2 0 0 0 0];

internalField   nonuniform List<scalar> 
500
(
1.00097
1.15919
1.29579
1.4017
1.51584
1.60771
1.70527
1.76626
1.80192
1.88556
1.94348
2.03276
2.09204
2.1726
2.21468
2.24443
2.30289
2.34546
2.42276
2.48697
2.54468
2.56885
2.61376
2.66244
2.69555
2.73448
2.81294
2.81458
2.84758
2.90051
2.95028
2.94721
2.99703
3.02921
3.12298
3.07782
3.14641
3.19427
3.22258
3.20916
3.23309
3.28335
3.33869
3.35372
3.32338
3.38308
3.37169
3.41335
3.4444
3.48638
3.4957
3.51524
3.5046
3.5767
3.54093
3.57579
3.59093
3.60256
3.64848
3.58323
3.65774
3.66645
3.65088
3.70313
3.6708
3.68934
3.72052
3.71608
3.74101
3.73793
3.72136
3.72991
3.75598
3.72845
3.77149
3.71511
3.73405
3.79321
3.78608
3.77703
3.79677
3.76281
3.76728
3.77531
3.77106
3.7698
3.75034
3.78342
3.77628
3.76588
3.7862
3.77653
3.74497
3.72622
3.70997
3.7371
3.79498
3.75876
3.77403
3.75192
3.76938
3.75538
3.74395
3.78179
3.74164
3.78087
3.78822
3.75114
3.79445
3.7714
3.74259
3.76465
3.80567
3.80333
3.81445
3.78102
3.79069
3.79814
3.77802
3.76087
3.77986
3.75559
3.77306
3.76341
3.75735
3.77303
3.77985
3.7526
3.75814
3.73796
3.75031
3.76809
3.75209
3.7681
3.7798
3.78995
3.77595
3.79809
3.78668
3.7705
3.75283
3.77097
3.77061
3.76272
3.78943
3.80064
3.76163
3.73861
3.77458
3.78429
3.76926
3.75406
3.74852
3.77167
3.78984
3.77079
3.78015
3.80447
3.77213
3.76275
3.79086
3.78826
3.7705
3.75695
3.80557
3.76705
3.79001
3.78669
3.75209
3.80178
3.7491
3.76261
3.79178
3.75134
3.77609
3.7426
3.74896
3.75995
3.74704
3.7483
3.76505
3.73193
3.72653
3.75595
3.73893
3.75855
3.76931
3.74905
3.73465
3.75572
3.73661
3.74807
3.74709
3.75703
3.79025
3.75504
3.74353
3.76231
3.75649
3.74501
3.75045
3.73482
3.75636
3.79267
3.76588
3.74655
3.71808
3.77523
3.75299
3.74368
3.78996
3.74448
3.76863
3.76813
3.78886
3.76676
3.7324
3.74028
3.79544
3.75288
3.78285
3.79595
3.7379
3.74716
3.76839
3.77583
3.80876
3.76326
3.76093
3.75985
3.74984
3.80274
3.78428
3.71834
3.76615
3.80008
3.74534
3.76053
3.808
3.78353
3.77051
3.76065
3.75883
3.73566
3.76983
3.75637
3.75491
3.76118
3.74997
3.79475
3.71938
3.73806
3.73929
3.77403
3.73569
3.78048
3.75884
3.75855
3.75805
3.75745
3.76339
3.74303
3.75541
3.74769
3.73773
3.71797
3.75179
3.75804
3.76263
3.77975
3.76267
3.75775
3.73479
3.71122
3.73011
3.75811
3.74789
3.74389
3.72801
3.7529
3.70294
3.71832
3.73321
3.73808
3.73775
3.78188
3.75995
3.69563
3.68974
3.72394
3.7347
3.71556
3.74287
3.73882
3.73144
3.74069
3.75896
3.74704
3.70653
3.72383
3.70595
3.71961
3.72084
3.71499
3.68125
3.73333
3.75137
3.72879
3.71954
3.75319
3.73466
3.72687
3.72862
3.72686
3.74029
3.69316
3.71689
3.74269
3.72038
3.6849
3.72362
3.77736
3.71635
3.72674
3.73067
3.68988
3.74175
3.74299
3.74155
3.77984
3.75713
3.72696
3.74169
3.7208
3.74085
3.76025
3.73743
3.73925
3.73016
3.76079
3.78125
3.71602
3.70953
3.72709
3.7358
3.74421
3.72785
3.68801
3.73927
3.71546
3.75594
3.76052
3.75317
3.70532
3.72413
3.74224
3.76563
3.76897
3.77675
3.75204
3.77458
3.74856
3.72971
3.77362
3.74342
3.76984
3.72695
3.75328
3.76827
3.76554
3.754
3.72891
3.74422
3.73795
3.75833
3.73793
3.71855
3.7716
3.76396
3.77673
3.75916
3.73279
3.72937
3.76735
3.73326
3.71673
3.75875
3.7543
3.78218
3.76559
3.80014
3.80523
3.81952
3.75129
3.73922
3.76314
3.76226
3.71757
3.77107
3.77033
3.75564
3.71701
3.75915
3.77419
3.78105
3.78669
3.78721
3.7676
3.73178
3.75685
3.78489
3.75846
3.74098
3.76234
3.72484
3.81116
3.76807
3.76473
3.7771
3.7652
3.75728
3.76891
3.75775
3.7593
3.75578
3.76902
3.77082
3.82056
3.78793
3.78859
3.76649
3.76148
3.76219
3.73121
3.76145
3.6914
3.69555
3.7145
3.66688
3.67385
3.63329
3.64826
3.65213
3.60892
3.62762
3.59361
3.55321
3.53069
3.52145
3.51681
3.50986
3.49932
3.41858
3.43864
3.41959
3.3614
3.36051
3.29547
3.27244
3.28539
3.19556
3.1954
3.17875
3.15574
3.09407
3.06552
3.07143
3.02578
2.98578
2.96804
2.92623
2.87367
2.84117
2.76044
2.7617
2.72946
2.69206
2.62416
2.58634
2.54368
2.49953
2.43562
2.38219
2.35619
2.30956
2.25941
2.17506
2.14013
2.0694
1.97668
1.92988
1.85148
1.79227
1.69837
1.626
1.52651
1.44039
1.32608
1.2133
1.03902
)
;

boundaryField
{
    sides
    {
        type            calculated;
        value           nonuniform List<scalar> 2(1.03902 1.00097);
    }
    empty
    {
        type            empty;
    }
}


// ************************************************************************* //
