/*--------------------------------*- C++ -*----------------------------------*\
  =========                 |
  \\      /  F ield         | OpenFOAM: The Open Source CFD Toolbox
   \\    /   O peration     | Website:  https://openfoam.org
    \\  /    A nd           | Version:  7
     \\/     M anipulation  |
\*---------------------------------------------------------------------------*/
FoamFile
{
    version     2.0;
    format      ascii;
    class       volScalarField;
    location    "0.004";
    object      internalE;
}
// * * * * * * * * * * * * * * * * * * * * * * * * * * * * * * * * * * * * * //

dimensions      [1 -1 -2 0 0 0 0];

internalField   nonuniform List<scalar> 
1000
(
0.12367
0.0543399
0.478646
0.0686874
0.118053
0
0.0141385
0
0.108
0.16455
0
0.44803
0
0.00106802
0.122439
0
0.0894266
0.0743276
0.234315
0
0.207699
0.385237
0.00200277
0.370568
0.365004
0.096113
0
0.0201546
0.0302317
0
0.00820812
0.258792
0.0734871
0.154375
0
0.0131581
0.385439
0.224735
0.280333
0
0
0
0.455332
0.301518
0.133506
0.126413
0
0
0.0424616
0.0967181
0.424888
0.146745
0.0899455
0.807186
0.164047
0.127428
0
0.0594209
0.167898
0.340955
0.0678574
0.162615
0.307383
0.320441
0.226669
0.0456011
0.0402577
0
0.317558
0.190306
0.220468
0.290687
0.104447
0.453364
0
0.647767
0.0487539
0.436613
0.0321692
0.177371
0.374303
0.358517
0
0.896498
0.5187
0.160038
0.704893
0.109811
0.151247
0.077524
0.0717592
0.30242
0.0840683
0.0523906
0.00669867
0.0195532
0.068188
0.0162314
0.342493
0
0.124322
0.062128
0.037582
0.151897
0.295371
0.381152
0
0.167961
0.862483
0.104409
0.471583
0.113104
0.0222518
0.178092
0.3834
0.286853
0.357845
0.147498
0.167946
0.576123
0.00425835
0.0341437
0.58283
0.239794
0.0261522
0.315119
0.0790114
0.34571
0.0943514
0.0570406
0.154527
1.21763
0.735066
0.243392
0.00624227
0.0046529
0.203505
0.314697
0.0161333
0.44869
0.27792
0
0.607504
0.129596
0.39671
0.640115
0.107117
0.0705768
0.290074
0
0.682094
0.285261
0.811616
0.268144
0
0.299309
0.363146
0.102616
0.133061
0.0935256
0.128748
0.368102
0.374693
0.696799
0.0173809
0.494921
0.0466026
0.0901166
0.29082
0.273567
0
0.176662
0.532404
0.100296
0.389274
0.2474
0.103024
0.354039
0
0.169785
0.0819412
0.587522
0.180891
0.143418
0.263703
0.329423
0.0795493
0.53815
0.167622
0.15167
0.0812597
0.338901
0.0558852
0.156692
0.117622
0.211188
0.0476026
0.254517
0.623644
0.492147
0.326161
1.11799
0.273895
0.499752
0.505242
0.119774
1.14602
0.36081
0.496418
0.0619392
0.255686
0.613872
0.37125
0.115233
0.617072
0.417185
0.151722
0.0194008
0.0683883
0.00115245
0.620234
0.205524
0.205837
0.0483904
0.257341
0.693011
0.0789912
0.668898
0.121182
0.22042
0.0527917
0.404716
0.0189805
0.470971
0.265103
0.237901
0.202159
0.229678
0.415271
0.608812
0.549896
0.307381
0.966132
1.17407
0.159598
0.106981
0.386504
0.333819
0.177463
0.672909
0.103925
0.0378946
0.244348
0.0358343
0.460337
0
0.228264
0.157398
0.043684
0.482984
0.0629146
0.139784
0.304866
0.369443
0.108674
0.358084
0.156105
0.424752
0.216201
0.174798
0.0586683
0.00403535
0.239172
0.113401
0.244153
0.133925
0.143196
0.00933184
0.370657
1.11141
0.131039
0.0545454
0.298875
0.256266
0.506786
0.12743
0.486391
0.181462
0.230193
0.318257
0.156544
0.581058
0.895795
0.0981389
0.0918673
0
0.043321
0.378346
0.113611
0.709203
0.174487
0.176011
0.37181
0.328367
0.0459442
0.135012
0.441058
0.177468
0.280527
0.441569
0.34493
0
0
0.599839
0.248804
0.128798
0.0365106
0.2205
0.955939
0.301767
0.138145
0.472609
0.45948
0.193072
0.312051
0.256367
0.064998
0.0959173
0.20166
0.0828193
0.0701038
0.108232
0.313803
0.22766
0.544868
0.093945
0.136954
0.219944
0.0131801
0.308198
0.659757
0
0.218878
0.632455
0.298481
0.120046
0.135122
0.384296
0.748122
0.538014
0.134184
0.12814
0.471332
0.484173
0.359224
0
0.388773
0.0875588
0.344572
0.0670079
0.550821
0.26343
0.242812
0.364253
0.0981453
0.12304
0.911631
0.2634
0.214792
0.0751516
0.574446
1.31459
0.837251
0.352201
0.143223
0.166644
0.193821
0.375382
0.385142
0.301068
0.345226
0.144331
0.452249
0.149657
0.505057
0.10954
0.138702
0.559558
0.28363
0.251549
0.126053
0.470697
0.37442
0.350963
0.119074
0.0124917
0.429871
0.538864
0.0657541
0.160455
0.264852
0.165159
0.14677
0.212562
0.0581226
0.907419
0.72782
0.0953203
0.389475
0.433462
0
0.113906
0
0.138238
0.337881
0.025272
0.269356
0.108599
0.313256
0.718982
0.144076
0.495492
0.401653
0.984432
0.229433
0.28774
0.167447
0.114302
0
0.350918
0.152176
0.534603
0.174845
0.107607
0.0823228
0.061537
0.28405
0.345301
0.139546
0.108024
0.46677
0
0.493625
0.238956
0.0386899
0.000788009
0.310935
0
0.129288
0.884794
0.189721
0.455069
0.0720654
0.285978
0
0.615162
0.370803
0
0.0679902
0.587767
0.129521
0.51049
0.651869
0.164854
0.205867
0.3676
0.130968
0.138287
0.257021
0.120413
0.579963
0.778482
0.823742
0.253712
0.226028
0
0.471203
0.154943
0.0293265
0.213276
0.107341
0.248101
0.267726
0.184067
0
0.22566
0.456445
0.131333
0.235352
0.00352566
0.286863
0.570666
0.173097
0.419479
0.0651517
1.04917
0.293859
0.172676
0.801251
0.160628
0.600236
0.377533
0.313936
0.0739928
0.534645
0.0198835
0.0238919
0.0824209
0.360895
0.064105
0.210459
0.300445
0.235694
0.064436
0.557382
0.199489
0.25773
0.233095
0.500589
0.741388
0.0320233
0.419624
0.569434
0
0.280634
0.12742
0.365112
0.304922
0.0665099
0.871881
0.0422231
0.470332
0.446888
0.793782
0.0692486
0.0560493
0.142434
0.730583
0.297391
0.222191
0.101074
0.420908
0.418185
0.365485
0.559664
0.330835
0.148229
0.264961
0.254402
0.219326
0.319262
0.379892
0.610828
0.0190979
0
0.100186
0.515718
0.304406
0
0.0175784
0.285234
0.199133
0.294398
0.116609
0.13961
0.339264
0.734774
0.0832999
0
0.138134
0.330935
0.0107984
0.4801
0.621118
0.0809873
0.318669
0.184132
0.328925
0.581733
0.325006
0.265448
0.0144217
0.802155
0.335562
0.510136
0.612064
0.628114
0.104379
0.252669
0.266901
0.138447
0.236042
0.129832
0.216307
0.125647
0.151139
0.443604
0.23937
0.404876
0.232992
0
0.209024
0.433597
0.557493
0.189001
0.0537409
0.720122
0.261675
0.205835
0.173044
0.00456536
0.154515
0.326017
0.189413
0.566779
0.181898
0
0.141629
0.0728005
0.104784
0.619493
0.380648
0.38654
0.0509532
0.339424
0.132653
0.0652554
0.244903
0.463118
1.46129
0.301403
0.833372
0.339278
0.306516
0.162372
0.369442
0.200798
0.0603159
0.108739
0.373043
0.443008
0
0.0208982
0.539618
0.439152
0
0.687211
0.229722
0.027094
0.181819
0.726702
0.0573667
0.412959
0.522345
0.102621
0.209748
0.126263
0.528551
0
0.39609
0.283233
0.334201
0.529336
0
0.0779665
0.704274
0.224883
0.384111
0.303029
0.473102
0.734433
0.16841
0.0926791
0.397669
0.223935
0.0548766
0.0810973
0.346179
0.43078
0.932378
0.827703
0.183035
0.199618
0.105715
0.0339386
0.113304
0.609036
0.516963
0.271067
0.531768
0.0324226
0.360355
0.0622762
0.0421837
0.217664
0.495842
0.0109825
0.433315
0.141517
0.829268
0.262416
0.0174011
0.316793
0.149253
0.45454
0.0964116
0.263678
0.633848
0.509467
0.364854
0.16447
0.718634
0.197422
0.522483
0.109425
0.145676
0.00959545
0.0804436
0.451914
0.0739678
0.29063
0.463996
0.341275
0.0916936
0.355971
0.112763
0.0498191
0.127244
0.434068
0.263076
0.229264
0.792975
0.161898
0.338103
0.634715
0.220018
0.443294
0.54753
0.255809
0.650742
0.418135
0.477939
0.343791
0.195576
0.156233
0.892669
0.543495
0.173717
0.220537
0.176643
0.469646
0.737121
0.115915
0.0744546
0.0775361
0.0142441
0.279056
0.20721
0.233662
0.349664
0.648907
1.1118
0.393371
0.978913
0.296662
0.137873
0.108037
0.520573
0.485266
0
0.320832
0.351786
0.602975
0.239597
0.210301
0
0.437196
0.0525127
0.273465
0.23062
0.407332
0.68019
0.598656
0.287287
0.0844013
0.182542
0.346038
0.431827
0.174259
0.433871
0.0774232
0.047849
0.242465
0.240419
0.311548
0.259309
0.767879
0.825712
0.215968
0
0.118132
0.377752
0
0.501729
0.344772
0.255124
0.752228
0.154711
0.160205
0.250536
0.224055
0.232955
0.315047
0.212925
0
0.448342
0.278772
0.387509
0.702273
0
0.520764
0.287764
0.000805642
0.674704
0.193939
0.0452431
0.130341
0.280662
0.124155
0.227018
0.955736
0.363628
0.0648665
0.259422
0.30744
0.123786
0.159257
0.0591157
0
0.723117
0.585629
0.107451
0.0362814
0.551352
0.0690903
0.531396
0.241387
0.662643
0.384905
0.297338
0.16126
0.0342106
0.154043
0.641397
0.010759
0.317872
0.076448
0
0.0541303
0.328834
0.120503
0.0520772
0.249281
0
0.298436
0.38139
0.281562
0.173613
0.978989
0.191439
0.0909858
0.805377
0.808507
0.153908
0.759085
0.497981
0.00305519
0.230279
0.209387
0
0.429183
0.216802
0.210537
0.739712
0.682249
0.155348
1.08926
0.170428
0.329755
0
0
0
0.17471
0.625911
0.39645
0.38343
0.209274
0.546579
0.0129852
0.493115
0.256878
0.468226
0.0497171
0.237213
0.372583
0.464856
0.105996
0.190402
0.216713
0.0206431
0.353289
0.21879
0.290524
0.161284
0.0822329
0.362982
1.17239
0.382293
0.156163
0.0789066
0.167144
0.325747
0.245931
0.340956
0.0221029
0.0849444
0
0.378604
0.0661333
0.220585
0.249522
0.367622
0.0687872
0.257968
0.49974
0.736422
0.0639996
0.513504
0.643533
0.329289
0.151167
0.222133
0.021411
0.215151
0.0261028
0
0.196347
0.388064
0
0.0207268
0
0.400595
0.0965827
0.234677
0.0832993
0.047473
0
0
0
0.161007
0.0656255
0.0388634
0.0131333
0.267518
0.315963
0.300385
0
0.0392306
0.265226
0
0
0.0744157
0.023606
0.126666
0.106042
0.200026
0.132615
0.11013
0
0.303629
0.049706
0.504736
0.0477144
0.0066166
0.0409243
0.248596
0.283714
0.0590148
0.120379
0.0172884
0.009406
0.561646
0.0557433
0
0.136623
0.11105
0.0729431
0.000955022
0.0937645
0.2065
)
;

boundaryField
{
    sides
    {
        type            zeroGradient;
    }
    empty
    {
        type            empty;
    }
}


// ************************************************************************* //
