/*--------------------------------*- C++ -*----------------------------------*\
  =========                 |
  \\      /  F ield         | OpenFOAM: The Open Source CFD Toolbox
   \\    /   O peration     | Website:  https://openfoam.org
    \\  /    A nd           | Version:  7
     \\/     M anipulation  |
\*---------------------------------------------------------------------------*/
FoamFile
{
    version     2.0;
    format      ascii;
    class       volScalarField;
    location    "0.004";
    object      internalEMean;
}
// * * * * * * * * * * * * * * * * * * * * * * * * * * * * * * * * * * * * * //

dimensions      [1 -1 -2 0 0 0 0];

internalField   nonuniform List<scalar> 
1000
(
2.19518
2.08905
2.09864
2.20317
2.29897
2.2712
2.28344
2.15297
2.51049
2.45644
2.43383
2.31711
2.34589
2.30081
2.38354
2.34542
2.25996
2.3523
2.30508
2.32399
2.23519
2.33341
2.32117
2.21769
2.20389
2.371
2.31013
2.29175
2.25328
2.3267
2.24324
2.21631
2.10011
2.17624
2.26717
2.2117
2.14063
2.34121
2.2718
2.23993
2.20722
2.25341
2.24142
2.20315
2.13834
2.21087
2.20297
2.29905
2.26549
2.14868
2.27863
2.22476
2.38136
2.33458
2.32621
2.27838
2.26978
2.17018
2.23847
2.24708
2.23349
2.16145
2.18352
2.21504
2.21706
2.13621
2.20173
2.2836
2.39155
2.25663
2.31983
2.30677
2.35768
2.19341
2.32
2.36823
2.30926
2.3091
2.32427
2.4047
2.39389
2.29108
2.43861
2.32636
2.27284
2.24849
2.34192
2.25692
2.24484
2.14425
2.43152
2.30311
2.20519
2.11863
2.1888
2.24642
2.30477
2.35062
2.22534
2.35605
2.5667
2.32138
2.41646
2.36639
2.51018
2.3961
2.43524
2.29938
2.39369
2.30345
2.58877
2.39071
2.35232
2.41889
2.42165
2.37548
2.34439
2.28654
2.14904
2.32934
2.28224
2.26217
2.33896
2.23186
2.3488
2.33878
2.32923
2.24498
2.23051
2.22401
2.12096
2.26889
2.31988
2.29723
2.25636
2.33756
2.28604
2.30694
2.32747
2.2818
2.46648
2.34495
2.18619
2.16453
2.26432
2.28462
2.26649
2.29769
2.31323
2.41274
2.39631
2.30565
2.16223
2.27331
2.34099
2.27518
2.27497
2.32294
2.28066
2.29792
2.3099
2.24641
2.24473
2.13486
2.27784
2.33791
2.37813
2.16911
2.29837
2.34183
2.30628
2.37674
2.36644
2.40633
2.2729
2.34335
2.32569
2.18531
2.16065
2.23606
2.33867
2.25985
2.31657
2.27656
2.28069
2.28704
2.32792
2.191
2.16432
2.13709
2.14734
2.21351
2.12194
2.11564
2.35237
2.39469
2.24478
2.36637
2.30223
2.35952
2.28265
2.24355
2.28998
2.32926
2.34536
2.26832
2.23727
2.21634
2.18076
2.1314
2.23648
2.15556
2.21014
2.31666
2.28284
2.36803
2.20305
2.34085
2.25567
2.29643
2.29783
2.24425
2.14831
2.23872
2.26598
2.30392
2.33302
2.30686
2.28771
2.27355
2.22256
2.27275
2.32442
2.35741
2.36709
2.42576
2.21039
2.32387
2.26196
2.40033
2.25282
2.26177
2.36373
2.14706
2.33554
2.2533
2.28002
2.32329
2.23767
2.19268
2.17743
2.27949
2.13967
2.25322
2.24203
2.22864
2.27462
2.24119
2.24897
2.19539
2.26952
2.28397
2.2944
2.38602
2.09334
2.27115
2.20899
2.23379
2.24522
2.20032
2.11318
2.13756
2.25649
2.28518
2.32429
2.20127
2.24018
2.24462
2.19907
2.31101
2.29303
2.30065
2.32614
2.33635
2.3897
2.33256
2.33904
2.43257
2.29944
2.28457
2.19973
2.32102
2.38352
2.39043
2.30571
2.2976
2.28833
2.41343
2.26634
2.38513
2.42011
2.23367
2.27265
2.42411
2.31848
2.4357
2.43349
2.47776
2.46955
2.24015
2.3316
2.18408
2.25345
2.24318
2.24333
2.31786
2.20454
2.37819
2.29455
2.26829
2.2968
2.27064
2.41175
2.39616
2.2988
2.27465
2.2669
2.27976
2.26978
2.52285
2.41355
2.24517
2.38307
2.26118
2.15169
2.31431
2.39151
2.32069
2.35968
2.24912
2.24995
2.24766
2.17214
2.27637
2.16807
2.26295
2.33229
2.21238
2.23334
2.2605
2.20291
2.24767
2.24204
2.12312
2.15712
2.19754
2.22436
2.29581
2.22258
2.28614
2.2772
2.29068
2.18459
2.20418
2.24936
2.39537
2.22645
2.13421
2.16698
2.25147
2.29221
2.17296
2.20421
2.17376
2.11855
2.04691
2.04893
2.25292
2.24619
2.20155
2.04691
2.06126
2.23505
2.26352
2.23125
2.00322
1.98966
2.0722
2.22009
2.10213
2.12781
2.08626
2.10907
2.0605
2.02149
2.07556
2.16917
2.1952
2.17587
2.21924
2.07001
2.07318
2.13499
2.09682
2.11849
2.16097
2.06507
2.14568
2.08783
2.03373
2.03415
2.06748
2.02151
2.04205
2.03021
2.02304
2.11317
2.02524
2.01804
2.08933
2.15842
1.99119
1.88782
1.93014
1.97837
1.99593
1.92583
1.90131
1.90403
1.83904
1.87333
1.7964
1.80558
1.89736
1.75811
1.73774
1.74078
1.78322
1.75297
1.78218
1.79446
1.72286
1.76611
1.79221
1.70206
1.78303
1.7598
1.64189
1.66159
1.68173
1.67285
1.66694
1.56184
1.57962
1.66022
1.58172
1.50969
1.56376
1.63419
1.66966
1.63205
1.54204
1.49686
1.53244
1.5488
1.52997
1.59568
1.65528
1.49552
1.50172
1.40826
1.39529
1.49711
1.4934
1.43382
1.48241
1.49033
1.57933
1.43123
1.45941
1.49426
1.4444
1.35631
1.34486
1.35486
1.35243
1.34513
1.41512
1.39771
1.31015
1.34374
1.33569
1.2537
1.28228
1.28064
1.26577
1.16118
1.14665
1.18435
1.11653
1.09921
1.10367
1.18456
1.12838
1.09079
1.13075
1.1548
1.17096
1.24433
1.16102
1.11855
1.07693
1.03524
1.06859
1.05959
1.14113
1.06803
1.1056
1.08994
1.06793
1.10195
1.16963
1.06016
1.05575
1.00398
1.09505
1.00225
0.987012
1.04632
1.02132
1.07706
1.10916
1.10039
1.10351
1.17784
1.12971
1.08385
1.14409
1.15162
1.06482
1.07568
1.06432
1.11637
1.10841
1.19429
1.13021
1.10479
1.06798
1.06664
1.11169
1.18554
1.13132
1.08934
1.01816
1.06894
1.04743
1.00876
1.10869
1.0224
0.970855
0.99135
1.07536
1.10546
1.04613
1.10081
1.11411
1.04549
1.04477
1.07341
1.03798
0.991619
0.911439
1.00083
1.03268
1.03879
1.00582
0.988491
1.00517
0.99599
1.05906
1.02259
1.00546
0.970374
1.03004
0.996772
0.899907
0.919775
0.946432
0.983225
1.07797
1.09607
1.20677
1.09926
1.04407
1.02511
1.10508
1.03497
1.04408
1.06504
0.973439
1.05968
1.04866
1.07592
1.07293
0.897294
0.954886
0.954199
0.986871
1.04967
0.981354
1.11501
1.08241
1.03032
0.96488
1.06148
1.02785
0.932895
0.886928
0.910712
0.973305
0.985417
0.99647
1.03221
0.914437
0.911295
0.865352
0.95235
1.03419
0.890606
0.895424
0.849342
0.82842
0.916178
0.884165
1.02741
1.01742
0.932566
0.988337
0.990473
0.989812
0.918962
0.917668
0.851563
0.876171
0.837985
0.803875
0.745874
0.800558
0.79436
0.885392
0.801942
0.844574
0.811248
0.835702
0.891122
0.895078
0.935102
0.947404
0.973341
0.858797
0.862112
0.829283
0.895408
0.785182
0.691903
0.747892
0.742134
0.817537
0.830804
0.795223
0.802906
0.825818
0.886181
0.819386
0.773427
0.745479
0.839677
0.885122
0.804197
0.830656
0.847639
0.775578
0.735908
0.781141
0.721955
0.764219
0.719711
0.758166
0.69312
0.751943
0.770651
0.686951
0.687098
0.662208
0.725796
0.681253
0.725237
0.757858
0.746563
0.714954
0.734411
0.799715
0.745862
0.71884
0.69543
0.684856
0.694071
0.759753
0.791054
0.796886
0.710721
0.750121
0.722442
0.708536
0.684749
0.692228
0.63571
0.598218
0.609137
0.618868
0.528042
0.637257
0.630819
0.644671
0.695583
0.698717
0.705638
0.59732
0.665347
0.639345
0.712029
0.652962
0.597507
0.533694
0.681081
0.631281
0.57239
0.612086
0.603525
0.719085
0.697537
0.689848
0.760553
0.779041
0.742249
0.772265
0.692763
0.636286
0.609458
0.598651
0.666427
0.674379
0.670879
0.588473
0.549534
0.545114
0.589381
0.752073
0.541196
0.570547
0.711325
0.659835
0.620457
0.545924
0.53727
0.637234
0.592261
0.624556
0.639356
0.676181
0.606116
0.61891
0.610388
0.583434
0.604374
0.529592
0.600949
0.61404
0.691473
0.607337
0.668478
0.700274
0.538182
0.612912
0.597761
0.608991
0.573434
0.562515
0.664373
0.639838
0.612848
0.629047
0.681996
0.763919
0.674568
0.705536
0.598719
0.64266
0.587068
0.589091
0.651946
0.662164
0.701705
0.702139
0.612451
0.57803
0.651336
0.642777
0.690743
0.531897
0.625848
0.636591
0.611317
0.704111
0.667343
0.679053
0.644559
0.696943
0.650912
0.633526
0.621083
0.70381
0.769938
0.74513
0.691891
0.647726
0.635903
0.621525
0.668988
0.608643
0.634351
0.689057
0.625272
0.627237
0.629454
0.756518
0.612278
0.555235
0.59669
0.616681
0.630023
0.676835
0.603897
0.638674
0.643991
0.621797
0.660308
0.711273
0.725202
0.679354
0.723822
0.68834
0.642941
0.698951
0.687724
0.682965
0.707655
0.7561
0.680046
0.590931
0.598164
0.573445
0.622187
0.690071
0.679306
0.640039
0.677256
0.697692
0.698787
0.733744
0.717938
0.723129
0.71129
0.724583
0.687966
0.680969
0.681087
0.595519
0.680306
0.703141
0.643772
0.660914
0.611134
0.622999
0.663743
0.573263
0.671462
0.660817
0.680412
0.589657
0.637911
0.650272
0.652268
0.640953
0.614065
0.701912
0.666126
0.661668
0.750668
0.709668
0.712904
0.717499
0.716352
0.71652
0.742546
0.673344
0.664966
0.608755
0.640795
0.649501
0.678376
0.732698
0.687838
0.730303
0.629408
0.647035
0.69366
0.705386
0.663419
0.716999
0.743458
0.686037
0.559705
0.62702
0.60748
0.561587
0.570001
0.568852
0.566049
0.624125
0.694205
0.678063
0.65175
0.721728
0.765332
0.728866
0.626809
0.716395
0.69228
0.607027
0.636347
0.617333
0.593743
0.561888
0.620009
0.604584
0.630579
0.754881
0.625115
0.526479
0.556214
0.632973
0.709967
0.698201
0.697383
0.723211
0.696069
0.665515
0.601412
0.633438
0.602435
0.647808
0.640052
0.634845
0.652091
0.716769
0.684611
0.613667
0.626761
0.607206
0.638587
0.6869
0.670891
0.758275
0.712818
0.660188
0.587631
0.619756
0.629964
0.812686
0.690857
0.674634
0.699628
0.648485
0.724278
0.779394
0.744129
0.695623
0.635678
0.646859
0.629999
0.573318
0.718391
0.690818
0.630439
0.655469
0.70786
0.594542
0.63377
0.573386
)
;

boundaryField
{
    sides
    {
        type            symmetry;
    }
    empty
    {
        type            empty;
    }
}


// ************************************************************************* //
