/*--------------------------------*- C++ -*----------------------------------*\
  =========                 |
  \\      /  F ield         | OpenFOAM: The Open Source CFD Toolbox
   \\    /   O peration     | Website:  https://openfoam.org
    \\  /    A nd           | Version:  7
     \\/     M anipulation  |
\*---------------------------------------------------------------------------*/
FoamFile
{
    version     2.0;
    format      ascii;
    class       volScalarField;
    location    "0.004";
    object      linearKE;
}
// * * * * * * * * * * * * * * * * * * * * * * * * * * * * * * * * * * * * * //

dimensions      [1 -1 -2 0 0 0 0];

internalField   nonuniform List<scalar> 
1000
(
0.0628142
0.0470614
0.084282
0.0164674
0.102157
0
0.481031
0
0.0510652
0.276666
0
0.595819
0
0.243233
0.0796993
0
0.0623222
0.183933
0.0661397
0
0.101766
0.51161
0.0116664
0.787747
0.451305
0.198827
0
0.137385
0.213492
0
0.085126
0.349343
0.445306
0.375797
0
0.183478
0.392569
0.568937
0.246974
0
0
0
0.260881
0.258467
0.501592
0.500361
0
0
0.110172
0.563867
0.490818
0.0650268
0.228151
0.59139
0.39486
0.338098
0
0.137101
0.27898
0.0271431
0.19075
0.112112
0.20526
0.243681
0.208664
0.175962
0.0472854
0
1.04971
0.140143
0.343552
0.0187297
0.385078
0.0431681
0
0.174326
0.426107
0.393082
0.0699564
0.286383
0.115318
0.0678912
0
0.0841319
0.335521
0.251595
1.61842
0.000749008
0.52119
0.155688
0.0223805
0.391026
0.283784
0.386226
0.0272481
0.103584
0.477553
0.336283
0.465337
0
0.474116
0.100983
0.147635
0.349463
0.776432
0.687918
0
0.391272
0.806647
0.137202
0.388851
0.369642
0.0220734
0.275291
0.024443
0.647832
0.221506
0.394924
0.22925
0.750374
0.298178
0.338753
0.419777
0.363812
0.133881
0.14614
0.298203
0.0710186
0.104783
0.256137
0.147877
0.584807
0.661317
0.975058
0.0309264
0.104175
0.0869779
0.517673
0.15488
0.641534
0.524157
0
0.558511
0.752708
0.544603
0.125856
0.122952
0.0445278
0.67368
0
0.586312
0.403388
0.458717
0.0169094
0
0.612948
0.0494317
0.446506
0.167846
0.36395
0.309923
0.176303
0.194842
0.825535
0.232395
0.525516
0.0475571
0.220379
0.896347
0.465249
0
0.0538314
0.615177
0.0845144
0.61907
0.895879
0.210188
1.0986
0
0.256277
0.201068
0.765058
0.629876
0.155423
0.145068
0.151352
0.80116
0.58183
0.0151297
0.142384
0.498349
0.582148
0.0315384
0.234579
0.137943
0.23569
0.0359967
0.310959
0.297556
0.775858
0.781685
1.46995
0.96882
0.524843
0.684544
0.0635332
0.349467
0.29725
0.377055
0.1638
0.259673
0.0659794
0.446687
0.205806
1.07579
0.772172
0.572196
0.0927569
1.01456
0.0299293
0.662149
0.0885268
0.645954
0.0654395
0.787313
0.613397
0.0871952
0.440924
0.70392
0.184806
0.618462
0.418206
0.1271
1.01676
0.393148
0.534517
0.344637
0.429066
1.28662
0.878689
0.958082
0.0980459
0.43209
0.336401
0.585678
0.14956
0.558684
0.399864
0.0563799
0.800536
0.539095
0.137415
0.744219
0.0514609
0.2045
0
0.46395
0.135596
0.139312
0.695548
0.105045
0.252672
0.153845
0.40279
0.260569
1.0304
0.210678
0.567037
0.417573
0.222526
0.333814
0.0549099
0.216321
0.348205
0.138478
0.167104
1.43792
0.315655
0.191193
1.28221
0.0797988
0.576151
0.431655
0.590945
0.286006
0.373464
0.413657
0.156006
0.274463
0.5151
0.108676
0.501662
0.759828
0.0144549
0.420852
0
0.393571
0.518487
1.08451
0.249414
0.51735
0.318996
0.200109
0.254991
0.0690237
0.666996
0.6427
0.4072
0.998015
0.748772
1.32343
0
0
0.550898
0.674512
0.605245
0.224404
0.175202
0.937462
0.548332
0.503202
0.212631
0.408878
0.207971
0.246369
0.258886
0.423435
0.218708
0.286036
0.0860652
0.202685
0.213227
0.668086
0.438409
0.697679
0.222679
0.166532
0.29838
0.0426374
0.212398
0.715359
0
0.583268
0.878529
0.592379
0.587192
0.371518
0.012286
0.645025
0.939991
0.804092
0.570211
0.553659
0.244647
0.860708
0
0.317831
0.04998
0.470534
0.0543298
0.264023
0.35662
0.154857
0.908946
0.328589
0.228299
0.664909
0.449489
0.389366
0.624178
1.08231
1.12742
1.59868
0.176296
0.187892
0.561955
0.105515
0.298056
0.52957
0.628398
0.262959
0.196709
0.32814
0.753203
0.359847
0.120207
0.313786
0.536155
0.357802
0.304178
0.184685
0.422934
0.6662
0.313338
0.299184
0.0437588
0.34372
0.937908
0.577739
0.0925147
0.778053
0.167409
0.535537
0.661623
0.100315
0.50837
1.13935
0.07108
0.405288
0.174556
0
0.153198
0
0.200903
0.853866
0.128267
0.167937
0.418834
0.435434
0.831457
0.165091
0.44009
0.562551
0.948333
0.182153
0.11381
0.159216
0.11445
0
0.680291
0.324276
0.257402
0.569614
0.458789
0.637779
0.664174
0.403374
1.34733
0.102384
0.389402
0.739057
0
0.318348
0.101183
0.292584
0.166761
1.0748
0
0.218814
0.336116
0.583738
0.67825
0.391822
0.697411
0
1.28249
0.243393
0
0.219862
1.55221
0.573723
0.498453
0.745639
0.0878161
0.236868
0.724277
0.630695
0.0385727
0.24515
0.312959
0.376046
0.845407
0.304189
0.0492664
0.431459
0
0.605556
0.114206
0.0824626
0.434565
0.618143
0.169187
0.604341
0.0342487
0
0.447993
1.57384
0.0492928
0.275629
0.242722
0.463493
0.881216
0.582185
0.468417
0.10995
1.01438
0.261317
0.236169
0.701099
0.127912
0.978204
0.454655
0.305642
0.00379833
0.331347
0.113226
0.154676
0.247221
0.318533
0.316425
0.284236
1.04462
0.266034
0.0622773
1.10522
0.10956
0.505118
0.712589
0.680273
0.338173
0.250689
0.580237
0.400941
0
0.525433
0.247633
0.472951
0.386725
0.128774
0.664711
0.255297
0.994826
0.278612
0.909113
0.804569
0.175214
0.291156
0.880517
0.310879
0.328335
0.303123
0.435726
1.03195
0.689323
0.599953
0.232208
0.616894
0.138209
0.204404
0.272432
0.239414
0.476018
1.32069
0.580518
0
0.624764
0.396939
0.56334
0
0.343349
0.443715
0.615597
0.628878
0.297804
0.363637
0.268576
0.828706
0.400203
0
0.3178
0.540988
0.18169
0.628681
0.454216
0.417909
0.283473
0.677662
0.409244
0.32124
0.2695
0.422504
0.0259092
0.62065
1.21538
0.704989
0.700165
0.215464
0.137818
0.493965
0.856964
0.26413
0.303687
0.295203
0.668617
0.768181
0.264524
0.680448
0.199652
0.61335
0.813433
0
0.144493
0.256426
1.10749
0.245805
0.210755
0.809257
0.254005
0.266032
0.0423247
0.0310614
0.00557372
0.795427
0.170793
0.499126
0.238862
0
0.114337
0.260531
0.289721
1.17428
0.705913
0.274374
0.524564
0.378872
0.461094
0.108633
0.245548
0.619694
1.11881
0.228116
0.594481
0.700436
0.374314
0.0373401
0.47048
0.265947
0.3562
0.501442
0.963813
0.694574
0
0.313982
0.122447
0.252814
0
1.17788
0.468213
0.218303
0.911984
0.318699
0.0591955
0.33055
0.645457
0.112803
0.574502
0.193733
0.839097
0
0.735088
0.448864
0.456798
1.35097
0
0.232015
1.21961
0.598362
0.568875
0.253423
0.725559
1.35394
0.72322
0.501144
0.708357
0.248911
0.0408866
0.10959
1.04354
1.32892
0.541665
1.08215
0.25879
0.760032
0.0612682
0.176847
0.482159
0.326486
0.330787
0.704103
0.270278
0.0254747
0.233172
0.330537
0.471021
0.211233
0.567806
0.181228
0.291259
0.390935
0.480681
0.660684
0.0898683
0.290432
0.182519
0.852594
0.212969
0.779747
1.51711
0.791044
0.132795
0.301255
0.346954
0.710392
1.20415
0.382111
0.314629
0.0832155
0.379543
0.435872
0.15869
0.580047
0.919107
0.215621
0.154777
0.330491
0.0620667
0.272714
0.18114
0.423522
0.463348
0.21295
0.650879
0.660914
0.828474
1.52506
0.0372478
0.487917
0.616152
0.26264
1.14585
0.598984
0.500392
0.926511
0.207633
0.744537
0.905635
0.665815
0.438547
0.217333
0.132383
0.431838
1.44994
0.127503
0.300412
0.449914
0.154815
0.298925
0.187807
0.842597
0.390381
0.625964
0.973237
0.437691
0.201183
0.521553
0.349627
0.345493
0.632519
0.327384
0
0.208749
0.685273
0.754944
0.134455
0.272082
0
0.948834
0.0277573
0.121793
0.517701
0.544494
0.508461
0.228345
0.805939
0.066194
0.466969
0.289471
0.460266
0.522946
0.598695
0.207451
0.202017
0.0572217
0.529
0.0598884
0.313796
0.399394
0.810841
0.277963
0
0.0346527
0.450214
0
0.442437
0.0775232
0.322252
0.259603
0.434776
0.226903
0.43242
0.243555
0.069879
0.273005
0.662697
0
0.785917
0.206425
0.50183
0.983696
0
0.497068
0.197683
0.0294236
0.810554
0.448803
0.151569
0.26282
0.613525
0.529616
0.261466
0.877905
1.12502
0.449824
0.591271
0.135496
0.0999103
0.0163138
0.25017
0
0.463088
0.960195
0.293449
0.143704
0.405142
0.214913
0.507216
0.701303
0.468687
0.285682
0.221798
0.0831455
0.0291341
0.265591
0.62811
0.213189
0.257804
0.25189
0
0.222929
0.507105
0.423125
0.145246
0.227806
0
0.218371
0.140767
0.201466
0.74202
0.413169
0.565819
0.140617
1.21193
0.651076
0.478281
0.215493
0.183903
0.0549953
0.594456
0.196473
0
0.453742
0.114851
0.0420457
0.562041
0.291992
0.145829
0.919403
0.364036
0.22561
0
0
0
0.221976
0.895726
0.309833
0.414294
0.287596
1.05923
0.108369
0.680736
0.35644
0.413987
0.0658626
0.536496
0.0430721
0.239324
0.160504
0.166426
0.467054
0.227061
0.405263
0.402125
1.01959
0.144342
0.226145
0.750668
0.694632
0.563858
0.67392
0.048262
0.0631317
0.575961
0.229668
0.277693
0.121769
0.25395
0
0.759266
0.0349784
0.106875
0.325825
0.256675
0.166928
0.701429
0.364691
0.812708
0.604474
0.27586
0.34505
0.280663
0.207155
0.211412
0.0354623
0.191557
0.132495
0
0.699783
0.337558
0
0.0881485
0
0.951171
0.176186
1.01555
0.172437
0.0331037
0
0
0
0.184247
0.395836
0.207552
0.294048
0.275099
0.500176
0.278573
0
0.0241499
0.203032
0
0
0.29494
0.320376
0.19868
0.0762268
0.176919
0.123665
0.0480741
0
0.230511
0.23346
0.235951
0.00598846
0.0872722
0.00249521
0.0361177
0.252366
0.612428
0.159544
0.0344401
0.30968
0.0228292
0.161266
0
0.0760755
0.508632
0.523766
0.299671
0.168135
0.465948
)
;

boundaryField
{
    sides
    {
        type            zeroGradient;
    }
    empty
    {
        type            empty;
    }
}


// ************************************************************************* //
