/*--------------------------------*- C++ -*----------------------------------*\
  =========                 |
  \\      /  F ield         | OpenFOAM: The Open Source CFD Toolbox
   \\    /   O peration     | Website:  https://openfoam.org
    \\  /    A nd           | Version:  7
     \\/     M anipulation  |
\*---------------------------------------------------------------------------*/
FoamFile
{
    version     2.0;
    format      ascii;
    class       volScalarField;
    location    "0.004";
    object      linearKE;
}
// * * * * * * * * * * * * * * * * * * * * * * * * * * * * * * * * * * * * * //

dimensions      [1 -1 -2 0 0 0 0];

internalField   nonuniform List<scalar> 
1000
(
0.868406
1.00691
0.784447
1.25486
1.06108
1.10761
0.910402
1.00321
1.0089
1.06656
1.35386
0.947308
1.10587
0.849181
0.970964
0.879886
1.0146
1.05922
1.01655
1.08631
1.19757
1.3893
1.12102
0.991564
1.49576
1.51765
1.43301
1.09764
1.0904
1.23395
1.31653
1.45761
1.49005
1.36027
1.07936
1.30518
1.19765
1.36794
1.46796
1.18615
1.30711
1.40121
1.7232
1.28399
1.56652
1.5972
1.04183
1.58372
1.1426
1.36119
1.39019
1.59852
1.3228
1.27818
1.5047
1.63357
1.6496
1.52881
1.62898
1.35381
1.57294
1.75836
1.74479
1.37738
1.5781
1.59916
1.1772
1.71749
1.24542
1.64177
1.55313
1.52902
1.71596
1.44532
1.36778
1.71434
1.48743
1.27048
1.63052
1.72329
1.77825
1.46404
1.49324
1.78248
1.68544
1.45394
1.54998
1.63201
1.54447
1.52126
1.80006
1.67128
1.99394
1.84141
1.4395
1.6809
1.69633
1.98697
1.70774
1.87291
2.18566
1.77992
2.11792
1.92647
1.95342
2.14737
2.04424
1.88986
1.97382
1.61928
2.04778
1.62494
1.88658
2.47138
1.8893
2.09993
2.38103
2.0096
2.75616
2.02729
2.03574
2.21428
1.86357
2.15176
2.44836
2.14579
2.23775
2.40284
2.25357
2.35695
2.09709
1.8712
2.51591
2.33964
2.47438
2.16422
2.25878
2.41714
2.16606
2.30016
2.39095
2.69367
2.29573
2.70556
2.41366
2.40148
2.49804
2.1442
2.14288
2.27563
2.8202
2.27319
2.21773
2.65476
2.56664
2.40648
2.89054
2.89672
2.66302
2.46182
2.93343
2.58506
2.32181
2.66865
2.40671
2.19887
2.25241
2.61301
2.8794
2.5264
2.28785
2.71826
2.64588
2.08753
2.90069
2.47724
2.29006
2.62609
2.48164
2.76251
2.78698
2.31429
2.7597
2.55725
2.53058
2.24994
2.27827
2.62153
3.03559
2.55567
2.7637
2.21964
2.38606
2.80498
2.57895
2.7251
2.40844
2.55937
2.68126
2.26299
2.77951
2.63196
2.61236
2.57484
2.44779
2.49141
2.52715
3.39104
2.10507
2.67352
2.71539
3.13815
2.18422
2.50225
2.38599
2.5346
2.6169
2.39485
2.83555
2.73293
2.5981
2.69978
2.74447
2.66717
2.09595
2.94967
2.4609
2.46337
2.4205
2.61556
2.44006
2.59
2.31362
2.82001
2.34558
2.67409
2.50675
2.7622
2.81331
2.53608
2.56607
2.79874
2.08001
2.75033
2.29631
2.15782
2.37666
2.86478
2.51932
2.65804
2.71965
2.74307
2.76415
2.84233
2.58236
2.19535
2.60075
2.50561
2.63721
2.25023
2.84613
2.73765
2.06341
2.54466
2.48989
2.32334
2.77878
2.58534
2.35582
2.42941
2.67196
2.76229
2.89005
2.8363
2.85156
2.33361
2.98274
2.60962
2.55049
2.62473
2.75954
2.72027
2.35916
2.56854
2.85043
2.94927
2.6521
3.04241
2.97588
2.3952
2.22358
2.33154
2.98036
3.27026
2.70854
2.91746
3.11
2.71121
2.63149
2.60196
2.46522
2.57653
2.71428
2.58755
2.54484
2.80997
2.43055
2.58941
2.65885
2.70463
2.62525
2.5563
2.4082
2.56478
2.76726
2.2947
2.86944
2.35842
2.70928
2.64785
2.57492
2.32042
2.2061
3.1209
2.39285
2.71285
2.94806
2.43393
2.36699
2.47587
2.57665
2.54102
2.25845
2.45643
2.75295
2.89393
2.37058
2.68141
2.65244
2.38636
2.18152
3.02694
3.07167
2.46496
2.63353
2.67835
2.73824
2.6827
2.97028
2.54572
2.96588
2.74287
2.6091
2.23714
3.00865
2.03794
2.42832
2.35779
2.47856
2.50149
2.41389
2.29153
2.41366
1.94194
2.36054
2.65782
2.99401
2.39753
2.06433
2.29456
1.80138
2.14593
1.88974
2.53238
2.45917
2.51971
2.19416
2.42413
2.24861
2.37458
2.70043
2.13986
2.11518
2.44476
2.13904
2.60809
2.1118
2.07786
1.81593
2.33588
2.07768
1.88806
2.08626
1.89218
1.84588
1.80509
1.88247
1.99324
2.16703
2.28942
1.95907
1.83012
1.77869
1.71868
2.37204
1.99495
1.90794
1.45483
2.12171
1.76646
2.00183
1.60965
1.69382
2.0663
1.76719
1.53795
1.52997
1.9444
1.46784
1.74222
1.64017
1.61235
1.74054
1.69304
2.00674
1.75837
1.34665
1.89129
1.94731
1.75697
1.3985
1.69504
1.45363
1.49515
0.984748
1.26323
1.89946
1.50276
1.79899
1.48538
1.91823
1.3813
1.39501
1.22796
1.37525
1.42861
1.60376
1.21262
1.41729
1.67931
1.67656
1.50499
1.56665
1.33369
1.72706
1.48581
1.22826
1.55598
1.35219
1.65572
1.21273
1.39159
1.47241
1.39477
1.37556
1.08911
1.58657
1.65273
1.61367
1.62502
1.85371
1.71403
1.48121
1.44237
1.42527
1.74424
1.38562
1.38843
1.314
1.86106
1.43923
1.70802
1.36381
1.72558
1.94588
1.58488
2.00532
1.68741
1.68231
1.51543
1.47821
1.59792
1.45421
1.31717
1.54175
1.74888
1.68633
1.56509
1.45869
1.52704
1.67649
1.63162
1.46389
1.405
1.85644
1.90193
1.48972
1.49136
1.44243
1.48775
1.69219
1.52165
1.48471
1.34106
1.43712
1.54525
1.50516
1.7674
1.47679
1.32841
1.60111
1.20095
1.33293
1.39031
1.79661
1.45141
1.63106
1.40343
1.63657
1.42621
1.86603
1.69348
1.45697
1.71026
1.74203
1.77735
2.02194
1.48464
1.28331
1.26542
1.51939
1.54022
1.53742
1.43625
1.49965
1.58502
1.51351
1.67629
1.65793
1.27275
1.40725
1.3592
1.53027
1.55837
1.1881
1.91815
1.68683
1.21923
1.35243
1.38676
1.67727
1.21985
1.85244
1.73596
1.41819
1.46681
1.44244
1.46731
1.66273
1.28058
1.30522
1.24965
1.28108
1.19548
1.65168
1.44775
1.53599
1.46682
1.40695
1.28216
1.88608
1.88519
1.21377
1.84349
1.74233
1.41303
1.82763
1.40939
1.35602
1.57935
1.25297
1.5133
1.29345
1.8765
1.67455
1.19195
1.47069
1.4462
1.58837
1.17995
1.59756
1.1628
1.1928
1.44849
1.90792
1.77896
1.55242
1.33793
1.02793
1.73698
1.60182
1.219
1.57401
1.54255
1.74243
1.7911
1.7753
1.3767
1.43994
1.65536
1.75295
1.85026
1.45525
1.47925
1.53338
1.41779
1.42744
1.3903
1.55797
1.77542
1.77058
1.22153
1.96564
1.52386
1.82991
1.48796
1.07587
1.44915
1.59428
1.64902
1.61047
1.64972
1.43571
1.69825
1.67092
1.24769
1.62673
1.61209
1.28633
1.54734
1.89817
1.24473
1.92038
1.43498
1.73731
1.60217
1.57951
1.52817
2.16158
1.63765
1.5878
1.23436
1.51168
1.60286
1.41629
1.63683
1.39052
1.49036
1.70905
1.39616
1.7657
1.14231
1.43098
1.13086
1.19244
1.18795
1.60672
1.79462
0.945929
1.29868
1.37199
1.43796
1.31168
1.57455
0.919862
1.26765
0.915558
0.969506
1.09863
0.77702
0.633141
0.903993
0.76795
0.714178
1.13667
0.995625
0.580126
0.968783
0.658342
0.752688
0.673713
0.753926
0.640708
0.945164
0.785506
1.05941
0.835889
1.06228
0.783275
0.913135
0.699849
0.869804
1.10693
1.0611
0.599166
1.00136
0.754466
0.566948
0.658096
0.875241
0.82206
0.58941
0.660934
0.867817
0.92415
0.776878
0.551631
0.531633
0.577431
0.941194
0.830616
0.4616
0.686079
0.982922
0.524437
0.86251
0.68301
0.831925
0.931541
0.562728
0.909763
0.887885
0.533496
0.767614
0.765276
0.564675
0.696663
0.86677
0.65585
0.799391
0.918482
0.728079
0.682463
0.670923
0.632485
0.724167
0.887164
0.863356
0.790592
0.629473
0.619409
0.58519
0.911249
0.52303
0.737972
0.889029
0.899821
0.688164
0.791373
0.722586
0.797285
0.703096
0.78056
0.874775
0.917786
0.597467
0.775753
0.845159
0.736827
0.680021
1.06625
0.790333
0.7168
0.804058
0.484683
0.543753
0.854163
0.677967
0.789186
0.72188
0.649524
0.75742
0.771266
0.688762
0.663869
1.05375
0.657525
0.901621
0.60165
0.698154
0.568564
0.805453
0.878804
0.878126
0.693691
0.62887
0.813105
0.681584
0.691405
0.747721
1.06594
0.901979
0.663347
0.941672
0.626721
0.711245
0.690222
0.652229
0.695584
0.859751
0.492087
0.753736
0.600893
0.774441
0.760739
0.865152
0.757813
0.683882
0.865903
0.709851
0.815231
0.649689
0.961948
0.85106
0.406648
0.903272
0.642643
0.593279
1.07424
0.605884
0.930063
0.760272
0.788546
0.827855
0.789488
0.63453
0.713253
0.817642
0.596636
0.716266
0.620416
0.837975
0.953386
0.577656
0.375729
0.677264
0.959148
0.567331
0.646172
0.811541
0.934281
0.70517
0.64644
0.582906
0.84898
0.614161
0.432056
0.487527
0.452648
0.81824
0.660995
0.554295
0.589155
0.56606
0.548873
0.559187
0.685735
0.595613
0.589955
0.871821
0.501882
0.495351
0.627492
0.683913
0.555065
0.429054
0.756307
0.764414
0.5937
0.593553
0.689415
0.659188
0.873848
0.575712
0.550867
0.576824
0.59664
0.572398
0.652972
0.322006
0.501852
0.468368
0.668036
0.65504
0.400474
0.500722
0.585531
0.496796
0.679016
0.584863
0.567926
0.61001
0.513485
0.534089
0.549075
0.327613
0.479879
0.518032
0.557222
0.44702
0.367064
0.4963
0.501429
0.519924
0.34904
0.517313
0.380322
0.4838
0.45762
0.515926
0.393605
0.628678
0.443566
0.582903
0.308086
0.432563
0.374876
0.498968
0.284445
0.451314
0.328761
0.386386
0.276139
0.281448
0.458708
0.444128
0.385497
0.466871
0.575329
0.342408
0.247287
0.453084
0.408592
0.274859
0.412052
0.280191
0.515942
0.298617
0.340365
0.462141
0.426583
0.379674
0.257666
0.503853
0.180578
0.431411
0.260995
0.333911
0.443292
0.482424
0.428076
0.45702
0.279914
0.315989
0.279247
0.277302
0.265751
0.376917
0.517531
0.406159
0.316212
0.376277
0.238007
0.32317
0.317828
0.343725
0.383479
0.214411
0.353246
0.349953
0.298974
0.250415
0.397244
0.321707
0.264038
0.361138
0.37117
0.2969
0.383634
0.313321
)
;

boundaryField
{
    sides
    {
        type            zeroGradient;
    }
    empty
    {
        type            empty;
    }
}


// ************************************************************************* //
