/*--------------------------------*- C++ -*----------------------------------*\
  =========                 |
  \\      /  F ield         | OpenFOAM: The Open Source CFD Toolbox
   \\    /   O peration     | Website:  https://openfoam.org
    \\  /    A nd           | Version:  7
     \\/     M anipulation  |
\*---------------------------------------------------------------------------*/
FoamFile
{
    version     2.0;
    format      ascii;
    class       volScalarField;
    location    "0.004";
    object      linearKE;
}
// * * * * * * * * * * * * * * * * * * * * * * * * * * * * * * * * * * * * * //

dimensions      [1 -1 -2 0 0 0 0];

internalField   nonuniform List<scalar> 
1000
(
4.90516
4.42272
4.54472
4.08514
3.36627
2.50515
4.18581
1.9744
2.75158
2.89748
2.69808
3.10389
4.0168
1.92578
3.32447
3.67617
2.88224
3.05006
4.8227
2.16028
2.54029
2.06738
2.76926
4.57257
4.66647
2.50388
4.31227
4.6342
2.62757
2.2766
2.41805
3.52199
5.39906
2.1598
5.32175
3.20113
3.73578
3.76991
4.88956
3.34701
2.35052
1.67162
3.69103
3.9688
4.33582
2.32185
1.82285
1.8236
3.93534
2.29213
2.88798
5.14274
3.25083
2.8526
2.1349
3.0061
3.77602
3.14025
2.91611
3.15928
4.93621
4.42167
1.91343
3.7487
4.91687
4.66579
1.88813
2.84487
2.43489
5.02019
4.33914
5.75107
1.68967
2.85106
3.73048
2.68494
2.73478
4.44872
5.52873
2.33142
2.38209
3.627
1.92112
2.41223
4.8856
2.33425
2.57077
4.26345
2.19396
4.40976
3.83527
2.84978
2.87979
2.66835
3.05059
2.258
8.253
3.63025
3.69805
2.09798
3.57219
1.51936
3.87402
2.13853
6.9682
2.47268
1.37568
3.95313
4.21382
2.07327
3.2933
3.7368
3.20608
3.44426
4.03817
4.44887
2.65007
2.38898
6.95526
1.82063
4.86513
2.18466
2.78722
2.31867
4.00792
3.71443
4.13594
3.17164
2.90462
2.96999
3.80813
5.07127
3.4926
3.56559
5.34485
1.49356
3.11328
3.62416
3.43154
4.15863
5.22806
5.47944
4.03439
2.37711
3.44806
3.50053
2.45303
2.69367
3.52011
3.1956
2.81349
3.79928
3.14475
2.33947
2.51063
4.4103
4.89045
3.57611
1.92814
1.8653
3.9548
2.96288
3.85179
3.39523
2.89929
4.39335
4.88072
2.58829
3.81718
4.11508
2.87688
2.86426
3.1749
3.0385
2.71308
3.73109
2.92792
4.51839
1.64653
4.16503
3.82797
4.70636
2.67594
5.47789
1.90189
3.04921
1.61541
2.38248
3.43886
2.40603
3.58249
2.3123
3.67853
1.64451
3.29482
3.22797
2.88232
4.317
4.6752
2.72389
4.2045
2.17534
3.83778
5.14405
3.35392
3.94942
1.06364
4.19977
2.72054
3.97512
4.01355
3.32502
2.77474
2.18066
4.86405
4.18741
3.83173
4.50312
1.94927
3.90643
4.49053
2.79633
3.41628
2.8092
2.2072
4.20154
4.60562
4.22048
4.61653
3.78014
3.93179
2.3828
3.86021
2.70874
2.22529
3.83044
2.35801
2.84545
2.10988
3.57477
2.66598
3.79526
4.92264
3.30538
4.42088
4.94379
2.45714
4.92931
3.60739
4.93067
4.33136
5.37557
4.54744
3.32182
1.42481
3.16155
3.46211
2.76477
3.2949
6.16752
3.45805
3.60396
1.66746
5.17985
3.05504
3.45251
2.5141
4.94221
3.29868
3.65521
2.31489
3.5171
4.99598
2.62632
2.09283
1.76867
2.72486
3.31115
3.27885
1.99465
4.02723
5.42982
3.91498
3.49043
3.80732
2.52914
2.23056
2.76249
2.08354
4.74426
3.53151
1.8738
3.4256
3.29716
2.62039
4.72049
2.9204
2.24244
4.23986
4.33575
5.14389
3.8819
4.83147
2.35765
3.59054
1.52717
2.98128
2.57457
1.99346
2.06273
3.34243
3.61037
1.54463
2.64159
3.10007
4.78073
1.801
2.31065
2.96564
3.27991
2.53919
3.17735
5.09394
3.17819
4.42594
2.43366
1.84449
1.6453
4.55504
4.64411
2.48645
4.68073
3.63349
2.3177
3.19461
4.52715
6.44351
4.13425
2.1312
2.80446
1.87108
3.91713
4.19512
2.74342
1.92101
2.6164
4.46857
4.56043
1.80427
3.59553
1.71697
3.60757
3.21851
4.80886
5.09806
4.00331
1.98464
5.28094
3.25116
2.09928
4.20333
1.48035
3.97976
3.4356
3.26645
3.00414
3.0661
2.78762
1.8571
2.39936
1.44165
4.09158
3.34199
4.84007
2.62193
2.71855
2.45401
3.4347
3.0942
2.13566
2.04005
2.6927
1.70111
1.92588
3.48621
2.30325
1.14634
3.8899
0.769066
2.16377
1.16661
2.13402
2.60682
2.7962
2.07827
3.08403
1.44646
1.2262
4.35814
1.9884
1.41903
2.9067
1.71062
3.30319
1.58922
2.61937
0.784072
1.51002
1.91772
2.87555
1.71646
2.53024
1.75581
3.59558
1.28911
2.33346
2.95623
2.24558
0.996609
2.90236
4.51957
2.27
2.81527
1.68841
2.86513
2.94731
1.13148
2.34545
2.96677
2.15705
2.03972
2.45295
1.79358
1.51327
1.26402
2.64738
1.54018
3.14549
0.723637
1.88579
2.50649
2.62076
2.12688
2.30368
1.89266
2.01811
3.95548
3.86879
1.26156
1.5916
1.00993
2.03531
2.49611
1.22063
1.20401
1.31925
2.64177
1.07836
1.32104
1.91233
2.60982
3.06067
0.761846
1.15803
1.42076
1.25233
1.46312
1.1821
0.97544
1.57546
2.03175
2.55993
3.6895
1.21097
3.20645
3.48735
2.11112
3.73088
1.8344
2.39788
2.11694
1.13404
2.8872
2.96796
2.12532
1.66429
1.72667
2.88829
2.22744
2.18159
1.49708
1.05269
1.83692
0.807998
2.25204
1.28208
0.415563
1.38378
1.34284
2.60412
1.57491
2.82627
3.04064
3.08347
1.95421
1.11744
1.33835
0.869123
2.01425
2.2411
3.32593
2.88202
1.22654
1.42206
2.30461
2.31731
1.98552
1.49987
3.15148
1.52158
1.68282
5.29295
2.86521
3.8509
1.80132
2.9376
1.96019
1.57313
1.60773
1.03218
3.38867
3.17566
2.44353
1.60667
1.57189
1.2001
1.67353
1.77554
1.29726
1.66312
2.04669
2.58539
1.35098
2.08141
3.23172
1.3964
4.78873
2.16983
1.60415
1.71668
1.51887
1.81865
3.02028
1.94182
2.40993
0.868433
2.06607
2.84041
1.65241
1.63426
1.49048
2.87397
1.85558
1.19651
2.74462
1.54513
1.18235
1.3446
1.96414
1.88169
1.67179
1.25995
3.19293
2.73597
1.15036
1.82897
1.14171
2.17366
1.6776
2.98449
2.53062
1.78355
0.774018
5.23726
2.19684
0.789662
1.30321
1.46369
3.16315
0.742654
1.55341
3.28273
1.3013
1.82525
1.70261
0.344569
0.588705
1.82601
0.712219
0.490731
3.30651
1.97654
1.76568
2.52714
1.64626
1.38961
4.08307
3.18386
0.632688
2.08459
1.94277
1.57899
2.24261
1.51305
2.8264
2.13252
2.59098
5.35936
3.26205
1.25449
3.24041
1.4431
2.12993
1.74248
3.84921
1.24449
1.93901
2.12598
0.773688
2.05334
2.25514
1.14144
0.730248
2.40595
0.202009
4.63847
0.569043
1.94518
2.37233
1.17822
0.816205
2.38538
1.21018
5.31006
1.53419
2.21207
1.61543
0.792193
1.36525
1.81792
1.33742
1.50947
1.30532
2.3868
1.11912
2.26528
1.90419
3.17393
2.0002
1.8728
2.45037
1.88936
3.20899
2.87833
0.90631
1.33195
2.25788
0.652802
1.07471
1.74785
1.32441
1.31516
1.89644
3.94183
1.43198
1.56236
1.57687
0.883469
1.40123
1.93149
2.62528
0.600851
2.47578
3.37243
1.35804
2.27569
2.02236
2.69505
1.74086
2.09414
0.669499
3.45638
0.713494
2.29946
0.823873
1.58528
1.92036
1.75123
3.0525
2.5075
1.31458
3.17716
1.23894
4.57747
2.32049
2.9096
2.42049
2.1303
0.826387
1.51942
3.2916
2.63206
2.35509
1.02705
0.936209
1.3262
3.64014
2.77685
0.4281
1.02302
1.58173
0.193532
1.70985
1.53509
0.80011
0.87158
0.667948
0.973632
0.614596
1.87575
1.59386
1.52638
0.822272
1.11488
1.0722
1.87134
1.12459
0.988921
2.28553
0.725457
1.15005
0.932013
1.17844
0.443707
2.37969
1.31459
0.735426
0.376541
0.152173
1.44757
0.817808
0.776572
0.595561
1.50602
0.37768
0.481887
1.96527
1.33713
0.325591
2.00687
0.322746
0.962103
0.775368
1.24773
0.695987
0.371597
1.24548
1.92822
1.45907
0.726258
0.673598
2.00467
2.16025
0.267768
0.184075
0.51427
1.14165
0.451432
1.69338
1.31177
1.432
1.15328
1.04254
1.08388
0.76079
0.740052
1.80139
0.182885
1.35868
1.04025
0.927691
0.611413
0.529202
1.34883
0.141525
1.68116
1.10069
1.7629
1.27968
0.940436
2.41087
1.67557
0.371137
1.64764
0.288272
0.626131
1.58859
0.538182
0.853466
0.46151
1.78125
1.27002
1.87587
1.05457
1.12965
1.93922
1.04748
0.854427
1.38192
0.548264
1.02267
1.01459
1.11547
0.816812
2.12387
0.832431
0.686418
1.01865
0.550616
0.774073
0.831611
1.54553
0.723701
0.757512
1.43035
0.638506
1.04246
0.627004
0.25347
0.865196
0.62538
0.369074
0.854446
0.768876
0.883517
2.89953
1.30711
1.75811
0.324522
0.903041
1.23074
1.78884
1.37522
1.34158
0.782611
0.417113
2.0852
0.27252
0.977981
0.0156306
0.735186
0.0754215
0.822487
0.386183
1.09292
0.953059
0.575579
0.881347
1.3337
0.810857
0.951259
0
0.567155
0.414817
1.13431
2.52592
0.84476
0
0.89336
0.593839
1.40866
0.514529
1.02747
0.908192
1.38484
0.839552
0.29231
1.17013
0.879658
0.969683
0.318205
0.835593
0.698804
0.351325
0.961004
1.22664
1.33087
0.541505
1.42615
1.75692
1.12418
2.1096
0.884486
1.23981
1.60108
1.36075
0.7299
0.399763
0.0488942
0.952749
1.1398
0.999472
0.80954
2.46903
1.35091
0.653998
1.03319
0.63655
0.615558
1.0474
0.836999
1.38893
0.93749
0.4173
0.666214
0.646757
2.1692
0.663653
0.882453
0.747931
0.0954986
1.34786
1.5568
1.5627
1.02647
1.30286
1.26366
0.373495
0.736056
0.793998
0.435766
0.374528
1.38505
0.637033
1.12837
1.25879
0.896107
0.586856
0.891279
1.68404
0.76881
1.06059
0.425582
0.323055
0.732789
1.03018
1.05443
2.45193
2.79845
1.95139
0.318913
1.60238
1.09119
1.05856
1.2234
1.02753
0.568415
0.827759
0.445944
1.26625
0.651439
0.889318
0.926621
1.09721
1.35411
1.27116
1.18804
0.264866
0.893297
0.509683
0.304799
2.10766
1.29629
0.847921
0.55965
0.230371
0.943435
0.521521
1.81198
0.719057
1.07699
1.81769
0.472429
0.26649
0.741473
1.03745
1.0163
1.36995
1.79588
1.6509
)
;

boundaryField
{
    sides
    {
        type            symmetry;
    }
    empty
    {
        type            empty;
    }
}


// ************************************************************************* //
