/*--------------------------------*- C++ -*----------------------------------*\
  =========                 |
  \\      /  F ield         | OpenFOAM: The Open Source CFD Toolbox
   \\    /   O peration     | Website:  https://openfoam.org
    \\  /    A nd           | Version:  7
     \\/     M anipulation  |
\*---------------------------------------------------------------------------*/
FoamFile
{
    version     2.0;
    format      ascii;
    class       volScalarField;
    location    "0.004";
    object      linearKEMean;
}
// * * * * * * * * * * * * * * * * * * * * * * * * * * * * * * * * * * * * * //

dimensions      [1 -1 -2 0 0 0 0];

internalField   nonuniform List<scalar> 
1000
(
7.84371
7.82489
7.80393
7.79338
7.82143
7.81844
7.81288
7.79643
7.77775
7.82344
7.74852
7.81693
7.8162
7.78489
7.83382
7.85486
7.81558
7.79166
7.83375
7.85439
7.84351
7.87876
7.83551
7.79372
7.82702
7.84102
7.84786
7.80439
7.8066
7.78062
7.81965
7.86477
7.78288
7.83135
7.85236
7.85078
7.81931
7.80894
7.83843
7.80428
7.78756
7.83526
7.80035
7.8381
7.79547
7.81792
7.80779
7.83656
7.86369
7.84811
7.79965
7.81208
7.83582
7.80828
7.85756
7.82139
7.81652
7.83532
7.86641
7.84825
7.83798
7.80446
7.79571
7.81238
7.83651
7.82145
7.83131
7.80634
7.83041
7.85133
7.83626
7.85224
7.86635
7.81934
7.83525
7.79478
7.84515
7.79601
7.79634
7.88749
7.85249
7.87732
7.8482
7.84171
7.8503
7.8461
7.83098
7.85802
7.85364
7.81472
7.85038
7.85957
7.84324
7.82057
7.88635
7.88771
7.87772
7.87653
7.90588
7.88187
7.84106
7.83169
7.85099
7.86458
7.85068
7.81706
7.84079
7.8185
7.87554
7.84908
7.8721
7.84916
7.83666
7.90145
7.91317
7.84396
7.89088
7.85163
7.88606
7.8987
7.8583
7.83053
7.81652
7.86398
7.83118
7.88619
7.87068
7.90481
7.87801
7.91926
7.8836
7.87333
7.86959
7.86807
7.89787
7.884
7.89116
7.90229
7.89492
7.835
7.87557
7.89544
7.86953
7.84453
7.87847
7.87735
7.92278
7.97215
7.89703
7.90952
7.94324
7.90861
7.8636
7.89952
7.85924
7.91097
7.91787
7.8847
7.85143
7.84723
7.87018
7.91452
7.88801
7.84976
7.86811
7.85611
7.92483
7.88029
7.91972
7.9457
7.86636
7.88105
7.90953
7.89003
7.88784
7.8813
7.87211
7.90293
7.91379
7.92657
7.89729
7.92086
7.85931
7.86226
7.88669
7.92288
7.91419
7.88539
7.8761
7.90931
7.90835
7.90511
7.92683
7.93826
7.88279
7.93019
7.93738
7.89343
7.98307
7.9782
7.88707
7.95997
7.96783
7.90924
7.93144
7.88859
7.90275
7.92536
7.91257
7.9391
7.92533
7.91047
7.94532
7.93502
7.91802
7.92135
7.91892
7.90289
7.89494
7.9074
7.91061
7.91923
7.87933
7.85415
7.88511
7.86842
7.91625
7.95825
7.9253
7.92546
7.92708
7.87987
7.91553
7.90882
7.88078
7.95776
7.88321
7.89641
7.84416
7.90162
7.90678
7.88493
7.89187
7.90399
7.84065
7.92026
7.86585
7.88359
7.8923
7.88881
7.89956
7.88929
7.91431
7.87751
7.90779
7.89251
7.91881
7.90163
7.86483
7.88991
7.89546
7.84123
7.90568
7.93235
7.85125
7.82527
7.8381
7.86755
7.91073
7.85484
7.83527
7.87865
7.80841
7.84239
7.90114
7.80732
7.8488
7.87203
7.85927
7.83547
7.79825
7.79634
7.75257
7.76812
7.77821
7.7808
7.76591
7.73105
7.72422
7.78339
7.79564
7.80168
7.78237
7.75422
7.76217
7.74614
7.71043
7.65205
7.70695
7.67837
7.73215
7.71819
7.67533
7.66502
7.63473
7.6735
7.67628
7.62011
7.61632
7.63987
7.57039
7.65987
7.60929
7.55857
7.56996
7.52945
7.52069
7.56325
7.52693
7.59794
7.47471
7.54975
7.4942
7.49063
7.4831
7.5298
7.50794
7.4498
7.41946
7.4501
7.44735
7.36494
7.37001
7.41431
7.36452
7.36514
7.33887
7.31302
7.31819
7.34777
7.30101
7.31759
7.27903
7.26718
7.28274
7.28983
7.24118
7.21958
7.27262
7.22669
7.2245
7.19251
7.22167
7.20664
7.1055
7.07129
7.0679
7.09434
7.08189
7.06087
7.06864
6.99813
7.01571
6.94071
6.97255
6.99615
6.94705
6.93419
6.90694
6.89151
6.87185
6.8787
6.86026
6.87432
6.83558
6.79545
6.80524
6.82391
6.83036
6.77631
6.69358
6.68554
6.67906
6.67749
6.61944
6.67302
6.59964
6.58183
6.60723
6.61816
6.54276
6.52913
6.51239
6.47719
6.44744
6.45383
6.41677
6.44663
6.4086
6.41018
6.40778
6.34446
6.27294
6.26583
6.3093
6.29383
6.25752
6.20295
6.24628
6.16228
6.17376
6.11802
6.06928
6.10871
6.03793
6.04329
6.035
6.01426
5.98899
5.98662
5.95491
5.94577
5.87522
5.89359
5.85635
5.86836
5.83175
5.77898
5.76641
5.74605
5.71464
5.687
5.67692
5.63757
5.63049
5.58623
5.5601
5.56335
5.49608
5.48981
5.46703
5.44723
5.41222
5.37215
5.41839
5.36138
5.31879
5.3179
5.26379
5.23763
5.22951
5.201
5.17249
5.16551
5.16004
5.08796
5.04278
5.10181
5.01939
4.98059
4.95043
4.93402
4.87604
4.83008
4.82458
4.79695
4.76962
4.75834
4.71317
4.70092
4.63796
4.62037
4.56768
4.57358
4.51987
4.50128
4.45084
4.44327
4.42532
4.41604
4.37576
4.35448
4.32394
4.26444
4.2781
4.25299
4.21038
4.16588
4.15551
4.14654
4.07993
4.03575
4.0248
4.00654
3.97824
3.97255
3.90727
3.88451
3.82604
3.79149
3.76569
3.74887
3.73604
3.70684
3.69666
3.71279
3.66921
3.71649
3.67662
3.65738
3.63978
3.65224
3.62143
3.62727
3.61351
3.59819
3.58914
3.60735
3.57671
3.54607
3.52485
3.52607
3.53644
3.52391
3.49799
3.51069
3.51336
3.45575
3.4805
3.48937
3.46833
3.48686
3.47743
3.4357
3.41682
3.39968
3.39433
3.40297
3.40335
3.36369
3.35024
3.32801
3.31581
3.31409
3.32028
3.30919
3.33039
3.3233
3.3005
3.26485
3.2721
3.24768
3.22632
3.23752
3.23696
3.20975
3.20064
3.18049
3.14983
3.13765
3.15076
3.14321
3.12752
3.12253
3.1261
3.09079
3.07968
3.07338
3.04737
3.07495
3.06556
3.07074
3.05851
3.03036
3.01901
3.00148
2.98124
2.97632
2.95949
2.92666
2.92932
2.93082
2.91384
2.90506
2.91693
2.92118
2.90799
2.89026
2.87218
2.87275
2.87425
2.87713
2.8445
2.82722
2.78718
2.81038
2.77583
2.75688
2.72351
2.70765
2.68335
2.67028
2.66461
2.66754
2.67633
2.68193
2.68726
2.68261
2.62586
2.6466
2.62774
2.61584
2.59179
2.58178
2.56431
2.55512
2.56401
2.55032
2.54899
2.53715
2.53363
2.54802
2.49897
2.48505
2.50258
2.49148
2.4762
2.4439
2.43089
2.45597
2.44135
2.42938
2.41108
2.39821
2.37935
2.35958
2.36978
2.34267
2.35621
2.34257
2.31033
2.29417
2.3181
2.29124
2.27572
2.26541
2.26273
2.2232
2.20092
2.19937
2.19031
2.19133
2.15822
2.16034
2.17947
2.16909
2.16478
2.15828
2.1263
2.13166
2.10208
2.08487
2.06611
2.07293
2.05638
2.03408
2.03009
2.0181
2.00037
1.98198
1.94815
1.95009
1.94913
1.95192
1.93171
1.91174
1.90542
1.87239
1.87669
1.87003
1.84186
1.82871
1.79664
1.79174
1.79494
1.76991
1.74199
1.73222
1.73373
1.71923
1.70552
1.70722
1.68793
1.67759
1.67488
1.67197
1.62617
1.64127
1.63386
1.61059
1.59968
1.57181
1.57231
1.53226
1.51867
1.49622
1.49836
1.48553
1.47737
1.45432
1.45693
1.44632
1.43718
1.42434
1.398
1.39434
1.35956
1.35938
1.35594
1.32467
1.304
1.29498
1.29181
1.27224
1.24918
1.25508
1.22965
1.22171
1.2063
1.19823
1.18711
1.17509
1.17551
1.16286
1.15827
1.12819
1.12828
1.1169
1.09374
1.09475
1.08936
1.07392
1.04534
1.02509
1.00664
1.00579
0.988006
0.980035
0.960815
0.945807
0.934054
0.909191
0.925395
0.924936
0.901954
0.882893
0.857348
0.855172
0.844634
0.823555
0.795746
0.786177
0.779117
0.781052
0.775981
0.758069
0.757889
0.747889
0.750052
0.753153
0.746107
0.75278
0.760419
0.748276
0.761376
0.753354
0.755217
0.766794
0.76795
0.762781
0.768941
0.754425
0.753395
0.738522
0.730106
0.742187
0.757338
0.748921
0.757631
0.757776
0.763516
0.749802
0.756217
0.760945
0.74804
0.7538
0.762683
0.762678
0.764148
0.752048
0.761443
0.749918
0.762427
0.765738
0.766
0.75968
0.75624
0.748671
0.747989
0.743403
0.750377
0.756526
0.767243
0.756978
0.746547
0.753083
0.773896
0.747993
0.741584
0.749867
0.746015
0.753557
0.759145
0.754933
0.754605
0.757165
0.747358
0.755768
0.756833
0.743356
0.739666
0.74806
0.746305
0.75694
0.745795
0.745671
0.750144
0.758811
0.762394
0.746147
0.756409
0.755164
0.763063
0.758177
0.768916
0.766847
0.749391
0.744735
0.747885
0.755952
0.740885
0.744358
0.75516
0.742695
0.755114
0.746463
0.755683
0.748273
0.754189
0.747942
0.739255
0.753502
0.748217
0.751127
0.751612
0.744553
0.740284
0.747352
0.746659
0.773357
0.759911
0.740842
0.748142
0.750823
0.754815
0.753083
0.747567
0.757464
0.768057
0.765592
0.764514
0.751399
0.750706
0.757206
0.763878
0.749532
0.747219
0.756729
0.752117
0.757154
0.760359
0.763721
0.749929
0.760523
0.761571
0.765896
0.763107
0.752852
0.744352
0.751651
0.771588
0.768707
0.757872
0.750235
0.743408
0.75552
0.758028
0.757146
0.762994
0.759359
0.763097
0.76077
0.759094
0.756779
0.761762
0.746518
0.745824
0.761318
0.763062
0.751526
0.751658
0.755242
0.761316
0.75693
0.752297
0.745754
0.739884
0.738658
0.746896
0.760429
0.754619
0.757319
0.75508
0.74242
0.756486
0.749132
0.75397
0.746624
0.770047
0.76313
0.75898
0.768482
0.775002
0.764601
0.764734
0.767881
0.766594
0.758049
0.765073
0.76423
0.771268
0.762023
0.766642
0.755959
0.772341
0.768705
0.77399
0.760152
0.769687
0.767332
0.766837
0.76462
0.749742
0.753471
0.770347
0.780017
0.781253
0.765589
0.754622
0.752482
0.755715
0.760014
0.76123
0.778414
0.766967
0.753259
0.752587
0.755284
0.768512
0.776521
0.774428
0.773954
0.760514
0.751713
0.758797
0.753421
0.758312
0.761907
0.761876
0.756995
0.756542
0.763365
0.772407
0.758082
0.751367
0.752685
0.749017
0.767399
0.76193
0.74959
)
;

boundaryField
{
    sides
    {
        type            symmetry;
    }
    empty
    {
        type            empty;
    }
}


// ************************************************************************* //
