/*--------------------------------*- C++ -*----------------------------------*\
  =========                 |
  \\      /  F ield         | OpenFOAM: The Open Source CFD Toolbox
   \\    /   O peration     | Website:  https://openfoam.org
    \\  /    A nd           | Version:  7
     \\/     M anipulation  |
\*---------------------------------------------------------------------------*/
FoamFile
{
    version     2.0;
    format      ascii;
    class       volVectorField;
    location    "0.004";
    object      momentumMean;
}
// * * * * * * * * * * * * * * * * * * * * * * * * * * * * * * * * * * * * * //

dimensions      [1 -2 -1 0 0 0 0];

internalField   nonuniform List<vector> 
1000
(
(6.9427e-07 -7.15286e-05 0.000230337)
(-2.09167e-06 -5.0266e-05 0.000154096)
(-7.17918e-06 7.07255e-05 8.72366e-05)
(-6.08369e-06 -2.72445e-05 0.000163994)
(-1.14604e-05 -2.1688e-05 0.000138201)
(-1.27935e-05 -3.98328e-05 0.000162326)
(-1.53168e-05 -3.85964e-05 0.00023412)
(-1.83741e-05 -6.05282e-05 5.30402e-05)
(-1.85027e-05 -3.1005e-05 -7.95211e-06)
(-1.64638e-05 3.55133e-06 3.05763e-05)
(-1.42733e-05 9.3754e-05 7.3399e-05)
(-1.52328e-05 0.000223598 2.93509e-05)
(-1.69504e-05 0.000278008 7.97675e-05)
(-1.36633e-05 0.000208291 0.000164739)
(-1.36385e-05 0.000176509 0.000211416)
(-1.45501e-05 0.000103294 0.000144949)
(-1.30503e-05 5.32246e-05 0.000242459)
(-1.33717e-05 -2.0989e-06 0.0002828)
(-1.2301e-05 -5.49213e-05 8.45775e-05)
(-1.12545e-05 -2.09182e-05 0.000145835)
(-7.92146e-06 -4.78423e-05 0.000215829)
(-8.12984e-06 -1.31391e-06 0.000127229)
(-6.73711e-06 -3.50785e-05 0.000183024)
(-5.22259e-06 -3.49607e-05 0.000298388)
(-7.43053e-06 -2.87518e-05 0.000264514)
(-8.14127e-06 -6.75532e-05 0.000229347)
(-1.01746e-05 -5.74321e-05 0.000209041)
(-1.11649e-05 6.46088e-05 0.000233276)
(-6.18698e-06 -2.52823e-05 0.000154557)
(-6.62555e-06 -3.09077e-05 0.000117477)
(-4.54068e-06 -9.92676e-05 3.07001e-05)
(-7.45609e-06 -4.38691e-05 1.35171e-05)
(-1.26468e-05 -0.000109694 -1.19712e-05)
(-1.23504e-05 -0.000174068 -7.4899e-05)
(-1.11259e-05 -0.000226374 7.34808e-05)
(-1.39789e-05 -0.000105838 4.28216e-05)
(-1.48419e-05 -0.000149741 0.000113132)
(-8.79111e-06 -8.5901e-05 4.7904e-05)
(-1.01332e-05 -0.000121607 0.000156122)
(-8.88624e-06 -0.000167167 5.29915e-05)
(-6.65322e-06 -0.000257456 -4.28371e-05)
(-1.23965e-05 -0.000287347 6.1552e-05)
(-1.39695e-05 -0.000304244 -3.24256e-05)
(-1.42484e-05 -0.000315107 3.26864e-05)
(-1.21551e-05 -0.000216374 -4.93377e-07)
(-1.53003e-05 -0.000192863 7.9221e-05)
(-1.46648e-05 -0.000239203 -8.7299e-05)
(-1.26977e-05 -0.000234591 -2.84045e-05)
(-1.80472e-05 -0.000249719 -6.63096e-06)
(-1.54869e-05 -0.000140911 -2.84014e-05)
(-1.53355e-05 -2.21658e-05 2.94305e-05)
(-1.57859e-05 -4.37403e-05 0.000150867)
(-1.34794e-05 -7.07723e-06 4.7551e-05)
(-1.60604e-05 -2.60791e-05 7.96842e-05)
(-1.24395e-05 -5.58994e-05 0.000143363)
(-1.34026e-05 -0.000140283 6.2471e-05)
(-1.45907e-05 -9.51342e-05 3.69413e-05)
(-1.87197e-05 -9.46583e-05 -8.98625e-05)
(-1.8958e-05 -0.000127865 -3.95389e-05)
(-1.93875e-05 -0.000172216 -8.20361e-06)
(-2.31847e-05 -0.000130973 8.85248e-05)
(-2.59389e-05 -3.53979e-05 0.000168371)
(-2.70609e-05 -9.02374e-05 0.000129523)
(-2.64424e-05 -5.14059e-05 6.82884e-06)
(-2.39427e-05 -0.000208974 -5.97189e-05)
(-2.18231e-05 -0.000303231 -0.000121112)
(-1.81741e-05 -0.000278534 -0.000233934)
(-1.23721e-05 -0.000192451 -0.000131873)
(-1.52872e-05 -0.000194119 -0.000169453)
(-1.65258e-05 -9.46654e-05 -0.000166059)
(-1.54867e-05 -0.000135481 -0.000114059)
(-1.48378e-05 3.17688e-05 -9.2181e-05)
(-7.62144e-06 6.94117e-05 -2.58971e-05)
(-1.02536e-05 -4.69685e-06 -9.43877e-05)
(-1.02879e-05 4.06259e-06 -2.72431e-05)
(-8.83269e-06 8.34091e-05 6.58763e-05)
(-1.11912e-05 0.000120366 7.2398e-05)
(-9.01007e-06 7.80777e-05 -3.35387e-05)
(-1.04267e-05 -7.62512e-05 -5.14886e-05)
(-9.62522e-06 7.14169e-06 -3.46757e-05)
(-1.05372e-05 5.81901e-06 -0.00011658)
(-1.09811e-05 -5.13415e-05 -0.000179421)
(-1.03415e-05 -7.96711e-05 -8.98696e-06)
(-1.41766e-05 -9.00945e-05 -5.43719e-05)
(-1.02338e-05 -0.000268653 -6.72358e-05)
(-1.14251e-05 -0.000265926 -1.05961e-05)
(-9.34867e-06 -0.000284384 3.81045e-05)
(-9.06755e-06 -0.000313847 -2.7652e-05)
(-6.64299e-06 -0.000235077 6.84267e-06)
(-7.41005e-06 -0.000163574 -9.4449e-05)
(-1.07947e-05 -0.000382331 -0.000127366)
(-9.84627e-06 -0.000480306 -8.14438e-05)
(-1.17837e-05 -0.000428901 -0.000133764)
(-1.03691e-05 -0.000240115 -0.000298259)
(-8.15006e-06 -0.000127338 -0.000251997)
(-1.69526e-05 -0.000107331 -0.000358112)
(-2.04476e-05 -5.65242e-05 -0.000304579)
(-1.8946e-05 -6.38357e-06 -0.000251442)
(-1.3094e-05 1.31558e-05 -0.000169473)
(-1.39884e-05 2.8194e-05 -0.000228141)
(-1.39479e-05 -7.52694e-05 -0.000127477)
(-1.40795e-05 -8.48556e-05 -0.000130107)
(-1.58341e-05 -0.000141863 -0.000110472)
(-1.64389e-05 -1.11093e-05 -0.000175869)
(-1.87811e-05 0.00020079 -0.000149999)
(-1.85236e-05 9.10766e-05 -0.000184311)
(-1.64054e-05 3.30487e-05 -4.35092e-05)
(-1.70972e-05 7.01659e-05 -8.96726e-05)
(-1.64091e-05 0.000185512 -8.67183e-05)
(-1.3056e-05 0.000109055 -0.00013974)
(-9.6621e-06 3.41998e-05 -0.000129963)
(-1.09252e-05 6.74653e-05 -0.000142641)
(-9.95603e-06 0.000140849 -9.86846e-05)
(-5.81895e-06 0.000181982 -6.16199e-05)
(-9.4876e-06 0.000108139 -8.87018e-05)
(-8.58339e-06 0.000105899 -0.000115804)
(-1.12814e-05 6.08789e-05 -0.000100824)
(-9.24858e-06 8.03139e-05 -7.54902e-05)
(-8.2073e-06 -3.1107e-05 -2.04934e-05)
(-1.01661e-05 8.91683e-05 8.59469e-05)
(-3.74846e-06 -6.03636e-05 2.76015e-05)
(1.56754e-07 -7.08215e-05 -1.77061e-05)
(1.56668e-06 -2.48362e-05 -9.33133e-05)
(5.72725e-06 -0.000109407 -0.000124406)
(3.13434e-06 2.49492e-06 -0.000166208)
(6.22553e-06 -4.69954e-05 -4.16273e-05)
(6.91913e-06 -9.10108e-05 -0.000110615)
(5.4822e-06 -8.53341e-05 -0.000166251)
(9.32844e-06 3.86366e-05 -0.000135839)
(7.96335e-06 -2.37814e-05 -5.22306e-05)
(7.40145e-06 -5.46809e-05 -4.6059e-05)
(4.43817e-06 -9.39717e-05 -7.05875e-05)
(6.8286e-06 -0.000137505 4.87637e-05)
(6.51987e-06 7.56931e-06 2.17335e-05)
(6.01987e-06 -5.19198e-05 8.05539e-05)
(4.29587e-06 -0.000137392 4.82873e-05)
(4.39007e-06 -0.000132562 -0.000112401)
(9.02778e-06 6.09844e-06 -6.11722e-05)
(7.6927e-06 5.67876e-06 -2.96334e-05)
(5.9071e-06 -3.34635e-05 5.3143e-07)
(2.61237e-06 -5.37965e-05 -6.48153e-05)
(3.90303e-06 -0.000119153 -0.000199317)
(4.56611e-06 -4.48373e-05 -7.69567e-05)
(1.06639e-06 -7.38496e-05 -0.000135134)
(1.96425e-06 -2.19845e-05 -0.000250363)
(1.14277e-06 0.000144538 -0.000297417)
(1.73432e-06 8.30591e-05 -0.000252293)
(-3.30327e-06 0.000133502 -0.00010558)
(-1.48751e-06 9.43157e-05 -0.000143577)
(2.33181e-06 8.52805e-05 -0.000138101)
(-4.76624e-06 4.04673e-06 -0.000215401)
(-6.31794e-06 -2.39833e-05 -0.000168824)
(-6.63332e-06 1.99674e-05 -0.000108415)
(-6.31036e-06 7.64541e-05 -0.00013437)
(-5.37673e-06 0.000118977 -6.68801e-05)
(-8.12982e-06 0.000145245 -3.82166e-05)
(-4.57603e-06 9.79821e-05 7.89352e-05)
(-3.14919e-06 8.85438e-05 0.000112482)
(-8.25611e-06 0.000194045 4.53558e-05)
(-2.87405e-06 0.000268437 0.000184215)
(-6.39673e-06 0.000280034 0.000299811)
(-6.37054e-06 0.000234851 0.000286296)
(-5.17069e-06 0.000191093 0.000210194)
(-7.48805e-06 0.000198684 9.29645e-05)
(-3.09892e-06 0.000263935 0.000206949)
(-3.93164e-06 0.00016968 0.000193165)
(1.35669e-06 0.00030943 0.000207468)
(6.16751e-06 0.00020932 0.000146518)
(7.69992e-06 0.000344834 0.000169845)
(1.11091e-05 0.000250255 0.000197782)
(1.49174e-05 0.000146249 0.000240593)
(1.58427e-05 0.000176064 0.000310453)
(1.79678e-05 0.000108822 0.000272595)
(1.91629e-05 0.000134328 0.000135679)
(1.74596e-05 0.000190352 7.18845e-05)
(1.96533e-05 0.000123948 5.05468e-05)
(2.33206e-05 0.000116508 3.99804e-05)
(2.48183e-05 3.39927e-05 2.15066e-05)
(2.59126e-05 -1.50092e-05 1.93098e-05)
(2.45973e-05 -5.22913e-05 -2.39386e-05)
(2.04041e-05 3.54768e-07 -0.00012541)
(2.13185e-05 -4.83003e-05 -0.000195302)
(2.13784e-05 -9.45452e-05 -0.000230083)
(2.1791e-05 -6.47319e-05 -0.000240867)
(1.96236e-05 -0.000156738 -0.00011664)
(1.51322e-05 -6.49852e-05 -3.12585e-05)
(1.2861e-05 1.21254e-05 3.48372e-06)
(1.31125e-05 0.000134183 -7.82115e-06)
(1.10211e-05 6.34509e-05 2.9167e-05)
(6.7824e-06 6.44217e-05 5.39972e-05)
(7.4804e-06 -6.1295e-06 5.61132e-05)
(8.49064e-06 -6.55306e-05 4.64283e-05)
(1.2821e-05 0.000116531 4.64622e-05)
(9.40946e-06 6.45449e-05 9.32527e-05)
(1.31145e-05 0.000124794 -3.56204e-05)
(1.20762e-05 5.25407e-05 4.37953e-07)
(8.37668e-06 8.28314e-05 -5.34675e-05)
(4.21782e-06 -1.07322e-05 -2.4389e-05)
(3.30599e-06 -6.65623e-05 2.28305e-05)
(3.6814e-06 3.27553e-05 -4.88899e-05)
(-8.91986e-07 5.11645e-05 -0.000167703)
(9.84438e-07 -0.000102574 -0.000173214)
(2.61844e-06 -6.197e-05 -7.53639e-05)
(9.39183e-07 5.32799e-05 -0.000166191)
(5.929e-07 0.000116615 -4.58142e-05)
(-2.97492e-06 0.000158027 9.00382e-05)
(-4.49676e-06 0.000222574 1.16765e-05)
(-5.39849e-06 0.000246908 -0.000100115)
(-6.70603e-06 0.000195967 -9.54862e-05)
(-6.3502e-06 0.000126238 -0.000204487)
(-5.55244e-06 -2.6039e-05 -5.74316e-05)
(-1.23963e-05 7.44922e-05 1.47388e-05)
(-1.28154e-05 -1.44082e-05 -0.000144638)
(-1.64801e-05 -1.34242e-05 -3.98524e-05)
(-1.62016e-05 1.63314e-05 -5.29088e-05)
(-1.61436e-05 2.5064e-05 8.61518e-08)
(-1.41214e-05 -0.000101774 8.05705e-06)
(-1.64786e-05 -4.1956e-06 4.79689e-05)
(-1.40945e-05 -1.4697e-05 2.82507e-05)
(-1.17392e-05 -3.60905e-05 -2.22405e-05)
(-1.83605e-05 6.10387e-06 -0.000102673)
(-1.47722e-05 0.00010105 -0.000138594)
(-8.2437e-06 0.000136957 -8.44347e-05)
(-7.9631e-06 0.000136677 -6.84328e-05)
(-3.04256e-06 0.000157533 -4.57932e-05)
(-2.02999e-06 0.000129722 -5.44787e-05)
(-1.25332e-06 3.14424e-05 -0.00014489)
(-1.85563e-06 -6.08462e-05 -0.000142613)
(-1.8778e-06 -0.000170715 -0.000146173)
(-4.45729e-06 -4.68605e-05 -4.52419e-05)
(-5.136e-06 -7.10618e-05 2.55914e-05)
(-4.69468e-06 8.68735e-05 4.24872e-05)
(-1.68651e-06 -4.22957e-05 9.50203e-06)
(3.76436e-06 -0.000106519 9.5316e-06)
(3.27919e-06 -7.54398e-05 -2.94434e-05)
(5.49901e-06 -8.42078e-05 -3.18962e-05)
(4.13799e-06 5.31994e-05 2.89743e-05)
(6.37738e-06 4.30795e-05 -1.95938e-05)
(8.78486e-06 6.78294e-05 -0.000152006)
(1.46013e-05 0.000107602 -0.000109949)
(1.99323e-05 6.39165e-05 -0.000116491)
(2.40493e-05 3.61779e-05 -0.000245543)
(2.62863e-05 6.33367e-05 -0.000178785)
(2.59732e-05 -1.55306e-05 -9.07968e-05)
(3.07997e-05 1.55111e-05 -1.62575e-05)
(2.65717e-05 2.63516e-05 2.98737e-05)
(2.46543e-05 3.61171e-05 -1.13518e-05)
(2.20769e-05 -0.000144697 6.47845e-05)
(1.6478e-05 -0.00014094 9.14549e-05)
(1.89827e-05 -2.8607e-05 7.5916e-05)
(2.29134e-05 -1.8471e-05 -2.04343e-05)
(2.31711e-05 -1.56196e-06 -7.55307e-05)
(2.76843e-05 -3.36997e-05 -7.2071e-06)
(3.01975e-05 1.00397e-05 2.92109e-05)
(2.80794e-05 0.00015698 0.000163569)
(3.17168e-05 0.000175771 0.000260232)
(3.83595e-05 0.000154544 0.000239246)
(3.2576e-05 0.000111571 0.000226075)
(3.53742e-05 0.000127957 0.00020181)
(3.88299e-05 0.000100477 1.06195e-05)
(4.19794e-05 -3.2389e-06 8.64112e-05)
(4.96183e-05 -1.31795e-05 3.56217e-05)
(5.27035e-05 1.24075e-06 0.000119786)
(5.82082e-05 5.88315e-05 0.000109984)
(5.9835e-05 0.000163052 8.85119e-05)
(6.26359e-05 0.000140892 -8.17547e-06)
(6.3678e-05 0.000119359 -2.49921e-05)
(6.49031e-05 0.000180624 2.45239e-05)
(6.67994e-05 0.000219626 -3.02165e-05)
(6.53075e-05 0.000182763 -6.32475e-05)
(7.14695e-05 0.000134263 -9.98446e-05)
(7.12329e-05 0.000172872 3.87264e-05)
(7.89342e-05 0.000178301 0.000142741)
(7.90143e-05 0.000208517 0.000225248)
(8.57647e-05 0.00013047 0.000126651)
(9.17906e-05 0.000189728 4.65173e-05)
(9.66716e-05 0.000208712 0.000124263)
(0.000100345 0.000252458 0.000200339)
(0.000106768 0.000374542 0.000211632)
(0.000109849 0.000349461 0.000264702)
(0.000108987 0.000126047 0.000194766)
(0.000116405 0.000135655 0.000188507)
(0.000117029 0.000274711 0.000168074)
(0.000125073 0.000163879 7.66187e-05)
(0.000131325 0.000154764 4.93781e-05)
(0.000139703 0.000158283 7.29918e-06)
(0.000146489 3.77188e-05 7.34988e-05)
(0.000148499 7.55023e-05 0.000154933)
(0.000154754 1.12461e-06 0.000198715)
(0.000159206 8.25081e-05 0.000192886)
(0.000162686 8.6453e-05 9.74422e-05)
(0.00016386 4.78762e-05 0.000185695)
(0.00016599 3.02346e-05 0.000174025)
(0.000170053 7.58186e-06 6.30304e-05)
(0.000177244 7.35318e-05 5.3293e-05)
(0.000184112 6.98359e-06 0.000106463)
(0.000191911 -4.88374e-05 0.000216816)
(0.000199988 -2.38266e-05 0.000125769)
(0.000207781 -6.15262e-05 0.000125776)
(0.000217167 4.91707e-05 -4.14675e-07)
(0.00022394 2.55992e-06 -0.000100598)
(0.000229357 -0.000119081 4.47217e-05)
(0.00023712 -8.20457e-06 0.000111031)
(0.000244284 7.28162e-05 2.89773e-05)
(0.000249987 -1.53775e-05 9.42007e-06)
(0.00026067 -0.000159925 9.44138e-05)
(0.000269377 -0.000234699 6.39065e-05)
(0.000280998 -0.000110522 2.96765e-06)
(0.000287944 -0.000183442 9.50286e-05)
(0.000293667 -0.00017503 0.000128006)
(0.000305125 -0.000267236 3.26436e-05)
(0.000307932 -0.000275337 -2.76636e-05)
(0.00031742 -0.000352748 -4.59262e-05)
(0.000327074 -0.000448655 2.88042e-05)
(0.000337781 -0.000456152 1.82107e-05)
(0.000342044 -0.000426342 6.15584e-07)
(0.000356897 -0.000275055 -4.10558e-05)
(0.000362968 -0.000177328 -1.81819e-05)
(0.000376832 -9.26672e-05 -5.51042e-05)
(0.000386143 -0.0001138 -8.91619e-05)
(0.000399032 -5.78507e-05 -0.000115139)
(0.000411289 -6.19135e-05 3.5822e-05)
(0.00041734 -7.46866e-05 3.156e-05)
(0.000424389 7.76858e-06 0.000127153)
(0.000435235 -2.57009e-05 6.20782e-05)
(0.000446731 3.37246e-05 2.11467e-05)
(0.000455769 -6.14851e-05 7.38279e-05)
(0.000463151 -6.10688e-05 0.000115551)
(0.000477012 0.0001016 0.000115608)
(0.000487873 0.000112736 0.000225674)
(0.000496864 0.000167833 0.000270976)
(0.000508896 0.000268547 0.000254318)
(0.000523109 0.000251027 0.000306859)
(0.000527326 0.000154956 0.000327121)
(0.00053925 9.60821e-05 0.000370446)
(0.000546751 6.67159e-05 0.00043181)
(0.000556861 7.62166e-05 0.000471984)
(0.00056522 4.48946e-05 0.000377533)
(0.00057798 0.000120735 0.000352377)
(0.000593647 0.00012821 0.000341027)
(0.000605503 0.000113254 0.000242092)
(0.000618302 0.000159452 0.000318474)
(0.000631383 9.5524e-05 0.000337783)
(0.000646309 9.10667e-05 0.000204411)
(0.00066008 0.000111991 0.000119767)
(0.000673748 0.000229556 0.000182001)
(0.000685739 0.00018908 0.000163507)
(0.000701147 0.000178281 6.85535e-05)
(0.000717279 0.000191893 -2.09907e-07)
(0.000729797 6.98524e-05 2.75694e-05)
(0.000747391 0.000100716 2.43942e-05)
(0.000764777 0.000108341 9.05754e-05)
(0.000784137 -5.78832e-08 6.00615e-05)
(0.000794365 -2.43532e-05 0.000108864)
(0.000811278 -3.27475e-05 0.000114484)
(0.000822297 -2.62393e-05 0.000129954)
(0.000837612 3.76257e-05 6.16932e-05)
(0.000851322 -0.000101619 0.000229023)
(0.000863804 -4.15156e-05 0.000130232)
(0.000878736 2.97936e-05 8.29535e-05)
(0.000888166 0.00011213 0.000136462)
(0.000905831 4.1164e-06 0.000216874)
(0.000917644 -7.05161e-07 0.000193988)
(0.000931907 -1.87253e-06 6.28577e-05)
(0.000943659 -0.000130487 6.87266e-05)
(0.000961368 -4.6783e-05 3.19302e-06)
(0.000973604 -4.86949e-05 -5.17752e-06)
(0.000990432 -0.00012147 6.54217e-05)
(0.00100541 -0.000128795 1.19878e-05)
(0.00102399 -0.000205073 1.33204e-05)
(0.00103805 -0.000260534 -3.91981e-05)
(0.00105836 -0.000262121 -0.000176761)
(0.00107199 -0.000251085 -0.000200672)
(0.00109052 -0.000241481 -0.000206067)
(0.0011087 -0.000179526 -0.000131264)
(0.00112264 -0.000189474 -0.000168304)
(0.00114059 -0.000133634 -0.000221994)
(0.00115679 -9.37585e-05 -0.000214657)
(0.00117935 -0.000143018 -0.000114785)
(0.00119804 -7.36307e-05 -0.000134356)
(0.00121453 -9.80517e-05 -0.000155196)
(0.00123414 -4.92877e-05 -0.000156854)
(0.00125143 5.99669e-05 -0.000108415)
(0.00127029 5.99031e-05 -8.19616e-05)
(0.00129069 6.09034e-05 1.58563e-05)
(0.00130381 0.000152877 8.71177e-05)
(0.00132471 2.91338e-05 -1.60887e-05)
(0.00133923 -5.01283e-06 2.43906e-05)
(0.00135791 3.69604e-05 5.57781e-05)
(0.001375 4.19437e-06 5.54398e-05)
(0.00139004 -5.46261e-05 9.59729e-05)
(0.00141178 3.19196e-05 0.000134486)
(0.00142801 6.5243e-05 5.94676e-05)
(0.00144663 -1.44776e-05 1.32757e-05)
(0.00146557 -6.73151e-05 -1.21289e-05)
(0.00148598 -2.70191e-05 3.60386e-05)
(0.0015068 1.39336e-05 6.09516e-05)
(0.00152968 -0.00011748 0.000192462)
(0.00154856 -0.000130751 0.000174088)
(0.00156556 -8.00315e-05 0.000155845)
(0.00158519 -5.74897e-05 0.000157982)
(0.00160389 -2.3098e-06 8.59329e-06)
(0.00162213 -6.53962e-05 -3.46887e-05)
(0.00164356 -0.00019347 -3.64101e-05)
(0.00166068 -7.57836e-05 1.59861e-05)
(0.00168097 -0.000112784 -7.92599e-05)
(0.00169848 1.24547e-06 -2.96464e-05)
(0.00172211 -2.0313e-05 5.22647e-05)
(0.00173702 -5.01154e-05 7.38444e-05)
(0.00176491 -7.48174e-05 4.24967e-06)
(0.00178144 -5.44743e-05 -4.98009e-05)
(0.00180349 4.83556e-06 -4.67813e-05)
(0.00182467 6.27867e-05 -4.40854e-05)
(0.00184716 9.62393e-05 -1.89505e-05)
(0.00186929 7.46255e-05 -9.1465e-06)
(0.00189048 7.49532e-05 -5.60798e-05)
(0.00191335 1.35915e-05 -6.32321e-05)
(0.00193416 3.05079e-05 -0.000104301)
(0.00195522 1.68762e-05 -0.000136311)
(0.00197753 -0.000109064 4.68489e-05)
(0.00199778 -3.65234e-05 -3.52319e-05)
(0.00202001 -1.1926e-05 1.1221e-05)
(0.0020414 1.57426e-05 -7.86417e-06)
(0.00206331 -4.8149e-05 -3.47239e-05)
(0.00208241 -0.000160051 -2.75465e-05)
(0.00210595 -0.00014674 -2.68152e-06)
(0.002128 -5.91443e-05 4.19655e-06)
(0.00214462 -9.0076e-05 -3.72673e-05)
(0.00216619 -7.11221e-05 -0.000103081)
(0.00218923 -5.23315e-05 -9.15219e-05)
(0.00220891 4.83979e-06 -2.29246e-05)
(0.0022317 -1.89936e-05 -5.84811e-05)
(0.00225374 8.94249e-06 2.4351e-05)
(0.00227406 -5.15944e-05 -8.57262e-06)
(0.00230275 -4.50845e-05 -7.58717e-05)
(0.00232206 -5.61218e-05 4.40605e-05)
(0.00234642 -1.47157e-05 0.000108135)
(0.00236732 1.4041e-05 2.22948e-05)
(0.00239418 -2.34131e-05 6.85371e-05)
(0.00241415 -0.000105233 9.86831e-05)
(0.00243871 -3.41909e-05 0.000130635)
(0.00246325 9.05545e-06 0.000142019)
(0.00248532 3.76614e-05 9.24518e-05)
(0.00250968 -9.09419e-06 4.6777e-05)
(0.00252975 -1.68842e-05 7.04662e-05)
(0.00254782 -7.50056e-05 -5.29124e-05)
(0.00257138 -8.64519e-05 -4.82642e-05)
(0.00259485 -7.77142e-05 -2.47031e-05)
(0.00261616 -5.57981e-05 -3.29937e-05)
(0.00263754 1.57139e-05 -9.78561e-05)
(0.00266225 6.19907e-06 -8.23212e-05)
(0.0026863 -3.15832e-06 -0.000184484)
(0.00270707 -3.20275e-05 -9.38627e-05)
(0.00273633 -3.23765e-05 -3.13728e-05)
(0.00275825 -2.15561e-05 -5.46541e-05)
(0.00278223 -5.59971e-05 -7.2825e-05)
(0.00280804 -5.92006e-05 1.59304e-06)
(0.00283136 -0.000205318 -1.48914e-05)
(0.00285372 -0.000203736 -4.91473e-05)
(0.00287917 -0.000142628 -6.4982e-05)
(0.00290525 -7.18786e-05 -0.000113665)
(0.0029279 -2.69678e-05 -0.000107136)
(0.00294687 6.39323e-05 -8.44353e-05)
(0.00297507 8.49949e-05 -9.07475e-05)
(0.0029973 6.37611e-05 -8.57022e-05)
(0.0030226 8.59215e-06 -6.61923e-05)
(0.00304617 -2.37529e-05 2.59326e-05)
(0.00306972 1.11548e-05 1.08464e-05)
(0.00309553 6.08244e-05 4.52869e-05)
(0.00312136 -3.84975e-05 -2.87151e-05)
(0.00314689 -6.61769e-05 -9.89918e-05)
(0.00317018 -5.18921e-05 -9.82893e-05)
(0.00319482 -4.03927e-05 -7.09996e-05)
(0.00321675 -1.05343e-05 -3.36984e-05)
(0.00324208 6.08719e-05 2.80099e-05)
(0.00326574 2.06209e-05 -4.67284e-06)
(0.00329053 -4.23695e-06 2.55175e-05)
(0.00331753 4.37228e-05 2.49611e-05)
(0.00334348 -2.9193e-06 6.25525e-06)
(0.00336681 2.74083e-05 -1.23869e-05)
(0.00339139 -3.52125e-05 -6.64277e-06)
(0.00342007 7.50414e-06 -1.75841e-05)
(0.00344613 1.92891e-05 -1.91646e-05)
(0.00346792 -1.82664e-05 2.07991e-05)
(0.0034953 -7.31632e-06 4.92076e-05)
(0.00351825 -1.20413e-05 -1.40587e-05)
(0.00354058 -2.62646e-05 -1.9927e-05)
(0.00356519 -7.11356e-05 1.71754e-05)
(0.00359177 -3.18937e-05 9.45563e-08)
(0.00361806 -1.60514e-05 1.50165e-05)
(0.003643 -1.2327e-05 3.36207e-05)
(0.00366691 -4.62687e-05 5.69789e-06)
(0.00369472 -1.09573e-05 2.29676e-05)
(0.00371807 -4.19274e-05 9.40421e-06)
(0.00374079 -4.2648e-05 2.79136e-05)
(0.00376632 1.4516e-05 6.77003e-06)
(0.003789 2.65598e-05 -3.43379e-05)
(0.00381358 1.09159e-05 -4.35808e-05)
(0.00384023 6.49914e-06 2.67879e-05)
(0.00386058 -2.17998e-05 -7.64512e-06)
(0.003866 3.06298e-05 2.60198e-05)
(0.00385518 9.85202e-06 1.57436e-05)
(0.00384739 4.56815e-05 3.41095e-05)
(0.00383262 -8.28175e-06 -2.39944e-05)
(0.00382566 1.25359e-05 2.12931e-05)
(0.00381635 8.68308e-06 5.53138e-05)
(0.00380509 -4.9e-06 6.36855e-05)
(0.0037971 5.84099e-06 8.7083e-06)
(0.00378443 -3.18165e-05 4.78079e-05)
(0.00377218 -1.91873e-05 4.30248e-05)
(0.0037603 1.6508e-05 2.80575e-05)
(0.00375235 2.68293e-05 3.25301e-06)
(0.00373926 3.19137e-05 3.11088e-05)
(0.00372909 -2.55231e-06 4.53702e-05)
(0.00371811 -2.33634e-05 1.05394e-05)
(0.00371082 -3.06249e-05 2.59994e-05)
(0.0036985 2.60527e-05 3.30038e-05)
(0.00368663 4.87885e-05 3.0697e-05)
(0.00367517 7.06429e-05 1.9042e-05)
(0.00366464 1.24959e-05 4.11883e-05)
(0.0036551 -7.07733e-06 5.94575e-05)
(0.00365066 1.28801e-05 3.87171e-05)
(0.00364129 3.6951e-05 -1.54557e-05)
(0.00362719 6.96752e-05 1.02707e-05)
(0.00361337 2.879e-05 1.11364e-05)
(0.00360499 5.42275e-05 3.29064e-05)
(0.00359338 4.19684e-05 4.00936e-05)
(0.00358207 3.85402e-05 2.66155e-05)
(0.00357466 -8.83129e-06 3.21181e-05)
(0.00356358 -6.78038e-05 1.98965e-05)
(0.00355419 -3.54939e-05 2.46732e-05)
(0.00354361 -1.55788e-05 1.66353e-05)
(0.00353439 -2.19152e-05 5.5868e-05)
(0.00352439 -3.19222e-06 4.50059e-05)
(0.00350907 -1.28375e-05 1.46615e-05)
(0.00350367 -3.47713e-06 1.48793e-05)
(0.00349434 -2.58151e-05 3.26309e-05)
(0.00348628 -8.41898e-07 2.58155e-05)
(0.00347336 3.36396e-05 -5.22489e-06)
(0.00346089 -1.65853e-05 4.95041e-05)
(0.0034549 8.81716e-06 2.28833e-06)
(0.00344291 5.54723e-05 8.12582e-05)
(0.00343111 7.35264e-05 7.31282e-05)
(0.00341836 5.19219e-05 5.68143e-05)
(0.00340878 2.01233e-05 6.64106e-05)
(0.00339693 3.71945e-05 3.87694e-05)
(0.00338724 3.29435e-06 2.10139e-05)
(0.0033785 1.15521e-05 3.91424e-06)
(0.0033699 -4.86883e-06 -2.14554e-06)
(0.00335964 1.22107e-05 5.23839e-05)
(0.00334897 1.17069e-05 7.25438e-05)
(0.0033383 1.34057e-05 1.50796e-05)
(0.00332795 7.42257e-06 2.93706e-05)
(0.00331691 -1.22952e-05 -2.17903e-06)
(0.00330876 2.88198e-05 2.52557e-05)
(0.00329533 -2.26493e-05 3.10398e-05)
(0.00328692 -3.13089e-05 4.46538e-05)
(0.00327953 -2.00513e-05 5.08419e-05)
(0.00326756 -3.2836e-06 5.69938e-05)
(0.00325667 -6.12927e-06 5.98499e-05)
(0.00324718 -8.83736e-06 7.39667e-05)
(0.00323855 3.37774e-05 5.927e-06)
(0.00322672 3.88356e-05 -3.96696e-06)
(0.00321714 -1.82896e-06 -1.59872e-05)
(0.00320831 -1.98596e-05 -1.87209e-06)
(0.00319994 -1.41172e-05 -2.55177e-05)
(0.00318925 -1.15402e-05 1.12655e-05)
(0.0031804 1.51783e-05 -8.65256e-06)
(0.00316727 4.47123e-06 1.70542e-05)
(0.0031596 -2.68626e-05 -1.53905e-05)
(0.00314799 1.92772e-05 2.32501e-05)
(0.00313755 -3.45439e-05 1.2444e-05)
(0.00312601 -2.18043e-06 3.04502e-05)
(0.00311396 1.49007e-05 1.80516e-05)
(0.00309988 8.93457e-06 3.75776e-05)
(0.00308839 3.44512e-05 5.18745e-05)
(0.00307849 5.98828e-05 3.84529e-05)
(0.0030702 3.09255e-05 3.01671e-06)
(0.00305911 3.07592e-06 1.79842e-05)
(0.0030476 5.81733e-06 -2.22552e-06)
(0.00303775 -2.93354e-05 -2.82268e-06)
(0.00303014 -4.67751e-05 2.94009e-05)
(0.00302025 -2.10876e-05 3.99362e-05)
(0.00300952 -1.27858e-06 1.48073e-05)
(0.00300326 -3.21983e-05 -1.30153e-05)
(0.00299038 -5.90506e-05 1.27206e-05)
(0.00298395 -4.16211e-05 3.59239e-06)
(0.00297546 -4.06857e-05 -1.9734e-05)
(0.00296893 -6.10349e-05 4.0139e-05)
(0.00295589 -6.5845e-05 7.08448e-06)
(0.00294807 -2.17818e-05 -1.527e-05)
(0.00293548 -6.80876e-05 6.98929e-06)
(0.00292683 -4.94195e-05 -8.09543e-06)
(0.00291574 -4.39036e-05 2.01968e-05)
(0.0029069 -2.59397e-05 4.01391e-05)
(0.00289512 2.60049e-06 2.75883e-05)
(0.00288526 1.19888e-05 6.05872e-07)
(0.00287176 9.79914e-06 -9.81052e-06)
(0.00286314 1.62265e-06 2.91387e-05)
(0.00285031 -1.02381e-06 4.55012e-07)
(0.00283936 -9.29403e-06 -4.01041e-05)
(0.00283184 -2.91768e-06 1.60955e-05)
(0.0028191 -1.0599e-05 1.60012e-06)
(0.00281038 -2.00789e-05 2.50056e-05)
(0.00279842 -2.30839e-05 2.89569e-05)
(0.00279095 -1.63374e-05 1.66675e-05)
(0.00277791 -8.52831e-07 -2.36005e-05)
(0.00276751 6.4667e-06 -9.84025e-06)
(0.00275611 4.32184e-05 -1.38415e-05)
(0.00274783 4.2777e-05 3.11427e-05)
(0.00274003 3.86153e-05 4.01213e-05)
(0.00272874 4.86072e-05 5.86281e-05)
(0.00271787 2.92274e-05 7.6965e-05)
(0.00270958 1.92976e-05 3.86728e-05)
(0.00269858 2.29727e-05 2.75375e-05)
(0.0026896 2.63736e-05 -7.36098e-06)
(0.00267707 5.41446e-06 -7.28185e-06)
(0.00266457 -1.44676e-07 4.18718e-05)
(0.00265632 -1.17179e-05 4.15128e-05)
(0.00264401 1.68292e-06 -9.325e-07)
(0.0026331 4.33983e-05 2.81104e-05)
(0.00262329 1.26215e-05 6.99427e-05)
(0.00261404 2.65855e-06 1.06121e-05)
(0.0026061 1.99937e-05 -3.8953e-06)
(0.00259178 8.21728e-06 -2.1939e-05)
(0.00258305 2.86442e-05 -4.56921e-05)
(0.00257171 3.70503e-05 3.30289e-06)
(0.00255966 3.33199e-06 2.56169e-05)
(0.00255109 -1.24959e-05 -2.95875e-07)
(0.00253972 -2.12384e-05 -2.36139e-05)
(0.00252947 -1.47128e-05 2.89158e-06)
(0.00251885 -1.07081e-05 7.17433e-05)
(0.0025073 -4.32419e-05 8.88433e-05)
(0.00249552 -1.45373e-05 4.89803e-05)
(0.00248496 -1.76977e-05 7.84733e-05)
(0.00247447 -2.9731e-05 8.13032e-05)
(0.00246166 -2.27564e-06 9.86486e-05)
(0.00245113 -1.15087e-05 7.23476e-05)
(0.0024402 1.16353e-05 7.25647e-05)
(0.00242899 -2.99713e-06 7.91677e-05)
(0.00241894 -2.55957e-05 2.85393e-05)
(0.00240913 -2.84322e-05 2.17695e-05)
(0.00239492 -7.90192e-06 5.89289e-05)
(0.0023841 -3.22399e-05 9.17228e-05)
(0.00237162 -1.79676e-05 6.16602e-05)
(0.00235889 2.63554e-05 5.19359e-05)
(0.00234235 1.69988e-05 4.28348e-05)
(0.00233047 2.83413e-05 3.7233e-05)
(0.00232063 4.16665e-05 4.29121e-05)
(0.00231227 6.10165e-06 2.72206e-05)
(0.00230074 1.11903e-05 3.19597e-05)
(0.00228668 -2.00596e-05 2.58146e-05)
(0.0022712 -1.13647e-05 1.85215e-05)
(0.00225648 -3.26217e-05 1.51037e-05)
(0.00224357 -8.02161e-06 2.17808e-05)
(0.00222719 -1.61009e-05 4.20148e-05)
(0.00221459 -2.69267e-05 1.90615e-05)
(0.00220039 -3.19688e-05 3.43417e-05)
(0.00218688 -5.64219e-05 -2.91114e-06)
(0.00216805 -3.07837e-05 2.59341e-05)
(0.00215216 -4.44451e-05 -8.21825e-06)
(0.00213636 9.61093e-06 2.91609e-06)
(0.00212412 -9.98896e-06 -1.65546e-05)
(0.00210733 -2.08292e-05 8.16401e-06)
(0.00209251 -1.02499e-05 -9.00629e-06)
(0.00207853 2.74279e-05 -3.12117e-05)
(0.00206182 5.35946e-05 -3.10282e-05)
(0.00204221 1.03571e-05 -6.58152e-05)
(0.00202003 -1.59453e-05 -6.4393e-05)
(0.00199834 -4.22672e-05 -6.5436e-05)
(0.00197889 -1.89514e-05 -3.60367e-05)
(0.00196037 5.65769e-06 -2.3215e-05)
(0.00193901 -4.12745e-05 -2.64386e-05)
(0.00191962 -4.26216e-05 -2.68937e-05)
(0.00189683 -1.35411e-05 -4.59288e-06)
(0.00187942 -4.45916e-05 1.22103e-05)
(0.00185757 -2.29969e-05 -2.64323e-05)
(0.0018336 -1.14996e-05 2.8547e-05)
(0.00181538 -5.53441e-05 2.49753e-05)
(0.00179303 -1.34664e-05 -2.06276e-05)
(0.00177093 -4.23661e-05 -6.38757e-06)
(0.00174873 -4.70531e-05 -3.93567e-05)
(0.00172881 1.11809e-05 -2.35284e-05)
(0.00170569 3.69484e-05 -1.38961e-05)
(0.00168344 -2.58252e-05 -2.60021e-05)
(0.00166026 -1.82198e-05 -6.83162e-06)
(0.00164395 2.13897e-05 -1.75675e-05)
(0.00162319 1.6085e-05 -3.019e-05)
(0.00160088 4.12613e-05 -2.03697e-05)
(0.00157908 3.93888e-05 8.3477e-06)
(0.00155601 1.57891e-05 -1.12714e-05)
(0.001533 3.27949e-05 -1.06052e-05)
(0.00151209 1.40675e-05 6.03541e-07)
(0.00149225 4.38498e-05 1.81816e-05)
(0.00147138 3.62829e-05 3.01407e-05)
(0.00145341 3.85712e-05 -4.60501e-05)
(0.00143156 1.06675e-05 -6.69078e-05)
(0.00141347 2.68657e-05 -3.89038e-05)
(0.0013936 4.39162e-05 -9.04572e-05)
(0.00137411 2.56393e-05 -7.93501e-05)
(0.00135033 5.64805e-06 -8.4119e-05)
(0.00132991 9.48507e-06 -7.14538e-05)
(0.0013102 3.81222e-05 -9.72717e-05)
(0.0012937 8.20018e-06 -3.15461e-05)
(0.00127048 2.58413e-05 -3.0643e-05)
(0.00124814 8.94424e-06 -3.9876e-05)
(0.00122175 2.66981e-05 -2.97668e-05)
(0.00119789 3.15628e-05 -4.08165e-05)
(0.00117615 4.49838e-05 -5.34603e-05)
(0.00115339 5.6172e-05 -8.14468e-05)
(0.00113266 6.51826e-05 -6.58978e-05)
(0.00111211 3.8485e-05 -3.37818e-05)
(0.00109005 1.74465e-05 -5.14268e-05)
(0.0010699 2.03533e-05 -2.29717e-05)
(0.00104529 1.1147e-05 -3.26047e-05)
(0.00102368 4.35007e-05 -8.07711e-05)
(0.00100129 7.22575e-05 -6.97967e-05)
(0.000980768 9.06923e-05 -7.59505e-05)
(0.000957531 8.87503e-05 -6.9494e-05)
(0.000935739 0.000116628 -4.37619e-05)
(0.000912039 0.000115419 -2.67173e-05)
(0.000890226 8.41123e-05 -6.61834e-05)
(0.00086941 8.78201e-05 -4.13972e-05)
(0.000847685 3.85654e-05 -5.8617e-05)
(0.000826917 2.8522e-05 -7.33388e-05)
(0.000802462 4.81913e-05 -6.27262e-05)
(0.000780309 1.61255e-05 -6.97153e-05)
(0.000761373 4.57121e-06 -8.16309e-05)
(0.000739065 -1.50612e-05 -5.03972e-05)
(0.000718713 -1.60941e-05 -5.32819e-05)
(0.000700125 -9.05363e-06 -5.46374e-05)
(0.000680931 -2.04437e-06 -5.02739e-05)
(0.000658935 -2.98975e-05 -6.07106e-05)
(0.000637733 -6.95155e-05 -3.40956e-05)
(0.000613256 -0.000114287 -6.79839e-05)
(0.000592323 -7.27217e-05 -6.99279e-05)
(0.000566999 -3.37814e-05 -8.26093e-05)
(0.000545585 -3.59239e-05 -6.66903e-05)
(0.000526072 1.12184e-05 -6.62601e-05)
(0.000506432 1.65413e-05 -0.000116452)
(0.000482494 4.73708e-05 -0.000138833)
(0.000460091 3.00322e-05 -0.00016902)
(0.000437007 7.29932e-05 -0.000133055)
(0.000416771 8.03522e-05 -0.000128187)
(0.000398001 2.96484e-05 -0.000173178)
(0.000373986 9.71752e-06 -0.000138923)
(0.000348903 2.4176e-05 -0.000135944)
(0.000324255 3.27738e-05 -8.65706e-05)
(0.000301949 1.14829e-05 -9.92977e-05)
(0.000282354 -8.45285e-06 -5.83762e-05)
(0.000262941 1.54818e-05 -7.58339e-05)
(0.000238842 -7.85922e-06 -8.83498e-05)
(0.000215954 -7.64341e-05 -9.76126e-05)
(0.000194885 -9.58786e-05 -6.78051e-05)
(0.000174303 -5.35105e-05 -5.45964e-05)
(0.000153594 -6.57945e-05 -3.8629e-05)
(0.00013397 2.9017e-05 -4.74578e-06)
(0.00011389 2.53204e-05 -2.63255e-05)
(9.33338e-05 -3.66045e-06 -4.05456e-05)
(7.07771e-05 7.39583e-06 -4.98429e-05)
(5.34057e-05 1.26683e-05 -2.96655e-05)
(3.5302e-05 -2.02538e-05 -5.70935e-05)