/*--------------------------------*- C++ -*----------------------------------*\
  =========                 |
  \\      /  F ield         | OpenFOAM: The Open Source CFD Toolbox
   \\    /   O peration     | Website:  https://openfoam.org
    \\  /    A nd           | Version:  7
     \\/     M anipulation  |
\*---------------------------------------------------------------------------*/
FoamFile
{
    version     2.0;
    format      ascii;
    class       volScalarField;
    location    "0.004";
    object      overallT;
}
// * * * * * * * * * * * * * * * * * * * * * * * * * * * * * * * * * * * * * //

dimensions      [1 2 -2 0 0 0 0];

internalField   nonuniform List<scalar> 
1000
(
202.527
209.348
217.994
222.785
225.19
231.059
234.709
236.054
237.913
239.595
241.489
243.732
244.472
247.002
250.941
251.035
250.742
254.639
257.353
255.823
259.454
263.207
260.623
262.537
264.312
264.515
266.666
268.832
271.578
274.36
271.465
269.374
269.115
270.691
269.918
270.275
271.362
269.907
271.107
271.588
270.381
276.319
277.986
281.183
279.757
281.474
279.624
282.132
284.034
283.067
283.769
286.861
284.843
283.257
284.33
282.115
283.315
283.436
283.002
286.421
285.02
284.781
288.506
285.07
286.812
287.895
285.73
283.709
284.473
284.371
288.375
291.112
291.198
288.344
290.413
291.026
292.278
292.509
291.205
290.791
291.156
292.198
291.472
293.775
293.325
289.586
286.819
284.776
285.286
285.755
290.108
291.9
289.695
295.029
291.877
292.807
289.408
288.78
288.171
292.741
297.802
299.028
299.865
304.581
301.986
303.606
301.789
299.831
296.356
298.25
302.483
298.803
296.364
296.05
294.387
296.839
299.818
301.405
298.673
295.789
294.051
293.082
292.73
292.397
291.963
296.784
298.682
296.39
297.02
300.702
303.357
301.129
301.569
300.148
298.921
297.338
302.236
304.729
300.594
302.62
303.903
299.118
298.364
298.353
297.694
296.527
293.635
296.828
295.44
295.914
298.144
303.218
303.618
303.796
300.424
298.433
299.33
302.233
300.523
295.969
295.443
294.053
294.665
300.086
300.037
302.982
309.579
303.45
307.23
306.773
303.974
304.539
301.216
299.469
299.045
299.715
299.085
297.212
295.014
295.479
298.667
298.612
297.968
296.266
298.431
294.895
296.187
298.031
298.604
297.929
299.605
298.96
297.711
298.616
297.424
297.425
300.099
297.929
299.481
301.265
298.028
296.214
300.433
302.853
299.983
300.449
304.186
301.26
299.407
298.064
298.849
300.708
301.409
299.765
304.338
304.823
302.912
304.673
300.774
303.36
300.017
299.343
296.614
295.723
297.309
296.361
292.502
293.302
292.393
292.852
294.735
298.065
297.566
297.496
294.522
295.781
293.596
294.72
293.41
292.925
290.925
292.804
293.714
293.374
290.025
290.16
289.944
292.087
295.487
298.456
299.254
299.792
299.572
301.05
301.432
299.709
304.72
302.449
299.548
300.006
299.126
301.619
298.475
298.061
295.112
298.274
294.455
293.645
293.245
292.296
287.934
290.157
291.492
299.387
300.112
299.703
301.373
297.81
296.059
295.076
297.452
299.789
297.053
294.438
294.675
294.878
293.029
291.37
295.053
298.297
296.666
297.433
292.72
296.35
297.893
298.986
294.489
295.506
295.491
293.434
293.911
295.884
296.895
298.896
299.506
303.238
305.472
302.448
299.853
302.2
302.557
303.374
305.277
298.79
301.979
305.065
305.512
301.527
303.464
306.777
304.708
307.702
303.228
304.207
303.822
300.536
302.841
300.135
302.94
298.178
297.916
295.355
292.017
295.248
295.647
293.665
294.681
295.874
290.913
295.152
295.655
292.603
292.843
295.995
300.521
297.597
300.494
300.163
303.845
298.599
298.448
300.784
299.914
298.75
295.921
297.242
294.406
296.356
299.08
301.053
303.409
306.184
306.158
304.492
302.804
307.33
303.1
299.098
299.727
298.442
297.902
295.206
295.745
297.563
297.126
294.053
292.261
292.153
291.653
293.655
295.338
294.939
294.665
294.363
294.883
300.111
299.732
294.337
292.205
295.914
294.026
287.85
287.912
293.567
295.584
296.254
293.612
293.111
287.897
286.998
290.005
289.624
291.732
290.744
291.613
293.024
290.416
287.651
293.025
297.131
295.284
296.793
296.088
297.557
295.796
296.056
295.755
295.01
296.147
292.097
289.629
293.574
294.439
294.326
296.45
292.17
291.825
296.354
294.299
292.927
295.095
293.624
294.388
291.475
289.769
287.495
292.724
292.749
289.502
293.769
291.107
287.02
287.08
284.661
285.695
284.466
283.051
282.414
284.869
283.848
284.326
282.022
280.794
279.881
282.416
282.097
283.463
280.626
274.522
276.515
278.671
280.018
280.191
277.247
279.413
276.852
277.947
277.099
269.748
274.982
272.53
274.069
273.642
272.731
271.742
273.717
274.434
274.084
270.829
271.242
268.787
268.498
266.117
266.15
266.692
267.272
266.006
262.703
261.258
259.26
258.569
258.954
259.364
258.915
258.563
257.785
259.084
258.558
255.191
256.294
254.699
253.069
257.263
256.1
255.888
255.285
257.402
259.263
259.909
259.675
263.315
262.49
266.291
265.853
270.708
270.995
272.301
274.558
273.746
275.995
276.102
279.034
278.828
280.552
280.848
282.56
281.677
283.501
282.384
283.507
287.779
289.571
294.719
293.947
292.989
292.297
295.908
298.526
299.306
301.345
305.801
307.349
309.504
312.329
311.412
311.044
311.769
313.539
312.411
315.37
315.254
316.876
322.833
325.761
324.151
326.551
328.669
327.463
328.579
329.167
327.624
329.759
333.723
330.241
328.996
335.227
329.693
330.026
333.832
338.418
336.677
342.172
340.958
343.196
346.886
344.758
348.288
344.293
347.759
351.29
346.492
346.411
344.472
343.909
346.844
347.332
345.813
340.366
341.993
343.414
343.703
335.634
336.466
339.644
343.177
341.531
339.271
340.069
343.885
344.436
339.099
338.466
335.446
334.037
335.136
336.565
335.192
339.019
335.695
336.59
333.637
332.652
329.396
328.777
329.132
329.724
335.869
333.79
332.879
328.316
324.367
320.857
322.171
330.293
320.781
323.439
325.348
329.24
329.745
328.73
329.651
330.1
333.125
332.627
333.508
331.81
326.771
327.773
331.888
328.354
329.411
323.829
316.252
316.068
315.183
317.149
313.912
318.907
314.281
313.375
315.87
315.447
317.053
314.567
312.35
312.254
314.956
314.834
315.991
320.492
320.324
315.322
314.113
308.757
306.811
307.376
308.605
310.648
310.183
310.881
310.997
311.449
307.008
307.598
302.589
298.006
302.307
301.684
307.361
310.221
305.547
304.45
300.444
295.249
292.199
295.702
295.1
292.514
291.155
293.377
296.156
295.297
301.6
299.393
294.068
299.394
300.199
297.206
291.078
294.105
291.397
294.695
297.218
300.145
303.807
303.908
302.627
303.51
302.217
295.871
295.583
303.386
310.024
306.691
310.897
307.348
306.251
303.276
301.584
304.591
306.543
305.602
302.728
306.624
310.828
306.121
299.94
299.677
294.059
296.222
291.996
292.022
294.316
297.686
291.745
287.517
286.34
294.258
297.461
293.935
296.028
293.369
286.857
295.31
296.74
297.21
295.964
303.158
304.327
304.994
304.886
306.626
303.955
299.079
303.475
306.722
302.599
305.366
298.965
302.745
300.155
296.313
289.985
285.611
290.255
295.277
302.137
303.221
301.743
301.577
305.7
307.893
309.218
311.833
310.393
311.655
313.825
311.811
308.764
308.351
302.099
298.695
299.885
300.509
297.577
295.316
297.778
301.097
299.515
295.159
287.166
290.31
292.85
297.15
303.962
303.466
302.882
304.724
299.85
299.629
299.865
298.6
299.553
304.16
305.921
303.386
306.251
304.561
306.524
305.251
305.312
304.016
301.953
310.079
308.205
306.079
307.303
306.961
303.118
297.846
298.627
290.928
287.418
292.36
288.992
284.476
290.762
290.233
290.762
289.846
292.007
282.535
287.22
297.036
299.029
292.781
292.213
294.731
289.662
289.373
285.067
292.95
298.593
294.768
299.917
299.143
297.501
301.05
302.764
298.306
300.921
306.861
293.637
300.055
299.866
298.168
299.671
299.338
301.737
294.617
297.508
295.109
298.514
301.736
299.805
302.303
300.724
299.335
301.903
299.767
300.039
295.512
297.654
297.597
299.078
289.585
291.029
292.37
289.384
288.119
283.115
287.416
282.835
289.129
289.712
292.323
293.707
296.288
297.534
297.755
297.147
298.223
295.266
287.059
291.512
286.86
286.195
278.75
281.41
287.692
285.891
281.594
281.835
282.643
283.635
278.696
277.361
277.851
287.806
288.445
280.699
283.102
285.682
282.546
280.289
284.23
277.999
282.04
281.946
282.501
279.697
280.963
282.749
287.284
283.251
288.193
287.907
290.551
296.536
298.397
291.236
292.376
282.797
286.278
290.962
291.009
287.155
286.352
279.16
279.744
280.712
283.546
285.51
284.219
282.826
276.467
273.822
267.493
265.541
267.315
270.718
268.6
271.764
268.223
268.368
274.195
278.257
274.708
278.694
280.613
278.848
279.108
277.12
276.472
280.553
273.845
269.683
273.527
268.596
271.194
268.037
266.411
265.005
271.802
278.028
274.441
273.388
265.726
262.733
259.53
258.547
257.153
253.465
261.47
256.809
253.93
257.387
254.937
251.215
245.314
242.421
235.824
240.728
239.058
235.737
230.971
232.17
220.758
215.88
209.81
)
;

boundaryField
{
    sides
    {
        type            calculated;
        value           nonuniform List<scalar> 2(209.81 202.527);
    }
    empty
    {
        type            empty;
    }
}


// ************************************************************************* //
