/*--------------------------------*- C++ -*----------------------------------*\
  =========                 |
  \\      /  F ield         | OpenFOAM: The Open Source CFD Toolbox
   \\    /   O peration     | Website:  https://openfoam.org
    \\  /    A nd           | Version:  7
     \\/     M anipulation  |
\*---------------------------------------------------------------------------*/
FoamFile
{
    version     2.0;
    format      ascii;
    class       volScalarField;
    location    "0.004";
    object      overallT;
}
// * * * * * * * * * * * * * * * * * * * * * * * * * * * * * * * * * * * * * //

dimensions      [1 2 -2 0 0 0 0];

internalField   nonuniform List<scalar> 
500
(
240.664
254.465
263.965
271.975
279.548
284.285
290.66
293.743
297.1
298.85
299.157
305.293
310.446
310.398
310.054
313.26
314.582
313.655
316.415
319.196
320.015
319.873
321.633
321.596
325.262
326.752
331.262
327.766
329.119
332.643
334.698
331.543
333.099
335.66
333.938
334.69
333.235
331.39
332.097
335.904
335.041
335.84
339.562
338.611
338.824
338.118
339.223
340.106
340.708
342.525
340.965
340.165
336.306
338.798
338.398
342.778
342.37
339.812
341.585
337.926
338.855
338.466
343.243
348.99
351.504
345.541
342.537
342.306
348.055
350.645
349.571
351.189
348.59
352.247
352.807
348.257
344.802
347.726
347.038
346.559
347.254
349.06
350.189
350.076
346.223
343.545
342.486
346.637
346.63
349.907
347.487
346.969
342.798
345.015
348.329
348.078
348.953
345.032
346.668
347.794
345.149
345.885
345.512
346.159
345.154
345.42
345.216
346.193
345.358
342.16
342.908
343.821
346.441
346.537
347.563
346.15
343.934
346.036
348.579
344.346
345.485
347.252
349.712
349.914
347.774
346.904
343.017
341.333
347.948
350.896
355.578
351.258
352.717
353.93
346.485
343.297
344.229
346.328
344.789
350.409
355.603
353.766
354.598
354.719
348.64
347.833
350.47
350.536
348.24
346.104
346.37
349.478
350.501
352.602
352.167
349.409
345.097
348.243
347.241
348.543
349.503
347.506
348.566
350.155
353.442
348.525
350.942
349.614
349.702
349.917
346.731
348.189
348.184
346.382
347.462
347.014
348.093
348.755
349.566
345.967
344.407
348.147
349.289
351.308
349.687
351.024
345.248
342.89
344.494
344.269
344.265
345.564
346.315
349.164
353.319
350.869
350.576
353.199
353.651
351.729
350.888
350.626
353.385
352.055
349.439
348.463
345.556
346.602
346.235
346.517
346.174
345.241
345.62
348.541
352.044
353.045
352.355
345.67
348.781
350.338
349.097
349.049
343.556
343.034
344.548
348.193
345.159
349.316
350.487
347.732
347.302
348.901
351.628
348.943
350.349
349.064
347.529
344.505
346.953
350.933
350.889
351.15
348.803
350.147
350.093
351.105
351.099
352.037
352.234
353.258
357.762
357.277
349.868
349.393
344.839
343.463
343.422
344.559
343.56
341.161
342.498
344.794
344.536
344.974
346.212
348.046
350.013
350.136
346.529
348.087
348.415
345.789
346.917
346.205
346.397
346.52
350.436
353.795
353.206
350.502
347.552
344.707
342.108
340.807
344.531
346.859
348.998
347.471
346.166
344.008
346.433
345.319
345.371
344.491
349.412
350.632
348.48
345.635
345.246
345.178
347.597
349.31
348.763
345.116
345
344.917
345.495
347.433
347.798
347.481
345.988
346.803
346.13
350.65
351.501
347.639
345.768
343.632
343.47
345.547
348.41
348.146
347.316
344.588
344.377
347.678
347.912
349.987
352.25
345.607
344.469
343.697
342.165
345.154
347.401
350.443
349.89
348.585
348.995
351.606
351.336
346.967
343.826
346.783
345.998
342.095
341.818
340.295
344.332
345.37
342.761
347.374
349.647
345.925
346.64
346.593
347.505
350.968
347.72
349.478
349.667
348.599
348.56
347.877
344.729
347.515
343.408
340.522
345.513
345.237
348.874
346.852
347.096
350.013
349.301
348.964
348.065
350.495
350.969
350.312
349.908
345.432
343.304
341.537
340.587
340.341
341.77
340.766
346.59
345.128
345.235
345.748
349.613
349
345.913
346.08
347.943
347.654
349.141
351.606
351.855
351.74
353.883
352.179
348.805
345.742
344.688
346.32
345.992
347.204
350.007
348.128
349.116
349.136
348.443
348.422
349.984
352.286
355.282
351.479
349.85
351.963
355.645
352.403
351.208
351.197
351.209
347.043
341.889
342.289
342.796
343.06
345.795
344.81
345.069
344.461
346.03
348.038
347.782
348.193
347.481
348.202
346.707
345.341
345.896
345.917
346.354
346.597
345.893
345.333
340.162
342.92
340.595
340.809
340.296
337.602
331.855
334.614
334.571
335.136
336.854
335.569
335.59
332.837
329.7
329.909
330.232
333.302
333.591
330.306
329.404
327.685
324.694
324.2
328.56
325.753
324.277
325.84
324.133
321.882
321.475
318.106
315.806
316.879
314.025
313.32
311.042
306.802
306.045
303.813
301.77
296.614
293.36
289.65
287.819
280.914
275.402
268.219
258.441
243.81
)
;

boundaryField
{
    sides
    {
        type            calculated;
        value           nonuniform List<scalar> 2(243.81 240.664);
    }
    empty
    {
        type            empty;
    }
}


// ************************************************************************* //
