/*--------------------------------*- C++ -*----------------------------------*\
  =========                 |
  \\      /  F ield         | OpenFOAM: The Open Source CFD Toolbox
   \\    /   O peration     | Website:  https://openfoam.org
    \\  /    A nd           | Version:  7
     \\/     M anipulation  |
\*---------------------------------------------------------------------------*/
FoamFile
{
    version     2.0;
    format      ascii;
    class       volScalarField;
    location    "0.004";
    object      p;
}
// * * * * * * * * * * * * * * * * * * * * * * * * * * * * * * * * * * * * * //

dimensions      [1 -1 -2 0 0 0 0];

internalField   nonuniform List<scalar> 
1000
(
0.0815677
0.0910494
0.103425
0.154168
0.133991
0.137047
0.126197
0.131833
0.13342
0.117733
0.13504
0.133741
0.133925
0.121857
0.139379
0.133341
0.144303
0.146639
0.131428
0.163522
0.154002
0.15248
0.146537
0.150611
0.147264
0.148844
0.185985
0.201258
0.203501
0.187296
0.20064
0.192585
0.210551
0.203895
0.208729
0.212373
0.210987
0.202247
0.194516
0.203828
0.17429
0.199654
0.199674
0.200886
0.194273
0.202383
0.22527
0.223009
0.196625
0.211204
0.203919
0.202518
0.217211
0.198677
0.197184
0.203987
0.201221
0.219326
0.215549
0.22767
0.23509
0.254698
0.236517
0.24505
0.224483
0.227827
0.223221
0.269036
0.223255
0.215643
0.249476
0.252192
0.259365
0.273591
0.288203
0.272253
0.270286
0.243878
0.26712
0.293549
0.270103
0.244771
0.259467
0.225035
0.238448
0.235618
0.229557
0.250544
0.268889
0.238109
0.262987
0.256361
0.263048
0.235853
0.265511
0.238184
0.225616
0.271518
0.288946
0.261396
0.297143
0.281343
0.274299
0.284947
0.234978
0.230501
0.24848
0.291202
0.257303
0.242874
0.258513
0.267587
0.253726
0.262945
0.276747
0.282963
0.283625
0.272827
0.285155
0.280386
0.287116
0.278769
0.284935
0.292699
0.286223
0.294838
0.297561
0.245586
0.265548
0.290352
0.288406
0.273404
0.26602
0.273704
0.277445
0.311327
0.303472
0.309984
0.290145
0.264361
0.270248
0.297069
0.268874
0.259412
0.244042
0.243082
0.247794
0.257236
0.277463
0.263975
0.258986
0.285544
0.317207
0.266355
0.281112
0.301192
0.263614
0.25881
0.248871
0.292265
0.237434
0.243525
0.260179
0.273728
0.255933
0.253841
0.279712
0.267927
0.276172
0.292649
0.28979
0.293499
0.330567
0.324246
0.322739
0.299151
0.321217
0.306727
0.303698
0.30894
0.286143
0.258859
0.274449
0.282567
0.290698
0.286284
0.323078
0.30549
0.29212
0.311476
0.323637
0.338609
0.33813
0.307824
0.298149
0.28728
0.302073
0.283498
0.301824
0.323117
0.310155
0.290392
0.319739
0.29669
0.314646
0.313107
0.31415
0.273332
0.283654
0.296972
0.305378
0.34929
0.337712
0.314611
0.278779
0.294142
0.298761
0.327539
0.355759
0.329374
0.3115
0.292961
0.308266
0.263114
0.278125
0.309175
0.321046
0.317105
0.33453
0.327969
0.31039
0.313609
0.313095
0.331609
0.332388
0.336244
0.349111
0.310001
0.318674
0.314326
0.287783
0.320876
0.30751
0.293587
0.297699
0.308696
0.330731
0.34335
0.292013
0.314367
0.322279
0.312863
0.302579
0.295785
0.303049
0.298834
0.3055
0.352448
0.309521
0.294431
0.335421
0.33645
0.304636
0.325471
0.348816
0.342711
0.324619
0.358637
0.318443
0.312573
0.334727
0.345235
0.323803
0.336532
0.353888
0.335375
0.379805
0.391599
0.330094
0.337766
0.338539
0.327095
0.327489
0.307507
0.325206
0.308773
0.31674
0.317898
0.320207
0.309748
0.317046
0.294286
0.305147
0.28734
0.329462
0.300571
0.312846
0.311113
0.317052
0.322556
0.330722
0.336012
0.331721
0.327096
0.321086
0.349072
0.324102
0.33942
0.304127
0.374142
0.371611
0.339489
0.318159
0.323199
0.34732
0.311771
0.328042
0.365345
0.411079
0.390503
0.346097
0.340141
0.321835
0.346481
0.342743
0.357806
0.325478
0.322359
0.344378
0.331956
0.35845
0.334965
0.301178
0.311325
0.329769
0.289989
0.31008
0.333496
0.340946
0.319997
0.313629
0.325206
0.32794
0.291484
0.312696
0.291409
0.303478
0.308719
0.342186
0.346222
0.316966
0.339354
0.309581
0.310969
0.309324
0.284892
0.28439
0.315511
0.307486
0.294487
0.292468
0.324874
0.323242
0.312764
0.306843
0.337947
0.292747
0.277964
0.304187
0.310389
0.310216
0.318517
0.376986
0.389565
0.362775
0.318035
0.315773
0.340189
0.328446
0.316557
0.315384
0.331425
0.309348
0.313349
0.270858
0.288305
0.294869
0.303899
0.31295
0.303646
0.34716
0.318181
0.340142
0.323441
0.297724
0.299322
0.304344
0.331831
0.319108
0.320658
0.299804
0.293145
0.303428
0.324417
0.310092
0.301405
0.296182
0.30539
0.303252
0.309081
0.294217
0.317287
0.328964
0.316497
0.282092
0.312437
0.305394
0.319156
0.313934
0.328373
0.336774
0.322454
0.298845
0.253804
0.246492
0.290489
0.299841
0.309993
0.330357
0.331029
0.314466
0.308016
0.349574
0.354271
0.358765
0.325682
0.289546
0.301427
0.317045
0.30013
0.302167
0.298633
0.285175
0.27106
0.277508
0.281042
0.298536
0.277682
0.310895
0.308826
0.308126
0.297454
0.309844
0.308104
0.295228
0.286406
0.296926
0.276948
0.282028
0.274328
0.287232
0.275866
0.319552
0.318283
0.334778
0.306077
0.243117
0.273195
0.317708
0.294883
0.294531
0.288833
0.298713
0.327981
0.313084
0.311575
0.305172
0.30998
0.309418
0.330523
0.318237
0.328802
0.337455
0.316992
0.326907
0.337428
0.283979
0.308107
0.328098
0.335521
0.300419
0.313599
0.334012
0.309633
0.289993
0.307338
0.330302
0.33401
0.303027
0.298902
0.294253
0.349374
0.330814
0.302743
0.312107
0.331592
0.331633
0.302425
0.309911
0.311137
0.320199
0.316085
0.307205
0.311357
0.342715
0.325971
0.319075
0.315624
0.303968
0.299775
0.30528
0.310425
0.321967
0.344154
0.320996
0.323655
0.312254
0.290464
0.29549
0.32811
0.295467
0.301301
0.305178
0.303438
0.329621
0.33393
0.327212
0.281886
0.299879
0.30647
0.314808
0.312807
0.322059
0.342696
0.355406
0.319086
0.340372
0.329198
0.316891
0.339474
0.296036
0.325752
0.309421
0.298638
0.313425
0.290848
0.334056
0.332324
0.308239
0.294564
0.298732
0.319268
0.308876
0.294537
0.274141
0.283122
0.300155
0.298018
0.32492
0.308925
0.293731
0.30958
0.336299
0.305233
0.284428
0.314097
0.288404
0.320368
0.3296
0.326379
0.298207
0.305873
0.3124
0.307128
0.316212
0.309787
0.325102
0.290196
0.320085
0.324479
0.312265
0.309612
0.355974
0.339862
0.337434
0.347122
0.377606
0.351095
0.342913
0.293335
0.310469
0.302486
0.305702
0.307772
0.29662
0.299023
0.312972
0.322471
0.319535
0.339838
0.341545
0.299173
0.31202
0.325579
0.309175
0.313999
0.316157
0.309285
0.325288
0.320812
0.302041
0.30897
0.304917
0.308434
0.3444
0.327597
0.344707
0.320939
0.318713
0.310254
0.29666
0.343881
0.326253
0.298105
0.314997
0.332816
0.307437
0.326673
0.334214
0.335654
0.364864
0.334521
0.318221
0.340879
0.305045
0.318893
0.344495
0.321272
0.279495
0.32962
0.307498
0.319401
0.316737
0.303613
0.279825
0.301769
0.359041
0.31715
0.313775
0.321343
0.33648
0.322065
0.319623
0.30476
0.33548
0.342622
0.353482
0.346516
0.347645
0.335445
0.345667
0.35471
0.355384
0.322835
0.344661
0.338153
0.338952
0.325149
0.309146
0.32051
0.317504
0.333546
0.313246
0.300152
0.303702
0.34326
0.332726
0.36693
0.351058
0.338943
0.331065
0.352324
0.343312
0.333492
0.307898
0.337479
0.38787
0.352198
0.328202
0.346933
0.375312
0.360666
0.336825
0.30056
0.331182
0.305592
0.338683
0.36877
0.342622
0.304431
0.356557
0.321545
0.342701
0.346829
0.342105
0.335446
0.334964
0.330427
0.355265
0.333138
0.348522
0.375306
0.34143
0.377194
0.368577
0.373292
0.381236
0.332798
0.346107
0.332896
0.325398
0.321767
0.360402
0.299208
0.364425
0.352552
0.355862
0.405084
0.363415
0.365587
0.339788
0.329877
0.332173
0.337419
0.317195
0.345535
0.330853
0.344913
0.321261
0.332896
0.352279
0.387218
0.3455
0.338818
0.338707
0.376967
0.393579
0.392069
0.346901
0.336755
0.330702
0.364858
0.355669
0.362569
0.348077
0.372574
0.30941
0.331491
0.334808
0.317894
0.348032
0.28822
0.331078
0.304908
0.290584
0.301052
0.291495
0.271812
0.280501
0.288115
0.329217
0.32803
0.328942
0.353381
0.337342
0.317593
0.346244
0.358832
0.336751
0.327974
0.30915
0.309468
0.33043
0.3474
0.29709
0.331038
0.311107
0.268397
0.302505
0.341661
0.323006
0.326783
0.297205
0.279706
0.292274
0.294753
0.310099
0.290901
0.298779
0.292813
0.307418
0.313668
0.302567
0.328291
0.346445
0.337041
0.34561
0.349741
0.33847
0.349826
0.374957
0.361714
0.297032
0.350865
0.337107
0.339092
0.316788
0.347592
0.347749
0.325804
0.318226
0.322886
0.302263
0.328589
0.329857
0.330916
0.343107
0.349829
0.338766
0.318114
0.347242
0.299211
0.297377
0.270193
0.271461
0.31013
0.277619
0.29121
0.316348
0.319926
0.312993
0.320559
0.314887
0.335249
0.33288
0.360297
0.310875
0.314018
0.310954
0.297638
0.311038
0.32877
0.346048
0.299616
0.301771
0.314285
0.336704
0.335851
0.332042
0.329086
0.32792
0.336893
0.310164
0.307238
0.31189
0.328762
0.292634
0.314749
0.341401
0.33476
0.313165
0.322643
0.299657
0.303672
0.312296
0.316083
0.338711
0.331088
0.332221
0.33905
0.310677
0.281072
0.308969
0.323681
0.307095
0.318002
0.323022
0.301746
0.309449
0.289141
0.300127
0.283173
0.284238
0.302844
0.342119
0.298434
0.30574
0.293551
0.321673
0.277915
0.307025
0.2914
0.267562
0.267749
0.284781
0.284008
0.277216
0.300674
0.297214
0.294421
0.31522
0.303609
0.288601
0.29956
0.279621
0.258781
0.251354
0.256454
0.242022
0.245897
0.227332
0.244645
0.203832
0.218662
0.228111
0.235118
0.249068
0.263767
0.257681
0.240766
0.228936
0.222129
0.23062
0.231127
0.217635
0.237409
0.252173
0.241635
0.25146
0.26067
0.246274
0.238461
0.237518
0.257856
0.252074
0.204919
0.231095
0.238892
0.220521
0.170016
0.158257
0.177075
0.173455
0.170068
0.166101
0.170757
0.176334
0.186818
0.175273
0.179711
0.156754
0.150823
0.161072
0.173313
0.182657
0.156979
0.152446
0.14202
0.143915
0.141626
0.130802
0.134979
0.136717
0.132304
0.135474
0.120452
0.150608
0.158221
0.118082
0.101887
0.109099
0.114315
0.0877223
0.0980764
0.0986386
0.0916452
0.083914
0.0899953
0.0759114
0.0751019
)
;

boundaryField
{
    sides
    {
        type            calculated;
        value           nonuniform List<scalar> 2(0.0751019 0.0815677);
    }
    empty
    {
        type            empty;
    }
}


// ************************************************************************* //
