/*--------------------------------*- C++ -*----------------------------------*\
  =========                 |
  \\      /  F ield         | OpenFOAM: The Open Source CFD Toolbox
   \\    /   O peration     | Website:  https://openfoam.org
    \\  /    A nd           | Version:  7
     \\/     M anipulation  |
\*---------------------------------------------------------------------------*/
FoamFile
{
    version     2.0;
    format      ascii;
    class       volScalarField;
    location    "0.004";
    object      p;
}
// * * * * * * * * * * * * * * * * * * * * * * * * * * * * * * * * * * * * * //

dimensions      [1 -1 -2 0 0 0 0];

internalField   nonuniform List<scalar> 
1000
(
5.22816
5.21615
5.2024
5.19512
5.21395
5.21182
5.20763
5.1975
5.18514
5.21561
5.16543
5.21042
5.20937
5.18872
5.22124
5.23603
5.20933
5.19306
5.22232
5.23589
5.22816
5.25223
5.22308
5.19426
5.21679
5.22636
5.2311
5.20191
5.20398
5.18683
5.21292
5.24314
5.18838
5.22028
5.23394
5.23363
5.21227
5.2058
5.22495
5.20233
5.19054
5.22203
5.19863
5.22368
5.19618
5.21121
5.20408
5.22342
5.2414
5.23172
5.19974
5.20763
5.22384
5.2054
5.23797
5.21385
5.21083
5.22325
5.24396
5.23165
5.22488
5.20245
5.1967
5.20819
5.22351
5.21244
5.21858
5.20328
5.21913
5.23359
5.22364
5.23466
5.24414
5.21274
5.22349
5.19633
5.22977
5.19721
5.19741
5.2583
5.23475
5.25095
5.23202
5.22761
5.23221
5.22951
5.21924
5.23699
5.23482
5.20921
5.23085
5.23574
5.22544
5.21123
5.25623
5.25613
5.2502
5.24996
5.2701
5.25369
5.227
5.22072
5.23345
5.24253
5.23272
5.21065
5.22713
5.21211
5.24965
5.23219
5.24776
5.23235
5.22394
5.26701
5.27511
5.22888
5.26035
5.23421
5.25735
5.26554
5.23879
5.22027
5.21085
5.24219
5.22032
5.25739
5.24677
5.26928
5.25167
5.27945
5.25565
5.24866
5.24603
5.24537
5.26509
5.25564
5.26027
5.26813
5.26326
5.22332
5.25026
5.26272
5.24622
5.22929
5.25125
5.24973
5.28067
5.31428
5.26419
5.27257
5.29471
5.27191
5.24219
5.26594
5.23918
5.27359
5.27831
5.25612
5.2336
5.22966
5.2439
5.274
5.2573
5.23235
5.24348
5.23628
5.28087
5.25241
5.27729
5.2954
5.24289
5.25186
5.27155
5.2594
5.25786
5.25389
5.2478
5.26858
5.27584
5.28431
5.26459
5.27988
5.23849
5.24045
5.25715
5.28183
5.27612
5.25662
5.25065
5.27275
5.27218
5.26996
5.28429
5.29196
5.25491
5.28674
5.29142
5.26227
5.32196
5.31874
5.25753
5.30597
5.31173
5.27231
5.28736
5.25851
5.26767
5.28239
5.27425
5.29176
5.28349
5.27355
5.29652
5.28998
5.27862
5.28089
5.2791
5.26855
5.26328
5.27157
5.27355
5.27898
5.25244
5.23569
5.25628
5.24527
5.27712
5.30508
5.28266
5.28357
5.28462
5.25308
5.27699
5.27235
5.25374
5.30503
5.25541
5.26423
5.22896
5.26734
5.27088
5.25555
5.26062
5.26917
5.22707
5.28014
5.24386
5.25529
5.26105
5.25909
5.26635
5.25942
5.27617
5.25164
5.27098
5.25999
5.27781
5.26666
5.24223
5.25974
5.26348
5.22742
5.27016
5.28792
5.23352
5.21644
5.22507
5.24439
5.2729
5.23584
5.22295
5.25181
5.2046
5.22656
5.26674
5.20408
5.23137
5.24609
5.23621
5.22018
5.19771
5.1964
5.16636
5.17791
5.18472
5.18644
5.17679
5.15314
5.14839
5.18775
5.19635
5.20004
5.18724
5.16892
5.17411
5.16332
5.13881
5.10039
5.13689
5.11806
5.15374
5.14428
5.11569
5.10888
5.08873
5.11389
5.11524
5.07849
5.07536
5.09093
5.04404
5.10358
5.06886
5.03359
5.04093
5.01434
5.01019
5.03929
5.01523
5.0623
4.98
5.03009
4.99294
4.99029
4.98532
5.01633
5.00146
4.96242
4.94183
4.96139
4.95872
4.90285
4.9056
4.93557
4.90178
4.90132
4.88294
4.86703
4.87033
4.88982
4.8595
4.8693
4.84332
4.83635
4.84683
4.8502
4.81785
4.80352
4.8385
4.80796
4.80593
4.78392
4.80315
4.79268
4.72469
4.70146
4.69893
4.71512
4.70715
4.69282
4.69715
4.64915
4.66063
4.61073
4.63126
4.64667
4.61339
4.60378
4.58501
4.57351
4.55919
4.5625
4.54962
4.55827
4.53267
4.50475
4.51061
4.52264
4.52632
4.48939
4.43303
4.42678
4.42165
4.4201
4.38029
4.41517
4.36528
4.35254
4.36837
4.37494
4.32346
4.31268
4.30053
4.27616
4.25475
4.25779
4.23192
4.24957
4.22291
4.22345
4.22029
4.17701
4.1276
4.12087
4.14959
4.13744
4.11235
4.07385
4.10149
4.04232
4.04879
4.00976
3.97569
4.00074
3.95114
3.95296
3.94521
3.9292
3.91024
3.90598
3.88313
3.8749
3.82519
3.83562
3.80816
3.81385
3.78687
3.74954
3.7396
3.72449
3.70111
3.67916
3.66953
3.6403
3.63292
3.60051
3.58009
3.58027
3.53128
3.52467
3.50521
3.48865
3.46207
3.43225
3.46171
3.41971
3.3883
3.38421
3.34384
3.32299
3.31429
3.2907
3.26948
3.26046
3.25436
3.19992
3.16372
3.20125
3.1392
3.10773
3.08312
3.06792
3.02314
2.9875
2.97848
2.9559
2.9345
2.92008
2.88399
2.87003
2.82086
2.80316
2.76226
2.76292
2.71619
2.69856
2.65953
2.64943
2.62969
2.61662
2.5812
2.56173
2.53276
2.48468
2.48675
2.46718
2.42845
2.38922
2.37744
2.36319
2.30531
2.2669
2.25115
2.23088
2.20317
2.19077
2.13335
2.11342
2.05854
2.02177
2.00169
1.99704
1.98702
1.96649
1.96381
1.97871
1.94948
1.99147
1.96358
1.95429
1.9422
1.95655
1.93364
1.94402
1.9383
1.92381
1.92165
1.94082
1.91907
1.9012
1.8841
1.88913
1.89913
1.89539
1.88002
1.89803
1.90294
1.85931
1.87931
1.89251
1.87611
1.89408
1.89443
1.86502
1.85274
1.84283
1.83872
1.85012
1.85286
1.82843
1.82221
1.80595
1.80005
1.80097
1.80995
1.8068
1.82211
1.82385
1.80679
1.78204
1.79292
1.77946
1.76854
1.7799
1.78278
1.76087
1.75713
1.74664
1.72699
1.72085
1.73474
1.72963
1.72066
1.72133
1.72847
1.69996
1.69613
1.69544
1.67782
1.70388
1.70303
1.71018
1.70036
1.6827
1.67616
1.66863
1.65483
1.65333
1.64153
1.62085
1.62905
1.63368
1.6218
1.61684
1.63052
1.63517
1.62865
1.61787
1.60657
1.60713
1.60935
1.61928
1.59902
1.58926
1.55928
1.5792
1.5562
1.54211
1.52075
1.51226
1.49465
1.48644
1.48789
1.49196
1.50229
1.51061
1.51758
1.51544
1.47505
1.49636
1.48499
1.47941
1.46149
1.45668
1.44473
1.44065
1.45289
1.44613
1.44683
1.44178
1.44273
1.45565
1.42002
1.41472
1.43144
1.42524
1.41537
1.39477
1.38847
1.41222
1.4015
1.39413
1.38114
1.37677
1.36345
1.35119
1.36126
1.34285
1.35692
1.34839
1.32836
1.31938
1.34155
1.32388
1.31387
1.30811
1.31213
1.28567
1.26824
1.27109
1.26723
1.271
1.24937
1.25438
1.27163
1.2655
1.26574
1.26381
1.2414
1.24987
1.23035
1.22096
1.20914
1.21787
1.20783
1.19452
1.19447
1.1885
1.18043
1.16951
1.14966
1.15392
1.15552
1.16105
1.14963
1.13775
1.13695
1.11572
1.12283
1.12222
1.10378
1.09749
1.07773
1.07897
1.08383
1.06849
1.05055
1.04618
1.05086
1.04357
1.03741
1.04077
1.03038
1.02578
1.02682
1.02766
0.997874
1.0112
1.00862
0.995294
0.990243
0.971961
0.973562
0.947995
0.94076
0.927853
0.933069
0.926892
0.922991
0.909286
0.913982
0.909008
0.904805
0.898406
0.882988
0.88159
0.859147
0.861037
0.86079
0.841267
0.829865
0.82539
0.825097
0.813628
0.799308
0.805681
0.789626
0.786005
0.77751
0.773632
0.767496
0.760189
0.76194
0.754912
0.752657
0.733878
0.735848
0.729591
0.714899
0.716161
0.713469
0.70367
0.685788
0.673041
0.660973
0.662126
0.65112
0.647266
0.635022
0.625952
0.618566
0.602453
0.613491
0.613731
0.599269
0.586946
0.570514
0.56932
0.562507
0.54861
0.530275
0.523834
0.519287
0.520409
0.517189
0.505204
0.504932
0.498471
0.499934
0.501467
0.496995
0.501565
0.506635
0.498537
0.507245
0.50182
0.503275
0.511009
0.511862
0.508325
0.512357
0.50285
0.502163
0.492287
0.486668
0.494725
0.504747
0.499167
0.505005
0.505054
0.508857
0.499816
0.50385
0.50703
0.498626
0.502307
0.507982
0.508015
0.509304
0.501328
0.50757
0.499627
0.507738
0.510012
0.510461
0.505892
0.503825
0.498765
0.498534
0.495383
0.499617
0.503447
0.510498
0.503921
0.496971
0.501851
0.515406
0.49809
0.493725
0.499656
0.49713
0.502149
0.505609
0.502902
0.503046
0.50461
0.497466
0.502584
0.503983
0.495317
0.492989
0.498676
0.497347
0.504503
0.496997
0.497038
0.500032
0.505857
0.508255
0.497159
0.504102
0.50302
0.508641
0.505343
0.512569
0.51112
0.499502
0.496399
0.498512
0.503778
0.493893
0.496194
0.503389
0.495042
0.50324
0.497573
0.503718
0.49884
0.502764
0.4986
0.492835
0.502151
0.498223
0.500273
0.500641
0.495813
0.492889
0.497716
0.497387
0.515429
0.50647
0.493707
0.498528
0.500199
0.503108
0.501807
0.498068
0.504412
0.511573
0.509969
0.50955
0.500404
0.500083
0.504304
0.508946
0.499499
0.498035
0.503836
0.501344
0.504715
0.506775
0.509101
0.499877
0.506862
0.507373
0.510147
0.508342
0.501808
0.496128
0.501062
0.514367
0.512095
0.50515
0.499907
0.495289
0.503469
0.505275
0.504685
0.508527
0.506016
0.508532
0.507005
0.505741
0.503989
0.50775
0.497546
0.497168
0.50736
0.508433
0.500302
0.500922
0.503489
0.507543
0.5046
0.50149
0.496993
0.493242
0.492207
0.497802
0.506771
0.503026
0.504804
0.503368
0.494938
0.504293
0.499376
0.502441
0.497623
0.513087
0.507987
0.504813
0.51166
0.516318
0.509565
0.509778
0.511879
0.510965
0.505319
0.51
0.509478
0.514064
0.507784
0.510695
0.50273
0.514251
0.511527
0.51539
0.506049
0.511837
0.510502
0.510315
0.509276
0.499519
0.502153
0.513446
0.519915
0.520327
0.510045
0.502872
0.50151
0.503556
0.506544
0.507221
0.518707
0.511135
0.501868
0.501717
0.503501
0.512125
0.517488
0.516192
0.515656
0.506691
0.500595
0.505346
0.501929
0.505236
0.507914
0.507827
0.50461
0.504259
0.508748
0.514687
0.505285
0.500621
0.501418
0.49826
0.510659
0.507416
0.499344
)
;

boundaryField
{
    sides
    {
        type            symmetry;
    }
    empty
    {
        type            empty;
    }
}


// ************************************************************************* //
