/*--------------------------------*- C++ -*----------------------------------*\
  =========                 |
  \\      /  F ield         | OpenFOAM: The Open Source CFD Toolbox
   \\    /   O peration     | Website:  https://openfoam.org
    \\  /    A nd           | Version:  7
     \\/     M anipulation  |
\*---------------------------------------------------------------------------*/
FoamFile
{
    version     2.0;
    format      ascii;
    class       volScalarField;
    location    "0.004";
    object      rhoNMean;
}
// * * * * * * * * * * * * * * * * * * * * * * * * * * * * * * * * * * * * * //

dimensions      [0 -3 0 0 0 0 0];

internalField   nonuniform List<scalar> 
1000
(
1.50369e+20
1.67959e+20
1.77569e+20
1.86352e+20
1.90516e+20
1.95351e+20
2.01688e+20
2.05696e+20
2.11956e+20
2.17969e+20
2.27102e+20
2.27093e+20
2.37292e+20
2.40039e+20
2.39079e+20
2.41458e+20
2.51458e+20
2.50376e+20
2.55739e+20
2.58094e+20
2.61743e+20
2.59874e+20
2.67599e+20
2.72439e+20
2.77668e+20
2.80622e+20
2.80869e+20
2.80242e+20
2.83271e+20
2.84559e+20
2.90491e+20
2.95147e+20
2.97131e+20
3.02174e+20
3.02514e+20
3.08716e+20
3.11892e+20
3.15867e+20
3.13478e+20
3.19111e+20
3.24699e+20
3.21649e+20
3.21964e+20
3.24117e+20
3.28827e+20
3.25143e+20
3.32544e+20
3.28504e+20
3.30482e+20
3.36658e+20
3.40137e+20
3.34605e+20
3.43272e+20
3.42482e+20
3.45091e+20
3.45166e+20
3.5037e+20
3.53202e+20
3.55912e+20
3.5621e+20
3.57831e+20
3.64333e+20
3.60663e+20
3.62908e+20
3.61527e+20
3.59472e+20
3.64765e+20
3.72996e+20
3.73308e+20
3.74187e+20
3.74221e+20
3.71128e+20
3.71746e+20
3.77148e+20
3.73548e+20
3.7231e+20
3.74333e+20
3.77437e+20
3.84452e+20
3.86439e+20
3.88161e+20
3.82051e+20
3.9075e+20
3.92504e+20
3.84766e+20
3.94991e+20
3.95488e+20
4.00986e+20
4.02988e+20
4.04341e+20
4.00484e+20
3.94798e+20
4.00333e+20
3.98246e+20
4.04456e+20
4.07243e+20
4.07677e+20
4.11259e+20
4.11689e+20
4.06461e+20
4.0232e+20
3.985e+20
4.02356e+20
4.01553e+20
4.01186e+20
3.95596e+20
4.03561e+20
4.01282e+20
4.03824e+20
4.06174e+20
4.02078e+20
4.06564e+20
4.12175e+20
4.10292e+20
4.13842e+20
4.0917e+20
4.14459e+20
4.09757e+20
4.10547e+20
4.19343e+20
4.19263e+20
4.21681e+20
4.21708e+20
4.17626e+20
4.25569e+20
4.15585e+20
4.18041e+20
4.13992e+20
4.18094e+20
4.11201e+20
4.12354e+20
4.12748e+20
4.13424e+20
4.18089e+20
4.19679e+20
4.21949e+20
4.17102e+20
4.14956e+20
4.166e+20
4.13064e+20
4.12424e+20
4.24733e+20
4.19237e+20
4.23076e+20
4.21028e+20
4.24386e+20
4.34676e+20
4.22775e+20
4.24626e+20
4.26461e+20
4.22681e+20
4.17412e+20
4.16738e+20
4.15837e+20
4.2915e+20
4.24554e+20
4.26135e+20
4.23212e+20
4.25063e+20
4.2765e+20
4.26334e+20
4.32022e+20
4.27436e+20
4.20277e+20
4.25876e+20
4.19122e+20
4.08714e+20
4.13276e+20
4.13793e+20
4.10056e+20
4.20629e+20
4.23602e+20
4.24333e+20
4.22342e+20
4.24089e+20
4.25278e+20
4.24089e+20
4.25131e+20
4.33259e+20
4.25268e+20
4.20819e+20
4.24074e+20
4.24404e+20
4.28201e+20
4.23502e+20
4.21516e+20
4.25213e+20
4.20616e+20
4.21263e+20
4.20756e+20
4.21344e+20
4.18417e+20
4.24783e+20
4.22993e+20
4.19863e+20
4.18989e+20
4.18944e+20
4.24289e+20
4.15065e+20
4.12608e+20
4.23066e+20
4.17868e+20
4.11593e+20
4.12174e+20
4.12555e+20
4.13434e+20
4.08075e+20
4.14089e+20
4.18239e+20
4.18541e+20
4.14472e+20
4.09801e+20
4.15713e+20
4.1559e+20
4.08384e+20
4.14335e+20
4.13973e+20
4.10477e+20
4.14215e+20
4.12908e+20
4.20028e+20
4.19942e+20
4.19929e+20
4.22566e+20
4.22241e+20
4.2433e+20
4.24679e+20
4.24819e+20
4.20201e+20
4.23663e+20
4.17179e+20
4.22116e+20
4.23608e+20
4.2099e+20
4.26081e+20
4.25661e+20
4.21569e+20
4.28236e+20
4.22566e+20
4.27744e+20
4.30313e+20
4.23688e+20
4.21494e+20
4.27552e+20
4.32826e+20
4.33241e+20
4.2836e+20
4.31186e+20
4.25225e+20
4.20254e+20
4.18386e+20
4.19962e+20
4.23276e+20
4.13655e+20
4.206e+20
4.16847e+20
4.09682e+20
4.11972e+20
4.14094e+20
4.20868e+20
4.23376e+20
4.14393e+20
4.22113e+20
4.17615e+20
4.28849e+20
4.21804e+20
4.30741e+20
4.25904e+20
4.26722e+20
4.35705e+20
4.35467e+20
4.24649e+20
4.32466e+20
4.22117e+20
4.20954e+20
4.19004e+20
4.20981e+20
4.23588e+20
4.24329e+20
4.25304e+20
4.21446e+20
4.20181e+20
4.2279e+20
4.21276e+20
4.22324e+20
4.23436e+20
4.25392e+20
4.27013e+20
4.23827e+20
4.20449e+20
4.24556e+20
4.19204e+20
4.23212e+20
4.18331e+20
4.2297e+20
4.12203e+20
4.17935e+20
4.24196e+20
4.16701e+20
4.27168e+20
4.23849e+20
4.20092e+20
4.20879e+20
4.20778e+20
4.18242e+20
4.13579e+20
4.09666e+20
4.14409e+20
4.17507e+20
4.15596e+20
4.14506e+20
4.15632e+20
4.16786e+20
4.19861e+20
4.21566e+20
4.10804e+20
4.08212e+20
4.14974e+20
4.11042e+20
4.0948e+20
4.15962e+20
4.11944e+20
4.10165e+20
4.13561e+20
4.18788e+20
4.21497e+20
4.25636e+20
4.27841e+20
4.17647e+20
4.20947e+20
4.19593e+20
4.17899e+20
4.31161e+20
4.23334e+20
4.22396e+20
4.27248e+20
4.25828e+20
4.28253e+20
4.35801e+20
4.31531e+20
4.31824e+20
4.35388e+20
4.30201e+20
4.25591e+20
4.24511e+20
4.26872e+20
4.23036e+20
4.19111e+20
4.20894e+20
4.21746e+20
4.27226e+20
4.24531e+20
4.19454e+20
4.20791e+20
4.2913e+20
4.27023e+20
4.34534e+20
4.29004e+20
4.22536e+20
4.23649e+20
4.18728e+20
4.14567e+20
4.13166e+20
4.18612e+20
4.14304e+20
4.10361e+20
4.12963e+20
4.18741e+20
4.1794e+20
4.26722e+20
4.24631e+20
4.24352e+20
4.20021e+20
4.27289e+20
4.23632e+20
4.24904e+20
4.30851e+20
4.29185e+20
4.30554e+20
4.25061e+20
4.24758e+20
4.24736e+20
4.25485e+20
4.21752e+20
4.18671e+20
4.10782e+20
4.13514e+20
4.17043e+20
4.19666e+20
4.15553e+20
4.19032e+20
4.24074e+20
4.27354e+20
4.15043e+20
4.17448e+20
4.0796e+20
4.15729e+20
4.13763e+20
4.17928e+20
4.13226e+20
4.13472e+20
4.13947e+20
4.10371e+20
4.06831e+20
4.04741e+20
4.07076e+20
4.08122e+20
4.07283e+20
3.99747e+20
3.94074e+20
3.98749e+20
3.9084e+20
3.92663e+20
3.90683e+20
3.97137e+20
3.87124e+20
3.86777e+20
3.93681e+20
3.84843e+20
3.91749e+20
3.90164e+20
3.83884e+20
3.85768e+20
3.86693e+20
3.83794e+20
3.85246e+20
3.82111e+20
3.76079e+20
3.73998e+20
3.74012e+20
3.75553e+20
3.69645e+20
3.70548e+20
3.71676e+20
3.66838e+20
3.66777e+20
3.65997e+20
3.63505e+20
3.63234e+20
3.61018e+20
3.55355e+20
3.62117e+20
3.56077e+20
3.58006e+20
3.52414e+20
3.53423e+20
3.54482e+20
3.52344e+20
3.48174e+20
3.42812e+20
3.44969e+20
3.49744e+20
3.47669e+20
3.49416e+20
3.42606e+20
3.40246e+20
3.40081e+20
3.39595e+20
3.45022e+20
3.3859e+20
3.27551e+20
3.29241e+20
3.25815e+20
3.26709e+20
3.22486e+20
3.24904e+20
3.23032e+20
3.20535e+20
3.24955e+20
3.15182e+20
3.15931e+20
3.12089e+20
3.11763e+20
3.10713e+20
3.11833e+20
3.058e+20
3.01876e+20
2.98335e+20
3.04636e+20
3.01131e+20
2.9791e+20
2.94052e+20
2.93118e+20
2.94325e+20
2.89296e+20
2.86518e+20
2.91914e+20
2.86638e+20
2.88431e+20
2.83427e+20
2.78596e+20
2.78724e+20
2.77778e+20
2.74682e+20
2.71723e+20
2.71237e+20
2.71263e+20
2.68772e+20
2.62086e+20
2.60016e+20
2.58986e+20
2.55078e+20
2.52341e+20
2.47108e+20
2.53464e+20
2.47368e+20
2.45291e+20
2.44763e+20
2.43676e+20
2.47319e+20
2.50788e+20
2.45489e+20
2.37839e+20
2.39752e+20
2.32733e+20
2.34881e+20
2.32939e+20
2.30836e+20
2.31364e+20
2.30533e+20
2.24228e+20
2.2728e+20
2.25129e+20
2.22027e+20
2.18903e+20
2.17624e+20
2.15862e+20
2.1268e+20
2.14833e+20
2.11307e+20
2.12572e+20
2.14035e+20
2.11899e+20
2.12515e+20
2.09123e+20
2.11627e+20
2.09234e+20
2.05929e+20
2.02019e+20
2.03341e+20
1.97952e+20
1.92819e+20
1.95103e+20
1.95062e+20
1.93047e+20
1.90342e+20
1.90388e+20
1.88449e+20
1.90104e+20
1.87196e+20
1.88749e+20
1.8628e+20
1.81932e+20
1.78011e+20
1.78657e+20
1.76507e+20
1.76323e+20
1.75586e+20
1.74829e+20
1.75379e+20
1.75024e+20
1.74236e+20
1.73211e+20
1.75338e+20
1.70028e+20
1.70971e+20
1.77276e+20
1.75207e+20
1.66394e+20
1.68056e+20
1.68528e+20
1.64679e+20
1.67044e+20
1.64601e+20
1.5854e+20
1.61671e+20
1.61214e+20
1.59363e+20
1.57934e+20
1.57483e+20
1.59274e+20
1.55649e+20
1.53995e+20
1.54532e+20
1.54134e+20
1.55397e+20
1.57684e+20
1.53892e+20
1.54733e+20
1.54522e+20
1.5379e+20
1.54722e+20
1.54658e+20
1.51653e+20
1.52929e+20
1.50335e+20
1.52734e+20
1.52906e+20
1.52078e+20
1.51916e+20
1.50339e+20
1.51849e+20
1.50665e+20
1.5488e+20
1.53711e+20
1.51871e+20
1.51823e+20
1.50536e+20
1.48895e+20
1.45274e+20
1.47992e+20
1.49089e+20
1.51144e+20
1.51592e+20
1.48684e+20
1.46029e+20
1.46069e+20
1.49618e+20
1.44946e+20
1.44465e+20
1.42927e+20
1.50631e+20
1.51536e+20
1.47533e+20
1.51874e+20
1.49021e+20
1.45943e+20
1.44011e+20
1.41266e+20
1.43009e+20
1.4078e+20
1.4126e+20
1.37094e+20
1.3816e+20
1.37396e+20
1.38028e+20
1.37319e+20
1.37683e+20
1.39754e+20
1.38279e+20
1.4004e+20
1.40328e+20
1.38884e+20
1.40319e+20
1.35889e+20
1.38347e+20
1.39552e+20
1.37865e+20
1.37029e+20
1.33937e+20
1.35039e+20
1.36843e+20
1.33936e+20
1.33383e+20
1.35612e+20
1.36525e+20
1.34186e+20
1.32304e+20
1.3159e+20
1.32077e+20
1.31746e+20
1.31087e+20
1.30693e+20
1.28089e+20
1.29218e+20
1.31749e+20
1.30366e+20
1.29214e+20
1.28276e+20
1.28901e+20
1.27719e+20
1.25905e+20
1.26362e+20
1.26415e+20
1.25212e+20
1.28435e+20
1.2668e+20
1.22996e+20
1.24491e+20
1.24111e+20
1.27929e+20
1.26881e+20
1.29919e+20
1.28991e+20
1.30311e+20
1.25415e+20
1.23172e+20
1.29471e+20
1.30876e+20
1.26729e+20
1.24455e+20
1.24055e+20
1.25628e+20
1.2282e+20
1.24881e+20
1.24759e+20
1.22795e+20
1.27874e+20
1.27034e+20
1.2605e+20
1.29101e+20
1.2827e+20
1.27909e+20
1.24542e+20
1.23739e+20
1.2426e+20
1.24365e+20
1.23547e+20
1.21594e+20
1.23834e+20
1.26313e+20
1.22699e+20
1.22531e+20
1.23678e+20
1.22564e+20
1.20579e+20
1.19058e+20
1.21137e+20
1.20809e+20
1.20104e+20
1.20593e+20
1.20203e+20
1.20626e+20
1.23702e+20
1.18434e+20
1.19769e+20
1.22548e+20
1.21601e+20
1.22099e+20
1.20608e+20
1.24612e+20
1.23971e+20
1.28311e+20
1.25732e+20
1.28992e+20
1.24349e+20
1.28349e+20
1.24979e+20
1.23557e+20
1.24646e+20
1.25178e+20
1.22797e+20
1.24326e+20
1.2156e+20
1.2428e+20
1.22865e+20
1.23937e+20
1.24834e+20
1.21383e+20
1.18997e+20
1.22939e+20
1.21777e+20
1.21336e+20
1.22781e+20
1.19201e+20
1.20321e+20
1.20228e+20
1.20469e+20
1.21371e+20
1.21679e+20
1.21486e+20
1.19449e+20
1.24117e+20
1.25209e+20
1.24505e+20
1.21579e+20
1.18319e+20
1.17862e+20
1.17767e+20
1.16753e+20
1.17021e+20
1.16723e+20
1.19961e+20
1.15803e+20
1.16235e+20
1.1541e+20
1.15847e+20
1.17335e+20
1.18511e+20
1.16842e+20
1.207e+20
1.18936e+20
1.20182e+20
1.24059e+20
1.24376e+20
1.23046e+20
1.23087e+20
1.22953e+20
1.21636e+20
1.24091e+20
1.23329e+20
1.21851e+20
1.22136e+20
1.2207e+20
1.19502e+20
1.20493e+20
1.21082e+20
1.18933e+20
1.22978e+20
1.21161e+20
1.20616e+20
1.23692e+20
1.24578e+20
1.22764e+20
1.17369e+20
1.18385e+20
1.19238e+20
1.16011e+20
1.19714e+20
1.19704e+20
1.1815e+20
1.21172e+20
1.19678e+20
1.16533e+20
1.16676e+20
1.17646e+20
1.15982e+20
1.15528e+20
1.18351e+20
1.2053e+20
1.20344e+20
1.22516e+20
1.23863e+20
1.21669e+20
1.23365e+20
1.26332e+20
1.25003e+20
1.24628e+20
1.24126e+20
1.23261e+20
1.2298e+20
1.25899e+20
1.23833e+20
1.20943e+20
1.20977e+20
1.22239e+20
1.25645e+20
1.2668e+20
1.25935e+20
1.24914e+20
1.25152e+20
1.20813e+20
1.19646e+20
1.21813e+20
1.19774e+20
1.20582e+20
1.18972e+20
1.18054e+20
1.18798e+20
1.20071e+20
1.19173e+20
1.18374e+20
1.22888e+20
1.22518e+20
1.22145e+20
1.20582e+20
1.21773e+20
1.22801e+20
1.2013e+20
1.22687e+20
1.20905e+20
1.22292e+20
1.23036e+20
1.22373e+20
1.21321e+20
1.21955e+20
1.19991e+20
1.19727e+20
1.20676e+20
1.22455e+20
1.20621e+20
1.21716e+20
1.18206e+20
1.21556e+20
1.20069e+20
1.22876e+20
1.23954e+20
1.2605e+20
1.22911e+20
1.21105e+20
1.21435e+20
1.23156e+20
1.27267e+20
1.21466e+20
1.19804e+20
1.18801e+20
1.16362e+20
1.18676e+20
1.16398e+20
1.16571e+20
1.16133e+20
1.17198e+20
1.21075e+20
1.22167e+20
1.18981e+20
1.19582e+20
1.19736e+20
1.20826e+20
1.20144e+20
1.18148e+20
1.18328e+20
1.21647e+20
1.15858e+20
1.18493e+20
1.18839e+20
1.18472e+20
1.18354e+20
1.22481e+20
1.20076e+20
1.17567e+20
1.17292e+20
1.17088e+20
1.1745e+20
1.14891e+20
1.11163e+20
1.13354e+20
1.14663e+20
1.12115e+20
1.13457e+20
1.13537e+20
1.15528e+20
1.18771e+20
1.1585e+20
1.12231e+20
1.13376e+20
1.08643e+20
1.07838e+20
1.07572e+20
1.06459e+20
1.05452e+20
1.06448e+20
1.06244e+20
1.05264e+20
1.05204e+20
1.02512e+20
1.02987e+20
1.02346e+20
1.00704e+20
1.03768e+20
1.03011e+20
1.03157e+20
1.04355e+20
1.03191e+20
1.00842e+20
9.98475e+19
1.01226e+20
9.93144e+19
9.9675e+19
1.00827e+20
1.01056e+20
9.94063e+19
9.75975e+19
9.66062e+19
9.63056e+19
9.37456e+19
9.39725e+19
9.26912e+19
8.92594e+19
8.7715e+19
8.68125e+19
8.89856e+19
8.87506e+19
8.94137e+19
8.94656e+19
8.62287e+19
8.90806e+19
8.93813e+19
8.56369e+19
8.45856e+19
8.49312e+19
8.38525e+19
8.30569e+19
8.15087e+19
7.81638e+19
7.73694e+19
7.57281e+19
7.40769e+19
7.61219e+19
7.61456e+19
7.54288e+19
7.45825e+19
7.55044e+19
7.35263e+19
6.8525e+19
7.07475e+19
7.07644e+19
6.79631e+19
6.83994e+19
6.69256e+19
6.59525e+19
6.5665e+19
6.14375e+19
6.01919e+19
5.89369e+19
5.80931e+19
5.63406e+19
5.26075e+19
5.08962e+19
4.82781e+19
4.45381e+19
)
;

boundaryField
{
    sides
    {
        type            calculated;
        value           nonuniform List<scalar> 2(4.45381e+19 1.50369e+20);
    }
    empty
    {
        type            empty;
    }
}


// ************************************************************************* //
