/*--------------------------------*- C++ -*----------------------------------*\
  =========                 |
  \\      /  F ield         | OpenFOAM: The Open Source CFD Toolbox
   \\    /   O peration     | Website:  https://openfoam.org
    \\  /    A nd           | Version:  7
     \\/     M anipulation  |
\*---------------------------------------------------------------------------*/
FoamFile
{
    version     2.0;
    format      ascii;
    class       volScalarField;
    location    "0.004";
    object      translationalT;
}
// * * * * * * * * * * * * * * * * * * * * * * * * * * * * * * * * * * * * * //

dimensions      [1 2 -2 0 0 0 0];

internalField   nonuniform List<scalar> 
1000
(
149.562
220.624
221.134
224.572
149.529
149.094
218.891
224.926
225.869
152.781
205.033
207.356
157.649
235.092
240.865
247.924
247.712
257.146
268.444
272.348
273.089
245.712
163.728
221.502
228.355
233.377
162.053
236.608
238.529
239.113
239.789
160.594
191.582
242.903
242.077
243.665
166.705
248.747
249.356
173.593
262.04
263.448
180.3
259.614
260.827
261.611
257.723
176.932
245.079
210.858
129.399
244.424
168.478
223
224.128
160.838
159.141
123.859
163.03
232.191
234.842
170.307
236.099
241.306
250.168
248.766
183.921
245.779
246.417
173.918
231.031
229.534
232.235
232.319
227.394
227.614
165.619
170.28
239.681
237.58
240.259
234.484
163.448
164.788
166.273
237.694
248.321
273.904
296.137
295.797
288.329
280.031
282.647
210.213
272.149
234.059
319.106
347.614
345.604
242.567
316.363
286.458
281.989
280.459
284.296
295.053
294.905
293.937
278.6
275.447
265.673
267.413
286.017
222.502
266.371
240.876
236.076
255.075
199.579
205.624
287.208
206.515
283.259
275.259
271.594
200.892
204.541
205.674
283.199
284.765
163.451
285.725
283.545
274.663
156.356
276.604
204.792
208.592
289.12
242.235
300.719
276.95
278.002
277.575
196.878
271.377
272.704
283.811
287.047
283.651
203.054
271.273
274.043
269.055
197.534
176.658
231.274
242.136
189.376
254.081
269.902
194.586
267.933
267.492
265.273
189.667
191.122
262.385
260.788
260.709
250.585
186.178
241.318
243.435
180.487
229.593
175.152
249.424
249.122
232.49
174.246
175.151
144.066
258.145
261.987
258.37
189.317
260.752
191.206
260.921
258.14
259.254
151.459
190.95
257.506
260.462
195.529
262.835
259.947
264.185
270.477
270.032
196.785
254.674
252.075
247.912
248.34
193.933
161.36
201.106
274.736
281.66
284.2
284.745
213.877
216.124
216.178
214.574
289.169
218.109
287.019
279.235
274.751
276.716
281.379
282.676
278.946
213.884
280.495
208.777
271
272.614
275.984
209.113
274.552
271.915
252.074
253.122
249.88
272.396
270.055
280.801
280.259
212.129
277.026
224.273
284.014
272.709
218.462
214.383
269.83
211.323
285.719
280.126
273.759
278.782
284.085
282.553
284.365
291.924
291.307
288.86
281.862
281.287
203.113
283.442
283.059
285.467
279.559
282.635
278.507
278.04
277.471
276.596
271.632
271.334
276.218
277.826
279.442
277.161
277.827
138.221
279.963
282.631
282.42
282.077
281.265
284.943
287.11
212.451
294.386
298.482
301.62
305.761
221.835
303.817
301.912
222.549
225.32
308.02
175.604
304.571
301.933
300.826
223.173
301.181
297.078
294.127
291.85
290.082
291.288
291.68
291.854
296.102
290.453
294.972
294.613
217.206
285.717
281.28
278.008
279.807
283.346
282.713
215.384
288.864
230.284
291.739
199.431
261.588
209.881
266.145
262.476
204.221
261.451
201.835
260.195
260.652
265.372
203.287
263.978
160.948
257.103
264.13
201.948
261.251
264.03
268.578
271.724
280.653
282.754
288.879
286.61
283.029
210.786
275.31
209.498
281.297
286.107
286.426
280.601
270.498
260.242
201.887
276.813
208.994
215.595
216.581
285.171
285.338
288.623
284.637
280.288
216.675
278.803
276.925
216.277
275.536
271.463
264.191
259.425
256.152
258.465
261.7
262.013
262.58
262.745
265.203
202.683
205.293
204.644
201.154
261.233
264.86
210.009
276.417
211.675
281.073
209.353
208.296
209.521
276.806
270.307
265.054
206.138
267.201
204.078
276.9
284.378
213.446
171.579
207.036
276.969
209.021
275.924
205.303
214.408
216.581
297.498
290.078
281.314
220.769
294.654
290.941
284.846
291.559
297.559
286.843
215.517
294.219
295.033
296.794
293.117
296.175
303.046
279.199
279.382
201.165
200.072
297.855
293.463
246.205
248.307
282.212
279.26
200.092
280.797
200.027
282.712
285.006
212.964
303.038
298.52
293.851
291.864
292.33
287.643
286.16
288.014
205.618
160.467
257.814
236.144
234.045
247.939
259.67
268.505
262.941
264.85
152.497
152.346
271.543
273.896
271.525
266.07
196.426
266.841
262.197
250.174
235.622
261.817
263.787
195.975
198.318
273.169
199.215
275.287
280.223
287.99
293.152
289.086
286.3
291.89
288.102
297.854
211.953
280.336
163.503
280.612
282.174
285.796
213.159
290.533
284.008
272.957
208.923
274.144
298.747
303.918
275.203
267.187
263.007
279.462
233.789
313.152
286.189
220.965
290.852
308.989
223.886
293.312
302.675
317.229
312.868
314.642
311.935
310.461
309.104
180.127
303.042
297.504
288.451
136.395
211.718
290.105
293.032
296.447
164.192
289.045
208.428
285.844
281.321
200.857
270.892
276.857
279.373
266.576
268.019
209.705
282.608
284.363
163.701
252.328
283.26
283.884
205.609
204.246
308.806
319.748
294.499
280.948
270.905
265.437
199.906
199.557
263.307
261.339
200.762
258.488
263.608
266.235
272.062
210.81
264.044
206.703
269.108
272.073
237.447
242.078
270.223
271.558
273.687
273.527
281.583
288.481
221.035
179.391
274.58
210.585
261.674
269.327
271.116
272.397
266
263.633
264.439
268.3
268.984
268.189
275.185
209.528
289.505
293.844
293.225
215.005
289.561
175.174
221.335
281.934
280.318
278.96
203.986
279.46
293.312
293.936
215.24
289.506
295.73
300.954
300.292
306.993
223.997
319.81
324.119
326.298
208.38
330.906
324.315
314.024
231.33
312.836
305.259
228.584
301.445
219.622
289.821
276.326
275.317
206.722
265.676
275.001
304.004
235.925
222.604
272.542
247.108
247.13
251.046
281.477
281.913
279.498
277.723
268.121
264.428
265.187
260.385
193.056
193.771
265.325
199.433
161.963
279.744
279.897
204.698
278.492
284.378
213.049
281.209
284.253
173.607
280.283
214.405
282.398
284.672
290.325
216.01
280.708
279.678
305.213
308.107
238.151
308.557
312.455
313.446
310.922
321.026
230.138
274.64
278.941
273.479
256.03
254.382
254.095
249.045
251.346
250.111
244.441
249.109
210.697
186.34
235.05
179.249
178.901
178.537
242.831
149.776
243.642
194.254
340.685
262.458
263.725
254.714
231.036
233.238
254.372
253.635
252.448
248.124
247.458
245.447
248.69
246.522
234.702
236.857
244.477
246.165
248.526
188.866
243.981
215.618
230.159
189.151
229.748
228.422
235.24
249.041
255.385
189.304
224.9
255.834
279.328
283.417
214.857
205.231
218.562
304.531
302.382
297.625
290.968
225.682
269.491
255.642
265.052
273.683
275.947
274.79
268.531
267.592
206.808
203.924
207.052
279.503
280.046
255.473
189.476
244.509
244.89
253.651
244.019
236.913
225.769
230.138
193.043
273.068
204.75
285.719
281.75
208.116
205.487
273.563
205.423
272.415
268.285
244.489
248.407
273.607
271.043
275.385
276.574
276.268
180.057
224.056
198.803
272.233
275.673
159.567
283.773
283.444
203.922
205.356
205.75
281.533
279.617
280.586
272.775
270.678
274.305
275.645
272.908
277.963
293.68
299.19
297.712
211.066
212.322
293.919
162.886
288.155
270.125
217.275
289.836
218.137
232.343
286.209
222.166
219.735
219.356
287.561
268.665
204.3
203.612
263.234
279.87
211.461
210.443
272.243
265.364
196.011
249.554
249.403
248.892
249.897
200.193
270.173
210.168
210.684
210.704
279.777
209.268
167.216
279.9
276.389
272.556
259.938
193.799
250.912
196.276
256.368
255.061
259.872
261.926
201.563
253.975
256.795
252.416
246.887
246.22
251.338
251.565
253.695
200.924
254.865
256.686
257.958
254.966
255.83
250.332
246.415
249.926
192.789
232.548
232.288
243.678
196.25
196.985
262.384
258.443
223.698
254.425
255.749
190.124
261.052
262.662
246.147
245.116
248.728
198.394
253.119
254.915
257.744
263.591
271.765
195.833
273.937
273.709
274.847
196.208
194.674
269.84
262.942
155.771
244.349
142.55
240.407
245.323
187.019
259.859
261.502
176.689
236.264
250.655
187.54
261.508
262.309
265.428
264.192
263.609
181.59
247.06
192.066
176.178
242.146
169.65
230.221
231.643
237.862
238.423
242.936
244.491
180
240.217
209.215
226.763
253.778
255.943
177.03
253.379
175.331
254.062
175.771
133.543
289.85
302.944
308.192
312.396
206.666
302.3
299.802
193.315
241.237
239.682
235.488
236.669
236.285
235.793
238.705
167.026
165.928
133.823
214.64
222.152
199.193
197.373
191.324
191.532
185.882
169.257
143.981
145.295
207.384
205.379
141.453
143.845
209.619
215.917
243.445
243.718
241.571
165.138
240.875
238.346
205.803
201.888
201.377
201.15
194.74
136.548
208.859
209.598
210.092
)
;

boundaryField
{
    sides
    {
        type            calculated;
        value           nonuniform List<scalar> 2(210.092 149.562);
    }
    empty
    {
        type            empty;
    }
}


// ************************************************************************* //
