/*--------------------------------*- C++ -*----------------------------------*\
  =========                 |
  \\      /  F ield         | OpenFOAM: The Open Source CFD Toolbox
   \\    /   O peration     | Website:  https://openfoam.org
    \\  /    A nd           | Version:  7
     \\/     M anipulation  |
\*---------------------------------------------------------------------------*/
FoamFile
{
    version     2.0;
    format      ascii;
    class       volScalarField;
    location    "0.004";
    object      translationalT;
}
// * * * * * * * * * * * * * * * * * * * * * * * * * * * * * * * * * * * * * //

dimensions      [1 2 -2 0 0 0 0];

internalField   nonuniform List<scalar> 
1000
(
379.728
384.813
394.001
392.29
387.168
406.838
405.278
403.971
379.62
396.214
391.659
372.635
382.152
408.36
389.695
390.348
384.709
372.835
376.413
371.184
372.308
365.564
371.428
375.478
370.3
375.116
372.334
386.519
401.264
406.803
418.794
417.976
418.582
411.701
415.45
421.824
426.89
417.541
414.11
392.876
397.023
395.183
398.289
398.547
407.312
395.215
391.232
385.082
395.769
375.026
386.3
384.557
382.898
375.799
377.037
376.29
362.331
370.641
369.401
373.16
379.998
394.105
383.528
403.804
403.455
413.833
402.017
390.174
395.783
398.095
400.339
394.326
393.354
392.145
387.359
376.08
375.279
372.181
363.561
361.453
355.472
360.046
359.061
368.419
387.675
384.244
391.12
391.408
398.567
398.888
392.674
400.238
409.927
419.533
413.393
402.039
411.913
426.972
433.162
415.291
407.19
423.195
403.664
423.945
400.947
380.535
384.81
379.748
367.75
371.726
366.462
373.963
366.61
378.39
385.121
384.876
390.125
379.534
379.159
371.017
368.997
367.078
363.585
371.612
364.566
358.826
360.356
388.379
384.44
373.625
376.065
371.342
390.02
392.806
391.662
384.821
377.03
370.466
374.084
378.1
371.276
382.257
373.662
395.855
404.007
414.644
410.194
411.467
408.139
400.679
401.563
396.128
397.017
395.546
393.587
395.138
392.729
404.399
405.331
415.061
427.498
426.116
406.034
417.478
401.043
394.938
390.257
397.702
395.167
400.687
391.969
374.329
372.582
369.138
379.466
380.645
386.565
405.641
407.835
388.343
389.699
387.892
385.674
413.547
390.407
401.005
398.269
402.579
395.344
389.08
400.995
398.454
411.723
396.866
400.443
388.359
402.943
401.626
397.9
398.955
407.39
403.111
388.341
386.513
387.131
384.312
393.268
393.156
400.663
398.324
395.115
389.441
386.504
377.123
381.337
387.841
391.295
386.897
398.225
390.936
392.814
396.47
413.434
381.387
391.624
389.988
371.689
383.154
375.074
369.567
367.985
376.382
377.146
381.521
384.096
384.638
406.039
385.974
390.061
390.568
398.915
390.785
393.379
389.046
381.876
388.79
378.657
386.241
381.047
375.936
400.02
380.356
383.401
385.955
382.236
396.389
381.707
381.032
388.423
387.369
393.159
384.027
383.567
377.827
400.35
384.252
398.379
392.15
382.947
403.589
418.553
416.303
404.978
419.902
395.437
408.837
417.958
426.067
433.896
423.147
408.599
417.729
425.782
427.179
423.529
421.972
409.184
402.769
387.58
393.324
404.953
384.338
380.161
379.365
385.834
380.753
382.328
374.442
389.502
398.406
391.823
384.085
405.082
396.632
410.353
403.267
411.695
398.814
400.36
400
389.245
377.727
375.207
381.445
391.976
388.99
410.908
386.895
379.629
391.529
381.589
383.712
390.646
391.415
397.061
389.037
390.731
390.233
401.735
393.204
401.961
391.244
398.23
407.255
413.983
404.987
394.346
395.956
384.158
393.21
390.014
381.107
386.663
377.409
370.711
362.78
363.316
371.752
363.607
367.054
379.697
392.066
396.768
396.318
405.814
408.834
396.712
396.228
386.735
393.549
402.344
389.55
386.292
399.333
386.94
387.078
387.205
391.6
382.898
383.615
388.246
390.742
386.387
400.389
395.459
407.207
400.097
386.397
378.771
404.305
405.594
393.064
383.387
381.183
381.164
389.044
379.945
381.857
384.234
391.961
398.487
409.995
405.376
396.724
395.884
380.039
369.849
375.296
385.915
368.263
371.744
379.857
384.855
387.523
373.557
376.411
395.235
378.94
394.039
394.455
392.283
388.822
405.682
387.294
374.562
386.207
383.297
402.885
399.586
367.389
371.391
369.445
379.089
370.545
374.84
373.907
402.1
391.92
387.645
392.771
392.103
383.568
389.715
380.284
370.857
383.753
384.143
374.316
378.144
378.513
377.239
393.105
383.436
385.322
374.098
380.768
371.711
392.656
385.923
377.237
368.288
358.431
369.874
367.563
348.68
353.759
359.619
351.874
354.881
364.602
367.875
381.191
371.326
363.609
382.25
367.646
358.049
353.359
362.869
362.426
368.286
377.457
361.764
365.97
367.217
354.808
348.533
349.495
357.834
350.205
349.526
336.877
348.088
345.949
329.2
322.624
331.25
338.673
325.383
334.609
330.02
326.144
336.856
334.054
327.445
342.022
340.537
332.627
324.97
324.033
327.773
318.197
312.93
333.862
345.083
334.24
327.567
330.176
315.896
329.662
330.743
339.171
351.444
347.851
352.138
354.294
359.29
352.489
357.138
359.001
365.414
363.954
362.655
365.043
366.077
358.637
343.953
353.469
369.511
360.868
371.161
383.697
378.93
376.114
381.39
376.99
377.676
366.788
364.949
384.188
390.849
387.168
371.175
376.595
391.246
406.012
404.569
394.589
411.269
400.17
404.933
408.738
413.131
430.8
415.433
413.133
421.187
430.723
432.654
444.918
417.597
430.71
434.676
447.527
437.671
448.498
444.119
447.789
446.831
478.096
467.61
464.053
460.163
463.706
447.37
496.16
464.906
462.337
468.635
476.813
465.925
451.101
467.099
463.462
478.771
479.406
491.565
482.363
465.547
467.458
475.645
448.461
482.413
493.687
490.566
475.533
479.758
501.113
478.843
507.271
515.568
486.038
501.292
491.261
476.706
466.339
486.032
467.989
448.007
455.68
476.125
483.586
457.046
451.077
449.854
440.027
445.625
445.058
456.931
457.261
459.06
465.207
459.144
473.391
454.356
456.227
451.991
433.15
446.3
433.219
452.598
465.774
447.864
450.856
444.591
448.459
422.034
436.645
449.708
449.432
437.333
411.365
429.868
441.358
441.283
451.442
435.27
415.548
432.695
434.455
421.9
418.476
434.768
412.605
412.425
389.903
426.896
438.066
419.276
421.415
448.63
459.615
445.599
443.271
432.485
454.952
442.793
418.504
431.697
438.471
443.193
417.865
440.302
428.245
432.324
434.368
406.44
405.112
430.495
431.434
421.983
465.212
469.321
457.732
473.503
471.153
474.966
467.225
439.072
447.92
421.024
436.174
409.851
420.858
405.759
420.975
390.954
409.892
407.941
398.885
407.191
388.819
405.322
414.009
420.064
413.268
404.38
387.379
362.709
347.186
363.648
354.095
379.651
378.682
372.099
392.587
403.289
420.69
376.313
368.873
393.608
396.65
394.875
378.381
358.048
364.155
404.053
399.807
385.306
405.248
382.343
422.725
390.853
402.955
371.941
385.218
382.836
382.678
385.219
381.426
377.644
362.238
355.193
357.438
367.535
375.036
369.83
368.938
370.53
374.317
358.35
392.874
388.127
367.431
373.856
374.841
368.67
371.269
402.459
392.732
391.12
367.595
380.93
385.725
386.531
386.127
410.163
390.659
381.067
350.14
360.124
373.666
392.028
371.556
357.951
358.627
340.995
343.161
354.575
371.395
370.725
366.329
397.124
388.43
419.501
428.777
420.766
417.415
396.471
393.425
405.503
386.425
377.292
382.773
400.1
398.853
404.982
403.777
390.409
406.781
396.259
395.139
393.006
388.116
404.387
425.989
400.976
405.955
403.5
441.221
426.184
414.723
414.382
427.142
440.792
438.347
447.68
403.596
441.514
433.278
436.418
421.031
419.15
429.211
398.897
426.994
422.85
414.643
406.813
398.332
383.513
376.928
401.064
393.398
393.306
395.686
430.312
420.163
412.437
400.097
383.107
365.763
363.29
357.809
352.749
355.036
385.797
414.797
424.581
427.413
386.045
375.042
403.334
392.643
403.229
389.972
384.557
382.123
404.996
414.333
433.52
423.977
407.571
398.165
412.589
393.278
399.804
428.178
393.071
401.482
390.606
425.523
413.15
389.16
391.208
383.095
367.48
394.654
394.322
408.898
437.05
460.248
426.4
415.237
391.823
394.76
393.579
406.152
420.054
452.104
410.349
400.928
407.41
406.665
407.474
396.567
415.048
407.891
428.039
439.635
431.442
454.632
453.139
449.788
444.548
445.722
429.958
423.004
383.94
410.151
399.168
416.812
417.983
446.182
419.685
415.562
424.265
421.091
439.906
403.705
422.888
404.08
440.591
427.058
412.589
418.235
420.806
412.642
421.68
396.71
389.775
409.376
405.203
424.199
403.182
377.645
384.709
382.965
382.337
372.099
373.884
383.839
400.019
403.929
398.114
387.127
386.306
368.802
362.148
409.713
432.481
407.449
411.083
421.6
448.989
440.108
425.041
440.198
427.427
407.692
387.011
391.888
415.293
416.814
432.833
407.529
392.945
430.018
437.925
452.119
458.963
408.478
394.141
398.073
400.115
384.153
381.105
420.847
405.32
372.234
369.305
357.175
343.955
353.633
341.867
341.047
349.898
339.026
356.925
358.44
363.964
372.515
367.841
372.525
368.144
354.096
348.737
364.862
358.864
366.559
)
;

boundaryField
{
    sides
    {
        type            symmetry;
    }
    empty
    {
        type            empty;
    }
}


// ************************************************************************* //
