/*--------------------------------*- C++ -*----------------------------------*\
  =========                 |
  \\      /  F ield         | OpenFOAM: The Open Source CFD Toolbox
   \\    /   O peration     | Website:  https://openfoam.org
    \\  /    A nd           | Version:  7
     \\/     M anipulation  |
\*---------------------------------------------------------------------------*/
FoamFile
{
    version     2.0;
    format      ascii;
    class       volVectorField;
    location    "0.004";
    object      UMean;
}
// * * * * * * * * * * * * * * * * * * * * * * * * * * * * * * * * * * * * * //

dimensions      [0 1 -1 0 0 0 0];

internalField   nonuniform List<vector> 
1000
(
(0.165386 31.879 -53.7716)
(-0.676737 27.3048 -35.1495)
(-1.08781 25.0106 -20.4522)
(-1.31476 -12.5785 13.291)
(-1.37761 -28.7558 2.08793)
(-1.08406 -11.0406 -6.67451)
(-1.28813 -8.2588 23.5061)
(-1.07584 -2.03085 46.7694)
(-0.862145 23.6052 34.3935)
(-0.49273 1.73649 21.4137)
(-0.050641 -10.2275 -4.62381)
(0.344624 -1.65176 5.0777)
(-0.131584 14.7266 22.2964)
(-1.07955 6.27317 -9.10622)
(0.0435786 14.9278 -9.30287)
(0.516162 12.7379 -16.0463)
(1.03211 32.8353 -29.5621)
(1.67631 37.4303 -7.61971)
(1.49461 18.1261 4.95995)
(1.72182 35.5243 21.4956)
(1.64563 26.2033 46.8011)
(2.84276 -3.45021 46.3947)
(3.2195 -0.303732 53.3207)
(2.84285 25.956 42.4227)
(1.94955 10.1348 20.5217)
(1.40202 2.85265 18.5735)
(1.62849 1.70942 -6.83565)
(1.60372 5.65481 0.683848)
(1.3171 -1.87955 22.7554)
(1.40956 -16.9416 17.6275)
(2.33698 -21.4129 15.2)
(3.15359 -6.4633 22.1432)
(1.95994 -5.27128 20.9873)
(1.85467 6.56157 12.2901)
(2.35645 17.8196 13.7143)
(1.04907 5.68839 -0.423903)
(0.849543 11.6639 -19.8533)
(1.00959 -0.714698 -20.6668)
(0.401132 19.5096 -23.1919)
(0.867587 15.7203 -21.0632)
(0.6216 -1.82369 -18.4062)
(2.04433 -7.29159 -1.96971)
(3.06659 11.8785 -15.6316)
(2.70971 4.66056 -17.0753)
(1.97881 22.7424 -38.7931)
(2.07825 33.8103 -22.9476)
(2.26035 38.4748 -24.459)
(3.77264 49.8997 -42.6882)
(3.73633 51.7887 -31.4277)
(3.91875 39.3275 -31.0011)
(4.21006 56.7371 -47.8806)
(4.02106 46.8799 -32.44)
(3.06547 57.2487 -30.5244)
(2.68881 34.3114 -33.6508)
(3.92908 39.7238 -26.3324)
(4.24477 51.5358 -24.8034)
(4.41504 54.3031 -29.1195)
(3.77043 54.8202 -40.5687)
(3.86559 46.8852 -47.1124)
(3.81752 10.5015 -35.2065)
(3.54164 1.40524 -18.2484)
(3.12164 -4.07374 -12.5587)
(2.60372 -27.9994 3.33824)
(3.59128 -5.20948 3.44328)
(3.72088 -17.3591 5.84534)
(3.25252 11.0421 6.28185)
(4.22184 4.30984 4.11505)
(5.08085 -23.7666 19.0904)
(5.50254 -11.0335 -4.01539)
(5.8019 -46.2683 -7.97083)
(5.61149 -51.335 -4.98112)
(4.34818 -42.9609 6.5907)
(4.74098 -44.3381 -5.02965)
(6.072 -29.7225 5.97148)
(5.99081 -30.555 10.7136)
(5.88461 -20.7038 19.7909)
(6.18298 -16.1947 12.1066)
(5.22706 -26.0746 13.8781)
(3.46747 -11.0229 4.09774)
(3.93195 11.7697 18.0124)
(4.07108 6.0899 27.0388)
(4.12849 -1.93001 35.4505)
(4.35413 3.00252 21.2322)
(4.53668 -17.186 73.5735)
(4.86374 -31.6114 79.004)
(4.44326 -8.06488 57.2008)
(4.10149 -22.1507 63.3118)
(5.22495 -37.4671 66.4211)
(5.21456 -28.2935 27.3676)
(6.11996 -14.9162 46.2531)
(5.02118 -7.47307 31.3297)
(6.01934 10.5398 13.4038)
(6.18653 3.18892 1.17717)
(6.33232 26.528 -8.40841)
(5.42279 24.1015 -9.64174)
(5.43965 33.5672 -26.6477)
(5.63712 27.2338 -14.2254)
(5.66266 40.1426 -13.526)
(6.14059 46.7222 -8.2675)
(5.56738 19.1556 14.5027)
(5.33687 21.7185 24.822)
(5.33818 12.6064 39.2987)
(6.06428 -3.83661 32.0034)
(6.28332 -28.2934 30.4657)
(5.9612 -15.6295 27.0585)
(6.00101 -26.6259 10.1082)
(6.20228 -26.428 23.1205)
(7.23806 -29.4563 14.8495)
(6.86807 -21.3845 13.2485)
(7.31129 -20.0765 17.8326)
(6.97194 -6.02934 27.8036)
(6.10863 -19.2382 33.66)
(6.57242 -38.1893 9.37722)
(6.43638 -24.566 13.1844)
(5.31838 -18.2473 6.3333)
(4.37659 8.09882 24.1841)
(4.03207 17.3592 41.7012)
(3.46532 15.1111 54.4567)
(2.7322 18.0647 56.2725)
(2.12644 31.9523 55.0789)
(2.81677 34.4196 41.3181)
(2.20528 44.2571 36.3595)
(2.19409 55.6982 12.785)
(2.20547 30.2221 -3.57085)
(1.8702 3.08608 -6.60916)
(2.31382 -4.13997 4.24202)
(1.93455 -34.6079 1.90368)
(2.35276 -49.983 -4.80234)
(2.79795 -9.6788 14.234)
(3.16749 1.88602 31.2558)
(3.48737 -12.138 26.6638)
(2.63226 -26.9358 18.1588)
(2.41378 -31.2869 2.49152)
(2.11539 -42.4669 15.6783)
(2.16005 -38.8933 25.716)
(1.94358 -25.3407 19.5878)
(2.01164 -49.2911 -25.9255)
(2.33516 -42.0434 -53.0177)
(2.69451 -54.7731 -65.7871)
(1.88382 -43.4306 -69.7842)
(1.0078 -66.3503 -60.1706)
(0.78969 -50.8273 -46.555)
(0.0716003 -39.699 -41.318)
(-0.101976 -33.6041 -49.6967)
(-0.369782 -29.6241 -36.7799)
(-0.800154 -41.5725 6.76072)
(0.860641 -32.0798 9.32524)
(1.07561 -15.1091 16.5736)
(1.75779 -28.9924 20.1214)
(2.17632 -45.2755 -0.682345)
(2.15931 -29.8634 -11.2513)
(2.28074 -14.7284 -9.57216)
(2.62867 1.74821 -6.72519)
(2.47657 12.2478 -27.8803)
(1.88895 20.8464 -72.4428)
(2.93172 32.3905 -50.6104)
(2.2154 53.3438 -30.3091)
(1.46119 49.0861 -16.7446)
(2.39334 60.5194 -8.22778)
(2.46939 67.5646 -12.7712)
(1.99595 70.9521 -10.0116)
(2.11897 74.5933 -29.3848)
(2.05093 86.1149 -40.3185)
(2.50811 66.1254 -34.7072)
(3.12186 79.7129 -33.6469)
(3.67597 64.3827 -39.4516)
(2.77467 18.1172 -53.4881)
(2.17052 -2.12017 -31.5209)
(2.43932 2.89437 -13.4698)
(1.53981 7.58039 -3.23164)
(1.79434 -8.5107 -9.15012)
(2.20926 -2.64265 0.876586)
(2.61962 18.5294 3.56554)
(2.88074 26.7529 -7.22559)
(3.37643 8.24866 -20.9112)
(3.1237 -9.61669 1.13033)
(2.5507 -28.8724 -1.99227)
(2.60907 -39.0442 -33.2323)
(2.74946 -47.0631 -38.8255)
(2.94167 -41.6888 -27.0568)
(2.51545 -37.6194 -9.90323)
(2.98218 -39.4268 -0.495281)
(2.60928 -45.6424 7.94619)
(2.73664 -37.0824 11.2659)
(2.74687 -5.91057 18.9215)
(3.51178 -21.8123 21.0812)
(3.79511 -3.30722 5.97734)
(5.03135 9.02062 3.94184)
(4.4007 7.0622 -3.41869)
(4.58955 20.1131 -23.1973)
(5.13116 26.4318 -3.99844)
(5.01727 11.7112 22.0848)
(5.879 7.32703 12.9789)
(5.53685 13.9093 -13.3228)
(6.21687 11.6523 8.06752)
(5.44616 31.0021 12.1519)
(5.6204 15.7945 10.7333)
(5.25654 14.8566 -4.58033)
(5.21865 12.279 -25.3761)
(5.40417 7.11468 -17.4003)
(5.37919 18.0957 -17.5664)
(5.11359 27.7257 -9.61616)
(5.42452 19.1885 -16.9252)
(5.14108 -0.726545 -45.6844)
(4.49529 9.38383 -21.3742)
(5.4961 25.2464 16.0439)
(5.64184 24.2562 38.3549)
(6.89005 8.93004 48.2334)
(7.35496 23.1923 34.9641)
(7.05348 23.5407 9.04803)
(6.85109 36.3578 38.446)
(6.1407 28.5471 42.168)
(5.78217 18.8861 58.1254)
(5.98329 23.9336 16.2438)
(5.58564 -3.61265 10.977)
(5.27886 -14.0476 -3.37283)
(4.82172 -12.9463 -11.3348)
(4.29478 -13.6034 -44.0862)
(4.66498 -1.58725 -39.9503)
(5.29014 -20.6128 -26.3898)
(5.09374 -22.2013 -25.7618)
(4.91064 -12.8852 -12.7818)
(5.97812 -3.69486 0.888861)
(5.9384 3.75754 -9.41561)
(6.52987 5.8598 -24.8019)
(6.46041 -10.2032 -13.4763)
(5.39986 -3.59023 -6.76624)
(5.35461 19.9412 -8.57548)
(4.17976 0.700672 -15.1136)
(3.8013 17.2424 -28.1735)
(4.33472 27.3067 -11.7422)
(4.73118 45.6139 -23.1522)
(4.37994 12.3827 -9.637)
(4.49184 7.78756 -7.56066)
(4.13759 17.2667 -9.20978)
(4.31419 27.3666 16.847)
(5.48047 11.7551 -9.98655)
(5.31204 19.8206 -15.5586)
(6.36461 34.3152 -2.19788)
(6.38733 16.8466 21.7458)
(6.82302 -8.74287 20.0178)
(6.29179 -0.287702 9.63218)
(5.30259 -8.88395 -10.3237)
(4.60473 9.04892 -12.475)
(3.71719 14.5396 6.97949)
(3.51961 -1.84388 0.463869)
(3.09691 8.05812 -8.84694)
(3.05948 17.0642 -34.3094)
(2.43108 -17.9044 6.23635)
(2.12125 -15.0746 20.8985)
(2.24986 -8.01686 11.4571)
(1.41058 -25.2697 -13.8773)
(1.10524 -8.08164 -5.57354)
(0.610695 -17.8556 0.245391)
(0.966222 -46.1668 -6.6405)
(0.631165 -32.5722 12.3554)
(0.969062 -46.4409 4.99958)
(0.873752 -27.266 -0.410244)
(1.33511 -23.8915 -7.69538)
(0.730117 -14.0358 -19.3439)
(-0.493312 -12.8287 -15.4434)
(0.176411 3.17986 -33.2328)
(-0.0856906 17.0828 -18.4724)
(-0.218615 18.5597 -34.6425)
(-0.36231 -10.5473 -48.5079)
(-0.763974 -5.93581 -34.2412)
(-1.14783 -15.8599 -36.3545)
(-1.1348 -8.29714 -22.4015)
(-2.4061 -11.4467 -15.0269)
(-1.89455 -13.0489 -13.3827)
(-1.86501 -13.7289 -14.3923)
(-1.42583 -13.2733 12.0132)
(-0.502029 -26.0507 3.60651)
(-0.505128 -30.1587 4.00973)
(0.152567 -32.6985 1.01874)
(0.178026 -21.0957 -1.2543)
(1.20675 -23.1172 -14.699)
(1.33002 -15.1744 -19.0338)
(1.00153 -3.55373 -25.6499)
(1.62799 -25.2959 -19.2815)
(1.92944 -48.7333 0.32933)
(1.61012 -42.1696 -5.40892)
(1.40845 -23.855 -20.0396)
(0.343844 -11.9891 -15.6686)
(-0.201718 -13.8078 -23.205)
(-0.442888 -18.7905 -19.1332)
(0.480682 -27.4671 -20.3784)
(0.518648 -26.6976 -8.73736)
(0.968987 -46.718 9.39764)
(1.28109 -56.7161 -1.32279)
(1.7755 -48.1968 4.7749)
(1.9584 -55.1435 2.3045)
(1.37297 -52.1574 31.2963)
(1.57588 -41.9446 35.0376)
(1.51811 -30.7762 41.0876)
(1.79495 -43.9463 46.3334)
(0.195363 -47.8351 37.7277)
(0.544319 -60.4286 38.0798)
(0.672965 -54.2711 25.5825)
(0.647323 -36.8103 26.8631)
(0.430936 -21.2968 19.964)
(-0.270414 -22.3319 38.4827)
(-0.0259499 -17.3838 21.3841)
(-0.275997 16.7281 10.7041)
(-0.341833 28.6384 5.09845)
(-0.22366 43.5912 -5.58912)
(0.140634 22.8115 -8.23168)
(1.07946 -1.00311 -1.46385)
(0.877048 -7.99168 -39.4735)
(1.01536 -14.2368 -7.62665)
(0.76587 10.6912 -17.1265)
(1.5438 5.31874 0.267591)
(1.50669 21.7354 -16.8542)
(1.42042 3.06034 -47.4455)
(1.90317 -35.0689 -62.176)
(1.09405 -29.6823 -47.4889)
(2.32027 -25.0633 -21.1339)
(2.34064 -49.5015 -33.8786)
(1.66165 -37.8694 -36.6142)
(2.06888 -33.5587 -30.9741)
(2.16247 -3.26561 -30.3739)
(1.81252 -7.84485 -41.1475)
(1.50443 -32.5562 -46.6764)
(1.61101 -21.9926 -58.2009)
(1.67257 -15.4616 -58.4763)
(1.69325 -16.302 -35.2201)
(2.57905 -5.5113 -31.9072)
(3.88781 8.31543 -19.9329)
(4.70135 18.8644 -27.3463)
(4.58119 48.5538 -20.1663)
(3.992 20.8679 -37.624)
(3.98102 28.2375 -20.1752)
(4.04837 18.0529 4.81325)
(3.86139 -1.83814 21.473)
(4.72849 14.4857 22.5883)
(5.14397 20.9473 15.9294)
(4.80076 -4.55301 36.001)
(3.1493 -12.2986 -6.72846)
(3.96033 -16.3413 -6.27345)
(4.58147 -13.3842 -8.2724)
(4.43605 -13.7109 10.78)
(4.9894 -14.6699 -0.128695)
(4.75738 -7.40014 1.23383)
(4.38914 3.9234 -7.60808)
(5.47353 -10.5326 -1.22623)
(5.56126 -34.6275 -4.60396)
(6.02307 -14.2746 -30.4973)
(5.25445 -0.616823 -20.954)
(4.90498 -1.99918 -7.66063)
(5.19657 -0.645438 -1.87505)
(4.87314 20.2561 -22.3252)
(5.48209 30.9356 -18.4726)
(5.40992 47.7428 -14.2427)
(4.53441 44.2634 12.3856)
(3.88888 35.1114 17.7322)
(2.71666 31.6942 5.73487)
(3.62063 18.2275 -9.1462)
(2.92881 24.9474 -14.5625)
(2.45541 14.3155 -25.1767)
(3.5521 33.1068 -34.8412)
(3.90198 47.1785 -20.9946)
(4.74985 49.79 -9.91471)
(6.12529 59.6486 -5.55315)
(6.28158 44.2436 -2.71097)
(5.39463 40.5144 -0.0674451)
(4.95312 21.8003 17.1159)
(5.67937 18.0043 4.86414)
(5.76116 5.34193 8.51708)
(6.04224 -1.31609 -1.36759)
(7.00576 -24.5732 -24.8026)
(7.69056 -6.8157 -7.29986)
(7.75778 -2.61563 -17.6691)
(7.0491 -1.04215 -2.31923)
(7.32995 -4.74815 -7.50626)
(8.98494 -2.5088 -24.2897)
(9.51114 -9.23041 -29.6344)
(11.0487 -18.6908 -15.4902)
(10.9229 -23.0619 -10.1636)
(10.3723 -52.2419 -19.7519)
(11.6085 -43.5897 -3.9585)
(12.1139 -41.0192 26.1203)
(13.055 -33.4662 38.0239)
(12.8586 -4.58493 41.669)
(12.8256 -16.2018 55.5063)
(13.5969 -25.7733 37.8669)
(13.4182 -22.8979 32.1603)
(14.6729 -27.374 24.5307)
(15.0344 -42.7031 36.6435)
(15.5746 -51.5712 27.0629)
(18.3468 -44.0672 39.6513)
(19.1703 -64.47 43.2657)
(19.2444 -64.541 16.7702)
(19.7468 -52.7244 -18.9002)
(20.2346 -51.6047 -24.2112)
(21.706 -42.897 -30.1076)
(22.2641 -42.7173 -24.1834)
(22.394 -33.5814 -38.7114)
(24.1401 -34.5626 -18.4495)
(24.4077 -22.6231 -1.87634)
(24.8611 -22.3756 -23.1412)
(26.7187 -9.86788 -40.4114)
(28.1719 -22.0402 -28.3777)
(28.6207 -5.46563 -20.5036)
(28.5502 -17.2727 -8.80055)
(27.9217 -9.84862 4.97533)
(30.1638 11.8958 3.23168)
(32.004 21.4422 -7.08827)
(31.9353 2.51833 -25.1678)
(34.5618 -5.31765 -22.4875)
(35.3546 22.7597 -5.77127)
(37.2383 28.7781 -16.1819)
(36.6672 34.0015 -8.13444)
(38.0724 20.8374 -17.6585)
(38.5841 9.37027 -38.5052)
(39.3761 11.7158 -31.6983)
(42.0682 22.3705 -26.7675)
(40.9943 35.518 -22.8505)
(44.2067 34.1413 -20.4204)
(44.8423 30.4484 -21.0285)
(42.4191 43.4752 -11.0283)
(41.795 34.4249 -22.3364)
(42.7907 36.465 -29.6755)
(46.4044 40.7744 -46.2518)
(46.801 39.0119 -50.7206)
(47.1716 20.8793 -54.7052)
(48.1203 2.81515 -27.1909)
(52.2513 6.61958 -25.3893)
(53.0855 25.7047 -25.4344)
(52.6467 18.8109 -36.6924)
(53.8769 25.6472 -41.315)
(55.8501 36.053 -36.5227)
(56.0243 20.5056 -18.9074)
(58.5906 23.9103 -36.4261)
(59.5422 22.523 -15.1046)
(61.6216 7.07687 -3.63884)
(64.7723 16.8996 4.88786)
(64.909 27.2658 20.847)
(65.3792 24.5954 24.9448)
(66.6467 24.3704 4.97355)
(70.0693 17.3888 3.06889)
(71.1795 24.5579 21.1727)
(73.3296 34.8111 0.247245)
(71.1529 30.0321 -4.24633)
(73.2027 35.6892 -9.10629)
(75.2484 -1.82176 -7.55146)
(76.4122 1.39009 -24.1753)
(76.5796 27.6662 -11.4368)
(81.3858 -3.60132 9.51566)
(82.7371 10.4396 5.10903)
(83.2624 9.22199 -5.84242)
(82.6371 1.97769 -20.4145)
(80.3777 6.48737 -9.43395)
(88.7505 0.892373 -4.46503)
(88.5704 -14.2714 2.05629)
(86.1862 -20.2141 -0.968242)
(91.4401 2.75319 8.50252)
(97.9192 6.45614 18.3823)
(93.9429 15.3749 25.8786)
(95.9589 -1.19655 19.6091)
(97.2221 -9.26164 27.9356)
(102.855 11.1555 5.7468)
(107.731 21.9971 -41.6093)
(110.696 42.9778 -37.2117)
(110.241 16.3603 -24.5972)
(113.698 12.6768 6.69736)
(115.413 -3.62644 -11.3701)
(108.302 11.8249 -9.33995)
(111.278 5.2959 7.56144)
(118.793 16.751 -12.4798)
(113.47 -1.2841 -9.40715)
(121.784 -12.777 -9.76071)
(131.32 -12.2872 7.11363)
(125.625 -28.5003 -17.671)
(130.63 -33.7774 -17.9319)
(131.674 -15.5103 -34.4959)
(131.25 3.10753 -22.7242)
(133.008 -7.07415 -14.9928)
(128.909 -12.0734 -14.7577)
(134.149 -10.4561 -9.49618)
(137.102 -35.5607 2.96433)
(131.678 -19.2689 -9.56414)
(143.411 -1.03546 -11.7427)
(146.214 -2.93245 -17.1361)
(147.498 -14.3645 -10.2838)
(144.163 -5.17605 1.76475)
(149.741 -26.9628 -3.26037)
(152.422 -37.6234 8.39732)
(152.845 -20.5755 -4.10708)
(149.636 -26.907 -5.09474)
(152.407 -29.0179 -3.19892)
(149.679 -19.983 0.452128)
(155.11 -0.500454 8.60674)
(166.995 0.648796 9.25803)
(167.749 5.27093 -7.71517)
(170.316 -3.50481 1.89954)
(174.242 0.2983 1.26578)
(177.928 -8.92702 -20.2998)
(185.589 -11.3213 -19.9195)
(189.972 -16.385 -9.48649)
(204.259 -7.67776 3.09374)
(206.601 -12.2683 -11.6983)
(191.496 -10.2061 -16.1)
(186.47 -17.0016 -7.94428)
(196.012 -0.548374 -3.4527)
(192.003 11.8566 -3.78649)
(191.646 -6.44673 11.723)
(189.101 -0.348072 8.5156)
(188.022 -13.6238 -1.67103)
(181.336 -0.237966 0.245429)
(193.753 3.64473 11.9624)
(186.607 -1.51784 3.02352)
(195.14 -4.05359 -22.7923)
(200.211 0.926201 -17.4137)
(190.969 6.1396 -11.8661)
(185.435 -13.5045 -12.9736)
(181.045 -4.50237 -25.2417)
(185.466 -13.4501 -7.63631)
(183.733 -11.8924 -20.0132)
(192.437 -6.80087 -2.08758)
(188.693 -15.1827 -9.17154)
(194.044 -4.8714 -20.4674)
(179.35 7.18153 9.45542)
(187.222 -0.762049 -3.19976)
(180.15 -17.5773 -23.6993)
(187.438 6.55597 17.1972)
(175.637 23.8629 5.79625)
(180.067 18.4534 1.15764)
(178.051 8.14048 7.04157)
(178.39 14.6981 9.84592)
(177.799 1.02473 11.4929)
(173.492 -8.26756 -22.8227)
(170.524 8.12932 -9.74769)
(173.646 14.3252 -4.667)
(171.447 4.87122 -19.3221)
(160.275 -13.7833 -1.44757)
(169.014 17.5083 -16.79)
(169.192 17.6374 -20.7786)
(163.957 3.55565 -11.6396)
(160.74 11.1152 -10.3733)
(164.616 11.0507 -9.21271)
(163.91 13.2298 -7.12032)
(166.913 7.50531 -13.9532)
(159.669 -13.5294 -14.4438)
(152.13 -5.83577 -41.6023)
(152.189 -6.83222 -28.2211)
(159.196 -6.36511 -9.32814)
(149.78 -26.256 -15.0804)
(156.635 -4.6658 -24.3624)
(159.296 7.97269 -22.9413)
(148.425 6.4576 -31.6765)
(145.04 14.4726 -10.4414)
(151.662 7.197 3.0173)
(152.116 25.5036 12.2055)
(154.228 40.1481 8.81002)
(146.044 27.6789 -2.10743)
(153.185 7.14664 1.17774)
(153.169 20.1675 -14.5581)
(151.886 29.667 9.03416)
(157.981 23.1021 16.9961)
(156.635 47.2691 19.9541)
(139.284 27.4813 8.62953)
(141.999 8.02624 -2.44265)
(142.21 -13.5834 2.87997)
(148.388 8.01171 28.4933)
(140.773 43.1734 1.97179)
(141.67 47.1164 3.89681)
(146.341 52.8426 -16.1206)
(140.178 48.9808 -22.4817)
(143.866 55.8828 -2.28696)
(143.752 56.9417 -21.7889)
(148.205 39.5198 -14.4663)
(154.118 19.5401 0.691153)
(150.256 -7.60241 3.11959)
(146.742 -3.44554 -14.5206)
(145.588 29.6847 -7.85687)
(146.167 42.2352 16.7639)
(147.52 13.6768 -9.61489)
(136.533 -2.91507 2.68279)
(140.109 8.61028 14.5776)
(142.554 20.0459 10.4456)
(141.253 36.5044 1.92216)
(141.203 35.4684 -0.920452)
(142.614 30.1988 25.3199)
(132.894 17.1166 17.2543)
(137.339 19.0975 1.1641)
(141.276 7.45075 -16.9827)
(139.859 2.26088 18.2274)
(134.875 -11.0441 28.1503)
(140.912 5.29846 33.1016)
(129.49 -9.18123 52.134)
(127.364 43.3033 57.7304)
(117.604 7.17489 48.7815)
(130.885 16.9617 51.2661)
(130.648 5.27082 64.7321)
(130.014 4.61209 73.2299)
(122.843 -0.535632 76.7757)
(128.579 25.5497 54.6659)
(132.877 5.34304 84.9916)
(124.868 24.6932 62.3463)
(132.811 32.2296 39.5534)
(130.831 39.5779 61.1009)
(116.398 17.4469 70.2823)
(128.271 12.9262 71.7794)
(124.73 -9.47441 73.8205)
(129.829 12.1231 54.7269)
(127.641 5.80373 64.2533)
(124.035 -6.27413 48.7456)
(123.355 -26.4526 39.1165)
(112.259 -9.88919 55.586)
(116.09 24.4468 84.0036)
(109.415 29.8948 56.0546)
(107.963 1.35005 57.8892)
(103.079 1.94943 37.3269)
(112.425 22.1199 17.893)
(101.984 36.5895 20.6112)
(100.292 18.3813 16.6719)
(103.372 28.0413 -4.24949)
(105.551 42.432 8.6874)
(103.189 38.3312 2.87714)
(100.011 10.6161 18.7996)
(96.7967 27.3823 -5.95483)
(100.582 37.4324 39.2759)
(94.8879 48.2645 63.7779)
(93.7074 58.6483 16.9613)
(95.4866 14.8924 2.04842)
(98.0917 -4.31832 9.39518)
(92.1 -9.3925 22.0906)
(88.0841 -13.1601 51.8631)
(96.3113 -42.6859 41.3222)
(89.8167 -20.0439 17.9421)
(92.8509 -34.1869 -3.94126)
(91.6986 -38.9732 26.5248)
(85.9334 -44.1419 -6.01441)
(85.7595 -48.9498 -17.1682)
(79.9427 -9.18415 22.5683)
(82.2208 -54.3356 15.5361)
(79.0202 -59.4512 -12.7496)
(80.9106 -42.6999 4.10812)
(82.9547 -24.5908 15.6047)
(88.4998 -20.9709 21.2022)
(88.2984 -16.4009 -7.20191)
(87.9609 -12.1445 -19.4891)
(86.6108 -38.6882 -6.40952)
(86.5945 -25.8839 14.198)
(81.0229 -8.6803 10.1583)
(81.2112 8.30385 7.95054)
(84.8164 16.9133 11.3458)
(79.4267 -16.3131 27.6606)
(79.8509 -34.1716 10.9274)
(76.828 -30.0866 11.4027)
(76.0551 -9.18587 -7.14943)
(74.8877 11.7291 9.5349)
(77.0526 29.4382 41.2491)
(71.2057 9.95073 14.4304)
(68.4535 44.0824 28.2477)
(71.4865 45.1769 29.0638)
(70.9182 55.9544 25.2154)
(70.2637 52.8629 20.0313)
(62.2862 63.7801 15.4795)
(68.3606 49.316 7.69728)
(66.7776 42.1458 35.3739)
(69.3669 61.2295 7.07383)
(63.9148 54.9214 47.1897)
(64.6061 16.5891 29.4703)
(67.8937 -7.02992 12.1979)
(69.3805 1.14597 -30.7593)
(65.0898 20.0199 -37.2757)
(60.9524 22.2562 -5.61374)
(63.3624 14.4221 -49.3815)
(68.8664 -0.516033 -42.9428)
(65.6444 9.92941 -63.0001)
(60.7245 4.02045 -7.09843)
(62.7848 8.75214 -15.1336)
(62.8742 18.3328 -6.11449)
(63.1775 13.2283 -1.1033)
(58.1426 -19.5379 36.9224)
(54.4554 -10.2111 59.2317)
(53.5438 18.2876 48.3151)
(57.1466 40.8454 47.5087)
(56.0219 43.6278 19.3768)
(55.7193 42.1089 33.1618)
(62.6655 40.6328 21.7595)
(60.4982 24.9816 30.5605)
(55.7308 -11.2533 -3.98871)
(58.4449 30.8293 -23.2106)
(55.8802 41.7703 -20.6773)
(52.2901 52.0007 -48.5136)
(49.3331 35.1552 -76.2529)
(50.5402 13.0209 -53.1024)
(48.919 55.7347 -70.0672)
(46.4075 57.9188 -51.9853)
(46.4801 81.6935 -44.7978)
(42.1155 70.3017 -26.9316)
(43.6034 20.8869 -39.1457)
(39.8463 47.637 -69.9284)
(41.1654 35.4762 -91.9892)
(36.9252 42.5474 -61.9921)
(34.4697 29.7263 -42.1554)
(35.7902 0.0235012 -76.4092)
(35.6713 18.8293 -53.4197)
(32.1922 23.9249 -23.1646)
(29.2267 27.4559 -30.4)
(32.0379 27.4212 -55.3176)
(30.4342 -23.0324 -15.9943)
(31.3482 37.5659 -7.61548)
(28.4823 11.6988 -15.0999)
(25.9886 2.77745 -18.0354)
(23.4665 -16.6202 -33.9996)
(21.391 -29.8694 0.518599)
(20.4692 -27.456 -0.566901)
(19.2566 -6.58722 18.041)
(14.6385 27.9006 17.358)
(14.2024 35.1556 -11.9844)
(14.4306 37.804 -3.30012)
(14.1654 56.9193 -31.4789)
(12.6089 76.5647 -13.7554)
(9.8673 68.5169 -32.4192)
(6.80089 102.407 -35.2385)
(5.45141 91.6248 16.5405)
(4.23897 91.8959 5.35882)
(2.17131 84.5585 4.44601)
(2.46285 96.7124 41.6337)
(2.04106 98.0438 66.6604)
(1.52439 113.141 56.8315)
(2.85172 91.2968 37.4495)
(3.9335 88.645 44.6001)
(5.20166 88.3707 44.6581)
(4.52732 112.456 17.1427)
(4.90469 60.0676 13.971)
(5.52279 63.7133 10.4096)
(3.45677 75.6073 9.00848)
(2.40826 15.1804 20.2012)
(-0.182055 24.0692 35.0813)
(1.64704 17.5436 44.889)
(2.20421 31.6059 72.8168)
(2.25416 21.5043 62.3191)
(1.47329 10.2031 52.7781)
(-0.733736 -4.21949 34.7682)
(0.153636 -23.9202 103.219)
(-1.08247 -28.8888 81.4763)
(-1.07194 -8.97489 41.0773)
(-3.70961 -15.9032 27.4228)
(-2.5883 -19.585 22.1121)
(-1.20198 -26.4996 19.2497)
(-0.753414 -3.0105 40.3325)
(-1.39863 24.3613 22.8017)
(-3.2462 27.0673 11.9313)
(-2.48193 46.2265 17.5915)
(0.68945 69.0556 13.6069)
(-0.148393 61.5828 1.68966)
(0.0642683 45.9584 -7.78877)
(0.0129901 79.6249 -6.38156)
(-0.340704 126.047 -46.4453)
(-1.80537 120.115 -27.2763)
(-2.20616 110.379 -48.8259)
(-0.00670419 83.0766 -63.5335)
(-0.834613 57.9845 -71.8193)
(-0.344833 34.8189 -51.4325)
(0.45313 56.9066 -55.3658)
(-1.50964 71.0455 -68.5844)
(-1.58812 38.7477 -26.532)
(-1.71774 42.9181 -27.933)
(-0.966149 51.7446 -23.3932)
(-0.657822 29.7517 -7.38446)
(0.426905 51.1744 -27.5689)
(0.312509 18.3623 9.055)
(3.17677 52.906 -9.12447)
(1.78887 45.5906 -9.58047)
(-1.46943 47.3767 -5.65408)
(-2.67997 54.0781 -22.4567)
(-2.91079 6.84478 -3.97344)
(-2.58592 -26.2858 -43.8913)
(-4.03358 -40.7556 -27.3743)
(-3.75746 -61.7461 -13.5592)
(-1.86057 -40.5893 23.0043)
(-1.7872 -37.3816 49.7965)
(-2.71136 -57.3449 74.5216)
(-2.79871 -68.9658 85.4442)
(-1.99288 -34.0823 63.8752)
(-2.59713 -65.3495 55.4924)
(-2.89597 -49.4535 37.981)
(-3.03336 -62.4745 50.8813)
(-2.49376 -33.4087 22.7834)
(-1.78681 -48.0259 19.2648)
(-3.99582 -19.2509 39.6375)
(-3.10049 -37.1409 8.85284)
(-3.62181 -26.1385 41.8362)
(-5.30606 -38.1649 10.0004)
(-5.99194 -37.2636 27.4725)
(-7.08205 -34.2531 35.1436)
(-8.66709 -62.0024 19.7597)
(-8.10106 -60.2804 37.1457)
(-7.41977 -31.7789 26.7275)
(-4.62551 -13.1173 34.2953)
(-4.45917 -32.788 37.8978)
(-4.57514 -14.4376 38.1204)
(-4.17293 -22.1356 59.8509)
(-4.57164 -18.6259 78.2399)
(-5.88407 -58.2126 41.6207)
(-6.41184 -47.877 29.8351)
(-6.55049 -31.251 -19.1006)
(-7.31023 -42.06 -36.6262)
(-6.84561 -64.607 -9.97311)
(-5.83634 -71.7686 -35.7216)
(-6.74366 -57.0128 -49.1676)
(-5.60267 -18.2021 -4.21386)
(-5.83465 -16.5098 5.12878)
(-7.31991 6.64868 -0.568992)
(-7.53182 -21.7646 9.83528)
(-9.91831 -60.2423 35.0559)
(-7.79826 -78.4992 44.9132)
(-10.5476 -62.8287 13.7044)
(-9.56507 -66.2982 1.88734)
(-8.18868 -23.7919 -25.7138)
(-8.92255 -12.6703 18.637)
(-9.35728 9.80981 6.37848)
(-11.1307 44.8664 38.5531)
(-9.77265 55.8376 41.1425)
(-12.1656 57.6526 36.2422)
(-11.707 66.3635 14.5102)
(-9.09326 45.5064 28.2716)
(-6.33968 26.5858 51.5512)
(-7.70183 77.4101 65.607)
(-6.89308 50.4892 25.4653)
(-8.18219 78.9023 64.6425)
(-9.90013 43.9749 46.1853)
(-9.31818 31.2865 40.8944)
(-6.87943 29.6404 47.1473)
(-5.47679 56.2243 35.9209)
(-5.73137 6.72825 12.7204)
(-4.73953 6.24591 13.8761)
(-6.35 2.58427 18.621)
(-6.29701 -13.9488 19.7513)
(-5.45472 21.6704 51.4287)
(-6.41478 43.7878 54.3262)
(-5.99507 -8.4876 61.7248)
(-8.15791 -57.772 47.0914)
(-9.56567 -33.1897 28.8545)
(-8.21166 -13.8575 50.9921)
(-6.10298 -20.864 64.4592)
(-4.30531 -24.2858 82.2202)
(-3.60436 -19.6704 95.1793)
(0.574313 -14.491 121.985)
(1.05148 -3.39571 87.3181)
(1.09234 14.3013 102.732)
(-0.611496 30.5045 122.156)
(-3.8453 16.7665 114.337)
(-5.53451 7.74788 111.776)
(-5.47997 -1.97897 76.161)
(-5.00319 -6.7343 78.3634)
(-5.42278 -8.64439 85.2368)
(-6.72362 -35.8245 82.8024)
(-6.80315 -40.0709 50.8133)
(-9.11199 -10.86 58.5977)
(-8.96122 -10.6126 45.3642)
(-9.19135 -56.8087 58.4646)
(-10.3076 -62.6863 75.1523)
(-10.5853 -72.846 63.5714)
(-9.89452 -67.1874 46.5703)
(-11.8248 -116.444 32.0103)
(-8.98859 -115.695 9.34475)
(-7.61096 -103.339 -7.89079)
(-6.63983 -40.3659 37.9979)
(-5.33727 -35.8809 38.1766)
(-4.73829 -31.3073 58.58)
(-4.6136 -34.192 19.7504)
(-4.00457 12.5705 -25.7558)
(-4.85044 17.2141 -34.7811)
(-4.15655 13.3829 -31.3791)
(-4.3553 30.673 2.19997)
(-5.81928 45.2489 -12.588)
(-4.12279 18.0322 35.9415)
(-3.41837 29.988 45.1795)
(-0.86265 33.3114 -2.90031)
(-1.40395 17.2081 -23.3008)
(-2.83072 -0.649757 -26.2996)
(-3.50394 -12.8817 -31.3652)
(-1.76132 -18.2882 -20.9118)
(-0.320771 28.557 -2.24045)
(-0.445688 46.1407 -33.2234)
(0.893622 73.3765 -71.4744)
(0.452532 38.852 -81.0957)
(2.44999 7.99605 -105.693)
(2.05388 -9.41682 -108.369)
(2.21903 31.75 -81.9043)
(3.25057 -19.1523 -76.9942)
(3.42506 -15.8843 -64.3298)
(4.07722 9.45108 -75.0855)
(4.04653 -27.9995 -68.0208)
(2.55626 -26.9881 -47.6075)
(2.03794 -1.59177 1.97071)
(1.12607 13.2471 -19.8073)
(0.354749 12.5705 -13.943)
(-0.98123 30.5251 -5.33878)
(1.32998 28.1731 7.33642)
(2.99167 19.1311 1.40073)
(2.94976 10.9626 -28.833)
(2.6755 4.9662 16.7757)
(3.03442 25.4525 19.1702)
(2.94281 -6.04846 3.0244)
(1.17526 -39.184 -25.343)
(0.0220534 -29.6215 -42.8467)
(-3.55463 -33.3959 -31.7409)
(-5.29523 -31.4351 -20.7511)
(-4.35596 11.3643 2.59552)
(-4.55905 -32.8887 9.1481)
(-4.77076 -11.9568 1.21415)
(-5.76596 0.0408476 -14.1164)
(-3.72355 -15.9716 22.3569)
(-3.68858 18.9539 -18.8129)
(-2.85032 27.1696 3.77102)
(-3.328 44.6299 -27.2894)
(-3.15754 60.8757 -22.6789)
(-4.11646 41.9301 -16.2304)
(-6.74763 98.2401 -42.4482)
(-8.25408 78.8865 -3.5112)
(-9.11893 70.7067 -20.3886)
(-10.1371 46.0464 17.3592)
(-10.4953 31.0586 24.2646)
(-10.2789 43.8992 8.44036)
(-8.1209 39.1798 5.94233)
(-7.96879 44.2202 5.55333)
(-9.44698 4.84622 19.3544)
(-7.20762 1.60172 -8.85658)
(-6.67713 21.6797 10.8651)
(-8.81676 -4.53136 27.5596)
(-9.58468 -15.8227 3.83784)
(-7.09959 20.6323 11.5498)
(-6.85873 13.4635 14.2815)
(-5.43478 9.53617 22.9988)
(-5.14731 19.2254 -9.19053)
(-4.51874 31.263 17.0913)
(-4.51063 34.4185 -4.82087)
(-6.72851 48.8907 -37.5089)
(-5.9362 61.3329 -21.5662)
(-7.35321 72.2135 -21.5502)
(-8.3188 60.5204 -19.7426)
(-8.64883 76.7003 -29.6354)
(-7.96792 92.9787 -6.82849)
(-6.97987 81.2814 -16.8867)
(-6.46645 29.4052 3.0886)
(-6.31868 25.2772 5.67418)
(-7.11001 17.6374 -35.7795)
(-6.06008 46.194 -52.4036)
(-4.86719 44.9187 -15.2885)
(-6.25265 27.9855 45.599)
(-7.69407 54.8195 47.224)
(-5.45248 100.026 14.3723)
(-5.06237 35.6331 12.8095)
(-6.65138 1.01405 41.0781)
(-5.17719 -15.1094 59.3488)
(-5.20904 31.3041 34.5051)
(-4.22222 27.5687 38.7108)
(-3.02053 15.9439 44.095)
(-3.17477 9.46835 27.5465)
(-3.52056 -32.6906 -17.2914)
(-2.86074 -22.6361 -36.163)
(-3.56461 -24.2993 -3.11459)
(-7.76389 -12.9444 -37.699)
(-8.00066 -16.6014 -22.7496)
(-8.84853 16.0368 -10.4178)
(-5.80894 16.8302 -27.1859)
(-6.01927 0.533694 -19.2255)
(-4.98633 4.76118 -18.827)
(-4.14226 19.2094 -20.7557)
(-2.58926 62.9658 -11.8302)
(-1.58271 67.1536 5.07141)
(-1.21485 77.0801 -22.2264)
(-2.8055 43.5887 3.56409)
(-3.37866 47.684 10.1988)
(-3.53211 50.3626 -19.2028)
(-3.49292 39.5472 -56.549)
(-1.43264 7.18628 -85.4605)
(-3.01874 -5.27604 -116.5)
(-3.3461 3.58295 -125.338)
(-3.92649 2.58769 -102.921)
(-4.17656 -1.03497 -85.1784)
(-1.68523 20.75 -63.0556)
(0.540993 -16.1872 -49.8377)
(2.85604 -30.1349 -63.7811)
(4.16115 -26.2853 -18.2541)
(4.52853 -27.4946 -16.7166)
(3.90533 -16.6523 -7.89457)
(3.45566 -23.7726 -10.1625)
(4.26102 -11.892 7.57858)
(3.81427 -44.046 16.4305)
(4.30196 -55.1959 13.5376)
(4.00672 -64.5235 21.4489)
(2.93446 -73.5366 11.0558)
(1.30501 -62.7095 -1.50811)
(1.00003 -55.6924 -28.751)
(-0.182921 -48.8688 -20.0764)
(0.122543 -86.3539 -23.4844)
(1.9125 -83.2182 -67.5916)
(3.46296 -60.8198 -47.396)
(5.33515 -78.2217 -37.398)
(3.77727 -93.3443 -12.5119)
(3.929 -88.2959 29.9629)
(2.29702 -69.4123 43.522)
(0.278999 -86.5337 78.1966)
)
;

boundaryField
{
    sides
    {
        type            symmetry;
    }
    empty
    {
        type            empty;
    }
}


// ************************************************************************* //
