/*--------------------------------*- C++ -*----------------------------------*\
  =========                 |
  \\      /  F ield         | OpenFOAM: The Open Source CFD Toolbox
   \\    /   O peration     | Website:  https://openfoam.org
    \\  /    A nd           | Version:  7
     \\/     M anipulation  |
\*---------------------------------------------------------------------------*/
FoamFile
{
    version     2.0;
    format      ascii;
    class       volScalarField;
    location    "0.005";
    object      dsmcSigmaTcRMax;
}
// * * * * * * * * * * * * * * * * * * * * * * * * * * * * * * * * * * * * * //

dimensions      [0 3 -1 0 0 0 0];

internalField   nonuniform List<scalar> 
1000
(
9.17175e-16
9.16324e-16
9.2558e-16
9.32433e-16
8.99103e-16
9.30822e-16
9.68774e-16
9.20531e-16
9.09741e-16
9.06619e-16
9.20101e-16
9.08507e-16
9.23838e-16
8.99801e-16
9.1285e-16
9.11287e-16
9.30638e-16
9.32686e-16
9.1803e-16
9.89653e-16
9.58698e-16
9.13609e-16
9.14218e-16
9.65433e-16
9.12228e-16
9.30549e-16
9.03832e-16
9.04642e-16
9.41699e-16
9.32446e-16
9.36079e-16
9.59201e-16
9.51331e-16
8.95828e-16
9.25072e-16
9.52337e-16
9.16717e-16
9.13249e-16
1.01396e-15
9.31441e-16
9.11415e-16
8.89934e-16
9.34404e-16
8.88982e-16
9.10545e-16
9.1414e-16
9.56672e-16
9.64469e-16
9.24009e-16
9.34791e-16
9.18206e-16
9.09265e-16
8.93985e-16
9.04431e-16
9.26464e-16
8.84865e-16
9.16044e-16
9.47445e-16
9.31985e-16
9.27466e-16
9.21027e-16
9.15731e-16
8.91758e-16
9.12885e-16
9.31469e-16
9.23117e-16
9.21983e-16
8.9992e-16
9.48162e-16
9.82849e-16
8.98556e-16
9.24412e-16
9.0381e-16
9.11779e-16
9.33911e-16
9.45204e-16
9.08708e-16
9.67326e-16
8.97042e-16
9.29771e-16
9.06278e-16
9.61096e-16
9.23133e-16
9.78539e-16
9.43865e-16
9.21823e-16
9.24686e-16
9.24174e-16
9.23519e-16
9.70178e-16
9.46856e-16
9.31085e-16
9.25634e-16
9.18484e-16
9.76312e-16
9.22577e-16
9.20527e-16
9.09259e-16
9.16115e-16
9.24408e-16
9.02819e-16
9.1225e-16
9.25172e-16
9.52848e-16
9.25722e-16
9.97484e-16
9.04627e-16
9.4158e-16
9.21751e-16
9.51035e-16
9.11196e-16
9.12521e-16
9.39591e-16
9.17069e-16
9.77262e-16
9.0157e-16
8.81548e-16
9.27112e-16
8.97181e-16
9.58703e-16
9.32682e-16
9.04165e-16
9.18175e-16
9.00585e-16
9.01043e-16
9.15618e-16
8.97812e-16
9.09667e-16
9.27213e-16
8.97396e-16
9.42321e-16
9.18481e-16
9.23894e-16
9.38489e-16
9.06375e-16
9.11515e-16
9.20454e-16
9.10235e-16
9.37517e-16
9.31185e-16
9.20877e-16
9.09613e-16
9.38555e-16
9.60366e-16
9.25314e-16
9.18394e-16
9.44495e-16
9.41694e-16
9.38275e-16
9.34007e-16
9.24577e-16
9.30797e-16
9.27558e-16
9.32179e-16
9.67365e-16
9.2631e-16
9.19056e-16
9.82488e-16
9.30968e-16
8.93158e-16
9.44766e-16
9.54109e-16
9.45575e-16
9.0813e-16
9.30506e-16
9.0914e-16
9.23365e-16
9.43327e-16
9.03229e-16
9.17873e-16
9.57923e-16
9.55451e-16
8.9548e-16
9.17387e-16
9.14999e-16
9.05126e-16
9.63268e-16
9.2978e-16
8.94007e-16
9.32605e-16
9.49475e-16
9.03285e-16
9.15471e-16
9.26616e-16
9.0386e-16
9.18778e-16
9.2764e-16
8.9454e-16
9.10994e-16
9.20037e-16
9.17489e-16
8.97458e-16
9.32883e-16
9.33714e-16
9.45061e-16
9.15013e-16
9.45188e-16
9.24622e-16
8.93339e-16
9.20266e-16
9.23708e-16
9.04492e-16
8.98687e-16
9.09347e-16
8.95477e-16
9.12081e-16
9.37093e-16
9.50897e-16
9.03706e-16
9.15541e-16
9.10854e-16
9.07632e-16
9.14413e-16
8.96801e-16
9.27604e-16
8.94857e-16
9.09766e-16
9.51146e-16
9.09723e-16
9.45168e-16
9.36878e-16
9.04399e-16
9.28102e-16
9.07989e-16
9.29112e-16
9.36782e-16
9.24455e-16
9.27065e-16
9.26415e-16
8.9693e-16
9.05123e-16
9.28178e-16
9.03983e-16
9.31182e-16
9.22468e-16
9.54634e-16
9.26419e-16
9.18847e-16
9.18557e-16
9.21025e-16
9.24543e-16
8.92883e-16
9.25401e-16
9.1646e-16
9.56521e-16
9.1498e-16
9.42291e-16
9.46597e-16
9.07074e-16
9.60785e-16
9.1847e-16
9.16874e-16
9.12792e-16
9.76469e-16
9.33078e-16
9.34259e-16
8.91257e-16
9.12563e-16
9.39504e-16
9.30537e-16
9.35464e-16
9.15231e-16
9.12171e-16
9.42887e-16
9.27164e-16
9.19428e-16
9.05557e-16
9.2677e-16
9.09577e-16
9.0575e-16
9.0275e-16
9.45834e-16
9.34671e-16
9.49437e-16
9.14139e-16
9.1129e-16
8.91468e-16
9.33307e-16
1.02317e-15
9.53538e-16
9.19892e-16
9.35221e-16
9.11558e-16
9.33409e-16
9.24356e-16
9.49319e-16
9.47736e-16
9.0467e-16
9.0164e-16
9.206e-16
9.42409e-16
9.45308e-16
9.14447e-16
9.20121e-16
9.09027e-16
9.03606e-16
9.265e-16
9.07114e-16
8.84505e-16
9.11353e-16
9.06673e-16
9.22239e-16
9.08941e-16
9.21853e-16
9.18118e-16
9.04143e-16
9.33804e-16
9.47556e-16
9.65875e-16
9.46917e-16
9.55734e-16
9.1432e-16
8.95206e-16
9.00892e-16
9.51892e-16
9.38991e-16
9.00796e-16
9.01508e-16
8.84356e-16
9.00013e-16
9.75733e-16
8.9928e-16
9.63459e-16
9.38181e-16
9.257e-16
9.25497e-16
9.37256e-16
9.09814e-16
9.22196e-16
8.98871e-16
9.15305e-16
9.22829e-16
9.01188e-16
9.01258e-16
9.17096e-16
8.9594e-16
9.0799e-16
8.88994e-16
8.9767e-16
9.04621e-16
9.28703e-16
9.36205e-16
9.0861e-16
9.35109e-16
9.22866e-16
8.85161e-16
9.90354e-16
9.15896e-16
9.17023e-16
9.19333e-16
9.15675e-16
8.92255e-16
8.90946e-16
8.87507e-16
9.42252e-16
9.18789e-16
8.80191e-16
9.84506e-16
9.05609e-16
8.92237e-16
9.29364e-16
9.3309e-16
9.26827e-16
9.02089e-16
9.36558e-16
9.31237e-16
9.17935e-16
9.15185e-16
9.32686e-16
9.04622e-16
9.30593e-16
9.24206e-16
9.05432e-16
8.72054e-16
8.92021e-16
9.02282e-16
9.57469e-16
9.46665e-16
9.33411e-16
9.42079e-16
9.10361e-16
8.83862e-16
9.1117e-16
9.23161e-16
9.28619e-16
9.2094e-16
9.16787e-16
9.21294e-16
9.10623e-16
8.9936e-16
8.95182e-16
9.33662e-16
9.21615e-16
8.82945e-16
8.92281e-16
9.13352e-16
9.22656e-16
9.20672e-16
9.03319e-16
9.01759e-16
9.09156e-16
9.02187e-16
9.34252e-16
8.94879e-16
8.96137e-16
8.84345e-16
9.01127e-16
9.02887e-16
9.10655e-16
9.25983e-16
9.18943e-16
9.05197e-16
9.37583e-16
8.71407e-16
8.94577e-16
9.00252e-16
9.09432e-16
8.9435e-16
8.9792e-16
9.41095e-16
9.04152e-16
8.89699e-16
9.18587e-16
8.72979e-16
8.8413e-16
9.23019e-16
8.84918e-16
8.78079e-16
8.7117e-16
8.90895e-16
9.19829e-16
9.31483e-16
9.03659e-16
8.90773e-16
8.9375e-16
9.00322e-16
8.78427e-16
9.27397e-16
8.75597e-16
8.7521e-16
8.77038e-16
8.85924e-16
8.82657e-16
9.08978e-16
8.95801e-16
8.9778e-16
8.85039e-16
9.58074e-16
8.98232e-16
8.80262e-16
8.70908e-16
8.76019e-16
8.88528e-16
8.74167e-16
8.91567e-16
8.72072e-16
8.73814e-16
8.70499e-16
8.89201e-16
8.92441e-16
8.73822e-16
9.22984e-16
8.86064e-16
8.91337e-16
9.23345e-16
8.71808e-16
9.08057e-16
8.98595e-16
8.94405e-16
8.83448e-16
8.69386e-16
9.30354e-16
8.70329e-16
8.98441e-16
9.19487e-16
9.32091e-16
8.79799e-16
8.63542e-16
8.86158e-16
8.77412e-16
8.59197e-16
8.62781e-16
9.31744e-16
8.80779e-16
8.6046e-16
8.38715e-16
8.93124e-16
8.51994e-16
8.51484e-16
8.50643e-16
8.49133e-16
8.74581e-16
8.5419e-16
8.69712e-16
8.33065e-16
8.57354e-16
8.46458e-16
8.59552e-16
8.44303e-16
8.60663e-16
8.225e-16
8.26616e-16
8.09048e-16
9.1068e-16
8.15847e-16
8.22212e-16
8.43162e-16
8.31552e-16
8.08526e-16
8.2393e-16
8.50199e-16
8.89764e-16
8.51716e-16
8.65039e-16
8.30191e-16
8.30858e-16
8.33832e-16
8.02087e-16
8.66982e-16
8.70949e-16
8.44708e-16
8.26253e-16
8.33441e-16
8.23594e-16
8.11178e-16
8.02388e-16
8.52113e-16
8.36793e-16
8.59784e-16
8.41737e-16
8.20092e-16
8.61825e-16
8.2025e-16
8.69144e-16
8.19969e-16
8.03678e-16
8.71022e-16
8.56915e-16
8.2414e-16
8.40847e-16
8.27841e-16
8.18831e-16
8.13637e-16
8.79878e-16
8.51894e-16
8.44636e-16
8.32837e-16
8.37872e-16
8.20173e-16
8.02574e-16
8.1372e-16
8.45668e-16
8.16301e-16
8.20952e-16
8.31399e-16
8.3501e-16
8.41783e-16
8.1313e-16
8.6227e-16
8.33255e-16
8.67575e-16
8.13594e-16
8.19309e-16
8.18435e-16
8.27665e-16
8.29174e-16
8.02783e-16
8.14305e-16
8.54953e-16
8.70503e-16
8.78465e-16
7.99424e-16
8.17546e-16
8.76516e-16
8.23848e-16
8.38264e-16
8.4396e-16
8.53527e-16
8.14511e-16
8.06102e-16
8.94e-16
8.13457e-16
7.96526e-16
8.3445e-16
8.27439e-16
8.06044e-16
8.58586e-16
8.58369e-16
8.20483e-16
7.88939e-16
7.9719e-16
8.25565e-16
8.43198e-16
8.46753e-16
8.07649e-16
8.19321e-16
8.16073e-16
8.31793e-16
8.226e-16
8.61237e-16
7.88362e-16
8.11263e-16
8.51865e-16
8.23353e-16
8.33582e-16
8.17989e-16
8.1711e-16
7.96812e-16
8.14862e-16
8.12439e-16
8.13467e-16
8.14005e-16
8.26447e-16
8.38645e-16
8.11981e-16
8.35824e-16
8.25435e-16
8.65173e-16
7.93935e-16
7.92591e-16
8.39061e-16
8.13265e-16
8.12694e-16
7.80132e-16
8.1703e-16
8.14601e-16
8.00837e-16
8.38112e-16
8.66109e-16
8.05655e-16
8.09088e-16
7.87636e-16
8.40867e-16
8.30446e-16
7.99364e-16
7.76829e-16
8.15485e-16
8.07243e-16
7.95523e-16
7.90575e-16
7.9837e-16
7.96633e-16
8.29771e-16
7.94669e-16
8.49278e-16
8.19122e-16
8.12703e-16
8.01423e-16
8.15212e-16
8.45288e-16
7.85707e-16
7.96515e-16
8.33262e-16
7.95857e-16
7.9971e-16
8.28763e-16
8.11823e-16
8.17857e-16
8.0378e-16
8.1309e-16
7.89713e-16
7.72615e-16
8.02738e-16
8.17787e-16
7.90188e-16
7.97161e-16
7.85844e-16
8.3301e-16
7.98915e-16
8.32491e-16
8.06352e-16
7.62264e-16
7.84239e-16
7.9932e-16
8.10801e-16
7.45053e-16
7.74871e-16
7.92681e-16
7.69296e-16
7.72551e-16
7.83811e-16
7.75736e-16
7.63016e-16
7.78686e-16
7.89131e-16
7.7308e-16
7.59762e-16
7.43672e-16
7.76418e-16
8.0754e-16
7.57064e-16
7.71932e-16
7.59738e-16
7.87206e-16
7.55992e-16
7.68695e-16
7.53672e-16
7.79436e-16
7.59095e-16
7.45528e-16
7.39043e-16
7.76971e-16
7.64818e-16
7.89079e-16
7.63403e-16
7.54673e-16
8.15836e-16
7.62248e-16
7.48654e-16
7.53922e-16
7.64259e-16
7.42117e-16
7.31512e-16
7.65435e-16
7.29845e-16
7.7194e-16
7.49198e-16
7.65498e-16
7.45893e-16
7.44484e-16
7.65925e-16
8.13094e-16
7.73376e-16
7.31401e-16
7.82876e-16
7.45128e-16
7.41441e-16
7.68053e-16
7.33362e-16
7.52985e-16
7.46486e-16
7.53523e-16
7.37385e-16
7.35849e-16
7.31896e-16
7.15158e-16
7.27268e-16
7.33164e-16
7.37123e-16
7.51976e-16
7.4456e-16
7.32959e-16
7.80248e-16
7.30463e-16
7.27552e-16
7.56503e-16
7.25434e-16
7.4447e-16
7.34318e-16
7.30884e-16
7.43016e-16
7.59819e-16
7.52141e-16
7.34305e-16
7.48932e-16
7.39453e-16
7.72014e-16
7.40239e-16
7.24496e-16
7.16652e-16
7.35604e-16
7.33452e-16
7.82801e-16
7.2471e-16
7.33379e-16
7.18845e-16
7.17828e-16
7.24416e-16
7.24218e-16
7.46056e-16
7.48048e-16
7.84984e-16
7.26364e-16
7.4091e-16
7.8705e-16
7.53634e-16
7.3778e-16
7.52833e-16
7.46413e-16
7.42661e-16
7.60207e-16
7.34314e-16
7.17372e-16
7.51245e-16
7.46962e-16
7.6686e-16
7.11674e-16
7.484e-16
7.34571e-16
7.14434e-16
7.34995e-16
7.17583e-16
7.58465e-16
7.10038e-16
7.98711e-16
7.36884e-16
7.3798e-16
7.42959e-16
7.28222e-16
7.65167e-16
7.66443e-16
7.17978e-16
7.1211e-16
7.10266e-16
7.43819e-16
7.01205e-16
7.16156e-16
7.14943e-16
7.1306e-16
7.16202e-16
7.07179e-16
7.66874e-16
6.98741e-16
6.85229e-16
7.15894e-16
7.90155e-16
7.0195e-16
6.94449e-16
6.83298e-16
7.11153e-16
8.17111e-16
7.00836e-16
6.98425e-16
7.07569e-16
7.1553e-16
7.17543e-16
6.85676e-16
6.81045e-16
6.8744e-16
7.12981e-16
6.73199e-16
6.96584e-16
6.54061e-16
6.29008e-16
6.56316e-16
6.45421e-16
6.59306e-16
6.40658e-16
6.43086e-16
6.44475e-16
6.46405e-16
6.58012e-16
6.84443e-16
6.31577e-16
7.00546e-16
6.67541e-16
6.52496e-16
6.765e-16
6.68853e-16
6.49964e-16
6.712e-16
6.45231e-16
6.35016e-16
6.64514e-16
6.73841e-16
6.55359e-16
6.86701e-16
6.39345e-16
6.39411e-16
6.73116e-16
6.42162e-16
6.20938e-16
6.77154e-16
6.6486e-16
6.80662e-16
6.59577e-16
6.84943e-16
6.66803e-16
6.6228e-16
6.45987e-16
6.42443e-16
6.49785e-16
6.59421e-16
6.38846e-16
6.3974e-16
6.6272e-16
6.5423e-16
6.46572e-16
6.46699e-16
6.64458e-16
6.48028e-16
6.55986e-16
6.41686e-16
6.41825e-16
6.50891e-16
6.2514e-16
6.30967e-16
6.79902e-16
6.49857e-16
6.62265e-16
6.45542e-16
6.86944e-16
6.59508e-16
6.45825e-16
6.66753e-16
6.45295e-16
6.52171e-16
6.35056e-16
6.5454e-16
6.40012e-16
6.599e-16
6.64715e-16
6.88643e-16
6.41226e-16
6.30326e-16
6.56899e-16
6.30119e-16
6.25021e-16
6.36295e-16
6.52376e-16
6.75386e-16
6.54157e-16
6.6545e-16
6.61933e-16
6.89891e-16
6.54524e-16
6.33163e-16
6.37481e-16
6.73365e-16
6.71388e-16
6.31109e-16
6.65608e-16
6.55046e-16
6.61824e-16
6.50754e-16
6.68656e-16
6.59754e-16
6.53169e-16
6.5068e-16
6.58377e-16
6.70356e-16
6.44273e-16
6.80207e-16
6.94479e-16
6.73723e-16
6.44977e-16
6.77324e-16
6.50538e-16
6.4195e-16
6.52122e-16
6.54817e-16
6.74804e-16
6.27054e-16
6.58936e-16
6.50939e-16
6.39266e-16
6.6913e-16
6.65755e-16
6.46704e-16
6.9098e-16
6.74688e-16
6.53641e-16
6.53981e-16
6.26949e-16
6.56956e-16
6.47667e-16
6.48434e-16
6.35754e-16
6.53553e-16
6.52263e-16
6.46735e-16
6.56074e-16
6.50883e-16
6.6863e-16
6.54712e-16
6.7047e-16
6.45122e-16
6.58834e-16
6.94106e-16
6.74044e-16
6.56563e-16
6.32976e-16
6.36466e-16
6.68857e-16
7.00026e-16
6.60408e-16
6.46877e-16
6.48132e-16
6.75819e-16
6.38133e-16
6.39681e-16
6.37772e-16
6.59316e-16
6.61283e-16
6.26271e-16
6.6401e-16
6.83169e-16
6.7938e-16
6.5526e-16
6.64508e-16
6.5107e-16
6.51922e-16
6.44845e-16
6.32672e-16
6.40659e-16
6.7693e-16
6.69161e-16
6.46192e-16
6.54265e-16
6.71733e-16
)
;

boundaryField
{
    sides
    {
        type            symmetry;
    }
    empty
    {
        type            empty;
    }
}


// ************************************************************************* //
