/*--------------------------------*- C++ -*----------------------------------*\
  =========                 |
  \\      /  F ield         | OpenFOAM: The Open Source CFD Toolbox
   \\    /   O peration     | Website:  https://openfoam.org
    \\  /    A nd           | Version:  7
     \\/     M anipulation  |
\*---------------------------------------------------------------------------*/
FoamFile
{
    version     2.0;
    format      ascii;
    class       volScalarField;
    location    "0.005";
    object      dsmcRhoNMean;
}
// * * * * * * * * * * * * * * * * * * * * * * * * * * * * * * * * * * * * * //

dimensions      [0 -3 0 0 0 0 0];

internalField   nonuniform List<scalar> 
1000
(
2.4696
1.48
1.473
1.5486
2.6016
2.6028
1.6104
1.6086
1.7674
2.9414
1.9574
2.0964
3.093
1.8944
1.879
1.8376
1.6982
1.7382
1.873
1.8906
2.029
2.2444
3.2794
2.2932
2.287
1.9212
2.9136
1.895
1.8736
1.829
1.7968
2.821
2.5846
1.8476
1.8394
1.8466
2.8654
1.8506
1.9182
2.8916
1.8266
1.899
2.9522
1.9838
2.0216
2.018
2.0484
3.1284
2.2472
2.962
4.1648
2.112
3.1444
2.233
2.2244
3.232
3.212
4.1906
3.2032
2.2136
2.2346
3.28
2.2766
2.261
2.514
2.528
3.5768
2.55
2.5048
3.505
2.5024
2.521
2.4522
2.3746
2.4282
2.4654
3.4788
3.4964
2.4648
2.3886
2.3404
2.3014
3.287
3.3752
3.5282
2.4318
2.4274
2.3504
2.1948
2.1222
2.1396
2.2512
2.3024
3.2214
2.6262
2.7964
2.2808
2.4592
2.434
3.317
2.3186
2.47
2.4096
2.4344
2.4408
2.3894
2.271
2.283
3.2096
2.8656
2.6252
2.6846
2.7224
3.583
3.0272
3.1282
3.1342
3.0202
3.765
3.6606
2.6422
3.6972
2.6926
2.6878
2.6876
3.6774
3.6708
3.6194
2.6106
2.5714
4.801
2.959
2.9262
2.6438
4.584
2.6344
3.5946
3.5294
2.5182
3.3024
2.5792
2.6242
2.6372
2.8302
3.9448
2.791
2.7996
2.6442
2.5676
2.6226
3.6368
2.6178
2.637
2.6784
3.6994
4.1598
3.363
3.3158
4.3262
3.0836
2.738
3.7
2.7228
2.8072
2.791
3.7642
3.6686
2.636
2.6832
2.7234
2.858
3.981
2.9276
2.9122
3.8568
2.867
3.8616
2.9066
2.7762
2.8124
3.7342
3.7098
4.7386
2.7382
2.5522
2.5344
3.5672
2.5572
3.588
2.6262
2.7224
2.7526
4.7798
3.7986
2.862
2.8832
3.8516
2.8852
2.9632
2.9362
3.052
3.2704
4.2058
3.2812
3.3012
3.2976
3.417
4.4202
5.4506
4.2008
2.943
2.9224
2.9336
2.9838
3.987
4.0042
4.0542
4.0496
3.1042
4.0784
3.1194
3.0344
3.1574
3.2114
3.2382
3.242
3.1188
4.0912
3.096
4.134
3.107
3.1248
3.1196
4.0968
3.0622
3.1394
3.7038
3.8286
3.7752
3.6452
3.5046
3.3366
3.5122
4.3634
3.2166
4.4156
3.5346
3.5308
4.3426
4.204
3.0934
3.7206
2.8364
2.8358
2.8692
2.8152
2.7356
2.7888
2.7314
2.6358
2.6478
2.6884
2.6944
2.7032
3.7294
2.7532
2.7248
2.6802
2.6776
2.7308
2.7486
2.7926
2.7992
2.8014
2.7966
2.823
2.8422
2.8646
2.8512
2.8638
2.8432
5.8182
2.786
2.7812
2.7728
2.7704
2.7848
2.7938
2.7376
3.7952
2.7392
2.7396
2.7342
2.6752
3.6544
2.7074
2.809
3.9108
3.8688
2.8638
4.7888
2.8194
2.8266
2.8234
3.9154
2.9118
2.9358
2.9826
3.0814
3.0358
3.0418
3.0796
3.0528
3.0076
2.8868
2.8686
2.9296
3.988
3.1508
3.1752
3.1812
3.1838
3.135
3.1116
4.1016
3.0052
4.9102
3.0314
4.4766
3.5414
4.194
3.1718
3.2724
4.3168
3.3062
4.2984
3.2854
3.285
3.2678
4.2042
3.0744
5.0754
3.1948
3.1744
4.1674
3.2278
3.4624
3.4782
3.4754
3.1938
3.0612
3.01
2.9644
2.9726
4.0664
3.0744
4.0556
2.9594
2.9356
2.9348
2.9876
3.1102
3.1942
4.1898
3.2186
4.21
3.9766
3.9258
3.0328
3.1674
3.3272
3.4086
3.3824
4.3498
3.4114
3.3984
4.3842
3.34
3.2846
3.2948
3.248
3.1358
3.1354
3.1442
3.1616
3.1506
3.1612
3.1668
4.1668
4.1242
4.136
4.3856
3.4174
3.385
4.244
3.0084
3.9644
2.8922
3.8978
3.9206
3.8964
3.0602
3.1354
3.1786
4.1102
3.0974
4.1398
3.006
2.8592
3.8882
4.8704
4.0312
3.0362
4.0524
2.993
4.0072
3.9768
4.1198
2.9382
3.0466
3.2822
4.2412
3.018
2.8984
2.8244
2.7426
2.7466
3.2606
4.232
2.7788
2.6652
2.6
2.6082
2.6216
2.5818
2.7832
2.6732
3.6982
3.6686
2.674
2.523
2.9622
3.1192
2.4892
2.4572
3.4562
2.461
3.4344
2.4752
2.5004
3.5026
2.554
2.553
2.5602
2.5184
2.5016
2.5314
2.4836
2.4588
3.4568
4.6294
2.8356
3.102
3.1142
2.8536
2.863
2.681
2.6324
2.6442
4.6486
4.6988
3.7054
2.6982
2.8908
2.9708
3.9728
2.939
2.956
3.0372
3.2342
2.873
2.7654
3.7816
3.763
2.6556
3.699
2.798
2.7986
2.751
2.6944
2.6794
2.7078
3.1818
3.596
2.992
4.0016
2.756
4.753
2.7276
2.754
2.8402
3.8122
2.9184
3.0874
3.0888
4.0944
3.0994
2.8696
3.0242
3.1998
3.3624
3.5614
3.3114
4.1332
2.9412
3.2072
4.248
3.2526
3.3682
4.2832
3.2692
3.093
2.8984
2.9082
2.8736
2.9018
2.9552
2.9456
4.9372
2.891
2.9538
2.8614
5.8504
3.8876
2.8724
2.745
2.7556
4.7378
2.7204
3.7004
2.7154
2.7694
3.8968
2.876
2.855
3.1034
3.3326
3.2988
4.1816
2.819
2.7508
4.8876
3.5102
2.9162
2.6956
3.5954
3.642
2.9246
3.0748
3.003
2.8022
2.8898
2.934
3.9784
3.979
2.9414
2.959
3.9908
3.6428
3.8082
3.3262
3.341
4.4654
3.5424
4.4622
3.4348
3.6942
3.6502
3.607
3.3202
3.2788
3.3718
3.4118
3.4144
3.3282
4.2076
5.2076
3.449
4.472
3.5472
3.5326
3.4706
3.4658
3.5212
3.3632
3.3052
3.3102
3.3572
3.3352
3.2622
4.1282
3.1234
3.08
3.0774
4.0076
2.8948
4.7332
3.7092
2.8534
2.8136
2.8428
3.8652
2.8404
2.8366
2.743
3.7908
2.8196
2.809
2.744
2.7278
2.7718
3.7774
2.7382
2.707
3.004
5.2042
3.2206
3.2484
3.0976
3.8492
2.907
2.976
3.986
2.975
3.9308
3.0508
3.003
3.0244
4.0892
3.122
3.4716
3.343
4.2864
4.0422
3.2924
3.4958
3.1972
3.2024
3.0714
2.8908
2.9254
3.0154
2.9388
2.9548
2.9414
2.9608
3.9702
3.9934
2.872
3.7324
4.7272
2.7274
2.7878
3.843
2.871
3.027
4.0854
3.1324
3.14
5.1548
3.1572
4.091
3.0078
2.9892
2.9596
4.0078
3.1812
3.202
3.185
3.2054
4.2072
3.184
3.1174
3.088
3.2652
3.9646
4.1892
3.0924
3.085
3.2314
3.1934
3.1288
3.1342
3.149
3.1696
3.2056
3.166
3.29
4.1774
4.4784
3.2072
4.1932
4.1564
4.1712
3.0614
5.0994
3.1928
6.2906
3.686
3.0332
3.0348
3.3446
3.4732
3.4128
3.156
3.207
3.1992
3.1628
3.168
3.1842
3.2322
3.2478
3.5796
3.5754
3.4948
3.2816
3.343
4.3476
3.4916
3.9204
3.5824
4.5328
3.6026
3.5758
3.5284
3.505
3.3658
4.6126
4.01
4.0522
3.4832
3.4068
4.3126
4.0828
4.0752
3.1328
3.263
3.556
3.5274
4.5166
3.384
3.1664
3.047
2.986
3.0202
3.022
3.266
3.2966
4.2922
4.3622
4.4558
3.4164
3.3734
3.3206
4.239
3.2404
3.16
3.2294
3.3846
3.289
3.634
3.3796
4.0806
2.9144
3.9398
3.031
3.1422
4.1166
4.0268
2.9788
4.0348
3.034
3.321
3.372
3.237
2.9228
2.9306
2.934
2.9274
2.8878
4.1846
3.4426
3.7712
2.7608
2.7132
4.7136
2.618
2.5414
3.5186
3.5186
3.6318
2.7566
2.87
2.9064
2.8642
2.8736
2.7128
2.7
2.7012
2.6944
2.5868
2.552
2.535
3.5386
3.5578
2.6348
4.698
2.9564
3.9956
4.0976
3.1408
4.1078
4.033
3.2094
4.227
4.296
4.2986
3.4814
3.3344
4.2124
4.2618
3.2404
3.0276
3.9714
3.9264
3.0098
3.0116
4.0622
3.0644
3.0882
3.1158
3.1228
3.9976
2.9084
3.899
3.8814
3.839
2.8104
3.8038
4.8014
2.7712
2.7666
2.8452
3.006
4.0148
3.0616
4.0832
3.0864
3.0472
3.0878
3.201
4.1634
3.1898
3.5454
3.895
3.4328
3.5398
3.618
3.6554
3.602
4.5102
3.4554
3.3758
3.3374
3.2166
3.1724
3.1938
3.2102
3.088
4.036
3.3106
3.359
3.4418
4.1234
4.0346
3.071
3.385
3.7384
2.9436
2.831
3.728
2.7754
2.8092
3.2824
3.2452
3.2192
4.0832
2.9304
2.6584
2.55
2.4636
3.4852
3.515
2.5006
2.4722
2.4368
3.4348
3.4512
2.4558
2.7252
4.7498
2.9752
4.7796
2.698
2.7382
3.7156
2.5856
2.4618
3.6684
2.6554
2.692
3.4382
2.383
2.397
2.3924
2.3644
2.388
3.3952
2.7696
3.2538
3.4712
2.4644
3.412
2.4302
2.4114
2.4762
2.4344
2.3938
2.4056
3.4158
2.4712
2.836
2.7686
2.2226
2.2356
3.1822
2.097
3.0196
2.0168
3.0344
4.0508
2.0252
1.977
1.9582
1.938
2.9518
1.9404
1.9252
2.8902
1.8048
1.7796
1.8794
1.9012
1.8736
1.8424
1.8572
2.9304
2.9274
3.8496
2.1296
2.0892
2.6918
2.7342
2.1762
2.061
2.6592
2.876
3.0564
2.8676
1.9414
1.9454
2.908
2.8196
1.8068
1.8382
1.9322
1.8608
1.8364
2.8138
1.7644
1.863
1.8462
1.6588
1.5836
1.5294
1.477
2.353
1.2768
1.2606
1.2764
)
;

boundaryField
{
    sides
    {
        type            calculated;
        value           nonuniform List<scalar> 2(1.2764 2.4696);
    }
    empty
    {
        type            empty;
    }
}


// ************************************************************************* //
