/*--------------------------------*- C++ -*----------------------------------*\
  =========                 |
  \\      /  F ield         | OpenFOAM: The Open Source CFD Toolbox
   \\    /   O peration     | Website:  https://openfoam.org
    \\  /    A nd           | Version:  7
     \\/     M anipulation  |
\*---------------------------------------------------------------------------*/
FoamFile
{
    version     2.0;
    format      ascii;
    class       volScalarField;
    location    "0.005";
    object      iDof;
}
// * * * * * * * * * * * * * * * * * * * * * * * * * * * * * * * * * * * * * //

dimensions      [0 -3 0 0 0 0 0];

internalField   nonuniform List<scalar> 
500
(
5.575e+20
6.15e+20
6.35e+20
6.5e+20
5.825e+20
6.175e+20
6.025e+20
7.05e+20
6.025e+20
7.325e+20
7.225e+20
6.625e+20
7.65e+20
6.5e+20
7.375e+20
7.525e+20
7.75e+20
7.325e+20
7.525e+20
7.6e+20
7.975e+20
8.05e+20
8.625e+20
7.95e+20
7.7e+20
8.05e+20
8.05e+20
8.7e+20
8.4e+20
8.25e+20
8.525e+20
8.625e+20
8.475e+20
8.675e+20
8.8e+20
8.95e+20
9.025e+20
9.025e+20
9.95e+20
9.025e+20
1.07e+21
9.225e+20
9.625e+20
9.475e+20
1.1e+21
1.0925e+21
9.625e+20
1e+21
1.0275e+21
1.1375e+21
1.0175e+21
1.1175e+21
1.125e+21
1.1275e+21
1.035e+21
1.1275e+21
1.11e+21
1.1125e+21
1.1425e+21
1.2425e+21
1.155e+21
1.08e+21
1.1875e+21
1.255e+21
1.0825e+21
1.175e+21
1.2125e+21
1.3475e+21
1.16e+21
1.205e+21
1.28e+21
1.31e+21
1.1725e+21
1.2625e+21
1.2275e+21
1.3825e+21
1.3675e+21
1.295e+21
1.3975e+21
1.4875e+21
1.34e+21
1.455e+21
1.35e+21
1.4e+21
1.4225e+21
1.49e+21
1.385e+21
1.5675e+21
1.395e+21
1.4225e+21
1.45e+21
1.46e+21
1.5175e+21
1.4575e+21
1.475e+21
1.39e+21
1.575e+21
1.5675e+21
1.595e+21
1.5e+21
1.51e+21
1.52e+21
1.555e+21
1.6575e+21
1.6875e+21
1.63e+21
1.62e+21
1.495e+21
1.62e+21
1.5475e+21
1.5975e+21
1.5425e+21
1.5525e+21
1.56e+21
1.6525e+21
1.4925e+21
1.5775e+21
1.605e+21
1.5175e+21
1.5975e+21
1.5525e+21
1.545e+21
1.5375e+21
1.52e+21
1.585e+21
1.5675e+21
1.5825e+21
1.64e+21
1.53e+21
1.605e+21
1.515e+21
1.535e+21
1.685e+21
1.595e+21
1.6925e+21
1.47e+21
1.4825e+21
1.7e+21
1.62e+21
1.585e+21
1.55e+21
1.585e+21
1.525e+21
1.535e+21
1.6825e+21
1.57e+21
1.475e+21
1.5225e+21
1.6e+21
1.4775e+21
1.51e+21
1.505e+21
1.6575e+21
1.5125e+21
1.555e+21
1.4925e+21
1.5075e+21
1.565e+21
1.4875e+21
1.5875e+21
1.5775e+21
1.505e+21
1.555e+21
1.5025e+21
1.5175e+21
1.5325e+21
1.5725e+21
1.62e+21
1.7425e+21
1.4175e+21
1.67e+21
1.485e+21
1.5325e+21
1.4525e+21
1.6075e+21
1.665e+21
1.5275e+21
1.54e+21
1.55e+21
1.5775e+21
1.6e+21
1.56e+21
1.535e+21
1.5725e+21
1.525e+21
1.6e+21
1.575e+21
1.505e+21
1.605e+21
1.56e+21
1.5225e+21
1.6e+21
1.5925e+21
1.5575e+21
1.5875e+21
1.7025e+21
1.545e+21
1.5875e+21
1.4975e+21
1.545e+21
1.535e+21
1.435e+21
1.57e+21
1.4925e+21
1.64e+21
1.5375e+21
1.6075e+21
1.5975e+21
1.5925e+21
1.6e+21
1.4975e+21
1.445e+21
1.535e+21
1.725e+21
1.515e+21
1.5325e+21
1.525e+21
1.58e+21
1.545e+21
1.5675e+21
1.6425e+21
1.6025e+21
1.6625e+21
1.5475e+21
1.61e+21
1.4975e+21
1.65e+21
1.5025e+21
1.65e+21
1.565e+21
1.52e+21
1.5725e+21
1.57e+21
1.59e+21
1.6825e+21
1.5275e+21
1.6125e+21
1.4825e+21
1.635e+21
1.47e+21
1.6175e+21
1.59e+21
1.45e+21
1.7e+21
1.655e+21
1.5875e+21
1.48e+21
1.4825e+21
1.5375e+21
1.6175e+21
1.4925e+21
1.5125e+21
1.6025e+21
1.6075e+21
1.58e+21
1.53e+21
1.68e+21
1.635e+21
1.565e+21
1.5625e+21
1.5275e+21
1.635e+21
1.6125e+21
1.6e+21
1.4875e+21
1.6e+21
1.5975e+21
1.42e+21
1.5925e+21
1.4975e+21
1.5825e+21
1.4625e+21
1.475e+21
1.5875e+21
1.6375e+21
1.62e+21
1.51e+21
1.56e+21
1.49e+21
1.5525e+21
1.6e+21
1.635e+21
1.635e+21
1.62e+21
1.5e+21
1.67e+21
1.6025e+21
1.5625e+21
1.565e+21
1.53e+21
1.63e+21
1.4675e+21
1.5525e+21
1.5425e+21
1.6e+21
1.5325e+21
1.59e+21
1.54e+21
1.55e+21
1.505e+21
1.6275e+21
1.62e+21
1.5225e+21
1.545e+21
1.5475e+21
1.66e+21
1.4425e+21
1.6375e+21
1.5675e+21
1.62e+21
1.5175e+21
1.625e+21
1.5425e+21
1.56e+21
1.6475e+21
1.5475e+21
1.5825e+21
1.565e+21
1.5925e+21
1.4325e+21
1.4875e+21
1.6025e+21
1.6225e+21
1.4725e+21
1.5775e+21
1.6475e+21
1.645e+21
1.5975e+21
1.5275e+21
1.4475e+21
1.5625e+21
1.5525e+21
1.5575e+21
1.5825e+21
1.535e+21
1.5925e+21
1.455e+21
1.5825e+21
1.545e+21
1.56e+21
1.54e+21
1.585e+21
1.4825e+21
1.5075e+21
1.49e+21
1.4675e+21
1.5375e+21
1.525e+21
1.6025e+21
1.5775e+21
1.63e+21
1.53e+21
1.5675e+21
1.525e+21
1.5675e+21
1.6525e+21
1.6325e+21
1.54e+21
1.495e+21
1.525e+21
1.56e+21
1.5425e+21
1.6e+21
1.54e+21
1.62e+21
1.555e+21
1.6325e+21
1.53e+21
1.625e+21
1.5325e+21
1.4625e+21
1.575e+21
1.6e+21
1.595e+21
1.475e+21
1.5625e+21
1.56e+21
1.4025e+21
1.5225e+21
1.595e+21
1.495e+21
1.645e+21
1.5275e+21
1.6275e+21
1.5425e+21
1.63e+21
1.5025e+21
1.5125e+21
1.585e+21
1.6275e+21
1.665e+21
1.6275e+21
1.5525e+21
1.505e+21
1.57e+21
1.545e+21
1.605e+21
1.56e+21
1.5475e+21
1.535e+21
1.485e+21
1.4375e+21
1.575e+21
1.4925e+21
1.4175e+21
1.55e+21
1.51e+21
1.5175e+21
1.44e+21
1.5725e+21
1.3925e+21
1.45e+21
1.4825e+21
1.4125e+21
1.3675e+21
1.425e+21
1.35e+21
1.37e+21
1.33e+21
1.3425e+21
1.3625e+21
1.33e+21
1.3e+21
1.2325e+21
1.315e+21
1.2625e+21
1.2475e+21
1.2825e+21
1.335e+21
1.28e+21
1.3025e+21
1.2625e+21
1.245e+21
1.225e+21
1.2675e+21
1.3375e+21
1.25e+21
1.2325e+21
1.125e+21
1.125e+21
1.17e+21
1.125e+21
1.1525e+21
1.1425e+21
1.035e+21
9.85e+20
1.0275e+21
1.1275e+21
1.1075e+21
1.045e+21
9.625e+20
1.0075e+21
1.035e+21
1.0575e+21
1.085e+21
9.85e+20
9.775e+20
1.035e+21
8.95e+20
9.5e+20
9.55e+20
8.7e+20
8.85e+20
9.675e+20
8.875e+20
9.25e+20
9.45e+20
8.3e+20
9.125e+20
9.075e+20
8.775e+20
8.325e+20
7.6e+20
8.05e+20
7.8e+20
7.9e+20
8.275e+20
7.95e+20
7.625e+20
7.975e+20
8.25e+20
7.875e+20
7.45e+20
6.925e+20
6.95e+20
7.475e+20
7.35e+20
7.725e+20
7.225e+20
7e+20
6.825e+20
7.175e+20
7e+20
6.6e+20
6.5e+20
6.3e+20
6.15e+20
6.325e+20
5.825e+20
5.2e+20
)
;

boundaryField
{
    sides
    {
        type            zeroGradient;
    }
    empty
    {
        type            empty;
    }
}


// ************************************************************************* //
