/*--------------------------------*- C++ -*----------------------------------*\
  =========                 |
  \\      /  F ield         | OpenFOAM: The Open Source CFD Toolbox
   \\    /   O peration     | Website:  https://openfoam.org
    \\  /    A nd           | Version:  7
     \\/     M anipulation  |
\*---------------------------------------------------------------------------*/
FoamFile
{
    version     2.0;
    format      ascii;
    class       volScalarField;
    location    "0.005";
    object      internalE;
}
// * * * * * * * * * * * * * * * * * * * * * * * * * * * * * * * * * * * * * //

dimensions      [1 -1 -2 0 0 0 0];

internalField   nonuniform List<scalar> 
500
(
0.860499
1.02257
1.1446
1.09038
0.969525
1.05761
1.016
1.23342
0.959639
1.27584
1.30963
1.14817
1.29339
1.14813
1.22115
1.42189
1.31765
1.26936
1.31547
1.25378
1.42499
1.56319
1.48516
1.50491
1.48783
1.48576
1.6136
1.45423
1.69869
1.51558
1.66078
1.64601
1.58629
1.80536
1.72403
1.74233
1.74116
1.68966
1.866
1.75221
2.01251
1.96411
1.76028
1.93911
2.25719
2.09264
2.07427
1.71373
2.14605
2.32366
2.12236
2.34713
2.22705
2.20037
2.00674
2.28
2.43943
2.31211
2.39813
2.69128
2.67801
2.23352
2.43523
2.6561
2.30686
2.45405
2.73231
3.0197
2.24159
2.65998
2.83783
2.6933
2.36432
2.70265
2.94263
3.28813
3.03599
2.98323
3.14314
3.17814
2.9556
3.35161
3.11711
3.22147
3.18865
3.19769
3.22359
3.64084
3.26383
3.33645
3.40021
3.44515
3.38628
3.76506
3.4482
3.45774
3.75831
3.5689
3.65776
3.68656
3.50063
3.79001
3.81363
3.69836
4.23235
3.85876
3.89906
3.56833
3.58423
3.68864
3.89328
3.35941
3.56247
3.97053
3.93033
3.26339
3.59178
3.7523
3.99531
4.09805
3.7845
3.3849
3.44955
3.67464
3.91025
3.69782
3.74768
3.67074
3.69702
3.98928
3.67627
3.74077
3.91433
3.87653
3.96789
3.28142
3.65661
4.19222
4.24421
3.84626
3.9104
3.9362
3.88747
3.73627
4.19556
3.48104
3.544
3.61137
4.01334
3.96312
3.41163
3.78704
3.82856
3.71401
3.68922
3.51755
3.65476
3.43923
3.43878
3.67813
3.98092
3.59528
3.66928
3.44096
3.59933
3.72366
3.60543
3.92703
4.12041
3.58922
4.01606
3.46953
3.51663
3.396
3.78102
3.85398
3.57718
3.5634
3.78398
4.15285
3.73885
3.63557
3.78339
3.85319
3.53688
3.99429
3.66564
3.54288
4.02608
3.714
3.75932
3.90342
3.8138
3.75388
4.00351
4.22893
3.66966
3.84073
3.39725
3.8813
3.47859
3.48571
3.94516
3.71402
3.98108
3.75903
3.78221
3.89434
3.94937
3.69931
3.53155
3.52344
3.70818
4.41137
3.59739
3.64983
3.57784
3.77894
3.68642
3.6565
3.85596
3.74414
4.32991
3.65841
4.04552
3.61042
4.05753
3.6841
4.00057
3.89027
3.90494
3.65556
3.97167
3.66144
4.2482
3.58409
4.07091
3.37168
3.90994
3.50993
4.1094
3.82552
3.53318
4.29675
3.96584
4.12678
3.85205
3.67594
3.90755
3.90031
3.46577
3.84123
3.58638
3.76851
4.04396
3.56253
3.94194
3.9992
3.73448
3.79756
3.78116
3.70697
3.81059
3.41863
3.84483
3.88027
3.79792
3.59126
3.78214
3.31979
3.91851
3.16133
3.74536
3.71798
3.83624
4.24604
3.70241
3.63204
3.49946
3.99553
3.70114
3.94746
4.08052
4.03349
3.90447
3.70099
4.06121
3.6242
4.0588
3.63853
3.87897
3.5425
3.82592
3.55489
4.02986
3.94747
3.70325
3.70836
3.79144
3.74301
3.84471
3.97498
3.53517
3.81564
3.82325
4.12426
3.56927
4.05871
3.93358
3.82217
3.49763
3.8851
3.87071
3.861
3.73522
3.69188
3.814
3.46924
4.06289
3.3893
3.63327
3.86629
3.55796
3.58922
3.50159
4.2219
3.88442
4.00242
3.73396
3.37603
3.77217
3.71055
3.81931
3.90152
3.61881
3.56391
3.38749
3.61731
3.6646
3.87556
3.71905
3.89302
3.60384
3.50361
3.42548
3.54405
3.8043
3.71232
3.51554
4.03093
3.89194
3.63712
3.85654
3.65188
4.09479
3.93635
4.05994
3.70528
3.56484
3.55459
3.61034
3.42372
3.86764
3.69554
3.7715
3.71464
3.76616
3.66255
3.76398
3.52746
3.61077
3.80023
3.89239
4.10698
3.72093
3.69437
3.65782
3.30113
3.51229
3.83122
3.57492
4.07051
3.55255
3.88739
3.88286
3.85908
3.73731
3.2882
3.58009
3.56006
4.13708
4.0448
3.55968
3.67114
3.6875
4.02633
3.8144
3.58997
3.53706
3.72193
3.83804
3.70076
3.63011
3.61846
3.57882
3.56568
3.42565
3.58529
3.55684
3.7977
3.13988
3.55668
3.66995
3.07935
3.21682
3.40081
3.07817
3.15085
3.01932
3.2377
3.24542
3.07506
2.72464
2.66657
2.91474
2.78052
2.77781
2.91068
2.91945
2.82079
2.88704
2.82274
2.74591
2.59289
2.55176
2.91095
2.78902
2.77206
2.22049
2.36833
2.34208
2.19991
2.29921
2.47003
2.10202
2.11569
2.00003
2.45096
2.39452
2.23459
1.97061
2.16816
2.10481
2.01915
2.09149
2.0915
2.16047
2.19045
2.00503
1.92128
1.82913
1.77602
1.74578
1.97258
1.65401
1.79084
1.81903
1.71679
1.79415
1.80421
1.6982
1.43065
1.35549
1.53496
1.35707
1.44276
1.38239
1.42297
1.38548
1.4781
1.49621
1.35646
1.36439
1.32111
1.13606
1.35452
1.16461
1.26686
1.39585
1.13218
1.24824
1.35161
1.2148
1.11297
1.14792
1.02651
0.972478
1.02363
1.00535
0.790368
)
;

boundaryField
{
    sides
    {
        type            zeroGradient;
    }
    empty
    {
        type            empty;
    }
}


// ************************************************************************* //
