/*--------------------------------*- C++ -*----------------------------------*\
  =========                 |
  \\      /  F ield         | OpenFOAM: The Open Source CFD Toolbox
   \\    /   O peration     | Website:  https://openfoam.org
    \\  /    A nd           | Version:  7
     \\/     M anipulation  |
\*---------------------------------------------------------------------------*/
FoamFile
{
    version     2.0;
    format      ascii;
    class       volScalarField;
    location    "0.005";
    object      internalE;
}
// * * * * * * * * * * * * * * * * * * * * * * * * * * * * * * * * * * * * * //

dimensions      [1 -1 -2 0 0 0 0];

internalField   nonuniform List<scalar> 
1000
(
5.06869
5.6179
5.06072
4.98279
4.37975
5.07696
5.11048
5.30983
5.21155
5.4846
5.82963
5.94741
5.64875
4.81071
5.04773
5.30555
5.44131
5.01654
4.99351
5.99386
5.25966
5.60523
5.46252
4.608
5.17476
5.58791
5.69529
5.16364
5.3442
5.22778
4.73041
5.7273
5.5139
5.35838
5.25004
5.76029
5.62063
5.29602
4.92482
5.06603
4.427
4.56287
5.86041
5.28579
5.15745
4.88075
4.51032
4.71641
5.46606
5.22557
5.45879
4.93544
4.86333
5.00821
5.29947
5.71326
4.79313
4.95843
5.14306
5.01046
5.10794
5.6341
5.62945
4.91781
5.09033
5.02707
5.20713
5.24559
6.23005
5.14851
6.2902
5.97238
4.8891
5.01731
5.76482
4.8936
4.49537
5.14301
5.57898
5.98544
5.23587
5.05581
5.26816
4.91531
5.2362
5.00906
5.72267
5.52965
5.03183
5.25868
5.34752
4.68593
5.45899
5.26164
4.74391
4.78376
4.61931
5.35683
4.92974
5.10249
5.26307
5.26169
5.34105
5.13279
4.89174
4.78724
5.19058
4.73585
4.98202
5.36102
5.15199
4.982
5.60365
6.0128
4.43322
5.343
5.2404
4.98377
4.49665
4.57748
5.0514
4.89542
5.08672
6.36664
6.00743
5.41758
5.28395
5.03199
6.16864
5.92481
4.98195
5.37237
4.41317
5.83826
5.03521
5.2816
5.13349
4.65706
4.9543
5.94295
5.67006
5.46905
5.59275
5.35613
4.93171
4.98651
5.59183
5.08089
5.23823
4.78571
5.85228
4.85963
4.44996
4.91356
5.43706
5.5916
5.81989
5.25026
5.05485
5.44024
6.03573
4.90132
4.9599
5.33531
4.77095
4.48541
4.92059
4.68395
5.38297
4.80321
5.2354
4.54874
5.67204
5.63015
4.47925
5.61789
4.77451
5.20441
4.97348
5.04191
5.29318
4.4955
4.95389
4.92519
5.1243
5.39781
6.3003
4.6022
4.72589
4.30109
4.89781
4.56884
4.65096
4.99754
4.98295
5.05162
5.08935
5.25654
4.57357
4.5681
4.44619
5.34663
5.25199
4.48496
4.8049
4.79325
5.03221
5.23521
4.13286
5.02138
5.10103
4.48314
4.89283
4.49153
4.40223
5.00995
5.47832
4.91859
4.34126
4.65147
4.19007
4.6172
4.98126
5.0476
4.44171
4.02012
4.12539
4.44078
4.31268
4.30869
4.67211
4.59101
4.8803
4.79486
4.92159
4.10739
4.15047
3.4432
4.64194
4.46802
4.31864
4.76522
4.31696
4.48363
4.69371
4.30114
4.27728
4.13385
3.81018
4.47197
4.6128
3.65382
4.10298
4.35178
4.22199
4.36687
4.31862
4.16143
3.76815
3.80323
4.05744
4.6145
4.10108
3.27434
3.96808
4.26189
4.86991
3.67704
4.2762
4.22761
4.00876
4.92943
4.75486
4.30762
3.85375
3.97479
3.48654
4.24235
4.23714
3.47047
3.65821
4.10991
3.5958
3.96999
3.65572
3.01078
3.84304
3.7009
3.57702
3.69514
3.83901
3.71173
4.063
3.94208
3.30957
3.07998
3.68307
3.70044
3.3351
2.92018
2.52612
3.51311
2.81891
3.29114
3.58731
3.48734
3.3948
3.50311
3.25827
3.35521
3.62867
3.40677
3.49103
3.92917
3.23034
2.93222
3.46044
2.95667
3.51824
3.40267
3.03632
3.28248
3.6439
3.39591
2.83972
3.53428
2.71138
2.84353
2.76041
2.93741
3.43397
3.5551
3.05682
2.98098
3.0082
3.42704
2.41751
3.74008
2.33029
3.05099
2.98393
2.44118
3.31005
3.23783
2.76401
2.70788
2.67103
3.25951
2.76038
2.97641
3.47573
2.41509
2.87134
3.01248
2.53744
2.78183
2.70041
2.60977
3.04885
2.28676
3.1149
2.57074
2.83638
2.97945
2.74159
2.58483
2.89246
2.54985
2.91306
2.32903
2.66973
2.53048
2.34378
2.69864
2.68116
2.48883
3.02802
2.58347
2.16241
2.60691
2.97081
2.77693
2.74879
2.6384
2.28359
2.98095
2.72755
2.28776
2.62092
2.26833
2.37447
2.25143
2.46541
2.33521
2.32859
2.4434
2.13045
2.28289
2.57971
2.45004
1.95633
2.59075
2.0386
2.27169
2.30418
2.34084
2.15461
2.24017
2.23726
2.29516
2.52725
2.35323
2.55419
1.75997
1.84375
2.41825
2.07197
2.12886
2.47937
2.01821
2.10272
2.21468
2.15048
2.20047
2.32911
2.45178
1.95869
2.81767
2.23615
2.4442
2.10958
2.41335
1.69748
2.12562
2.33993
2.16832
2.53536
2.45575
2.01655
2.21396
2.16294
1.97046
2.16363
2.18186
1.92229
2.22853
1.98308
1.78211
2.2769
2.62682
1.75127
2.06271
2.07572
2.22156
2.04061
1.9142
1.87813
1.74881
1.52693
1.97608
2.12963
2.29683
1.86732
2.04072
1.7639
2.16217
2.24542
2.19829
1.92995
2.01915
1.91812
1.7805
1.92056
2.07657
1.99136
2.00213
2.27924
1.90271
1.99934
1.75899
2.1984
1.84534
2.3931
2.05475
1.63179
1.81319
1.95274
1.95886
2.14016
1.81433
2.01466
2.05911
2.09616
2.54257
1.69739
2.00648
1.85577
1.88183
1.74565
2.34455
1.89455
1.97256
2.17125
1.92553
2.12344
2.07306
2.20611
2.09038
2.24425
2.34305
2.21136
1.70847
1.8202
1.90502
2.04735
1.98267
1.99641
1.95529
1.93807
1.48272
2.19741
1.87709
2.09788
1.85537
2.03108
1.70602
2.19867
2.02224
2.15854
2.33949
2.11368
2.39202
1.99881
1.87904
2.12367
2.01905
2.14739
1.9613
1.95646
2.10826
1.92865
1.56691
1.95665
2.25242
2.01999
1.92027
1.52847
2.06219
2.41511
2.07385
1.7269
2.281
1.95914
2.45819
2.0153
2.37126
1.90533
1.87252
2.18554
1.68235
1.99032
2.02767
1.96522
1.62285
2.15892
1.61452
2.20846
2.19647
1.87763
2.1147
2.01278
1.81122
2.07624
1.90754
1.70089
2.06934
2.00541
2.48987
1.74988
2.14986
1.97349
1.85105
2.16603
1.95731
1.94426
1.99826
1.93946
1.84613
2.36316
2.09571
1.93256
2.10568
2.31931
1.55637
1.72444
2.12079
2.3703
2.33173
1.76003
2.36629
2.05303
1.99412
2.02268
1.88321
1.95927
1.84112
1.76104
1.76907
2.37992
1.65913
2.02375
1.92454
1.9059
2.229
1.98364
1.87236
2.25904
1.9236
2.1288
1.94568
1.75585
2.24158
2.33793
1.9875
2.07785
1.69703
2.65123
2.23378
1.91338
2.07706
2.2348
2.21326
2.20976
2.05701
1.5853
2.05789
2.4649
1.99519
2.04815
2.15666
1.96059
1.99874
1.65146
2.04489
1.55765
1.58276
2.13938
1.55165
2.0112
2.33643
1.81365
1.92983
2.2943
2.19633
2.16266
1.87304
1.32826
2.13518
1.76695
1.74624
2.26022
1.94191
2.0091
2.15395
2.33268
1.73887
1.93054
1.80199
2.04118
1.962
1.87242
2.28554
1.55747
2.06452
2.18104
1.97972
1.86412
1.86889
2.18604
2.04579
2.47989
1.92254
1.86085
2.17494
1.93144
2.0233
1.95665
2.22161
1.88959
1.77059
2.24625
2.18081
2.26344
1.98803
2.03687
2.13476
2.24507
1.77359
1.97065
2.13274
2.10537
2.04638
1.83369
1.9126
2.21557
2.10611
2.30132
2.03605
1.81264
2.01258
2.19284
2.00993
1.66893
2.05157
1.89867
2.09597
2.00089
2.05485
1.76927
2.19452
1.9056
1.92897
1.93155
2.42465
2.2864
2.15581
2.00607
1.95228
2.04923
2.02789
1.72362
1.99645
1.983
1.94347
2.12091
1.7298
1.99972
2.27386
1.7045
1.9905
2.00083
1.96555
2.37575
1.88454
2.11475
1.92054
2.20861
1.99065
2.22185
2.04802
1.80352
2.35899
2.00715
1.94483
1.90397
1.7538
2.13335
2.1389
2.09067
2.08906
2.052
1.69341
1.97866
2.00328
2.08718
2.21307
2.02304
2.28695
1.87882
2.12803
1.85844
1.93363
1.53024
1.53402
1.77285
1.82482
2.05154
2.07621
2.05855
1.82854
1.68073
1.84852
1.69764
2.18051
1.62696
2.22476
2.06351
1.93299
1.82552
2.3128
2.04681
2.39648
2.21926
2.11472
2.09856
2.34358
2.27069
1.98122
2.23662
2.05387
2.09734
1.94439
1.72849
2.02847
1.9177
1.70043
1.9707
1.71825
2.10952
1.82257
1.74591
1.88916
2.05236
1.97352
1.88786
1.89844
2.16142
2.0814
2.03412
2.22218
1.92017
1.81785
1.74531
2.23625
2.20428
2.01576
1.8355
1.60143
1.9202
1.49552
1.23417
1.03626
0.828499
0.626761
0.566273
0.572703
0.619006
0.593567
0.444476
0.53568
0.597648
0.478593
0.38395
0.512302
0.488472
0.440999
0.456205
0.656692
0.640417
0.495478
0.417314
0.487125
0.373591
0.492606
0.46402
0.532062
0.527952
0.4867
0.651693
0.425685
0.534328
0.549987
0.459955
0.426121
0.512411
0.470815
0.521747
0.4365
0.493776
0.416156
0.481224
0.558737
0.542646
0.541444
0.538001
0.668779
0.456821
0.439474
0.416468
0.443043
0.665011
0.553222
0.474252
0.411985
0.46252
0.389354
0.485912
0.464815
0.495848
0.502639
0.560905
0.519545
0.415707
0.449564
0.606307
0.535196
0.598594
0.5889
0.515871
0.462556
0.450067
0.498781
0.665983
0.481255
0.441007
0.525808
0.601533
0.545655
0.410054
0.570019
0.442647
0.39576
0.485517
0.508915
0.374773
0.433368
0.500542
0.419794
0.529011
0.490825
0.577767
0.564085
0.455022
0.453576
0.495072
0.497398
0.523981
0.383932
0.5922
0.446629
0.479265
0.501547
0.364141
0.462556
0.499739
0.523454
0.456459
0.490649
0.559911
0.36057
0.523841
0.511627
0.558835
0.304404
0.640489
0.418974
0.458692
0.575679
0.545169
0.670971
0.600806
0.512065
0.682481
0.480469
0.509131
0.510347
0.453506
0.505702
0.468745
0.436247
0.452906
0.559195
0.551783
0.39665
0.46313
0.562521
0.511472
0.558277
0.409037
0.519301
0.509099
0.434009
0.429937
0.475831
0.572693
0.468134
0.467153
0.453094
0.609837
0.505618
0.497927
0.491869
0.529046
0.569688
0.44275
0.483321
0.559839
0.598946
0.400759
0.309343
0.486788
0.451004
0.428351
0.453194
0.558134
0.3934
0.52895
0.521283
0.535356
0.577636
)
;

boundaryField
{
    sides
    {
        type            symmetry;
    }
    empty
    {
        type            empty;
    }
}


// ************************************************************************* //
