/*--------------------------------*- C++ -*----------------------------------*\
  =========                 |
  \\      /  F ield         | OpenFOAM: The Open Source CFD Toolbox
   \\    /   O peration     | Website:  https://openfoam.org
    \\  /    A nd           | Version:  7
     \\/     M anipulation  |
\*---------------------------------------------------------------------------*/
FoamFile
{
    version     2.0;
    format      ascii;
    class       volScalarField;
    location    "0.005";
    object      internalT;
}
// * * * * * * * * * * * * * * * * * * * * * * * * * * * * * * * * * * * * * //

dimensions      [1 2 -2 0 0 0 0];

internalField   nonuniform List<scalar> 
500
(
242.856
249.777
258.481
264.731
271.392
274.352
282.141
283.291
284.222
285.714
285.411
291.846
296.423
298.055
296.495
300.027
301.484
301.028
304.872
306.592
308.942
307.994
310.338
311.422
313.751
315.971
321.845
317.338
319.841
323.302
325.302
321.386
324.921
325.992
327.662
326.333
326.708
324.948
325.007
328.978
326.775
328.623
332.56
330.885
329.319
331.22
330.246
332.185
333.88
334.516
333.512
334.795
329.257
334.078
332.106
337.537
336.36
334.813
337.968
331.62
336.655
335.777
337.547
346.547
346.03
341.287
340.889
340.02
346.473
347.76
347.492
348.764
345.734
346.874
351.271
346.213
342.897
348.081
345.696
344.774
345.566
345.781
347.934
346.749
344.559
341.063
341.242
346.373
346.897
349.469
348.489
347.688
342.807
342.942
346.331
348.885
348.949
344.648
346.151
348.466
346.107
344.925
344.585
345.88
344.484
346.33
344.207
345.225
345.376
342.605
340.292
343.602
347.192
347.206
347.681
346.21
345.516
347.483
349.883
345.276
345.769
347.141
349.162
347.264
347.465
346.386
343.053
344.176
348.724
351.226
354.872
349.793
351.124
352.403
346.035
344.695
347.163
348.453
347.129
351.604
354.575
354.708
353.608
352.282
349.053
350.009
350.014
349.648
347.106
348.381
349.801
351.877
348.874
349.773
350.497
349.092
345.635
348.471
348.354
348.774
350.79
348.748
348.77
350.117
352.428
346.908
351.077
350.533
348.307
350.326
346.93
345.827
346.539
344.935
345.516
345.567
347.877
349.184
349.06
345.99
344.848
348.716
348.447
349.399
347.83
350.678
346.657
343.557
343.316
344.669
343.655
346.734
347.378
348.958
353.122
350.918
350.219
351.139
354.189
352.697
351.491
350.657
353.856
352.598
352.204
350.152
346.305
345.377
345.453
346.372
346.47
346.11
346.54
349.108
352.581
351.776
351.258
347.201
348.934
347.856
347.566
349.999
343.127
344.16
345.051
347.142
346.074
349.183
349.81
347.086
347.382
349.948
350.314
347.155
349.75
349.517
347.281
343.891
347.319
351.963
351.212
351.24
347.9
348.876
351.383
351.178
352.583
352.195
353.46
354.084
356.93
356.185
349.449
349.507
345.262
343.484
343.841
345.243
345.51
342.106
342.411
343.633
343.344
345
346.656
347.688
350.244
349.533
345.238
347.662
348.676
348.448
346.503
348.783
346.632
346.633
350.661
353.435
352.799
349.503
345.79
344.318
341.876
342.17
345.561
347.581
350.364
348.33
346.595
343.708
347.081
344.822
344.988
347.699
351.834
351.989
349.299
346.6
347.086
346.216
347.55
348.06
346.651
344.577
344.84
346.157
348.825
346.217
346.981
346.76
346.71
347.552
347.06
350.641
350.477
345.958
345.244
344.387
343.812
345.105
348.187
349.531
347.195
344.694
345.625
346.304
346.672
347.877
350.972
348.476
345.382
345.484
343.874
344.499
345.934
347.913
347.154
348.057
350.11
351.879
350.608
346.673
345.295
348.118
346.266
344.506
343.427
339.352
342.326
342.576
343.585
348.998
351.061
343.989
345.628
346.096
347.31
350.661
348.929
350.414
350.299
346.485
347.981
348.285
345.24
347.767
343.273
341.24
343.983
344.396
348.262
347.789
347.764
349.197
349.016
350.892
350.841
351.733
351.965
349.912
349.587
345.409
343.09
343.555
339.645
338.91
340.792
339.797
345.908
343.832
345.246
347.702
351.048
347.925
347.643
346.749
347.214
347.335
350.4
354.456
353.243
350.427
351.672
351.285
348.9
345.118
344.423
345.115
344.775
347.823
349.301
347.743
347.291
349.25
345.83
349.048
348.281
350.178
353.104
352.239
348.568
349.101
351.697
351.266
347.984
348.108
348.863
346.157
338.986
338.86
339.614
341.365
342.746
340.485
341.337
340.819
341.917
345.012
341.109
342.209
341.965
342.844
342.754
340.193
342.211
341.686
340.036
341.296
339.134
339.788
334.839
337.034
332.491
335.756
335.302
331.252
326.208
327.953
327.351
328.201
326.149
328.059
327.207
324.948
320.197
320.984
322.756
324.665
322.335
319.55
318.906
317.235
314.302
312.589
316.848
313.784
312.8
313.257
311.901
311.185
307.246
305.592
303.709
304.476
302.297
301.952
299.082
296.074
295.655
292.7
290.674
285.28
283.052
279.237
276.361
270.738
267.003
261.454
256.025
248.969
)
;

boundaryField
{
    sides
    {
        type            calculated;
        value           nonuniform List<scalar> 2(248.969 242.856);
    }
    empty
    {
        type            empty;
    }
}


// ************************************************************************* //
