/*--------------------------------*- C++ -*----------------------------------*\
  =========                 |
  \\      /  F ield         | OpenFOAM: The Open Source CFD Toolbox
   \\    /   O peration     | Website:  https://openfoam.org
    \\  /    A nd           | Version:  7
     \\/     M anipulation  |
\*---------------------------------------------------------------------------*/
FoamFile
{
    version     2.0;
    format      ascii;
    class       volScalarField;
    location    "0.005";
    object      linearKE;
}
// * * * * * * * * * * * * * * * * * * * * * * * * * * * * * * * * * * * * * //

dimensions      [1 -1 -2 0 0 0 0];

internalField   nonuniform List<scalar> 
500
(
2.26328
2.27897
2.37065
2.36996
2.2537
2.0184
2.123
2.48279
2.15877
2.71305
2.43943
2.18583
2.83276
2.38257
2.57964
2.65909
2.69494
2.40814
2.5652
2.78535
2.91718
2.80037
3.01358
2.87366
2.51051
2.82154
2.75941
3.15954
2.91154
2.76396
2.81817
3.07383
2.79698
2.80638
2.87223
3.07496
3.03272
3.13102
3.28526
3.02758
3.498
2.95066
3.0593
3.08606
3.77139
3.75372
2.874
3.3557
3.3094
3.61802
3.41443
3.95573
3.84547
3.54281
3.50811
3.70048
3.73801
3.70494
3.75918
4.23821
4.03291
3.89291
3.88687
4.37214
3.5333
4.03428
4.08166
4.45666
3.88961
4.21705
4.43384
4.47997
4.08751
4.45353
4.1554
4.57941
4.58781
4.19035
5.03031
5.27116
4.72652
4.71165
4.6667
4.73032
4.90681
5.33844
4.86851
5.29925
4.95889
4.83115
5.25015
5.28051
5.20614
5.15822
5.19584
4.96681
5.6004
5.6033
5.28295
5.32155
5.3031
5.44938
5.43911
6.13741
5.92402
5.75358
6.16217
5.28544
5.83313
5.55004
5.51057
5.54325
5.73014
5.69727
5.84256
5.52007
6.02162
5.97656
5.66791
5.61385
5.54097
5.56958
5.54775
5.10106
5.78027
5.76669
5.65033
6.05516
5.41883
5.71295
5.58774
5.44864
6.35344
5.57496
6.35949
5.13763
5.31554
6.3524
5.65801
5.86873
5.46879
5.72484
5.63408
5.64136
5.95351
5.27542
5.38061
5.39947
5.86896
5.52527
5.52595
5.68644
5.82164
4.82915
5.28413
5.33129
5.61022
5.62985
5.59923
5.37777
6.24061
5.49504
5.757
5.39382
5.54784
5.62029
5.86019
5.83142
6.28982
5.09975
6.07959
5.44726
5.18401
4.98525
5.85157
6.119
5.59375
5.36549
5.94425
5.58049
5.87551
5.70058
5.67295
5.47633
5.31231
5.75462
5.64268
5.03483
5.85325
5.48993
5.66451
5.98058
5.79899
5.59225
5.98379
6.17633
5.56486
5.77958
5.40481
5.96715
5.42538
5.07871
5.79583
5.38245
6.15672
5.55449
6.19503
5.35259
5.85751
5.6637
5.30519
4.83198
5.72356
6.44178
5.0658
5.67742
5.6409
5.82774
5.65363
5.7188
5.97652
5.50353
5.90941
5.24219
5.72752
5.48029
5.65968
5.47461
5.83376
5.52823
5.50616
5.43752
5.88616
5.79875
5.815
5.42931
5.75359
5.43549
5.9182
5.29049
5.79087
5.84111
5.39372
6.22213
6.01774
5.8086
4.97376
5.3462
5.19824
5.99955
5.74231
5.12584
5.47445
5.78317
5.81836
5.31081
5.9348
6.28401
5.31194
5.83959
5.59057
5.76082
5.80999
5.67051
5.18472
5.65063
5.96927
5.1475
5.32184
5.30962
5.98645
5.12152
5.22459
5.99151
5.89565
6.12149
5.55034
5.6815
5.61298
5.76112
5.59121
5.48274
5.76894
5.70784
5.13726
5.88276
5.83647
5.31142
5.50503
5.60719
5.9177
5.12279
5.78224
5.48447
5.66563
5.55106
5.8861
5.66282
5.73887
5.16553
5.97572
5.59577
5.46072
5.55515
5.51319
5.8313
5.03406
5.95386
5.33676
5.67936
5.22505
6.01856
5.68715
5.52877
5.99301
5.51138
5.83793
5.49377
5.63273
4.92527
5.63706
5.91045
5.95661
5.39905
5.87141
5.94366
5.80956
5.60733
5.46392
5.41447
5.80895
5.32185
5.58114
5.82242
5.36909
5.58622
4.96214
5.68132
5.58602
5.61193
5.47494
5.9026
5.50495
5.07135
5.3676
4.82711
5.55392
5.44018
5.88763
5.48389
5.48588
5.78841
5.57077
5.44683
5.41997
6.18836
5.87051
5.73012
5.38741
5.49649
5.53677
5.55621
5.52504
5.54137
5.68191
5.70884
5.6521
5.90127
5.79473
5.41834
5.15355
5.58381
5.72407
5.91983
5.28399
5.90874
5.73179
4.78924
5.25852
5.77472
5.58324
5.62176
5.74988
5.73593
5.09966
5.69322
5.42241
5.62093
5.42759
5.7251
6.34948
5.57755
5.61812
5.17883
5.88421
5.60138
5.81268
5.73855
5.65486
5.55559
5.29671
5.1278
5.58624
5.32491
4.89756
5.23945
5.19648
5.43044
4.90657
5.35614
4.70526
4.96507
5.11235
5.06035
4.66585
4.64736
4.89118
4.87932
4.53745
4.92569
4.79439
4.64174
4.73172
4.0505
4.56045
4.35598
4.17126
4.65099
4.7027
4.35988
4.54017
3.95282
3.97103
3.94651
4.18762
4.53922
4.30105
4.16524
3.77552
3.71929
3.76393
3.7293
3.85867
3.85556
3.37025
3.19255
3.54505
3.89942
3.66482
3.41529
3.17595
3.38303
3.53809
3.52479
3.6948
3.33283
3.26386
3.36438
3.3274
3.03733
3.25063
2.89083
3.09784
2.9554
2.98574
2.91325
3.12296
2.72652
3.08723
3.25625
2.99654
2.62047
2.54156
2.64952
2.55984
2.74294
2.90163
2.75378
2.6153
2.59663
2.83919
2.75533
2.73071
2.21117
2.21533
2.43609
2.49982
2.88896
2.70621
2.54043
2.51529
2.60415
2.37435
2.33214
2.57223
2.53991
2.32903
2.43832
2.1833
1.97825
)
;

boundaryField
{
    sides
    {
        type            zeroGradient;
    }
    empty
    {
        type            empty;
    }
}


// ************************************************************************* //
