/*--------------------------------*- C++ -*----------------------------------*\
  =========                 |
  \\      /  F ield         | OpenFOAM: The Open Source CFD Toolbox
   \\    /   O peration     | Website:  https://openfoam.org
    \\  /    A nd           | Version:  7
     \\/     M anipulation  |
\*---------------------------------------------------------------------------*/
FoamFile
{
    version     2.0;
    format      ascii;
    class       volScalarField;
    location    "0.005";
    object      linearKEMean;
}
// * * * * * * * * * * * * * * * * * * * * * * * * * * * * * * * * * * * * * //

dimensions      [1 -1 -2 0 0 0 0];

internalField   nonuniform List<scalar> 
1000
(
0.996344
1.04846
1.09047
1.13409
1.15012
1.16978
1.19962
1.22346
1.24926
1.26534
1.30242
1.30155
1.33097
1.36236
1.36947
1.37343
1.40545
1.41288
1.43853
1.44835
1.4606
1.47112
1.50937
1.53095
1.54654
1.55858
1.57032
1.58303
1.60597
1.61069
1.63921
1.63907
1.64776
1.66679
1.65541
1.69125
1.71722
1.72238
1.71788
1.75625
1.76084
1.77884
1.79666
1.81816
1.82363
1.82635
1.8433
1.85673
1.85998
1.87588
1.89434
1.88482
1.92802
1.92266
1.93381
1.926
1.95387
1.97117
1.96778
1.98567
2.00869
2.0173
2.01707
2.01735
2.02793
2.02129
2.03652
2.06013
2.05771
2.06211
2.10155
2.10162
2.09887
2.11717
2.12222
2.10801
2.13001
2.14271
2.17072
2.1664
2.19066
2.18736
2.20467
2.23765
2.20263
2.22777
2.21003
2.22686
2.23742
2.24684
2.26038
2.25849
2.26316
2.27732
2.28658
2.30782
2.29985
2.32588
2.3227
2.32701
2.31614
2.32913
2.33188
2.36283
2.36372
2.34965
2.37991
2.35728
2.35524
2.36455
2.37922
2.37734
2.40339
2.41359
2.40421
2.39526
2.4314
2.43308
2.42735
2.4462
2.44278
2.44933
2.45316
2.44551
2.45596
2.45152
2.47511
2.4673
2.47788
2.4791
2.49866
2.48515
2.50104
2.51965
2.51286
2.51383
2.53063
2.53639
2.52475
2.51963
2.51797
2.55731
2.5213
2.53421
2.54302
2.54729
2.56581
2.53645
2.54802
2.55746
2.57596
2.56809
2.57585
2.55647
2.60006
2.56979
2.56794
2.56884
2.57398
2.5748
2.54937
2.58385
2.56538
2.57777
2.58485
2.57743
2.55651
2.56095
2.58354
2.55812
2.60115
2.63572
2.59785
2.56841
2.58495
2.60923
2.59863
2.58105
2.61969
2.60394
2.62204
2.6195
2.59106
2.61634
2.62493
2.56887
2.59186
2.58948
2.59136
2.59479
2.61258
2.58327
2.60633
2.6088
2.60322
2.59676
2.59656
2.62268
2.60216
2.60291
2.61992
2.57951
2.58226
2.60113
2.59668
2.58184
2.59021
2.61277
2.60572
2.58453
2.5721
2.58807
2.62238
2.58557
2.60081
2.61455
2.59589
2.58777
2.57152
2.61103
2.6184
2.59857
2.59995
2.59736
2.60665
2.62139
2.5904
2.57086
2.56673
2.57597
2.56764
2.5997
2.60162
2.58399
2.59171
2.60117
2.56992
2.59942
2.56249
2.60936
2.59795
2.56627
2.56437
2.59222
2.58791
2.58197
2.57693
2.59994
2.60318
2.60373
2.60398
2.60292
2.60614
2.57272
2.62142
2.60045
2.59239
2.57923
2.5606
2.59997
2.61523
2.59173
2.60748
2.57356
2.61426
2.59333
2.61654
2.59999
2.5942
2.61883
2.59778
2.56824
2.59875
2.60593
2.61344
2.59833
2.62681
2.60916
2.59516
2.59858
2.5881
2.61817
2.61781
2.5895
2.60346
2.60083
2.60707
2.60849
2.6155
2.60926
2.62041
2.60405
2.59785
2.60077
2.62706
2.58796
2.59132
2.61654
2.57154
2.60841
2.60985
2.59562
2.59492
2.62963
2.58828
2.58749
2.5981
2.60837
2.60364
2.59889
2.60734
2.61686
2.63145
2.59341
2.60999
2.60538
2.62521
2.61259
2.59814
2.59008
2.62507
2.62323
2.574
2.59849
2.63698
2.62561
2.64854
2.62214
2.60815
2.59062
2.59656
2.56975
2.61363
2.58858
2.58592
2.60798
2.56846
2.59616
2.5923
2.61044
2.60959
2.59273
2.58198
2.58541
2.6002
2.61115
2.5851
2.56754
2.57542
2.56902
2.59041
2.56884
2.563
2.55098
2.57172
2.57204
2.56669
2.56331
2.56052
2.5642
2.56291
2.55932
2.53208
2.568
2.51815
2.53118
2.53363
2.50923
2.49854
2.53513
2.52912
2.49261
2.49334
2.52315
2.50611
2.48684
2.48685
2.47786
2.49038
2.46109
2.47257
2.48793
2.49015
2.45278
2.43653
2.4285
2.44097
2.41641
2.43147
2.41179
2.42118
2.39801
2.42094
2.3844
2.40934
2.36848
2.38936
2.37445
2.35484
2.35368
2.34698
2.34216
2.34724
2.32168
2.33469
2.34606
2.3143
2.29608
2.29312
2.29177
2.31546
2.28649
2.29217
2.27074
2.28061
2.26005
2.23561
2.2603
2.2154
2.22345
2.19928
2.21172
2.21584
2.20547
2.19971
2.18935
2.17016
2.17351
2.1437
2.13317
2.15329
2.126
2.11966
2.11769
2.09647
2.09038
2.10213
2.08891
2.0665
2.07374
2.03331
2.05323
2.0243
2.01161
1.99347
1.98402
1.99008
1.97901
1.97816
1.95673
1.963
1.98791
1.96131
1.9627
1.9522
1.94882
1.93751
1.91927
1.89952
1.89059
1.8627
1.88137
1.86097
1.84541
1.85074
1.83788
1.85352
1.85363
1.82438
1.81663
1.80888
1.79144
1.8063
1.77383
1.77298
1.76212
1.74266
1.72126
1.74391
1.72746
1.69193
1.69431
1.68673
1.68602
1.67515
1.66259
1.68292
1.64944
1.64622
1.62279
1.59845
1.60031
1.60921
1.58936
1.58187
1.57347
1.58911
1.57749
1.55089
1.54862
1.53652
1.50948
1.53071
1.49281
1.51385
1.48948
1.48486
1.47967
1.47327
1.48606
1.50754
1.48506
1.46811
1.48346
1.46735
1.47737
1.47835
1.47488
1.4566
1.46322
1.44625
1.47442
1.45779
1.44336
1.43374
1.44025
1.42299
1.40401
1.41276
1.40898
1.41272
1.4284
1.43036
1.43308
1.41532
1.43179
1.42115
1.40811
1.39556
1.41407
1.39166
1.37455
1.3863
1.3937
1.38639
1.36489
1.35487
1.35415
1.35951
1.35273
1.34435
1.35102
1.34037
1.32687
1.33416
1.33408
1.32364
1.32158
1.3143
1.3228
1.30191
1.31398
1.31179
1.30797
1.27709
1.30044
1.30264
1.31317
1.28112
1.28224
1.28249
1.28635
1.27992
1.27388
1.25325
1.26145
1.26678
1.24264
1.2473
1.25289
1.25342
1.23531
1.22638
1.22108
1.22858
1.22515
1.2232
1.19668
1.2111
1.22002
1.2072
1.19117
1.20621
1.19533
1.19797
1.1788
1.1914
1.19596
1.18908
1.18509
1.17531
1.16874
1.16625
1.19944
1.1809
1.16643
1.18519
1.16654
1.14471
1.13405
1.14049
1.13178
1.14141
1.13768
1.1357
1.12052
1.14091
1.15353
1.14543
1.1182
1.0892
1.11888
1.10698
1.10918
1.11283
1.10507
1.08854
1.09814
1.09493
1.09976
1.08867
1.09167
1.08561
1.07733
1.07745
1.08744
1.06287
1.05476
1.08073
1.07061
1.08977
1.06551
1.03735
1.05414
1.03072
1.04771
1.03989
1.04482
1.03175
1.02563
1.02936
1.03664
1.03364
1.01883
1.02696
1.02994
1.00725
0.992865
0.993533
0.991085
0.996769
0.998932
1.00502
0.974772
0.976539
0.992915
0.970442
0.966273
0.957003
0.96895
0.971706
0.966741
0.951739
0.955403
0.935432
0.936387
0.946949
0.926652
0.929671
0.931933
0.947492
0.932999
0.940856
0.932091
0.929064
0.899057
0.898206
0.91364
0.901727
0.89757
0.901127
0.891098
0.902655
0.884405
0.879819
0.880389
0.862375
0.8765
0.860777
0.857918
0.864262
0.870543
0.876545
0.842596
0.839495
0.85688
0.847059
0.844785
0.840944
0.837107
0.841541
0.838552
0.842626
0.830691
0.818766
0.812238
0.806326
0.805655
0.793923
0.79594
0.804025
0.794952
0.793376
0.800278
0.782885
0.781685
0.776847
0.762381
0.759329
0.752661
0.763655
0.762471
0.773191
0.760645
0.78282
0.747273
0.764081
0.759554
0.765538
0.770881
0.769599
0.759815
0.753065
0.750512
0.748115
0.757069
0.765289
0.779601
0.765666
0.760061
0.773693
0.772238
0.763115
0.764112
0.761216
0.771079
0.756391
0.76345
0.748732
0.766567
0.755683
0.748951
0.750439
0.747898
0.744041
0.746312
0.74753
0.736167
0.742983
0.747878
0.747234
0.744444
0.766069
0.757127
0.761824
0.758146
0.759601
0.760644
0.756309
0.744025
0.75079
0.728992
0.74419
0.766047
0.765926
0.747797
0.750393
0.764529
0.756079
0.760132
0.742719
0.746871
0.747486
0.752539
0.747607
0.753261
0.75757
0.745392
0.753915
0.747203
0.743724
0.768159
0.76371
0.761913
0.748447
0.746894
0.757657
0.750086
0.761545
0.744051
0.732115
0.748386
0.745613
0.745988
0.746584
0.745154
0.740885
0.754752
0.751972
0.749937
0.741587
0.732153
0.744478
0.741897
0.73747
0.733898
0.735516
0.743589
0.74872
0.733775
0.742302
0.736943
0.744729
0.744674
0.753043
0.746903
0.751533
0.763607
0.75104
0.732695
0.738487
0.740181
0.746192
0.746421
0.739812
0.741163
0.717581
0.725637
0.737686
0.732202
0.729239
0.734819
0.737851
0.740328
0.722111
0.717466
0.722536
0.715132
0.715373
0.720667
0.709756
0.715912
0.722236
0.720562
0.723721
0.727871
0.716596
0.712018
0.712063
0.729105
0.726512
0.710574
0.697905
0.707131
0.717228
0.707663
0.718552
0.716511
0.709645
0.698236
0.693664
0.694135
0.701528
0.69635
0.682343
0.689788
0.683937
0.689051
0.682196
0.681777
0.684773
0.684129
0.700488
0.685958
0.677209
0.676945
0.6751
0.656114
0.66104
0.665379
0.668387
0.672359
0.647622
0.657726
0.664932
0.648029
0.645148
0.658512
0.66399
0.665012
0.649627
0.662193
0.6454
0.636354
0.618612
0.637476
0.624543
0.622764
0.627885
0.618932
0.625235
0.650059
0.635106
0.623223
0.62255
0.610255
0.608526
0.617858
0.620404
0.609647
0.598703
0.60477
0.592815
0.595894
0.590722
0.592037
0.58023
0.56744
0.575343
0.564962
0.558526
0.574115
0.572654
0.557877
0.547827
0.549208
0.542695
0.53359
0.521905
0.525227
0.518969
0.516662
0.518643
0.514631
0.49919
0.512777
0.51341
0.500899
0.494096
0.48987
0.499008
0.497544
0.498414
0.494186
0.472483
0.481353
0.478029
0.469275
0.46238
0.455766
0.455086
0.454438
0.451364
0.442189
0.446979
0.426533
0.431519
0.427157
0.425676
0.420151
0.419216
0.419758
0.411061
0.401487
0.403755
0.392426
0.388078
0.390281
0.382758
0.375375
0.377634
0.353921
0.354639
0.349511
0.348741
0.334001
0.323615
0.313675
0.303631
0.291959
)
;

boundaryField
{
    sides
    {
        type            calculated;
        value           nonuniform List<scalar> 2(0.291959 0.996344);
    }
    empty
    {
        type            empty;
    }
}


// ************************************************************************* //
