/*--------------------------------*- C++ -*----------------------------------*\
  =========                 |
  \\      /  F ield         | OpenFOAM: The Open Source CFD Toolbox
   \\    /   O peration     | Website:  https://openfoam.org
    \\  /    A nd           | Version:  7
     \\/     M anipulation  |
\*---------------------------------------------------------------------------*/
FoamFile
{
    version     2.0;
    format      ascii;
    class       volVectorField;
    location    "0.005";
    object      momentumMean;
}
// * * * * * * * * * * * * * * * * * * * * * * * * * * * * * * * * * * * * * //

dimensions      [1 -2 -1 0 0 0 0];

internalField   nonuniform List<vector> 
500
(
(-0.00463652 -3.13137e-05 -1.00928e-05)
(-0.00454493 1.94389e-05 -1.87689e-05)
(-0.00445914 6.95854e-06 -3.48615e-05)
(-0.00437148 1.51078e-06 -2.74852e-06)
(-0.00428363 -2.14792e-05 1.6582e-05)
(-0.00419389 3.25651e-05 4.8357e-05)
(-0.00410469 -8.37655e-06 4.41976e-05)
(-0.00401991 -5.91404e-05 1.57046e-05)
(-0.00393477 8.97569e-06 -7.30111e-06)
(-0.00384935 -6.93121e-05 1.24521e-05)
(-0.00377262 5.07055e-05 4.68668e-05)
(-0.00368797 -3.71678e-06 6.19871e-05)
(-0.00361329 -6.12487e-05 1.27611e-06)
(-0.00353041 -3.58165e-05 -2.17621e-05)
(-0.00344722 2.69683e-05 -7.24165e-05)
(-0.00337349 6.65384e-05 -2.55461e-05)
(-0.00329692 3.55831e-05 -9.77109e-05)
(-0.00322159 5.61084e-05 4.49288e-05)
(-0.00314257 3.38581e-05 -3.43174e-05)
(-0.00306814 -3.84839e-05 8.512e-05)
(-0.00299489 5.05671e-05 0.000149664)
(-0.00292495 5.57273e-05 -3.96134e-05)
(-0.00285194 -1.78373e-05 0.000177242)
(-0.0027873 -2.17098e-05 0.000190733)
(-0.00271423 -7.38744e-05 5.08063e-05)
(-0.00264095 3.45605e-06 0.00014365)
(-0.00256802 0.000120058 -3.89541e-05)
(-0.00250189 2.86293e-05 -2.1923e-06)
(-0.00243258 3.24797e-05 -4.11631e-05)
(-0.00236596 8.63567e-05 -6.49879e-06)
(-0.00229732 1.8144e-05 4.84681e-05)
(-0.00223371 6.50954e-05 2.54914e-05)
(-0.00216804 -3.66029e-05 2.93413e-05)
(-0.00210293 -0.000113732 -2.71754e-05)
(-0.00203703 6.3391e-05 -3.55666e-05)
(-0.00197115 7.70816e-06 1.50115e-05)
(-0.00190995 -1.71295e-05 -0.000120616)
(-0.00184593 -2.42374e-05 -9.71838e-05)
(-0.0017855 -6.4902e-05 -0.000179771)
(-0.00173328 6.41109e-05 -0.000135643)
(-0.00167736 0.000148451 -0.000109008)
(-0.00162356 9.03725e-05 -0.000107714)
(-0.00156402 0.000196283 -0.00010553)
(-0.00150483 0.000171636 -5.87691e-07)
(-0.00145675 0.000165832 2.77342e-06)
(-0.00141355 0.000150796 8.67404e-05)
(-0.00136022 0.000144212 -0.000173505)
(-0.00130938 0.000311201 -0.000278018)
(-0.00125465 0.0002291 -0.000323346)
(-0.00121217 9.19446e-06 -0.000148045)
(-0.00116598 -4.08538e-06 -2.55536e-05)
(-0.00111909 3.54055e-05 -4.89475e-05)
(-0.00107758 0.00014899 -0.000102905)
(-0.00103722 0.00022492 -0.000180653)
(-0.000994154 0.000173058 -0.000245215)
(-0.00094677 0.000242555 -0.000171182)
(-0.000908772 0.000364214 -0.000127492)
(-0.000861081 0.000325228 -6.74239e-05)
(-0.000822035 0.000422687 -5.66742e-05)
(-0.000788126 0.000380001 -0.000187262)
(-0.000750017 0.000196338 -0.000191011)
(-0.000710399 0.00019761 -6.47058e-05)
(-0.000669082 0.000187185 -1.13605e-05)
(-0.000634752 0.000122431 0.000142207)
(-0.00059436 4.6961e-05 0.000120741)
(-0.000554381 -0.000250272 6.55753e-05)
(-0.000518051 -0.000263877 0.000138476)
(-0.000495261 -4.887e-05 0.000129714)
(-0.000463542 8.84636e-05 0.000141298)
(-0.000428497 -1.19016e-05 -4.41429e-05)
(-0.000399579 -7.5227e-05 -0.000255648)
(-0.000370734 -8.92791e-05 -0.000226813)
(-0.000341149 -0.00012378 -0.000118768)
(-0.000309501 -0.000207418 0.0001126)
(-0.00027999 8.34999e-05 0.000362798)
(-0.000257384 3.95909e-05 0.000120348)
(-0.000235078 -5.49142e-05 -2.8544e-06)
(-0.000214233 -2.04119e-06 -0.000130756)
(-0.000193536 -0.000142653 -7.96918e-05)
(-0.000183738 -0.000140796 -0.00011272)
(-0.000171588 0.000113179 -0.000157381)
(-0.000151867 0.000295173 -3.47018e-05)
(-0.000137621 0.000292868 -2.79153e-05)
(-0.000117969 0.0003592 -5.88074e-05)
(-0.000104568 0.000327103 0.000265251)
(-9.47043e-05 0.000136735 0.00036474)
(-8.60815e-05 -4.39275e-05 0.00010139)
(-7.49696e-05 -1.72378e-05 0.000149007)
(-6.36878e-05 -1.57026e-05 -1.68004e-05)
(-5.29754e-05 -6.61369e-05 0.00011341)
(-3.82634e-05 -9.22702e-05 6.20002e-05)
(-2.86815e-05 -0.000119932 4.71283e-05)
(-2.25625e-05 -5.12096e-05 0.000177166)
(-1.50482e-05 -0.000124189 0.000252549)
(-2.94608e-06 -0.000257747 0.000172084)
(7.63238e-06 -3.81261e-05 0.000156687)
(1.8206e-05 1.41441e-05 -1.33013e-05)
(2.32888e-05 -6.66284e-05 -0.000302667)
(1.61296e-05 -0.000224661 -0.000318002)
(2.20199e-05 -0.000179668 4.12771e-05)
(2.43728e-05 -0.000163851 0.000263695)
(2.5881e-05 -0.000127909 0.000234644)
(3.1998e-05 -0.000118839 8.66051e-05)
(2.85822e-05 -0.000137047 0.000190872)
(1.77458e-05 -0.000268392 5.45575e-05)
(1.37742e-05 -0.000264272 -0.000108339)
(7.63495e-06 -0.000137001 -0.000164974)
(6.62064e-06 8.78047e-05 1.09135e-05)
(1.16849e-05 0.000243101 -4.38571e-05)
(1.1308e-05 4.53167e-05 6.1374e-05)
(6.8671e-06 4.6463e-05 -2.89826e-05)
(7.44797e-06 8.25233e-05 -0.00024336)
(1.06871e-05 1.90844e-05 -0.000323897)
(1.20535e-05 -2.97088e-05 -0.000127499)
(2.53616e-06 -8.43965e-05 -4.23123e-05)
(5.88134e-06 -2.8855e-05 3.9928e-06)
(1.06491e-05 -9.95993e-05 -0.0001122)
(8.92023e-06 -7.06892e-05 7.03941e-05)
(1.16467e-05 -7.64094e-06 0.000198969)
(7.04057e-06 8.35788e-05 0.000230396)
(1.15236e-05 3.67393e-05 0.000328252)
(1.0014e-05 -9.65386e-05 0.000100584)
(1.53652e-05 -6.10495e-05 1.83628e-05)
(1.91451e-05 7.56208e-05 -0.000113519)
(1.91193e-05 -4.2651e-06 -0.000161782)
(1.50092e-05 -6.41056e-05 -0.000220416)
(1.9033e-05 0.000114466 -0.000224126)
(1.56197e-05 0.000178988 -8.46885e-05)
(1.45484e-05 0.000179227 5.19883e-05)
(1.48926e-05 -4.12814e-06 -5.17372e-05)
(1.23526e-05 -8.4001e-05 -1.12683e-05)
(1.73922e-05 -0.000139599 -0.000137087)
(1.07071e-05 -0.000212377 -7.69693e-05)
(5.23787e-06 8.28646e-05 -4.85476e-05)
(-1.71939e-06 0.000108588 2.25251e-05)
(1.402e-06 0.000125524 -9.42281e-05)
(8.7967e-06 -1.38072e-05 -0.000315295)
(5.8883e-06 0.000113007 -0.000304683)
(-1.56656e-06 0.000110193 -0.00020152)
(-3.39325e-06 2.54754e-05 6.63022e-05)
(-4.89813e-06 2.23191e-05 0.000161841)
(-2.31255e-06 4.95123e-05 0.000122025)
(-5.83126e-06 7.14869e-05 -5.45136e-05)
(3.04684e-06 7.86727e-05 -1.74508e-05)
(-3.96304e-06 -0.000176948 4.50097e-05)
(-8.74843e-06 -0.000219052 0.000197313)
(-5.86525e-07 5.42016e-05 0.000191236)
(2.71579e-06 -6.34538e-05 0.000226306)
(1.05028e-06 -0.000146456 0.000233754)
(7.89357e-06 -0.000282148 0.000160579)
(1.20566e-05 -0.000182796 -8.25333e-06)
(1.46262e-05 -0.000348708 -9.31765e-05)
(1.72685e-05 -0.000281068 -0.000224861)
(1.58283e-05 -0.000136418 -0.000226493)
(2.1426e-05 -7.58166e-05 4.11099e-05)
(2.53686e-05 2.05271e-06 -2.42144e-05)
(3.4358e-05 -0.000221873 -0.000130205)
(3.79098e-05 -0.000184845 -4.66878e-05)
(3.5708e-05 -9.15298e-05 2.74519e-05)
(4.2013e-05 -7.55727e-06 -5.6597e-05)
(4.01199e-05 -0.000187518 -0.000150606)
(4.38618e-05 -0.000325515 -4.97552e-05)
(4.71986e-05 -0.000258206 -0.000117018)
(4.83933e-05 -0.000313006 -0.000234948)
(5.16869e-05 -0.000439789 -0.000129328)
(5.58946e-05 -0.000162712 -0.000172892)
(5.55788e-05 -0.000172723 -0.000292245)
(5.99144e-05 -1.68275e-05 -0.000169982)
(4.57419e-05 8.78542e-05 4.14009e-05)
(4.62727e-05 -0.000241688 -0.0001352)
(4.70288e-05 -0.0004576 2.61366e-05)
(4.55339e-05 -0.000365631 8.3302e-05)
(5.18319e-05 -0.000324976 -2.17479e-05)
(5.81887e-05 -0.000330817 3.22169e-05)
(6.52282e-05 -0.000340905 0.000109802)
(5.60751e-05 -0.000146836 -9.17972e-05)
(5.13548e-05 -7.88906e-05 -8.7314e-05)
(6.03232e-05 -0.000138009 0.000124599)
(5.89077e-05 -0.000163833 0.00021756)
(5.76299e-05 -0.000332615 0.000103982)
(5.59836e-05 -0.000413244 0.000237173)
(5.8189e-05 -0.000289492 0.000480483)
(5.80426e-05 -0.000257258 0.000190352)
(5.97577e-05 -7.29777e-05 0.000412799)
(6.58288e-05 0.000157939 0.000334927)
(6.05579e-05 0.000111351 -5.28479e-06)
(6.41946e-05 0.000188321 2.3076e-05)
(6.16091e-05 0.000123587 -8.45151e-05)
(6.30079e-05 -0.000129509 -0.000206985)
(6.07837e-05 -0.000197855 -0.000229787)
(6.51366e-05 -0.000168661 -0.00012815)
(6.2889e-05 7.61523e-05 -4.50206e-06)
(6.23371e-05 0.000187588 -6.41755e-05)
(6.36956e-05 0.000276034 -1.42644e-06)
(6.09492e-05 0.000480565 2.65788e-06)
(5.68683e-05 0.000372812 -0.000139716)
(5.21581e-05 0.000252924 -0.000226453)
(5.56053e-05 9.41726e-05 -0.000417099)
(5.37176e-05 2.03074e-05 -0.000303972)
(5.75088e-05 0.000211982 -0.000320804)
(5.73718e-05 0.000295547 -0.000266577)
(6.70701e-05 0.000307708 -0.000173183)
(7.21129e-05 0.000147699 -0.00024927)
(7.45267e-05 -6.81171e-06 -0.000296544)
(7.69962e-05 -0.000126768 -0.000390548)
(7.37242e-05 -0.000168147 -0.000279558)
(7.51502e-05 -0.000157949 -0.000454774)
(7.4461e-05 -4.51067e-05 -0.000254041)
(7.14172e-05 6.08277e-06 -3.45366e-05)
(6.6934e-05 -9.08101e-05 -4.37592e-05)
(6.79285e-05 0.000220621 2.89843e-05)
(7.82567e-05 0.000296747 -5.95123e-05)
(8.64801e-05 0.000192709 -0.000150664)
(7.79604e-05 0.000236204 -8.91245e-05)
(7.60835e-05 8.76308e-05 -0.000192431)
(8.37298e-05 0.00017916 -0.000160186)
(8.51126e-05 -7.86973e-05 -1.69702e-06)
(8.93106e-05 -0.000103596 2.23875e-05)
(8.54717e-05 -0.000213936 0.000163565)
(9.05709e-05 -0.000306203 -1.36626e-07)
(8.41422e-05 -2.65003e-05 -0.000136053)
(8.67314e-05 -4.96784e-05 -0.00016146)
(7.4262e-05 -0.000165525 -0.000111502)
(7.27008e-05 -0.00012633 6.80685e-06)
(7.40891e-05 -2.5965e-05 -5.86251e-06)
(7.77886e-05 0.000135526 -1.48762e-05)
(7.81909e-05 0.000119721 0.000136835)
(7.55654e-05 0.000171249 0.000235909)
(7.88887e-05 0.000281239 0.000112166)
(7.25643e-05 -2.62935e-06 0.000193188)
(7.18548e-05 -0.000122819 1.07571e-05)
(7.79933e-05 -0.000121753 -6.0485e-05)
(7.47704e-05 -7.18611e-05 -7.25324e-05)
(7.49018e-05 -0.000112075 -2.42405e-05)
(6.60279e-05 -8.01578e-05 3.98844e-05)
(6.86241e-05 -3.65897e-05 9.04768e-05)
(6.28309e-05 6.29553e-05 0.00011682)
(6.73088e-05 -1.88221e-06 -1.7922e-07)
(6.60603e-05 -3.59467e-05 7.96087e-05)
(6.82628e-05 0.00010173 -1.9261e-05)
(6.93267e-05 6.04295e-05 -0.00021114)
(6.52601e-05 -2.73479e-05 -0.000146552)
(7.06303e-05 5.58932e-05 -0.000260874)
(7.11775e-05 0.00011281 -0.000106519)
(6.08127e-05 0.000247167 -0.000102074)
(5.52579e-05 7.1979e-05 -3.50178e-05)
(6.05285e-05 4.30222e-05 -9.71241e-05)
(6.44681e-05 0.000207368 -5.73474e-05)
(7.33834e-05 0.000215602 -5.3289e-05)
(7.12093e-05 0.000167725 0.000132077)
(-5.16551e-09 7.06447e-05 1.05188e-05)
(-6.25292e-05 0.000229146 3.70151e-05)
(-6.75716e-05 0.00021268 1.85686e-05)
(-6.96463e-05 0.00026926 -2.00786e-05)
(-7.16932e-05 0.000377913 -0.000105694)
(-6.94673e-05 0.000276048 -0.000150895)
(-7.71742e-05 0.00026441 -0.000113707)
(-8.23493e-05 0.000152227 -6.42705e-05)
(-9.09989e-05 1.55995e-05 6.41462e-05)
(-8.22966e-05 -7.71287e-05 1.29957e-05)
(-8.9171e-05 1.46579e-05 0.000248128)
(-8.46177e-05 5.27907e-05 0.000107001)
(-8.71617e-05 0.000231781 6.84262e-05)
(-9.53077e-05 -1.54859e-05 0.000127714)
(-8.96685e-05 -2.304e-05 0.000125632)
(-8.70714e-05 -0.000102725 9.30297e-06)
(-8.42088e-05 -0.000266224 0.000238861)
(-8.50661e-05 -0.000184479 0.000499298)
(-7.77997e-05 -0.000169767 0.000356744)
(-7.43083e-05 -0.000213815 0.000111066)
(-7.12783e-05 -8.84122e-05 8.31516e-05)
(-6.77843e-05 9.56035e-05 5.63969e-05)
(-6.3111e-05 2.2623e-05 5.78217e-05)
(-5.60832e-05 9.2375e-06 2.61546e-05)
(-5.51045e-05 9.74417e-05 0.00012931)
(-7.005e-05 0.000146469 0.000107952)
(-6.64205e-05 0.000196983 5.73961e-05)
(-6.2973e-05 5.9379e-05 0.000151994)
(-5.555e-05 0.000162731 1.07976e-05)
(-5.61996e-05 1.05115e-06 -7.25158e-05)
(-5.21646e-05 2.41166e-05 7.18617e-05)
(-5.81614e-05 -4.6149e-05 -3.41875e-05)
(-6.24721e-05 -0.000205896 6.52724e-05)
(-7.06692e-05 -0.000119104 6.90039e-05)
(-6.76098e-05 -0.000206672 1.77777e-05)
(-6.94839e-05 -9.39101e-05 9.67732e-05)
(-7.26227e-05 0.000182592 0.000346626)
(-7.5974e-05 0.00011078 0.00019279)
(-7.40585e-05 0.000114743 0.000216196)
(-7.1292e-05 -4.77253e-06 0.000145719)
(-7.03669e-05 -0.000141788 -0.000136704)
(-7.04557e-05 -0.000173278 -0.000165354)
(-6.90224e-05 8.06455e-05 -1.92475e-05)
(-6.5418e-05 -1.74298e-05 7.27323e-08)
(-6.79949e-05 -0.000209581 6.40913e-05)
(-5.92292e-05 -0.000219439 2.03308e-06)
(-6.00091e-05 -0.000323806 -5.19967e-05)
(-5.58377e-05 -0.000330271 1.09963e-05)
(-5.48941e-05 -0.000390117 -0.000209936)
(-5.17676e-05 -0.000281518 -0.000241397)
(-5.21809e-05 -0.00026358 -0.000345814)
(-5.75548e-05 -0.000326143 -0.000229585)
(-5.72965e-05 -0.000345614 -0.000106758)
(-5.87149e-05 -0.000254143 -7.01296e-05)
(-5.14101e-05 -6.87766e-05 -0.000155479)
(-5.62759e-05 -7.98146e-05 7.8153e-05)
(-5.33667e-05 -0.00020256 -6.04127e-05)
(-4.78102e-05 1.27384e-05 -0.000179154)
(-5.49688e-05 0.000104941 -0.000240473)
(-4.99265e-05 0.000159057 -0.000315912)
(-5.37412e-05 0.000146155 -0.000397339)
(-4.95263e-05 0.00018596 -0.000263245)
(-5.4345e-05 7.35174e-05 -0.000132832)
(-5.24002e-05 4.97934e-05 -0.000264355)
(-5.14695e-05 0.000265612 -0.000402361)
(-5.5488e-05 0.00025218 -5.91662e-05)
(-5.81089e-05 0.00023867 -9.08567e-05)
(-5.4532e-05 -4.35087e-06 -0.000207486)
(-5.67554e-05 -0.00010533 2.22314e-06)
(-4.99148e-05 -0.000221822 -5.15357e-05)
(-4.15223e-05 -0.00029023 3.20134e-05)
(-3.94364e-05 -0.000328186 0.000103522)
(-4.43318e-05 -0.000200848 0.000283709)
(-4.42444e-05 -0.000109362 0.000333388)
(-4.0694e-05 -1.90337e-05 0.000218805)
(-4.49634e-05 -3.9553e-05 0.000218219)
(-4.8999e-05 -1.42299e-05 0.00027619)
(-5.43822e-05 7.08238e-05 3.5042e-05)
(-5.66139e-05 -0.000117317 2.62224e-05)
(-4.84942e-05 -7.06829e-05 -6.89512e-05)
(-4.19846e-05 -9.80802e-05 -8.54802e-05)
(-4.11108e-05 -0.000147813 -8.95509e-05)
(-3.87852e-05 3.66579e-05 0.000295614)
(-3.75314e-05 -0.000127082 0.00042313)
(-3.35026e-05 -0.000243497 0.000205816)
(-3.86648e-05 2.48793e-05 7.78471e-05)
(-3.17978e-05 -8.75607e-05 7.78283e-05)
(-2.59486e-05 0.000112242 0.000217283)
(-2.64822e-05 1.44883e-05 3.68503e-05)
(-2.45673e-05 -0.000113863 -0.000107818)
(-2.39448e-05 -0.000175857 3.02063e-07)
(-2.22127e-05 -7.75131e-06 0.000239433)
(-1.86874e-05 -3.81218e-05 0.000130127)
(-1.36632e-05 -0.000188977 7.99097e-05)
(-4.57964e-06 -9.7625e-05 0.00027359)
(6.19985e-06 -0.00030475 0.000474487)
(1.07199e-05 -0.000224161 0.000337258)
(1.51741e-05 -0.000232029 0.000283201)
(1.34632e-05 -0.000100101 0.000233603)
(1.47516e-05 -1.80419e-05 0.000257641)
(9.51221e-06 -2.94298e-05 0.000413863)
(8.82285e-06 0.000161696 0.00033398)
(8.68147e-06 0.000289636 9.21456e-05)
(1.02743e-05 4.48135e-05 3.24836e-06)
(9.19092e-06 0.000105209 -0.000164967)
(6.14314e-06 0.000127786 -0.000289001)
(3.78808e-06 0.000142642 -0.000320649)
(1.2844e-07 9.93744e-05 -0.00028059)
(5.33956e-06 3.98553e-05 -0.000165989)
(1.00177e-05 8.11744e-05 -3.3235e-05)
(1.21845e-05 0.000184064 0.000120592)
(1.62496e-05 0.000248509 9.34164e-08)
(1.48276e-05 0.000221144 3.84379e-05)
(1.14052e-05 0.0004257 0.000158147)
(1.0894e-05 0.000454365 0.000105746)
(1.04223e-05 0.000281667 -3.17374e-05)
(4.27016e-06 0.000286381 -1.0185e-05)
(4.69495e-06 0.000278546 2.98446e-06)
(7.03955e-06 0.000136158 3.43081e-05)
(1.165e-06 0.000129314 4.21587e-05)
(8.48338e-06 1.08365e-05 0.000208818)
(1.60755e-05 0.000108305 0.000237333)
(1.38962e-05 4.86799e-06 0.000249505)
(1.30119e-05 -0.000105597 0.000177165)
(1.5026e-05 -0.000201557 0.000103649)
(1.82249e-05 -0.000465419 -3.28208e-05)
(1.81881e-05 -0.000471435 -7.28594e-05)
(2.76596e-05 -0.000293847 -0.000221199)
(3.88111e-05 -7.09332e-05 -0.000302437)
(3.98449e-05 -0.000134987 -0.000108658)
(4.27462e-05 -0.000229776 -0.000196313)
(3.66647e-05 -8.53567e-05 -0.000143736)
(3.69578e-05 -6.6919e-05 -1.13151e-05)
(4.20826e-05 0.000194983 -9.63524e-05)
(3.95464e-05 8.85594e-05 -6.25161e-05)
(3.95387e-05 -3.46046e-05 0.000250173)
(3.93797e-05 1.96726e-05 0.000343177)
(4.73957e-05 0.000138023 0.000262156)
(4.30797e-05 0.000114788 6.14571e-05)
(4.55995e-05 0.00017964 -1.81502e-05)
(3.2834e-05 6.51371e-06 5.78632e-05)
(3.02621e-05 -0.000136667 -0.000138851)
(2.69838e-05 3.91488e-05 -0.000108009)
(2.77044e-05 0.000106988 6.17961e-05)
(3.41176e-05 -0.000135145 8.73457e-05)
(3.35769e-05 -0.000289292 0.000236858)
(3.21185e-05 -0.000189987 0.000355367)
(2.87565e-05 -1.66403e-05 0.000237236)
(3.18161e-05 -5.39268e-05 0.000139123)
(3.29208e-05 -0.000225473 -2.87896e-05)
(4.10346e-05 -8.071e-05 0.000199729)
(5.0598e-05 -0.000143321 0.000351123)
(5.61686e-05 -0.000113337 0.000219275)
(5.63833e-05 -0.000205537 -3.53279e-06)
(6.732e-05 -0.000255699 8.5005e-05)
(7.54361e-05 -0.000133074 7.17969e-05)
(8.32746e-05 0.000197366 0.000209336)
(8.58728e-05 0.000319166 0.000189122)
(9.25092e-05 0.000449223 1.94883e-05)
(9.96107e-05 0.000134293 -0.000196889)
(0.000108096 0.000165248 -0.000129572)
(0.000123486 0.000195638 -0.000119487)
(0.000134483 0.000263674 -0.000157808)
(0.00014563 0.000264593 -0.000252148)
(0.000160909 0.000298005 -0.000116306)
(0.000171888 9.42802e-05 -0.000221557)
(0.000193382 -1.44772e-05 -0.000197525)
(0.00021187 -0.000180531 -0.000141814)
(0.000233196 -0.000465722 -0.000156475)
(0.000251873 -0.000430899 -0.000246303)
(0.000277823 -0.000274269 -0.000402201)
(0.000296955 -0.00034311 -0.000342592)
(0.00032102 -0.000319477 -0.000376521)
(0.000350039 -0.000257815 -0.000303852)
(0.000377805 -0.000110748 -0.000407606)
(0.000402565 -0.00018851 -0.000334215)
(0.000432012 -0.000230444 -0.000176769)
(0.00046084 -0.000226504 -0.000136797)
(0.000480717 -0.000176563 -0.000133064)
(0.000505688 6.79854e-06 -0.000128216)
(0.000529402 6.49767e-05 -5.20514e-05)
(0.000558775 -0.000114617 -8.76221e-05)
(0.000590079 -8.44293e-05 8.03278e-05)
(0.000618851 -7.38657e-05 0.000221866)
(0.00065068 -5.38801e-05 0.000212709)
(0.000674317 -4.57728e-06 0.000201222)
(0.000704826 -0.000112788 7.36015e-05)
(0.000731663 -0.000255181 0.000137839)
(0.000764606 -0.000151867 0.000308557)
(0.000808223 -3.95998e-06 0.000179108)
(0.000847874 1.80132e-05 0.000166255)
(0.00088627 4.64809e-05 0.000113014)
(0.000928799 0.00017314 0.000143597)
(0.000969818 0.000108122 9.1527e-05)
(0.0010143 0.000141553 0.000129036)
(0.00106376 0.000169445 0.000321237)
(0.0011191 0.000102349 -7.92094e-06)
(0.00116469 -0.000125058 -0.00032371)
(0.0012073 -0.000173155 -0.000162872)
(0.00125503 -0.000145464 -7.33218e-05)
(0.00130612 3.59678e-05 -0.000169002)
(0.00135935 -0.000172468 -0.000109967)
(0.00141573 -7.90433e-05 -4.56768e-06)
(0.00145914 7.04186e-05 -0.000152544)
(0.00150866 3.58166e-05 -0.000154424)
(0.0015547 2.56707e-05 -0.000155697)
(0.00161199 -7.12629e-05 4.08341e-06)
(0.00166446 -6.2369e-05 -7.0981e-05)
(0.00171881 4.98614e-06 -3.10545e-05)
(0.00178151 8.54784e-05 0.000160582)
(0.00183961 0.000178054 0.00024336)
(0.00189884 9.43343e-05 0.000299767)
(0.0019591 -2.59713e-05 5.54826e-05)
(0.00202241 -6.43984e-05 3.83024e-05)
(0.00208181 -0.000146755 7.75082e-05)
(0.00214498 -9.11992e-05 3.53289e-05)
(0.00220517 -0.000166167 7.34526e-05)
(0.00226598 -0.000101656 0.000126447)
(0.00233214 -6.68824e-05 9.5015e-05)
(0.00239446 1.9898e-05 6.2866e-05)
(0.00245679 -4.43942e-05 0.000156586)
(0.00252047 2.5965e-05 2.20351e-05)
(0.00259425 8.29309e-05 9.87058e-05)
(0.0026681 -0.000137568 0.000123215)
(0.0027417 -5.90881e-05 3.26766e-05)
(0.00281351 -5.66504e-05 3.95592e-05)
(0.00288264 -4.54242e-05 0.000120657)
(0.00295309 -3.71841e-05 -4.70283e-05)
(0.00302893 -5.69266e-05 -3.71907e-05)
(0.00310055 8.01539e-06 4.79525e-05)
(0.00316964 6.3859e-06 5.35743e-05)
(0.00324134 5.27319e-05 5.44837e-05)
(0.00331501 -0.000149151 8.41252e-06)
(0.00339302 -4.56712e-05 -7.86073e-05)
(0.0034776 -8.70859e-06 -5.70453e-05)
(0.00355492 2.88507e-05 -8.16501e-05)
(0.00363026 4.40053e-06 -1.63636e-05)
(0.00370833 -5.29073e-06 1.77707e-05)
(0.00378221 -9.5232e-05 -1.08889e-05)
(0.00386794 -1.93979e-05 1.1118e-05)
(0.00394927 2.88414e-05 3.25041e-05)
(0.00402746 -1.94968e-05 1.27696e-05)
(0.00410761 2.607e-05 2.62662e-05)
(0.00418997 -6.11703e-05 4.69537e-05)
(0.00427806 -1.50925e-05 -4.50395e-05)
(0.00436351 -8.36269e-05 5.014e-05)
(0.00445056 8.52846e-06 5.14441e-05)
(0.00453854 -5.01253e-05 9.85945e-06)
(0.00462682 2.94332e-06 9.41247e-06)
(0.00472183 -3.1909e-06 -7.8332e-06)
)
;

boundaryField
{
    sides
    {
        type            calculated;
        value           nonuniform List<vector> 2((0.00472183 -3.1909e-06 -7.8332e-06) (-0.00463652 -3.13137e-05 -1.00928e-05));
    }
    empty
    {
        type            empty;
    }
}


// ************************************************************************* //
