/*--------------------------------*- C++ -*----------------------------------*\
  =========                 |
  \\      /  F ield         | OpenFOAM: The Open Source CFD Toolbox
   \\    /   O peration     | Website:  https://openfoam.org
    \\  /    A nd           | Version:  7
     \\/     M anipulation  |
\*---------------------------------------------------------------------------*/
FoamFile
{
    version     2.0;
    format      ascii;
    class       volScalarField;
    location    "0.005";
    object      overallT;
}
// * * * * * * * * * * * * * * * * * * * * * * * * * * * * * * * * * * * * * //

dimensions      [1 2 -2 0 0 0 0];

internalField   nonuniform List<scalar> 
500
(
238.315
250.944
260.533
267.278
274.819
278.516
285.083
287.965
290.883
292.997
293.254
298.819
303.116
303.756
303.447
306.199
308.343
307.204
310.259
313.187
313.825
313.701
315.199
315.618
318.554
320.409
325.339
322.081
323.08
326.053
327.708
325.695
327.547
329.474
328.748
330.091
328.024
326.772
327.382
330.987
330.086
330.671
333.559
332.432
333.319
332.019
333.665
334.185
335.452
335.585
334.926
334.551
331.436
334.14
333.89
338.415
337.13
335.45
337.64
334.555
336.22
336.008
339.614
344.985
347.101
341.555
339.374
339.379
345.451
347.206
347.746
348.721
345.275
348.061
350.114
346.544
343.322
345.934
344.346
344.879
345.346
345.207
347.356
347.108
344.71
342.189
341.784
346.437
347.231
349.387
347.609
347.505
344.024
344.767
348.479
348.863
348.206
344.664
346.133
348.433
346.388
345.105
345.29
345.501
344.926
345.571
344.626
345.246
344.281
342.228
341.85
343.974
346.492
347.183
347.792
345.703
344.771
347.205
349.444
346.057
345.532
347.184
348.331
347.79
347.794
346.332
342.404
343.57
349.582
351.727
354.375
349.328
351.628
352.302
346.189
344.167
346.084
346.972
345.883
350.816
354.582
353.884
353.735
353.155
349.325
348.211
350.298
349.935
347.382
348.353
349.49
351.705
349.39
349.411
350.005
348.948
345.352
347.705
348.68
349.345
349.778
348.601
348.913
349.996
351.789
348.038
350.761
350.288
349.714
349.184
346.704
346.489
346.747
345.372
345.563
346.808
347.806
348.198
349.142
346.242
344.911
348.458
349.296
349.634
348.057
350.284
345.545
343.959
344.491
344.735
344.434
346.982
347.344
349.094
352.153
350.764
350.826
351.564
353.346
352.541
351.489
351.697
353.312
351.843
351.265
350.01
346.554
345.905
345.907
346.416
346.501
346.661
347.469
348.842
352.514
352.823
352.738
347.19
347.544
348.263
346.968
347.958
343.917
344.403
345.317
347.777
345.887
350.104
350.267
347.934
347.253
349.366
350.86
348.606
349.913
348.525
347.532
345.292
347.813
351.789
351.677
351.146
348.264
349.637
351.108
350.879
352.33
351.607
352.982
353.119
356.517
355.508
349.364
348.905
345.59
342.611
343.294
345.178
344.758
341.972
342.195
343.75
342.954
345.773
347.277
348.287
349.849
349.604
345.616
347.164
347.923
347.418
347.755
348.16
347.399
346.636
350.259
352.958
353.224
350.248
346.342
344.4
342.291
341.42
345.601
346.662
349.144
347.718
346.179
344.05
346.018
345.226
345.864
347.381
351.557
350.898
348.383
346.195
346.749
345.042
347.407
349.103
347.683
345.057
345.451
345.672
347.45
346.997
347.247
345.87
345.985
346.861
347.244
350.224
350.051
347.197
346.317
344.718
343.766
345.177
348
348.45
347.01
345.197
345.603
347.863
346.227
348.313
350.755
346.945
344.196
344.659
343.555
344.495
345.152
347.714
348.047
347.791
349.411
351.041
349.8
346.542
345.337
347.027
346.636
343.226
342.851
340.609
342.663
344.42
343.704
348
349.655
345.559
346.269
346.652
346.807
350.335
348.569
349.583
349.014
347.267
348.109
347.825
344.441
347.178
343.636
341.464
344.964
345.484
348.914
347.304
347.81
350.426
349.648
350.829
350.104
350.573
350.07
349.12
349.506
345.559
343.537
342.177
340.948
338.765
341.55
340.661
345.414
343.505
344.356
346.442
349.375
348.506
347.006
346.82
347.288
347.85
350.339
352.893
352.091
351.323
352.1
351.28
348.095
345.321
343.999
345.022
345.156
347.527
348.598
346.855
347.54
348.602
347.189
347.249
348.849
350.7
354.351
351.327
348.801
349.734
352.531
351.377
348.077
348.267
347.785
344.367
339.53
339.114
339.306
339.851
341.23
340.235
340.844
340.556
341.548
343.093
341.828
342.996
342.616
343.915
342.44
341.439
342.428
341.919
341.156
341.294
340.226
340.259
335.607
337.665
336.109
336.549
335.909
333.449
328.701
330.691
329.734
329.699
330.74
330.206
329.544
326.493
324.278
324.249
324.584
326.834
326.78
323.965
323.134
321.799
318.977
317.994
321.68
319.112
317.256
318.535
317.28
314.832
314.368
311.492
309.123
309.944
307.551
306.478
304.598
301.112
299.897
297.005
295.189
290.44
287.432
283.867
281.975
275.734
269.968
263.411
254.249
239.971
)
;

boundaryField
{
    sides
    {
        type            calculated;
        value           nonuniform List<scalar> 2(239.971 238.315);
    }
    empty
    {
        type            empty;
    }
}


// ************************************************************************* //
