/*--------------------------------*- C++ -*----------------------------------*\
  =========                 |
  \\      /  F ield         | OpenFOAM: The Open Source CFD Toolbox
   \\    /   O peration     | Website:  https://openfoam.org
    \\  /    A nd           | Version:  7
     \\/     M anipulation  |
\*---------------------------------------------------------------------------*/
FoamFile
{
    version     2.0;
    format      ascii;
    class       volScalarField;
    location    "0.005";
    object      overallT;
}
// * * * * * * * * * * * * * * * * * * * * * * * * * * * * * * * * * * * * * //

dimensions      [1 2 -2 0 0 0 0];

internalField   nonuniform List<scalar> 
1000
(
888.554
883.993
881.692
882.869
889.43
890.484
890.969
895.235
894.003
903.303
902.188
897.144
896.011
899.197
903.915
905.215
903.669
901.948
904.17
903.946
907.653
904.667
905.76
901.483
904.868
907.02
901.281
903.478
899.41
899.482
899.398
900.002
900.146
902.978
903.037
898.019
900.476
896.753
900.656
902.683
906.605
908.263
903.962
905.867
902.225
898.841
898.186
899.887
898.142
894.921
895.241
896.147
898.237
893.866
896.043
902.537
895.514
892.024
899.366
903.487
901.336
900.212
900.736
906.063
911.44
912.013
912.647
909.419
902.418
900.556
901.637
903.121
900.042
893.865
891.899
893.071
897.288
902.022
898.562
905.27
906.743
909.878
907.468
911.109
909.024
904.143
897.893
901.051
900.02
895.87
895.386
885.892
886.554
895.355
895.171
893.454
891.814
890.161
894.046
892.239
889.466
885.456
885.064
890.864
890.851
895.327
894.155
888.06
888.832
889.056
890.348
889.845
889.683
895.435
898.585
899.244
896.058
898.713
902.756
898.472
897.264
896.384
896.52
896.359
892.327
895.414
896.744
897.771
896.322
896.457
890.693
889.248
886.392
887.635
884.719
882.956
882.784
884.084
887.393
884.895
887.148
890.998
891.263
891.607
893.23
891.857
895.333
895.374
892.664
896.944
900.731
900.632
899.608
899.009
895.638
900.325
899.917
904.624
905.328
903.418
902.665
905.073
900.874
900.836
905.958
905.95
907.778
907.485
907.106
906.955
904.726
903.064
905.908
902.173
899.576
904.96
906.508
904.133
900.564
898.77
896.342
895.947
896.801
894.118
891.745
896.105
896.339
892.073
887.976
887.9
888.032
889.787
887.526
889.009
888.544
892.138
890.3
887.187
889.93
887.397
885.436
887.496
887.496
887.372
886.28
889.264
892.217
890.231
890.639
896.146
891.16
889.694
895.864
893.487
897.195
897.65
901.321
901.46
903.32
905.584
907.556
914.134
911.285
910.505
908.506
910.546
913.666
914.552
916.055
913.583
912.65
917.682
916.656
911.201
907.912
912.681
912.867
914.661
912.79
908.713
908.839
908.936
907.375
906.114
905.491
901.707
899.516
897.336
894.538
895.952
898.806
898.993
893.225
887.095
894.168
890.477
894.103
892.851
893.92
895.716
898.453
898.204
894.275
898.64
898.708
902.504
905.243
901.876
899.753
899.769
898.646
897.748
893.073
886.107
890.86
892.331
890.804
891.403
885.088
887.393
885.914
889.896
887.661
891.344
889.695
884.264
886.934
884.821
884.341
880.696
883.748
880.734
882.463
880.323
882.014
882.993
881.439
880.112
877.754
878.905
876.4
880.686
883.625
883.598
881.44
880.535
881.548
877.347
876.277
880.915
880.438
886.425
883.391
882.45
885.48
880.672
877.84
882.797
883.21
884.17
882.984
882.859
879.576
879.135
880.011
883.446
882.478
879.749
881.322
880.188
879.488
876.545
875.831
877.419
878.775
873.015
869.248
868.781
865.289
870.228
867.109
866.759
866.369
867.995
866.664
868.435
864.464
861.229
862.87
867.816
870.349
871.116
870.701
867.33
862.507
859.266
860.761
862.632
860.834
864.078
866.369
862.381
864.319
860.912
859.719
864.712
863.82
863.679
862.631
860.972
866.28
865.964
861.057
862.826
857.323
860.88
854.779
858.787
857.892
854.698
854.851
856.777
859.794
854.1
853.538
850.456
849.376
850.911
854.404
852.675
846.607
846.458
849.812
846.779
848.366
853.573
846.769
846.597
844.296
843.049
842.555
841.698
839.743
838.756
838.589
838.417
835.185
833.823
839.167
837.518
836.052
835.957
831.59
829.281
825.06
826.898
830.787
832.1
829.013
833.561
833.633
833.184
832.179
829.758
827.642
831.855
830.966
828.135
821.192
816.955
816.19
819.19
820.345
815.657
816.421
813.42
809.992
806.824
803.374
804.202
805.058
805.382
801.862
800.011
799.981
798.53
794.158
796.628
794.64
790.198
790.891
789.653
783.919
784.477
778.557
779.04
785.258
787.05
785.132
784.499
776.276
777.18
775.989
772.029
775.658
772.948
769.313
769.417
763.591
762.116
757.514
759.133
753.976
750.139
750.768
749.448
746.268
743.143
741.347
741.782
740.413
738.16
735.699
733.796
735.601
729.623
724.733
723.653
723.388
722.602
718.598
714.462
710.832
708.068
706.705
706.855
701.774
697.546
698.634
693.598
688.839
684.188
687.635
685.62
681.605
684.24
681.236
680.831
677.804
679.172
675.43
673.218
671.204
670.764
669.005
672.769
673.208
674.372
672.323
668.802
667.459
662.866
664.965
661.844
662.345
657.611
660.149
657.357
660.582
658.058
656.347
654.099
652.8
648.847
651.36
650.424
648.899
646.511
646.926
644.049
641.889
640.076
638.226
638.593
640.16
635.229
640.606
636.407
637.879
634.692
635.108
632.035
623.954
623.549
625.445
626.435
625.97
624.605
619.016
619.666
618.826
617.789
615.948
614.678
613.795
615.588
613.717
612.844
611.216
609.303
605.444
602.565
607.39
604.188
604.688
597.962
597.657
595.239
594.379
591.077
590.72
589.392
584.982
588.194
585.891
589.893
588.372
585.198
584.018
585.29
584.311
581.102
578.014
574.278
574.671
576.053
574.404
576.54
570.374
568.747
569.101
569.93
564.735
565.135
563.66
562.421
564.993
562.734
558.331
558.675
557.464
552.32
553.829
551.903
553.431
553.626
551.286
549.409
547.829
547.091
545.771
546.97
544.422
539.119
540.173
536.435
537.505
535.958
532.123
529.11
527.543
527.806
527.343
522.314
525.242
521.765
524.085
524.975
521.598
522.714
518.944
516.412
511.997
508.713
509.717
510.481
505.046
500.952
503.83
502.244
500.66
501.573
499.302
497.893
496.191
498.091
495.032
492.675
490.769
490.172
488.304
486.571
483.896
484.359
484.183
476.695
477.15
477.08
475.857
475.003
472.724
472.599
473.539
472.294
471.315
469.824
469.947
470.27
467.728
463.514
463.105
463.298
460.576
456.074
455.111
455.417
453.698
456.16
454.418
453.182
450.871
451.915
449.386
446.63
446.297
444.239
442.974
443.088
440.239
435.35
436.159
437.555
439.412
438.547
437.633
436.122
434.663
434.896
433.621
431.717
429.574
430.752
428.811
425.541
424.449
425.285
428.962
428.144
426.734
423.945
421.119
422.301
421.009
421.536
421.089
421.912
422.524
419.045
418.073
416.286
415.052
418.807
417.649
417.429
417.498
416.716
411.31
409.402
411.025
410.665
410.251
412.521
410.669
408.645
411.333
410.67
413.476
411.117
409.535
409.125
406.735
406.054
405.89
408.489
405.331
402.434
398.736
396.145
398.377
395.389
391.716
391.676
396.662
394.746
393.789
388.505
388.883
391.042
389.832
387.691
386.841
385.87
385.982
385.76
386.65
381.986
381.578
384.518
385.01
379.188
378.845
378.711
374.832
375.177
374.171
377.613
374.565
373.959
371.752
371.055
369.652
367.124
363.013
362.622
362.539
361.248
360.19
359.424
356.813
354.365
355.031
353.266
352.4
351.236
348.871
351.422
349.821
346.611
341.381
339.415
333.728
329.673
329.655
327.286
324.126
328.117
329.484
326.15
321.899
321.222
319.676
321.711
322.41
320.953
316.711
317.377
315.455
314.334
313.219
309.161
307.124
307.329
304.471
308.229
301.965
300.175
303.404
302.565
304.985
306.035
304.315
306.801
308.321
307.219
306.743
305.542
302.529
300.911
300.831
303.534
299.908
298.38
298.135
298.06
297.005
296.578
297.269
297.199
292.421
292.05
291.814
294.083
295.684
293.053
295.252
295.544
295.538
299.443
295.58
295.754
296.002
299.416
295.069
294.375
294.099
295.969
295.427
297.514
298.418
298.753
296.907
297.419
298.561
297.214
301.088
300.716
302.733
300.33
301.738
302.13
302.014
306.166
305.169
304.639
306.491
305.083
303.957
307.519
307.608
304.595
304.012
300.515
301.057
300.809
298.008
299.339
298.832
296.239
299.656
300.256
298.484
295.791
291.191
290.579
292.923
293.077
297.095
297.576
296.968
295.758
297.361
298.914
300.062
299.091
302.065
299.815
297.758
297.787
298.458
300.598
302.732
301.558
302.842
302.362
299.554
301.221
301.641
300.582
301.361
301.841
298.777
299.536
299.454
301.775
303.318
302.548
300.182
295.738
295.098
296.672
296.496
294.857
293.752
293.453
296.211
297.533
295.084
293.957
296.709
295.741
299.903
302.209
301.319
303.012
302.887
305.696
302.847
303.215
301.693
300.328
298.891
296.876
300.017
301.194
301.013
300.107
298.435
300.145
297.609
298.232
299.708
301.388
302.872
297.468
295.405
299.229
295.517
294.521
298.701
296.818
296.361
297.918
298.809
303.135
304.344
305.362
300.799
297.694
297.427
297.829
)
;

boundaryField
{
    sides
    {
        type            symmetry;
    }
    empty
    {
        type            empty;
    }
}


// ************************************************************************* //
