/*--------------------------------*- C++ -*----------------------------------*\
  =========                 |
  \\      /  F ield         | OpenFOAM: The Open Source CFD Toolbox
   \\    /   O peration     | Website:  https://openfoam.org
    \\  /    A nd           | Version:  7
     \\/     M anipulation  |
\*---------------------------------------------------------------------------*/
FoamFile
{
    version     2.0;
    format      ascii;
    class       volScalarField;
    location    "0.005";
    object      overallT;
}
// * * * * * * * * * * * * * * * * * * * * * * * * * * * * * * * * * * * * * //

dimensions      [1 2 -2 0 0 0 0];

internalField   nonuniform List<scalar> 
1000
(
387.414
382.014
390.072
401.746
395.34
401.116
401.726
392.68
385.526
396.082
394.849
380.525
389.522
403.294
392.799
392.926
381.907
379.38
380.164
375.49
378.484
375.308
375.902
371.661
376.412
385.682
379.432
388.233
399.694
407.81
417.014
416.311
416.654
413.705
413.317
412.369
417.865
410.908
413.339
394.236
389.389
399.045
400.188
394.518
398.632
387.299
381.114
381.451
387.187
366.035
378.352
382.548
388.359
384.138
385.844
381.901
371.882
374.259
371.912
375.651
377.348
383.943
380.061
401.22
407.321
407.279
403.789
402.208
402.29
399.543
398.145
390.956
394.105
388.931
387.505
376.658
370.065
368.102
365.492
366.876
361.826
361.231
368.837
372.149
383.72
376.812
381.997
389.457
391.925
387.518
398.618
400.767
395.949
401.753
400.853
401.857
411.474
431.206
424.982
415.278
420.352
422.032
408.796
416.249
403.844
392.379
394.531
385.98
375.68
373.141
374.192
378.373
371.983
382.095
381.076
373.683
381.968
374.509
370.646
374.573
371.116
366.755
367.959
372.596
370.3
366.572
368.789
388.116
378.206
371.323
372.461
373.107
390.115
397.485
395.362
386.779
374.064
373.858
376.01
379.053
382.801
386.982
368.723
389.289
397.369
406.515
405.988
417.52
414.149
413.072
416.742
404.738
394.298
395.29
404.559
401.702
396.593
406.863
406.77
410.877
419.997
424.556
411.506
412.228
404.093
401.102
397.439
393.258
397.593
395.161
398.973
391.489
388.861
389.236
387.756
386.887
395.088
403.639
399.213
386.572
392.938
393.824
393.659
410.759
397.505
396.661
391.886
393.871
386.872
390.407
391.582
398.029
403.752
392.691
408.153
396.396
397.424
398.79
394.651
390.315
399.222
392.279
395.4
391.15
390.097
386.658
393.645
388.675
391.608
382.143
385.841
381.414
379.249
374.961
382.549
388.097
384.28
389.056
385.028
385.978
386.515
388.909
399.954
383.306
400.259
392.77
378.809
383.2
373.386
374.838
372.594
378.479
379.318
392.788
402.745
400.642
401.818
393.068
386.775
394.154
390.259
385.899
395.077
385.339
383.717
385.139
385.187
383.508
376.482
378.297
388.237
385.15
388.814
398.045
389.615
389.804
381.529
381.581
389.322
394.303
399.385
400.676
395.606
388.719
389.123
382.642
395.396
393.691
385.021
404.381
411.071
411.162
402.998
409.091
396.58
407.764
416.299
419.813
420.924
413.84
404.596
414.212
424.22
431.05
425.266
415.266
408.146
409.469
391.453
397.595
404.896
386.06
380.315
387.659
385.916
380.913
378.418
376.163
380.658
400.087
400.887
381.486
395.503
396.696
402.996
405.569
410.609
405.056
404.281
391.821
386.318
376.079
377.48
379.027
385.158
388.919
396.776
383.918
372.575
386.027
379.837
379.46
388.405
393.915
397.514
389.664
392.229
393.693
401.637
408.527
410.189
393.913
404.128
412.108
410.789
413.444
408.456
410.987
402.67
398.321
392.658
381.596
381.001
373.843
366.105
365.442
367.267
366.518
360.645
363.608
371.956
384.676
389.062
384.883
392.869
400.429
388.236
391.419
380.472
382.426
394.708
387.409
385.697
389.009
383.309
390.337
386.004
382.581
378.979
376.607
384.597
384.526
385.616
389.691
389.26
392.53
390.873
390.761
388.582
402.038
392.573
384.706
383.051
381.129
382.845
372.204
374.532
375.999
384.17
389.096
391.03
393.601
395.436
389.445
383.599
377.453
376.828
380.747
385.089
374.914
372.94
378.721
389.895
383.664
370.925
380.753
386.725
376.928
385.387
385.161
387.32
381.258
387.903
379.236
376.064
383.648
380.15
392.781
389.863
370.172
374.873
364.788
370.663
364.435
368.026
371.044
391.845
385.24
379.299
378.372
380.185
367.313
380.034
380.237
362.116
371.998
367.062
366.008
363.788
373.811
376.477
380.483
371.74
379.646
363.836
372.561
371.361
381.335
377.887
368.372
364.913
352.392
363.52
356.015
347.301
346.728
351.032
343.955
349.476
361.202
364.757
369.067
363.707
363.244
369.339
358.334
348.844
354.162
351.333
345.478
351.278
360.517
359.633
362.48
361.473
359.355
357.604
360.459
352.375
353.487
349.558
347.842
344.725
343.955
333.448
334.918
340.377
349.341
339.589
336.847
336.586
332.251
336.131
335.028
333.68
339.376
329.786
327.488
328.662
335.044
332.189
318.597
321.919
333.584
334.098
330.273
331.064
332.443
331.983
338.02
333.866
329.525
334.978
335.322
338.919
341.242
341.35
339.719
343.785
340.116
350.18
350.454
346.444
345.753
343.203
349.701
333.638
341.922
357.707
348.717
359.587
366.916
370.983
369.653
371.417
368.489
363.559
366.82
359.553
363.792
370.07
367.483
361.238
355.054
377.31
387.393
383.858
372.483
388.917
382.659
385.71
392.157
388.73
391.004
387.339
391.468
387.277
404.301
400.316
401.864
375.464
404.09
413.95
423.492
412.596
420.094
417.986
416.37
418.631
431.466
417.081
415.873
424.784
427.177
420.964
447.535
438.801
432.146
428.145
447.76
450.208
447.503
443.428
441.518
459.617
453.417
467.369
467.179
469.259
464.746
474.767
471.642
486.652
485.13
478.801
472.082
478.347
489.318
484.849
503.011
509.505
466.239
500.794
487.258
462.164
482.423
482.591
469.769
462.706
468.14
495.586
496.037
465.41
460.957
461.368
454.776
451.439
453.003
465.868
466.123
462.63
471.715
470.905
462.489
457.511
467.002
473.165
469.656
463.582
450.783
453.711
452.883
453.022
438.799
453.618
460.939
427.953
448.707
462.078
474.909
459.989
436.985
437.54
452.608
441.419
437.265
427.109
422.408
426.977
435.25
414.962
424.548
434.854
413.5
417.348
417.295
438.661
454.77
439.264
431.161
441.069
451.578
439.096
431.515
417.827
435.003
432.596
425.205
440.83
444.513
450.353
438.618
458.249
447.258
440.683
437.528
436.128
435.59
445.258
456.227
454.743
478.575
458.848
459.779
460.916
460.442
451.188
453.478
442.476
462.519
449.956
448.666
422.452
427.761
425.587
437.538
424.631
420.969
419.733
423.675
421.274
418.251
422.861
422.841
429.378
431.061
442.515
427.66
407.995
404.186
409.906
394.799
407.575
409.243
400.529
403.161
410.797
430.132
404.575
403.161
411.548
406.848
402.105
401.991
393.868
396.068
439.22
416.03
410.702
409.881
412.664
426.388
403.626
405.774
399.621
393.797
377.875
391.78
397.846
402.334
402.339
405.365
394.509
388.738
393.791
403.611
389.472
385.613
384.591
375.107
382.27
400.279
395.499
370.495
367.01
382.503
381.944
390.747
386.43
385.976
396.243
375.539
382.476
384.55
376.147
380.889
387.574
388.649
400.13
373.073
361.259
369.221
384.74
361.233
358.42
345.681
347.379
356.109
371.271
378.246
387.351
392.323
394.216
389.177
409.839
403.492
403.564
400.894
401.764
403.339
402.711
391.331
395.284
407.493
412.868
415.505
400.133
394.294
381.231
396.498
401.963
422.499
414.572
403.552
410.859
412.875
399.881
400.339
403.015
425.794
426.597
421.102
413.911
430.575
427.976
426.803
436.394
416.252
428.355
425.278
418.031
413.002
440.735
445.211
418.411
431.685
424.514
423.965
417.399
407.018
399.388
406.156
406.722
408.379
408.972
417.39
424.4
405.441
406.989
397.66
386.623
369.457
351.717
349.241
350.105
354.693
380.863
424.192
430.056
419.807
394.88
379.193
389.121
392.616
404.448
392.416
403.967
402.431
407.567
407.14
420.512
413.448
405.284
401.521
411.314
387.795
407.812
424.458
411.795
417.586
417.586
450.072
426.847
410.907
401.856
403.443
388.286
399.435
391.289
420.141
433.863
440.027
420.694
421.996
407.532
386.39
389.397
400.707
415.426
408.204
389.615
389.176
395.149
406.928
402.427
397.09
413.62
414.277
435.165
431.975
424.031
434.489
436.049
442.026
437.023
431.449
423.858
411.265
387.998
402.147
398.662
419.166
417.912
429.971
403.078
396.35
414.2
436.838
449.914
430.019
443.35
428.936
419.8
415.075
409.687
423.931
425.609
400.953
400.906
391.943
400.041
412.554
408.47
427.294
413.03
386.043
371.858
385.921
386.411
373.365
385.568
381.41
392.127
385.698
385.43
387.003
394.32
393.866
359.675
381.44
401.251
394.748
417.897
427.488
431.485
431.594
425.131
435.034
423.467
428.399
416.41
411.42
417.97
413.419
430.234
426.137
404.726
417.379
421.451
435.391
440.63
403.765
402.736
397.078
408.239
382.682
368.652
409.371
399.643
399.311
376.232
356.755
357.402
361.736
364.851
364.821
359.821
344.821
348.807
358.044
346.137
357.166
366.214
371.964
371.165
360.941
358.945
350.249
351.073
353.753
)
;

boundaryField
{
    sides
    {
        type            symmetry;
    }
    empty
    {
        type            empty;
    }
}


// ************************************************************************* //
