/*--------------------------------*- C++ -*----------------------------------*\
  =========                 |
  \\      /  F ield         | OpenFOAM: The Open Source CFD Toolbox
   \\    /   O peration     | Website:  https://openfoam.org
    \\  /    A nd           | Version:  7
     \\/     M anipulation  |
\*---------------------------------------------------------------------------*/
FoamFile
{
    version     2.0;
    format      ascii;
    class       volScalarField;
    location    "0.005";
    object      p;
}
// * * * * * * * * * * * * * * * * * * * * * * * * * * * * * * * * * * * * * //

dimensions      [1 -1 -2 0 0 0 0];

internalField   nonuniform List<scalar> 
1000
(
2.30457
2.25016
2.21312
2.24523
2.23311
2.26637
2.29412
2.24059
2.3439
2.34468
2.31727
2.24684
2.23537
2.29897
2.26365
2.28385
2.28918
2.2873
2.22637
2.23259
2.22704
2.27453
2.25886
2.31383
2.22661
2.25116
2.24904
2.28574
2.25508
2.25326
2.22887
2.24372
2.20175
2.21728
2.2786
2.2132
2.19758
2.28049
2.28818
2.24451
2.24792
2.24563
2.22482
2.27132
2.27917
2.23315
2.27056
2.22199
2.25323
2.21401
2.25935
2.22794
2.31219
2.2694
2.25589
2.31953
2.24336
2.2401
2.25092
2.29117
2.263
2.26726
2.22132
2.29855
2.23507
2.33398
2.21796
2.23725
2.26589
2.30375
2.34532
2.30489
2.26889
2.23981
2.25841
2.2282
2.25881
2.28735
2.22812
2.27063
2.30325
2.2998
2.35634
2.24293
2.2541
2.21709
2.31909
2.28096
2.23749
2.20568
2.30253
2.24774
2.25844
2.2293
2.29266
2.27806
2.2921
2.27313
2.25027
2.27528
2.29064
2.23154
2.26844
2.26584
2.34948
2.30537
2.29441
2.27007
2.31477
2.26094
2.40499
2.33125
2.27176
2.27906
2.31604
2.31902
2.27301
2.28332
2.2494
2.34852
2.29239
2.32426
2.3408
2.27522
2.3373
2.26589
2.33795
2.30106
2.30744
2.3078
2.25206
2.29456
2.30508
2.25253
2.27829
2.30533
2.3346
2.30879
2.32074
2.30415
2.32721
2.30787
2.27342
2.27304
2.27507
2.30097
2.27748
2.25087
2.312
2.35783
2.27793
2.27431
2.2341
2.28969
2.32739
2.25135
2.28655
2.32905
2.22233
2.26401
2.29337
2.23781
2.26298
2.27533
2.35022
2.3648
2.35306
2.30134
2.28345
2.38194
2.3145
2.29485
2.30003
2.28582
2.27224
2.33184
2.27618
2.29905
2.27783
2.29787
2.30045
2.27129
2.26142
2.27507
2.20307
2.26405
2.30991
2.24139
2.26025
2.26749
2.28141
2.26109
2.27825
2.21363
2.29102
2.30797
2.22966
2.30695
2.29666
2.31483
2.26821
2.24898
2.20831
2.28637
2.25169
2.17746
2.22007
2.22997
2.23686
2.27941
2.26865
2.22976
2.22484
2.32026
2.30233
2.26708
2.24592
2.29891
2.30588
2.27811
2.2856
2.28342
2.27914
2.22862
2.26737
2.31198
2.30083
2.29928
2.31471
2.26987
2.26591
2.2953
2.29714
2.31608
2.33877
2.30596
2.3022
2.30533
2.25605
2.32358
2.31073
2.27622
2.27824
2.26066
2.33365
2.29232
2.31581
2.34474
2.31749
2.22206
2.31721
2.28872
2.25649
2.2117
2.25263
2.31951
2.34098
2.30481
2.31559
2.26751
2.28302
2.26962
2.24813
2.27343
2.26021
2.28431
2.27451
2.24248
2.31401
2.27446
2.30329
2.25319
2.28646
2.33311
2.23371
2.23727
2.23458
2.31516
2.32085
2.32089
2.28217
2.22311
2.28236
2.33335
2.28901
2.33105
2.29105
2.3226
2.24156
2.22931
2.24856
2.27254
2.33572
2.29091
2.22349
2.25036
2.27779
2.28516
2.27134
2.34394
2.24807
2.22386
2.28036
2.22102
2.2779
2.2919
2.30436
2.31136
2.28745
2.22653
2.27437
2.15069
2.20056
2.20565
2.24845
2.29855
2.2691
2.32957
2.25449
2.26753
2.28383
2.25924
2.27744
2.27089
2.25674
2.22623
2.24915
2.25866
2.21085
2.30102
2.28944
2.21921
2.26511
2.2097
2.19523
2.26302
2.25948
2.15894
2.15682
2.212
2.16566
2.13098
2.14062
2.20044
2.19109
2.17102
2.14741
2.19465
2.16587
2.21196
2.17229
2.17428
2.1871
2.17092
2.18365
2.14422
2.18925
2.20443
2.16829
2.21397
2.23993
2.17245
2.07073
2.16411
2.12096
2.09008
2.08408
2.10878
2.09675
2.13435
2.11675
2.09348
2.08819
2.09136
2.04948
2.06371
2.06114
2.13244
2.06507
2.08755
2.05717
2.02211
2.07475
2.11559
2.04398
2.01024
1.98511
2.04838
2.08691
1.97437
2.01631
2.05238
2.05125
2.03908
2.02357
2.00894
1.99757
1.99361
2.02965
1.95326
1.94625
1.95346
1.95375
2.02067
1.95664
1.8968
1.91305
1.97755
1.95353
1.89784
1.86558
1.91937
1.96062
1.90869
1.85919
1.8459
1.92673
1.84451
1.85125
1.81045
1.86885
1.82215
1.79511
1.75922
1.77644
1.77483
1.78778
1.7506
1.75716
1.77594
1.75456
1.75718
1.75668
1.72237
1.66313
1.64936
1.69286
1.68163
1.66999
1.64394
1.63191
1.66749
1.68876
1.68026
1.62385
1.63631
1.61552
1.58139
1.55799
1.55645
1.55409
1.57601
1.51443
1.57443
1.57028
1.50452
1.4487
1.50657
1.52119
1.56121
1.5249
1.50419
1.43499
1.45658
1.49731
1.44561
1.50494
1.49435
1.44242
1.51797
1.46956
1.43837
1.3993
1.40205
1.42714
1.39312
1.38204
1.42238
1.40625
1.36818
1.44052
1.31188
1.33695
1.33578
1.32036
1.29171
1.2886
1.30432
1.27047
1.30177
1.32098
1.24455
1.23529
1.25066
1.245
1.25146
1.24608
1.17913
1.17839
1.14207
1.10206
1.14155
1.1398
1.15888
1.18064
1.15332
1.13781
1.15005
1.1489
1.10099
1.12989
1.1194
1.12648
1.1429
1.17434
1.20614
1.19441
1.18445
1.12699
1.14741
1.13785
1.17527
1.11938
1.13788
1.0809
1.14297
1.08638
1.10824
1.14132
1.09949
1.13514
1.18811
1.13014
1.15101
1.21205
1.17258
1.16284
1.1389
1.14642
1.15236
1.20011
1.12101
1.10869
1.15987
1.1914
1.15988
1.20644
1.1004
1.10999
1.14259
1.14948
1.13859
1.11922
1.11907
1.10266
1.0526
1.06264
1.08262
1.05128
1.06257
1.10586
1.11611
1.0968
1.07439
1.1123
1.12865
1.08635
1.12377
1.10908
1.15582
1.08399
1.04782
1.03938
1.05809
1.02823
1.08511
1.01825
1.05842
1.08395
1.05855
1.07933
1.02947
1.04245
1.11703
1.0723
1.04547
1.07184
1.11603
0.994874
1.05573
1.09076
1.09732
1.02842
1.05996
1.05748
1.10207
1.05228
1.05883
1.09764
1.09852
1.12203
1.10437
1.07052
1.05148
1.00855
0.989547
1.03846
1.02271
1.05274
1.038
1.13245
1.1401
1.0798
1.00657
1.07148
1.03873
1.04096
0.99401
1.03353
1.06006
1.05349
1.06213
1.11581
1.07855
1.03482
1.01271
1.03518
1.00541
0.960807
0.995584
0.959566
0.975309
1.02465
1.00731
1.05852
1.04626
1.0217
1.03748
1.01573
0.967446
0.940189
0.898823
0.944583
0.943677
0.969081
0.93527
0.876904
0.895397
0.918434
0.948547
0.931274
0.946861
0.968043
0.954627
0.991206
0.936366
0.994492
1.0146
1.0297
0.929383
0.999739
0.988204
0.972508
0.969236
0.895742
0.880416
0.945168
0.915278
0.888534
0.846341
0.90817
0.887092
0.89065
0.869402
0.870457
0.90206
0.892639
0.887401
0.873155
0.86084
0.850617
0.831661
0.848012
0.875472
0.834619
0.851404
0.875627
0.910181
0.820095
0.881905
0.851006
0.818882
0.848787
0.833434
0.858689
0.824286
0.824547
0.890307
0.847573
0.837022
0.872213
0.87274
0.788602
0.830575
0.799899
0.788752
0.800811
0.797579
0.825242
0.806311
0.800658
0.801269
0.827278
0.805337
0.812659
0.825948
0.797059
0.836052
0.787156
0.789878
0.812642
0.802565
0.78866
0.786005
0.758826
0.765086
0.761157
0.733055
0.757297
0.791854
0.728775
0.758198
0.68643
0.663547
0.722573
0.753825
0.721308
0.710702
0.688609
0.722201
0.696909
0.670835
0.709955
0.727672
0.763154
0.774748
0.768333
0.761235
0.706174
0.721701
0.711219
0.717411
0.74225
0.68896
0.670115
0.725939
0.711806
0.759871
0.702181
0.691755
0.728108
0.708393
0.727909
0.656353
0.609551
0.668121
0.715928
0.704342
0.678878
0.660943
0.701031
0.688073
0.65607
0.630823
0.614505
0.646808
0.645311
0.642096
0.669324
0.635784
0.69082
0.639386
0.622222
0.648741
0.639927
0.676256
0.68434
0.659056
0.696443
0.666604
0.687841
0.656128
0.641027
0.669435
0.648543
0.639973
0.658918
0.697786
0.614926
0.663808
0.674787
0.635343
0.646645
0.659819
0.603262
0.63009
0.639817
0.654392
0.659413
0.628703
0.612719
0.661928
0.66809
0.694891
0.705748
0.736476
0.669639
0.674578
0.635057
0.62141
0.62977
0.646744
0.632306
0.657643
0.62267
0.620539
0.623979
0.647226
0.663537
0.64772
0.631849
0.662781
0.630321
0.661061
0.63541
0.683435
0.673646
0.627842
0.655009
0.647538
0.625081
0.653821
0.635851
0.648972
0.643483
0.615405
0.685202
0.721823
0.686939
0.678274
0.650515
0.654034
0.665303
0.669469
0.664278
0.654672
0.653836
0.664859
0.651694
0.613374
0.640994
0.63842
0.605207
0.641147
0.67075
0.6446
0.641869
0.672496
0.632321
0.648123
0.638271
0.644207
0.657537
0.669413
0.674321
0.628329
0.635728
0.611062
0.634988
0.664435
0.675809
0.702586
0.629426
0.651765
0.668189
0.621363
0.639103
0.647529
0.646419
0.671919
0.640677
0.653556
0.666701
0.62599
0.6578
0.691607
0.678834
0.650854
0.689225
0.69605
0.662746
0.703592
0.711842
0.657008
0.709127
0.687607
0.667478
0.6153
0.609412
0.645423
0.67402
0.679487
0.67442
0.740629
0.649218
0.653337
0.683927
0.631022
0.683787
0.676778
0.714281
0.65047
0.618256
0.650462
0.65303
0.64283
0.639708
0.677319
0.685707
0.667912
0.67438
0.699428
0.658172
0.715005
0.716224
0.688352
0.661593
0.701774
0.684332
0.658593
0.660655
0.660723
0.677848
0.644648
0.670244
0.638194
0.606298
0.651244
0.679667
0.685655
0.667444
0.686771
0.676843
0.690175
0.721171
0.714181
0.676741
0.687944
0.649005
0.611109
0.582858
0.640181
0.65286
0.664232
0.657604
0.681125
0.70498
0.646118
0.631358
0.638888
0.659784
0.678808
0.666382
0.712686
0.673847
0.636015
0.629286
0.649596
0.628294
0.693829
0.685639
0.682126
0.647609
0.652785
0.660702
0.692389
0.684917
0.65961
0.652894
0.650704
0.674738
0.620372
0.675064
0.634387
0.585243
0.613413
0.641977
0.665761
0.660455
0.614232
)
;

boundaryField
{
    sides
    {
        type            symmetry;
    }
    empty
    {
        type            empty;
    }
}


// ************************************************************************* //
