/*--------------------------------*- C++ -*----------------------------------*\
  =========                 |
  \\      /  F ield         | OpenFOAM: The Open Source CFD Toolbox
   \\    /   O peration     | Website:  https://openfoam.org
    \\  /    A nd           | Version:  7
     \\/     M anipulation  |
\*---------------------------------------------------------------------------*/
FoamFile
{
    version     2.0;
    format      ascii;
    class       volScalarField;
    location    "0.005";
    object      p;
}
// * * * * * * * * * * * * * * * * * * * * * * * * * * * * * * * * * * * * * //

dimensions      [1 -1 -2 0 0 0 0];

internalField   nonuniform List<scalar> 
1000
(
5.25569
5.24384
5.23313
5.22988
5.23312
5.2337
5.22785
5.21894
5.21766
5.25357
5.1938
5.24159
5.23688
5.23561
5.2498
5.25627
5.23708
5.2216
5.26311
5.2538
5.24398
5.27607
5.25612
5.21622
5.23138
5.2473
5.25482
5.22034
5.22327
5.21949
5.23232
5.24996
5.20258
5.22216
5.25456
5.24807
5.23778
5.21892
5.24065
5.22333
5.21366
5.24495
5.21935
5.24022
5.22472
5.23296
5.22196
5.23525
5.24227
5.24815
5.20771
5.22463
5.24877
5.22619
5.24588
5.21725
5.21834
5.21416
5.24087
5.22733
5.21951
5.19924
5.19037
5.20988
5.20924
5.20607
5.21117
5.21198
5.22914
5.23078
5.22496
5.22806
5.23238
5.20076
5.21722
5.19689
5.23133
5.19313
5.19929
5.25883
5.24034
5.24683
5.2251
5.2234
5.24039
5.23332
5.2125
5.23097
5.22822
5.2239
5.23491
5.24372
5.23219
5.22664
5.25709
5.25849
5.23844
5.24114
5.25263
5.23335
5.22103
5.22633
5.21908
5.24042
5.24219
5.21843
5.23081
5.21365
5.23755
5.22954
5.25229
5.22521
5.20705
5.24134
5.24221
5.1997
5.23698
5.21189
5.2438
5.23858
5.22429
5.22363
5.20918
5.23419
5.22173
5.24037
5.225
5.25309
5.24286
5.26451
5.23659
5.24703
5.24125
5.24217
5.25602
5.2538
5.24123
5.25443
5.24569
5.20495
5.23277
5.24481
5.23236
5.21618
5.2339
5.23661
5.25383
5.27002
5.24208
5.24842
5.27037
5.24755
5.2262
5.24381
5.22823
5.24585
5.25369
5.23406
5.22798
5.23252
5.23849
5.26743
5.23809
5.22547
5.2241
5.21643
5.26117
5.22979
5.26169
5.27439
5.23448
5.2442
5.25878
5.25154
5.25585
5.24067
5.2466
5.25491
5.26574
5.25791
5.23942
5.26718
5.23455
5.21809
5.2454
5.26398
5.25539
5.24063
5.23142
5.25851
5.24588
5.26248
5.26375
5.27216
5.23333
5.25001
5.25259
5.25275
5.28278
5.27688
5.23286
5.2586
5.27614
5.24528
5.24288
5.22488
5.2343
5.24073
5.24207
5.25841
5.2391
5.22127
5.23744
5.24702
5.23365
5.22997
5.23563
5.21728
5.22792
5.22094
5.22156
5.23106
5.21015
5.18125
5.19219
5.17694
5.20802
5.23631
5.20966
5.21191
5.20463
5.18947
5.20041
5.19481
5.19508
5.23065
5.17788
5.18493
5.1429
5.18209
5.17426
5.16298
5.16952
5.16789
5.13758
5.18162
5.14426
5.14921
5.14148
5.12875
5.13278
5.13435
5.14156
5.11003
5.12874
5.12027
5.1375
5.13384
5.09725
5.09482
5.10012
5.08573
5.11726
5.13072
5.06938
5.06413
5.05785
5.07756
5.09601
5.06444
5.04967
5.06773
5.03937
5.04069
5.08042
5.02983
5.05115
5.05684
5.04266
5.02763
5.00582
5.00333
4.96746
4.9791
4.98423
4.98044
4.95381
4.93967
4.94113
4.97168
4.96387
4.97451
4.95435
4.93188
4.93776
4.93294
4.90736
4.87522
4.897
4.87444
4.89648
4.89197
4.86757
4.85729
4.83881
4.85269
4.84696
4.80933
4.81272
4.82344
4.78458
4.8424
4.80258
4.76384
4.77686
4.74354
4.73623
4.75163
4.74028
4.76287
4.69749
4.72794
4.70619
4.70511
4.69205
4.72248
4.70253
4.66485
4.63542
4.65952
4.65951
4.60467
4.61011
4.62742
4.5961
4.58657
4.57884
4.56802
4.56554
4.57318
4.55156
4.55879
4.53855
4.52124
4.52812
4.52587
4.50595
4.4914
4.51432
4.4702
4.4679
4.44904
4.47374
4.47797
4.42163
4.40049
4.38683
4.40272
4.39221
4.38031
4.38122
4.3317
4.33339
4.29174
4.30225
4.31738
4.28018
4.26239
4.2599
4.25433
4.22666
4.22256
4.22046
4.22601
4.20344
4.17919
4.18806
4.18407
4.1873
4.15175
4.10215
4.10199
4.09186
4.09699
4.05272
4.08838
4.05534
4.04197
4.04849
4.04274
3.99857
3.98826
3.97842
3.9609
3.9429
3.93686
3.92692
3.93294
3.91385
3.90568
3.90379
3.86379
3.82009
3.81058
3.83279
3.82776
3.80464
3.7673
3.78043
3.72974
3.73394
3.70324
3.68018
3.69721
3.65681
3.66146
3.64265
3.6339
3.62383
3.62106
3.59735
3.58195
3.53954
3.55027
3.51946
3.52075
3.49324
3.47095
3.46377
3.45925
3.43527
3.41657
3.40997
3.37936
3.36759
3.34503
3.32395
3.31724
3.28373
3.27478
3.25839
3.24237
3.23219
3.20018
3.21679
3.17922
3.1487
3.14962
3.11212
3.096
3.08807
3.06451
3.04866
3.04336
3.03899
3.00685
2.97127
2.99625
2.93512
2.90194
2.88372
2.87338
2.84276
2.80697
2.80419
2.78381
2.77554
2.75813
2.72575
2.71261
2.6769
2.65518
2.62367
2.62043
2.57365
2.56173
2.53103
2.50973
2.50004
2.49297
2.46219
2.46058
2.43407
2.39809
2.40472
2.38501
2.35272
2.30729
2.29732
2.29214
2.2457
2.22068
2.20883
2.18686
2.16423
2.16451
2.11099
2.10021
2.05865
2.04406
2.01825
1.99829
2.00515
1.9772
1.97461
1.98723
1.96291
2.00858
1.98654
1.97824
1.9526
1.96096
1.95477
1.95831
1.95456
1.94647
1.9485
1.96018
1.94769
1.93668
1.93031
1.923
1.92946
1.92001
1.91011
1.92764
1.94691
1.90093
1.91376
1.93535
1.91756
1.91625
1.92608
1.89803
1.88915
1.87449
1.87117
1.8693
1.88582
1.85724
1.86933
1.85488
1.85162
1.84438
1.84953
1.83631
1.84937
1.84472
1.83774
1.82212
1.83532
1.82011
1.80994
1.82161
1.82246
1.81871
1.80911
1.81034
1.78691
1.7871
1.78729
1.77895
1.77376
1.77173
1.77823
1.7672
1.75949
1.76488
1.73878
1.7702
1.76783
1.7703
1.76692
1.75476
1.73776
1.73655
1.72149
1.71521
1.70732
1.69528
1.71637
1.70151
1.68846
1.68714
1.70208
1.7067
1.70551
1.69534
1.69331
1.68718
1.69819
1.70542
1.69012
1.67807
1.6632
1.67239
1.65029
1.6361
1.62492
1.61311
1.60114
1.60546
1.60343
1.59881
1.59885
1.59616
1.61077
1.60636
1.57949
1.5906
1.59293
1.58854
1.5724
1.56106
1.55243
1.56037
1.5727
1.5636
1.56296
1.56014
1.57091
1.57704
1.54319
1.54902
1.564
1.5465
1.5421
1.53085
1.52477
1.54642
1.53275
1.5274
1.50993
1.51598
1.51035
1.49664
1.50982
1.49408
1.49781
1.49948
1.47694
1.4687
1.48081
1.46749
1.46301
1.46299
1.45949
1.43779
1.41934
1.42014
1.42337
1.42988
1.41881
1.41615
1.43754
1.43023
1.42442
1.41702
1.40078
1.41388
1.38959
1.38296
1.36818
1.38293
1.36552
1.35381
1.35714
1.3682
1.3638
1.35542
1.34554
1.34522
1.35036
1.36244
1.35158
1.3434
1.34128
1.3242
1.32451
1.31859
1.30769
1.30132
1.29595
1.28886
1.28935
1.28339
1.26646
1.27432
1.27583
1.275
1.2708
1.26572
1.26119
1.25618
1.25121
1.25518
1.22999
1.24584
1.24355
1.22922
1.22993
1.21752
1.22143
1.19319
1.1863
1.1808
1.18719
1.18344
1.17889
1.16436
1.16806
1.16967
1.16239
1.15562
1.1434
1.14291
1.12547
1.12856
1.12211
1.12247
1.11754
1.11109
1.10877
1.10337
1.08963
1.0918
1.07295
1.07169
1.06976
1.07185
1.07443
1.06841
1.06498
1.07318
1.07839
1.05859
1.06258
1.05081
1.03839
1.04295
1.04513
1.04124
1.01926
1.00738
0.996841
1.00428
1.00185
0.999099
0.98614
0.985071
0.971381
0.959703
0.964235
0.975734
0.964294
0.955252
0.945687
0.942594
0.942695
0.927977
0.910537
0.907383
0.914801
0.908579
0.902332
0.886347
0.883197
0.870472
0.867902
0.860738
0.857733
0.852932
0.853698
0.838755
0.845459
0.834742
0.834022
0.836498
0.829258
0.821823
0.818568
0.800703
0.791042
0.772348
0.77348
0.775115
0.77673
0.77108
0.767013
0.763937
0.765921
0.753343
0.749888
0.739912
0.729897
0.723724
0.727246
0.725902
0.718214
0.698785
0.703481
0.689238
0.681923
0.676352
0.669387
0.669201
0.661036
0.655965
0.648072
0.635937
0.631864
0.624979
0.629388
0.618567
0.604287
0.605044
0.6132
0.58996
0.577039
0.572478
0.560386
0.563826
0.557903
0.548883
0.546488
0.544307
0.529511
0.525661
0.527782
0.508228
0.504361
0.505864
0.50021
0.506509
0.500547
0.496054
0.498617
0.505104
0.508118
0.501473
0.503115
0.50312
0.505341
0.501525
0.509349
0.510507
0.501833
0.500386
0.49964
0.502806
0.492494
0.494885
0.502329
0.494961
0.501833
0.496497
0.497964
0.493348
0.502572
0.500554
0.494158
0.499986
0.498087
0.498322
0.498923
0.499237
0.493791
0.499742
0.500462
0.513641
0.507447
0.496171
0.500136
0.499305
0.499205
0.499988
0.498819
0.507201
0.510833
0.508093
0.505597
0.499788
0.500025
0.505524
0.508402
0.500068
0.49749
0.503203
0.502295
0.50421
0.509417
0.510608
0.502903
0.506388
0.507507
0.50872
0.507353
0.504976
0.499667
0.501103
0.514413
0.513359
0.508669
0.505902
0.502106
0.504897
0.505234
0.508575
0.512229
0.508269
0.507712
0.503943
0.500547
0.502269
0.509052
0.50097
0.496334
0.505035
0.509146
0.499377
0.499493
0.502513
0.507054
0.504302
0.501418
0.49596
0.494066
0.492541
0.49936
0.509482
0.504089
0.503741
0.50223
0.497225
0.507887
0.498799
0.502011
0.500044
0.509777
0.507777
0.504221
0.509813
0.511483
0.508356
0.50928
0.511662
0.512054
0.506672
0.510944
0.509233
0.517525
0.509402
0.508819
0.504115
0.51177
0.510308
0.51316
0.502809
0.509276
0.508504
0.508595
0.509505
0.500039
0.502295
0.511508
0.519469
0.514827
0.505416
0.501056
0.500454
0.501898
0.504632
0.510207
0.515642
0.511306
0.504494
0.504839
0.503203
0.509012
0.509126
0.510362
0.509401
0.507307
0.505073
0.507031
0.506094
0.507696
0.503231
0.51103
0.505607
0.502469
0.510121
0.513397
0.505179
0.505337
0.505185
0.500499
0.506116
0.507973
0.500122
)
;

boundaryField
{
    sides
    {
        type            symmetry;
    }
    empty
    {
        type            empty;
    }
}


// ************************************************************************* //
