/*--------------------------------*- C++ -*----------------------------------*\
  =========                 |
  \\      /  F ield         | OpenFOAM: The Open Source CFD Toolbox
   \\    /   O peration     | Website:  https://openfoam.org
    \\  /    A nd           | Version:  7
     \\/     M anipulation  |
\*---------------------------------------------------------------------------*/
FoamFile
{
    version     2.0;
    format      ascii;
    class       volScalarField;
    location    "0.005";
    object      rhoMMean;
}
// * * * * * * * * * * * * * * * * * * * * * * * * * * * * * * * * * * * * * //

dimensions      [1 -3 0 0 0 0 0];

internalField   nonuniform List<scalar> 
1000
(
2.87091e-06
1.7205e-06
1.71236e-06
1.80025e-06
3.02436e-06
3.02575e-06
1.87209e-06
1.87e-06
2.0546e-06
3.41938e-06
2.27548e-06
2.43707e-06
3.59561e-06
2.20224e-06
2.18434e-06
2.13621e-06
1.97416e-06
2.02066e-06
2.17736e-06
2.19782e-06
2.35871e-06
2.60911e-06
3.8123e-06
2.66585e-06
2.65864e-06
2.2334e-06
3.38706e-06
2.20294e-06
2.17806e-06
2.12621e-06
2.08878e-06
3.27941e-06
3.0046e-06
2.14784e-06
2.1383e-06
2.14667e-06
3.33103e-06
2.15132e-06
2.22991e-06
3.36148e-06
2.12342e-06
2.20759e-06
3.43193e-06
2.30617e-06
2.35011e-06
2.34593e-06
2.38126e-06
3.63676e-06
2.61237e-06
3.44333e-06
4.84158e-06
2.4552e-06
3.65536e-06
2.59586e-06
2.58587e-06
3.7572e-06
3.73395e-06
4.87157e-06
3.72372e-06
2.57331e-06
2.59772e-06
3.813e-06
2.64655e-06
2.62841e-06
2.92252e-06
2.9388e-06
4.15803e-06
2.96438e-06
2.91183e-06
4.07456e-06
2.90904e-06
2.93066e-06
2.85068e-06
2.76047e-06
2.82278e-06
2.86603e-06
4.04411e-06
4.06456e-06
2.86533e-06
2.77675e-06
2.72071e-06
2.67538e-06
3.82114e-06
3.92367e-06
4.10153e-06
2.82697e-06
2.82185e-06
2.73234e-06
2.55146e-06
2.46706e-06
2.48729e-06
2.61702e-06
2.67654e-06
3.74488e-06
3.05296e-06
3.25082e-06
2.65143e-06
2.85882e-06
2.82953e-06
3.85601e-06
2.69537e-06
2.87137e-06
2.80116e-06
2.82999e-06
2.83743e-06
2.77768e-06
2.64004e-06
2.65399e-06
3.73116e-06
3.33126e-06
3.0518e-06
3.12085e-06
3.16479e-06
4.16524e-06
3.51912e-06
3.63653e-06
3.64351e-06
3.51098e-06
4.37681e-06
4.25545e-06
3.07156e-06
4.29799e-06
3.13015e-06
3.12457e-06
3.12434e-06
4.27498e-06
4.2673e-06
4.20755e-06
3.03482e-06
2.98925e-06
5.58116e-06
3.43984e-06
3.40171e-06
3.07342e-06
5.3289e-06
3.06249e-06
4.17872e-06
4.10293e-06
2.92741e-06
3.83904e-06
2.99832e-06
3.05063e-06
3.06574e-06
3.29011e-06
4.58583e-06
3.24454e-06
3.25453e-06
3.07388e-06
2.98483e-06
3.04877e-06
4.22778e-06
3.04319e-06
3.06551e-06
3.11364e-06
4.30055e-06
4.83577e-06
3.90949e-06
3.85462e-06
5.02921e-06
3.58468e-06
3.18293e-06
4.30125e-06
3.16526e-06
3.26337e-06
3.24454e-06
4.37588e-06
4.26475e-06
3.06435e-06
3.11922e-06
3.16595e-06
3.32243e-06
4.62791e-06
3.40334e-06
3.38543e-06
4.48353e-06
3.33289e-06
4.48911e-06
3.37892e-06
3.22733e-06
3.26942e-06
4.34101e-06
4.31264e-06
5.50862e-06
3.18316e-06
2.96693e-06
2.94624e-06
4.14687e-06
2.97275e-06
4.17105e-06
3.05296e-06
3.16479e-06
3.1999e-06
5.55652e-06
4.41587e-06
3.32707e-06
3.35172e-06
4.47748e-06
3.35405e-06
3.44472e-06
3.41333e-06
3.54795e-06
3.80184e-06
4.88924e-06
3.81439e-06
3.83765e-06
3.83346e-06
3.97226e-06
5.13848e-06
6.33632e-06
4.88343e-06
3.42124e-06
3.39729e-06
3.41031e-06
3.46867e-06
4.63489e-06
4.65488e-06
4.71301e-06
4.70766e-06
3.60863e-06
4.74114e-06
3.6263e-06
3.52749e-06
3.67048e-06
3.73325e-06
3.76441e-06
3.76883e-06
3.6256e-06
4.75602e-06
3.5991e-06
4.80578e-06
3.61189e-06
3.63258e-06
3.62653e-06
4.76253e-06
3.55981e-06
3.64955e-06
4.30567e-06
4.45075e-06
4.38867e-06
4.23755e-06
4.0741e-06
3.8788e-06
4.08293e-06
5.07245e-06
3.7393e-06
5.13314e-06
4.10897e-06
4.10456e-06
5.04827e-06
4.88715e-06
3.59608e-06
4.3252e-06
3.29732e-06
3.29662e-06
3.33545e-06
3.27267e-06
3.18014e-06
3.24198e-06
3.17525e-06
3.06412e-06
3.07807e-06
3.12526e-06
3.13224e-06
3.14247e-06
4.33543e-06
3.20059e-06
3.16758e-06
3.11573e-06
3.11271e-06
3.17455e-06
3.19525e-06
3.2464e-06
3.25407e-06
3.25663e-06
3.25105e-06
3.28174e-06
3.30406e-06
3.3301e-06
3.31452e-06
3.32917e-06
3.30522e-06
6.76366e-06
3.23872e-06
3.23315e-06
3.22338e-06
3.22059e-06
3.23733e-06
3.24779e-06
3.18246e-06
4.41192e-06
3.18432e-06
3.18479e-06
3.17851e-06
3.10992e-06
4.24824e-06
3.14735e-06
3.26546e-06
4.54631e-06
4.49748e-06
3.32917e-06
5.56698e-06
3.27755e-06
3.28592e-06
3.2822e-06
4.55165e-06
3.38497e-06
3.41287e-06
3.46727e-06
3.58213e-06
3.52912e-06
3.53609e-06
3.58003e-06
3.54888e-06
3.49633e-06
3.35591e-06
3.33475e-06
3.40566e-06
4.63605e-06
3.6628e-06
3.69117e-06
3.69814e-06
3.70117e-06
3.64444e-06
3.61723e-06
4.76811e-06
3.49354e-06
5.70811e-06
3.524e-06
5.20405e-06
4.11688e-06
4.87553e-06
3.68722e-06
3.80416e-06
5.01828e-06
3.84346e-06
4.99689e-06
3.81928e-06
3.81881e-06
3.79882e-06
4.88738e-06
3.57399e-06
5.90015e-06
3.71395e-06
3.69024e-06
4.8446e-06
3.75232e-06
4.02504e-06
4.04341e-06
4.04015e-06
3.71279e-06
3.55864e-06
3.49913e-06
3.44612e-06
3.45565e-06
4.72719e-06
3.57399e-06
4.71463e-06
3.4403e-06
3.41263e-06
3.4117e-06
3.47308e-06
3.61561e-06
3.71326e-06
4.87064e-06
3.74162e-06
4.89412e-06
4.6228e-06
4.56374e-06
3.52563e-06
3.6821e-06
3.86787e-06
3.9625e-06
3.93204e-06
5.05664e-06
3.96575e-06
3.95064e-06
5.09663e-06
3.88275e-06
3.81835e-06
3.8302e-06
3.7758e-06
3.64537e-06
3.6449e-06
3.65513e-06
3.67536e-06
3.66257e-06
3.67489e-06
3.68141e-06
4.8439e-06
4.79438e-06
4.8081e-06
5.09826e-06
3.97273e-06
3.93506e-06
4.93365e-06
3.49727e-06
4.60861e-06
3.36218e-06
4.53119e-06
4.5577e-06
4.52956e-06
3.55748e-06
3.6449e-06
3.69512e-06
4.77811e-06
3.60073e-06
4.81252e-06
3.49448e-06
3.32382e-06
4.52003e-06
5.66184e-06
4.68627e-06
3.52958e-06
4.71092e-06
3.47936e-06
4.65837e-06
4.62303e-06
4.78927e-06
3.41566e-06
3.54167e-06
3.81556e-06
4.93039e-06
3.50843e-06
3.36939e-06
3.28336e-06
3.18827e-06
3.19292e-06
3.79045e-06
4.9197e-06
3.23035e-06
3.09829e-06
3.0225e-06
3.03203e-06
3.04761e-06
3.00134e-06
3.23547e-06
3.1076e-06
4.29916e-06
4.26475e-06
3.10852e-06
2.93299e-06
3.44356e-06
3.62607e-06
2.8937e-06
2.8565e-06
4.01783e-06
2.86091e-06
3.99249e-06
2.87742e-06
2.90672e-06
4.07177e-06
2.96902e-06
2.96786e-06
2.97623e-06
2.92764e-06
2.90811e-06
2.94275e-06
2.88718e-06
2.85835e-06
4.01853e-06
5.38168e-06
3.29638e-06
3.60608e-06
3.62026e-06
3.31731e-06
3.32824e-06
3.11666e-06
3.06016e-06
3.07388e-06
5.404e-06
5.46235e-06
4.30753e-06
3.13666e-06
3.36055e-06
3.45356e-06
4.61838e-06
3.41659e-06
3.43635e-06
3.53075e-06
3.75976e-06
3.33986e-06
3.21478e-06
4.39611e-06
4.37449e-06
3.08714e-06
4.30009e-06
3.25267e-06
3.25337e-06
3.19804e-06
3.13224e-06
3.1148e-06
3.14782e-06
3.69884e-06
4.18035e-06
3.4782e-06
4.65186e-06
3.20385e-06
5.52536e-06
3.17083e-06
3.20153e-06
3.30173e-06
4.43168e-06
3.39264e-06
3.5891e-06
3.59073e-06
4.75974e-06
3.60305e-06
3.33591e-06
3.51563e-06
3.71977e-06
3.90879e-06
4.14013e-06
3.8495e-06
4.80484e-06
3.41915e-06
3.72837e-06
4.9383e-06
3.78115e-06
3.91553e-06
4.97922e-06
3.80045e-06
3.59561e-06
3.36939e-06
3.38078e-06
3.34056e-06
3.37334e-06
3.43542e-06
3.42426e-06
5.7395e-06
3.36079e-06
3.43379e-06
3.32638e-06
6.80109e-06
4.51933e-06
3.33916e-06
3.19106e-06
3.20338e-06
5.50769e-06
3.16246e-06
4.30171e-06
3.15665e-06
3.21943e-06
4.53003e-06
3.34335e-06
3.31894e-06
3.6077e-06
3.87415e-06
3.83485e-06
4.86111e-06
3.27709e-06
3.1978e-06
5.68183e-06
4.08061e-06
3.39008e-06
3.13363e-06
4.17965e-06
4.23383e-06
3.39985e-06
3.57445e-06
3.49099e-06
3.25756e-06
3.35939e-06
3.41077e-06
4.62489e-06
4.62559e-06
3.41938e-06
3.43984e-06
4.63931e-06
4.23476e-06
4.42703e-06
3.86671e-06
3.88391e-06
5.19103e-06
4.11804e-06
5.18731e-06
3.99296e-06
4.29451e-06
4.24336e-06
4.19314e-06
3.85973e-06
3.81161e-06
3.91972e-06
3.96622e-06
3.96924e-06
3.86903e-06
4.89133e-06
6.05384e-06
4.00946e-06
5.1987e-06
4.12362e-06
4.10665e-06
4.03457e-06
4.02899e-06
4.0934e-06
3.90972e-06
3.8423e-06
3.84811e-06
3.90274e-06
3.87717e-06
3.79231e-06
4.79903e-06
3.63095e-06
3.5805e-06
3.57748e-06
4.65884e-06
3.3652e-06
5.50235e-06
4.31194e-06
3.31708e-06
3.27081e-06
3.30476e-06
4.49329e-06
3.30197e-06
3.29755e-06
3.18874e-06
4.40681e-06
3.27778e-06
3.26546e-06
3.1899e-06
3.17107e-06
3.22222e-06
4.39123e-06
3.18316e-06
3.14689e-06
3.49215e-06
6.04988e-06
3.74395e-06
3.77627e-06
3.60096e-06
4.4747e-06
3.37939e-06
3.4596e-06
4.63372e-06
3.45844e-06
4.56955e-06
3.54656e-06
3.49099e-06
3.51587e-06
4.75369e-06
3.62933e-06
4.03573e-06
3.88624e-06
4.98294e-06
4.69906e-06
3.82741e-06
4.06387e-06
3.71675e-06
3.72279e-06
3.5705e-06
3.36055e-06
3.40078e-06
3.5054e-06
3.41636e-06
3.43495e-06
3.41938e-06
3.44193e-06
4.61536e-06
4.64233e-06
3.3387e-06
4.33891e-06
5.49537e-06
3.1706e-06
3.24082e-06
4.46749e-06
3.33754e-06
3.51889e-06
4.74928e-06
3.64142e-06
3.65025e-06
5.99246e-06
3.67024e-06
4.75579e-06
3.49657e-06
3.47494e-06
3.44053e-06
4.65907e-06
3.69815e-06
3.72233e-06
3.70256e-06
3.72628e-06
4.89087e-06
3.7014e-06
3.62398e-06
3.5898e-06
3.7958e-06
4.60885e-06
4.86994e-06
3.59492e-06
3.58631e-06
3.7565e-06
3.71233e-06
3.63723e-06
3.64351e-06
3.66071e-06
3.68466e-06
3.72651e-06
3.68048e-06
3.82463e-06
4.85623e-06
5.20614e-06
3.72837e-06
4.87459e-06
4.83182e-06
4.84902e-06
3.55888e-06
5.92805e-06
3.71163e-06
7.31282e-06
4.28498e-06
3.52609e-06
3.52796e-06
3.8881e-06
4.0376e-06
3.96738e-06
3.66885e-06
3.72814e-06
3.71907e-06
3.67675e-06
3.6828e-06
3.70163e-06
3.75743e-06
3.77557e-06
4.16129e-06
4.1564e-06
4.06271e-06
3.81486e-06
3.88624e-06
5.05409e-06
4.05898e-06
4.55747e-06
4.16454e-06
5.26938e-06
4.18802e-06
4.15687e-06
4.10176e-06
4.07456e-06
3.91274e-06
5.36215e-06
4.66162e-06
4.71068e-06
4.04922e-06
3.96041e-06
5.0134e-06
4.74626e-06
4.73742e-06
3.64188e-06
3.79324e-06
4.13385e-06
4.1006e-06
5.25055e-06
3.9339e-06
3.68094e-06
3.54214e-06
3.47122e-06
3.51098e-06
3.51307e-06
3.79673e-06
3.8323e-06
4.98968e-06
5.07106e-06
5.17987e-06
3.97156e-06
3.92158e-06
3.8602e-06
4.92784e-06
3.76696e-06
3.6735e-06
3.75418e-06
3.9346e-06
3.82346e-06
4.22453e-06
3.92878e-06
4.7437e-06
3.38799e-06
4.58002e-06
3.52354e-06
3.65281e-06
4.78555e-06
4.68115e-06
3.46286e-06
4.69045e-06
3.52703e-06
3.86066e-06
3.91995e-06
3.76301e-06
3.39776e-06
3.40682e-06
3.41077e-06
3.4031e-06
3.35707e-06
4.8646e-06
4.00202e-06
4.38402e-06
3.20943e-06
3.15409e-06
5.47956e-06
3.04342e-06
2.95438e-06
4.09037e-06
4.09037e-06
4.22197e-06
3.20455e-06
3.33638e-06
3.37869e-06
3.32963e-06
3.34056e-06
3.15363e-06
3.13875e-06
3.14015e-06
3.13224e-06
3.00716e-06
2.9667e-06
2.94694e-06
4.11362e-06
4.13594e-06
3.06295e-06
5.46143e-06
3.43681e-06
4.64489e-06
4.76346e-06
3.65118e-06
4.77532e-06
4.68836e-06
3.73093e-06
4.91389e-06
4.9941e-06
4.99712e-06
4.04713e-06
3.87624e-06
4.89692e-06
4.95434e-06
3.76697e-06
3.51958e-06
4.61675e-06
4.56444e-06
3.49889e-06
3.50098e-06
4.72231e-06
3.56236e-06
3.59003e-06
3.62212e-06
3.63026e-06
4.64721e-06
3.38102e-06
4.53259e-06
4.51213e-06
4.46284e-06
3.26709e-06
4.42192e-06
5.58163e-06
3.22152e-06
3.21617e-06
3.30755e-06
3.49447e-06
4.66721e-06
3.55911e-06
4.74672e-06
3.58794e-06
3.54237e-06
3.58957e-06
3.72116e-06
4.83995e-06
3.70814e-06
4.12153e-06
4.52794e-06
3.99063e-06
4.11502e-06
4.20592e-06
4.2494e-06
4.18732e-06
5.24311e-06
4.0169e-06
3.92437e-06
3.87973e-06
3.7393e-06
3.68792e-06
3.71279e-06
3.73186e-06
3.5898e-06
4.69185e-06
3.84857e-06
3.90484e-06
4.00109e-06
4.79345e-06
4.69022e-06
3.57004e-06
3.93506e-06
4.34589e-06
3.42193e-06
3.29104e-06
4.3338e-06
3.2264e-06
3.26569e-06
3.81579e-06
3.77254e-06
3.74232e-06
4.74672e-06
3.40659e-06
3.09039e-06
2.96438e-06
2.86394e-06
4.05155e-06
4.08619e-06
2.90695e-06
2.87393e-06
2.83278e-06
3.99295e-06
4.01202e-06
2.85487e-06
3.16805e-06
5.52164e-06
3.45867e-06
5.55628e-06
3.13643e-06
3.18316e-06
4.31939e-06
3.00576e-06
2.86184e-06
4.26451e-06
3.0869e-06
3.12945e-06
3.99691e-06
2.77024e-06
2.78651e-06
2.78117e-06
2.74862e-06
2.77605e-06
3.94692e-06
3.21966e-06
3.78254e-06
4.03527e-06
2.86486e-06
3.96645e-06
2.82511e-06
2.80325e-06
2.87858e-06
2.82999e-06
2.78279e-06
2.79651e-06
3.97087e-06
2.87277e-06
3.29685e-06
3.2185e-06
2.58377e-06
2.59888e-06
3.69931e-06
2.43776e-06
3.51028e-06
2.34453e-06
3.52749e-06
4.70906e-06
2.3543e-06
2.29826e-06
2.27641e-06
2.25293e-06
3.43147e-06
2.25571e-06
2.23805e-06
3.35986e-06
2.09808e-06
2.06878e-06
2.1848e-06
2.21014e-06
2.17806e-06
2.14179e-06
2.159e-06
3.40659e-06
3.4031e-06
4.47516e-06
2.47566e-06
2.4287e-06
3.12922e-06
3.17851e-06
2.52983e-06
2.39591e-06
3.09132e-06
3.34335e-06
3.55306e-06
3.33358e-06
2.25688e-06
2.26153e-06
3.38055e-06
3.27779e-06
2.10041e-06
2.13691e-06
2.24618e-06
2.16318e-06
2.13481e-06
3.27104e-06
2.05111e-06
2.16574e-06
2.14621e-06
1.92836e-06
1.84093e-06
1.77793e-06
1.71701e-06
2.73536e-06
1.48428e-06
1.46545e-06
1.48382e-06
)
;

boundaryField
{
    sides
    {
        type            calculated;
        value           nonuniform List<scalar> 2(1.48382e-06 2.87091e-06);
    }
    empty
    {
        type            empty;
    }
}


// ************************************************************************* //
