/*--------------------------------*- C++ -*----------------------------------*\
  =========                 |
  \\      /  F ield         | OpenFOAM: The Open Source CFD Toolbox
   \\    /   O peration     | Website:  https://openfoam.org
    \\  /    A nd           | Version:  7
     \\/     M anipulation  |
\*---------------------------------------------------------------------------*/
FoamFile
{
    version     2.0;
    format      ascii;
    class       volScalarField;
    location    "0.005";
    object      rhoMMean;
}
// * * * * * * * * * * * * * * * * * * * * * * * * * * * * * * * * * * * * * //

dimensions      [1 -3 0 0 0 0 0];

internalField   nonuniform List<scalar> 
1000
(
6.91771e-06
7.62677e-06
8.03583e-06
8.46788e-06
8.62508e-06
8.79547e-06
8.99166e-06
9.23425e-06
9.5332e-06
9.6983e-06
1.01143e-05
1.00832e-05
1.0412e-05
1.06115e-05
1.05735e-05
1.06868e-05
1.10106e-05
1.10152e-05
1.12047e-05
1.13521e-05
1.14325e-05
1.13832e-05
1.17878e-05
1.19553e-05
1.21264e-05
1.22501e-05
1.23826e-05
1.2309e-05
1.24947e-05
1.24048e-05
1.27771e-05
1.28865e-05
1.30094e-05
1.31762e-05
1.31296e-05
1.33698e-05
1.35088e-05
1.37132e-05
1.36201e-05
1.38654e-05
1.40457e-05
1.39508e-05
1.40353e-05
1.39894e-05
1.4236e-05
1.41279e-05
1.44459e-05
1.43779e-05
1.43596e-05
1.45678e-05
1.48047e-05
1.45353e-05
1.50667e-05
1.51115e-05
1.50976e-05
1.50567e-05
1.52857e-05
1.53681e-05
1.54571e-05
1.55009e-05
1.56926e-05
1.58665e-05
1.57292e-05
1.57548e-05
1.57494e-05
1.56513e-05
1.5918e-05
1.62242e-05
1.61765e-05
1.62428e-05
1.63401e-05
1.61634e-05
1.62723e-05
1.64885e-05
1.64179e-05
1.63744e-05
1.65147e-05
1.67045e-05
1.69857e-05
1.70911e-05
1.71442e-05
1.69143e-05
1.71934e-05
1.7291e-05
1.6939e-05
1.73416e-05
1.73548e-05
1.75408e-05
1.75929e-05
1.76609e-05
1.75025e-05
1.73203e-05
1.76385e-05
1.75443e-05
1.7729e-05
1.79411e-05
1.78976e-05
1.80885e-05
1.80906e-05
1.79479e-05
1.76644e-05
1.75949e-05
1.7832e-05
1.78082e-05
1.7828e-05
1.76284e-05
1.78676e-05
1.78085e-05
1.80101e-05
1.80357e-05
1.79108e-05
1.81541e-05
1.84045e-05
1.84107e-05
1.86259e-05
1.83705e-05
1.86206e-05
1.84833e-05
1.84411e-05
1.87372e-05
1.8819e-05
1.89341e-05
1.89247e-05
1.88048e-05
1.8977e-05
1.86808e-05
1.88975e-05
1.88592e-05
1.89182e-05
1.86386e-05
1.87584e-05
1.88147e-05
1.87667e-05
1.90237e-05
1.90112e-05
1.91335e-05
1.90867e-05
1.90176e-05
1.90877e-05
1.89663e-05
1.89434e-05
1.94293e-05
1.91453e-05
1.93068e-05
1.92125e-05
1.93823e-05
1.96988e-05
1.91965e-05
1.92892e-05
1.94592e-05
1.93512e-05
1.9038e-05
1.91464e-05
1.90443e-05
1.96203e-05
1.94259e-05
1.94512e-05
1.92413e-05
1.93568e-05
1.95476e-05
1.94878e-05
1.96767e-05
1.95102e-05
1.92218e-05
1.93906e-05
1.90977e-05
1.87892e-05
1.90019e-05
1.90839e-05
1.88606e-05
1.93456e-05
1.96233e-05
1.96145e-05
1.94639e-05
1.96158e-05
1.96982e-05
1.97504e-05
1.97794e-05
2.00401e-05
1.96944e-05
1.96094e-05
1.96469e-05
1.95977e-05
1.97866e-05
1.96419e-05
1.95938e-05
1.97601e-05
1.95492e-05
1.95682e-05
1.97651e-05
1.96598e-05
1.94444e-05
1.96651e-05
1.96712e-05
1.9576e-05
1.96041e-05
1.94431e-05
1.97189e-05
1.92953e-05
1.92168e-05
1.97211e-05
1.93741e-05
1.91766e-05
1.9287e-05
1.92049e-05
1.91742e-05
1.91316e-05
1.93383e-05
1.94861e-05
1.9376e-05
1.93607e-05
1.91812e-05
1.93286e-05
1.92703e-05
1.9135e-05
1.93651e-05
1.93211e-05
1.93243e-05
1.92827e-05
1.93005e-05
1.9541e-05
1.95314e-05
1.95123e-05
1.95978e-05
1.96256e-05
1.97787e-05
1.98762e-05
1.96691e-05
1.9633e-05
1.96612e-05
1.94926e-05
1.96988e-05
1.96733e-05
1.95378e-05
1.99083e-05
1.99413e-05
1.97134e-05
1.995e-05
1.95319e-05
1.98792e-05
1.9916e-05
1.96447e-05
1.96669e-05
1.98033e-05
1.99583e-05
1.9953e-05
1.9761e-05
1.9932e-05
1.97468e-05
1.95731e-05
1.9495e-05
1.95327e-05
1.96057e-05
1.92011e-05
1.94735e-05
1.94112e-05
1.91059e-05
1.91567e-05
1.90613e-05
1.94713e-05
1.95991e-05
1.92799e-05
1.96568e-05
1.94699e-05
1.99964e-05
1.96905e-05
1.99815e-05
1.97558e-05
1.99985e-05
2.01451e-05
2.01993e-05
1.97239e-05
1.99705e-05
1.97023e-05
1.96231e-05
1.95607e-05
1.96597e-05
1.97854e-05
1.96223e-05
1.95916e-05
1.94127e-05
1.95232e-05
1.98111e-05
1.96981e-05
1.99246e-05
1.98032e-05
1.99275e-05
1.99694e-05
1.98746e-05
1.97943e-05
1.98213e-05
1.9581e-05
1.9759e-05
1.95459e-05
1.96698e-05
1.93558e-05
1.95898e-05
1.97746e-05
1.94493e-05
1.99182e-05
1.98104e-05
1.96532e-05
1.95708e-05
1.97732e-05
1.94926e-05
1.92691e-05
1.90805e-05
1.93671e-05
1.94072e-05
1.92575e-05
1.9258e-05
1.92309e-05
1.93587e-05
1.94885e-05
1.9563e-05
1.92182e-05
1.90856e-05
1.92828e-05
1.917e-05
1.9181e-05
1.93908e-05
1.91993e-05
1.91002e-05
1.92024e-05
1.93613e-05
1.94854e-05
1.97531e-05
1.97482e-05
1.94057e-05
1.95157e-05
1.95979e-05
1.94261e-05
1.99998e-05
1.95736e-05
1.95993e-05
1.98032e-05
1.9689e-05
1.98147e-05
2.00739e-05
1.99671e-05
1.99858e-05
1.999e-05
1.97998e-05
1.95942e-05
1.95918e-05
1.97672e-05
1.95093e-05
1.9337e-05
1.9397e-05
1.94334e-05
1.95449e-05
1.94874e-05
1.92383e-05
1.92105e-05
1.95876e-05
1.94547e-05
1.9728e-05
1.96097e-05
1.9365e-05
1.93194e-05
1.91314e-05
1.89016e-05
1.87107e-05
1.8926e-05
1.8813e-05
1.86404e-05
1.87923e-05
1.90698e-05
1.8946e-05
1.93511e-05
1.92072e-05
1.91581e-05
1.89843e-05
1.92866e-05
1.90587e-05
1.91247e-05
1.92442e-05
1.92306e-05
1.91077e-05
1.90219e-05
1.90863e-05
1.9119e-05
1.91443e-05
1.90216e-05
1.87906e-05
1.84525e-05
1.85034e-05
1.86505e-05
1.8849e-05
1.86452e-05
1.87413e-05
1.88539e-05
1.90253e-05
1.84721e-05
1.86603e-05
1.82144e-05
1.85327e-05
1.8401e-05
1.84974e-05
1.84599e-05
1.83323e-05
1.83487e-05
1.81436e-05
1.81877e-05
1.81393e-05
1.80879e-05
1.81016e-05
1.80528e-05
1.76753e-05
1.74165e-05
1.77079e-05
1.74061e-05
1.75977e-05
1.74014e-05
1.76443e-05
1.72477e-05
1.71131e-05
1.72631e-05
1.6936e-05
1.71904e-05
1.71258e-05
1.69096e-05
1.69552e-05
1.7023e-05
1.67544e-05
1.6918e-05
1.67805e-05
1.65216e-05
1.63715e-05
1.63157e-05
1.64349e-05
1.61769e-05
1.62539e-05
1.63283e-05
1.61511e-05
1.61885e-05
1.60872e-05
1.59973e-05
1.60033e-05
1.60022e-05
1.55896e-05
1.59475e-05
1.56723e-05
1.56973e-05
1.54308e-05
1.55351e-05
1.56049e-05
1.54304e-05
1.52874e-05
1.50968e-05
1.52374e-05
1.54834e-05
1.5334e-05
1.53919e-05
1.51948e-05
1.5126e-05
1.50771e-05
1.49843e-05
1.52027e-05
1.49785e-05
1.45953e-05
1.47069e-05
1.4515e-05
1.45671e-05
1.44597e-05
1.45935e-05
1.45556e-05
1.44241e-05
1.45465e-05
1.42072e-05
1.42198e-05
1.41009e-05
1.41594e-05
1.40229e-05
1.40513e-05
1.3906e-05
1.36473e-05
1.33738e-05
1.38211e-05
1.36619e-05
1.3412e-05
1.33857e-05
1.33985e-05
1.33926e-05
1.31732e-05
1.30689e-05
1.32985e-05
1.31133e-05
1.31325e-05
1.3018e-05
1.28242e-05
1.28797e-05
1.27707e-05
1.26267e-05
1.25667e-05
1.25681e-05
1.26835e-05
1.24966e-05
1.23413e-05
1.23079e-05
1.21928e-05
1.19484e-05
1.19525e-05
1.16809e-05
1.19151e-05
1.16761e-05
1.16341e-05
1.16634e-05
1.14616e-05
1.15904e-05
1.17929e-05
1.15832e-05
1.13161e-05
1.14698e-05
1.11705e-05
1.12665e-05
1.11633e-05
1.11138e-05
1.11051e-05
1.1047e-05
1.08858e-05
1.09723e-05
1.08321e-05
1.06732e-05
1.06243e-05
1.05068e-05
1.04792e-05
1.02661e-05
1.03465e-05
1.02919e-05
1.03169e-05
1.04352e-05
1.03604e-05
1.03865e-05
1.0348e-05
1.04509e-05
1.02007e-05
1.0124e-05
1.00233e-05
1.01484e-05
9.8989e-06
9.68595e-06
9.78437e-06
9.70048e-06
9.63575e-06
9.54089e-06
9.51906e-06
9.41725e-06
9.46438e-06
9.31909e-06
9.39832e-06
9.32841e-06
9.13992e-06
8.92544e-06
9.03153e-06
8.97922e-06
8.84525e-06
8.82563e-06
8.74928e-06
8.78597e-06
8.74858e-06
8.75146e-06
8.66407e-06
8.70373e-06
8.47974e-06
8.63717e-06
8.74295e-06
8.72105e-06
8.28983e-06
8.32994e-06
8.33366e-06
8.26189e-06
8.23059e-06
8.06098e-06
7.87636e-06
7.97268e-06
7.97882e-06
7.83855e-06
7.79277e-06
7.80363e-06
7.81777e-06
7.66629e-06
7.62407e-06
7.64151e-06
7.63446e-06
7.6097e-06
7.73251e-06
7.53977e-06
7.5532e-06
7.5928e-06
7.58952e-06
7.62223e-06
7.56904e-06
7.45948e-06
7.52735e-06
7.39585e-06
7.53651e-06
7.55093e-06
7.45804e-06
7.49192e-06
7.48687e-06
7.46062e-06
7.40482e-06
7.6101e-06
7.50229e-06
7.41154e-06
7.43844e-06
7.34691e-06
7.22633e-06
7.13287e-06
7.19322e-06
7.21596e-06
7.32359e-06
7.3038e-06
7.22043e-06
7.09718e-06
7.18823e-06
7.30736e-06
7.17409e-06
7.10699e-06
6.98007e-06
7.28885e-06
7.31317e-06
7.12454e-06
7.31357e-06
7.2148e-06
7.1494e-06
7.06421e-06
6.99197e-06
7.03096e-06
6.93915e-06
6.99388e-06
6.87719e-06
6.89655e-06
6.85968e-06
6.92234e-06
6.84282e-06
6.81737e-06
6.93041e-06
6.84122e-06
6.95656e-06
6.82483e-06
6.86168e-06
6.9046e-06
6.83994e-06
6.97821e-06
7.0033e-06
6.92285e-06
6.90757e-06
6.91306e-06
6.87977e-06
6.92666e-06
6.87786e-06
6.78079e-06
6.86765e-06
6.92659e-06
6.74117e-06
6.66189e-06
6.69447e-06
6.60258e-06
6.6229e-06
6.70384e-06
6.68984e-06
6.56552e-06
6.60205e-06
6.68521e-06
6.53255e-06
6.53783e-06
6.4416e-06
6.52811e-06
6.48891e-06
6.38392e-06
6.37324e-06
6.40958e-06
6.41674e-06
6.54499e-06
6.52102e-06
6.4236e-06
6.40245e-06
6.36259e-06
6.55183e-06
6.4559e-06
6.52967e-06
6.50293e-06
6.58387e-06
6.27673e-06
6.18971e-06
6.40261e-06
6.40263e-06
6.33721e-06
6.27011e-06
6.22942e-06
6.24448e-06
6.2064e-06
6.24009e-06
6.25953e-06
6.20384e-06
6.42339e-06
6.26267e-06
6.22368e-06
6.37534e-06
6.41607e-06
6.28759e-06
6.11587e-06
6.08392e-06
6.14858e-06
6.13498e-06
6.08794e-06
6.03549e-06
6.07413e-06
6.17348e-06
5.99806e-06
5.98911e-06
5.87616e-06
5.78411e-06
5.85677e-06
5.8059e-06
5.8088e-06
5.77091e-06
5.76098e-06
5.78792e-06
5.6663e-06
5.75858e-06
5.85981e-06
5.65384e-06
5.68246e-06
5.74175e-06
5.66472e-06
5.65514e-06
5.56565e-06
5.78939e-06
5.75596e-06
5.88964e-06
5.80057e-06
5.96981e-06
5.75584e-06
5.93205e-06
5.78811e-06
5.7355e-06
5.78588e-06
5.83856e-06
5.78453e-06
5.85056e-06
5.67279e-06
5.72594e-06
5.70402e-06
5.70257e-06
5.79483e-06
5.74391e-06
5.58016e-06
5.71371e-06
5.70478e-06
5.66363e-06
5.69871e-06
5.61013e-06
5.65979e-06
5.6229e-06
5.64889e-06
5.60604e-06
5.656e-06
5.65863e-06
5.62115e-06
5.82171e-06
5.84575e-06
5.82206e-06
5.72889e-06
5.58535e-06
5.46073e-06
5.41869e-06
5.40393e-06
5.41655e-06
5.48347e-06
5.6215e-06
5.38268e-06
5.40814e-06
5.42164e-06
5.43485e-06
5.47233e-06
5.52278e-06
5.48828e-06
5.62348e-06
5.53578e-06
5.571e-06
5.73589e-06
5.77286e-06
5.6607e-06
5.65705e-06
5.63664e-06
5.60253e-06
5.7135e-06
5.69911e-06
5.60399e-06
5.64071e-06
5.64557e-06
5.5169e-06
5.53492e-06
5.63422e-06
5.49839e-06
5.60578e-06
5.597e-06
5.60213e-06
5.75231e-06
5.75719e-06
5.67651e-06
5.50114e-06
5.51562e-06
5.59909e-06
5.44724e-06
5.66435e-06
5.60683e-06
5.47984e-06
5.62327e-06
5.60967e-06
5.40546e-06
5.4379e-06
5.4866e-06
5.37217e-06
5.40218e-06
5.53615e-06
5.59939e-06
5.54343e-06
5.6013e-06
5.666e-06
5.58879e-06
5.66021e-06
5.768e-06
5.7799e-06
5.80822e-06
5.75052e-06
5.68263e-06
5.73236e-06
5.81378e-06
5.8553e-06
5.71873e-06
5.69734e-06
5.71373e-06
5.8038e-06
5.89122e-06
5.83973e-06
5.8055e-06
5.78874e-06
5.56805e-06
5.50932e-06
5.58574e-06
5.48846e-06
5.50918e-06
5.38949e-06
5.41655e-06
5.50818e-06
5.50839e-06
5.46303e-06
5.48063e-06
5.64157e-06
5.57105e-06
5.56591e-06
5.52804e-06
5.56098e-06
5.61392e-06
5.47572e-06
5.57328e-06
5.4571e-06
5.55043e-06
5.49983e-06
5.53687e-06
5.4704e-06
5.55124e-06
5.45745e-06
5.37991e-06
5.39879e-06
5.45473e-06
5.47456e-06
5.47865e-06
5.40418e-06
5.51116e-06
5.44729e-06
5.52987e-06
5.57537e-06
5.60288e-06
5.47405e-06
5.41944e-06
5.4405e-06
5.47889e-06
5.659e-06
5.43831e-06
5.32097e-06
5.29477e-06
5.26705e-06
5.31593e-06
5.22548e-06
5.25373e-06
5.21235e-06
5.17175e-06
5.32174e-06
5.35599e-06
5.25369e-06
5.30107e-06
5.34145e-06
5.34162e-06
5.31665e-06
5.28152e-06
5.28479e-06
5.35636e-06
5.20533e-06
5.30577e-06
5.30312e-06
5.28796e-06
5.23848e-06
5.4206e-06
5.33806e-06
5.20872e-06
5.23232e-06
5.25522e-06
5.18921e-06
5.07896e-06
4.94221e-06
5.02509e-06
5.04223e-06
4.94253e-06
5.00561e-06
4.95604e-06
5.04548e-06
5.14588e-06
5.02414e-06
4.87678e-06
4.95592e-06
4.75535e-06
4.72998e-06
4.76118e-06
4.73616e-06
4.68518e-06
4.7267e-06
4.65802e-06
4.60815e-06
4.58127e-06
4.49685e-06
4.49727e-06
4.50111e-06
4.38967e-06
4.51245e-06
4.48551e-06
4.48541e-06
4.54405e-06
4.4972e-06
4.36275e-06
4.29153e-06
4.37498e-06
4.31034e-06
4.33278e-06
4.34161e-06
4.35105e-06
4.28488e-06
4.19988e-06
4.19737e-06
4.15608e-06
4.01465e-06
4.04727e-06
4.00105e-06
3.94762e-06
3.84532e-06
3.82625e-06
3.9047e-06
3.92981e-06
3.91751e-06
3.90505e-06
3.72356e-06
3.81446e-06
3.83983e-06
3.71965e-06
3.69601e-06
3.64981e-06
3.61551e-06
3.58487e-06
3.58282e-06
3.45362e-06
3.44856e-06
3.34823e-06
3.28901e-06
3.33784e-06
3.35158e-06
3.35944e-06
3.32659e-06
3.34993e-06
3.26188e-06
3.04029e-06
3.12027e-06
3.09532e-06
2.99776e-06
3.00362e-06
2.94452e-06
2.91746e-06
2.90904e-06
2.7408e-06
2.68982e-06
2.61644e-06
2.58231e-06
2.51835e-06
2.36876e-06
2.2762e-06
2.18369e-06
2.02373e-06
)
;

boundaryField
{
    sides
    {
        type            calculated;
        value           nonuniform List<scalar> 2(2.02373e-06 6.91771e-06);
    }
    empty
    {
        type            empty;
    }
}


// ************************************************************************* //
