/*--------------------------------*- C++ -*----------------------------------*\
  =========                 |
  \\      /  F ield         | OpenFOAM: The Open Source CFD Toolbox
   \\    /   O peration     | Website:  https://openfoam.org
    \\  /    A nd           | Version:  7
     \\/     M anipulation  |
\*---------------------------------------------------------------------------*/
FoamFile
{
    version     2.0;
    format      ascii;
    class       volScalarField;
    location    "0.005";
    object      rhoMMean;
}
// * * * * * * * * * * * * * * * * * * * * * * * * * * * * * * * * * * * * * //

dimensions      [1 -3 0 0 0 0 0];

internalField   nonuniform List<scalar> 
1000
(
1.98561e-05
2.00111e-05
1.99093e-05
1.99366e-05
1.9754e-05
1.98054e-05
1.973e-05
1.96386e-05
1.96431e-05
1.95715e-05
1.95008e-05
1.9731e-05
1.96343e-05
1.95218e-05
1.94851e-05
1.94612e-05
1.94778e-05
1.94677e-05
1.95375e-05
1.95711e-05
1.94733e-05
1.96011e-05
1.96071e-05
1.95141e-05
1.94607e-05
1.94736e-05
1.96275e-05
1.94308e-05
1.95049e-05
1.95959e-05
1.95959e-05
1.96694e-05
1.94628e-05
1.94959e-05
1.95863e-05
1.96963e-05
1.96429e-05
1.96159e-05
1.95813e-05
1.94793e-05
1.93528e-05
1.9464e-05
1.94282e-05
1.94823e-05
1.9514e-05
1.95834e-05
1.95446e-05
1.95621e-05
1.96977e-05
1.98028e-05
1.95932e-05
1.96789e-05
1.97191e-05
1.97358e-05
1.97073e-05
1.94903e-05
1.96489e-05
1.97279e-05
1.96893e-05
1.95195e-05
1.94785e-05
1.94427e-05
1.943e-05
1.93779e-05
1.92713e-05
1.92332e-05
1.9159e-05
1.9254e-05
1.94853e-05
1.95594e-05
1.95547e-05
1.95559e-05
1.95851e-05
1.95496e-05
1.96713e-05
1.96401e-05
1.9707e-05
1.94323e-05
1.95081e-05
1.96101e-05
1.95077e-05
1.93994e-05
1.93867e-05
1.92554e-05
1.94078e-05
1.94823e-05
1.95182e-05
1.95608e-05
1.96022e-05
1.96579e-05
1.97039e-05
1.99356e-05
1.98726e-05
1.96778e-05
1.97593e-05
1.98314e-05
1.97233e-05
1.98393e-05
1.97489e-05
1.97438e-05
1.97709e-05
1.99114e-05
1.98387e-05
1.9815e-05
1.98342e-05
1.95888e-05
1.97074e-05
1.97825e-05
1.98092e-05
1.97887e-05
1.9842e-05
1.98102e-05
1.97486e-05
1.97556e-05
1.96778e-05
1.952e-05
1.96745e-05
1.9591e-05
1.95701e-05
1.95928e-05
1.95299e-05
1.95724e-05
1.96127e-05
1.97042e-05
1.97374e-05
1.97369e-05
1.96316e-05
1.96608e-05
1.96993e-05
1.97364e-05
1.98056e-05
1.98491e-05
1.99204e-05
1.99397e-05
2.00332e-05
1.99854e-05
1.99556e-05
1.99825e-05
1.98365e-05
1.98572e-05
1.99091e-05
1.98399e-05
1.97919e-05
1.97152e-05
1.97491e-05
1.97661e-05
1.97755e-05
1.98117e-05
1.97845e-05
1.97289e-05
1.97584e-05
1.96373e-05
1.96293e-05
1.96928e-05
1.96791e-05
1.9609e-05
1.96099e-05
1.94755e-05
1.94339e-05
1.94036e-05
1.95145e-05
1.95453e-05
1.95693e-05
1.95435e-05
1.9449e-05
1.94315e-05
1.96414e-05
1.9415e-05
1.94899e-05
1.95508e-05
1.95293e-05
1.95002e-05
1.95636e-05
1.95803e-05
1.97042e-05
1.95359e-05
1.94722e-05
1.95737e-05
1.97752e-05
1.9657e-05
1.96099e-05
1.9719e-05
1.9608e-05
1.96315e-05
1.97615e-05
1.97742e-05
1.97198e-05
1.97414e-05
1.98378e-05
1.99797e-05
1.99142e-05
1.99857e-05
1.99156e-05
1.99807e-05
1.97933e-05
1.98082e-05
1.98316e-05
1.98851e-05
2.00333e-05
2.00256e-05
1.99247e-05
1.99058e-05
1.99879e-05
1.98997e-05
1.99271e-05
1.98719e-05
1.97898e-05
1.97844e-05
1.97615e-05
1.97409e-05
1.98325e-05
1.97499e-05
1.97379e-05
1.9813e-05
1.96609e-05
1.96724e-05
1.96076e-05
1.95569e-05
1.95337e-05
1.94754e-05
1.93848e-05
1.92698e-05
1.91534e-05
1.91446e-05
1.92288e-05
1.91544e-05
1.91825e-05
1.92345e-05
1.9192e-05
1.92058e-05
1.91805e-05
1.90879e-05
1.91164e-05
1.91907e-05
1.93118e-05
1.92535e-05
1.90652e-05
1.91378e-05
1.90161e-05
1.92066e-05
1.91736e-05
1.90926e-05
1.91933e-05
1.9152e-05
1.91052e-05
1.92988e-05
1.92679e-05
1.92831e-05
1.93112e-05
1.92539e-05
1.92259e-05
1.9252e-05
1.94147e-05
1.94171e-05
1.93685e-05
1.93371e-05
1.92943e-05
1.93754e-05
1.91337e-05
1.91765e-05
1.9104e-05
1.91442e-05
1.92749e-05
1.92357e-05
1.90295e-05
1.88065e-05
1.88312e-05
1.89791e-05
1.90664e-05
1.89628e-05
1.89451e-05
1.89928e-05
1.89756e-05
1.91951e-05
1.92716e-05
1.90222e-05
1.91786e-05
1.91437e-05
1.92453e-05
1.91003e-05
1.90473e-05
1.89119e-05
1.88478e-05
1.88044e-05
1.88789e-05
1.89211e-05
1.88057e-05
1.87806e-05
1.8834e-05
1.89869e-05
1.89913e-05
1.89631e-05
1.88665e-05
1.89264e-05
1.88782e-05
1.88637e-05
1.87464e-05
1.8628e-05
1.87422e-05
1.86247e-05
1.8778e-05
1.86746e-05
1.83981e-05
1.84693e-05
1.84748e-05
1.85297e-05
1.85056e-05
1.84553e-05
1.84438e-05
1.83931e-05
1.83363e-05
1.83329e-05
1.81934e-05
1.81139e-05
1.80995e-05
1.80506e-05
1.81262e-05
1.81291e-05
1.80078e-05
1.80894e-05
1.7899e-05
1.79984e-05
1.80189e-05
1.80463e-05
1.80232e-05
1.8033e-05
1.79701e-05
1.78714e-05
1.77437e-05
1.78654e-05
1.78625e-05
1.76901e-05
1.76628e-05
1.77235e-05
1.75531e-05
1.76953e-05
1.76923e-05
1.77033e-05
1.77086e-05
1.76518e-05
1.76764e-05
1.76894e-05
1.76523e-05
1.75544e-05
1.75388e-05
1.75373e-05
1.75313e-05
1.75035e-05
1.75872e-05
1.72348e-05
1.72414e-05
1.71733e-05
1.7236e-05
1.73108e-05
1.72215e-05
1.71536e-05
1.71104e-05
1.71585e-05
1.70675e-05
1.70142e-05
1.6942e-05
1.6825e-05
1.67953e-05
1.67644e-05
1.68003e-05
1.6715e-05
1.65957e-05
1.6549e-05
1.65308e-05
1.64885e-05
1.63028e-05
1.63725e-05
1.64318e-05
1.64339e-05
1.64334e-05
1.6245e-05
1.6332e-05
1.63275e-05
1.63543e-05
1.62188e-05
1.6052e-05
1.60527e-05
1.59455e-05
1.61218e-05
1.59703e-05
1.6142e-05
1.60178e-05
1.59688e-05
1.59319e-05
1.59448e-05
1.58534e-05
1.57405e-05
1.56579e-05
1.5664e-05
1.55209e-05
1.54648e-05
1.55483e-05
1.55572e-05
1.55028e-05
1.55287e-05
1.54515e-05
1.53353e-05
1.52169e-05
1.51999e-05
1.52546e-05
1.52361e-05
1.52224e-05
1.51328e-05
1.50531e-05
1.48029e-05
1.48313e-05
1.47769e-05
1.4801e-05
1.49056e-05
1.47458e-05
1.47577e-05
1.46673e-05
1.45915e-05
1.45986e-05
1.44633e-05
1.44199e-05
1.43301e-05
1.42312e-05
1.42721e-05
1.41521e-05
1.41229e-05
1.40133e-05
1.40103e-05
1.41094e-05
1.4206e-05
1.40959e-05
1.39667e-05
1.39109e-05
1.37837e-05
1.37867e-05
1.37482e-05
1.37135e-05
1.36805e-05
1.36378e-05
1.36207e-05
1.34764e-05
1.34258e-05
1.34267e-05
1.33352e-05
1.34043e-05
1.32631e-05
1.3225e-05
1.31711e-05
1.30495e-05
1.3015e-05
1.30103e-05
1.29332e-05
1.29496e-05
1.29382e-05
1.29884e-05
1.28831e-05
1.27001e-05
1.27985e-05
1.25548e-05
1.24082e-05
1.24069e-05
1.23443e-05
1.22141e-05
1.21494e-05
1.20819e-05
1.20677e-05
1.21064e-05
1.19451e-05
1.18955e-05
1.18221e-05
1.17551e-05
1.16527e-05
1.1621e-05
1.1612e-05
1.13875e-05
1.13504e-05
1.13173e-05
1.12733e-05
1.12245e-05
1.11584e-05
1.10666e-05
1.11273e-05
1.10289e-05
1.09427e-05
1.09279e-05
1.09543e-05
1.08434e-05
1.06981e-05
1.06854e-05
1.06344e-05
1.04861e-05
1.04598e-05
1.04096e-05
1.03218e-05
1.02706e-05
1.02641e-05
1.00939e-05
1.01242e-05
9.97513e-06
9.91672e-06
9.85212e-06
9.85934e-06
9.85068e-06
9.72235e-06
9.75648e-06
9.80299e-06
9.73727e-06
9.9133e-06
9.84333e-06
9.82672e-06
9.72136e-06
9.7828e-06
9.74741e-06
9.75536e-06
9.79907e-06
9.71604e-06
9.72273e-06
9.77367e-06
9.71903e-06
9.74308e-06
9.69098e-06
9.69005e-06
9.70023e-06
9.70896e-06
9.6825e-06
9.82755e-06
9.89938e-06
9.73883e-06
9.74467e-06
9.85548e-06
9.74266e-06
9.74445e-06
9.84737e-06
9.77286e-06
9.70927e-06
9.67685e-06
9.62268e-06
9.65283e-06
9.69941e-06
9.65088e-06
9.733e-06
9.6738e-06
9.66598e-06
9.62465e-06
9.64122e-06
9.63687e-06
9.60462e-06
9.67827e-06
9.60671e-06
9.55891e-06
9.63372e-06
9.62789e-06
9.68661e-06
9.71597e-06
9.70266e-06
9.65058e-06
9.62211e-06
9.67959e-06
9.63277e-06
9.62562e-06
9.6401e-06
9.56502e-06
9.55724e-06
9.59185e-06
9.67394e-06
9.56791e-06
9.54801e-06
9.62085e-06
9.50634e-06
9.67863e-06
9.73237e-06
9.74528e-06
9.67107e-06
9.63549e-06
9.56216e-06
9.63674e-06
9.56385e-06
9.52791e-06
9.46979e-06
9.46113e-06
9.60235e-06
9.56965e-06
9.50389e-06
9.45268e-06
9.59793e-06
9.60303e-06
9.64146e-06
9.60746e-06
9.61583e-06
9.54986e-06
9.56604e-06
9.68853e-06
9.67694e-06
9.66998e-06
9.55339e-06
9.57072e-06
9.49364e-06
9.37886e-06
9.38111e-06
9.34264e-06
9.27186e-06
9.26861e-06
9.35114e-06
9.35237e-06
9.34885e-06
9.40535e-06
9.44595e-06
9.40361e-06
9.31869e-06
9.40768e-06
9.43773e-06
9.48148e-06
9.34716e-06
9.31911e-06
9.26731e-06
9.31861e-06
9.43895e-06
9.41551e-06
9.40443e-06
9.41146e-06
9.50167e-06
9.51638e-06
9.34101e-06
9.45746e-06
9.54204e-06
9.48494e-06
9.46717e-06
9.43926e-06
9.44041e-06
9.6446e-06
9.55561e-06
9.5232e-06
9.39119e-06
9.47799e-06
9.42173e-06
9.37251e-06
9.435e-06
9.36689e-06
9.41091e-06
9.40002e-06
9.37045e-06
9.35947e-06
9.48783e-06
9.45273e-06
9.41448e-06
9.3839e-06
9.43695e-06
9.36009e-06
9.20052e-06
9.24876e-06
9.33493e-06
9.37653e-06
9.33257e-06
9.34993e-06
9.47212e-06
9.40356e-06
9.43466e-06
9.44212e-06
9.33131e-06
9.43497e-06
9.30113e-06
9.29817e-06
9.21037e-06
9.30282e-06
9.21868e-06
9.19698e-06
9.24678e-06
9.31049e-06
9.32618e-06
9.28054e-06
9.31023e-06
9.30287e-06
9.30708e-06
9.37389e-06
9.35599e-06
9.30174e-06
9.31159e-06
9.19843e-06
9.2816e-06
9.28671e-06
9.18907e-06
9.14986e-06
9.19449e-06
9.23397e-06
9.19955e-06
9.16163e-06
9.08676e-06
9.10169e-06
9.13634e-06
9.11849e-06
9.1316e-06
9.07661e-06
9.07854e-06
9.12006e-06
9.09777e-06
9.15573e-06
9.05353e-06
9.14488e-06
9.17146e-06
9.1414e-06
9.11287e-06
8.98386e-06
8.96587e-06
8.80451e-06
8.74095e-06
8.75251e-06
8.83472e-06
8.82301e-06
8.74266e-06
8.69104e-06
8.77732e-06
8.78597e-06
8.72533e-06
8.72949e-06
8.69166e-06
8.65732e-06
8.48451e-06
8.52929e-06
8.48211e-06
8.50336e-06
8.5505e-06
8.49318e-06
8.48019e-06
8.44256e-06
8.36268e-06
8.39634e-06
8.21434e-06
8.26722e-06
8.27641e-06
8.31122e-06
8.37914e-06
8.20331e-06
8.22011e-06
8.3413e-06
8.31795e-06
8.16778e-06
8.28079e-06
8.27584e-06
8.12327e-06
8.1478e-06
8.21348e-06
8.15378e-06
7.99674e-06
7.93996e-06
7.86287e-06
7.95174e-06
7.86113e-06
7.89206e-06
7.78195e-06
7.74369e-06
7.72594e-06
7.60624e-06
7.65785e-06
7.67831e-06
7.69967e-06
7.63814e-06
7.65696e-06
7.63808e-06
7.62876e-06
7.59348e-06
7.51234e-06
7.42472e-06
7.4156e-06
7.40406e-06
7.35896e-06
7.34409e-06
7.28146e-06
7.11716e-06
7.11222e-06
7.1223e-06
7.12107e-06
7.11373e-06
7.07181e-06
6.96534e-06
7.04219e-06
7.06062e-06
7.0567e-06
7.03153e-06
6.94439e-06
6.94608e-06
6.9807e-06
6.8797e-06
6.84229e-06
6.65834e-06
6.70721e-06
6.63555e-06
6.72002e-06
6.66225e-06
6.67096e-06
6.66367e-06
6.73291e-06
6.65205e-06
6.64748e-06
6.61629e-06
6.53906e-06
6.53051e-06
6.57805e-06
6.5196e-06
6.47678e-06
6.40055e-06
6.41266e-06
6.32802e-06
6.26425e-06
6.23585e-06
6.30597e-06
6.21368e-06
6.15992e-06
6.16492e-06
6.13734e-06
6.08842e-06
6.16823e-06
6.18546e-06
6.26322e-06
6.21346e-06
6.13933e-06
6.1121e-06
6.12949e-06
5.97023e-06
5.91758e-06
5.88462e-06
5.81459e-06
5.84549e-06
5.73485e-06
5.66099e-06
5.74497e-06
5.67462e-06
5.58293e-06
5.57678e-06
5.62199e-06
5.45374e-06
5.51163e-06
5.51886e-06
5.56334e-06
5.52795e-06
5.58931e-06
5.56757e-06
5.50577e-06
5.63865e-06
5.61979e-06
5.54211e-06
5.58753e-06
5.53634e-06
5.55907e-06
5.52153e-06
5.6181e-06
5.62563e-06
5.59292e-06
5.58183e-06
5.56837e-06
5.5436e-06
5.51354e-06
5.56264e-06
5.63446e-06
5.55945e-06
5.68206e-06
5.64169e-06
5.68988e-06
5.67171e-06
5.76644e-06
5.75542e-06
5.72343e-06
5.75041e-06
5.68976e-06
5.76492e-06
5.68423e-06
5.73112e-06
5.63118e-06
5.6145e-06
5.67657e-06
5.80729e-06
5.73819e-06
5.5831e-06
5.75771e-06
5.80549e-06
5.72967e-06
5.67907e-06
5.70967e-06
5.72313e-06
5.71518e-06
5.66644e-06
5.67997e-06
5.61512e-06
5.64035e-06
5.70996e-06
5.72199e-06
5.53377e-06
5.50737e-06
5.69874e-06
5.60804e-06
5.63049e-06
5.67099e-06
5.5939e-06
5.53209e-06
5.58308e-06
5.61983e-06
5.67793e-06
5.62748e-06
5.52341e-06
5.47893e-06
5.57211e-06
5.70648e-06
5.69933e-06
5.67717e-06
5.70283e-06
5.67451e-06
5.72067e-06
5.73765e-06
5.7382e-06
5.72158e-06
5.68035e-06
5.74315e-06
5.75936e-06
5.82178e-06
5.84148e-06
5.88405e-06
5.74931e-06
5.62125e-06
5.68231e-06
5.7084e-06
5.64348e-06
5.68166e-06
5.66437e-06
5.67183e-06
5.66884e-06
5.56438e-06
5.58269e-06
5.58352e-06
5.56789e-06
5.6512e-06
5.71096e-06
5.63829e-06
5.57278e-06
5.57956e-06
5.52301e-06
5.66507e-06
5.59257e-06
5.59654e-06
5.59812e-06
5.70329e-06
5.72164e-06
5.7243e-06
5.76807e-06
5.74764e-06
5.73665e-06
5.69616e-06
5.67508e-06
5.77833e-06
5.76136e-06
5.80105e-06
5.72307e-06
5.82646e-06
5.77561e-06
5.81848e-06
5.76092e-06
5.78905e-06
5.71249e-06
5.84339e-06
5.71452e-06
5.76603e-06
5.77979e-06
5.65232e-06
5.67746e-06
5.60964e-06
5.57085e-06
5.66575e-06
5.66225e-06
5.69994e-06
5.61254e-06
5.60376e-06
5.70627e-06
5.72178e-06
5.712e-06
5.69369e-06
5.75329e-06
5.74408e-06
5.6813e-06
5.69892e-06
5.65879e-06
5.75589e-06
5.75883e-06
5.73748e-06
5.71366e-06
5.64057e-06
5.70104e-06
5.8411e-06
5.76195e-06
5.82795e-06
5.74699e-06
5.76969e-06
5.74785e-06
5.75434e-06
5.74505e-06
5.74638e-06
5.65169e-06
5.59789e-06
5.59087e-06
5.60605e-06
5.71104e-06
5.7422e-06
5.65103e-06
)
;

boundaryField
{
    sides
    {
        type            symmetry;
    }
    empty
    {
        type            empty;
    }
}


// ************************************************************************* //
