/*--------------------------------*- C++ -*----------------------------------*\
  =========                 |
  \\      /  F ield         | OpenFOAM: The Open Source CFD Toolbox
   \\    /   O peration     | Website:  https://openfoam.org
    \\  /    A nd           | Version:  7
     \\/     M anipulation  |
\*---------------------------------------------------------------------------*/
FoamFile
{
    version     2.0;
    format      ascii;
    class       volScalarField;
    location    "0.005";
    object      rhoNMean;
}
// * * * * * * * * * * * * * * * * * * * * * * * * * * * * * * * * * * * * * //

dimensions      [0 -3 0 0 0 0 0];

internalField   nonuniform List<scalar> 
1000
(
4.31195e+20
4.16805e+20
4.02495e+20
4.06055e+20
4.122e+20
4.0615e+20
4.1198e+20
4.09355e+20
4.48975e+20
4.35885e+20
4.3201e+20
4.3283e+20
4.21185e+20
4.1326e+20
4.2283e+20
4.2206e+20
4.3355e+20
4.3755e+20
4.2568e+20
4.33775e+20
4.2387e+20
4.4391e+20
4.3832e+20
4.44745e+20
4.28e+20
4.3273e+20
4.3187e+20
4.2745e+20
4.097e+20
4.0411e+20
3.8888e+20
3.8793e+20
3.77305e+20
3.8822e+20
4.0126e+20
3.90865e+20
3.7835e+20
4.03365e+20
4.026e+20
4.1808e+20
4.17735e+20
4.1359e+20
4.04355e+20
4.15445e+20
4.0586e+20
4.16175e+20
4.27535e+20
4.28125e+20
4.21055e+20
4.35715e+20
4.31855e+20
4.21745e+20
4.31445e+20
4.33115e+20
4.24475e+20
4.3818e+20
4.405e+20
4.3011e+20
4.35835e+20
4.3792e+20
4.34645e+20
4.2129e+20
4.23395e+20
4.10335e+20
3.9657e+20
4.0774e+20
4.0073e+20
4.0649e+20
4.1356e+20
4.13925e+20
4.2787e+20
4.27835e+20
4.1801e+20
4.12155e+20
4.22495e+20
4.33875e+20
4.4508e+20
4.51665e+20
4.4705e+20
4.5427e+20
4.67605e+20
4.5748e+20
4.67535e+20
4.38005e+20
4.21705e+20
4.2299e+20
4.4251e+20
4.24375e+20
4.12905e+20
4.05135e+20
4.2447e+20
4.11745e+20
4.1067e+20
3.9824e+20
4.0626e+20
4.02935e+20
4e+20
3.84865e+20
3.7834e+20
3.98115e+20
4.06175e+20
3.8597e+20
4.0773e+20
3.9248e+20
4.25775e+20
4.3251e+20
4.2911e+20
4.2686e+20
4.50265e+20
4.3947e+20
4.72625e+20
4.4732e+20
4.4347e+20
4.37025e+20
4.41625e+20
4.49575e+20
4.33475e+20
4.4038e+20
4.3103e+20
4.4954e+20
4.46255e+20
4.56915e+20
4.5728e+20
4.35565e+20
4.56685e+20
4.52595e+20
4.60705e+20
4.2725e+20
4.39565e+20
4.441e+20
4.29185e+20
4.44075e+20
4.27075e+20
4.1424e+20
4.20805e+20
4.3636e+20
4.49595e+20
4.46905e+20
4.4553e+20
4.4068e+20
4.4832e+20
4.38205e+20
4.40475e+20
4.17195e+20
4.11995e+20
4.0842e+20
4.0911e+20
3.93855e+20
4.0429e+20
4.16875e+20
4.0534e+20
4.13325e+20
4.10755e+20
4.2336e+20
4.22365e+20
4.08695e+20
4.16205e+20
4.1503e+20
4.00535e+20
4.04145e+20
4.0014e+20
3.853e+20
4.023e+20
3.95655e+20
4.1828e+20
4.2729e+20
4.37135e+20
4.1796e+20
4.16695e+20
4.3152e+20
4.17735e+20
4.31685e+20
4.33995e+20
4.30895e+20
4.19815e+20
4.3598e+20
4.22635e+20
4.08045e+20
4.0413e+20
4.2729e+20
4.25945e+20
4.2009e+20
4.1848e+20
4.0146e+20
4.0748e+20
4.1763e+20
4.3123e+20
4.10945e+20
4.1547e+20
4.12635e+20
4.11385e+20
4.07655e+20
4.00715e+20
4.0493e+20
4.15525e+20
4.29475e+20
4.0496e+20
4.18335e+20
4.19695e+20
4.3244e+20
4.1108e+20
4.11745e+20
4.0986e+20
4.2165e+20
4.2159e+20
4.07405e+20
4.0662e+20
4.1015e+20
4.0896e+20
4.2263e+20
4.2098e+20
4.14765e+20
4.2054e+20
4.4661e+20
4.36775e+20
4.2829e+20
4.2011e+20
4.2973e+20
4.2964e+20
4.29575e+20
4.2848e+20
4.2043e+20
4.0646e+20
4.2539e+20
4.118e+20
4.26805e+20
4.4761e+20
4.3384e+20
4.4442e+20
4.3897e+20
4.33825e+20
4.36355e+20
4.40555e+20
4.31495e+20
4.278e+20
4.2526e+20
4.098e+20
4.2893e+20
4.21205e+20
4.30825e+20
4.2337e+20
4.2725e+20
4.24885e+20
4.2355e+20
4.44685e+20
4.2812e+20
4.35755e+20
4.4293e+20
4.40085e+20
4.23465e+20
4.2604e+20
4.3521e+20
4.17575e+20
4.0762e+20
4.17235e+20
4.2706e+20
4.39395e+20
4.32735e+20
4.2653e+20
4.1544e+20
4.1496e+20
4.1765e+20
4.15755e+20
4.26465e+20
4.1072e+20
4.31925e+20
4.1438e+20
4.11945e+20
4.32455e+20
4.0065e+20
3.949e+20
3.92765e+20
4.1191e+20
4.10955e+20
4.1334e+20
3.97685e+20
3.9006e+20
3.95265e+20
3.92315e+20
4.05785e+20
4.1081e+20
3.95085e+20
3.96045e+20
3.92095e+20
3.91915e+20
4.0602e+20
4.0733e+20
4.17025e+20
4.2268e+20
4.06e+20
3.97295e+20
4.2541e+20
4.4619e+20
4.33555e+20
4.1893e+20
4.27035e+20
4.3101e+20
4.42475e+20
4.30715e+20
4.25345e+20
4.12985e+20
4.2243e+20
4.1603e+20
4.1142e+20
4.1129e+20
4.1363e+20
4.1057e+20
4.2399e+20
4.1744e+20
4.10775e+20
4.2598e+20
4.1206e+20
4.23425e+20
4.1965e+20
4.20545e+20
4.29535e+20
4.0658e+20
4.40285e+20
4.3617e+20
4.2342e+20
4.37315e+20
4.291e+20
4.26375e+20
4.19e+20
4.0981e+20
4.14465e+20
4.1595e+20
4.1703e+20
3.96545e+20
4.1656e+20
4.0954e+20
4.0732e+20
4.093e+20
3.8931e+20
3.86375e+20
3.9972e+20
4.0756e+20
3.90965e+20
3.98885e+20
4.02985e+20
4.0191e+20
4.07895e+20
4.07135e+20
4.2583e+20
4.27735e+20
4.32645e+20
4.31235e+20
4.2867e+20
4.347e+20
4.43245e+20
4.22695e+20
4.1022e+20
4.08475e+20
4.0569e+20
3.91845e+20
3.8477e+20
4.03475e+20
4.07745e+20
4.1186e+20
4.14645e+20
4.07015e+20
4.08375e+20
3.91815e+20
4.00435e+20
4.0421e+20
3.98285e+20
3.9153e+20
3.93925e+20
3.9734e+20
4.09315e+20
4.02455e+20
3.95825e+20
3.91725e+20
3.86175e+20
3.7663e+20
3.7157e+20
3.7576e+20
3.9523e+20
3.9096e+20
3.75715e+20
3.7286e+20
3.776e+20
3.9401e+20
4.03435e+20
3.90505e+20
3.8393e+20
3.80255e+20
3.90355e+20
3.9819e+20
3.69585e+20
3.72475e+20
3.71175e+20
3.71885e+20
3.75685e+20
3.7459e+20
3.8094e+20
3.8557e+20
3.8567e+20
3.82455e+20
3.86805e+20
3.74575e+20
3.74525e+20
3.69455e+20
3.7965e+20
3.82395e+20
3.69555e+20
3.5853e+20
3.81575e+20
3.66555e+20
3.5526e+20
3.49525e+20
3.64775e+20
3.5826e+20
3.6244e+20
3.5834e+20
3.49275e+20
3.66835e+20
3.4085e+20
3.45175e+20
3.62775e+20
3.69945e+20
3.6324e+20
3.4865e+20
3.53035e+20
3.5069e+20
3.49395e+20
3.28765e+20
3.2836e+20
3.36105e+20
3.3665e+20
3.3403e+20
3.3826e+20
3.29025e+20
3.30675e+20
3.2896e+20
3.1694e+20
3.2722e+20
3.3146e+20
3.28225e+20
3.19785e+20
3.1878e+20
3.1577e+20
3.27965e+20
3.19065e+20
3.1798e+20
3.1666e+20
3.16435e+20
2.975e+20
2.9638e+20
3.04215e+20
3.07595e+20
3.18715e+20
3.00135e+20
3.17065e+20
3.2708e+20
3.1165e+20
2.97155e+20
3.15285e+20
3.16855e+20
3.16925e+20
3.06435e+20
2.8815e+20
2.8554e+20
2.92425e+20
2.89495e+20
2.93255e+20
3.1592e+20
3.1573e+20
2.98695e+20
3.1277e+20
2.97285e+20
2.85155e+20
2.83325e+20
2.84955e+20
2.8465e+20
2.8165e+20
2.8288e+20
2.918e+20
2.85025e+20
2.80185e+20
2.9821e+20
2.8029e+20
2.8035e+20
2.7778e+20
2.866e+20
2.8082e+20
2.7528e+20
2.73225e+20
2.7659e+20
2.77005e+20
2.8515e+20
2.73145e+20
2.64795e+20
2.7178e+20
2.76615e+20
2.6665e+20
2.66685e+20
2.56635e+20
2.60915e+20
2.46975e+20
2.3975e+20
2.54825e+20
2.60625e+20
2.52315e+20
2.50685e+20
2.52975e+20
2.5036e+20
2.53055e+20
2.57435e+20
2.41305e+20
2.4566e+20
2.4456e+20
2.3771e+20
2.4292e+20
2.44915e+20
2.52205e+20
2.4624e+20
2.50575e+20
2.3506e+20
2.4089e+20
2.34055e+20
2.4244e+20
2.29605e+20
2.3139e+20
2.2362e+20
2.3496e+20
2.313e+20
2.3077e+20
2.2715e+20
2.27425e+20
2.25195e+20
2.3039e+20
2.17855e+20
2.24415e+20
2.3376e+20
2.30825e+20
2.27435e+20
2.28335e+20
2.32505e+20
2.24935e+20
2.29785e+20
2.19725e+20
2.2408e+20
2.36195e+20
2.3102e+20
2.1643e+20
2.24175e+20
2.15055e+20
2.0913e+20
2.1471e+20
2.1683e+20
2.1221e+20
2.088e+20
2.0297e+20
2.0327e+20
1.9494e+20
1.96575e+20
1.95975e+20
1.90355e+20
1.8783e+20
2.06255e+20
1.97895e+20
1.9156e+20
1.8258e+20
1.94555e+20
1.94035e+20
1.8994e+20
1.9246e+20
1.9163e+20
1.90275e+20
1.8344e+20
1.76455e+20
1.7532e+20
1.79305e+20
1.7942e+20
1.70095e+20
1.6627e+20
1.73215e+20
1.8192e+20
1.7187e+20
1.7358e+20
1.67255e+20
1.67945e+20
1.8146e+20
1.6799e+20
1.6045e+20
1.60635e+20
1.6668e+20
1.5659e+20
1.6834e+20
1.68575e+20
1.75335e+20
1.58195e+20
1.6027e+20
1.6009e+20
1.7078e+20
1.6037e+20
1.5851e+20
1.6803e+20
1.5737e+20
1.5885e+20
1.69225e+20
1.5555e+20
1.566e+20
1.5448e+20
1.50665e+20
1.54895e+20
1.5829e+20
1.69165e+20
1.6437e+20
1.6945e+20
1.6765e+20
1.65955e+20
1.5821e+20
1.67765e+20
1.6601e+20
1.63135e+20
1.53485e+20
1.5871e+20
1.65715e+20
1.64075e+20
1.6146e+20
1.691e+20
1.6061e+20
1.5772e+20
1.542e+20
1.59895e+20
1.60655e+20
1.50995e+20
1.59445e+20
1.5216e+20
1.52325e+20
1.60895e+20
1.5941e+20
1.6827e+20
1.6294e+20
1.67555e+20
1.65545e+20
1.57255e+20
1.49705e+20
1.498e+20
1.5333e+20
1.5384e+20
1.4872e+20
1.53555e+20
1.48515e+20
1.4369e+20
1.5163e+20
1.49615e+20
1.532e+20
1.55445e+20
1.58745e+20
1.5832e+20
1.6507e+20
1.6721e+20
1.6482e+20
1.6713e+20
1.6523e+20
1.73735e+20
1.55575e+20
1.60315e+20
1.5289e+20
1.57975e+20
1.56285e+20
1.5031e+20
1.4203e+20
1.4975e+20
1.5144e+20
1.4457e+20
1.3815e+20
1.4549e+20
1.4515e+20
1.4078e+20
1.4177e+20
1.3979e+20
1.45505e+20
1.5179e+20
1.52025e+20
1.40445e+20
1.3701e+20
1.37545e+20
1.24555e+20
1.28155e+20
1.36005e+20
1.2795e+20
1.33125e+20
1.343e+20
1.3954e+20
1.32445e+20
1.37495e+20
1.39015e+20
1.2985e+20
1.4127e+20
1.375e+20
1.44225e+20
1.362e+20
1.4305e+20
1.51155e+20
1.44265e+20
1.44375e+20
1.4837e+20
1.53995e+20
1.3701e+20
1.3975e+20
1.3364e+20
1.3223e+20
1.3162e+20
1.3895e+20
1.5313e+20
1.50215e+20
1.41495e+20
1.5075e+20
1.48315e+20
1.42165e+20
1.4518e+20
1.4635e+20
1.3521e+20
1.34365e+20
1.3895e+20
1.4187e+20
1.3978e+20
1.38805e+20
1.36905e+20
1.35545e+20
1.3969e+20
1.4046e+20
1.2921e+20
1.26075e+20
1.33855e+20
1.37075e+20
1.3085e+20
1.29375e+20
1.2201e+20
1.1492e+20
1.32755e+20
1.3534e+20
1.33585e+20
1.2963e+20
1.22825e+20
1.3075e+20
1.2723e+20
1.2786e+20
1.374e+20
1.4183e+20
1.42655e+20
1.429e+20
1.4104e+20
1.41045e+20
1.3172e+20
1.347e+20
1.37245e+20
1.30345e+20
1.34835e+20
1.3321e+20
1.2786e+20
1.31075e+20
1.31775e+20
1.40435e+20
1.2134e+20
1.23715e+20
1.34505e+20
1.3582e+20
1.33265e+20
1.1914e+20
1.15535e+20
1.27445e+20
1.2874e+20
1.2987e+20
1.2891e+20
1.32615e+20
1.3982e+20
1.3075e+20
1.20555e+20
1.2645e+20
1.2412e+20
1.2862e+20
1.32565e+20
1.30055e+20
1.3237e+20
1.19505e+20
1.2786e+20
1.23665e+20
1.12095e+20
1.19665e+20
1.11075e+20
1.1677e+20
1.20865e+20
1.14965e+20
1.2471e+20
1.21505e+20
1.22835e+20
1.21245e+20
1.1973e+20
1.22595e+20
1.1495e+20
1.1407e+20
1.1409e+20
1.24075e+20
1.1475e+20
1.176e+20
1.2232e+20
1.10515e+20
1.16835e+20
1.2143e+20
1.0638e+20
1.06405e+20
1.1423e+20
1.18515e+20
1.19435e+20
1.0429e+20
1.0358e+20
1.11895e+20
1.1566e+20
1.17885e+20
1.17535e+20
1.23765e+20
1.07995e+20
1.1753e+20
1.071e+20
1.0582e+20
1.0977e+20
1.16435e+20
1.11575e+20
1.1297e+20
1.11885e+20
1.05805e+20
1.06955e+20
1.08985e+20
1.14745e+20
1.13985e+20
1.1653e+20
1.19565e+20
1.1119e+20
1.15515e+20
1.12105e+20
1.2135e+20
1.12335e+20
1.08975e+20
1.1326e+20
1.15935e+20
1.19175e+20
1.3136e+20
1.272e+20
1.32975e+20
1.29995e+20
1.24305e+20
1.2796e+20
1.22035e+20
1.17175e+20
1.1628e+20
1.23495e+20
1.25085e+20
1.2303e+20
1.24825e+20
1.1954e+20
1.2207e+20
1.22025e+20
1.2569e+20
1.18195e+20
1.0934e+20
1.0744e+20
1.07485e+20
1.06715e+20
1.1472e+20
1.15875e+20
1.18055e+20
1.13245e+20
1.13515e+20
1.1261e+20
1.15465e+20
1.1379e+20
1.0659e+20
1.14035e+20
1.20725e+20
1.21385e+20
1.15695e+20
1.2313e+20
1.1215e+20
1.20175e+20
1.1634e+20
1.1202e+20
1.11245e+20
1.07345e+20
1.09575e+20
1.19055e+20
1.1367e+20
1.2018e+20
1.17515e+20
1.15735e+20
1.14825e+20
1.198e+20
1.20185e+20
1.2002e+20
1.1187e+20
1.1476e+20
1.2619e+20
1.1824e+20
1.15085e+20
1.1556e+20
1.1657e+20
1.1344e+20
1.1662e+20
1.18615e+20
1.10245e+20
1.1962e+20
1.1421e+20
1.14845e+20
1.0655e+20
1.13735e+20
1.15925e+20
1.22965e+20
1.17875e+20
1.1753e+20
1.219e+20
1.1614e+20
1.1907e+20
1.19325e+20
1.10305e+20
1.10695e+20
1.1775e+20
1.22725e+20
1.15175e+20
1.048e+20
1.11875e+20
1.1234e+20
1.0584e+20
1.0517e+20
1.1729e+20
1.194e+20
1.2188e+20
1.22705e+20
1.21765e+20
1.1679e+20
1.2198e+20
1.2899e+20
1.31675e+20
1.2599e+20
1.3111e+20
1.27485e+20
1.26425e+20
1.24405e+20
1.2305e+20
1.20655e+20
1.16785e+20
1.22855e+20
1.18755e+20
1.13905e+20
1.26895e+20
1.34065e+20
1.2124e+20
1.1629e+20
1.21125e+20
1.1639e+20
1.15235e+20
1.17145e+20
1.1863e+20
1.1537e+20
1.1313e+20
1.0806e+20
1.05475e+20
1.04715e+20
1.12525e+20
1.1082e+20
1.1343e+20
1.0963e+20
1.17635e+20
1.2513e+20
1.11385e+20
1.0834e+20
1.04855e+20
1.09525e+20
1.2451e+20
1.22655e+20
1.32105e+20
1.20195e+20
1.2014e+20
1.1797e+20
1.1066e+20
1.1313e+20
1.32205e+20
1.31135e+20
1.346e+20
1.34745e+20
1.2994e+20
1.3493e+20
1.42905e+20
1.4053e+20
1.4084e+20
1.3285e+20
1.348e+20
1.37725e+20
1.22905e+20
1.34935e+20
1.25755e+20
1.14685e+20
1.27405e+20
1.34e+20
1.33975e+20
1.34845e+20
1.24125e+20
)
;

boundaryField
{
    sides
    {
        type            symmetry;
    }
    empty
    {
        type            empty;
    }
}


// ************************************************************************* //
