/*--------------------------------*- C++ -*----------------------------------*\
  =========                 |
  \\      /  F ield         | OpenFOAM: The Open Source CFD Toolbox
   \\    /   O peration     | Website:  https://openfoam.org
    \\  /    A nd           | Version:  7
     \\/     M anipulation  |
\*---------------------------------------------------------------------------*/
FoamFile
{
    version     2.0;
    format      ascii;
    class       volScalarField;
    location    "0.005";
    object      translationalT;
}
// * * * * * * * * * * * * * * * * * * * * * * * * * * * * * * * * * * * * * //

dimensions      [1 2 -2 0 0 0 0];

internalField   nonuniform List<scalar> 
500
(
235.287
251.723
261.901
268.975
277.104
281.291
287.045
291.081
295.324
297.853
298.483
303.467
307.579
307.556
308.082
310.313
312.916
311.321
313.851
317.584
317.079
317.505
318.441
318.415
321.756
323.368
327.668
325.243
325.239
327.887
329.312
328.568
329.297
331.795
329.471
332.596
328.902
327.988
328.965
332.327
332.294
332.037
334.225
333.464
335.986
332.552
335.944
335.519
336.5
336.298
335.868
334.388
332.888
334.181
335.079
339
337.643
335.874
337.421
336.513
335.931
336.162
340.992
343.945
347.815
341.734
338.365
338.951
344.77
346.836
347.915
348.693
344.969
348.852
349.344
346.764
343.606
344.502
343.446
344.948
345.2
344.824
346.97
347.347
344.812
342.94
342.145
346.481
347.454
349.333
347.022
347.383
344.835
345.983
349.911
348.848
347.71
344.675
346.12
348.411
346.575
345.226
345.761
345.248
345.221
345.065
344.905
345.259
343.551
341.977
342.889
344.222
346.026
347.168
347.865
345.364
344.275
347.019
349.151
346.578
345.374
347.212
347.777
348.141
348.013
346.297
341.972
343.166
350.155
352.062
354.044
349.018
351.964
352.234
346.292
343.814
345.364
345.984
345.053
350.291
354.586
353.335
353.82
353.737
349.507
347.012
350.487
350.126
347.566
348.334
349.283
351.59
349.735
349.169
349.677
348.853
345.164
347.194
348.896
349.725
349.103
348.502
349.009
349.915
351.363
348.791
350.551
350.125
350.652
348.422
346.553
346.931
346.885
345.663
345.594
347.636
347.759
347.54
349.196
346.41
344.953
348.286
349.862
349.79
348.208
350.021
344.804
344.228
345.275
344.779
344.953
347.147
347.321
349.185
351.507
350.661
351.231
351.848
352.784
352.436
351.487
352.391
352.95
351.34
350.639
349.915
346.719
346.257
346.21
346.445
346.522
347.029
348.089
348.664
352.468
353.521
353.724
347.183
346.618
348.534
346.569
346.597
344.445
344.564
345.494
348.201
345.763
350.718
350.571
348.5
347.167
348.977
351.224
349.573
350.021
347.865
347.699
346.226
348.142
351.673
351.987
351.084
348.507
350.144
350.925
350.681
352.162
351.215
352.664
352.475
356.241
355.057
349.308
348.503
345.81
342.028
342.929
345.134
344.256
341.882
342.051
343.828
342.694
346.288
347.691
348.687
349.585
349.652
345.869
346.833
347.421
346.732
348.589
347.745
347.91
346.637
349.99
352.64
353.507
350.745
346.711
344.454
342.567
340.92
345.628
346.049
348.331
347.311
345.902
344.278
345.31
345.496
346.448
347.169
351.373
350.171
347.772
345.926
346.525
344.259
347.311
349.798
348.371
345.377
345.858
345.348
346.534
347.517
347.424
345.276
345.501
346.4
347.367
349.946
349.768
348.024
347.032
344.938
343.734
345.226
347.875
347.73
346.886
345.532
345.589
348.902
345.93
348.604
350.61
345.924
343.405
344.109
343.342
344.493
344.631
347.582
348.642
347.614
348.945
350.482
349.262
346.454
345.365
346.299
346.883
342.373
342.467
341.447
342.887
345.65
343.783
347.334
348.718
346.605
346.696
347.022
346.471
350.117
348.329
349.03
348.156
347.787
348.194
347.519
343.909
346.785
343.878
341.614
345.617
346.209
349.349
346.981
347.841
351.245
350.069
350.787
349.613
349.8
348.807
348.593
349.452
345.659
343.835
341.258
341.817
338.669
342.056
341.237
345.085
343.287
343.762
345.602
348.26
348.893
346.581
346.867
347.337
348.194
350.298
351.851
351.324
351.92
352.386
351.277
347.558
345.456
343.717
344.959
345.41
347.329
348.129
346.263
347.707
348.169
348.095
346.049
349.228
351.048
355.182
350.72
348.956
350.156
353.087
351.451
348.14
348.373
347.066
343.173
339.893
339.284
339.1
338.842
340.219
340.069
340.516
340.381
341.302
341.813
342.307
343.522
343.051
344.628
342.231
342.27
342.573
342.074
341.903
341.293
340.954
340.574
336.119
338.086
338.521
337.079
336.313
334.914
330.363
332.515
331.323
330.697
333.8
331.637
331.102
327.522
326.999
326.426
325.802
328.28
329.744
326.907
325.952
324.842
322.094
321.598
324.901
322.664
320.227
322.054
320.866
317.263
319.116
315.425
312.732
313.589
311.053
309.495
308.275
304.471
302.725
299.875
298.2
293.881
290.353
286.954
285.717
279.064
271.945
264.715
253.066
233.973
)
;

boundaryField
{
    sides
    {
        type            calculated;
        value           nonuniform List<scalar> 2(233.973 235.287);
    }
    empty
    {
        type            empty;
    }
}


// ************************************************************************* //
