/*--------------------------------*- C++ -*----------------------------------*\
  =========                 |
  \\      /  F ield         | OpenFOAM: The Open Source CFD Toolbox
   \\    /   O peration     | Website:  https://openfoam.org
    \\  /    A nd           | Version:  7
     \\/     M anipulation  |
\*---------------------------------------------------------------------------*/
FoamFile
{
    version     2.0;
    format      ascii;
    class       volScalarField;
    location    "0.005";
    object      translationalT;
}
// * * * * * * * * * * * * * * * * * * * * * * * * * * * * * * * * * * * * * //

dimensions      [1 2 -2 0 0 0 0];

internalField   nonuniform List<scalar> 
1000
(
387.108
391.018
398.255
400.49
392.391
404.166
403.326
396.441
378.123
389.608
388.507
375.986
384.408
402.928
387.757
391.932
382.434
378.628
378.817
372.786
380.55
371.12
373.263
376.822
376.806
376.796
377.19
387.309
398.669
403.858
415.13
418.92
422.66
413.675
411.3
410.12
420.695
409.493
411.654
388.847
389.76
393.265
398.519
395.988
406.739
388.649
384.661
375.914
387.599
368.039
378.932
382.621
388.164
379.51
384.93
383.41
368.867
377.228
374.071
378.947
377.109
389.796
379.999
405.725
408.213
414.601
400.884
398.641
396.841
403.115
397.015
390.203
393.136
393.61
387.167
371.969
367.585
366.803
360.994
362.034
356.762
364.112
365.04
370.896
387.152
379.637
379.586
389.3
392.49
394.33
392.893
395.397
398.321
405.452
408.745
409.493
415.041
427.791
430.793
413.945
408.469
418.763
402.969
418.146
399.675
386.065
387.275
385.185
372.355
372.628
368.564
377.473
371.035
377.716
379.847
373.61
379.798
375.54
377.986
378.392
372.068
368.44
370.765
378.345
370.693
362.614
367.56
390.089
380.211
376.386
380.06
374.248
390.928
393.854
392.144
382.652
376.104
374.185
377.282
378.707
375.98
381.462
373.83
394.624
399.963
408.056
403.21
413.933
414.201
409.66
407.04
398.541
393.945
391.727
399.115
398.989
397.915
406.458
401.869
405.749
415.126
420.669
407.425
416.529
406.966
400.855
389.882
398.807
396.908
399.802
401.304
385.038
383.853
384.226
392.024
387.389
390.083
408.091
408.241
389.51
391.179
391.603
391.401
410.458
391.596
392.655
387.974
395.048
394.033
398.012
401.672
401.738
411.795
395.951
399.344
389.232
398.789
399.421
396.351
387.713
399.645
395.616
390.248
392.745
386.843
387.115
395.453
393.798
396.163
390.642
390.322
389.378
383.184
376.291
381.791
383.395
387.21
387.474
388.731
384.107
386.355
393.376
406.134
379.459
398.797
392.348
372.307
383.864
377.242
374.527
378.308
380.991
377.662
388.772
395.971
392.747
406.9
389.282
387.947
390.637
395.317
385.877
388.369
386.587
380.101
387.817
384.925
383.421
381.415
380.063
393.941
380.9
391.396
392.995
391.045
393.39
385.886
385.772
393.214
395.327
398.492
393.602
391.653
386.113
398.584
383.057
397.562
394.28
387.562
411.178
422.453
415.51
402.047
411.205
391.413
407.47
414.936
424.237
428.477
414.263
402.368
407.556
417.403
431.027
423.031
415.835
407.384
403.393
384.11
397.704
409.929
386.92
379.155
382.719
384.423
381.685
382.775
374.063
381.952
399.137
394.268
381.302
397.004
391.006
401.147
401.328
406.517
394.847
396.894
392.591
386.712
378.037
376.421
380.685
387.245
387.589
404.226
383.229
374.377
387.881
378.255
381.348
386.877
392.553
398.856
389.043
391.646
392.284
403.815
400.092
404.901
394.62
400.833
411.106
411.517
410.061
401.544
399.963
391.637
397.568
390.282
378.396
380.817
374.274
371.024
363.454
360.676
370.817
360.877
361.451
372.226
383.897
387.811
387.584
403.632
403.632
393.002
391.583
381.315
386.734
398.603
385.308
382.789
391.438
380.051
380.089
385.537
387.735
382.209
377.68
380.95
383.073
386.105
392.249
394.135
402.277
397.295
390.79
382.576
402.434
399.614
387.872
381.395
379.818
379.112
379.238
378.117
380.073
379.603
386.928
392.081
400.493
399.509
393.121
391.272
381.967
375.246
374.405
384.377
365.751
376.337
377.781
383.021
385.503
370.608
371.757
386.472
375.375
386.009
386.927
386.59
381.111
396.38
381.432
375.79
382.786
380.423
391.953
388.456
361.465
365.893
363.335
372.922
360.926
366.896
367.923
393.862
386.148
378.664
382.09
380.452
376.254
386.706
377.26
366.184
376.926
374.713
367.464
368.518
372.344
370.786
382.479
372.954
381.43
369.881
374.273
369.781
385.008
380.742
370.571
365.943
358.157
365.469
359.66
347.729
349.662
353.11
346.102
347.727
356.797
360.428
378.095
363.998
360.775
374.616
357.045
345.032
342.809
349.767
351.523
358.04
365.346
357.719
356.371
363.139
358.256
353.864
353.058
357.351
353.683
349.876
339.004
345.406
348.299
333.681
333.162
339.048
345.765
332.694
340.38
335.536
330.017
337.89
333.303
325.995
339.931
338.426
332.784
327.12
334.933
332.939
324.465
316.758
332.669
341.118
330.208
329.171
329.168
323.244
330.471
333.133
331.524
343.237
340.769
347.292
346.385
351.327
342.369
347.262
344.999
352.116
351.117
353.112
356.179
350.099
352.338
340.192
347.834
363.925
350.164
365.095
373.516
375.735
371.486
375.548
367.941
370.321
361.268
357.132
371.062
378.281
369.527
358.364
355.678
373.531
388.161
389.795
370.61
384.43
385.439
383.969
388.613
388.242
399.339
392.902
391.09
391.538
400.122
400.009
409.741
388.341
408.496
414.706
426.212
414.091
421.304
414.258
422.917
419.194
439.973
428.004
430.1
429.397
427.412
415.083
462.061
443.564
442.578
431.564
446.094
450.373
445.811
449.578
445.863
462.328
471.94
483.289
484.962
460.172
454.235
468.656
453.293
470.865
479.018
478.437
467.398
475.252
483.823
473.138
505.592
511.602
472.681
498.472
486.323
472.87
475.708
485.588
467.966
450.74
457.394
484.054
492.557
471.268
460.814
462.592
453.194
462.171
469.074
471.669
463.325
465.056
476.462
477.93
486.389
475.218
475.682
468.921
453.28
460.882
452.255
456.763
463.754
461.265
457.683
455.627
465.082
441.654
453.921
467.833
468.066
454.59
424.584
444.721
459.59
457.101
456.124
442.02
427.707
444.62
448.453
433.928
432.019
442.869
418.872
429.357
411.483
430.986
444.755
429.278
432.684
451.678
468.149
445.883
449.189
431.63
448.977
457.15
437.752
445.156
443.722
452.116
442.657
458.229
444.174
451.011
449.029
425.941
422.787
450.299
455.079
447.925
483.617
479.273
466.234
472.459
463.226
472.236
472.438
448.482
464.57
443.391
456.768
435.176
439.02
431.233
438.346
417.488
426.613
425.532
419.915
425.788
410.483
416.891
430.47
433.526
432.043
440.681
415.749
390.335
388.781
409.847
384.98
404.001
410.3
405.432
408.767
426.971
450.675
410.316
403.261
421.086
418.786
417.241
420.009
393.453
394.525
426.673
421.137
409.778
418.411
403.4
424.472
407.49
418.208
394.228
403.423
391.092
397.098
406.071
400.067
396.737
380.012
374.249
371.607
387.473
392.685
394.57
390.911
388.308
388.066
375.339
398.648
398.716
374.605
379.604
401.141
391.242
391.905
419.142
404.992
392.079
377.769
395.619
399.021
382.131
379.707
402.784
392.818
381.436
360.984
363.149
381.162
394.168
361.331
358.592
364.237
352.579
357.593
366.238
385.336
391.333
374.483
402.046
392.663
417.283
419.465
410.098
415.215
404.483
397.365
405.586
391.96
387.784
395.505
408.645
406.356
418.312
407.337
388.138
408.838
399.563
416.393
400.876
393.564
410.736
428.901
405.688
399.927
399.892
436.636
428.451
428.466
418.378
426.947
434.91
431
449.111
415.719
429.476
425.331
415.541
402.314
410.466
421.642
403.091
424.795
422.557
430.136
418.84
411.582
392.728
401.497
410.594
414.495
410.531
407.919
434.343
417.292
418.877
404.545
379.898
360.505
362.064
353.486
358.531
358.582
387.847
428.413
424.619
422.49
381.526
378.714
391.674
388.459
402.488
388.446
388.094
383.129
399.357
406.315
432.12
430.205
410.766
404.795
419.264
395.478
410.529
429.094
406.703
406.559
406.273
437.749
417.636
401.618
402.363
393.359
373.959
394.641
382.708
413.657
436.963
457.442
424.697
430.82
406.507
395.928
385.172
399.1
404.544
423.835
387.346
393.866
402.341
405.294
415.164
396.964
415.83
409.62
431.986
432.484
423.153
436.983
434.67
431.646
429.375
436.066
420.96
418.263
388.091
403.259
397.016
417.519
415.622
440.062
404.879
397.421
415.14
414.348
447.414
416.296
421.553
409.058
427.291
421.12
421.032
439.909
440.561
418.262
415.959
396.92
398.069
416.042
408.179
424.558
402.17
378.637
380.339
387.684
388.798
377.312
384.639
388.914
406.915
399.809
395.145
389.24
385.532
371.72
367.195
409.615
415.708
410.671
421.2
433.802
445.893
436.044
424.86
440.445
435.01
419.648
403.153
412.069
426.696
424.139
434.462
419.379
408.067
420.147
422.088
441.318
436.32
394.875
393.509
390.747
406.061
383.439
386.361
425.177
402.255
380.12
378.698
367.059
348.11
363.868
354.661
350.929
353.009
339.217
355.957
349.631
354.845
365.594
362.357
365.38
369.612
348.725
347.001
359.924
354.752
358.418
)
;

boundaryField
{
    sides
    {
        type            symmetry;
    }
    empty
    {
        type            empty;
    }
}


// ************************************************************************* //
