/*--------------------------------*- C++ -*----------------------------------*\
  =========                 |
  \\      /  F ield         | OpenFOAM: The Open Source CFD Toolbox
   \\    /   O peration     | Website:  https://openfoam.org
    \\  /    A nd           | Version:  7
     \\/     M anipulation  |
\*---------------------------------------------------------------------------*/
FoamFile
{
    version     2.0;
    format      ascii;
    class       volVectorField;
    location    "0.005";
    object      UMean;
}
// * * * * * * * * * * * * * * * * * * * * * * * * * * * * * * * * * * * * * //

dimensions      [0 1 -1 0 0 0 0];

internalField   nonuniform List<vector> 
1000
(
(-141.793 15.7141 1.00543)
(-232.019 30.1891 6.67573)
(-228.511 26.8189 6.34031)
(-215.758 9.91597 4.14915)
(-126.583 10.3362 -3.41572)
(-125.61 10.1417 -3.22704)
(-199.457 19.9781 -1.31635)
(-196.56 21.217 -1.83922)
(-178.489 5.40417 -16.4418)
(-105.961 -7.39532 -20.6976)
(-158.042 -27.605 -47.5384)
(-145.168 -35.3823 -83.0915)
(-98.5453 -18.6777 -54.4063)
(-159.382 -10.8381 -64.7039)
(-157.996 -9.6286 -65.6263)
(-159.879 -6.6496 -67.433)
(-174.006 0.156066 -24.8069)
(-168.025 4.93063 -23.6709)
(-156.017 27.4719 -27.6437)
(-153.205 23.2589 -28.073)
(-142.53 22.9305 -30.4524)
(-127.875 20.8527 -23.4535)
(-86.989 7.53041 -10.0396)
(-123.672 6.77741 -12.1267)
(-123.696 5.84782 -11.5689)
(-149.427 -25.1666 -9.42695)
(-98.8401 -21.8505 -4.78992)
(-148.818 -32.2974 -7.01859)
(-146.201 -33.5285 -5.17656)
(-145.967 -29.6628 -9.44144)
(-145.372 -16.7765 -4.69179)
(-89.9359 -14.836 10.7142)
(-96.009 -52.5693 75.5679)
(-135.4 1.55208 10.408)
(-133.557 11.2627 9.54736)
(-131.431 13.4263 10.3247)
(-84.8346 10.5967 2.63606)
(-131.084 22.4262 16.0978)
(-127.243 22.6004 34.3443)
(-83.5533 13.3762 26.9646)
(-129.3 15.5059 46.6829)
(-120.041 10.1 30.385)
(-76.3313 3.4003 12.61)
(-113.888 7.36293 31.3082)
(-111.061 7.17482 29.9995)
(-110.335 5.61872 34.722)
(-104.731 5.50254 35.8655)
(-68.4324 -4.61486 20.0706)
(-92.8197 -17.6787 58.1992)
(-70.1289 -25.4632 141.116)
(-49.573 -6.50495 13.7931)
(-97.7591 -9.65487 43.2492)
(-62.8083 -5.80335 28.5767)
(-85.0253 -8.32911 35.2435)
(-82.1822 -12.8174 34.9992)
(-55.4161 -8.68207 24.9627)
(-53.818 -4.94522 23.2666)
(-38.7657 -2.20733 11.9318)
(-50.696 -3.81612 14.5797)
(-73.1185 -7.90324 22.284)
(-71.7652 -14.3033 44.2276)
(-48.7705 -8.35806 31.3675)
(-69.9974 -12.0965 43.8787)
(-68.8699 -6.77107 44.2793)
(-60.5429 1.71087 -10.0739)
(-60.9451 2.3395 -9.57746)
(-42.7488 0.908861 -9.34698)
(-60.1513 -24.5766 25.3138)
(-63.0157 -37.4096 47.9368)
(-44.036 -28.0903 35.4536)
(-61.0853 -39.1229 48.3078)
(-58.8939 -35.6137 45.7832)
(-60.5713 -44.7261 49.3222)
(-63.1591 -34.8306 38.6968)
(-60.0058 -37.3148 40.1439)
(-59.8603 -43.8961 42.3537)
(-42.5789 -30.8969 31.6257)
(-42.1121 -20.5097 35.368)
(-60.5692 -10.9669 43.3804)
(-62.6101 -7.35496 33.7715)
(-60.546 0.250931 30.5962)
(-59.7659 4.37873 30.8788)
(-41.0453 -0.668525 23.7067)
(-40.0148 -7.90722 21.8791)
(-37.3335 -10.5774 31.2993)
(-52.3088 -14.0128 49.112)
(-53.8686 -11.6486 50.2742)
(-57.1091 -17.6947 43.1737)
(-64.4678 -18.462 33.5951)
(-65.1737 -22.5262 34.1851)
(-64.4769 -22.8763 32.4288)
(-60.9991 -59.451 36.1009)
(-58.9408 -63.8276 38.2091)
(-40.3715 -48.165 23.1671)
(-50.6253 -80.9353 55.2869)
(-46.7655 -82.2484 60.2659)
(-57.8097 -45.8796 36.4104)
(-52.0464 5.93574 48.0587)
(-51.6648 25.801 48.4149)
(-36.4329 42.8775 46.4692)
(-51.9224 78.8818 55.4095)
(-48.3824 60.3316 20.2252)
(-49.5781 37.5402 11.7952)
(-47.58 39.9111 11.2995)
(-45.4049 39.8301 10.9896)
(-43.5317 38.8817 22.5006)
(-44.4941 23.5862 52.3211)
(-45.5082 21.2953 49.5577)
(-33.5842 -103.872 -13.1056)
(-36.2582 -36.1959 20.3447)
(-39.5361 16.2026 39.5735)
(-38.9009 11.1901 36.8194)
(-38.9253 11.3529 36.1819)
(-31.1767 -3.92158 115.168)
(-36.9789 14.4212 24.0364)
(-35.9394 13.7616 19.5391)
(-37.5271 13.5442 19.9937)
(-37.9727 14.2896 28.1769)
(-28.6387 9.85468 36.4358)
(-27.84 0.380681 41.5367)
(-38.0378 -5.27705 51.8258)
(-27.1862 -6.38417 36.3674)
(-38.6049 -14.4577 38.9765)
(-39.0923 -14.9044 36.6444)
(-38.1436 -16.0056 35.7026)
(-27.2794 -11.9029 24.8521)
(-27.4366 -8.95449 20.5567)
(-27.9586 -6.72241 15.9056)
(-35.4387 -7.70297 23.1363)
(-36.0394 -7.39545 19.7033)
(-19.8632 16.0854 -2.3946)
(-32.5389 42.8001 -16.1566)
(-32.8975 40.6249 -14.0668)
(-35.6533 -4.09563 1.7958)
(-20.1004 1.55899 2.72102)
(-33.9732 7.58799 1.6742)
(-25.9432 2.0341 -8.70478)
(-26.567 4.6186 -6.32865)
(-34.5935 9.04553 -17.5413)
(-24.6163 -26.5202 -78.3902)
(-32.1307 25.4984 -16.253)
(-31.2797 23.6419 -16.7133)
(-31.3372 10.7553 -17.1759)
(-28.997 12.3446 6.6917)
(-23.1251 6.37935 4.94585)
(-31.1359 6.93008 14.0308)
(-30.6619 7.58738 15.4485)
(-30.7996 7.25612 -3.59225)
(-31.3911 3.16842 -14.8827)
(-30.6385 4.0033 -15.2842)
(-21.6702 -4.36873 -12.45)
(-29.5055 -18.3941 -14.495)
(-28.3747 -16.3482 -13.0715)
(-26.4582 -20.9651 -22.8893)
(-20.2381 -14.7726 -19.2024)
(-17.5966 -2.25395 -40.6484)
(-21.8702 -16.635 -52.2333)
(-22.1867 -50.0259 -55.6647)
(-15.885 -36.1647 -41.2477)
(-19.6938 -13.8614 -66.5088)
(-21.7283 -9.38218 -29.3022)
(-14.4548 -8.17 -22.2965)
(-18.5385 -13.2254 -28.1946)
(-18.119 -11.7494 -21.2762)
(-17.8359 -12.0454 -23.6635)
(-12.0176 -11.0874 -20.4805)
(-11.8556 -12.4058 -19.0923)
(-16.1366 -17.147 -22.0054)
(-17.2207 -14.723 -24.9649)
(-16.9189 -11.8808 -23.1359)
(-16.6372 -3.53267 -24.22)
(-11.2237 -11.6682 -20.2083)
(-14.625 -12.5987 -15.0969)
(-15.3701 -16.7374 -13.2892)
(-10.4463 -13.7264 -4.68436)
(-11.1366 -11.0436 -5.71572)
(-6.43177 -8.4226 -4.92027)
(-5.05411 -11.0143 -15.1979)
(-5.98267 -12.2248 -13.296)
(-8.1164 -11.5237 -5.23828)
(-6.70081 -13.4801 3.14234)
(-7.21032 -15.7132 5.0669)
(-5.15257 -12.1141 3.43721)
(-9.18375 -22.3218 7.36663)
(-11.9809 -13.8951 8.62494)
(-12.4858 -10.8395 14.8023)
(-8.01808 -7.25429 14.0394)
(-11.5139 -10.5213 16.8079)
(-8.62692 -5.06551 5.88874)
(-10.9884 -4.63848 7.17323)
(-9.188 -11.508 3.0837)
(-8.24747 -11.142 2.77428)
(-4.98089 -4.222 -1.01288)
(-5.85751 -3.5672 -1.46074)
(-7.48472 -3.68059 -7.69135)
(-5.65563 -4.30525 -10.8387)
(-3.82977 -5.38046 -10.281)
(-5.99975 -4.68667 -13.3706)
(-7.19528 -0.622366 -16.0598)
(-8.5613 -2.53548 -17.5201)
(-5.73881 -1.35557 -32.9215)
(-5.73185 -19.409 -26.2475)
(-5.73523 -7.85203 -16.0872)
(-6.96612 -15.0347 -22.3034)
(-7.35033 -24.2019 -32.8018)
(-5.35847 -14.8691 -40.2509)
(-4.35552 -16.6375 -34.8782)
(-2.10939 -12.7648 -26.8614)
(-1.54074 -11.5339 -21.4802)
(-1.9611 8.75142 -26.0038)
(-2.02677 29.2266 -36.543)
(-1.52772 27.5334 -32.8229)
(-0.448184 28.946 -30.4787)
(0.75414 37.7244 -29.3349)
(0.599847 26.7568 -23.4023)
(0.471135 28.4571 -20.3113)
(1.61853 29.7295 -20.6051)
(2.72365 32.193 -26.3084)
(4.73958 49.9982 -32.9183)
(1.94902 40.3072 -27.2469)
(2.85234 53.3859 -37.5017)
(1.95146 50.3424 -24.0956)
(5.03484 42.4251 -29.1713)
(5.02982 43.2872 -36.5494)
(4.31471 30.3822 -45.665)
(3.86531 23.8488 -49.7554)
(2.9263 10.3838 -48.7172)
(0.238098 7.91495 -34.554)
(1.1908 5.83357 -44.536)
(0.548579 3.17456 -32.4632)
(-0.636688 -7.67235 -46.1761)
(-2.19323 -5.33867 -43.7711)
(-4.64579 -9.47432 -39.7096)
(-1.97091 -8.20993 -28.4491)
(-2.13459 -6.15787 -29.5102)
(-2.76371 4.37384 -17.8591)
(-4.91614 10.5247 18.533)
(-7.47704 2.91883 18.6651)
(-8.04043 -1.45856 19.7173)
(-8.3271 -8.11407 18.6414)
(-9.32188 -20.0444 16.7418)
(-9.90886 -1.04214 -22.1362)
(-9.64537 -18.3871 -47.4169)
(-8.19614 -16.2769 -31.2773)
(-11.6951 -23.7073 -39.9768)
(-8.99884 -43.4236 -30.1516)
(-11.2683 -55.5172 -28.0847)
(-11.4737 -58.9668 -29.2113)
(-11.085 -41.0188 -12.2412)
(-12.6189 -34.2608 0.929918)
(-15.022 -32.3842 2.35292)
(-9.63057 1.3052 -10.9343)
(-10.9826 15.8559 -14.6695)
(-10.6248 16.7694 -8.8201)
(-8.28465 12.4622 -10.1506)
(-5.54771 13.0078 -12.8447)
(-5.50601 15.6773 -6.26719)
(-6.12953 14.526 2.8775)
(-7.70578 10.4948 -1.96196)
(-7.59119 -3.84118 -1.41012)
(-6.15977 -4.98671 -4.20549)
(-5.70515 -8.00842 -2.86932)
(-5.04967 -12.0188 -8.62759)
(-4.54432 -15.211 -9.08079)
(-2.78118 -11.0991 -5.46297)
(-4.10179 -15.9298 -5.3277)
(-6.49665 -15.9809 -2.04191)
(-7.69775 -11.6895 -2.52495)
(-6.51325 -17.7792 -1.52565)
(-4.97007 -12.8759 -5.75492)
(-6.65391 -13.4716 -17.9814)
(-6.48137 -14.1887 -13.1781)
(-6.48092 -12.8132 -11.8503)
(-6.18922 -13.5184 -8.06042)
(-5.34713 -10.5368 -4.10014)
(-4.98296 -20.1227 0.923804)
(-4.6141 -30.4214 3.2399)
(-4.97339 -29.6104 4.62497)
(-5.72809 -29.1976 7.11553)
(-5.14467 -30.2265 4.46458)
(-2.95066 -29.4508 5.42629)
(-1.05171 -12.732 3.52644)
(-2.47313 -24.9993 9.63881)
(0.13897 -23.5468 11.6886)
(-0.922431 -23.0764 13.9588)
(-0.907928 -22.8228 16.7981)
(-0.894632 -17.1007 16.9917)
(-0.108021 -13.408 14.7072)
(1.19509 -15.3787 16.5839)
(1.73043 -20.1288 10.145)
(3.06025 -30.5439 9.67201)
(1.44909 -38.0197 5.87852)
(-0.229456 -43.9213 0.985833)
(-1.98886 -49.4914 2.49885)
(-1.51578 -31.6019 2.53069)
(-2.08663 -41.2997 -1.42019)
(-2.28087 -38.8713 -2.80774)
(0.325255 -31.8872 9.18203)
(0.063463 -32.9829 11.6667)
(-0.670274 -40.3978 10.0069)
(-0.463954 -12.4524 7.18136)
(-1.68137 -21.8323 14.1824)
(-1.69229 -22.1705 14.9331)
(-1.39287 -22.9921 15.7905)
(-0.798227 -21.867 3.31147)
(0.162352 -29.4719 -0.0285367)
(1.16639 -31.2522 -3.71722)
(0.424104 -33.5742 -6.79528)
(0.54385 -60.5065 -6.59772)
(-0.4165 -64.1835 -17.9034)
(-3.36134 -62.6069 -16.8461)
(-5.64221 -61.0667 -15.0627)
(-8.99838 -59.8899 -16.9956)
(-7.64522 -52.4895 -21.6021)
(-7.01513 -32.4092 -23.7484)
(-5.92965 -34.1649 -23.9716)
(-7.11718 -25.7016 -27.891)
(-6.49002 -16.0657 -21.5323)
(-8.83604 -16.9333 -23.8668)
(-11.1811 -12.6393 -15.9127)
(-12.4172 -7.87234 -12.6097)
(-16.1229 -3.26335 -10.0289)
(-16.7111 5.28676 -7.63457)
(-17.5337 13.6875 -6.89762)
(-12.2363 11.7394 -5.19586)
(-16.8616 8.35117 -10.0762)
(-9.17169 105.156 -50.098)
(-16.5145 -2.69725 -20.7398)
(-11.3985 -27.9674 -22.9207)
(-13.5793 -34.112 -20.7571)
(-12.0047 -7.06783 -5.02153)
(-14.4292 -13.2742 0.210419)
(-14.2687 -19.1155 6.13528)
(-8.66475 -16.5062 6.25488)
(-10.7807 -20.0182 8.12673)
(-7.10614 -16.5223 5.99912)
(-9.20798 -22.7172 8.18589)
(-9.51885 -26.0588 8.72533)
(-10.3867 -26.9131 10.3899)
(-7.15307 -18.3765 7.99909)
(-8.86849 -22.1913 9.20893)
(-5.18121 -13.9501 4.99051)
(-5.82356 -27.4353 14.4659)
(-5.96125 -25.3408 16.1561)
(-2.75071 -19.6099 11.832)
(-3.24714 -18.8383 23.2412)
(-4.7553 33.3827 17.681)
(-4.43827 37.2205 12.1915)
(-4.22715 40.1763 12.8124)
(-3.11936 7.13263 13.9574)
(-4.2756 -4.39659 14.3734)
(-5.92905 -2.29455 9.98308)
(-5.07033 4.89453 5.30903)
(-5.22191 10.2201 0.16609)
(-3.5589 9.281 0.607993)
(-4.95568 12.4718 2.58073)
(-4.01881 8.64175 2.60633)
(-7.34351 13.4862 20.3709)
(-6.41627 8.89 29.8166)
(-5.45272 11.0639 29.4008)
(-5.57457 11.5363 26.5356)
(-4.21533 -5.85852 24.0004)
(-6.43139 -19.3588 31.8623)
(-6.01331 -17.5249 25.8916)
(-6.99482 -24.0552 37.2668)
(-5.20512 -19.7675 29.0862)
(-5.85347 -16.0814 32.0822)
(-6.35713 -16.6014 33.188)
(-8.39486 -11.5063 40.0178)
(-9.87401 -14.7817 50.5133)
(-7.97932 -28.4427 43.8101)
(-10.147 -41.5295 34.7409)
(-10.8288 -42.1262 30.5911)
(-7.63382 -32.2876 19.1031)
(-7.48993 -49.4516 11.4937)
(-6.9885 -48.8697 12.6301)
(-5.86386 -37.7209 9.63152)
(-7.1797 -40.5544 15.7733)
(-5.20287 -36.6356 24.0855)
(-3.27688 -41.3173 26.4142)
(-3.44808 -32.9906 31.236)
(-4.09268 -4.85115 44.7722)
(-3.63644 2.4874 46.1444)
(-5.39478 2.83273 44.2916)
(-5.04208 1.30585 39.5304)
(-5.04291 -1.24708 33.4062)
(-4.45363 -3.22662 32.3699)
(-5.61951 -5.98712 29.5053)
(-4.57185 -2.92578 22.2585)
(-6.32809 -3.38939 25.1661)
(-6.07172 -0.511556 24.413)
(-5.14421 11.9244 13.8798)
(-5.64411 27.9324 13.9224)
(-5.09626 30.6351 14.3172)
(-4.08749 21.4019 17.0479)
(-6.678 19.0061 37.9229)
(-4.68755 9.20604 26.5914)
(-7.24605 12.8439 27.8833)
(-5.77028 9.66918 16.5622)
(-6.71499 13.0776 19.6374)
(-6.45271 13.7493 19.2507)
(-8.76755 32.5772 36.6342)
(-9.68722 33.1243 42.135)
(-10.5933 36.3832 44.9113)
(-9.09828 30.8192 31.8183)
(-10.7102 39.1083 33.3085)
(-8.35132 29.3284 22.7989)
(-10.538 32.0808 23.6239)
(-11.8398 27.2512 8.09415)
(-8.17159 19.7456 5.02119)
(-7.03407 16.0462 4.4056)
(-7.91974 21.5814 2.66006)
(-11.2023 27.832 -1.38432)
(-8.17863 22.2883 -3.56243)
(-11.6379 28.813 -4.71476)
(-8.39297 21.6255 -4.39172)
(-8.06143 23.5051 -4.9597)
(-8.14265 16.2015 -8.50287)
(-10.5029 15.7034 -9.579)
(-11.253 -5.98326 -23.9669)
(-9.14625 -43.3224 -26.5735)
(-5.43238 -30.5533 -20.4539)
(-7.10502 -4.62749 -18.1275)
(-8.53185 11.6818 -9.6808)
(-8.26132 8.78332 -1.28927)
(-7.60651 7.44893 5.43809)
(-6.07536 10.6445 10.7553)
(-5.62954 15.2554 -63.1537)
(-4.24972 11.3518 -47.0153)
(-3.84425 7.66749 6.41073)
(-1.82996 -0.272965 2.03655)
(-0.0275291 7.1014 9.64337)
(1.33907 7.69807 7.22496)
(0.483214 7.02491 9.02822)
(2.93539 4.77896 9.83605)
(4.20402 -0.0145042 2.72294)
(4.35258 6.37674 -8.44344)
(5.01842 1.38868 -5.23111)
(4.1777 -5.67388 -3.11921)
(5.86884 -12.7496 -7.31084)
(6.41715 5.26335 -13.5167)
(9.13386 -7.12525 -59.8868)
(7.15221 -14.6921 -73.9539)
(7.7842 8.57878 -31.7718)
(7.40544 8.97984 -30.7393)
(5.08154 5.58026 -21.1028)
(6.41659 6.56426 -27.1559)
(6.83518 5.64903 -17.8571)
(9.51328 15.327 -24.4228)
(7.58058 12.7269 -23.3918)
(6.4018 9.1997 -16.303)
(9.04129 10.0846 -22.3651)
(6.78874 15.9902 -15.8038)
(7.04186 17.1662 -10.6263)
(8.11484 13.4109 -14.8954)
(9.91058 11.1176 -17.878)
(8.24876 9.87309 -10.2058)
(6.13802 0.0175681 -1.75696)
(6.43306 -2.80611 -2.67778)
(4.28381 -1.7756 -2.04149)
(2.50248 -9.0287 1.60497)
(3.07842 -28.4509 7.79809)
(0.264191 -26.4853 25.0391)
(2.54761 -19.7607 35.4408)
(5.64666 -3.82048 37.1114)
(7.47861 -3.50726 34.6006)
(5.74259 -0.102882 18.4066)
(7.87808 2.76284 13.4033)
(10.2286 9.68271 15.5492)
(5.87104 7.11183 10.3489)
(6.13131 3.91664 13.5782)
(6.27262 -119.886 130.586)
(5.53391 8.56211 25.8435)
(4.61881 20.2374 40.1407)
(3.16791 23.7962 41.2962)
(0.277276 15.8079 29.4415)
(-0.929508 12.848 41.7997)
(0.0730017 6.82499 39.8059)
(-0.0399943 -13.6204 53.331)
(0.824619 -24.6239 84.0412)
(3.19055 -14.6886 39.9912)
(5.46527 -6.89655 16.5714)
(3.56415 -5.68119 14.7136)
(4.4348 -5.82022 14.4972)
(3.71194 -2.67386 14.7348)
(1.40096 -0.361139 11.2955)
(0.98677 -0.144804 21.2034)
(5.65633 -2.76564 24.1123)
(6.74631 -0.248532 18.2714)
(8.70293 -1.1605 22.0589)
(11.9187 -0.644336 21.6079)
(10.8953 -0.268034 23.0519)
(9.83618 -63.4172 90.5171)
(7.85446 -103.217 127.438)
(8.65912 -60.9725 53.8211)
(7.10985 -38.8073 37.7976)
(9.24333 6.27407 27.4537)
(5.06129 2.84821 17.3449)
(7.39456 5.35394 31.2279)
(6.33392 7.09423 28.8951)
(8.24866 4.89731 18.3446)
(5.06381 3.45134 12.7414)
(5.72326 3.48145 19.0763)
(5.47337 2.47764 26.3123)
(6.10016 4.46187 24.0481)
(5.82049 4.14974 17.7825)
(7.39968 2.46754 17.3579)
(8.74572 2.11145 9.58879)
(8.29644 -9.54567 9.11026)
(8.44331 -12.8847 16.9794)
(8.67604 -17.4891 8.28005)
(8.79337 -27.7557 -4.48842)
(7.80032 -18.0189 -0.592359)
(6.51928 -3.87393 4.09195)
(6.85253 10.4923 23.182)
(4.56008 0.794451 46.4589)
(2.19587 -0.085887 37.7238)
(1.83453 -1.85017 49.3488)
(1.82296 3.32892 15.2335)
(1.35714 5.99679 -0.466743)
(0.0431281 3.35472 -0.742064)
(-3.50564 -2.60673 1.04817)
(-1.95065 -6.91038 12.9333)
(0.269295 -9.36717 13.321)
(2.33341 -10.7888 13.2949)
(3.25384 -5.37216 12.9432)
(4.35355 -6.41277 5.50047)
(2.74844 -10.0771 6.53497)
(1.93941 -10.1072 3.63012)
(1.34739 -23.6643 8.47006)
(0.810116 -14.0592 8.85673)
(0.536442 -12.4538 19.0341)
(0.555427 -6.69836 9.02521)
(2.29928 -10.9529 11.0075)
(1.60846 -14.3081 8.0299)
(0.672683 -18.6788 5.22576)
(-0.0354442 -12.9427 -6.52854)
(-0.656663 -6.17133 -4.83526)
(-1.72404 -7.5269 -9.43688)
(-1.23117 -2.54945 -13.8405)
(-1.27414 -2.28263 -20.2439)
(0.636099 1.63578 -21.3679)
(1.76689 2.61403 -19.0392)
(0.453822 4.13578 -28.412)
(0.649455 -7.88832 -31.9954)
(0.0196879 -74.2322 -24.1425)
(1.92303 -82.7866 -9.372)
(1.81603 -80.2785 -11.6605)
(0.783468 -52.1772 -3.22222)
(-0.411937 -18.1404 -20.1642)
(-0.228729 -7.50635 -27.2699)
(-0.0508523 -13.4574 -11.6417)
(-1.11259 -96.292 4.29113)
(-0.292864 -30.1011 -12.2318)
(-1.27903 -6.86211 -17.8901)
(-1.48195 -9.97144 -8.98475)
(-0.917964 -15.1514 -11.0756)
(0.217581 25.7112 37.4616)
(0.772627 43.6865 58.8467)
(1.21865 29.1515 45.3858)
(2.72146 -20.2727 -12.4416)
(1.02028 -18.2365 -14.9279)
(0.957243 -13.1953 -16.5676)
(0.490403 -6.40555 -17.031)
(0.613485 -2.47609 -20.131)
(1.56769 5.34554 -24.4895)
(2.69763 5.6099 -25.9665)
(0.83417 3.38305 -22.6536)
(0.980867 57.2134 -63.1004)
(0.619287 49.837 -45.96)
(0.509986 -7.42617 -10.2333)
(2.92325 -9.49795 -15.1208)
(3.56368 -18.254 -18.1592)
(5.68872 -17.7722 -15.4993)
(3.20909 -5.30886 -30.214)
(5.41185 -11.4091 -46.5976)
(6.11171 -17.7635 -40.5608)
(5.88943 -7.89142 -24.6044)
(5.55431 -2.45279 -16.1586)
(7.36411 1.90546 -2.30171)
(11.0508 3.35752 2.48243)
(12.1991 -2.69295 16.7657)
(12.18 2.24939 15.5423)
(12.9385 4.94023 11.8697)
(14.5656 -3.81802 16.4145)
(11.452 -0.676214 5.78403)
(8.8287 -0.978082 2.32008)
(11.5429 -2.18095 -16.5485)
(8.09519 1.02178 -14.7279)
(10.0728 5.79305 -14.733)
(10.3867 5.88347 -14.6209)
(10.9932 14.2103 2.61382)
(11.5892 16.6101 4.99571)
(11.3227 24.8165 0.912621)
(13.7523 31.0641 -11.5896)
(15.0333 33.9048 -14.3346)
(16.3447 35.1623 -12.6837)
(15.6327 40.7973 -9.01634)
(14.7952 41.4614 -8.53258)
(14.4318 38.3563 -12.2314)
(11.0223 22.9423 -6.86511)
(13.9214 20.8387 -15.2317)
(13.2799 12.4555 -22.4593)
(12.4498 17.4238 -22.576)
(9.61649 16.4253 -13.4832)
(13.8935 18.1978 -23.0642)
(7.71323 9.09547 -9.63688)
(9.45746 15.5755 -16.3952)
(14.748 27.4753 -28.8614)
(17.3063 28.4008 -32.1194)
(18.3258 26.5171 -32.0731)
(12.1126 17.0969 -24.0342)
(15.3849 24.4452 -33.4349)
(14.3459 25.7372 -30.5588)
(15.8203 19.9292 -30.1784)
(11.2935 16.8551 -23.1703)
(14.2536 21.203 -34.6743)
(14.3887 15.6229 -32.1769)
(13.4827 19.5261 -29.4687)
(14.3808 15.6112 -30.2312)
(15.0289 -0.263158 -32.9259)
(9.86378 -2.05196 -20.6122)
(14.9954 -1.15978 -26.3208)
(15.4462 5.36129 -22.0308)
(13.7781 69.3577 -13.0315)
(8.86151 46.651 -21.6623)
(16.6063 76.196 -41.0117)
(17.9475 78.7517 -45.87)
(20.339 39.6409 -60.9821)
(17.7008 20.3418 -25.7104)
(22.4117 26.3742 -35.143)
(23.1126 35.5594 -31.4864)
(16.0728 27.6902 -19.4828)
(20.0779 36.7761 -23.1958)
(14.7792 37.1563 -13.0252)
(18.7388 59.3282 -21.7526)
(17.8841 57.4557 -17.8932)
(17.9985 58.052 -14.8495)
(16.0195 43.7198 -9.69098)
(20.6333 54.5737 -18.8097)
(18.2414 42.7306 -63.0852)
(18.3966 35.111 -49.2097)
(14.4478 20.2461 -35.7456)
(15.7189 20.1521 -5.6091)
(18.6501 83.6319 37.1634)
(16.5705 91.8884 43.5077)
(17.3784 38.663 22.6551)
(16.0032 40.281 26.4688)
(18.4427 37.0365 28.8572)
(18.9194 31.3419 29.7698)
(15.8743 29.5915 30.6528)
(15.1917 28.7083 22.0918)
(14.1469 25.9929 15.856)
(14.7322 24.2669 16.1889)
(15.2104 23.8539 19.7466)
(14.8259 25.2307 19.5414)
(10.6392 18.1187 15.5647)
(11.1181 13.8634 12.2661)
(15.7888 18.6839 24.5764)
(11.8329 7.06899 18.2171)
(9.54956 7.21011 11.0874)
(15.5527 14.0792 13.6952)
(14.9832 15.6587 11.8705)
(11.2188 8.55812 9.70666)
(14.8835 7.70838 13.2127)
(14.815 -14.7095 18.4784)
(11.0052 -14.558 16.3359)
(14.2912 -17.4087 19.983)
(13.5145 -7.842 22.2813)
(7.08415 -4.07702 14.1574)
(10.5739 -8.32602 22.49)
(9.26462 4.68256 13.2607)
(11.8524 15.4823 13.4284)
(12.2276 13.649 13.7221)
(12.7692 14.1153 12.3146)
(8.29224 12.3379 13.267)
(10.2398 43.7414 3.40485)
(11.8943 44.8511 3.4537)
(11.7528 41.1827 5.11583)
(12.5008 39.9083 4.39162)
(11.0308 28.5839 3.15658)
(12.4832 39.8143 4.8509)
(12.9101 41.6268 5.19339)
(11.8083 39.7353 9.26101)
(12.2973 33.8218 50.1068)
(9.74294 40.1572 138.051)
(9.9151 13.637 14.9113)
(13.9356 -2.05554 26.2941)
(14.3105 -1.07977 25.9663)
(14.2332 -8.36513 11.0689)
(14.5184 -6.93876 2.80063)
(15.6344 -10.0885 2.2898)
(17.8082 -7.18419 3.08946)
(19.1583 -5.01952 2.66123)
(19.4735 1.3153 15.5154)
(19.4424 10.7945 35.2136)
(18.6525 7.77175 39.7771)
(17.6191 5.31219 42.2118)
(13.366 -3.8271 -9.49704)
(13.1024 6.04544 -1.84675)
(18.7415 22.1474 10.5983)
(15.9416 14.1317 10.4254)
(16.7503 14.3983 7.20047)
(16.893 14.0669 6.86914)
(24.4269 13.0868 17.5651)
(14.8131 4.198 7.08216)
(25.1403 3.88817 10.8704)
(12.5292 57.5303 88.6638)
(20.8912 134.989 107.573)
(25.9247 11.4861 -1.28322)
(27.6306 13.9065 -3.94994)
(26.3993 9.50717 13.2791)
(26.3267 7.42135 17.2471)
(25.279 15.2069 21.9152)
(28.0247 23.9161 3.90354)
(28.0875 23.5426 3.65062)
(29.9312 22.6747 2.07302)
(28.8747 21.1048 3.59005)
(25.588 21.4271 5.63727)
(27.3533 20.0605 10.9847)
(26.8177 19.0718 16.4209)
(25.7946 22.5317 18.3594)
(24.0263 54.7724 50.2664)
(23.2269 55.7034 46.3689)
(23.8718 47.9845 34.6594)
(25.9319 29.4841 11.2116)
(24.4944 24.3044 14.1038)
(19.0986 18.5772 13.0979)
(23.6416 -0.946278 26.5777)
(20.5979 -27.2135 33.6568)
(21.2198 5.42004 23.8732)
(17.48 -12.7655 10.6964)
(22.074 32.4227 20.117)
(21.0224 30.3154 18.8457)
(21.9479 29.4187 18.8139)
(22.0305 30.5697 23.0754)
(22.775 23.0783 30.8158)
(17.1599 11.7542 28.9472)
(18.4644 11.8785 51.1643)
(18.2405 23.523 63.3403)
(18.4749 43.6979 59.1525)
(17.5374 40.4988 57.0505)
(13.303 28.2808 43.5113)
(12.4519 -13.237 25.3149)
(12.0008 -21.6103 31.0362)
(16.1452 -33.6327 43.4932)
(14.8019 -37.8444 43.2907)
(12.9132 -49.2739 77.3573)
(13.494 -48.4589 75.5921)
(9.55425 -30.5545 49.9188)
(13.72 -13.5034 49.7928)
(15.4627 -1.45099 10.6195)
(15.6123 -2.54932 15.8202)
(16.5924 -4.02788 19.4639)
(16.8374 -10.6888 26.8734)
(17.8512 -9.43346 26.9499)
(16.6627 7.61717 42.9632)
(16.8731 4.23514 42.3157)
(13.6771 2.757 33.7481)
(14.2582 4.08435 33.5156)
(14.4504 -8.11854 56.1538)
(19.1973 -18.8223 75.695)
(18.8698 -18.8664 78.0607)
(21.5455 -5.25277 53.4032)
(17.5262 0.463636 21.5066)
(23.1361 0.447462 26.4204)
(25.2095 -0.301488 33.7416)
(25.0083 2.08623 37.8588)
(24.5211 9.00263 43.2456)
(26.2109 7.2026 39.5002)
(21.7755 7.55249 22.1075)
(23.1998 -8.99335 9.81647)
(19.4208 -11.4088 5.67848)
(27.6114 -14.2696 5.57379)
(19.7046 -14.6145 -2.41966)
(25.7299 -24.2117 1.89076)
(25.233 -21.9414 0.0908635)
(19.1794 -17.5035 -0.140415)
(21.0338 -21.4562 -0.411068)
(29.849 -26.0919 -7.32787)
(22.9163 -18.6717 -0.286875)
(30.0279 -25.4247 3.54899)
(26.2446 -45.4082 -5.60135)
(25.3468 -53.5019 -5.63931)
(26.6004 -47.7368 -0.1565)
(30.9013 -28.8662 12.449)
(30.4162 -30.8978 15.6843)
(31.3657 -30.4541 10.7028)
(31.3625 -35.6369 6.45321)
(30.6449 -39.1182 4.91097)
(20.7347 -26.1181 5.54849)
(27.9717 -29.557 7.27277)
(24.9634 -26.8932 6.85281)
(33.1375 -39.7762 15.7254)
(32.6731 -38.8446 10.0103)
(20.1656 -21.9627 8.12113)
(37.4694 -35.5727 12.7167)
(36.0741 -35.5659 12.3366)
(24.4161 -23.2783 11.0145)
(22.6325 -22.1808 11.7229)
(22.4485 -7.62202 12.7119)
(30.0998 -2.00196 18.0264)
(28.6568 -7.76725 22.1607)
(29.4221 -13.4699 20.5635)
(29.3104 -8.9408 15.5054)
(28.357 -6.08022 19.2293)
(29.5268 -32.5091 17.7032)
(29.1357 -31.3545 17.1871)
(28.921 -32.4066 18.1661)
(27.9049 -31.4201 20.2666)
(28.7905 -28.6914 15.656)
(28.7759 -23.7209 20.1248)
(27.0753 -22.7653 21.458)
(18.6989 -16.3549 14.5369)
(16.9745 -20.5034 12.5781)
(21.8909 -37.0377 13.9381)
(11.5512 -16.44 6.32445)
(19.1391 5.13045 -2.50277)
(16.3627 -109.815 -44.8904)
(16.1796 12.5759 7.2861)
(21.5756 18.2251 6.12976)
(15.8214 14.8912 7.34864)
(14.5839 28.6113 41.2066)
(17.2475 -31.1343 26.3116)
(12.8347 -23.9606 24.1006)
(11.8319 -29.8973 30.434)
(10.9746 -29.3359 28.8627)
(13.4175 -34.0889 28.7948)
(13.6292 -12.8802 15.7254)
(10.0724 -13.4987 7.13847)
(9.33041 -10.1373 6.10871)
(10.5902 -7.45382 6.92669)
(12.2301 -16.1048 21.6759)
(9.10086 -16 13.1648)
(8.68635 -20.2614 6.89029)
(13.8051 -32.1064 8.46027)
(16.203 -35.9894 6.5293)
(12.8101 -25.5571 1.89382)
(18.1589 -32.1976 2.94653)
(19.5314 -33.7994 3.47735)
(20.1981 -40.4372 3.61178)
(21.9162 -44.3541 -0.330249)
(17.6047 -31.4101 -1.7546)
(23.7974 -38.7182 -3.68376)
(16.4473 -28.3327 -3.63351)
(15.2202 -29.9695 -4.8107)
(16.9267 -29.7915 -10.7929)
(21.9456 -42.9511 -12.7137)
(16.7404 -31.0631 -7.57905)
(14.4053 -23.4144 -3.62013)
(26.5781 -31.2822 -10.0928)
(28.006 -27.8894 -10.4102)
(29.3371 -39.8982 -13.2165)
(26.7886 -36.545 -1.48228)
(20.3615 -20.068 1.27563)
(28.2729 -18.4843 -5.3611)
(23.5169 -12.9154 -6.77957)
(33.3242 -16.5983 -9.41342)
(30.9295 -2.89835 -11.0169)
(31.2382 -2.04777 -6.9027)
(32.036 3.58901 -8.65904)
(24.5138 3.76906 -14.3979)
(33.114 8.80509 -20.1551)
(29.8392 64.7934 -5.3772)
(28.8111 79.2883 0.796101)
(34.9977 1.13041 -13.7527)
(35.2194 13.077 -5.2527)
(35.8448 17.3258 -7.05539)
(36.6303 18.6228 -8.05323)
(37.2649 13.4791 -0.530804)
(29.9787 11.5295 6.85022)
(40.78 13.4039 13.5501)
(41.2772 19.7774 21.8215)
(42.345 13.0442 21.4094)
(45.2648 -6.41571 16.04)
(47.4014 -2.57126 19.0221)
(48.3582 2.37965 16.052)
(49.8986 -1.96094 8.94546)
(51.1474 -5.99654 9.81126)
(38.5481 -6.00352 12.5582)
(48.0487 8.41428 23.9774)
(47.4626 22.4642 26.9858)
(44.3046 34.0221 31.4454)
(35.4639 14.0194 20.4852)
(36.2565 14.8043 18.5537)
(48.615 23.2541 17.1337)
(45.3757 19.4555 -18.081)
(41.4061 12.236 -48.6908)
(52.3101 10.2001 17.5139)
(54.833 12.4614 23.0822)
(43.6318 8.03646 12.9476)
(58.8105 23.3589 -1.52264)
(57.2023 24.4467 9.61184)
(49.3489 -13.7747 35.8367)
(50.5353 -8.28175 33.0117)
(51.831 -7.73361 30.29)
(40.9763 -1.23154 16.6526)
(56.2688 11.7506 12.6811)
(62.4239 21.5899 16.9394)
(66.3686 11.3813 17.0932)
(71.3689 -6.61471 17.4)
(51.7916 -104.467 157.551)
(51.8759 -6.40824 9.4949)
(72.0343 -16.3358 12.7941)
(71.9928 -12.091 17.1696)
(72.4747 -13.7996 12.4057)
(52.2455 -10.8373 7.44232)
(52.8028 -9.90559 7.45707)
(73.7889 -13.8941 19.8134)
(66.0313 -4.18504 64.3556)
(37.3822 2.45487 27.3825)
(59.2231 -9.27636 34.9588)
(37.7997 -8.01728 1.17197)
(69.2939 -14.3681 -11.7533)
(68.7134 -17.9044 -9.05094)
(50.4871 -12.9327 2.63509)
(70.5956 -9.52203 12.5941)
(73.5435 -19.5104 0.0532105)
(49.4057 -3.16677 -7.40449)
(70.0215 -3.8385 -6.7283)
(72.6331 -2.73664 -14.1054)
(55.2009 -14.2861 -5.22929)
(79.3797 -23.7008 -3.19091)
(80.1043 -24.4443 0.267636)
(81.5018 -24.1726 0.468798)
(83.5689 -25.5719 -1.50269)
(83.7303 -26.7449 -0.506195)
(58.5929 -20.0387 0.708903)
(71.6311 -14.6333 5.70228)
(61.7939 4.92474 24.3533)
(57.0623 -15.0321 -0.02424)
(80.2959 -16.2198 4.3481)
(56.6101 -11.0163 4.27336)
(79.3313 -18.6819 3.47421)
(78.8118 -21.1957 -5.67592)
(81.09 -16.1225 19.8326)
(84.4044 -8.74854 28.6755)
(86.8 -5.58511 35.8032)
(88.2857 -13.8595 31.3484)
(64.5032 -10.5335 22.8267)
(91.1064 -12.9193 37.3865)
(82.2572 1.29854 65.8184)
(85.2246 -0.925678 61.0947)
(105.259 -15.8617 -5.22284)
(104.657 -16.4661 -7.32392)
(71.8061 -13.3594 -5.74362)
(108.819 -25.1671 -9.64145)
(76.3902 -16.6659 -3.02965)
(115.349 -22.2176 -4.33231)
(76.0465 1.10412 16.5646)
(57.9297 8.60342 17.4324)
(115.732 22.8414 26.5288)
(119.93 23.6604 25.1481)
(125.474 24.1551 24.607)
(124.905 23.5397 24.8125)
(83.49 17.3315 12.5971)
(129.422 24.8086 18.8141)
(131.939 19.9919 13.9863)
(88.6839 9.44719 4.77601)
(144.567 -8.27461 -16.8836)
(146.299 -6.83137 -16.0365)
(142.5 -20.3237 -24.8768)
(143.903 -18.9488 -29.311)
(148.064 -13.5382 -25.9136)
(152.136 -14.5848 -25.3601)
(151.154 -6.75857 -24.4772)
(94.3448 14.2868 -15.8779)
(94.3359 13.6909 -15.7219)
(72.5118 0.205897 -34.5078)
(133.485 11.1224 -16.2495)
(140.072 -0.293437 -3.5314)
(110.504 -62.6546 -74.5342)
(109.614 -90.3389 -88.6851)
(140.325 -63.602 -8.17577)
(149.485 -51.3749 13.4909)
(117.909 -13.6728 29.1781)
(111.097 1.94741 22.2003)
(105.026 -19.5862 -8.20804)
(112.549 -12.7745 9.6847)
(168.693 -24.6449 8.33945)
(168.475 -24.8093 8.25675)
(112.262 -13.883 1.4845)
(114.24 -11.0006 -2.8264)
(176.264 -19.4633 -2.99959)
(176.032 -17.7375 -7.64993)
(170.904 -5.58688 -53.7554)
(175.426 -4.66359 -61.7006)
(178.082 -4.17417 -64.3473)
(118.35 -2.81558 -45.9772)
(191.691 -3.06458 -73.4526)
(182.995 10.6077 -77.6667)
(183.839 18.3694 -79.5583)
(204.193 16.7614 -38.333)
(216.249 15.5791 -19.8752)
(224.033 21.3355 -19.7464)
(234.428 27.6329 -32.8395)
(145.361 10.0561 -14.9222)
(269.839 15.4839 -24.9515)
(269.55 21.7517 -29.1089)
(267.695 28.4437 -38.4048)
)
;

boundaryField
{
    sides
    {
        type            calculated;
        value           nonuniform List<vector> 2((267.695 28.4437 -38.4048) (-141.793 15.7141 1.00543));
    }
    empty
    {
        type            empty;
    }
}


// ************************************************************************* //
