/*--------------------------------*- C++ -*----------------------------------*\
  =========                 |
  \\      /  F ield         | OpenFOAM: The Open Source CFD Toolbox
   \\    /   O peration     | Website:  https://openfoam.org
    \\  /    A nd           | Version:  7
     \\/     M anipulation  |
\*---------------------------------------------------------------------------*/
FoamFile
{
    version     2.0;
    format      ascii;
    class       volVectorField;
    location    "0.005";
    object      UMean;
}
// * * * * * * * * * * * * * * * * * * * * * * * * * * * * * * * * * * * * * //

dimensions      [0 1 -1 0 0 0 0];

internalField   nonuniform List<vector> 
1000
(
(0.458305 26.633 -32.7123)
(0.918399 31.8156 -25.1174)
(0.963923 31.9609 -19.3622)
(1.53706 -4.74233 1.88804)
(1.16913 -10.4366 -9.02062)
(1.15296 9.17928 -3.45751)
(1.08404 -7.27754 27.0106)
(1.26208 -5.69498 47.3058)
(1.42418 20.279 33.7799)
(1.48959 -4.5279 20.8958)
(1.12161 -19.9492 0.788195)
(1.48276 -12.5599 6.52551)
(1.50212 5.81431 17.9733)
(0.388508 -0.299081 -21.3412)
(0.531038 11.6653 -19.4375)
(0.58777 19.2643 -22.3771)
(0.900661 39.5146 -29.0372)
(1.54782 44.3284 -13.165)
(1.74072 27.3251 3.31146)
(1.87057 40.4104 17.3889)
(1.5469 24.4827 42.6795)
(2.95177 -6.09458 39.6044)
(2.43925 0.589075 47.3998)
(2.39947 21.4509 42.8298)
(2.77807 -3.29005 25.2016)
(2.99882 -8.16519 24.5046)
(2.603 -4.79217 -6.52632)
(2.34261 3.82684 0.86203)
(2.33006 -1.58497 13.5745)
(2.72837 -11.4931 11.6424)
(2.56042 -15.5146 14.2091)
(2.9883 -8.93627 20.6087)
(2.96669 -1.75129 24.7108)
(3.32458 1.80107 13.2233)
(3.15556 12.2599 17.0605)
(1.8117 0.782955 12.8719)
(1.82711 9.98872 -10.207)
(1.5656 4.53448 -14.1494)
(1.55044 11.7298 -15.7292)
(2.00655 13.1471 -15.5595)
(0.75898 1.29261 -15.8439)
(1.23807 -8.8548 -7.84478)
(1.53704 14.8689 -18.4484)
(1.56727 10.2505 -15.8584)
(1.8787 24.163 -37.3916)
(1.32394 43.0686 -28.2633)
(0.413806 41.3224 -33.156)
(0.607551 39.5478 -50.7859)
(0.31443 39.636 -36.5748)
(0.23679 38.8842 -31.2557)
(-0.790563 49.4596 -50.0571)
(-0.977621 49.9286 -37.2478)
(-0.167378 52.2006 -24.6648)
(-0.946113 33.4139 -24.8263)
(-0.462719 38.4379 -22.6354)
(-0.907089 53.1571 -32.1648)
(-1.36184 61.3339 -26.6666)
(-1.16315 55.5624 -35.2901)
(-0.78789 46.3672 -35.7948)
(-0.849265 18.0417 -28.1218)
(-1.49877 9.42438 -15.8022)
(-1.82875 0.516805 -19.3911)
(-1.38927 -18.7081 -5.08012)
(-0.760424 -8.16726 -3.42053)
(-0.719208 -18.4591 4.43595)
(-0.338642 10.6401 18.4273)
(-0.295329 1.56513 16.1338)
(-0.355316 -12.8835 18.8894)
(0.320584 -0.837203 -1.65877)
(0.520501 -29.3074 -6.55581)
(0.49585 -45.2707 -8.87628)
(0.93819 -47.6403 -3.12127)
(1.09049 -47.0804 -8.80938)
(1.54046 -30.6331 -0.746505)
(1.60151 -30.698 4.82511)
(1.95843 -24.5669 22.1244)
(1.72407 -24.3935 14.0246)
(1.56304 -27.3967 18.0663)
(1.68137 -15.6804 11.9243)
(1.90828 6.25328 24.6567)
(1.64892 2.64188 30.7321)
(1.85322 -8.34085 40.0404)
(2.34551 1.2435 29.586)
(2.81118 -20.2375 65.0773)
(2.83392 -27.8867 73.5158)
(3.033 -9.63916 44.62)
(2.38357 -19.574 51.8869)
(2.17886 -24.3385 51.602)
(1.78476 -15.5137 23.0057)
(2.55782 -6.63736 37.5791)
(2.44361 -7.8416 25.9813)
(3.42204 0.960344 10.2814)
(3.60971 -1.17565 -1.87835)
(3.91115 17.3659 -6.82413)
(3.39323 15.7057 -2.18119)
(3.34519 21.0116 -14.261)
(4.13015 19.6468 -8.59965)
(4.00069 35.8167 -11.9222)
(3.86563 35.6564 -6.36408)
(3.34291 16.6349 15.5539)
(3.78247 19.9601 29.6635)
(4.12066 12.5267 48.0739)
(4.20596 -3.73452 36.0722)
(4.41948 -29.0241 33.9333)
(3.89111 -15.7096 26.9393)
(3.90426 -20.8902 9.76374)
(3.55037 -21.8636 27.6373)
(4.3236 -26.6428 23.4805)
(4.73994 -21.8582 21.4368)
(4.54419 -22.163 20.1726)
(4.37631 -11.8826 23.0091)
(4.25994 -20.3629 23.1046)
(4.19953 -27.4427 9.98826)
(4.24741 -16.0773 8.93181)
(3.4812 -11.9998 0.665187)
(3.51905 3.06236 13.2588)
(3.588 12.821 33.5165)
(2.67526 10.2645 46.1554)
(2.99525 12.7859 52.9573)
(2.9802 20.1154 43.7082)
(3.69178 21.2931 35.8716)
(3.62612 36.0608 40.8501)
(4.07919 57.1489 13.7453)
(3.79778 34.8075 -7.98324)
(4.12578 12.352 -15.4465)
(4.22016 5.43605 3.6472)
(4.17276 -23.9414 15.9613)
(4.384 -35.3014 12.0371)
(3.95286 -12.6199 18.6991)
(4.80462 -6.79244 25.6902)
(4.95121 -11.5831 17.1409)
(5.03067 -15.8158 8.14278)
(5.42046 -16.8276 -1.68246)
(5.88493 -21.1341 9.99623)
(6.16965 -30.3281 24.3797)
(5.52358 -27.9105 22.7046)
(5.14949 -45.8927 -12.3395)
(4.97361 -41.1943 -32.4843)
(5.23051 -54.237 -45.1149)
(5.64942 -46.3546 -59.8875)
(6.15656 -71.7026 -53.8413)
(6.40492 -55.1892 -36.5202)
(5.60728 -36.8884 -37.8006)
(6.26336 -37.0002 -38.8564)
(5.68482 -29.9072 -35.7212)
(5.47377 -45.6077 -0.156856)
(5.90304 -28.9876 5.71436)
(5.68473 -14.8226 4.25525)
(5.22783 -25.8691 9.8692)
(5.76805 -40.8653 -1.6426)
(5.23756 -29.6823 -8.27812)
(5.51362 -14.6823 -13.2049)
(5.37265 1.87465 -7.21687)
(4.43988 16.1526 -23.1892)
(3.67682 19.8599 -60.3076)
(4.26453 25.3049 -50.4287)
(4.09123 43.7417 -30.8222)
(4.54065 41.1308 -24.939)
(5.26818 49.3073 -5.63058)
(4.96207 54.9891 -7.00563)
(4.88425 55.0117 -3.14972)
(6.0481 61.6378 -25.5916)
(5.68281 72.267 -27.9643)
(4.95781 56.3252 -31.3773)
(4.73933 66.3823 -33.3424)
(5.23196 57.3297 -42.1225)
(4.65832 20.1786 -47.012)
(4.55168 8.16537 -34.7821)
(3.77599 -0.429779 -22.5059)
(2.46226 6.97257 -20.6178)
(2.34344 0.662822 -25.3691)
(2.5602 4.95555 -21.1959)
(2.83353 20.3335 -9.35861)
(3.51399 27.7365 -8.82295)
(4.41031 8.73122 -13.3527)
(4.16433 0.0372067 7.29202)
(4.11084 -16.9925 3.10096)
(4.40118 -27.0498 -15.0351)
(5.04253 -37.5681 -30.0885)
(5.30968 -35.6381 -25.2668)
(4.99429 -31.1125 -9.15299)
(5.05149 -26.4285 6.11467)
(4.79151 -37.8288 13.4263)
(4.5891 -44.2361 15.2841)
(4.32648 -13.865 17.2857)
(3.87616 -13.7165 14.0163)
(3.43323 -2.26807 5.71122)
(3.82531 2.57679 5.151)
(3.54552 4.09261 -4.51268)
(4.07395 17.3574 -17.4713)
(3.82941 28.8461 -7.4767)
(3.65946 19.0091 7.58153)
(4.02946 16.7189 -1.19431)
(3.31733 20.6612 -13.7406)
(3.86037 11.7151 16.1988)
(3.12585 26.3367 21.5157)
(2.84226 17.3244 12.4777)
(2.72503 14.4443 -8.71935)
(2.96189 16.4272 -24.884)
(3.17568 5.08547 -20.0247)
(3.50778 9.30897 -15.6161)
(3.69065 25.3707 -4.00009)
(3.64311 21.6507 -1.99779)
(3.26235 11.864 -25.4339)
(3.39146 15.2856 -8.72043)
(4.50004 25.9668 12.2727)
(3.9157 21.4077 28.5998)
(3.45456 11.4043 31.2757)
(2.65059 23.6288 23.9441)
(2.83726 19.8069 7.81056)
(2.98497 28.9482 33.2405)
(2.8622 22.2141 31.0676)
(3.2424 10.6571 44.2306)
(3.23184 15.4744 1.52642)
(2.36696 -1.00509 8.80309)
(2.87267 -12.6978 4.53686)
(2.40072 -18.3608 -2.7973)
(1.40685 -11.1546 -28.9314)
(0.980669 -2.64895 -28.3763)
(0.720584 -22.7199 -23.1731)
(0.32162 -20.05 -22.0755)
(0.269663 -11.4271 -4.55082)
(0.503581 -9.45299 -11.2022)
(0.491632 -11.1317 -10.7934)
(0.762118 -6.51796 -28.3829)
(1.2479 -13.2762 -11.6157)
(1.8719 0.231586 4.65169)
(1.47587 22.5075 -3.50305)
(0.939945 9.13054 -14.0508)
(0.909981 20.6853 -22.2895)
(0.784104 26.2564 -10.9922)
(1.20212 42.0928 -25.7585)
(1.29596 10.9527 -20.711)
(1.85888 6.36601 -12.0428)
(2.0815 15.7812 -15.8494)
(2.87503 19.3093 14.1308)
(4.08168 5.03581 -13.3787)
(4.43404 14.7181 -14.4679)
(4.9186 24.1842 -2.70664)
(4.24896 12.2363 21.4067)
(4.54736 3.98996 13.7965)
(4.68151 10.0435 -0.999036)
(4.76965 3.9852 -6.88333)
(4.80877 17.7209 -3.50428)
(3.73433 11.8532 13.6714)
(3.72323 -3.38802 10.1418)
(3.14488 7.05807 -0.610068)
(3.3998 13.1034 -22.2168)
(2.51846 -17.3336 4.23582)
(2.82459 -11.848 15.426)
(3.39704 -10.7635 11.2951)
(2.37871 -34.287 -9.19072)
(3.03458 -15.9182 -11.4583)
(2.35512 -20.5452 -10.7454)
(1.94801 -40.6137 -0.724864)
(1.478 -25.7641 13.3929)
(0.680769 -34.3458 5.60513)
(0.455655 -18.4659 2.08357)
(1.13163 -20.7763 -3.36563)
(1.21449 -9.47728 -8.03918)
(1.38147 -13.3638 -7.1649)
(1.83325 1.08199 -29.4619)
(1.4258 11.1681 -19.0707)
(1.27828 12.539 -46.041)
(1.93657 -12.4337 -49.984)
(1.79183 -11.3825 -40.2802)
(1.85504 -21.925 -42.496)
(2.03602 -8.56304 -29.9413)
(1.65421 -12.5277 -16.7913)
(2.07503 -8.19799 -10.5874)
(2.31208 -13.4869 -15.597)
(2.42021 -15.1646 5.11393)
(3.09135 -22.3468 -5.62601)
(3.59205 -23.3491 -0.631406)
(3.30844 -21.7542 3.27981)
(3.31562 -7.99194 -8.31993)
(3.29509 -16.8629 -18.3722)
(3.51601 -14.8046 -14.4813)
(3.34666 -14.07 -19.2226)
(2.54406 -35.4188 -19.1846)
(1.97005 -53.2685 -4.78238)
(2.73008 -44.7964 -13.8048)
(3.57026 -23.3772 -21.6737)
(3.69342 -6.18623 -8.7262)
(3.972 -4.66774 -20.9239)
(2.8484 -18.7814 -18.9558)
(3.07302 -32.2722 -13.899)
(2.80971 -35.5013 0.943195)
(3.15793 -53.0208 17.6847)
(4.15859 -60.7829 8.79765)
(5.04319 -58.4584 10.6352)
(4.99237 -59.6717 3.66658)
(4.70689 -56.2231 26.1767)
(5.33155 -54.6824 22.1318)
(5.70617 -34.4467 25.4917)
(5.3004 -34.4616 40.9409)
(4.48684 -38.1118 36.6098)
(4.12865 -52.7396 35.4484)
(4.32744 -47.4567 28.5246)
(4.06689 -29.8646 27.0235)
(4.65271 -9.27882 18.6112)
(4.04593 -14.1008 31.0731)
(3.56025 -14.6956 14.5375)
(3.95484 15.7781 11.9635)
(3.79402 26.7804 8.78789)
(3.74114 27.7673 -8.98976)
(3.7828 24.0832 -4.47233)
(3.70497 8.32716 8.11381)
(3.31679 3.13035 -25.7804)
(3.02967 -1.14137 -9.1662)
(1.91358 12.3287 -18.1952)
(3.27239 1.06214 -13.2917)
(3.37316 14.0723 -24.1244)
(3.01979 1.09434 -44.4463)
(3.59907 -34.5118 -53.67)
(3.6027 -28.727 -41.2883)
(3.99842 -27.354 -19.7609)
(3.09622 -49.1582 -31.8196)
(2.8612 -32.9766 -43.1763)
(3.68932 -38.1456 -35.5245)
(3.62835 -9.84277 -28.6224)
(3.86576 -10.9958 -39.9988)
(3.97474 -32.2174 -51.261)
(4.26975 -23.9139 -57.8983)
(4.17238 -16.0769 -50.2977)
(3.97311 -19.565 -35.442)
(4.72207 -8.96033 -30.3142)
(5.4249 5.51829 -19.7268)
(6.85338 18.6112 -18.7984)
(6.93643 44.1131 -10.5004)
(7.56449 25.083 -23.6376)
(8.04546 30.142 -8.23745)
(8.86859 12.3229 7.62904)
(9.00987 -6.96478 12.0578)
(9.19216 13.0281 10.7737)
(9.63984 20.1565 2.69437)
(10.3047 -6.07624 24.6812)
(10.8979 -16.8288 -1.16809)
(11.1182 -3.52147 0.379311)
(11.6541 -5.85507 -2.47244)
(11.5346 2.70627 13.7992)
(11.081 -1.911 1.72216)
(11.7989 0.644055 -0.884806)
(11.1446 6.44403 -9.18841)
(10.7771 -11.4983 4.36766)
(11.0469 -37.7786 -7.25749)
(11.5331 -17.4942 -20.5702)
(12.1921 -9.52842 -10.5897)
(12.2466 -15.2362 -5.08601)
(12.9392 0.54251 -8.01729)
(13.8715 21.2255 -28.9443)
(13.9284 26.1705 -18.8767)
(14.7681 43.2105 -18.142)
(15.247 38.1774 4.48658)
(16.3633 31.6711 12.9014)
(16.8617 31.4584 5.46951)
(16.8827 22.7073 -12.6613)
(17.4897 25.5605 -21.8453)
(17.6745 14.9253 -29.1566)
(18.7485 33.5084 -36.3317)
(19.0287 46.6259 -24.1185)
(19.5001 50.2975 -11.8796)
(21.0358 59.6697 -15.4395)
(20.8899 44.7637 -6.29795)
(20.3796 35.5637 1.22318)
(21.1752 15.2698 7.08882)
(22.7202 21.141 -0.989904)
(23.1981 17.3851 8.77366)
(23.0674 4.40935 5.53078)
(22.8805 -13.9555 -15.912)
(23.3486 -3.15105 -7.82668)
(24.3776 2.76082 -18.8184)
(24.8663 -1.28444 -3.29479)
(25.5338 -5.369 -6.49398)
(27.2473 -2.10239 -16.7483)
(26.7623 -9.96846 -30.0593)
(27.2709 -18.8695 -19.5272)
(26.1149 -18.867 -15.6605)
(26.3075 -47.2258 -13.6527)
(27.8901 -43.1946 1.02683)
(29.1547 -37.1948 24.323)
(30.1531 -32.2487 30.9403)
(30.0514 -9.85269 31.5511)
(29.9724 -12.3527 48.3077)
(31.8337 -24.8064 33.8226)
(32.6689 -22.0538 24.159)
(33.3766 -25.9959 19.8625)
(32.641 -32.7368 29.5783)
(32.8909 -42.9367 30.1298)
(36.4078 -38.1751 39.4773)
(36.4967 -49.4723 41.6298)
(37.1677 -51.8714 14.4623)
(38.3453 -50.4619 -5.28021)
(37.6188 -48.9154 -8.77626)
(38.1082 -38.5521 -18.818)
(38.7432 -36.8484 -17.3588)
(38.9846 -41.2423 -33.7854)
(39.8856 -31.7506 -22.4241)
(40.716 -21.1773 0.197069)
(41.0989 -22.625 -17.7086)
(43.5502 -17.2291 -37.4593)
(44.206 -22.5695 -19.3671)
(45.6727 -12.666 -16.6768)
(45.173 -24.1112 -11.0802)
(44.7603 -21.5368 -3.18276)
(48.0696 3.41109 -6.87989)
(49.7389 13.6301 -11.297)
(47.6645 -2.74655 -18.6696)
(50.2404 -7.00298 -18.4906)
(52.6301 13.9895 -5.55343)
(54.8104 20.9973 -16.0425)
(53.2234 21.0943 -6.24292)
(55.3753 17.3367 -17.0465)
(54.6212 8.13625 -27.8452)
(56.5555 7.84671 -28.3781)
(60.3404 6.87976 -25.9276)
(58.6306 19.7422 -17.4909)
(63.3748 14.8688 -14.7803)
(63.3541 14.4172 -13.0903)
(60.4051 30.1761 -7.3341)
(60.2456 25.9409 -13.4031)
(62.185 25.6857 -18.5171)
(66.0576 25.9667 -31.7501)
(66.0841 29.8955 -38.4893)
(67.2158 14.7957 -47.9492)
(67.7092 -2.2523 -23.5269)
(72.6048 4.603 -23.7256)
(74.1943 19.8818 -19.8415)
(72.7925 13.1636 -28.6262)
(74.2274 16.7296 -36.6297)
(75.8869 24.9361 -30.4288)
(75.1288 14.8934 -21.0767)
(78.4479 17.5735 -37.5018)
(79.0191 23.1046 -16.5675)
(81.2164 13.87 -9.1177)
(84.7263 18.9603 -1.02271)
(82.7182 32.7945 11.6525)
(83.2963 25.1065 6.98756)
(84.5678 19.6605 -4.19373)
(87.762 18.9754 -8.02393)
(88.6676 28.6247 10.9605)
(90.4455 33.3649 -4.45038)
(88.3697 34.5845 -4.85697)
(92.0961 43.6356 -7.79298)
(93.3203 4.3878 -14.9481)
(95.0875 4.21767 -32.2265)
(96.2183 30.4612 -15.7445)
(103.645 0.0287928 3.94853)
(104.862 19.1545 -4.85773)
(103.761 12.1646 -12.2977)
(103.662 2.6183 -24.3003)
(101.764 11.7175 -18.9905)
(109.203 6.80564 -9.45929)
(104.973 1.00687 -0.61986)
(103.235 -11.1757 -2.62867)
(109.968 8.26097 1.24682)
(116.761 11.1487 9.40038)
(110.098 18.1373 19.3437)
(110.772 6.65367 14.7784)
(111.972 0.0129472 22.599)
(116.468 18.4344 5.90927)
(125.021 28.7356 -35.7161)
(127.429 39.5912 -30.4525)
(125.728 19.4819 -22.1098)
(128.42 22.4019 -2.796)
(127.535 3.59904 -8.69372)
(119.148 16.8416 -5.51921)
(119.701 8.6311 -2.02062)
(126.773 12.2435 -12.3105)
(122.719 3.08479 -9.17402)
(130.529 -12.8396 -8.48902)
(136.709 -15.69 0.998838)
(138.805 -30.6098 -18.1176)
(139.527 -31.634 -10.3972)
(141.084 -14.9782 -28.0518)
(144.205 -1.99427 -13.6633)
(144.442 -12.8212 -11.9148)
(141.167 -13.3563 -12.4943)
(146.408 -10.6052 -9.96826)
(149.123 -29.5826 1.82867)
(141.642 -16.0225 -7.82437)
(151.224 0.411657 -14.4716)
(152.471 -1.14376 -9.12623)
(154.778 -2.6907 -7.04378)
(150.716 7.1385 2.24102)
(155.196 -6.71736 0.0465749)
(159.799 -15.0753 14.3834)
(161.534 -9.30808 -5.61712)
(160.705 -13.5209 -5.63304)
(162.032 -17.9125 3.04293)
(157.648 -15.7518 5.70211)
(166.164 5.12299 11.624)
(173.222 7.09704 8.4283)
(170.572 5.12878 -7.42566)
(170.064 4.14043 -5.96548)
(178.42 5.09125 3.37191)
(179.201 0.0357029 -12.6499)
(188.211 -6.20482 -10.8647)
(186.229 -10.7672 -0.166406)
(199.01 0.214017 1.21084)
(203.945 -4.3031 -17.3743)
(190.563 -10.8899 -18.9692)
(184.502 -20.8727 -9.6444)
(189.055 -7.60001 -14.1368)
(189.097 2.7758 -4.06617)
(186.494 -5.91021 2.31718)
(187.107 -8.18886 9.77366)
(184.22 -19.3276 -3.84968)
(180.683 -9.56182 -0.207797)
(192.271 -2.69138 5.67914)
(187.251 -10.5201 0.875419)
(186.717 -8.46665 -28.8123)
(190.056 -6.01675 -29.8978)
(185.598 -3.35095 -19.1701)
(182.156 -12.8243 -25.6775)
(176.421 -7.31266 -33.089)
(180.114 -13.2726 -5.40951)
(175.8 -17.6776 -20.1962)
(186.35 -10.3768 -4.60596)
(181.071 -10.8908 -15.6692)
(185.283 -6.5964 -20.2128)
(177.851 1.63718 4.2456)
(186.139 -3.11041 -1.77763)
(183.534 -9.97515 -24.9244)
(189.226 14.4175 5.25175)
(178.104 26.8033 -0.0586093)
(179.443 25.6509 7.60332)
(178.498 12.8766 4.13648)
(180.595 15.2194 2.70221)
(177.97 -5.63049 8.30319)
(177.438 -11.3872 -13.9765)
(172.836 4.35369 -0.421313)
(180.226 6.06455 1.91642)
(172.254 -2.92506 -14.4292)
(163.9 -15.3961 -0.852294)
(164.353 12.3794 -17.1222)
(165.39 -2.3299 -16.8666)
(163.189 -9.19134 1.01142)
(158.744 0.595741 -3.04572)
(162.719 3.17857 -7.19454)
(157.727 -12.4391 1.31749)
(163.848 0.124299 -5.16883)
(159.001 -13.375 -7.65938)
(149.571 5.31023 -17.0849)
(151.423 -9.94345 -22.4)
(160.374 -4.45158 -5.8478)
(153.176 -22.1141 -15.9302)
(157.965 -6.29509 -31.0538)
(160.356 10.3874 -20.5546)
(155.429 15.7672 -29.5093)
(153.907 11.9832 -15.8704)
(155.705 17.0257 -1.90686)
(156.383 18.8802 2.35935)
(159.34 24.4085 0.666934)
(157.279 23.9444 -4.64414)
(164.173 3.5039 -2.80288)
(162.802 9.47064 -11.695)
(161.355 22.3385 11.129)
(166.211 21.4106 12.3326)
(166.657 33.0549 17.4061)
(150.57 11.1642 14.3714)
(156.724 3.33563 6.78267)
(161.676 -20.7666 15.7245)
(169.6 8.56648 34.2078)
(155.771 32.8271 12.6418)
(155.405 36.3437 5.85055)
(155.297 31.5352 -8.42804)
(153.389 32.5638 -9.52402)
(152.393 39.7961 -0.480546)
(150.948 45.7204 -12.1298)
(154.234 34.1573 -7.61925)
(158.324 30.4444 7.06477)
(157.283 -1.39408 1.18017)
(152.514 -2.20861 -15.1777)
(150.52 25.7148 -3.44284)
(157.657 44.3623 8.12715)
(160.95 30.1716 -8.50468)
(152.966 5.2906 -8.27262)
(145.109 21.1684 19.4145)
(153.312 22.1545 4.03627)
(149.492 32.7937 -0.83835)
(152.147 28.3225 -15.1728)
(149.609 17.9865 5.99913)
(137.337 8.96521 -2.15964)
(145.785 6.71397 -7.45355)
(150.719 9.67529 -21.8324)
(149.91 -0.275619 -3.12932)
(143.076 -2.66073 4.97024)
(151.416 17.5099 13.3744)
(139.768 4.25855 29.5641)
(137.926 37.4599 32.3853)
(131.211 11.768 24.239)
(145.043 12.5849 33.5516)
(141.34 4.06582 37.3738)
(140.483 13.1227 45.974)
(129.481 6.0513 53.9851)
(136.337 16.4283 30.3226)
(136.628 5.93413 48.1385)
(127.577 15.3127 39.0678)
(133.645 1.29891 19.2994)
(131.4 9.17002 45.1035)
(122.663 1.94493 56.1639)
(134.947 -10.9018 61.0322)
(133.481 -12.5867 54.2617)
(134.761 0.413992 40.2)
(139.034 8.6315 52.3904)
(134.984 -0.707838 36.6559)
(130.101 -11.9667 32.5194)
(120.272 -7.65911 58.323)
(122.641 11.3148 81.8636)
(117.358 36.1359 48.2022)
(117.4 11.5545 54.4264)
(116.913 -2.89931 45.3719)
(122.88 31.0737 26.2186)
(114.771 42.6519 34.3323)
(114.848 33.0232 28.1165)
(116.261 39.4679 12.9133)
(122.864 49.0498 18.2055)
(118.659 38.4015 9.85213)
(112.57 10.5756 18.82)
(112.663 34.508 9.07976)
(113.791 36.1514 42.5671)
(108.424 34.2489 46.8853)
(114.146 50.3327 12.9654)
(115.629 27.2605 -1.52897)
(114.751 4.1585 19.2934)
(107.894 -0.232756 43.8092)
(106.511 -4.24186 58.6129)
(113.991 -24.7404 53.3995)
(107.933 -22.5512 43.9335)
(114.01 -30.9287 22.7478)
(114.88 -35.9616 27.2364)
(108.666 -23.8895 6.3058)
(111.223 -22.297 -0.0766114)
(105.326 7.74762 27.9296)
(109.928 -22.6872 15.6094)
(107.316 -38.3541 4.67476)
(108.981 -20.0873 9.64776)
(113.722 -12.5292 15.9103)
(118.477 1.1172 33.0421)
(118.304 5.3725 -0.466177)
(113.644 1.38527 -10.5106)
(112.196 -27.2404 11.9746)
(114.939 -6.18678 17.2055)
(111.233 -0.380171 22.0023)
(115.219 2.59555 10.4954)
(119.447 13.6691 18.3228)
(110.695 -15.1174 29.0678)
(112.234 -34.4232 3.58183)
(109.119 -29.6454 12.3931)
(107.291 -9.69397 -4.32312)
(104.272 4.97588 5.53264)
(102.963 23.8667 34.2441)
(96.7519 1.31808 16.7454)
(95.3826 31.4208 17.2231)
(96.8935 29.0061 25.8223)
(95.9046 30.4881 36.9101)
(96.284 28.9321 31.5372)
(89.4492 42.0057 6.83372)
(97.9704 36.7501 9.04659)
(94.3604 15.5507 29.2747)
(98.5446 36.2754 9.66588)
(93.4855 37.9709 42.8304)
(92.2811 -10.1533 15.6212)
(94.0654 -28.6649 6.54492)
(99.6779 -17.997 -33.6857)
(94.7091 -10.7236 -33.5097)
(93.5635 -1.32218 5.80738)
(96.7049 -1.16298 -42.9842)
(100.577 -2.90184 -46.3967)
(94.3528 25.3757 -48.476)
(94.2163 7.42099 5.87526)
(97.2033 0.569457 -11.5907)
(93.4802 -5.54662 -13.0333)
(93.3965 15.3146 -15.1917)
(87.3949 -11.528 22.9775)
(83.0796 -2.8498 40.7268)
(80.4477 15.7072 25.4113)
(86.0346 34.2432 14.2718)
(85.7466 53.9862 11.5207)
(85.2728 33.4244 26.1612)
(95.3558 36.558 18.3928)
(92.3339 22.1931 37.0088)
(85.9272 -2.65236 9.32705)
(89.923 33.0502 -3.62389)
(85.841 33.5311 -12.6912)
(85.0309 42.8844 -30.0598)
(81.1505 22.4874 -41.3071)
(83.5832 13.1535 -29.9018)
(80.1608 57.3135 -38.1388)
(77.1651 60.283 -13.3619)
(81.2039 72.1635 -26.8285)
(74.1342 51.5566 -2.45709)
(75.7481 27.3422 -15.7211)
(71.267 47.7361 -31.0215)
(73.8921 34.6722 -43.8946)
(69.3761 55.6457 -28.627)
(65.8766 50.494 -16.1868)
(69.8053 30.6782 -57.5988)
(70.0032 37.3221 -32.2789)
(68.2924 42.8375 -20.7524)
(64.9429 25.5118 -32.0552)
(71.2659 25.8692 -59.1274)
(70.2361 -14.6736 -26.3151)
(72.5671 41.5337 -26.2601)
(70.6413 4.3083 -36.5194)
(67.8908 -7.53518 -40.6523)
(63.369 -19.2641 -40.9222)
(57.2593 -12.4397 -33.5246)
(58.0407 -19.6535 -30.448)
(59.9049 -5.6171 -8.82581)
(55.0698 16.0482 10.1775)
(55.8781 27.2801 -8.91214)
(58.4422 29.5334 -19.5093)
(54.6271 39.1515 -38.1848)
(53.7799 50.9121 -18.1021)
(56.4182 59.1257 -40.9555)
(55.8224 76.0637 -44.2797)
(54.1057 62.3809 -8.52672)
(51.8402 58.4044 0.229964)
(50.6325 51.8432 1.66561)
(49.0797 81.2889 24.9193)
(49.7941 74.5032 35.8688)
(50.4305 79.2397 23.7758)
(49.9698 68.9631 18.313)
(49.9205 79.2156 44.0833)
(52.5846 80.5929 42.0963)
(52.4294 100.972 20.017)
(49.1889 72.4008 28.1279)
(48.0278 67.2447 20.5336)
(49.0222 67.6183 19.8276)
(50.0808 22.0709 27.7398)
(50.2798 35.088 37.3836)
(52.5882 31.4604 47.1056)
(45.6327 36.2832 60.5817)
(42.3707 30.7917 39.9545)
(42.4717 14.9262 37.0295)
(41.1089 17.8719 33.688)
(43.4811 -2.52265 90.91)
(40.1849 -7.79989 56.0885)
(40.6936 -0.848474 31.0482)
(37.9981 -13.4448 30.7317)
(36.5135 -10.0112 16.3111)
(34.5725 -7.24808 12.7987)
(33.564 2.71169 37.5366)
(32.9796 40.8589 30.6943)
(32.6147 48.4174 20.778)
(31.7099 61.3332 26.5849)
(34.9063 67.6102 16.4626)
(32.4124 55.4203 1.22516)
(30.6744 40.5771 -2.82686)
(30.7858 77.3446 -8.60287)
(29.0081 114.43 -29.5634)
(25.7774 116.121 -8.54992)
(25.6103 118.594 -19.5908)
(24.3774 89.4802 -39.2171)
(23.9886 46.8847 -48.1327)
(23.1575 46.2882 -19.1308)
(25.3106 56.8209 -23.4348)
(21.1707 70.176 -53.1013)
(17.1259 47.8202 -26.1643)
(12.1415 49.5971 -34.3927)
(11.8488 53.6398 -33.3986)
(15.0385 24.4424 -23.4909)
(15.536 47.584 -53.1413)
(12.519 23.2877 -22.3805)
(11.0285 59.3686 -47.7113)
(9.18629 47.2468 -14.7382)
(6.02642 26.6259 -11.3207)
(4.55038 32.2034 -32.4921)
(2.58752 -16.5602 6.24803)
(1.25366 -55.8898 -20.2759)
(-0.503884 -54.9826 -16.8002)
(-2.37075 -59.1388 -7.61868)
(-3.51926 -41.2564 18.4851)
(-3.32009 -48.0794 46.9163)
(-4.52642 -67.3996 58.9737)
(-5.85812 -75.8478 63.05)
(-5.29007 -43.4513 35.2236)
(-5.00755 -54.9441 21.0496)
(-3.39271 -24.4881 34.6177)
(-3.0895 -34.8208 64.308)
(-2.38592 -16.8889 29.6963)
(-1.77257 -30.4197 25.7955)
(-2.86869 -16.8454 41.2188)
(-4.43107 -32.2591 9.52138)
(-3.48471 -23.3652 36.8233)
(-5.36185 -35.5298 6.1674)
(-6.17201 -32.4517 36.5697)
(-7.40682 -24.6055 52.0733)
(-7.43884 -40.9259 32.7166)
(-6.94802 -39.1746 53.6023)
(-7.05345 -23.8321 27.2825)
(-6.26946 -5.42227 35.2927)
(-7.04658 -36.4129 35.8038)
(-7.6066 -36.6675 20.6662)
(-7.23797 -39.2919 45.8745)
(-6.2267 -38.7567 50.0908)
(-6.12399 -64.0338 35.8067)
(-5.15149 -49.4166 21.3109)
(-2.82315 -42.7427 -4.9655)
(-1.6699 -55.5644 -12.6782)
(-1.347 -68.2908 3.81493)
(-0.411696 -71.8351 -24.3674)
(-3.3249 -56.6143 -36.7745)
(-3.67732 -16.5809 24.0381)
(-3.74055 -11.983 21.6152)
(-4.49885 -6.50671 12.832)
(-5.28454 -23.5766 27.2058)
(-9.47648 -38.3655 40.4575)
(-8.83638 -61.8918 52.3816)
(-9.97565 -61.211 32.7896)
(-8.59467 -53.427 13.299)
(-7.64477 -15.1726 -13.5422)
(-9.31445 8.04088 27.2572)
(-8.47703 33.2033 6.78033)
(-9.75854 48.7054 33.8175)
(-9.57463 42.8913 46.7302)
(-10.5508 46.2249 29.5521)
(-8.89051 51.954 20.0489)
(-8.2437 38.7301 25.5685)
(-6.59296 19.5669 44.7548)
(-7.51184 67.6167 50.4408)
(-8.13243 38.2772 28.9109)
(-10.8849 63.8072 50.8504)
(-11.1873 40.4145 36.0485)
(-11.2236 31.1489 40.3092)
(-10.0459 11.7378 56.9546)
(-8.41329 42.5947 49.4675)
(-10.6759 -5.5913 37.5895)
(-9.48045 -2.41493 24.0206)
(-9.38036 -3.59962 26.9778)
(-8.51938 -13.2196 11.2871)
(-7.69695 18.1621 46.2702)
(-8.85846 44.5548 46.2229)
(-8.41666 13.6508 51.369)
(-11.4566 -15.7464 50.577)
(-11.6674 -5.72216 25.823)
(-11.2095 7.40375 38.1201)
(-9.97351 -1.02461 54.4993)
(-9.44668 3.5034 78.2381)
(-8.3654 -7.24909 87.9755)
(-6.87522 -9.18533 108.757)
(-5.8961 0.339386 77.8349)
(-5.4043 15.2552 93.1134)
(-6.76093 27.4405 116.157)
(-6.4801 18.2839 104.096)
(-8.37549 -2.64257 102.383)
(-8.35429 -8.80323 76.2979)
(-9.34045 -15.4011 77.0249)
(-7.0537 -21.4856 77.4466)
(-6.56226 -43.2641 83.4574)
(-6.69743 -49.8447 56.7615)
(-6.32697 -36.158 55.993)
(-6.32408 -44.5957 35.7973)
(-6.52608 -70.7291 61.5739)
(-6.07702 -61.1861 59.0188)
(-4.95316 -79.7044 49.7775)
(-4.20163 -69.0494 37.2506)
(-5.25195 -99.4636 18.6614)
(-6.77613 -100.441 -0.232498)
(-7.65612 -85.8957 -18.8877)
(-9.0338 -39.0563 23.4671)
(-8.67132 -42.3458 28.4196)
(-7.23247 -41.0173 45.6163)
(-6.84365 -38.0969 -3.80854)
(-8.64181 7.20332 -18.895)
(-9.14949 9.31525 -19.687)
(-8.64652 14.923 -16.3648)
(-6.78091 21.6652 6.97309)
(-6.87021 42.7199 -1.66349)
(-6.72502 22.6619 44.3288)
(-7.60652 37.3867 45.0384)
(-4.99068 44.4938 0.610239)
(-5.76722 39.6728 -14.0563)
(-5.55241 5.48636 -4.92487)
(-4.57731 -2.96434 -26.7295)
(-4.13342 -10.5832 -15.2799)
(-2.96251 26.9555 -3.55781)
(-1.45709 46.066 -37.9902)
(-0.453885 65.4479 -60.1603)
(-0.206038 27.2418 -74.4222)
(2.72051 6.39747 -106.977)
(1.81092 -12.6831 -110.282)
(2.45298 10.378 -83.9128)
(2.96852 -31.1775 -79.5527)
(3.36222 -25.1639 -59.5532)
(2.45987 13.7758 -78.8889)
(1.62763 -15.6189 -84.8139)
(2.22664 -17.5905 -61.9656)
(0.904426 -3.31927 -6.14096)
(-0.468411 -2.53315 -20.8832)
(-0.774377 17.5705 -22.4954)
(-1.5311 36.037 -11.2922)
(-0.443215 22.0024 -9.10784)
(1.11296 19.6644 -9.08409)
(1.80933 3.50928 -20.9043)
(1.7117 0.157542 24.7868)
(0.594452 29.0162 18.5818)
(-0.3572 -2.12477 9.49869)
(-1.1586 -36.9419 -27.0873)
(-0.784173 -39.5631 -34.985)
(-1.033 -54.99 -23.1448)
(-3.232 -45.675 -20.0131)
(-3.56538 7.02772 6.55814)
(-2.90682 -31.9334 19.3035)
(-3.69673 -7.66735 5.54851)
(-4.43477 -3.37966 -2.04559)
(-2.96221 -19.9437 24.9701)
(-2.05692 4.91436 -17.7954)
(-0.825937 26.6835 -1.37477)
(-0.0608513 38.1399 -28.4714)
(-0.197859 45.8069 -16.8024)
(0.112719 33.1462 -17.4086)
(1.05312 89.5431 -32.9692)
(-0.242712 66.7225 -11.8397)
(-1.02599 58.0293 -3.66052)
(-1.51065 38.1006 26.2201)
(-1.10233 20.6725 27.0145)
(-1.22204 35.4045 -6.87385)
(-1.16087 29.8443 -1.74351)
(-1.17772 42.7947 4.94228)
(-2.76666 0.422874 18.305)
(-2.72026 -4.91554 -0.149366)
(-2.03382 34.6402 4.82272)
(-3.3756 21.6302 12.642)
(-3.25262 25.6354 -6.54159)
(-3.15823 54.1676 -2.51821)
(-3.6887 42.5654 11.8193)
(-3.88082 39.1448 26.5695)
(-4.24108 31.9973 1.20993)
(-4.18118 33.3093 26.7992)
(-3.83984 34.156 18.5969)
(-4.10417 48.3788 -14.4527)
(-3.28236 67.9545 -21.6379)
(-5.21908 64.8287 -21.5506)
(-5.02801 43.0078 -13.2534)
(-6.39157 51.1431 -20.6755)
(-7.15958 81.4667 4.45608)
(-6.40498 64.2164 -4.27973)
(-6.77063 19.5451 6.25089)
(-7.29755 15.7043 0.495772)
(-8.86563 24.4947 -43.4411)
(-8.30935 32.8264 -59.638)
(-7.14548 31.8769 -15.4055)
(-7.9474 21.2765 21.7229)
(-7.62334 46.2349 35.205)
(-6.01857 83.9603 3.52101)
(-3.95276 36.0396 -0.79556)
(-3.65307 14.4114 41.433)
(-4.70701 -0.0301157 42.9962)
(-5.0246 31.7288 33.8534)
(-5.42321 32.4986 37.7066)
(-4.2482 26.6921 27.2847)
(-4.17353 11.744 8.97233)
(-4.24753 -22.8266 -27.6432)
(-3.80218 -9.40641 -39.5952)
(-4.18454 -18.3391 4.28644)
(-6.29761 1.94943 -18.165)
(-5.84181 -11.6732 -8.89852)
(-8.40663 14.7551 -12.6867)
(-6.9665 12.2703 -29.6121)
(-6.17285 -4.50597 -29.1071)
(-5.11603 -0.375061 -27.1683)
(-5.94716 21.0019 -38.0445)
(-4.49372 61.836 -20.272)
(-3.77593 86.2219 -15.0576)
(-3.85839 81.726 -38.3646)
(-4.4732 45.5078 -7.26648)
(-3.9397 52.8389 -14.0464)
(-4.05774 55.8344 -33.2171)
(-3.80205 30.5018 -56.1447)
(-4.52389 22.1686 -66.9124)
(-6.13316 -1.02593 -93.5822)
(-8.52413 0.926952 -105.855)
(-8.05233 -4.29587 -83.0398)
(-7.40161 -4.96685 -65.3832)
(-5.62735 16.828 -50.8948)
(-4.67478 -8.99918 -35.3837)
(-1.70631 -24.8978 -48.5015)
(-1.05501 -24.6172 -12.9646)
(-0.029536 -21.4253 -12.1894)
(1.7033 -14.4801 -4.17347)
(2.69815 -16.6604 -17.1535)
(4.33904 -12.1897 9.46919)
(3.94833 -34.3081 17.9836)
(3.21738 -37.2567 21.8122)
(3.69874 -49.2359 24.3791)
(3.19385 -65.7757 3.13861)
(1.73835 -50.5864 -8.46604)
(0.830325 -56.7795 -19.9379)
(0.266513 -48.8734 -13.9424)
(0.0581068 -78.0359 -4.23533)
(-0.835685 -78.6548 -51.431)
(0.101816 -63.9846 -41.2276)
(1.67053 -87.1504 -42.6527)
(1.42971 -103.62 -23.3892)
(2.27247 -104.997 12.8486)
(1.65079 -84.5757 29.5718)
(1.50853 -101.735 62.0071)
)
;

boundaryField
{
    sides
    {
        type            symmetry;
    }
    empty
    {
        type            empty;
    }
}


// ************************************************************************* //
