/*--------------------------------*- C++ -*----------------------------------*\
  =========                 |
  \\      /  F ield         | OpenFOAM: The Open Source CFD Toolbox
   \\    /   O peration     | Website:  https://openfoam.org
    \\  /    A nd           | Version:  7
     \\/     M anipulation  |
\*---------------------------------------------------------------------------*/
FoamFile
{
    version     2.0;
    format      ascii;
    class       volScalarField;
    location    "0.00072";
    object      internalE;
}
// * * * * * * * * * * * * * * * * * * * * * * * * * * * * * * * * * * * * * //

dimensions      [1 -1 -2 0 0 0 0];

internalField   nonuniform List<scalar> 
125
(
1124.61
1019.25
1335.21
1099.32
1179.73
1026.83
1146.51
1106.56
1017.9
1195.02
1046.48
1017.27
893.7
1059.15
1099.9
1233.09
1135.85
1100.55
1044.09
960.419
1163.97
962.186
1065.74
1177.04
1166.79
1162.55
1241.61
1087.14
1210.23
1214.34
1001.4
1210.31
1241.22
1310.26
1005.2
968.106
1018.11
1078.89
1059.14
1254.61
1111.48
1295.12
1207.09
1221.46
1079.81
1050.52
1072.69
1039.16
1315.18
1166.34
1126.53
1295.92
1313.31
1152.35
1215.11
1216.92
1309.58
1130.3
1066.7
1239.84
1109.44
992.582
1108.2
1199.13
1059.64
1027.64
1082.26
1158.77
1221.23
1201.84
1113.94
1129.33
950.499
1105.57
1151.28
931.066
1008.6
898.487
1217.54
1092.02
1186.4
1063.58
972.448
990.063
1336.15
1102.11
1201.57
1146.6
1234.83
1206.97
1183.12
1177.13
1140.65
1076.94
1166.67
1159.04
1035.37
1020.69
1018.83
1161.39
1155.76
1238.62
1151.42
957.857
1092.77
1032.25
1171.71
946.049
1219.33
1118.05
1317.42
1110.36
1077.38
1111.42
1106.16
1196.28
1123.84
1060.6
1272.27
1087.59
1082.81
1066.37
1002.47
1081.45
1103.17
)
;

boundaryField
{
    sides
    {
        type            symmetry;
    }
    empty
    {
        type            empty;
    }
    procBoundary0to1
    {
        type            processor;
        value           uniform 1014.16;
    }
}


// ************************************************************************* //
