/*--------------------------------*- C++ -*----------------------------------*\
  =========                 |
  \\      /  F ield         | OpenFOAM: The Open Source CFD Toolbox
   \\    /   O peration     | Website:  https://openfoam.org
    \\  /    A nd           | Version:  7
     \\/     M anipulation  |
\*---------------------------------------------------------------------------*/
FoamFile
{
    version     2.0;
    format      ascii;
    class       volVectorField;
    location    "0.00072";
    object      momentum;
}
// * * * * * * * * * * * * * * * * * * * * * * * * * * * * * * * * * * * * * //

dimensions      [1 -2 -1 0 0 0 0];

internalField   nonuniform List<vector> 
125
(
(-0.0270179 0.0206176 0.0371917)
(0.219533 0.0438809 0.168947)
(-0.0153057 0.0503005 -0.024868)
(0.145571 0.0389858 -0.0293958)
(0.193515 0.0554655 -0.23342)
(-0.00122529 0.115807 -0.096176)
(-0.240912 -0.137188 -0.0221217)
(0.0716431 -0.158436 -0.00982384)
(-0.0196775 0.00985691 -0.106602)
(0.0523626 0.0430661 0.0960737)
(0.00603544 -0.11811 -0.0309636)
(0.0190801 0.0992956 -0.015599)
(-0.0670734 0.145325 0.0325442)
(-0.068349 0.214381 -0.130364)
(0.107311 0.0855413 0.0190405)
(-0.148985 -0.143951 -0.00300488)
(0.0132644 -0.0916111 0.0486204)
(0.0369075 -0.10824 0.0551316)
(0.0358161 -0.140119 0.204149)
(-0.141726 0.0639042 -0.00888567)
(0.230051 -0.0681421 -0.0275452)
(-0.123523 0.0502686 0.0869124)
(0.166412 0.169716 0.103645)
(-0.154316 -0.0507846 -0.193423)
(0.0578424 0.181124 0.243246)
(-0.0385347 0.11698 -0.00678835)
(0.400069 0.00645102 0.0434876)
(-0.129196 -0.0912057 0.219384)
(-0.322618 0.202208 -0.0183236)
(0.0411017 0.0414618 -0.0621189)
(0.140716 0.0330212 0.160631)
(0.243028 -0.0783353 -0.250173)
(-0.0474118 -0.152299 -0.0793446)
(-0.161639 0.209921 -0.190451)
(-0.00287637 -0.0697743 -0.125683)
(0.0994905 0.0288004 -0.138572)
(-0.208379 0.15116 -0.000272837)
(-0.141652 0.058367 0.0827252)
(0.174712 -0.0432803 -0.0567789)
(-0.14422 0.104898 -0.105361)
(0.000253196 0.165977 -0.0498853)
(0.152414 -0.17135 -0.299079)
(-0.158051 -0.0246271 0.0858969)
(-0.0303419 -0.0655696 0.0743585)
(0.0283593 0.10884 -0.000837321)
(-0.133636 0.24585 0.0175248)
(0.0820426 0.407126 0.0295805)
(0.249237 0.362399 0.022654)
(0.0863866 -0.0194244 -0.00607016)
(0.0185723 0.04266 -0.0436385)
(0.0143888 0.131161 0.116992)
(0.000219008 0.150434 -0.241422)
(-0.298561 0.068637 -0.256268)
(0.310474 -0.179462 0.0497634)
(-0.182294 -0.403493 0.0629784)
(-0.259447 0.0461624 -0.0713966)
(-0.120569 -0.0445018 -0.0934887)
(0.0516477 0.105161 -0.0860041)
(-0.218595 -0.0991354 0.0562826)
(0.136623 0.0645681 0.209223)
(0.095205 -0.0618847 0.100835)
(-0.283346 -0.120933 0.0952152)
(0.096162 -0.0977266 0.0737002)
(0.015818 -0.204884 -0.0778893)
(-0.0281188 0.201627 -0.334123)
(0.0850517 -0.302665 0.132794)
(0.184375 0.146772 -0.00648305)
(0.0375321 -0.0576681 0.0651707)
(-0.138001 -0.0906419 -0.338796)
(-0.0458494 0.168154 -0.0749363)
(0.0962475 -0.263473 -0.141499)
(0.182641 0.000771648 -0.0602291)
(-0.0770427 0.11149 -0.0464267)
(0.164724 -0.183822 -0.0709509)
(0.0444615 -0.29963 0.107731)
(-0.124123 -0.0467714 -0.113342)
(0.103906 -0.0796461 -0.166945)
(0.153827 -0.0810081 0.0588157)
(-0.0894249 0.139857 0.0197675)
(0.302178 0.0360712 0.255396)
(-0.0431386 0.0737878 0.208536)
(0.149581 -0.0504003 0.0842)
(-0.103123 0.121613 0.0556764)
(-0.224843 0.0466733 0.232874)
(-0.0348432 -0.00497105 0.0113285)
(-0.00860238 -0.118548 0.19491)
(-0.0921274 0.0910572 0.276874)
(0.150837 0.286233 0.0258284)
(0.0684056 0.00984651 0.105286)
(0.0194432 -0.14593 -0.0552754)
(0.12098 0.0114844 0.00945904)
(-0.0398481 0.109486 0.212027)
(-0.0105141 -0.0156872 0.0185574)
(-0.103483 -0.171386 -0.00627875)
(-0.195938 -0.221386 0.0676063)
(-0.0149568 -0.082681 0.0359298)
(0.0645706 0.126534 0.197657)
(0.074845 0.0253425 0.0145856)
(-0.0563505 0.00179219 -0.0153472)
(-0.0208151 0.0566357 -0.0314642)
(-0.0333301 0.148943 0.18211)
(-0.105912 0.00273335 -0.367208)
(-0.0157557 0.159324 0.140336)
(-0.144754 0.113111 -0.0261687)
(0.00903292 0.0352303 -0.156177)
(-0.0763907 -0.397946 -0.311328)
(-0.213468 0.0377428 -0.208)
(-0.0328636 0.113118 -0.153483)
(0.00848414 -0.0590392 0.0290514)
(0.137295 -0.114311 0.179676)
(0.0620391 0.110257 0.0431022)
(0.0506811 0.058019 -0.111622)
(-0.0504787 -0.164883 -0.116899)
(-0.016874 0.243629 -0.0134288)
(-0.0201258 0.128453 0.0438368)
(0.0513135 -0.166289 -0.0085377)
(-0.0879158 -0.148575 0.044562)
(-0.123595 -0.219211 -0.0599479)
(-0.0501561 0.133704 -0.226097)
(-0.0670475 -0.169875 0.12299)
(-0.0180271 -0.0249085 -0.032954)
(0.222963 -0.0257674 -0.0626384)
(0.0146158 -0.0159476 -0.0344269)
(-0.00641874 -0.0455852 -0.0655937)
(0.115887 0.132809 0.0293521)
)
;

boundaryField
{
    sides
    {
        type            symmetry;
    }
    empty
    {
        type            empty;
    }
    procBoundary0to1
    {
        type            processor;
        value           uniform (-0.0288654 -0.105924 -0.0897107);
    }
}


// ************************************************************************* //
