/*--------------------------------*- C++ -*----------------------------------*\
  =========                 |
  \\      /  F ield         | OpenFOAM: The Open Source CFD Toolbox
   \\    /   O peration     | Website:  https://openfoam.org
    \\  /    A nd           | Version:  7
     \\/     M anipulation  |
\*---------------------------------------------------------------------------*/
FoamFile
{
    version     2.0;
    format      ascii;
    class       volScalarField;
    location    "0.002";
    object      dsmcSigmaTcRMax;
}
// * * * * * * * * * * * * * * * * * * * * * * * * * * * * * * * * * * * * * //

dimensions      [0 3 -1 0 0 0 0];

internalField   nonuniform List<scalar> 
1000
(
8.89297e-16
9.10112e-16
9.07073e-16
9.32433e-16
8.84034e-16
8.73445e-16
8.80993e-16
9.20531e-16
9.09741e-16
9.06619e-16
9.20101e-16
9.08507e-16
8.92026e-16
8.94e-16
8.93934e-16
9.11287e-16
9.30638e-16
9.32686e-16
9.1803e-16
9.89653e-16
9.58698e-16
9.13609e-16
9.14218e-16
9.09905e-16
8.94895e-16
9.30549e-16
8.9234e-16
8.9901e-16
9.41699e-16
9.32446e-16
9.36079e-16
9.59201e-16
9.51331e-16
8.95828e-16
9.25072e-16
9.52337e-16
9.16717e-16
9.13249e-16
9.50723e-16
9.31441e-16
8.77345e-16
8.89934e-16
9.34404e-16
8.88982e-16
9.10545e-16
8.68191e-16
8.89806e-16
9.204e-16
9.08631e-16
9.06619e-16
9.18206e-16
9.09265e-16
8.93985e-16
8.90707e-16
8.8022e-16
8.8271e-16
8.79034e-16
9.27652e-16
9.31985e-16
9.08449e-16
9.21027e-16
9.15731e-16
8.91758e-16
8.8992e-16
9.31469e-16
9.23117e-16
9.21983e-16
8.9992e-16
9.06183e-16
9.82849e-16
8.98556e-16
9.16062e-16
8.85784e-16
9.11779e-16
8.87564e-16
9.00226e-16
8.6797e-16
9.33167e-16
8.94624e-16
9.29771e-16
8.95009e-16
9.61096e-16
9.23133e-16
9.78539e-16
8.98458e-16
8.7759e-16
9.24686e-16
9.24174e-16
9.07865e-16
9.01014e-16
8.85719e-16
8.98313e-16
9.25634e-16
9.0892e-16
9.29869e-16
8.78065e-16
9.20527e-16
9.09259e-16
9.14034e-16
9.24408e-16
8.84985e-16
9.1225e-16
9.25172e-16
9.4984e-16
9.21366e-16
9.41086e-16
8.88878e-16
9.4158e-16
8.69757e-16
9.51035e-16
9.11196e-16
8.88371e-16
9.03455e-16
8.81549e-16
9.77262e-16
8.87728e-16
8.81548e-16
9.27112e-16
8.80593e-16
9.58703e-16
8.84074e-16
8.89764e-16
9.10945e-16
9.00585e-16
9.01043e-16
8.90685e-16
8.97812e-16
8.96505e-16
9.27213e-16
8.97396e-16
8.8648e-16
9.13576e-16
9.23894e-16
9.38489e-16
8.78545e-16
9.11515e-16
9.18973e-16
9.06233e-16
9.36914e-16
8.9906e-16
8.92569e-16
8.72308e-16
9.09215e-16
8.91314e-16
9.25314e-16
9.01365e-16
8.85757e-16
9.29062e-16
9.09318e-16
9.09974e-16
9.24577e-16
9.13684e-16
9.27558e-16
8.86138e-16
9.67365e-16
8.85361e-16
8.96386e-16
8.90004e-16
9.04128e-16
8.80495e-16
9.20987e-16
9.1241e-16
9.45575e-16
8.95669e-16
9.30506e-16
8.98452e-16
9.19708e-16
9.1581e-16
8.96732e-16
9.17873e-16
9.57923e-16
9.55451e-16
8.77923e-16
9.17387e-16
9.14999e-16
8.91644e-16
9.63268e-16
9.13678e-16
8.91521e-16
9.32605e-16
9.35683e-16
9.03285e-16
8.84693e-16
8.92199e-16
9.01871e-16
9.18778e-16
9.16633e-16
8.9454e-16
8.95277e-16
9.20037e-16
9.17489e-16
8.97458e-16
9.15693e-16
8.80178e-16
8.95642e-16
9.15013e-16
9.45188e-16
9.24622e-16
8.77645e-16
9.20266e-16
9.23708e-16
8.95294e-16
8.87587e-16
9.007e-16
8.82182e-16
9.12081e-16
9.37093e-16
9.19182e-16
8.84822e-16
9.01256e-16
8.87511e-16
9.07632e-16
9.0162e-16
8.96801e-16
9.27604e-16
8.84896e-16
9.09766e-16
9.0649e-16
8.88738e-16
8.77584e-16
9.36878e-16
9.04399e-16
9.26922e-16
9.06853e-16
9.24737e-16
8.84394e-16
8.94567e-16
9.27065e-16
9.26415e-16
8.9693e-16
9.05123e-16
9.22185e-16
8.9176e-16
8.95195e-16
9.22468e-16
9.54634e-16
9.23171e-16
9.18847e-16
9.14337e-16
9.02841e-16
9.22552e-16
8.85025e-16
9.04628e-16
9.1646e-16
9.12918e-16
9.1498e-16
9.42291e-16
9.21921e-16
8.98776e-16
9.40999e-16
9.1847e-16
9.16874e-16
9.01696e-16
8.99882e-16
9.33078e-16
9.34259e-16
8.89633e-16
8.96707e-16
9.39504e-16
9.30537e-16
9.35464e-16
9.15231e-16
9.12171e-16
9.42887e-16
9.27164e-16
9.04951e-16
8.92975e-16
9.2677e-16
8.91995e-16
8.86185e-16
8.96911e-16
8.96056e-16
9.34671e-16
8.99074e-16
8.98894e-16
8.84607e-16
8.91468e-16
9.33307e-16
9.15353e-16
9.05013e-16
9.18995e-16
9.1122e-16
9.11558e-16
9.02046e-16
9.24356e-16
9.49319e-16
9.47736e-16
9.0467e-16
8.71658e-16
9.206e-16
8.91531e-16
9.31199e-16
9.14447e-16
9.20121e-16
9.05041e-16
8.88527e-16
9.265e-16
9.07014e-16
8.79631e-16
9.11353e-16
8.93719e-16
9.1921e-16
9.08941e-16
9.21853e-16
8.88188e-16
8.9073e-16
9.33804e-16
9.47556e-16
9.65875e-16
9.46917e-16
8.77737e-16
9.1432e-16
8.83233e-16
9.00892e-16
9.01452e-16
8.99902e-16
8.91377e-16
9.01508e-16
8.78505e-16
8.86933e-16
9.281e-16
8.88147e-16
9.22265e-16
9.38181e-16
8.89162e-16
9.25497e-16
8.97667e-16
9.09814e-16
8.78511e-16
8.98871e-16
9.15305e-16
9.22829e-16
9.01188e-16
8.94621e-16
9.17096e-16
8.9594e-16
9.0799e-16
8.88994e-16
8.95285e-16
8.83839e-16
9.01722e-16
9.36205e-16
9.0861e-16
9.35109e-16
9.04455e-16
8.7633e-16
9.4471e-16
9.15896e-16
9.17023e-16
9.19333e-16
9.15675e-16
8.92255e-16
8.71136e-16
8.87507e-16
9.42252e-16
8.96155e-16
8.80191e-16
9.84506e-16
9.05609e-16
8.85643e-16
9.29364e-16
9.3309e-16
9.26827e-16
8.9136e-16
9.36558e-16
9.31237e-16
9.17935e-16
9.15185e-16
9.20745e-16
8.92695e-16
9.30593e-16
9.24206e-16
9.05432e-16
8.72054e-16
8.92021e-16
9.02282e-16
9.57469e-16
9.46665e-16
8.80601e-16
9.42079e-16
9.10361e-16
8.66713e-16
9.1117e-16
9.19077e-16
9.28619e-16
9.2094e-16
9.16787e-16
9.21294e-16
8.83306e-16
8.9936e-16
8.95182e-16
9.33662e-16
9.21615e-16
8.82945e-16
8.76583e-16
8.82552e-16
9.22656e-16
9.20672e-16
9.03319e-16
9.01759e-16
9.09156e-16
9.02187e-16
9.34252e-16
8.94879e-16
8.96137e-16
8.84345e-16
9.01127e-16
9.02887e-16
8.78664e-16
9.25983e-16
9.18943e-16
9.05197e-16
9.37583e-16
8.71407e-16
8.94577e-16
9.00252e-16
9.09432e-16
8.9435e-16
8.9792e-16
9.41095e-16
9.04152e-16
8.82468e-16
9.18587e-16
8.72979e-16
8.8413e-16
9.23019e-16
8.84918e-16
8.78079e-16
8.7117e-16
8.90895e-16
9.19829e-16
9.31483e-16
9.03659e-16
8.90773e-16
8.9375e-16
9.00322e-16
8.78427e-16
9.27397e-16
8.75597e-16
8.7521e-16
8.77038e-16
8.85924e-16
8.82657e-16
9.08978e-16
8.95801e-16
8.9778e-16
8.85039e-16
9.58074e-16
8.85328e-16
8.80262e-16
8.70908e-16
8.76019e-16
8.88528e-16
8.74167e-16
8.91567e-16
8.72072e-16
8.73814e-16
8.70499e-16
8.89201e-16
8.92441e-16
8.53278e-16
9.22984e-16
8.86064e-16
8.91337e-16
9.23345e-16
8.71808e-16
9.08057e-16
8.98595e-16
8.94405e-16
8.83448e-16
8.69386e-16
9.30354e-16
8.70329e-16
8.98441e-16
9.19487e-16
9.32091e-16
8.79799e-16
8.63542e-16
8.86158e-16
8.77412e-16
8.59197e-16
8.62781e-16
9.31744e-16
8.80779e-16
8.6046e-16
8.38715e-16
8.93124e-16
8.51994e-16
8.51484e-16
8.50643e-16
8.49133e-16
8.74581e-16
8.5419e-16
8.69712e-16
8.33065e-16
8.12946e-16
8.20602e-16
8.49404e-16
8.44303e-16
8.02535e-16
8.09081e-16
8.26616e-16
7.98028e-16
8.32165e-16
8.12767e-16
7.87357e-16
8.43162e-16
7.98419e-16
7.98488e-16
8.17264e-16
8.50199e-16
8.09859e-16
8.51716e-16
8.48139e-16
8.2029e-16
8.24326e-16
7.99324e-16
8.01054e-16
8.31509e-16
8.28808e-16
8.0306e-16
8.19707e-16
7.70551e-16
8.03141e-16
7.98066e-16
7.87023e-16
8.52113e-16
8.28988e-16
8.06198e-16
8.00716e-16
8.20092e-16
8.24399e-16
7.8575e-16
8.07652e-16
8.19969e-16
7.92606e-16
8.71022e-16
8.22463e-16
8.2414e-16
8.25789e-16
7.8513e-16
8.09858e-16
7.91808e-16
8.00418e-16
8.51894e-16
8.2659e-16
8.32837e-16
7.70767e-16
8.20173e-16
7.68842e-16
7.95801e-16
7.83275e-16
8.12253e-16
7.89163e-16
8.03592e-16
8.02028e-16
7.97862e-16
7.71334e-16
7.96534e-16
7.87842e-16
7.88292e-16
8.05392e-16
8.13675e-16
7.88184e-16
8.27665e-16
8.19531e-16
7.43555e-16
8.00432e-16
7.65801e-16
8.05987e-16
7.56963e-16
7.59326e-16
7.60744e-16
7.41689e-16
8.23848e-16
7.72089e-16
7.81577e-16
7.30583e-16
7.30643e-16
7.16825e-16
7.90906e-16
7.45708e-16
7.37294e-16
7.43774e-16
7.20633e-16
7.65567e-16
7.50289e-16
7.67342e-16
7.17518e-16
7.78638e-16
7.51639e-16
7.47018e-16
7.32353e-16
7.7278e-16
7.09981e-16
7.73697e-16
7.68278e-16
7.52163e-16
7.21541e-16
7.06887e-16
7.21618e-16
7.16768e-16
7.39993e-16
7.13466e-16
7.04591e-16
7.17463e-16
7.81842e-16
6.98429e-16
7.1533e-16
7.02082e-16
7.05068e-16
7.41034e-16
7.5466e-16
7.32313e-16
7.32067e-16
6.92989e-16
6.93726e-16
7.01055e-16
7.14643e-16
7.21472e-16
7.21343e-16
7.083e-16
7.35178e-16
6.98311e-16
7.08622e-16
7.11188e-16
6.82209e-16
6.84039e-16
6.59334e-16
6.85391e-16
6.64508e-16
6.75272e-16
6.65539e-16
6.31982e-16
6.52945e-16
6.01445e-16
6.57445e-16
6.44164e-16
6.69839e-16
6.3143e-16
6.6311e-16
6.66518e-16
6.35997e-16
6.69618e-16
6.09862e-16
6.30306e-16
6.0545e-16
6.2596e-16
6.67e-16
6.81945e-16
6.31757e-16
6.18126e-16
6.42604e-16
6.51506e-16
6.64826e-16
6.62696e-16
6.40083e-16
6.40749e-16
6.18972e-16
6.60234e-16
6.60052e-16
6.27934e-16
6.35613e-16
6.4284e-16
6.41648e-16
6.3206e-16
6.25796e-16
6.53901e-16
6.45756e-16
6.38077e-16
6.32892e-16
6.13287e-16
6.37212e-16
6.50271e-16
6.56982e-16
6.75463e-16
6.64804e-16
6.32791e-16
6.06105e-16
6.44654e-16
6.23883e-16
6.43194e-16
6.26647e-16
6.74965e-16
6.49414e-16
6.18148e-16
6.35263e-16
6.23389e-16
6.43653e-16
6.57985e-16
6.56648e-16
6.59717e-16
6.48834e-16
6.30943e-16
6.06792e-16
6.3048e-16
6.65925e-16
6.07184e-16
6.16484e-16
6.61649e-16
6.30193e-16
6.07535e-16
6.56222e-16
6.52417e-16
6.29768e-16
6.14629e-16
6.76339e-16
6.34262e-16
6.17431e-16
6.39017e-16
6.06332e-16
6.45619e-16
6.36063e-16
6.00795e-16
6.33172e-16
6.28456e-16
6.47284e-16
6.43846e-16
6.7643e-16
6.33688e-16
6.06584e-16
6.17768e-16
6.09346e-16
6.36931e-16
6.17658e-16
6.52885e-16
6.54675e-16
6.23564e-16
6.926e-16
6.46103e-16
6.37434e-16
6.26761e-16
6.37656e-16
6.17528e-16
6.20276e-16
6.60048e-16
6.48661e-16
6.61514e-16
6.15082e-16
6.55605e-16
6.13346e-16
6.17127e-16
6.5993e-16
6.25716e-16
6.34172e-16
6.18235e-16
6.61837e-16
6.24976e-16
6.3086e-16
6.35354e-16
6.41087e-16
6.60773e-16
6.40969e-16
6.38511e-16
6.70729e-16
6.26465e-16
6.71492e-16
6.61946e-16
6.23545e-16
6.76776e-16
6.18606e-16
6.55391e-16
6.44807e-16
6.29984e-16
6.64509e-16
6.50631e-16
6.67522e-16
6.40201e-16
6.18052e-16
6.42162e-16
6.14386e-16
6.34038e-16
6.74448e-16
5.91044e-16
6.71317e-16
6.24456e-16
6.36001e-16
6.40811e-16
6.2904e-16
6.46123e-16
6.39083e-16
6.20946e-16
6.5468e-16
6.52494e-16
6.60828e-16
6.44091e-16
6.40256e-16
6.59857e-16
6.2383e-16
6.44326e-16
6.81734e-16
6.40985e-16
6.28507e-16
6.29977e-16
6.72933e-16
6.36737e-16
6.02051e-16
6.84854e-16
6.74031e-16
6.40628e-16
6.50846e-16
6.2871e-16
6.26758e-16
6.55638e-16
6.70263e-16
6.34069e-16
6.27638e-16
6.26312e-16
6.4568e-16
6.16919e-16
6.88675e-16
6.5928e-16
6.39623e-16
6.03435e-16
6.25872e-16
6.51813e-16
6.26253e-16
6.34818e-16
6.47363e-16
6.52273e-16
6.2425e-16
6.30293e-16
6.96615e-16
6.09233e-16
6.18176e-16
7.17543e-16
6.31539e-16
6.05454e-16
6.8744e-16
6.21085e-16
6.58704e-16
6.75237e-16
6.54061e-16
6.26122e-16
6.56316e-16
6.45421e-16
6.26601e-16
6.30397e-16
6.36238e-16
6.43077e-16
6.46405e-16
6.50553e-16
6.4128e-16
6.28166e-16
6.61538e-16
6.24116e-16
6.52496e-16
6.70743e-16
6.41838e-16
6.44438e-16
6.27534e-16
6.33532e-16
6.27055e-16
6.64514e-16
6.73841e-16
6.55359e-16
6.28019e-16
6.24867e-16
6.30678e-16
6.4216e-16
6.42162e-16
6.20606e-16
6.35011e-16
6.6486e-16
6.17762e-16
6.06942e-16
6.84943e-16
6.66803e-16
6.19158e-16
6.3503e-16
6.42372e-16
6.12902e-16
6.24793e-16
6.11158e-16
6.3974e-16
6.42875e-16
6.28372e-16
6.36646e-16
6.42222e-16
6.12851e-16
6.47795e-16
6.5536e-16
6.18883e-16
6.41825e-16
6.50891e-16
6.2514e-16
6.1745e-16
6.79902e-16
6.30274e-16
6.62265e-16
6.40396e-16
6.29829e-16
6.11963e-16
6.45825e-16
6.66753e-16
6.33657e-16
6.52171e-16
6.22919e-16
6.405e-16
6.29044e-16
6.599e-16
6.64715e-16
6.8796e-16
6.14269e-16
6.26386e-16
6.56899e-16
6.01221e-16
6.22606e-16
6.12915e-16
6.36309e-16
6.59822e-16
6.1638e-16
6.40061e-16
6.35242e-16
6.12299e-16
6.41093e-16
6.33163e-16
6.37481e-16
6.63658e-16
6.71388e-16
6.29559e-16
6.21237e-16
6.31403e-16
6.44428e-16
6.50754e-16
6.52644e-16
6.42114e-16
6.53169e-16
6.27426e-16
6.40602e-16
6.16239e-16
6.44273e-16
6.09588e-16
6.35222e-16
6.2772e-16
6.44977e-16
6.48246e-16
6.37055e-16
6.4195e-16
6.52122e-16
6.36775e-16
6.41543e-16
6.27054e-16
6.3936e-16
6.50939e-16
6.33842e-16
6.21037e-16
6.28871e-16
6.1522e-16
6.38501e-16
6.22532e-16
6.53641e-16
6.53981e-16
6.0792e-16
6.56956e-16
6.47667e-16
6.48434e-16
6.35754e-16
6.28573e-16
6.52263e-16
6.18022e-16
6.34254e-16
6.44745e-16
6.6863e-16
6.5267e-16
6.7047e-16
6.45122e-16
6.58834e-16
6.94106e-16
6.35254e-16
6.56563e-16
6.32976e-16
6.36466e-16
6.68857e-16
7.00026e-16
6.60408e-16
6.14469e-16
6.41658e-16
6.00827e-16
6.18501e-16
6.39681e-16
6.13173e-16
6.32562e-16
6.61283e-16
6.26271e-16
6.6401e-16
6.83169e-16
6.77131e-16
6.43059e-16
6.64508e-16
6.46389e-16
6.28607e-16
6.44845e-16
6.27841e-16
6.24822e-16
6.27503e-16
6.69161e-16
6.46192e-16
6.15647e-16
6.32033e-16
)
;

boundaryField
{
    sides
    {
        type            symmetry;
    }
    empty
    {
        type            empty;
    }
}


// ************************************************************************* //
