/*--------------------------------*- C++ -*----------------------------------*\
  =========                 |
  \\      /  F ield         | OpenFOAM: The Open Source CFD Toolbox
   \\    /   O peration     | Website:  https://openfoam.org
    \\  /    A nd           | Version:  7
     \\/     M anipulation  |
\*---------------------------------------------------------------------------*/
FoamFile
{
    version     2.0;
    format      ascii;
    class       volScalarField;
    location    "0.002";
    object      dsmcRhoNMean;
}
// * * * * * * * * * * * * * * * * * * * * * * * * * * * * * * * * * * * * * //

dimensions      [0 -3 0 0 0 0 0];

internalField   nonuniform List<scalar> 
500
(
254.829
291.162
322.139
347.096
368.907
392.469
404.558
424.231
431.083
448.473
474.322
478.308
482.099
506.588
518.538
517.565
530.85
545.104
555.383
557.51
567.802
577.702
580.14
595.994
588.928
588.015
594.884
600.136
600.135
597.498
601.161
605.413
607.46
607.251
621.656
609.833
620.306
634.598
640.363
613.577
630.765
633.657
634.818
632.682
628.656
627.151
626.944
626.901
623.705
621.937
624.976
623.96
635.529
635.598
628.724
624.402
628.081
642.836
635.171
631.048
634.189
634.004
626.223
621.085
617.774
626.527
632.499
631.149
624.03
622.931
622.524
613.841
622.314
611.175
616.481
622.026
630.187
632.526
628.364
629.694
625.744
615.011
614.209
621.867
634.093
638.634
635.023
636.393
629.784
628.382
633.806
637.744
644.207
628.544
614.998
615.682
628.712
638.255
634.039
628.394
631.268
625.083
627.454
633.042
630.923
637.511
636.197
626.97
626.6
635.975
630.851
627.915
634.603
633.887
643.218
632.471
639.418
634.442
624.214
631.275
633.037
615.765
618.597
626.177
633.579
622.609
634.641
634.097
621.544
617.034
606.448
619.017
617.364
617.033
628.376
635.289
637.831
640.046
638.525
616.883
606.95
624.908
621.962
612.321
630.735
636.797
626.967
621.831
626.789
634.638
633.325
618.842
619.072
619.263
617.679
625.952
639.504
636.177
629.077
621.512
628.793
631.557
637.389
626.821
621.902
625.55
623.578
630.992
630.935
636.998
635.779
627.161
631.438
628.162
627.013
627.17
623.276
622.001
616.84
624.069
635.583
623.15
623.875
628.838
623.344
618.126
630.391
641.437
628.279
631.502
633.893
635.37
633.889
626.945
615.238
617.912
615.677
622.667
627.304
626.029
626.894
626.734
618.311
616.392
623.4
634.942
628.583
636.34
630.988
620.341
635.942
632.676
639.625
635.622
624.841
612.36
616.836
624.5
617.008
615.594
619.644
609.186
629.038
634.26
635.476
632.547
644.62
623.092
618.944
624.15
614.633
622.7
616.867
617.093
614.875
617.987
625.989
628.552
634.074
616.058
614.298
622.189
620.485
610.57
617.676
614.558
625.103
621.588
618.462
611.571
585.994
600.273
609.078
608.338
622.721
632.579
636.269
625.51
626.085
630.763
627.365
624.152
624.173
626.027
625.307
619.798
620.795
611.565
617.154
616.194
619.981
626.683
633.875
620.543
617.246
625.656
621.201
612.085
608.968
617.161
618.017
620.024
624.603
631.432
628.208
635.118
622.526
620.909
612.801
626.939
625.741
628.281
633.8
634.687
628.037
626.224
635.311
632.897
626.537
619.394
613.191
620.641
622.781
632.319
621.099
633.837
628.733
628.18
626.004
626.609
632.094
632.709
639.107
619.378
615.968
624.591
628.251
639.214
638.576
621.186
620.766
633.737
620.907
625.312
622.996
618.007
616.118
622.183
621.811
626.527
630.538
624.828
625.915
623.285
628.546
632.214
618.993
616.085
619.087
618.269
628.193
629.582
623.091
625.001
627.824
631.819
641.304
635.674
623.18
619.792
626.704
631.133
619.884
619.919
628.257
618.285
625.856
616.112
631.044
627.306
621.841
629.814
626.981
624.942
632.128
630.825
629.152
641.062
639.133
635.263
620.199
622.915
626.026
622.025
633.963
621.166
617.119
628.566
620.159
624.767
617.784
631.431
624.2
637.579
637.346
625.175
629.086
637.463
631.396
630.026
623.629
634.743
625.428
626.907
632.238
629.599
618.381
614.867
619.889
621.095
616.155
617.26
616.632
618.342
618.251
635.063
639.02
631.853
625.541
623.053
620.823
625.211
623.11
628.052
628.704
625.645
625.566
621.12
623.338
620.458
629.415
623.705
619.238
632.4
628.349
622.398
627.152
640.241
646.171
644.121
644.291
645.355
638.176
636.358
638.763
633.217
626.381
627.627
624.016
622.399
622.475
631.33
634.889
634.33
637.84
630.921
619.205
621.365
630.386
627.557
628.222
635.72
626.161
636.936
627.246
628.167
643.581
625.341
618.376
622.879
622.602
617.584
612.087
621.369
619.377
618.259
621.266
603.642
603.905
612.124
605.255
598.282
603.947
591.745
589.642
588.917
583.911
565.464
566.173
558.324
554.254
550.026
538.683
534.334
524.451
515.467
501.8
500.705
483.46
461.329
453.174
442.966
428.895
420.933
395.835
375.526
357.528
330.662
300.721
255.543
)
;

boundaryField
{
    sides
    {
        type            calculated;
        value           nonuniform List<scalar> 2(255.543 254.829);
    }
    empty
    {
        type            empty;
    }
}


// ************************************************************************* //
