/*--------------------------------*- C++ -*----------------------------------*\
  =========                 |
  \\      /  F ield         | OpenFOAM: The Open Source CFD Toolbox
   \\    /   O peration     | Website:  https://openfoam.org
    \\  /    A nd           | Version:  7
     \\/     M anipulation  |
\*---------------------------------------------------------------------------*/
FoamFile
{
    version     2.0;
    format      ascii;
    class       volScalarField;
    location    "0.002";
    object      dsmcRhoNMean;
}
// * * * * * * * * * * * * * * * * * * * * * * * * * * * * * * * * * * * * * //

dimensions      [0 -3 0 0 0 0 0];

internalField   nonuniform List<scalar> 
1000
(
65.63
75.032
80.339
85.138
85.9865
91.147
95.094
97.485
99.9435
102.023
105.093
106.715
113.459
113.659
114.09
116.537
123.696
122.714
126.174
128.173
127.578
127.329
130.668
133.506
135.891
136.978
136.136
136.066
135.368
136.789
141.56
142.353
142.113
145.628
146.032
151.356
154.173
154.934
153.716
156.793
158.025
158.082
156.291
156.592
158.184
153.444
159.167
155.247
156.773
160.641
160.764
160.056
163.804
161.385
161.776
162.673
164.702
165.308
166.933
165.677
165.437
168.637
166.563
166.225
165.286
165.297
167.165
168.753
168.343
167.399
167.524
166.575
168.579
169.37
165.518
165.212
164.302
165.198
168.367
168.621
170.754
166.52
171.571
172.759
167.368
171.397
169.763
170.302
171.463
172.932
170.162
166.93
169.561
167.764
171.336
172.001
169.639
173.356
172.644
171.444
167.536
166.068
166.257
165.498
165.771
162.485
166.982
165.282
170.461
167.911
165.481
165.209
168.312
167.321
169.284
168.472
168.379
165.428
166.809
169.629
168.208
170.317
171.968
171.983
174.195
167.869
169.121
168.942
171.418
169.476
169.869
169.272
166.374
169.898
170.211
171.668
169.577
167.651
167.732
166.981
165.912
168.992
165.768
168.232
167.768
169.206
172.21
168.641
170.665
172.795
172.297
169.098
171.604
171.77
175.377
173.962
171.872
169.831
171.907
173.859
170.079
176.364
172.892
169.824
174.11
171.217
162.635
165.543
163.2
164.656
171.464
173.432
170.371
169.375
168.536
168.343
167.755
169.584
172.894
169.947
165.923
167.678
167.024
169.636
168.144
167.326
169.503
169.349
170.052
170.885
167.962
169.692
171.628
168.266
168.878
166.507
166.946
169.739
165.983
165.965
168.279
166.714
164.395
164.389
164.796
164.201
167.683
167.873
170.563
169.508
165.107
163.74
165.173
165.319
159.641
164.435
163.564
162.711
164.452
163.886
168.317
170.618
169.305
170.021
171.116
170.157
171.932
170.308
169.408
171.37
168.09
169.382
170.378
167.451
170.333
169.91
168.524
169.716
170.045
172.657
170.645
167.702
166.062
169.51
171.33
173.998
171.406
174.479
172.479
168.483
168.209
168.437
165.964
164.376
168.027
170.372
165.011
164.614
167.705
168.299
169.645
168.576
170.72
166.656
171.208
169.653
172.145
170.056
170.578
178.416
174.202
167.709
170.568
165.464
165.482
165.484
167.843
170.161
170.195
172.71
169.624
170.292
170.812
168.211
170.16
168.678
168.474
169.605
167.986
166.263
169.577
166.632
168.459
165.719
168.826
164.645
166.561
169.052
169.037
170.451
170.122
170.215
171.917
170.893
168.396
167.044
163.467
167.076
164.512
167.242
162.816
166.62
168.037
165.636
167.802
163.941
164.333
164.329
163.391
162.126
166.983
164.518
162.038
164.273
165.794
165.662
168.814
168.874
164.072
169.751
168.086
165.519
168.671
170.392
167.644
169.967
168.285
169.667
171.155
169.377
170.352
170.881
171.242
171.785
170.65
172.129
167.713
166.29
168.477
168.513
172.087
169.097
165.804
168.867
173.36
172.23
176.84
175.231
172.424
169.693
169.194
166.52
165.784
167.736
166.795
166.562
166.205
167.668
168.676
172.182
171.65
170.695
171.273
174.158
171.635
171.916
173.673
173.959
174.523
172.602
173.887
174.728
173.821
170.1
169.285
166.569
168.507
170.823
173.17
170.948
172.051
173.799
175.546
169.808
170.322
166.95
170.55
168.347
174.313
171.528
173.124
172.305
170.005
168.729
169.383
171.053
174.173
175.679
171.187
164.707
167.335
163.763
163.476
165.101
170.498
168.738
166.247
171.232
165.552
170.517
170.174
169.849
168.68
167.603
169.558
170.143
169.668
166.554
165.76
167.209
169.06
164.848
164.708
166.673
162.83
166.595
167.894
168.57
166.491
163.57
162.599
168.165
165.994
168.197
163.627
163.244
164.555
164.065
162.058
160.971
162.16
164.294
162.791
163.895
160.545
160.302
160.421
160.956
161.728
158.959
154.087
153.594
151.417
152.052
149.721
150.06
151.253
148.163
150.418
147.594
147.265
144.037
143.349
142.881
141.834
137.87
136.207
134.735
138.63
135.209
131.543
130.541
129.426
129.222
125.403
125.109
125.594
122.102
123.489
120.394
120.015
116.78
117.189
116.003
115.329
115.033
113.022
110.823
107.363
105.463
103.584
100.472
98.3415
94.4025
98.184
95.2915
94.044
91.587
91.0685
92.642
89.916
88.2765
86.091
86.628
82.36
83.493
83.3595
80.875
80.1695
79.056
77.881
77.7445
76.748
74.9
73.294
71.889
68.353
68.661
68.53
66.733
68.3285
66.977
67.071
66.509
67.1705
67.8345
68.445
65.6525
64.6135
65.0195
63.3975
63.8775
64.607
65.112
63.9105
61.882
62.171
59.908
61.8805
61.7875
61.8055
60.9055
59.704
58.5255
58.204
57.952
58.704
58.9345
59.2455
59.7735
61.903
62.259
59.534
61.015
57.5255
58.6515
61.8875
59.95
55.82
55.4065
57.1375
54.083
54.314
52.326
50.5895
51.3095
52.57
50.2685
50.0695
50.717
51.3255
51.132
49.117
49.4535
48.241
48.883
50.8835
48.9525
49.9985
50.63
48.9
50.794
51.1825
49.165
48.9555
48.076
49.1525
49.1745
48.5985
49.132
49.751
50.8915
51.0445
52.119
51.3425
51.0165
50.68
50.387
47.242
46.6075
48.612
50.4045
50.219
50.6345
49.1655
47.356
48.7135
50.3135
49.812
48.69
48.7255
51.717
53.4875
51.175
51.7785
51.401
50.502
51.2765
48.3285
48.1015
48.031
49.0445
47.5495
48.5375
47.6415
47.9595
48.0905
46.786
49.1605
49.5375
50.936
49.5295
49.5605
50.0245
47.7875
49.474
49.9055
49.2385
49.0235
47.5745
47.8605
49.414
48.992
47.7985
47.4045
49.347
48.6505
47.2545
47.781
47.371
48.054
47.8985
49.1355
49.99
49.114
50.688
48.6795
49.92
48.905
48.6875
49.05
47.963
48.917
49.408
50.0325
50.152
48.809
49.7295
51.0305
49.6265
52.4335
51.275
52.675
51.9015
50.6365
48.525
48.6585
51.274
52.8025
50.4695
51.2165
48.5985
48.729
48.826
48.1555
49.114
48.9035
49.6875
48.9715
49.398
50.727
49.7785
49.0945
49.336
49.1695
49.8595
51.1885
49.3305
49.2395
50.12
49.6515
47.6135
48.4405
48.378
48.815
46.744
47.2745
49.571
50.177
49.3915
48.1085
47.5955
47.5415
49.1505
46.7445
45.5635
47.2895
48.351
47.665
47.8565
49.2395
49.298
52.322
51.9335
52.9105
49.596
51.456
50.273
50.842
51.5475
50.6605
50.3435
50.3565
47.837
49.8765
48.9745
50.7
51.476
48.844
46.991
48.665
48.5285
47.6025
48.581
49.028
50.651
48.222
48.6685
50.11
49.3815
48.8235
48.054
51.381
49.7225
50.115
49.041
49.2095
49.109
48.919
46.916
47.0515
46.7395
48.847
45.2125
46.1435
45.7535
47.341
48.5105
47.672
46.9615
47.026
46.736
46.9285
49.4215
51.4545
49.87
49.869
49.905
49.383
49.895
48.5105
48.077
47.263
48.7055
47.812
47.281
47.8725
46.8345
49.458
47.6485
48.142
49.036
50.357
48.063
47.1955
47.343
46.7965
45.4515
47.2155
47.191
47.7085
48.062
48.5555
46.5835
47.0455
47.3875
46.3345
47.1515
47.679
48.015
48.1705
49.933
50.5085
49.445
50.9055
51.333
50.7025
50.302
49.3565
48.6025
48.8035
51.0635
49.1465
47.511
48.554
48.9305
49.678
50.273
50.081
49.535
49.9405
48.2625
48.448
49.8835
47.697
48.236
47.1055
46.5125
47.226
47.0335
46.601
46.7155
47.8805
47.654
48.735
48.9525
49.6085
49.1105
47.873
49.0365
48.963
49.345
49.209
49.5405
48.5205
48.8495
48.4945
48.1555
49.0545
50.6645
50.5775
50.975
49.052
48.6755
47.885
49.0005
49.379
50.5525
48.5875
49.8145
51.3545
51.4475
53.2595
50.9345
50.3265
48.7045
48.017
49.4185
48.103
48.035
47.9615
49.494
50.4725
51.154
49.189
50.7145
51.8925
50.8595
50.1005
49.9755
49.9915
51.508
47.9945
50.954
51.1455
50.952
51.154
51.489
49.9665
50.0125
50.5325
50.4145
50.323
48.7735
48.239
49.679
50.43
49.892
49.92
49.875
50.828
51.7
52.173
50.835
49.095
47.606
46.728
47.9905
47.7275
46.564
47.9155
48.3815
48.2905
48.0265
46.4475
48.156
46.581
45.4205
46.8925
47.827
46.5045
47.881
47.088
45.78
46.0615
46.6625
46.253
46.3995
46.8235
46.5145
46.8725
45.1895
44.118
44.5875
44.677
45.0185
43.8055
42.3235
41.976
41.4815
41.8405
41.716
43.51
43.963
41.657
43.283
45.3885
42.3265
41.622
41.5915
40.6185
40.1505
39.8595
37.945
38.0455
37.1915
36.1125
37.3515
36.926
36.5665
36.192
36.235
34.833
32.574
34.0055
35.1585
33.3425
33.619
32.338
31.787
31.686
29.0565
28.5105
28.102
27.5055
25.9925
24.6835
23.2225
21.792
19.578
)
;

boundaryField
{
    sides
    {
        type            calculated;
        value           nonuniform List<scalar> 2(19.578 65.63);
    }
    empty
    {
        type            empty;
    }
}


// ************************************************************************* //
