/*--------------------------------*- C++ -*----------------------------------*\
  =========                 |
  \\      /  F ield         | OpenFOAM: The Open Source CFD Toolbox
   \\    /   O peration     | Website:  https://openfoam.org
    \\  /    A nd           | Version:  7
     \\/     M anipulation  |
\*---------------------------------------------------------------------------*/
FoamFile
{
    version     2.0;
    format      ascii;
    class       volScalarField;
    location    "0.002";
    object      dsmcSigmaTcRMax;
}
// * * * * * * * * * * * * * * * * * * * * * * * * * * * * * * * * * * * * * //

dimensions      [0 3 -1 0 0 0 0];

internalField   nonuniform List<scalar> 
1000
(
5.96687e-16
6.06634e-16
6.29074e-16
6.19951e-16
6.0984e-16
6.34624e-16
6.12247e-16
6.20798e-16
6.32661e-16
6.96031e-16
6.42623e-16
6.3607e-16
6.49554e-16
6.43923e-16
6.75868e-16
6.65761e-16
6.34899e-16
6.62163e-16
6.40138e-16
6.58457e-16
6.45204e-16
6.75112e-16
6.38384e-16
6.47055e-16
6.83352e-16
6.44431e-16
6.72922e-16
6.78706e-16
6.31281e-16
6.81067e-16
6.49657e-16
6.38497e-16
6.44232e-16
6.57623e-16
6.53192e-16
6.55377e-16
6.49687e-16
6.49782e-16
6.71368e-16
6.4206e-16
6.44032e-16
6.64789e-16
6.63139e-16
6.91583e-16
6.63315e-16
6.66919e-16
6.79477e-16
6.61856e-16
6.835e-16
6.73063e-16
6.80974e-16
6.67123e-16
6.95029e-16
6.89896e-16
6.66841e-16
6.67276e-16
6.57326e-16
6.48416e-16
6.38066e-16
6.60169e-16
6.49766e-16
6.6052e-16
6.6683e-16
6.45931e-16
6.55455e-16
6.43436e-16
6.52726e-16
6.5015e-16
6.73432e-16
6.61996e-16
6.94793e-16
6.91094e-16
6.91657e-16
6.40156e-16
6.69987e-16
6.48791e-16
6.85487e-16
6.52967e-16
6.77739e-16
6.83545e-16
6.59408e-16
7.26232e-16
6.56428e-16
6.76636e-16
6.50313e-16
6.55638e-16
6.67467e-16
6.34775e-16
6.89117e-16
6.62809e-16
7.17179e-16
6.62286e-16
6.52519e-16
6.83551e-16
6.83164e-16
6.61105e-16
6.61709e-16
6.49337e-16
6.53009e-16
6.49681e-16
6.58462e-16
6.74039e-16
6.73937e-16
6.90219e-16
6.74637e-16
6.97405e-16
6.50927e-16
6.66158e-16
6.69547e-16
6.61016e-16
6.65631e-16
6.75658e-16
6.85519e-16
6.58752e-16
6.69928e-16
6.56178e-16
6.49105e-16
6.55875e-16
6.51927e-16
6.74094e-16
6.55911e-16
6.45123e-16
6.4232e-16
6.84284e-16
6.80637e-16
6.65136e-16
6.49327e-16
6.78284e-16
6.74935e-16
7.10338e-16
6.6985e-16
6.52283e-16
6.62796e-16
6.51924e-16
6.59776e-16
6.73837e-16
6.589e-16
6.81611e-16
6.48687e-16
6.49595e-16
7.07397e-16
6.91912e-16
6.63986e-16
7.15161e-16
6.68768e-16
6.57281e-16
6.99e-16
6.8394e-16
6.797e-16
6.7622e-16
6.78338e-16
6.71481e-16
6.69632e-16
6.43467e-16
6.69876e-16
6.87105e-16
6.6178e-16
6.72454e-16
6.79132e-16
6.54378e-16
6.38011e-16
6.96764e-16
6.67189e-16
7.19361e-16
6.61099e-16
6.59226e-16
6.6793e-16
6.73683e-16
6.73968e-16
7.18094e-16
6.59896e-16
6.74497e-16
6.74048e-16
6.68411e-16
6.51933e-16
6.64042e-16
6.66837e-16
6.49629e-16
6.50298e-16
6.75761e-16
6.55508e-16
7.1354e-16
6.58672e-16
6.88251e-16
6.83764e-16
6.42694e-16
6.64071e-16
6.64571e-16
6.66863e-16
6.60593e-16
6.52727e-16
6.66327e-16
6.72299e-16
6.81332e-16
6.72871e-16
6.54915e-16
6.84511e-16
6.76082e-16
6.88191e-16
6.54142e-16
6.56383e-16
6.95627e-16
6.79626e-16
6.60938e-16
6.73889e-16
6.64739e-16
6.55725e-16
7.0834e-16
6.58366e-16
6.69388e-16
6.63962e-16
6.65923e-16
6.51667e-16
6.75101e-16
6.49926e-16
7.02379e-16
6.4529e-16
7.18779e-16
6.56141e-16
6.63799e-16
6.63335e-16
6.21492e-16
6.81785e-16
7.36384e-16
6.56122e-16
6.70937e-16
6.61779e-16
6.47156e-16
6.49184e-16
6.73085e-16
6.81596e-16
6.57119e-16
6.67267e-16
6.66653e-16
6.77715e-16
6.9085e-16
6.92322e-16
6.62248e-16
6.95857e-16
6.62559e-16
6.79363e-16
7.21971e-16
6.42408e-16
6.32659e-16
6.37868e-16
6.65421e-16
6.73273e-16
6.61517e-16
6.64731e-16
7.17893e-16
7.11905e-16
6.66801e-16
6.42308e-16
6.34546e-16
6.77463e-16
6.48113e-16
6.66978e-16
6.51639e-16
6.51664e-16
6.71861e-16
6.40194e-16
6.59978e-16
6.76003e-16
6.50697e-16
6.50836e-16
6.6551e-16
6.90449e-16
6.6649e-16
6.42279e-16
6.84621e-16
6.40234e-16
6.51483e-16
6.4413e-16
6.84504e-16
6.72254e-16
6.80229e-16
6.45532e-16
6.58783e-16
6.63194e-16
6.4249e-16
6.49791e-16
6.72442e-16
6.41505e-16
6.58258e-16
6.47853e-16
6.61752e-16
7.21656e-16
6.69435e-16
6.57778e-16
7.40893e-16
6.76678e-16
6.69147e-16
6.8076e-16
6.70281e-16
6.74272e-16
6.67487e-16
6.48565e-16
6.55676e-16
6.6714e-16
6.71627e-16
6.60196e-16
6.51804e-16
6.35399e-16
6.43036e-16
6.73785e-16
6.7456e-16
6.48676e-16
6.60161e-16
7.06974e-16
6.97206e-16
6.54074e-16
6.74815e-16
6.71817e-16
6.75685e-16
6.81097e-16
6.52589e-16
6.78386e-16
6.70261e-16
6.54283e-16
6.76267e-16
6.44081e-16
6.78401e-16
6.91737e-16
6.67767e-16
6.64369e-16
6.61013e-16
6.78899e-16
6.74966e-16
6.76832e-16
6.71781e-16
6.74803e-16
6.86132e-16
6.54389e-16
6.72684e-16
6.84576e-16
6.49884e-16
6.6711e-16
6.64661e-16
6.57186e-16
6.46717e-16
6.93321e-16
6.48702e-16
6.48395e-16
6.87207e-16
6.54273e-16
7.5367e-16
6.63967e-16
6.89933e-16
6.46914e-16
6.53029e-16
6.79766e-16
6.53664e-16
6.88083e-16
7.01749e-16
6.71943e-16
6.47115e-16
6.66498e-16
6.7119e-16
6.98862e-16
6.60598e-16
6.64848e-16
6.77662e-16
6.52467e-16
7.07498e-16
6.6334e-16
6.76299e-16
6.85173e-16
6.89268e-16
6.76754e-16
6.57822e-16
6.88125e-16
6.65772e-16
6.70063e-16
6.59177e-16
6.5826e-16
6.9218e-16
6.64961e-16
6.53527e-16
6.38767e-16
6.66368e-16
6.54185e-16
6.74264e-16
6.64208e-16
6.65484e-16
6.79817e-16
6.94674e-16
6.53665e-16
7.07654e-16
6.83539e-16
6.4741e-16
6.58161e-16
6.56919e-16
6.61369e-16
6.71944e-16
6.90505e-16
6.59979e-16
6.43965e-16
6.44845e-16
6.72037e-16
6.68912e-16
6.6678e-16
6.65908e-16
6.97177e-16
6.67735e-16
6.62034e-16
6.42217e-16
6.66073e-16
6.57672e-16
6.53275e-16
6.52831e-16
6.57933e-16
6.68246e-16
6.58302e-16
6.73952e-16
6.30964e-16
7.04008e-16
6.95478e-16
6.69334e-16
6.65522e-16
6.51787e-16
6.6537e-16
6.68878e-16
6.69507e-16
6.47756e-16
6.59967e-16
6.76616e-16
6.69389e-16
6.62609e-16
6.68937e-16
6.59651e-16
6.74526e-16
6.71357e-16
6.8833e-16
6.44122e-16
6.56361e-16
6.82061e-16
6.64588e-16
6.68785e-16
7.45241e-16
6.44978e-16
6.5795e-16
6.63388e-16
6.48649e-16
6.90537e-16
6.65332e-16
6.59098e-16
6.94556e-16
7.05424e-16
6.56521e-16
6.69897e-16
6.71421e-16
6.39168e-16
6.69869e-16
6.88921e-16
6.55746e-16
6.71194e-16
6.47716e-16
6.61936e-16
6.49467e-16
6.37875e-16
6.56972e-16
6.71041e-16
6.55934e-16
6.69214e-16
6.64155e-16
6.51949e-16
6.55121e-16
6.85538e-16
7.0649e-16
6.62598e-16
6.55367e-16
6.54003e-16
6.58615e-16
6.84206e-16
6.4522e-16
7.03368e-16
6.38491e-16
6.66864e-16
6.98724e-16
6.76939e-16
6.54242e-16
6.56621e-16
6.40144e-16
6.45284e-16
6.25443e-16
7.13542e-16
6.59016e-16
6.31609e-16
6.40666e-16
6.53094e-16
6.83719e-16
6.5505e-16
6.23304e-16
6.18998e-16
6.54752e-16
6.3591e-16
6.16305e-16
6.53782e-16
6.28906e-16
6.31142e-16
6.16708e-16
6.16542e-16
6.26431e-16
6.27907e-16
6.15821e-16
6.14948e-16
6.3545e-16
6.10707e-16
6.30351e-16
6.2764e-16
6.48895e-16
6.54804e-16
6.58466e-16
6.48719e-16
6.41436e-16
6.48254e-16
6.25625e-16
6.49622e-16
6.38556e-16
6.62554e-16
6.71602e-16
6.47173e-16
6.12353e-16
6.8492e-16
6.33923e-16
6.69721e-16
6.49438e-16
6.35433e-16
6.44545e-16
6.74225e-16
7.34901e-16
6.49938e-16
6.71097e-16
6.56439e-16
6.51401e-16
6.48152e-16
6.62153e-16
6.513e-16
6.4542e-16
6.51716e-16
6.75087e-16
6.51577e-16
6.91828e-16
6.4988e-16
6.63874e-16
6.4961e-16
6.29975e-16
7.18628e-16
6.41609e-16
6.56585e-16
6.25529e-16
7.02752e-16
6.75145e-16
6.56255e-16
7.21912e-16
6.26731e-16
7.01645e-16
6.65192e-16
7.05781e-16
6.37069e-16
6.53414e-16
6.74333e-16
6.49605e-16
6.94679e-16
6.56177e-16
6.52647e-16
6.39019e-16
6.39552e-16
6.5456e-16
7.09418e-16
6.36551e-16
6.47976e-16
6.55676e-16
6.38806e-16
6.64844e-16
6.65426e-16
6.50728e-16
6.4542e-16
6.72832e-16
6.23605e-16
6.66939e-16
6.27592e-16
6.40408e-16
6.3655e-16
6.4159e-16
6.36796e-16
6.55251e-16
6.13554e-16
6.54826e-16
6.38128e-16
6.50271e-16
6.41479e-16
6.23711e-16
6.53731e-16
6.49372e-16
6.25365e-16
6.07382e-16
6.13855e-16
6.18286e-16
6.36643e-16
6.45538e-16
6.37219e-16
6.18994e-16
6.01766e-16
6.08143e-16
6.5408e-16
6.28317e-16
6.10661e-16
6.32688e-16
6.27852e-16
5.90196e-16
6.19313e-16
6.12227e-16
6.26346e-16
6.06864e-16
6.19109e-16
6.41688e-16
6.00436e-16
6.37955e-16
6.13566e-16
6.00673e-16
6.55975e-16
6.4789e-16
6.44803e-16
6.18485e-16
6.31961e-16
6.03221e-16
6.41626e-16
6.39233e-16
6.15112e-16
6.57605e-16
6.25939e-16
6.36902e-16
6.40072e-16
6.23801e-16
6.41281e-16
6.3288e-16
5.93572e-16
6.2211e-16
6.5319e-16
6.08443e-16
6.59524e-16
6.15085e-16
6.13035e-16
6.76501e-16
5.98248e-16
6.1032e-16
6.3228e-16
6.38952e-16
6.42692e-16
6.77266e-16
6.12364e-16
6.14322e-16
6.01771e-16
5.95782e-16
6.14072e-16
6.16665e-16
6.39363e-16
6.67814e-16
6.52849e-16
6.17738e-16
6.52242e-16
6.43532e-16
6.25729e-16
6.34577e-16
6.38055e-16
6.25241e-16
6.49686e-16
6.37637e-16
6.92727e-16
6.1278e-16
6.10148e-16
6.24504e-16
6.35995e-16
6.16863e-16
6.01004e-16
5.97965e-16
6.17249e-16
6.18006e-16
6.41686e-16
6.05161e-16
5.88813e-16
6.27262e-16
6.12217e-16
6.40877e-16
6.01127e-16
6.47863e-16
6.16869e-16
6.48104e-16
6.43113e-16
6.1348e-16
6.2803e-16
6.29554e-16
6.05153e-16
6.18058e-16
6.0027e-16
6.249e-16
6.33145e-16
6.26824e-16
6.06428e-16
6.16943e-16
6.24102e-16
6.17172e-16
6.12306e-16
6.50734e-16
6.46255e-16
6.01053e-16
6.18293e-16
6.14116e-16
6.38508e-16
6.47196e-16
6.16461e-16
6.36321e-16
6.48461e-16
6.39234e-16
6.13173e-16
6.21444e-16
6.28985e-16
6.364e-16
6.61873e-16
6.54957e-16
6.31285e-16
6.40128e-16
6.15789e-16
6.18498e-16
6.15823e-16
6.08984e-16
6.26458e-16
6.1875e-16
6.45871e-16
6.41471e-16
5.86228e-16
6.37826e-16
5.89018e-16
6.69548e-16
6.5204e-16
6.31678e-16
6.41403e-16
6.34813e-16
5.96177e-16
5.90338e-16
6.22793e-16
6.0472e-16
6.17998e-16
6.25245e-16
6.48262e-16
6.17549e-16
6.56983e-16
6.35557e-16
6.18563e-16
6.24785e-16
6.42446e-16
6.38817e-16
6.20774e-16
6.74241e-16
6.29417e-16
6.2821e-16
6.09559e-16
6.19668e-16
5.90402e-16
6.21646e-16
6.05443e-16
6.21382e-16
6.13223e-16
5.91656e-16
6.25941e-16
5.9921e-16
6.0301e-16
6.58261e-16
6.28932e-16
6.14748e-16
6.35326e-16
6.33831e-16
6.84118e-16
6.14339e-16
6.14532e-16
6.3157e-16
6.33673e-16
6.14511e-16
6.13493e-16
6.37416e-16
6.32124e-16
6.27883e-16
6.31141e-16
6.25706e-16
6.3242e-16
6.01936e-16
6.64352e-16
6.05519e-16
5.98655e-16
6.13916e-16
6.41332e-16
6.13722e-16
6.3412e-16
6.16501e-16
6.14526e-16
6.63381e-16
6.46514e-16
6.15663e-16
6.39054e-16
6.4257e-16
6.2817e-16
6.11739e-16
6.30749e-16
6.52634e-16
6.73301e-16
6.51988e-16
6.31683e-16
6.29631e-16
6.23874e-16
6.07642e-16
6.11133e-16
6.28049e-16
6.36726e-16
6.19748e-16
6.15764e-16
6.24018e-16
6.1916e-16
6.22323e-16
6.38472e-16
6.43192e-16
6.3656e-16
6.17468e-16
6.22885e-16
6.18317e-16
6.308e-16
6.35687e-16
6.02449e-16
6.4178e-16
6.13492e-16
6.13472e-16
6.27579e-16
6.25928e-16
6.249e-16
6.13428e-16
6.28145e-16
6.29059e-16
5.92979e-16
6.12829e-16
6.08882e-16
6.25525e-16
6.31456e-16
6.17323e-16
6.48801e-16
5.96875e-16
6.12078e-16
6.58957e-16
6.1969e-16
6.13734e-16
6.23076e-16
6.23167e-16
6.29674e-16
5.98932e-16
6.1455e-16
5.94035e-16
6.17569e-16
6.15478e-16
6.22332e-16
6.62593e-16
6.98431e-16
6.4043e-16
6.20296e-16
5.79325e-16
5.95323e-16
6.26265e-16
6.62609e-16
6.30584e-16
6.34819e-16
5.95945e-16
6.53287e-16
6.24149e-16
6.41727e-16
6.50741e-16
6.2315e-16
6.11047e-16
6.33883e-16
6.64875e-16
6.42764e-16
6.25872e-16
6.18929e-16
6.15465e-16
6.50792e-16
6.28058e-16
6.30165e-16
6.14633e-16
6.15811e-16
6.36026e-16
6.38492e-16
6.22321e-16
5.99774e-16
5.91877e-16
6.32283e-16
6.15118e-16
6.96812e-16
6.21163e-16
6.17785e-16
6.78267e-16
6.08288e-16
6.16093e-16
5.98903e-16
6.04483e-16
6.12128e-16
6.30401e-16
6.1699e-16
6.3012e-16
6.24054e-16
6.57954e-16
6.19415e-16
5.96949e-16
6.03586e-16
6.20636e-16
6.33525e-16
6.51867e-16
6.17795e-16
6.9648e-16
5.92538e-16
6.04068e-16
6.4985e-16
6.70944e-16
6.08858e-16
6.24301e-16
6.21077e-16
6.06141e-16
6.43217e-16
6.49156e-16
6.29219e-16
6.05394e-16
6.25325e-16
6.68473e-16
6.32657e-16
6.28804e-16
6.13822e-16
6.39667e-16
6.5569e-16
6.74606e-16
6.19024e-16
6.05201e-16
6.43591e-16
6.51776e-16
6.16611e-16
6.231e-16
6.27219e-16
6.13433e-16
6.17926e-16
5.89986e-16
6.07782e-16
6.02282e-16
6.54016e-16
6.28568e-16
6.06029e-16
6.19185e-16
6.55294e-16
5.81494e-16
5.93284e-16
6.2126e-16
6.08855e-16
6.32411e-16
6.5479e-16
5.93763e-16
6.15622e-16
6.28358e-16
6.30829e-16
6.45521e-16
6.32374e-16
6.14082e-16
6.38278e-16
6.1142e-16
6.08392e-16
6.01004e-16
6.03153e-16
5.96812e-16
6.23476e-16
6.03875e-16
6.00815e-16
6.01736e-16
5.88766e-16
6.46112e-16
6.51943e-16
5.79042e-16
5.71126e-16
6.07759e-16
6.27802e-16
6.37294e-16
6.53867e-16
6.2571e-16
5.80997e-16
6.06371e-16
5.67611e-16
5.68257e-16
6.20533e-16
5.89024e-16
5.97417e-16
6.74394e-16
6.29832e-16
5.5576e-16
5.35661e-16
5.43492e-16
5.82129e-16
5.63229e-16
5.42143e-16
)
;

boundaryField
{
    sides
    {
        type            zeroGradient;
    }
    empty
    {
        type            empty;
    }
}


// ************************************************************************* //
