/*--------------------------------*- C++ -*----------------------------------*\
  =========                 |
  \\      /  F ield         | OpenFOAM: The Open Source CFD Toolbox
   \\    /   O peration     | Website:  https://openfoam.org
    \\  /    A nd           | Version:  7
     \\/     M anipulation  |
\*---------------------------------------------------------------------------*/
FoamFile
{
    version     2.0;
    format      ascii;
    class       volScalarField;
    location    "0.002";
    object      internalEMean;
}
// * * * * * * * * * * * * * * * * * * * * * * * * * * * * * * * * * * * * * //

dimensions      [1 -1 -2 0 0 0 0];

internalField   nonuniform List<scalar> 
1000
(
5.20233
5.2314
5.16215
5.18719
5.11466
5.17838
5.15428
5.16088
5.17877
5.27125
5.26311
5.25569
5.13145
5.11204
5.16208
5.19228
5.27747
5.20672
5.24978
5.22349
5.26922
5.23879
5.28429
5.18867
5.22883
5.23336
5.32696
5.19844
5.19524
5.23842
5.20082
5.31059
5.24179
5.32621
5.26236
5.24067
5.20965
5.17681
5.22607
5.21589
5.20628
5.22711
5.1578
5.2195
5.17453
5.20903
5.17031
5.21804
5.32877
5.25325
5.22749
5.23529
5.24379
5.25335
5.22542
5.22283
5.2032
5.21415
5.24607
5.21985
5.23853
5.20703
5.23417
5.21987
5.20518
5.24864
5.10294
5.15573
5.11516
5.2099
5.22577
5.23279
5.18018
5.13073
5.19295
5.21624
5.26527
5.23976
5.21441
5.30339
5.27864
5.24719
5.23799
5.19252
5.25111
5.25623
5.21864
5.22851
5.28858
5.21628
5.22006
5.22811
5.19579
5.21389
5.27998
5.22216
5.14414
5.22232
5.24732
5.19976
5.15298
5.28304
5.21598
5.24689
5.20542
5.15848
5.13584
5.14443
5.19784
5.20197
5.23843
5.29221
5.25469
5.26285
5.26851
5.18567
5.27179
5.28893
5.25636
5.24412
5.20098
5.17905
5.20096
5.19759
5.19782
5.21434
5.21648
5.24809
5.26185
5.19998
5.20722
5.20378
5.22809
5.20183
5.21838
5.20246
5.21966
5.25618
5.24076
5.18682
5.23421
5.31427
5.26743
5.19848
5.26571
5.21707
5.21836
5.22767
5.27214
5.24491
5.23078
5.12277
5.21119
5.23811
5.25335
5.25366
5.24029
5.26705
5.219
5.16744
5.22608
5.21544
5.21105
5.25641
5.29546
5.31116
5.32831
5.21504
5.23964
5.305
5.34936
5.30035
5.29448
5.25454
5.30242
5.33233
5.29062
5.3146
5.37517
5.33065
5.26101
5.2794
5.24389
5.27968
5.31771
5.32184
5.27969
5.25921
5.31681
5.35413
5.32505
5.37408
5.33275
5.35634
5.21198
5.27728
5.25105
5.20323
5.39096
5.30933
5.21877
5.25644
5.311
5.29725
5.34695
5.39352
5.29807
5.2651
5.22196
5.27833
5.31135
5.22467
5.35334
5.35088
5.27683
5.31022
5.29657
5.29112
5.31842
5.33541
5.29921
5.31926
5.20655
5.26012
5.26409
5.26131
5.26019
5.24184
5.2631
5.26042
5.28455
5.26729
5.23229
5.24208
5.28018
5.25103
5.23645
5.3372
5.2905
5.29259
5.29316
5.24183
5.29445
5.18632
5.21853
5.26475
5.23889
5.30699
5.23767
5.28277
5.28731
5.28071
5.31932
5.28381
5.33381
5.31485
5.2461
5.34643
5.22582
5.30344
5.33944
5.41131
5.34015
5.28718
5.34297
5.26824
5.31251
5.31408
5.35595
5.32768
5.26849
5.27486
5.2255
5.31769
5.42387
5.31205
5.42067
5.3858
5.41615
5.33603
5.34705
5.26333
5.13642
5.2319
5.25446
5.25857
5.22733
5.22618
5.27649
5.29842
5.32221
5.21899
5.25642
5.28879
5.25311
5.29121
5.28477
5.17283
5.23762
5.25058
5.29457
5.30567
5.18363
5.26351
5.31653
5.22253
5.20443
5.12227
5.16185
5.20678
5.26817
5.22986
5.17538
5.1665
5.1856
5.09744
5.1452
5.24027
5.16365
5.22078
5.18317
5.22602
5.21734
5.24036
5.247
5.29236
5.28069
5.33579
5.29941
5.20362
5.34568
5.21534
5.17585
5.19423
5.14804
5.27873
5.18197
5.23582
5.27698
5.29889
5.24702
5.27908
5.26692
5.31571
5.27739
5.36487
5.28751
5.21698
5.25444
5.18967
5.27473
5.30267
5.29212
5.25248
5.28472
5.19654
5.25982
5.25632
5.23959
5.23116
5.19175
5.1629
5.19374
5.2181
5.21126
5.21868
5.21204
5.28413
5.223
5.16463
5.17509
5.20528
5.21926
5.24351
5.23327
5.21298
5.16006
5.23807
5.26132
5.24101
5.2094
5.21133
5.20716
5.27933
5.30584
5.31288
5.19735
5.21058
5.24707
5.26163
5.18047
5.08874
5.17431
5.14308
5.11898
5.17653
5.16462
5.15794
5.12937
5.18263
5.1115
5.01424
5.07265
5.01239
5.04443
5.0589
5.04207
5.07004
5.05251
4.91939
4.89156
4.92493
4.9626
4.96792
4.83446
4.88167
4.92576
4.91806
4.85986
4.82844
4.8255
4.83445
4.80214
4.77008
4.72442
4.77553
4.77206
4.72843
4.74172
4.7751
4.75765
4.67081
4.67557
4.55001
4.57369
4.59454
4.56185
4.49866
4.43806
4.50466
4.44029
4.41287
4.36664
4.3835
4.40995
4.3378
4.30995
4.31573
4.24065
4.20696
4.18028
4.10821
4.06075
4.08173
4.00296
3.98671
3.98532
4.0333
3.97915
3.92005
3.8342
3.81107
3.72674
3.6799
3.69267
3.7355
3.73396
3.60706
3.49655
3.44411
3.40764
3.41008
3.34157
3.2963
3.21766
3.18297
3.18746
3.16936
3.10534
3.0659
2.99859
3.00683
2.96248
2.89528
2.87329
2.84765
2.79444
2.82076
2.80658
2.70964
2.6042
2.5291
2.44206
2.38802
2.36958
2.33744
2.32206
2.29832
2.24291
2.13367
2.00678
1.99388
1.98036
1.93547
1.9446
1.95868
1.95988
1.95211
1.9036
1.91057
1.84423
1.83966
1.7624
1.76905
1.79436
1.80305
1.79296
1.80753
1.76892
1.77998
1.73326
1.72525
1.70828
1.69108
1.69658
1.73265
1.71632
1.70432
1.66719
1.6985
1.6543
1.61087
1.6407
1.62839
1.63668
1.5978
1.60162
1.61727
1.56428
1.56301
1.53744
1.52185
1.50288
1.50913
1.48107
1.45505
1.47668
1.48785
1.46087
1.4457
1.46122
1.44184
1.43471
1.41892
1.44703
1.40372
1.40002
1.39064
1.35884
1.34556
1.36151
1.33777
1.28978
1.31387
1.29973
1.25192
1.25355
1.24185
1.24115
1.25837
1.26409
1.25229
1.20387
1.17796
1.18362
1.1561
1.12774
1.1145
1.07695
1.07935
1.1018
1.13722
1.09129
1.06955
1.06427
1.04272
1.04384
1.02849
1.01877
0.993386
0.977147
0.983217
0.978646
1.00546
0.968386
0.959793
0.943303
0.905273
0.89328
0.86483
0.829352
0.813278
0.84194
0.832715
0.827291
0.853308
0.818015
0.785581
0.776283
0.784957
0.758056
0.751751
0.71445
0.700913
0.705908
0.71409
0.693963
0.681062
0.65928
0.646556
0.658043
0.65086
0.620716
0.620376
0.612408
0.589136
0.586851
0.558183
0.547866
0.568843
0.524751
0.527402
0.529463
0.529388
0.518528
0.492521
0.496988
0.509539
0.499428
0.514834
0.52137
0.514519
0.526952
0.504106
0.507977
0.506501
0.50188
0.504629
0.50111
0.522708
0.51593
0.52994
0.500776
0.495389
0.498188
0.51079
0.523261
0.517221
0.512992
0.512038
0.512631
0.516264
0.486769
0.518958
0.525593
0.516335
0.527323
0.511147
0.514312
0.50954
0.508129
0.493827
0.495651
0.527741
0.50493
0.507493
0.513309
0.51917
0.499869
0.507005
0.506077
0.514218
0.517744
0.525525
0.502484
0.491415
0.517139
0.488444
0.506234
0.511807
0.494571
0.499601
0.497333
0.479389
0.487534
0.498626
0.50178
0.505005
0.498567
0.504632
0.498709
0.481339
0.495089
0.48532
0.478861
0.481884
0.494073
0.508065
0.492238
0.483296
0.485184
0.495122
0.492835
0.514576
0.516127
0.509435
0.515772
0.517668
0.501724
0.495684
0.51385
0.513158
0.535361
0.52205
0.504137
0.531241
0.515792
0.536745
0.526337
0.514663
0.533686
0.499201
0.50646
0.534019
0.522442
0.493367
0.507464
0.510802
0.499365
0.469583
0.48698
0.501767
0.502054
0.496121
0.508999
0.519933
0.524682
0.524337
0.512116
0.498349
0.500958
0.489427
0.499293
0.515374
0.510524
0.504941
0.498767
0.499226
0.510529
0.513212
0.505831
0.491906
0.506604
0.520451
0.520028
0.513995
0.504169
0.496386
0.493209
0.504077
0.480131
0.502469
0.488823
0.47723
0.503595
0.518165
0.509859
0.511264
0.49991
0.498156
0.516968
0.524443
0.496805
0.479017
0.502988
0.505547
0.529554
0.51956
0.517241
0.505886
0.502514
0.505278
0.499432
0.523204
0.50906
0.526127
0.51364
0.501587
0.51136
0.504931
0.513101
0.4999
0.505236
0.511188
0.528761
0.510506
0.503855
0.501784
0.495835
0.48666
0.494143
0.500436
0.508077
0.485228
0.473887
0.499089
0.504374
0.499453
0.502318
0.503314
0.519673
0.521297
0.510153
0.502582
0.510194
0.503472
0.491242
0.527208
0.522133
0.496434
0.50331
0.506335
0.512393
0.520499
0.513201
0.503199
0.479525
0.49755
0.507102
0.497078
0.51217
0.518945
0.538769
0.525946
0.542899
0.54257
0.518557
0.507288
0.499499
0.49987
0.502434
0.489098
0.502129
0.511961
0.509839
0.512982
0.529765
0.528297
0.515222
0.502537
0.498457
0.499865
0.501043
0.51277
0.502056
0.507959
0.477418
0.483944
0.475855
0.501943
0.50158
0.490875
0.525403
0.530197
0.513427
0.503809
0.495717
0.484143
0.492852
0.49523
0.500347
0.491954
0.498507
0.486401
0.503225
0.482818
0.489942
0.510908
0.497645
0.49138
0.494624
0.482284
0.498323
0.499269
0.51447
0.51759
0.504527
0.493096
0.48931
0.492848
0.504547
0.488683
0.475864
0.502983
0.499596
0.514244
0.52684
0.505423
0.493955
0.494874
0.514015
0.516168
0.520861
0.518161
0.505646
0.49859
0.490542
0.499222
0.48909
0.486315
0.499146
0.493991
0.489368
0.502053
0.495388
0.502975
0.48211
0.487041
0.476659
0.479194
0.488299
0.469537
0.476913
0.457408
0.474798
0.483043
0.47734
0.495981
0.508628
0.521086
0.510937
0.51315
0.5329
0.547063
0.528672
0.522669
0.518649
0.496833
0.494888
0.483504
0.489387
0.508129
0.504073
0.480032
0.484313
0.507489
0.518401
0.486556
0.493687
0.515107
0.503212
0.503473
0.499344
0.511075
0.514596
0.513913
0.5153
0.508573
0.516594
0.522152
0.51928
0.513248
0.511222
0.501304
0.513988
0.498619
0.495215
0.511776
0.512172
0.528495
0.531595
0.541052
0.52071
0.498444
0.539211
0.520965
0.51944
0.519317
0.529304
0.517215
0.523763
0.522556
0.502852
0.528758
0.50734
0.520509
0.5044
0.502648
0.520743
0.51746
)
;

boundaryField
{
    sides
    {
        type            symmetry;
    }
    empty
    {
        type            empty;
    }
}


// ************************************************************************* //
