/*--------------------------------*- C++ -*----------------------------------*\
  =========                 |
  \\      /  F ield         | OpenFOAM: The Open Source CFD Toolbox
   \\    /   O peration     | Website:  https://openfoam.org
    \\  /    A nd           | Version:  7
     \\/     M anipulation  |
\*---------------------------------------------------------------------------*/
FoamFile
{
    version     2.0;
    format      ascii;
    class       volScalarField;
    location    "0.002";
    object      internalE;
}
// * * * * * * * * * * * * * * * * * * * * * * * * * * * * * * * * * * * * * //

dimensions      [1 -1 -2 0 0 0 0];

internalField   nonuniform List<scalar> 
1000
(
0.416496
0.372204
0.487055
0.493187
0.430337
0.446513
0.486976
0.550319
0.507428
0.535691
0.612742
0.797657
0.452053
0.756974
0.523741
0.549241
0.749173
0.928143
0.788658
0.68197
0.724398
0.652773
0.670117
0.736487
0.719485
0.87086
1.02037
0.849302
1.23734
0.907229
0.935175
1.06781
0.912251
0.927218
0.832914
0.845046
0.772382
0.964484
1.12787
1.11542
1.35415
1.0424
1.03715
1.1707
1.20533
1.11336
1.10229
1.03861
0.91602
1.2619
1.2636
1.14652
1.15702
1.03991
1.46188
1.1828
1.3051
1.23329
1.49086
1.36215
1.37839
1.73388
1.43832
1.40654
1.45998
1.78716
1.49977
1.70977
1.37163
1.49268
1.72664
1.66158
1.2601
1.50239
1.66135
1.68084
1.79208
1.8627
1.43241
1.63675
1.71766
1.61789
1.55188
1.44615
1.8338
1.66192
1.64572
1.57862
1.84251
1.82633
1.76064
1.39838
1.77624
1.69712
1.75474
1.7696
1.78093
1.65005
1.72424
1.62756
1.68779
1.59689
1.80912
1.93064
1.94275
1.63013
1.7845
1.75191
1.86619
1.79678
1.94371
1.62611
1.71824
1.76818
2.06841
1.60059
1.85733
1.89916
1.81969
1.64005
1.87851
1.72689
1.59947
1.92188
2.07705
1.90502
1.62768
1.62285
1.96889
1.64251
1.78423
1.94412
1.99875
1.50072
1.41887
1.79067
2.16073
1.61019
1.86267
1.82457
1.58998
1.7841
1.58969
2.22286
1.6198
1.90844
1.90049
1.67029
1.78003
2.02751
1.79914
1.40311
1.67205
1.75503
1.79726
1.24288
1.73403
1.95363
1.65808
1.66138
2.1613
1.53398
1.60205
1.79313
1.96368
1.39796
1.5646
1.53279
1.66975
2.00953
1.80286
1.85414
1.69803
1.809
1.72086
1.86709
1.38328
1.74136
1.81786
1.5274
1.33682
1.85801
1.73664
1.6254
1.81297
1.97822
1.67319
1.96186
1.98373
2.03989
1.85644
1.52143
1.58212
2.04165
1.32128
1.69424
1.67412
1.93998
1.56216
1.70969
1.47581
1.66808
1.92655
2.05573
1.94689
2.03858
1.59822
1.40953
1.72853
2.08135
1.85581
1.82994
1.53253
1.77454
2.05537
2.08098
1.5454
1.60705
1.54364
1.74843
1.7503
1.80041
1.57521
1.64761
1.84485
1.78406
1.53684
2.01641
1.84247
1.63707
1.77033
1.73359
1.9283
1.66716
1.41383
1.97774
1.7001
1.89331
1.64918
1.67507
1.71336
1.61025
1.57275
1.76516
1.52155
2.15696
1.59878
1.26639
1.61756
1.35288
1.52097
1.86707
1.78667
1.57317
2.12308
1.45157
1.34076
1.47857
1.88732
1.56343
1.43314
1.79377
1.64516
1.56144
1.82553
1.69388
1.70717
1.5898
1.76716
1.31593
1.83143
1.37157
1.91823
1.73178
1.51702
1.54298
1.92038
2.11397
1.57244
1.62173
1.6157
2.01162
2.04861
1.82716
1.68119
1.51877
1.78198
1.50776
1.69516
1.77573
1.74643
1.42164
1.82523
1.86473
1.86513
2.11624
1.79109
1.95849
1.71587
1.45063
1.73914
1.54717
1.87139
1.62192
1.56488
1.51903
1.47941
1.81824
1.73392
1.8071
1.50923
1.645
1.94759
2.13937
2.02354
1.76852
1.88342
1.60812
1.79859
1.72941
1.61407
1.32881
1.74234
1.92004
1.50668
1.83634
1.50841
1.82157
1.88635
1.91277
1.94455
1.70187
1.51092
1.79103
1.68927
1.54116
1.6722
1.5026
1.78296
1.77668
1.82323
1.79949
1.50065
1.96713
1.63345
1.68277
1.59447
2.07493
1.70882
1.43166
1.65632
1.80717
1.53082
1.59714
1.57546
1.86564
1.85075
1.80252
1.44445
1.70233
2.20023
1.78056
1.91772
2.18371
1.50854
1.70259
1.45792
1.73381
2.00712
1.54573
1.36766
1.69731
1.70485
1.65764
1.61272
1.82222
1.69087
1.70061
2.22595
1.49368
1.55627
1.76073
1.56916
2.13145
1.99391
1.70821
1.71483
1.87203
1.67133
1.77751
1.8983
2.27058
1.69976
1.87843
2.13758
2.20482
1.86444
1.84982
1.68658
1.86279
1.96739
1.83767
1.76883
2.02922
1.88877
1.82381
1.89485
1.8494
1.59177
1.68979
1.73562
1.95649
1.60099
2.33929
2.08915
1.47864
1.81337
1.56074
1.75121
2.04
1.89591
1.41476
1.96469
1.53884
1.62101
1.64563
1.51547
1.5187
1.80471
1.54839
1.72173
1.62514
1.76624
1.62105
1.44544
1.53115
1.74736
1.38729
1.54135
1.62383
1.49627
1.57802
1.40655
1.19481
0.999889
1.30027
1.55143
1.28432
1.31253
1.10428
1.13826
1.24412
0.898482
1.50439
1.10082
1.06365
1.00982
1.06935
0.947592
1.33399
1.11881
1.03409
1.28031
0.908585
1.16781
1.04358
1.29105
1.00841
0.876271
1.09735
0.797731
1.07179
1.00569
1.00769
0.92124
0.809788
0.988632
1.0857
1.22739
0.984506
0.855954
1.00374
0.840465
0.917476
0.923326
0.823172
0.837479
0.702227
0.835299
0.900206
0.848371
0.718065
0.791988
1.07611
0.883175
0.872614
0.853967
0.850516
1.02982
0.983743
1.056
0.883535
0.720791
0.86492
1.01524
0.770236
0.769403
1.09919
0.904731
0.931319
0.848758
0.803731
0.87693
1.09499
1.04613
0.899355
0.875537
0.977212
0.88951
0.736399
0.775925
1.11348
1.22994
0.822602
1.24933
0.865182
0.811764
0.610675
0.72888
0.926227
1.13503
1.05195
0.836735
0.882767
1.05894
0.689679
0.812246
0.751699
1.16734
1.01041
1.07819
0.850449
0.975135
0.696695
0.892655
0.99508
1.24079
0.689541
0.994864
0.598523
1.13572
0.890267
0.865674
0.873829
0.903125
0.872088
0.902812
1.01502
0.71268
0.913681
0.897826
0.914689
0.807751
0.919084
0.921457
1.34097
0.945276
0.952568
0.817861
1.27134
1.19605
0.977585
0.809955
0.871643
0.936241
0.766842
1.0588
0.87698
0.715283
0.961845
1.11169
0.879916
0.611685
1.01188
0.590373
0.752303
0.964066
0.801801
0.769819
1.02629
0.85176
0.947507
0.606896
0.554087
0.741111
0.641911
0.532479
0.504571
0.578524
0.588207
0.652507
0.455051
0.494168
0.452411
0.429075
0.489291
0.565742
0.576198
0.469169
0.240354
0.453017
0.727103
0.459073
0.509429
0.609764
0.566051
0.694271
0.60169
0.4242
0.3874
0.380714
0.638471
0.534105
0.459597
0.667854
0.55395
0.474059
0.52071
0.437522
0.545241
0.580918
0.536403
0.399554
0.375963
0.620972
0.469765
0.347618
0.495418
0.340421
0.342963
0.49549
0.751528
0.469269
0.537833
0.531329
0.52357
0.545763
0.621716
0.516941
0.361056
0.472167
0.58815
0.597287
0.319459
0.576999
0.357409
0.66092
0.40252
0.588429
0.483847
0.344957
0.449962
0.557769
0.503552
0.462585
0.466813
0.57178
0.360001
0.520377
0.51119
0.540153
0.36419
0.37401
0.33048
0.451572
0.426877
0.511529
0.401087
0.561384
0.652138
0.684506
0.573878
0.469807
0.702256
0.587662
0.657024
0.557052
0.539446
0.581211
0.44781
0.820982
0.450938
0.670115
0.59371
0.493523
0.614981
0.561282
0.470661
0.47161
0.549308
0.522673
0.627574
0.404515
0.445783
0.439676
0.453936
0.662908
0.453917
0.514203
0.650788
0.427028
0.423104
0.690203
0.585853
0.699294
0.37936
0.471838
0.507694
0.403368
0.449608
0.513248
0.57605
0.343095
0.508675
0.726995
0.449602
0.333498
0.519485
0.537967
0.498389
0.248421
0.584385
0.583734
0.303864
0.428715
0.66877
0.557033
0.381599
0.471078
0.534492
0.544684
0.529836
0.417233
0.49332
0.34459
0.603349
0.445003
0.595113
0.552668
0.593003
0.528848
0.526676
0.43927
0.513519
0.569434
0.47001
0.51145
0.395714
0.782242
0.497208
0.671263
0.461982
0.45081
0.590631
0.492274
0.633967
0.495435
0.381414
0.560818
0.480239
0.567032
0.445437
0.501117
0.381976
0.541744
0.547152
0.58262
0.343796
0.451235
0.485225
0.525372
0.545179
0.46868
0.626071
0.606923
0.322077
0.409264
0.478618
0.544506
0.542358
0.564616
0.550585
0.512066
0.615646
0.41549
0.679646
0.477021
0.561761
0.438136
0.40344
0.679479
0.553989
0.550327
0.251168
0.58494
0.691212
0.559402
0.449864
0.682103
0.43471
0.384061
0.47472
0.428519
0.556613
0.56365
0.3652
0.680498
0.481222
0.605277
0.453679
0.312522
0.463112
0.351792
0.663814
0.310997
0.595609
0.449207
0.509183
0.437969
0.515787
0.477431
0.526888
0.495209
0.356092
0.359877
0.597269
0.376258
0.370157
0.593775
0.557435
0.440327
0.421732
0.299965
0.60403
0.596887
0.517901
0.382955
0.541905
0.687529
0.584133
0.343574
0.46759
0.572625
0.378383
0.603463
0.422164
0.443526
0.323095
0.412924
0.468592
0.512718
0.560488
0.45399
0.366937
0.399133
0.460443
0.508817
0.519096
0.691102
0.533173
0.563555
0.745865
0.487421
0.410235
0.517794
0.324293
0.527557
0.581663
0.386162
0.600298
0.594333
0.615231
0.751096
0.488071
0.381303
0.403706
0.586393
0.307937
0.439788
0.235355
0.313669
0.661717
0.424265
0.394212
0.678502
0.545363
0.437159
0.31857
0.518659
0.672506
0.4732
0.548358
0.515567
0.37653
0.498672
0.395634
0.641413
0.550561
0.523096
0.568827
0.514132
0.59587
0.510973
0.71226
0.417226
0.402284
0.365975
0.809428
0.427628
0.538788
0.340426
0.511454
0.641146
0.478765
0.589321
0.537693
0.561374
0.439636
0.399999
0.467671
0.565201
0.429668
0.446622
0.599624
0.423714
0.410592
0.38775
0.413794
0.303694
0.494969
0.441871
0.493953
0.507133
0.483933
0.31952
0.275088
0.358416
0.351717
0.486525
0.179728
0.451436
0.343904
0.435495
0.466237
0.262237
0.317212
0.333094
0.283174
0.26761
0.327581
0.307517
0.365119
0.282298
0.206024
0.268331
0.287178
0.306573
0.30388
0.159459
0.297318
0.168585
0.276737
0.249429
0.218704
0.273348
0.259619
0.220454
0.229054
0.254897
0.292112
0.177011
0.140263
0.153818
0.205686
0.228978
0.0988651
0.269411
0.312395
0.0915481
0.342881
0.129627
0.133722
0.11513
0.142862
0.165147
0.15448
0.163313
0.108158
0.144811
0.14848
)
;

boundaryField
{
    sides
    {
        type            zeroGradient;
    }
    empty
    {
        type            empty;
    }
}


// ************************************************************************* //
