/*--------------------------------*- C++ -*----------------------------------*\
  =========                 |
  \\      /  F ield         | OpenFOAM: The Open Source CFD Toolbox
   \\    /   O peration     | Website:  https://openfoam.org
    \\  /    A nd           | Version:  7
     \\/     M anipulation  |
\*---------------------------------------------------------------------------*/
FoamFile
{
    version     2.0;
    format      ascii;
    class       volScalarField;
    location    "0.002";
    object      internalE;
}
// * * * * * * * * * * * * * * * * * * * * * * * * * * * * * * * * * * * * * //

dimensions      [1 -1 -2 0 0 0 0];

internalField   nonuniform List<scalar> 
1000
(
4.83853
5.42451
5.14131
4.72353
4.45758
5.29978
5.05127
4.82781
5.25688
5.20525
4.79232
5.57874
5.24819
4.94398
5.26252
5.19543
5.12022
4.94824
5.10237
5.39794
5.60906
4.8409
5.46743
4.56521
5.82281
5.46226
4.52066
5.46916
5.39684
5.33008
5.72616
5.47689
5.23842
4.93221
5.45109
5.01678
5.17684
5.17429
4.96618
5.42778
5.4272
5.30332
5.66895
5.34956
5.29065
4.95009
5.08208
4.99457
5.26255
5.10777
4.67856
5.14334
5.15941
4.95772
4.79231
5.55614
5.2627
4.83869
5.16653
5.46297
5.03613
5.35949
5.68095
5.82751
5.01344
5.85873
5.45802
4.75708
5.11865
4.74063
4.95605
5.75196
4.59979
5.41302
4.92541
5.54918
5.89884
5.57987
5.43376
5.36326
5.55616
4.95463
6.16037
4.89065
5.37168
5.74145
4.91983
5.48401
4.8845
5.70375
5.35868
5.36374
5.18904
5.16965
4.98835
5.13392
5.31564
5.32108
4.75865
5.08907
5.09159
5.50938
4.69853
5.09005
5.38744
5.78748
4.7377
5.36076
5.19216
4.74011
4.66325
5.60094
6.24826
4.94114
4.82617
5.11095
4.92024
5.68404
5.48891
5.36284
4.95256
4.81364
5.54513
5.87253
5.14782
5.83311
5.4228
5.44132
5.45159
5.583
4.77452
5.37408
5.5975
4.8366
5.57943
5.0628
4.65415
5.21813
5.66893
5.55212
5.41851
5.44267
5.36712
4.9085
5.74273
5.2826
5.18658
5.38848
5.66466
5.46249
5.40025
5.7069
5.11843
4.91229
4.75435
5.10646
5.8857
6.31754
5.43256
5.68613
5.94183
5.21551
5.39475
5.56909
5.59038
5.26994
4.68819
5.4612
4.94643
5.80457
5.18004
5.20519
5.0215
5.76144
4.83992
4.99826
5.47991
4.39472
6.0691
5.22877
5.01417
4.9772
4.99863
5.5703
5.03683
4.98773
5.3778
4.726
4.86191
6.04015
5.57618
4.97252
5.70476
5.73641
4.68081
4.99678
5.29935
5.49835
5.68938
4.77291
5.49218
5.59545
5.72906
5.26102
5.45801
5.83833
5.19009
4.33761
5.65424
5.17712
5.74086
5.03388
4.61955
6.00358
4.65923
5.99867
5.02747
5.2396
5.56874
5.10386
4.99121
5.0827
5.60984
4.88925
4.83846
4.67597
5.20754
5.43612
5.10861
4.92758
4.99122
5.07674
5.04298
4.92069
5.34084
4.69674
5.12739
6.06849
5.41086
4.83755
5.43688
5.20233
5.09723
5.43058
5.24923
4.62156
5.04005
5.41823
5.74994
5.41517
5.1513
4.51208
4.49924
5.02828
5.31647
5.39888
5.41018
5.52817
5.81992
5.38252
5.13133
5.94855
4.6754
5.39857
5.6157
5.936
4.58941
4.89546
4.99051
5.48944
5.66359
4.89955
4.85752
5.16091
5.61766
6.08
5.90796
5.36989
5.3006
5.4689
5.67528
4.90568
4.45088
5.56376
5.2117
4.31758
4.92986
5.7407
4.88108
5.26353
4.83684
5.16103
5.5872
5.53408
4.95595
5.16412
5.44368
6.13258
5.69656
4.70402
5.77569
5.06939
4.65978
5.25842
5.83255
5.42325
5.546
5.87236
5.73466
5.1836
5.47171
5.18111
4.95169
5.41085
5.54992
5.45804
5.56498
5.247
4.82681
4.74996
5.22884
4.73263
6.07723
5.81185
5.18863
5.15727
6.03683
4.81863
5.17069
5.26276
5.10075
5.3201
5.13645
4.8505
5.15976
5.58194
5.17934
5.38338
4.47058
5.66349
5.05181
4.92956
5.79075
4.9196
4.63971
4.97896
5.49429
5.43766
4.95082
4.75511
5.32408
5.33925
5.28009
4.98298
4.96661
5.8474
5.92251
5.21755
4.92884
5.3183
5.5305
5.23976
4.71758
5.33506
5.30156
4.91651
4.60524
5.40732
4.8529
4.93726
5.36069
4.95172
4.64953
5.61489
4.81539
4.77883
5.55832
5.09857
4.66059
4.37503
5.29302
5.30315
4.34376
5.57718
4.73299
4.12386
5.00722
4.6935
4.64487
4.51331
4.40237
4.37797
4.0354
4.09602
3.97935
4.44268
4.7543
4.51641
4.2042
4.1947
4.22927
4.09867
4.28296
3.87629
4.33042
3.88027
4.38795
3.62236
3.88995
3.76769
4.05711
3.51809
3.85175
3.56231
3.91565
3.39836
3.39202
3.25173
3.46877
2.98352
3.41799
3.25479
3.59614
3.55421
3.97318
3.76267
3.22367
3.0307
2.89581
3.174
3.18315
3.44191
3.63993
3.451
2.90743
3.23997
2.92015
2.86557
3.27132
3.13505
3.1884
2.68285
2.62223
2.93259
2.8597
2.675
1.96147
2.83117
2.99181
2.37056
3.15039
2.62682
2.92178
2.50569
3.02107
2.19201
2.87417
2.02326
2.38714
2.06183
2.45808
2.44759
2.41384
2.26626
2.17565
2.09123
2.16496
2.42503
2.43206
2.15575
2.43252
1.8706
2.35686
1.99064
2.52226
2.02069
2.49219
1.96996
2.44739
1.91422
1.92773
2.35396
2.44584
1.81242
2.13548
1.95189
2.05804
2.08529
2.11041
2.05947
2.22443
2.03558
1.86284
2.39837
1.90504
2.0313
1.53487
1.76668
2.11877
1.7126
1.81672
2.12811
2.0226
2.08019
2.14582
2.30266
2.09715
2.04443
2.25707
1.88251
2.0942
2.19128
1.82217
1.72641
1.88506
2.09507
1.73442
1.82408
1.98749
1.93234
1.84158
2.27211
1.77682
2.01243
2.09773
2.0453
2.1353
1.96579
2.05369
2.11935
2.03509
1.9989
2.35024
1.86897
2.08903
2.2578
2.22868
1.97839
1.79483
2.20476
2.37987
1.73839
2.03377
2.25672
1.62724
2.3527
1.81523
1.82418
2.05785
2.23508
2.15326
2.24971
2.39379
2.19857
2.06895
1.54531
2.23962
1.66416
1.98387
2.08425
1.77289
2.26712
1.90779
2.57485
1.63649
1.95034
1.78649
2.07165
2.14015
1.78393
1.96221
2.27372
2.09038
1.78152
2.24101
1.99258
2.14182
1.76372
2.17477
1.74642
1.70582
2.14588
2.0315
2.04195
2.02601
2.08395
2.0109
2.02734
2.18001
1.99565
2.2246
2.12743
1.97768
2.13517
2.03231
2.23606
2.16998
2.09668
2.11283
1.81031
1.66582
1.88243
1.94728
1.97556
2.0519
1.77991
1.82069
1.80617
2.05809
1.82063
2.00065
1.86156
2.05114
1.77393
1.69411
2.26565
1.93407
2.38001
2.22474
1.7784
1.92753
1.78898
2.0835
1.86855
2.38721
1.83615
1.98274
2.03697
1.50732
1.99825
1.50972
1.54245
1.54334
1.52885
0.842821
0.69733
0.750449
0.626593
0.650839
0.542128
0.526297
0.536854
0.664607
0.469911
0.4028
0.4535
0.482275
0.527538
0.544126
0.435025
0.676131
0.496832
0.52469
0.647323
0.544572
0.457866
0.524216
0.571515
0.405962
0.69483
0.488108
0.390574
0.686701
0.487239
0.5782
0.577962
0.576523
0.524793
0.386506
0.542035
0.487961
0.57392
0.646744
0.570001
0.413981
0.45087
0.485146
0.766605
0.503206
0.626468
0.503402
0.580118
0.445359
0.555583
0.479952
0.463238
0.517476
0.45555
0.482839
0.426549
0.612687
0.504233
0.469701
0.451034
0.541105
0.439433
0.53674
0.513313
0.563243
0.506348
0.444926
0.575498
0.490004
0.560949
0.442525
0.437525
0.47629
0.405451
0.326468
0.473999
0.675071
0.537973
0.585592
0.460146
0.556294
0.430764
0.39633
0.51593
0.51265
0.469366
0.576417
0.516756
0.54114
0.453731
0.701346
0.555335
0.488447
0.591013
0.532059
0.560516
0.468356
0.665005
0.477862
0.505975
0.450041
0.346433
0.535512
0.467396
0.462629
0.529782
0.418706
0.533207
0.497995
0.497088
0.625602
0.470308
0.635789
0.630593
0.562119
0.478366
0.499588
0.478658
0.486473
0.549502
0.417994
0.508456
0.452071
0.496859
0.545678
0.468195
0.574214
0.468784
0.588125
0.492086
0.364622
0.54866
0.460797
0.430722
0.417381
0.521509
0.551462
0.376204
0.458194
0.434903
0.480847
0.422051
0.505699
0.497614
0.509844
0.43354
0.561702
0.536219
0.528102
0.611529
0.445285
0.591809
0.491101
0.471865
0.532992
0.507068
0.516604
0.414949
0.455159
0.503123
0.576783
0.418643
0.634413
0.431002
0.465414
0.391341
0.479609
0.406799
0.468213
0.409847
0.515378
0.48261
0.504548
0.532717
0.563335
0.528882
0.462465
0.434755
0.535706
0.501135
0.477398
0.686449
0.641849
0.581723
0.447185
0.439122
0.515202
0.575188
0.490143
0.506523
0.448977
0.439936
0.630799
0.489317
0.523214
0.515316
0.498692
0.53556
0.520399
0.53301
0.417582
0.410776
0.364565
0.480954
0.480629
0.526224
0.54322
0.515088
0.531138
0.429907
0.626154
0.653561
0.552782
0.56371
0.571466
0.537434
0.573845
0.44808
0.576894
0.537023
0.455704
0.482208
0.50944
0.525902
0.493407
0.343364
0.362056
0.518541
0.471905
0.473704
0.669247
0.519838
0.457712
0.520073
0.609778
0.476607
0.523638
0.473923
0.542922
0.66299
0.417805
0.3304
0.542678
0.476895
0.514328
0.446619
0.486098
0.401503
0.416292
0.551066
0.509865
0.400541
0.415784
0.588969
0.406412
0.481653
0.497964
0.561535
0.405839
0.558877
0.555491
0.56611
0.591833
0.546922
0.562653
0.52589
0.413015
0.597395
0.531049
0.46265
0.451856
0.482733
0.593001
0.461371
0.592697
0.581828
0.619922
0.518408
0.40396
0.396007
0.548156
0.504742
0.48667
0.477643
0.514575
0.632724
0.413651
0.451795
0.443297
0.392374
0.487493
0.532296
0.434447
0.50585
0.555707
0.464232
0.666327
0.563672
0.512342
0.442907
0.400092
0.423018
0.547798
0.470913
0.491213
0.453053
0.511465
0.55713
0.531298
0.503501
0.526651
0.516045
0.424346
0.654849
0.505762
0.474926
0.48337
0.655862
0.402074
0.4035
0.51667
0.510007
0.55797
0.468071
0.427933
0.541019
0.466682
0.4673
0.500253
0.408487
0.420529
0.595898
0.4585
0.451208
0.473076
0.553521
0.444998
0.514584
0.498763
0.545051
0.578065
0.487093
0.593382
0.55893
0.599541
0.513236
0.573006
0.422536
0.503108
0.488737
0.465545
0.53085
0.443783
0.500901
0.512065
0.647282
0.486
0.474435
0.53376
0.463609
0.616267
0.409813
0.525416
0.554237
0.597191
0.437351
)
;

boundaryField
{
    sides
    {
        type            symmetry;
    }
    empty
    {
        type            empty;
    }
}


// ************************************************************************* //
