/*--------------------------------*- C++ -*----------------------------------*\
  =========                 |
  \\      /  F ield         | OpenFOAM: The Open Source CFD Toolbox
   \\    /   O peration     | Website:  https://openfoam.org
    \\  /    A nd           | Version:  7
     \\/     M anipulation  |
\*---------------------------------------------------------------------------*/
FoamFile
{
    version     2.0;
    format      ascii;
    class       volScalarField;
    location    "0.002";
    object      internalEMean;
}
// * * * * * * * * * * * * * * * * * * * * * * * * * * * * * * * * * * * * * //

dimensions      [1 -1 -2 0 0 0 0];

internalField   nonuniform List<scalar> 
1000
(
0.168174
0.16058
0.157657
0.17405
0.204325
0.209713
0.208296
0.20966
0.239148
0.292139
0.290946
0.320238
0.311866
0.265569
0.277636
0.236288
0.217372
0.226534
0.230247
0.241441
0.24646
0.293541
0.295554
0.231377
0.226279
0.201047
0.197922
0.191843
0.187354
0.194457
0.186797
0.19255
0.217173
0.191689
0.195246
0.193838
0.195124
0.2001
0.214387
0.214174
0.210121
0.228845
0.239617
0.241119
0.245872
0.236204
0.224351
0.232887
0.243878
0.235307
0.244816
0.252161
0.270005
0.305804
0.299542
0.262791
0.223149
0.229943
0.247951
0.259266
0.283689
0.308688
0.302807
0.29627
0.287431
0.279772
0.410054
0.367387
0.303045
0.292263
0.300012
0.314889
0.294166
0.29122
0.328492
0.321593
0.307802
0.322653
0.331941
0.31982
0.310548
0.310737
0.305246
0.309301
0.328534
0.268441
0.23654
0.247276
0.246171
0.24494
0.240898
0.221358
0.224431
0.224819
0.233074
0.26114
0.276256
0.312287
0.300664
0.262155
0.263221
0.341007
0.332952
0.297993
0.306664
0.318799
0.320759
0.33113
0.349673
0.371744
0.363366
0.402942
0.413542
0.42384
0.484078
0.44026
0.402795
0.556627
0.462213
0.389858
0.385514
0.385496
0.379731
0.3805
0.377276
0.357508
0.359399
0.324483
0.336186
0.338693
0.347229
0.340362
0.462101
0.364651
0.281973
0.286711
0.272296
0.258318
0.259058
0.274618
0.231315
0.23247
0.213507
0.278235
0.288671
0.242095
0.308828
0.239795
0.195455
0.194313
0.197246
0.188482
0.192349
0.206041
0.213528
0.401932
0.242993
0.247002
0.209677
0.249696
0.244423
0.238941
0.247732
0.242437
0.234817
0.251396
0.221285
0.217555
0.223621
0.23014
0.255473
0.264577
0.27218
0.268237
0.224485
0.22739
0.230449
0.233326
0.209454
0.245502
0.251286
0.201025
0.197187
0.199224
0.197469
0.200464
0.196132
0.205263
0.205105
0.203424
0.229822
0.238058
0.267032
0.282871
0.279454
0.256332
0.242436
0.226451
0.23368
0.217151
0.211677
0.211942
0.210829
0.30935
0.351877
0.227665
0.25078
0.248037
0.237822
0.234509
0.20869
0.196295
0.201944
0.20161
0.206507
0.214697
0.219099
0.216481
0.271861
0.292452
0.337689
0.34371
0.362107
0.322709
0.338486
0.33953
0.316779
0.302504
0.309246
0.306124
0.299598
0.304698
0.301179
0.286989
0.290163
0.297377
0.34326
0.306431
0.264684
0.31487
0.343749
0.303378
0.333263
0.318241
0.279675
0.412335
0.534613
0.653216
0.527647
0.479577
0.445584
0.347789
0.331245
0.300982
0.308056
0.292461
0.290087
0.305178
0.299556
0.294042
0.293128
0.298177
0.263627
0.263629
0.268264
0.274926
0.29496
0.262582
0.274802
0.28373
0.292153
0.299636
0.295418
0.292671
0.274939
0.277754
0.271481
0.277061
0.28117
0.289539
0.291644
0.290099
0.288255
0.292386
0.284683
0.278982
0.270164
0.250505
0.229426
0.236186
0.235624
0.238345
0.248209
0.220522
0.215621
0.227775
0.232897
0.265165
0.257741
0.259838
0.275737
0.268107
0.244327
0.258889
0.283621
0.27486
0.272282
0.293721
0.278552
0.266322
0.27342
0.307364
0.359793
0.338509
0.272258
0.249589
0.251606
0.258476
0.289414
0.290879
0.297853
0.29638
0.319339
0.380037
0.37716
0.344829
0.296812
0.283382
0.343164
0.32724
0.339719
0.328311
0.33231
0.314614
0.300676
0.319635
0.31329
0.314519
0.322791
0.318994
0.287063
0.283718
0.295904
0.297071
0.291539
0.294435
0.296078
0.300556
0.361657
0.320766
0.304143
0.302048
0.269869
0.262814
0.272049
0.267555
0.259815
0.259182
0.254965
0.281216
0.282199
0.283887
0.278363
0.281763
0.323581
0.324556
0.30075
0.286307
0.285856
0.294955
0.309661
0.302658
0.302091
0.300818
0.324926
0.33176
0.335437
0.337915
0.333671
0.328153
0.325639
0.306767
0.269248
0.273259
0.28379
0.291712
0.315173
0.303022
0.284593
0.29493
0.315485
0.374289
0.354307
0.29619
0.293718
0.286984
0.291501
0.275817
0.263989
0.286945
0.289587
0.286353
0.291648
0.2972
0.282577
0.329952
0.332095
0.306779
0.29564
0.320837
0.305384
0.321119
0.325297
0.327558
0.297244
0.253214
0.355444
0.234278
0.263945
0.298567
0.314066
0.27046
0.270401
0.270018
0.268625
0.265285
0.306645
0.329546
0.436467
0.317002
0.260948
0.258351
0.275008
0.287355
0.280517
0.36296
0.361963
0.327651
0.326004
0.320848
0.337512
0.447089
0.297389
0.282849
0.279008
0.256918
0.245431
0.235484
0.274968
0.280072
0.277607
0.294889
0.303641
0.300912
0.302888
0.309046
0.320688
0.319871
0.314931
0.290549
0.279077
0.272082
0.29723
0.312646
0.285843
0.292048
0.288769
0.252992
0.238182
0.23446
0.240797
0.295172
0.252921
0.267731
0.269965
0.25187
0.280942
0.305082
0.340599
0.286279
0.256617
0.249145
0.251446
0.266818
0.271482
0.264209
0.295643
0.304338
0.295848
0.295422
0.304635
0.301688
0.510302
0.336634
0.265811
0.264847
0.265324
0.265655
0.271577
0.27916
0.308476
0.307849
0.309282
0.315237
0.311781
0.334755
0.344415
0.307008
0.27547
0.327653
0.419067
0.56281
0.39531
0.326078
0.278517
0.350937
0.347127
0.305861
0.325509
0.310612
0.325257
0.325619
0.315873
0.327749
0.326352
0.304746
0.294572
0.290318
0.291987
0.260517
0.263384
0.255165
0.252124
0.2664
0.273571
0.25448
0.221991
0.214855
0.207374
0.21347
0.217265
0.225128
0.246284
0.246339
0.245007
0.253
0.337661
0.421529
0.409617
0.239255
0.248128
0.247333
0.2403
0.212957
0.209672
0.212615
0.218273
0.222031
0.216466
0.211028
0.220369
0.239685
0.25001
0.243838
0.242943
0.235997
0.227754
0.238296
0.30351
0.280221
0.27375
0.273622
0.30416
0.336221
0.33249
0.331377
0.320297
0.286288
0.289428
0.292968
0.304112
0.302757
0.320364
0.31678
0.29218
0.28379
0.285673
0.30839
0.285107
0.279424
0.290106
0.322977
0.339741
0.354062
0.346179
0.355167
0.319392
0.308694
0.306489
0.3023
0.296845
0.307072
0.32336
0.328982
0.339477
0.33307
0.310234
0.305518
0.299906
0.288593
0.288062
0.302952
0.299552
0.284541
0.283949
0.286939
0.283464
0.274673
0.260915
0.251324
0.275625
0.272004
0.262989
0.258528
0.263396
0.299511
0.334632
0.375909
0.34547
0.324132
0.302983
0.309959
0.315665
0.307518
0.233858
0.238317
0.227841
0.225817
0.291739
0.367527
0.393223
0.370031
0.479871
0.387965
0.303034
0.501897
0.305087
0.288039
0.273749
0.285753
0.282911
0.265067
0.236547
0.236374
0.235385
0.264464
0.310739
0.30264
0.270834
0.242378
0.246149
0.259365
0.26476
0.260009
0.258423
0.287745
0.296073
0.28746
0.241094
0.239749
0.238664
0.24479
0.265254
0.265109
0.262416
0.273665
0.284054
0.298821
0.320907
0.330421
0.329571
0.333349
0.337204
0.343006
0.350162
0.397248
0.343767
0.312315
0.319853
0.328775
0.329168
0.329663
0.379903
0.375341
0.364525
0.352264
0.334724
0.415549
0.43308
0.331905
0.321374
0.349519
0.375388
0.38643
0.382491
0.369305
0.362748
0.559286
0.378672
0.362346
0.392163
0.399714
0.439002
0.443148
0.422155
0.420386
0.376814
0.374548
0.342785
0.347187
0.349625
0.381776
0.485485
0.411581
0.397895
0.399224
0.395097
0.391438
0.377707
0.420719
0.360382
0.456144
0.35216
0.350203
0.345487
0.315144
0.30641
0.366484
0.381359
0.304482
0.290282
0.332338
0.343573
0.280981
0.280314
0.283967
0.273873
0.272444
0.27013
0.303488
0.352642
0.31328
0.292273
0.27178
0.272337
0.280732
0.327847
0.306779
0.259392
0.282797
0.310918
0.333331
0.35141
0.388215
0.408659
0.372965
0.35292
0.381614
0.391879
0.405519
0.420353
0.437867
0.417446
0.38034
0.346546
0.329866
0.315405
0.314771
0.314507
0.304889
0.344822
0.330323
0.31838
0.338561
0.40608
0.301594
0.33489
0.330065
0.335393
0.326786
0.286182
0.263559
0.258894
0.253227
0.252663
0.253062
0.247109
0.239051
0.235582
0.237903
0.233374
0.240902
0.234224
0.265422
0.33656
0.323183
0.217669
0.2459
0.246003
0.238239
0.2041
0.197155
0.196248
0.189487
0.185193
0.182907
0.178288
0.180436
0.535259
0.209124
0.221907
0.228428
0.219173
0.220216
0.247079
0.266339
0.316047
0.329903
0.315876
0.333104
0.358639
0.35528
0.352402
0.36071
0.367257
0.37275
0.332499
0.314395
0.305865
0.307329
0.321912
0.322915
0.301987
0.284632
0.289191
0.293084
0.296651
0.299846
0.29482
0.294551
0.275124
0.273741
0.274324
0.337257
0.368112
0.407831
0.397197
0.382827
0.392461
0.421949
0.43075
0.413069
0.377582
0.589884
0.429071
0.422365
0.443744
0.467964
0.44153
0.407453
0.402712
0.399193
0.387065
0.358815
0.326569
0.292354
0.322121
0.353801
0.328073
0.33373
0.427756
0.402557
0.374314
0.373169
0.371607
0.363762
0.357795
0.576596
0.418
0.424819
0.37969
0.395109
0.3533
0.397281
0.302796
0.264866
0.295358
0.29884
0.261836
0.252036
0.26595
0.402484
0.261901
0.266333
0.220382
0.215638
0.22496
0.225867
0.232203
0.271675
0.257106
0.298215
0.264632
0.219742
0.223784
0.266167
0.263559
0.256058
0.272464
0.249034
0.2435
0.241676
0.238895
0.240852
0.240732
0.24139
0.24629
0.218329
0.239994
0.249592
0.238381
0.242323
0.243049
0.244275
0.247836
0.273483
0.250652
0.246149
0.220083
0.222556
0.22568
0.23072
0.215135
0.212725
0.213633
0.213295
0.218908
0.218764
0.219625
0.214451
0.202459
0.198683
0.190908
0.185514
0.179455
0.190799
0.186678
0.184
0.197506
0.185136
0.181767
0.182476
0.181949
0.174353
0.176878
0.176482
0.195816
0.193625
0.263621
0.25055
0.283801
0.325833
0.341184
0.248638
0.207896
0.245873
0.346052
0.171628
0.187073
0.218897
0.22333
0.221136
0.206995
0.213501
0.21794
0.219126
0.222342
0.234667
0.215413
0.200605
0.18816
0.190074
0.160722
0.129039
0.320068
0.31044
0.19847
0.09992
0.0934584
0.0891791
)
;

boundaryField
{
    sides
    {
        type            calculated;
        value           nonuniform List<scalar> 2(0.0891791 0.168174);
    }
    empty
    {
        type            empty;
    }
}


// ************************************************************************* //
