/*--------------------------------*- C++ -*----------------------------------*\
  =========                 |
  \\      /  F ield         | OpenFOAM: The Open Source CFD Toolbox
   \\    /   O peration     | Website:  https://openfoam.org
    \\  /    A nd           | Version:  7
     \\/     M anipulation  |
\*---------------------------------------------------------------------------*/
FoamFile
{
    version     2.0;
    format      ascii;
    class       volScalarField;
    location    "0.002";
    object      linearKE;
}
// * * * * * * * * * * * * * * * * * * * * * * * * * * * * * * * * * * * * * //

dimensions      [1 -1 -2 0 0 0 0];

internalField   nonuniform List<scalar> 
1000
(
0.154748
0
0.188672
0.377351
0.760724
0.362914
0.0941168
0.166901
0.400395
0.365618
0.0180065
0.285542
0.411432
0.875729
1.18849
0
0.0416675
0.189609
0.0983797
0.0510652
0.207576
0.0775117
0.417996
0
0.348199
0.180853
0.0116664
0.363824
0.103182
0.128108
0
0.19232
0.253547
0.0185267
0.152499
0.346342
0.738572
0.326466
0.165653
0
0.0418768
0.618992
0.0167834
0
0.183711
1.74359
0.213492
0.465
0
0.292048
0.0554155
0
0
0
0.232068
0.563351
0.402492
0.585941
0.208663
0.545027
0.311064
0.127519
0.299287
0.217327
0.0628142
0.475806
0.182367
0.574829
0.81073
0.407691
0.616287
0.685294
0.145925
0.253036
0.0216227
0.00402341
0.375958
0.309873
0.413717
0.171669
0.112356
0.156464
0
0.147557
0.174297
0.000749008
0.068327
0.239026
0.523131
0.432169
0.571267
0.354192
0.41667
0.681571
0.679987
0.55464
0.314784
0.172547
0.712378
0.0478429
0.244121
0.0462826
0.0904735
0.586999
0
0.163503
0.480616
0.114496
0.680512
0.269322
0.15782
0.409359
0.363812
0.124864
1.24428
0.956961
0.024443
0.488015
0.83837
0.155622
0.0918913
0.802517
0.252676
0.399754
0.404808
0.185509
0.705694
0.548404
0.526533
0.137118
0.459282
0.731543
0.36434
0.30609
0.716919
0.444358
0.499777
0
0.119943
0.475777
1.00064
0.717284
0.208807
0.403058
1.11197
0.523302
0.234359
0.467308
0.0552894
0.924053
0.00248921
0
0.301354
0.842091
0.164187
0.685784
0.403772
0.430829
0.279813
1.01607
0.418627
1.05478
0.156477
0.179825
0.579056
0.283276
0.582927
0.133881
0.0898513
0.152556
0.0505177
0.113387
0.0500385
1.48225
0.818511
0.386789
0.203035
0.843344
0.136884
0.356126
0.348724
0.00834957
0.281427
0.199546
0.849728
0.455668
0.546237
0.831138
0.174546
0.809692
0.124565
0.256277
0.166301
0.127234
0.7705
0.192277
0.0509651
0.098093
0.240677
0.43894
0.0205045
0.42015
0.0743442
1.43809
0.126774
0.50011
0.226215
0.374946
0.840698
0.813228
0.379495
0.256618
0.264223
0.0598429
0.334199
0.0389682
0.67333
0.163429
0.2289
0.605454
0.388621
0.109678
0.39902
0.0876684
0.513533
0.150572
0.460157
0.105946
1.75742
0.0471722
0.381039
0.501053
0.166373
0.307736
0.240872
0.240435
0.0655184
0.393961
0.808797
0.907946
0.900718
0.35864
0.910584
0.31443
0.469109
0.388508
0.757688
0.338395
0.91454
0.493556
0
0.824424
0.673742
0.313808
0.555858
0.339316
0.197261
0.231257
0.47779
0.0797988
0.147866
0.405894
0.182657
0.374905
0.0458089
0.0878092
0.210181
0.0824611
1.42344
1.37187
0.249321
0.0956687
0.15187
0.0248557
0.83056
0.413102
0.267944
0.431175
0.1604
0.751515
0.437687
0.107443
0.195315
0.534858
1.6049
0.139312
0.480979
0.272966
0.216959
0.829862
0.546688
0.334889
0.475515
0.960399
0.0655123
0.0441698
0.268522
0.5479
1.20206
1.14458
0.437363
0.347675
0.0797141
0.0180599
0.310155
0.679878
0.461473
0.401684
0
0.39615
0.451841
0.586583
1.07036
0.298964
0.550838
0.82591
0.585066
0.300269
0.415023
0.979772
0.398648
0.609157
1.16479
0.0569153
0.0607913
0.18727
0.834369
0.30913
0.911845
0.67003
0.0311727
0.834257
0.23118
0.343248
0.785014
0.250217
0.320772
0.91529
1.54986
0.397247
0.332827
0.239648
0.578548
0.388438
0.395412
0.473183
0.384401
0.393522
0.595168
0.152907
0.80364
0.231608
0.442181
0.848784
0.38987
0.186939
0.352648
0.604531
0.564258
0.316115
0.398425
0.852284
0.272707
0.762324
1.13765
0.0460229
0
0.163773
0.668079
0.413369
0.222524
0.0876856
0.572888
0.247501
0.524646
0.227681
0.563729
0.0671007
0.320046
0.592996
0.401211
0.838343
0.573379
0.94374
0.16179
0.376136
0.179012
1.53862
0.148354
0.493072
0.291974
0.322244
0.676736
0.763429
0.316925
0.422978
0.627346
0.496667
0.130831
0.598701
0.0789738
0.181655
0.448349
0.0437588
0.524812
0.278772
0.235891
0
0.441719
0.0949661
0.384157
0.334386
0.51085
0.529028
0.926299
0.139876
0.364071
0.288485
0.295825
1.09631
0.871191
0.122188
0.161443
0.154415
0.605768
0.29996
0.585152
0.639314
0.466077
0.454759
0.516967
0.654583
0.202335
0.588259
0.573687
0.135618
0.482639
0.133325
0.157998
0.775528
0.356867
0.046922
0.0490259
0.291075
0.0288297
0.379611
0.591445
0.519082
0.960959
0.547189
0.48939
0.393677
0
0.567352
0.556581
0.766961
0.163539
0.282311
0
0.168706
0
0.359692
0.330902
0.0771079
1.33174
0
0.421777
1.00922
0.71566
0.139489
0.253128
0.558008
0.114732
0.197947
0.450655
0.498875
0.449586
0.264177
0.67618
0.118894
0.0269398
0.644125
0.453777
0.117401
0.136079
0.4769
0.233859
0.378524
0.17124
0.201058
0.431323
0.589817
1.4325
0.850044
0.475899
0.162736
1.17223
1.02025
0.682727
0.626819
0
0.508386
0.250052
0.716243
0.541937
0.542897
0
0.697915
0.571066
0.335122
0.0250359
0.410514
0.652259
0.455809
0.426529
0.292745
0.356022
0.980552
0.479533
0.781541
0.881858
0.677217
0.202864
0.941135
0.17644
0.384084
0.352238
0.294945
0.309098
0.295594
0.295331
0.614151
0.0502087
0.219758
0.154336
0.587688
0.515524
0.369315
0.438183
0.104891
0.334943
0.0809831
0
0.0912787
0
0.18714
0.24786
0.439595
0.148796
0
0.300196
0.197413
0.778726
0.465825
0.391228
0.111604
0.549842
0.397168
1.42183
0.72718
1.48029
0.332707
0.388869
0.0137333
0.162776
0.585765
0.0825045
0.408336
0.780784
0.532063
0.447395
0.483002
0.456295
0.903537
0.434913
1.03577
0.494673
0.00770611
0.0313076
0.749601
0.0179323
0.481855
0.595199
0.526507
0.349061
0.542791
0.44695
0.713702
1.36808
0.61618
0.252843
0.248335
0.763689
1.01804
0.459678
0.154919
0.574054
0.334342
0.704133
0
1.23377
0.786471
0.329669
0.754726
0.246109
0.294065
0.124058
0.50906
0.0427581
1.00283
0.276172
0.54035
0.700396
0.644172
0.0738651
0.659521
0.54717
0
0.266108
0.369159
0.340036
0.896822
0.446684
0.0626137
0.942197
0.142088
0.70163
0.222005
0.793599
0.965638
0.166161
0.0493331
0.48266
0.0445234
0.916062
0.874364
0.269984
0.25932
0.110375
0.909091
0.00541576
0.619487
1.61546
0
0.480362
0.241225
0.786898
0.546438
0.0688725
0.628412
0.71565
0.599428
0.265182
0
0.464896
0.545754
0.445777
0.205363
0.480142
0.353677
0.398966
0.0144736
0.662326
0.41708
0.570038
0.520466
0.0845808
0.722281
0.404081
0.31228
0.0447326
0.501232
0.619018
0.673289
0.985146
0.130151
0.676288
0.623076
0.352806
0.470564
0.643519
0.266599
0.632482
0.265459
0.584883
0.625386
0.0566705
0
0.517321
0.746068
0.438532
0.494511
0.46622
0.610934
0.445515
1.21083
0.3792
0.176666
0.235993
0.72082
0.220837
1.19482
0.232856
0.157878
0.52219
0.488195
0.235726
0.128431
1.13618
0.635084
0.539841
0.159068
0.0299798
0.109537
0
0
0.787142
0.216231
0.521542
0.878272
0.43186
0.310082
0.359487
0.953602
0.372754
0.89108
0.314417
0.265092
0.222469
0.510091
0.440722
0.12963
0.508894
0.246236
0.706605
0.591308
0.413761
0.948851
0.219188
0.361768
0.805567
0.492335
0.0504223
1.1673
0
0.51708
0
0.62601
0.130886
1.09254
0.0149732
0.344971
0
0.350703
0.735511
0.241301
0.055684
0.672404
0.912261
0.900885
0.764447
0.490295
0.716312
0.758646
0.477023
0.0314106
0.727873
0.821127
0.382677
1.03766
0.223774
0.232339
0.232872
0.443522
0.627576
0.582936
0.158241
0.334589
0.136316
0.288266
0.582098
0.313541
0.913265
0.552952
0.516528
0.138899
0.259055
0.0600135
0.615673
0.105685
0.157507
0.551268
0.382546
1.01187
0.406255
0.604219
1.08906
0.773624
0.31555
0.471135
0.0587685
0.592797
0.423497
0.301546
0.0434509
0.296869
0.479002
0.251424
0.214211
0.058164
0
0.449374
0.397419
0.217868
0
0.0163138
0.575905
1.12704
0.603431
0.723678
0.594827
0.133072
0.286763
0.529901
1.01054
0.497673
0.407959
0.340807
0.525461
0.416601
0.329626
0.832411
0.44793
0.142821
0.134612
0.56426
0.851109
0.064549
0.105733
0.0670066
1.00791
0.456989
0.595457
0.418552
0.459441
0.578334
0.241823
0.632123
0.57167
0.0938778
0.560405
0.337209
0.524191
0.353675
0.50341
0.642639
0.344989
0
0.144802
0.0120367
0.924352
0.419395
0.386437
0.423821
0.986241
0.141308
0.152525
0.191235
0.629666
1.09394
0.280119
0.7066
0.501649
0.975957
0.574597
0.15718
0.401742
0.770723
0.304849
0.320512
0.598548
0.283704
0.711039
0.204636
0.211579
0.281949
0.384609
0.727982
0
0.495076
0.478231
0.294048
0.49824
0.730932
0.273749
0.359296
0.477202
0.883778
0.0731859
0
0.733037
0.453835
0.258578
0.499754
0.592286
0.100098
0.368058
0.268909
0.163035
0.428584
0.657121
0.401849
0.0998964
0.68056
1.12167
0.853952
0.151512
0
0.451119
0.0224573
0.110592
0
0.035316
0.0240562
0
0.120035
0.531815
0.143655
0.420692
0.0338384
0.0102754
0.0311635
0.65861
0
0.0729185
0.223696
0.590597
0.218427
0.185285
0.243945
0.498836
0.215956
0.135474
0
0.0658626
0.281855
0.577782
0.530148
0.353204
0.753835
0.255687
0.146934
0.19512
0.814385
0.751627
0.886234
0.42623
0.119332
0.1132
0.13326
0.0267489
0.14456
0.211573
0.21947
0.288915
0.0706389
0.349959
0.151175
0.296575
0.575365
0.212305
0.141424
0.189205
0.685711
0.196824
0.0641278
0.101938
0.316365
0.154941
0.35346
0.316275
0.365941
0
0
0.660328
0
0.51225
0.555569
1.17892
0.103482
0.0304947
0.432312
0.432739
0.425643
0
0.298731
0
0
0.428244
0
)
;

boundaryField
{
    sides
    {
        type            zeroGradient;
    }
    empty
    {
        type            empty;
    }
}


// ************************************************************************* //
