/*--------------------------------*- C++ -*----------------------------------*\
  =========                 |
  \\      /  F ield         | OpenFOAM: The Open Source CFD Toolbox
   \\    /   O peration     | Website:  https://openfoam.org
    \\  /    A nd           | Version:  7
     \\/     M anipulation  |
\*---------------------------------------------------------------------------*/
FoamFile
{
    version     2.0;
    format      ascii;
    class       volScalarField;
    location    "0.002";
    object      linearKE;
}
// * * * * * * * * * * * * * * * * * * * * * * * * * * * * * * * * * * * * * //

dimensions      [1 -1 -2 0 0 0 0];

internalField   nonuniform List<scalar> 
1000
(
0.922335
0.824731
0.952362
1.10536
1.17133
0.803486
1.06654
1.01766
1.1627
1.07566
1.15341
1.40948
0.866931
1.55288
0.983081
1.07028
1.18832
1.27972
1.35755
1.46732
1.61487
1.30493
1.2154
1.30711
1.73672
1.28028
1.73445
1.70182
1.78022
1.43683
1.74844
1.29964
1.44252
1.41696
1.44246
1.4742
1.33505
1.48171
1.96252
1.90542
2.02164
1.55945
1.75082
1.87039
1.86478
1.97494
2.07584
1.67029
1.70068
2.21692
1.89039
1.5019
2.00036
1.80884
2.08032
1.88992
2.03453
1.76743
2.23513
2.24539
1.95494
2.22499
2.01193
1.92309
2.28186
2.70523
2.59344
2.22383
2.4217
2.54329
2.31075
2.47017
2.49421
2.52143
2.48485
2.4271
2.53351
2.66223
2.26153
2.66663
2.34297
2.54147
2.44518
2.55802
2.70055
2.67902
2.80517
2.52138
3.21879
2.91132
2.81572
2.56241
2.40122
2.42475
2.54648
2.4481
2.59935
2.733
2.63639
2.26084
2.29332
2.48332
2.7653
2.51078
2.6312
2.73151
2.57033
2.24346
2.9569
3.04298
2.70509
2.61978
2.76191
2.23536
3.01957
2.56749
2.88964
2.49791
2.67776
2.54577
2.50577
2.61809
2.78679
2.93056
2.84765
2.45937
2.84539
2.7219
2.87686
2.28882
2.67183
3.06641
3.15321
2.08769
2.69834
2.47906
3.15287
2.42688
2.78179
2.66368
2.73188
2.60753
2.10245
2.9267
2.61307
2.82793
2.95744
2.41538
2.43733
2.7799
2.67253
2.47207
2.38947
2.55413
2.24918
2.20322
2.42642
2.90721
2.4893
2.43724
3.21061
2.46971
2.40783
2.67234
2.44595
2.81237
2.68496
2.12136
2.55336
2.25964
2.64457
2.54179
2.6214
2.81631
2.56202
2.27018
2.13244
2.47916
2.28758
2.25859
2.44688
2.52316
2.33914
2.36969
2.79639
2.98344
2.83735
2.60705
2.69053
2.96836
2.57949
2.4654
2.3496
2.97075
2.48318
2.34873
2.64634
2.62021
2.54779
2.47172
2.43069
2.24965
2.93593
2.84777
3.02008
2.76337
2.96666
2.14793
2.40643
2.65455
2.49933
2.81339
2.84863
2.8121
2.83324
2.67859
2.74376
2.44195
2.63879
2.39636
2.33334
2.28116
2.72542
2.34982
2.91725
2.5974
2.3858
2.81693
2.51786
2.64384
2.85698
2.32239
2.91381
2.89653
2.27237
3.10277
2.9918
2.95885
2.63569
2.65597
2.89632
2.63297
2.77082
2.65499
2.4019
2.5952
2.75343
2.26629
2.48306
2.42378
2.56045
2.48318
2.55383
2.74541
3.09864
2.46217
2.08039
2.03668
2.85858
2.29813
2.48039
2.48655
2.58012
2.16184
2.78983
2.55366
2.75338
2.33211
2.72706
2.09356
2.54818
2.6228
2.74893
3.05033
2.11723
2.24771
2.79059
3.17412
2.54018
2.72943
2.27579
2.84376
2.65501
2.75496
2.70114
2.56282
2.54602
2.48433
2.16263
3.00135
2.83993
2.44685
2.59975
3.11085
3.11399
2.86804
2.47512
2.83746
2.58261
2.27959
2.18566
2.5604
2.83701
2.28052
2.4763
2.12363
2.53091
3.13764
2.54098
2.80807
2.28743
2.38102
2.8926
3.09188
2.51065
2.47817
2.86907
2.58198
3.01328
3.08263
2.53289
2.45322
2.33706
2.51819
2.49845
2.57456
2.4268
2.61112
2.92862
2.90003
2.63231
2.40834
2.18536
2.41477
2.46134
2.86554
2.28234
2.64506
2.83971
2.57084
2.82568
2.45391
2.48956
2.66068
2.54162
2.39935
2.459
3.13714
2.5143
2.19438
2.2898
2.39339
2.88402
2.63483
2.78898
2.66156
3.05976
2.40967
2.35407
2.50173
2.98539
2.45253
2.79798
2.8556
2.72654
2.65113
2.24429
2.79885
2.88191
2.42293
2.34429
2.46721
2.72459
2.58562
2.61899
3.0027
2.81837
2.70145
2.94447
2.39152
2.33581
2.58468
2.49147
2.90052
2.5211
2.25055
2.54687
2.49222
2.21913
2.68694
2.52832
2.95576
3.07475
2.51192
3.4923
2.65229
2.73317
2.64789
2.4496
2.7679
2.66258
2.87978
2.61423
2.3966
2.65893
2.60219
2.68202
2.62856
2.16032
2.60916
2.92833
2.79478
2.84292
2.78022
2.80242
2.46314
2.62456
2.29099
2.84456
3.0241
2.90837
2.56863
2.68033
2.27631
2.17787
2.3492
2.46305
2.4128
2.65307
2.45303
2.08101
2.52085
2.46065
2.73667
2.40127
2.5214
2.37936
2.11749
2.05464
2.62262
2.02496
2.44957
2.10187
1.85285
2.0229
1.95272
2.39155
1.92385
1.99989
1.98324
1.7336
1.89218
1.64656
2.30502
1.80593
1.73424
1.72435
1.64528
2.07647
1.79949
1.85981
1.76492
1.89418
1.48998
1.72691
1.33258
1.83855
1.44954
1.35872
1.61368
1.50567
1.92666
1.59628
1.64567
1.3419
1.55635
1.57382
1.64119
1.69069
1.63401
1.48477
1.75843
1.29974
1.60964
1.6776
1.36846
1.36943
1.39131
1.37952
1.27256
1.38878
1.23167
1.62237
1.58048
1.71986
1.34792
1.5544
1.16684
1.51843
1.52286
1.84612
1.5626
1.28074
1.66579
1.69735
1.29833
1.48142
1.65167
1.47109
1.25106
1.30414
1.64012
1.36109
1.79405
1.61882
1.33659
1.72892
1.59232
1.48434
1.53528
1.57667
1.48144
1.67132
1.52368
1.52098
1.57762
1.83247
1.6673
1.77972
1.70911
1.87618
1.48272
1.44653
1.38147
1.85406
1.31936
1.49231
1.45168
1.81784
1.50719
1.53474
1.40631
1.49251
1.41319
1.30976
1.68739
1.79103
1.37993
1.50298
1.25707
1.79075
1.36881
1.44163
1.57565
1.83986
1.52474
1.13995
1.35313
1.72086
1.43812
1.43128
1.24149
1.68653
1.61567
1.6031
2.00612
1.39775
1.32906
1.32401
1.42729
1.49857
0.998605
1.22608
1.44589
1.63883
1.8026
1.36819
1.83969
1.2725
1.50421
1.76459
1.25724
1.19746
2.03816
1.1354
1.20912
1.33532
1.30001
1.11474
1.57877
1.13015
1.34149
0.96045
0.737064
1.09041
1.01241
0.771924
0.908202
0.778018
0.743183
0.988386
0.899308
0.693133
0.6563
0.630351
0.922866
1.01311
1.04516
0.901553
0.418508
0.603036
0.89489
0.641257
0.787894
0.913743
0.654609
0.917273
0.893205
0.677885
0.787724
0.773967
0.696029
0.684075
0.79186
0.820051
0.924698
1.00149
0.869031
0.89591
0.826077
0.921886
0.8188
0.711916
0.485436
0.916961
0.953019
0.721358
0.954289
0.568614
0.642576
0.770901
1.03255
0.720049
0.75767
0.940804
0.755784
0.663997
1.0041
0.888612
0.492158
0.739569
0.893599
0.924533
0.66347
0.745885
0.690698
0.671449
0.673917
0.8031
0.812971
0.429057
0.732572
0.704343
0.863492
0.757739
0.82424
0.721076
0.649948
0.917639
0.72122
0.705625
0.666758
0.689257
0.623005
0.659553
0.753874
0.597605
0.729079
0.536981
0.801122
1.09434
0.78712
0.884154
0.945109
0.792285
1.00371
0.994097
1.16172
0.654852
0.899532
0.818852
0.711115
1.04165
0.977573
0.887387
0.949269
0.893483
0.58147
0.617937
0.892477
0.667749
0.808127
0.468653
0.635463
0.52546
0.642077
0.838972
0.545496
0.991907
0.88552
0.762645
0.712437
1.08841
0.831805
0.966855
0.566135
0.701269
0.748741
0.752795
0.647009
0.634591
0.82531
0.715161
0.943611
0.498025
0.739258
0.797893
0.469958
0.658512
0.813925
0.724865
0.79969
0.838224
0.535732
0.854002
0.792223
0.673414
0.50214
0.606956
0.864094
0.781555
0.883979
0.928257
0.787209
0.650557
0.974225
0.461874
0.712214
0.947873
0.752457
0.97889
0.713296
0.591075
0.83658
1.07228
0.659863
0.748805
0.663903
0.659884
0.802371
0.744876
0.562509
0.663649
0.748968
0.857774
0.687239
0.719649
0.601862
0.788236
0.844626
0.827522
0.72201
0.58046
0.674405
0.774367
0.769417
0.688996
0.845517
0.803872
0.837712
0.710256
0.618992
0.798025
0.737975
0.764515
0.572875
0.663863
1.05678
0.710394
0.599952
0.792704
0.857061
0.85941
0.778187
0.844342
0.884413
0.896797
0.615886
0.659134
0.629077
0.832108
0.81967
0.645802
0.868691
0.776437
0.811241
0.782544
0.660174
0.584311
0.739134
0.452322
0.668423
0.93938
0.816683
0.702277
0.449489
1.08306
0.750989
0.584788
0.960928
0.700649
0.656936
0.711615
0.921868
0.607259
0.706468
0.762095
0.776344
0.66822
0.801293
0.78476
0.769979
0.853162
0.500034
0.620571
0.928732
0.528288
0.842472
0.721632
0.794309
0.901759
0.893506
0.668344
0.779413
0.880116
0.713039
0.642993
0.682733
0.722053
0.821657
0.487306
0.906979
1.10725
0.535058
0.873172
0.612159
0.647269
0.460239
0.508117
0.741594
0.769202
0.817964
0.649747
0.609864
0.852623
0.687968
0.667941
0.610185
1.16974
0.849789
0.869501
0.950943
0.882686
0.600551
0.849329
0.611153
0.79528
0.863736
0.802038
0.869382
0.972161
1.05118
0.876088
0.861781
0.60905
0.783011
0.781637
0.530268
0.739815
0.696436
0.635525
0.942898
0.721205
0.805537
1.14309
0.572549
0.687516
0.732662
0.641388
0.746084
0.827241
0.623885
0.900565
0.772245
0.692633
0.530697
0.877261
0.783675
0.767529
0.616517
0.785606
0.864159
0.952567
1.22834
0.671796
0.800028
0.516895
0.693854
0.7883
0.599716
0.674289
0.7149
0.633748
0.683465
0.731494
0.841914
0.757659
0.533067
0.448819
0.5722
0.895161
0.526255
0.527736
0.720977
0.84098
0.73127
0.733444
0.573163
0.619201
0.714337
0.481272
0.431365
0.654356
0.481916
0.521099
0.484891
0.699368
0.520989
0.69319
0.397201
0.413447
0.491516
0.546715
0.475278
0.638553
0.512328
0.497244
0.467187
0.545686
0.485869
0.390963
0.311321
0.340916
0.504129
0.368984
0.449807
0.441906
0.337946
0.283683
0.549843
0.375754
0.294213
0.388242
0.370298
0.32972
0.307949
0.370019
0.364082
0.496056
0.282159
0.57302
0.3438
0.375565
0.334115
0.250216
0.278052
0.536526
0.477203
0.302562
0.409227
0.263693
0.201614
0.361843
0.371462
0.380366
0.344393
0.256177
0.306538
0.226846
0.236568
)
;

boundaryField
{
    sides
    {
        type            zeroGradient;
    }
    empty
    {
        type            empty;
    }
}


// ************************************************************************* //
