/*--------------------------------*- C++ -*----------------------------------*\
  =========                 |
  \\      /  F ield         | OpenFOAM: The Open Source CFD Toolbox
   \\    /   O peration     | Website:  https://openfoam.org
    \\  /    A nd           | Version:  7
     \\/     M anipulation  |
\*---------------------------------------------------------------------------*/
FoamFile
{
    version     2.0;
    format      ascii;
    class       volScalarField;
    location    "0.002";
    object      linearKEMean;
}
// * * * * * * * * * * * * * * * * * * * * * * * * * * * * * * * * * * * * * //

dimensions      [1 -1 -2 0 0 0 0];

internalField   nonuniform List<scalar> 
1000
(
1.05921
1.15031
1.2178
1.28704
1.29721
1.33888
1.40501
1.45299
1.47974
1.50407
1.53266
1.56513
1.62915
1.67909
1.70293
1.71968
1.7911
1.80348
1.84637
1.84837
1.85552
1.89485
1.95313
1.97577
2.01589
2.02683
2.03786
2.06468
2.08644
2.10806
2.13265
2.13813
2.13539
2.17881
2.17678
2.23932
2.29716
2.26241
2.25029
2.32817
2.30997
2.36194
2.35745
2.431
2.43524
2.38473
2.41505
2.43211
2.45137
2.48814
2.4999
2.50967
2.52468
2.48523
2.50908
2.50325
2.51962
2.54443
2.54872
2.5618
2.54397
2.58519
2.58852
2.56469
2.56014
2.55771
2.56005
2.57423
2.58384
2.58482
2.59124
2.58185
2.58559
2.57645
2.58096
2.55583
2.60675
2.59681
2.64065
2.57613
2.65732
2.61136
2.64025
2.68203
2.61955
2.6371
2.57799
2.58862
2.61521
2.61999
2.61997
2.62261
2.59891
2.61704
2.6333
2.63471
2.61589
2.63828
2.62359
2.634
2.60813
2.61594
2.62046
2.65174
2.63174
2.58837
2.63195
2.57841
2.61119
2.59467
2.59867
2.58876
2.62485
2.61922
2.63456
2.60535
2.62874
2.60477
2.59318
2.61418
2.60119
2.60455
2.60719
2.62783
2.64043
2.59562
2.61645
2.63126
2.65202
2.62221
2.65415
2.59859
2.61637
2.65189
2.62474
2.62465
2.64365
2.68026
2.64723
2.65549
2.62883
2.65862
2.61318
2.64104
2.63521
2.62192
2.64145
2.63731
2.64823
2.65977
2.67509
2.64096
2.65067
2.63225
2.71146
2.62913
2.6408
2.65482
2.65544
2.65609
2.60318
2.66868
2.62881
2.67309
2.67393
2.64965
2.60353
2.62262
2.6156
2.63789
2.65889
2.71393
2.66335
2.62185
2.63048
2.63877
2.61767
2.62621
2.63882
2.62987
2.63664
2.62706
2.58745
2.62883
2.64466
2.591
2.60508
2.62138
2.63828
2.63319
2.60794
2.60411
2.59923
2.58827
2.59485
2.58419
2.60846
2.6467
2.60361
2.59579
2.61788
2.58763
2.58351
2.56387
2.57467
2.57681
2.59301
2.59817
2.59775
2.60835
2.54486
2.56957
2.5939
2.5572
2.54263
2.60949
2.58971
2.56555
2.58822
2.60095
2.59102
2.58668
2.57897
2.56236
2.62588
2.58648
2.57775
2.57352
2.55845
2.59176
2.58046
2.58866
2.58196
2.58721
2.59327
2.59555
2.58462
2.62274
2.57646
2.63853
2.60046
2.57002
2.55926
2.59536
2.59222
2.61317
2.58484
2.63339
2.64258
2.62246
2.62357
2.6229
2.61256
2.58602
2.63688
2.60756
2.59824
2.58567
2.60534
2.5869
2.60765
2.59807
2.61752
2.54379
2.6079
2.58667
2.61079
2.57363
2.57348
2.65635
2.57247
2.53822
2.60319
2.58951
2.59429
2.5756
2.62262
2.60114
2.57239
2.58292
2.59211
2.61218
2.60118
2.57787
2.59155
2.57312
2.57421
2.56293
2.59537
2.61303
2.6425
2.59087
2.5935
2.57759
2.62455
2.55405
2.58699
2.61102
2.57944
2.58086
2.56173
2.57475
2.59622
2.60565
2.55499
2.58138
2.58955
2.63933
2.59524
2.59163
2.58445
2.6341
2.63123
2.57084
2.60406
2.58866
2.58372
2.58169
2.59139
2.5544
2.593
2.5812
2.54022
2.59467
2.63214
2.61412
2.62407
2.6
2.59452
2.61724
2.58136
2.56384
2.59143
2.59235
2.57138
2.60599
2.57626
2.58934
2.58863
2.58646
2.61396
2.61392
2.60628
2.61748
2.60917
2.64108
2.58912
2.57924
2.6155
2.60278
2.66759
2.63663
2.59025
2.5971
2.65135
2.66787
2.65823
2.64082
2.62447
2.62248
2.63595
2.64117
2.63075
2.66379
2.61799
2.65724
2.62589
2.61133
2.62278
2.65804
2.66695
2.62371
2.62522
2.68469
2.65989
2.6472
2.63061
2.63431
2.65345
2.65254
2.65972
2.66966
2.6875
2.63335
2.62696
2.59997
2.62569
2.59915
2.62979
2.62114
2.65973
2.62407
2.65912
2.61356
2.64535
2.60677
2.63558
2.59895
2.63134
2.59214
2.62677
2.60612
2.61487
2.59626
2.60238
2.63288
2.61557
2.60369
2.61287
2.58302
2.64328
2.60921
2.59297
2.61388
2.64627
2.64899
2.60613
2.67817
2.60433
2.64996
2.63622
2.65034
2.63683
2.61681
2.66648
2.64398
2.63136
2.63085
2.62352
2.62696
2.65477
2.62461
2.62278
2.60611
2.55649
2.58933
2.64702
2.6409
2.58838
2.60002
2.55987
2.58127
2.56469
2.56704
2.54543
2.52145
2.51964
2.51852
2.53343
2.49999
2.48548
2.51587
2.46741
2.46925
2.46306
2.48686
2.48081
2.46746
2.4116
2.39104
2.34805
2.36723
2.34232
2.3244
2.3262
2.29487
2.30507
2.28703
2.22319
2.21787
2.21689
2.18895
2.18343
2.15865
2.11988
2.10005
2.09492
2.06081
2.07877
2.03492
1.9752
1.97304
1.93433
1.92102
1.90596
1.87242
1.88093
1.81877
1.81638
1.77112
1.75883
1.72297
1.74229
1.69812
1.69042
1.66212
1.64423
1.63576
1.5851
1.57034
1.55799
1.4942
1.48243
1.42959
1.48278
1.44722
1.4509
1.40847
1.41494
1.44016
1.42434
1.39591
1.38433
1.39007
1.35441
1.38164
1.37434
1.36462
1.32771
1.33999
1.33486
1.35917
1.33686
1.32355
1.3058
1.30163
1.2537
1.25272
1.26176
1.22529
1.23603
1.24556
1.24112
1.23894
1.22297
1.21065
1.22806
1.19971
1.18143
1.20348
1.15978
1.15696
1.16171
1.17703
1.16802
1.12646
1.11134
1.0763
1.10251
1.10573
1.07478
1.0928
1.06336
1.06286
1.04748
1.04589
1.04331
1.02144
1.03082
1.04899
1.03461
1.04995
1.01228
1.01243
0.971284
0.978637
1.01047
0.978477
0.94612
0.935491
0.945558
0.937987
0.921703
0.903798
0.900551
0.906361
0.916787
0.881614
0.893925
0.887453
0.87994
0.880398
0.83717
0.836773
0.814303
0.803174
0.802548
0.798325
0.802413
0.828071
0.795123
0.768396
0.786057
0.772975
0.771821
0.768263
0.767809
0.774331
0.781728
0.77964
0.75003
0.772222
0.761424
0.777619
0.769223
0.781721
0.782897
0.776547
0.743057
0.739122
0.739801
0.745553
0.753138
0.775155
0.752374
0.732626
0.765016
0.773086
0.771611
0.759919
0.741692
0.774493
0.786825
0.768478
0.760409
0.774434
0.766335
0.795414
0.778814
0.771081
0.769425
0.770712
0.781097
0.790797
0.773046
0.772474
0.764647
0.74281
0.780115
0.784861
0.802975
0.783138
0.741137
0.769316
0.739162
0.745993
0.768069
0.766078
0.777234
0.739597
0.749761
0.760638
0.766067
0.757489
0.73832
0.738655
0.742566
0.72573
0.739759
0.740687
0.745606
0.748007
0.765548
0.740058
0.741124
0.769875
0.750525
0.775629
0.761673
0.761499
0.777018
0.761341
0.771604
0.793194
0.760537
0.758998
0.764834
0.776371
0.799473
0.772657
0.79146
0.7796
0.788792
0.780406
0.776786
0.744983
0.765234
0.771905
0.767531
0.731881
0.771209
0.747512
0.768234
0.75904
0.756405
0.757703
0.759402
0.752836
0.747718
0.765269
0.76693
0.766479
0.773265
0.761627
0.75397
0.765864
0.762168
0.758519
0.764256
0.7623
0.760151
0.765221
0.775782
0.785053
0.782839
0.763182
0.746767
0.767243
0.77122
0.76268
0.753308
0.762629
0.754572
0.781316
0.755846
0.732054
0.741147
0.744252
0.745953
0.751462
0.764567
0.768877
0.791729
0.782228
0.787877
0.740677
0.761075
0.770954
0.777814
0.78142
0.768722
0.760754
0.735802
0.728847
0.760664
0.761046
0.783585
0.781402
0.746788
0.743204
0.780472
0.789077
0.760287
0.781867
0.765862
0.779764
0.759961
0.78083
0.774607
0.782436
0.765941
0.751078
0.777019
0.751735
0.752352
0.741826
0.748966
0.756545
0.766768
0.756901
0.759736
0.749097
0.767905
0.744866
0.745415
0.729542
0.76387
0.769359
0.746035
0.738527
0.735596
0.705447
0.730239
0.778804
0.775363
0.764674
0.760561
0.783075
0.766144
0.767831
0.732076
0.746832
0.733272
0.764616
0.76132
0.745393
0.759154
0.737963
0.770414
0.734873
0.746437
0.778622
0.77232
0.75028
0.759919
0.748389
0.775762
0.753575
0.766819
0.732476
0.746395
0.758236
0.742274
0.733564
0.749923
0.752065
0.760537
0.765099
0.755633
0.754865
0.741678
0.717084
0.728217
0.751404
0.741809
0.73577
0.745413
0.73542
0.727818
0.717718
0.726174
0.726964
0.730881
0.734519
0.766812
0.752343
0.760351
0.782192
0.757418
0.749295
0.744198
0.756223
0.748622
0.768832
0.740799
0.746372
0.727279
0.740139
0.744717
0.737713
0.747107
0.750278
0.743449
0.755688
0.743207
0.742308
0.765932
0.73869
0.736756
0.772855
0.757574
0.736968
0.746199
0.744076
0.751204
0.755415
0.746086
0.759666
0.758874
0.790863
0.789767
0.776511
0.750637
0.759127
0.773501
0.770316
0.773051
0.769445
0.753188
0.761364
0.771011
0.765839
0.772269
0.774489
0.755604
0.762068
0.750233
0.758964
0.752486
0.7342
0.747262
0.771068
0.78134
0.751713
0.728561
0.750035
0.768689
0.733063
0.7395
0.772967
0.758717
0.757279
0.712314
0.748606
0.763136
0.749495
0.764895
0.784422
0.779685
0.775528
0.745903
0.766612
0.768601
0.752697
0.715625
0.748195
0.742897
0.743305
0.755796
0.74358
0.733754
0.771191
0.777811
0.771857
0.75403
0.755541
0.735561
0.743217
0.757107
0.74012
0.739003
0.748034
0.746903
0.750103
0.732778
0.745575
0.730763
0.709228
0.728118
0.724049
0.695207
0.730374
0.728151
0.696573
0.688926
0.706595
0.69145
0.678808
0.668264
0.65878
0.667158
0.67445
0.675025
0.670596
0.653372
0.684721
0.690989
0.656081
0.654725
0.64269
0.659822
0.655408
0.674594
0.659322
0.628645
0.638754
0.642517
0.61856
0.610674
0.614043
0.616726
0.614205
0.599846
0.579545
0.594791
0.562646
0.559451
0.557039
0.553964
0.533906
0.529647
0.530724
0.516508
0.502468
0.507862
0.500339
0.486486
0.492204
0.472457
0.459461
0.461492
0.419739
0.426545
0.42426
0.417555
0.388697
0.375339
0.358911
0.34245
0.316737
)
;

boundaryField
{
    sides
    {
        type            calculated;
        value           nonuniform List<scalar> 2(0.316737 1.05921);
    }
    empty
    {
        type            empty;
    }
}


// ************************************************************************* //
