/*--------------------------------*- C++ -*----------------------------------*\
  =========                 |
  \\      /  F ield         | OpenFOAM: The Open Source CFD Toolbox
   \\    /   O peration     | Website:  https://openfoam.org
    \\  /    A nd           | Version:  7
     \\/     M anipulation  |
\*---------------------------------------------------------------------------*/
FoamFile
{
    version     2.0;
    format      ascii;
    class       volVectorField;
    location    "0.002";
    object      momentumMean;
}
// * * * * * * * * * * * * * * * * * * * * * * * * * * * * * * * * * * * * * //

dimensions      [1 -2 -1 0 0 0 0];

internalField   nonuniform List<vector> 
500
(
(-0.00465382 -6.23903e-05 4.34595e-05)
(-0.00441645 3.52053e-05 1.07035e-05)
(-0.00419797 -1.75057e-05 -2.65192e-05)
(-0.00398055 -1.50522e-05 9.37054e-06)
(-0.00378082 -5.60572e-05 5.22478e-05)
(-0.00358959 2.82227e-05 0.000194078)
(-0.00339888 -2.99679e-05 6.80178e-05)
(-0.00320097 -0.000167913 2.4866e-05)
(-0.00302485 -5.82034e-06 -3.01105e-05)
(-0.00283983 -0.000183967 -2.05468e-06)
(-0.00267986 1.60637e-05 3.39165e-05)
(-0.00249775 -3.20974e-05 7.91104e-05)
(-0.00234346 -0.000247613 -0.000124492)
(-0.00217489 -0.000120434 -0.000105803)
(-0.00201681 -6.23403e-05 -0.000138459)
(-0.0018561 0.000121196 -0.000123406)
(-0.00171543 0.000104863 -0.000313823)
(-0.00156717 0.000105548 6.54194e-07)
(-0.00143498 1.66712e-05 -0.000100517)
(-0.0013198 -0.00012437 0.00011866)
(-0.00120245 9.60731e-05 0.000345269)
(-0.00109428 3.93825e-05 -3.99728e-05)
(-0.00100417 -0.000104781 0.000307232)
(-0.000897484 -0.000209956 0.000349337)
(-0.000790022 -0.000181873 7.32351e-05)
(-0.000686317 -1.40009e-05 0.000274555)
(-0.000589247 0.000249744 -1.22906e-05)
(-0.000510385 0.000128202 -0.000109665)
(-0.000430455 0.000116909 -0.000142327)
(-0.00033703 0.000250379 -0.000162695)
(-0.000271247 -1.89275e-05 7.14823e-05)
(-0.000223432 6.01492e-05 1.70608e-05)
(-0.000174062 -5.74683e-05 3.35846e-05)
(-0.000115619 -0.000184455 -9.98202e-05)
(-6.40925e-05 0.000187143 0.000132321)
(-5.20116e-05 0.000160663 0.00012864)
(-2.73957e-05 4.13491e-05 -0.000115805)
(4.95892e-06 -0.000114634 -0.000189504)
(1.33964e-05 -0.000270771 -0.000333767)
(2.34108e-05 -4.26101e-05 -0.000330706)
(4.70835e-05 0.000207888 -0.000158828)
(5.81653e-05 0.000114649 -2.90239e-05)
(6.23242e-05 0.000140357 -0.000160216)
(6.56881e-05 0.000337145 0.000165687)
(6.09293e-05 0.000209063 0.000213499)
(6.32093e-05 0.000198594 0.000461649)
(6.03919e-05 0.000172706 -0.00012691)
(6.2339e-05 0.000385991 -0.000386019)
(6.58371e-05 0.00023741 -0.000275464)
(6.68858e-05 -0.000107342 -0.000282737)
(6.41679e-05 -8.95083e-05 6.75213e-05)
(5.28579e-05 -6.23233e-05 0.000135254)
(3.01477e-05 0.000110249 -6.49277e-05)
(2.82874e-05 0.000106502 -0.000430009)
(2.87651e-05 9.63788e-05 -0.000229185)
(4.87275e-05 0.000439726 -0.000158705)
(4.47781e-05 0.000752871 -0.000202525)
(5.11525e-05 0.000339556 -0.000118283)
(4.71141e-05 0.000428378 2.68605e-06)
(3.17707e-05 0.00034506 -0.000103438)
(6.35326e-06 0.000168217 -0.000176432)
(-1.93846e-05 0.000297364 -0.000149808)
(-1.019e-05 0.00056459 9.97421e-06)
(-2.98314e-06 6.32735e-05 0.000155052)
(9.98367e-06 -4.9557e-05 0.000102608)
(9.1211e-06 -0.000437535 5.27099e-05)
(1.11387e-05 -0.000306249 6.48011e-05)
(3.00327e-05 -7.88734e-05 -0.000166242)
(4.64555e-05 2.04945e-05 0.000296007)
(4.0436e-05 2.78135e-05 0.000109837)
(5.98868e-05 -4.73628e-05 -0.000242715)
(6.12439e-05 -0.000284289 -0.000256378)
(6.59883e-05 -0.000319302 -0.000399758)
(7.05757e-05 -4.89568e-05 -0.000143824)
(7.27237e-05 0.000294491 0.000110274)
(8.24189e-05 0.000266565 0.000154744)
(7.93703e-05 -7.1994e-06 0.000240591)
(7.64835e-05 3.82092e-05 6.48461e-05)
(7.86738e-05 -0.000300233 -0.000168144)
(8.98712e-05 -0.000285719 -0.000161458)
(0.000103907 4.46338e-05 -0.000304453)
(7.76347e-05 0.00032392 1.9802e-05)
(6.91713e-05 0.000205875 -7.79444e-06)
(9.1564e-05 0.000150504 -1.75217e-05)
(9.45049e-05 0.00039686 0.000297992)
(9.32624e-05 0.000251949 0.000456754)
(7.0767e-05 -7.18379e-06 0.000172623)
(8.10368e-05 5.65906e-05 0.000136426)
(7.34698e-05 0.0001966 3.7327e-05)
(6.59342e-05 0.000110552 0.000153943)
(6.77516e-05 -5.95668e-06 0.000158373)
(7.75095e-05 -9.46706e-05 0.000299266)
(5.39586e-05 -2.49442e-05 0.000467082)
(5.62361e-05 -0.000209502 0.000364436)
(6.2254e-05 -0.0005778 0.00020877)
(3.71717e-05 -0.000166778 0.000118523)
(4.05431e-05 5.33757e-06 -3.29164e-05)
(5.06584e-05 -0.000145688 -0.000534007)
(4.13826e-05 -0.00023764 -0.000711352)
(6.2181e-05 -7.46123e-05 -0.000274437)
(5.8556e-05 -0.000247412 0.000233074)
(5.42012e-05 -0.000222907 0.000355635)
(6.73318e-05 -0.000296021 0.000189942)
(6.17886e-05 -0.000380353 0.00018473)
(5.02632e-05 -0.000346807 -6.97273e-05)
(5.53991e-05 -0.000284863 -9.75509e-05)
(5.31362e-05 6.21205e-05 -0.000104912)
(6.67132e-05 0.000302015 -2.24531e-05)
(5.24726e-05 0.00021204 -9.73875e-05)
(4.70242e-05 0.000117823 1.5617e-05)
(3.61377e-05 0.000270256 -0.000106384)
(2.02001e-05 0.00019938 -0.000241226)
(1.04929e-05 -7.56204e-05 -0.000296707)
(-8.44271e-06 -0.000264793 -8.83218e-05)
(-2.04401e-05 -0.000302812 8.16005e-05)
(-1.96348e-05 -0.000212768 0.000200595)
(-5.49106e-05 -0.000179552 -0.00018418)
(-6.97117e-05 8.03779e-05 -1.79894e-06)
(-9.26906e-05 -3.20177e-05 0.000242585)
(-0.000105952 0.000111334 0.000341784)
(-9.80058e-05 6.28364e-05 0.000345563)
(-7.29896e-05 -0.000282274 0.000119534)
(-7.3904e-05 -2.92899e-05 -0.000244711)
(-6.93614e-05 0.000378579 -0.000223179)
(-6.80545e-05 -9.00901e-05 -2.07223e-05)
(-5.8156e-05 -0.000185745 -0.000235357)
(-5.0465e-05 -6.32052e-06 -0.000333436)
(-3.1949e-05 0.000255942 -9.32809e-05)
(-3.64664e-05 0.000314862 8.91762e-05)
(-2.77062e-05 1.19295e-05 -2.6603e-05)
(-3.13256e-05 3.38472e-05 0.000178299)
(-1.89953e-05 0.000102421 -0.000179816)
(-1.37933e-05 7.02078e-05 -4.66593e-05)
(-8.76835e-06 0.000275762 7.43485e-05)
(1.4925e-06 1.60415e-05 6.64573e-06)
(-4.11837e-06 0.000145386 -9.49922e-05)
(-1.32256e-05 9.97378e-05 -0.000278745)
(-2.88006e-05 0.000239808 -0.00029398)
(-1.56718e-05 0.000145907 -0.000445697)
(-1.34575e-05 -2.8013e-05 -0.000193275)
(-9.71272e-06 -4.23889e-05 0.00024096)
(-2.59117e-06 -0.000237124 0.00024161)
(1.05185e-05 -1.29002e-05 0.000243538)
(3.47921e-05 6.66006e-05 1.45962e-05)
(4.20499e-05 -0.000396117 0.000100274)
(3.42255e-05 -0.000312878 0.000231095)
(4.53783e-05 -0.000134772 1.61946e-05)
(3.16291e-05 -0.000111354 3.13632e-05)
(8.80834e-06 -0.000110188 0.000172848)
(1.17477e-05 -0.000193446 0.000125033)
(-1.13916e-05 -0.000112553 -0.00025988)
(-8.17587e-06 -0.000161132 -0.000156083)
(1.06281e-05 -0.000121478 -0.000275141)
(2.56044e-05 -0.000127937 -0.000244044)
(3.11239e-05 -0.000209464 0.000214399)
(4.76191e-05 -8.74816e-05 3.34245e-05)
(4.99513e-05 -0.000348615 -2.68864e-05)
(6.17953e-05 -0.000314566 -9.22049e-06)
(6.78698e-05 -0.000392086 -5.25002e-05)
(4.89532e-05 -6.88934e-05 -0.000116497)
(4.92967e-05 2.46381e-05 -0.000119316)
(3.1929e-05 1.76029e-05 0.000136787)
(4.37916e-05 -5.27654e-05 -3.31472e-05)
(6.03778e-05 -0.000216232 -7.14045e-05)
(5.66725e-05 -0.000447631 -0.000189991)
(5.3813e-05 -4.6991e-05 -0.000251726)
(6.90814e-05 -0.000216085 -0.000389878)
(6.04811e-05 -0.000237682 -0.000242158)
(5.35813e-05 3.11217e-05 9.38984e-06)
(5.62272e-05 -0.000430987 -3.45852e-05)
(6.18739e-05 -0.000459044 0.000195589)
(6.98096e-05 -0.000603478 6.31287e-06)
(6.17471e-05 -0.000212459 -0.000112796)
(5.86579e-05 -0.000104772 0.000160537)
(5.02563e-05 -0.00044204 0.000350539)
(5.95499e-05 -0.000287793 0.00010172)
(6.51943e-05 -0.00021525 -0.000132613)
(6.54005e-05 -8.92631e-05 -1.39911e-05)
(3.58825e-05 -9.73387e-05 -9.18887e-05)
(3.82871e-05 -0.00019131 -0.000130206)
(3.63031e-05 -0.000251577 0.000128916)
(3.51957e-05 -0.000335381 0.00056446)
(3.28275e-05 -0.000176773 0.000154814)
(3.62272e-05 3.40792e-05 0.000407328)
(2.1245e-05 0.000449622 0.000422323)
(1.75424e-05 0.000341908 7.05261e-05)
(6.79257e-06 0.000135358 -6.41118e-05)
(-1.41699e-06 -3.33817e-05 -3.67838e-05)
(1.01949e-05 -0.000310934 -0.000264774)
(1.03682e-05 -0.000301633 -5.75625e-05)
(1.08754e-05 -0.00024643 -5.715e-05)
(1.26388e-05 9.5904e-05 -0.000122321)
(5.96647e-06 0.000393261 -2.43524e-05)
(1.03199e-05 0.000506663 0.000114649)
(-8.30613e-06 0.000654267 -3.23451e-05)
(-2.15527e-05 0.000342609 -0.000122962)
(2.50151e-06 0.000257134 -0.00026472)
(9.20254e-06 1.8964e-05 -0.000413068)
(2.53392e-05 5.28358e-05 -0.000241528)
(1.65652e-05 4.24289e-05 -0.000307294)
(-3.75217e-06 5.55647e-05 -0.000262466)
(1.19337e-05 7.6025e-05 -0.000158624)
(3.60436e-05 3.32424e-05 -0.000266532)
(5.20196e-05 8.98611e-05 -0.000309047)
(6.88837e-05 -0.000189471 -0.000256541)
(6.71994e-05 -0.000305554 -0.000195015)
(6.73803e-05 -3.87887e-05 -0.000454866)
(5.7277e-05 -3.2107e-05 -0.000339526)
(4.61955e-05 -4.29131e-05 -0.000108147)
(5.55884e-05 -7.79121e-05 -0.000321688)
(7.87087e-05 0.000386458 -0.000196277)
(7.67921e-05 0.000467397 -8.94039e-05)
(8.21808e-05 0.000372172 -0.000333377)
(9.00683e-05 0.000367624 -4.46073e-05)
(9.46673e-05 0.000241153 0.00024291)
(0.000114388 1.67199e-05 0.000230605)
(0.00011848 -0.000474012 0.000129147)
(0.00012344 -0.000346821 0.000112291)
(0.000132449 -0.000498085 7.74661e-05)
(0.000134328 -0.000418131 0.000206465)
(0.000156719 3.15355e-05 3.09479e-05)
(0.000187508 -6.42526e-05 -0.000270868)
(0.00019574 -4.87643e-05 -0.000149917)
(0.000185753 -0.000216513 -4.85677e-05)
(0.000181987 -0.00010122 -0.000233639)
(0.000164715 0.000305212 -9.37933e-05)
(0.000172675 0.000240225 0.000181524)
(0.000173184 0.000175565 0.000304511)
(0.000181755 0.00028165 0.000299623)
(0.000194992 0.000229701 0.000454713)
(0.000200577 -1.57896e-05 8.38409e-05)
(0.000176192 4.74281e-05 -8.1645e-05)
(0.000163701 -1.84665e-06 -0.000399589)
(0.000164902 -2.05621e-05 -0.000341129)
(0.000193649 -0.000173194 -0.000257278)
(0.000206504 -0.00013213 -9.22885e-05)
(0.000206577 0.000192874 0.000100797)
(0.00018349 -8.11367e-05 -4.7408e-05)
(0.00016079 -7.14969e-05 0.000145931)
(0.000152336 0.000130701 4.43323e-05)
(0.000163648 8.90699e-05 0.000197929)
(0.000148342 0.000196397 0.000199102)
(0.000141421 0.000213961 -0.000130217)
(0.000153099 -7.23649e-05 -0.000228024)
(0.000155334 8.25655e-05 -0.000213159)
(0.000168534 -3.91006e-05 -0.000194161)
(0.000196549 0.000247591 -0.000330883)
(0.00019483 0.000464211 -8.396e-05)
(0.000178933 0.000197486 0.000132979)
(0.000189617 4.5113e-05 0.000194434)
(-1.49646e-06 2.88983e-05 -9.55411e-06)
(-0.000167818 0.000193828 2.48273e-05)
(-0.000183115 1.17832e-05 -8.62174e-05)
(-0.00018129 0.000204757 3.20793e-05)
(-0.00017599 0.000332438 -4.64303e-05)
(-0.000198936 0.000478515 -0.000315436)
(-0.000224504 0.000284448 -0.000361134)
(-0.000227299 -2.42139e-05 -0.000229894)
(-0.0002459 -0.000125903 -0.000190094)
(-0.000241207 -0.000213998 9.83135e-06)
(-0.000250822 -3.55064e-05 0.000497141)
(-0.000251011 -5.63317e-05 8.2233e-05)
(-0.000253407 0.00031701 0.000119139)
(-0.000278771 -1.16769e-06 1.79189e-05)
(-0.000285119 -0.000221515 0.000133436)
(-0.000287937 -3.52201e-05 1.38801e-05)
(-0.000256445 -0.000164784 0.000290785)
(-0.000260107 -0.000156659 0.000575458)
(-0.000252542 -0.000208316 0.000427245)
(-0.000243509 -0.000300981 0.000140962)
(-0.00024489 -3.71277e-05 0.000179769)
(-0.000246242 0.000227383 0.000257759)
(-0.000260573 -0.000149691 -4.65822e-05)
(-0.000260892 3.73642e-05 9.2169e-06)
(-0.000257923 0.000325239 0.00028714)
(-0.000255352 0.000272794 8.69829e-05)
(-0.000240173 0.000455934 2.77312e-05)
(-0.000229479 0.000145482 0.000109978)
(-0.000204601 0.000344465 -1.82617e-05)
(-0.00020548 0.000220171 1.91692e-05)
(-0.000235754 -3.17241e-05 0.000338358)
(-0.000230812 -0.000131455 -6.47637e-05)
(-0.00023221 -0.0004076 2.43504e-05)
(-0.000226943 -0.000353893 0.000110445)
(-0.000226763 -0.000445729 -4.66286e-05)
(-0.000201525 0.000129923 0.000163446)
(-0.000188788 0.00022002 0.000399527)
(-0.000172887 4.46341e-05 0.000288609)
(-0.000144956 -2.94224e-05 0.000412369)
(-0.000136031 -8.30722e-05 4.77257e-06)
(-0.00012277 -0.000394046 -0.000204498)
(-8.38263e-05 -0.000275012 -0.000195327)
(-8.09748e-05 0.000138113 -0.000161913)
(-6.86732e-05 2.2467e-05 -0.000161915)
(-6.99041e-05 -0.000147302 0.000109373)
(-5.39956e-05 -0.000211835 0.000107841)
(-4.63168e-05 -0.000220959 -5.41311e-05)
(-5.48764e-05 -0.00022614 -1.33486e-05)
(-4.97692e-05 -0.00010857 -0.000299222)
(-4.77008e-05 -3.92105e-05 -0.000420228)
(-4.29157e-05 -0.00019397 -0.000304917)
(-4.93239e-05 -0.000464998 -0.000103729)
(-5.65685e-05 -0.000614238 -1.40535e-05)
(-7.26261e-05 -0.000333924 -0.000159242)
(-6.43747e-05 -4.57885e-05 -0.000146221)
(-6.35341e-05 -7.07197e-05 7.31689e-05)
(-7.42403e-05 -7.61389e-05 4.08805e-05)
(-7.36288e-05 -6.03323e-05 -0.000163933)
(-5.95372e-05 -8.89284e-05 -0.000444696)
(-5.38765e-05 -2.01705e-05 -0.000239404)
(-4.79158e-05 0.000252355 -0.000187409)
(-5.29048e-05 0.000406087 -0.000217983)
(-4.4603e-05 -9.62536e-05 -0.000213434)
(-4.54741e-05 -6.72128e-06 -0.000116975)
(-2.85469e-05 0.000258128 -0.000323867)
(-2.48229e-05 0.000342255 -0.000201966)
(-9.72876e-06 0.000441928 -0.000159167)
(1.61105e-05 0.000120373 -0.000199159)
(3.55321e-06 -0.000206956 3.63254e-05)
(-1.18883e-05 -0.000321761 -3.52477e-05)
(2.2865e-07 -0.000154941 0.000217956)
(9.6973e-06 -0.000253555 0.000201571)
(1.16947e-05 -9.44995e-05 0.000380814)
(-5.06974e-06 -0.000102533 0.00047707)
(-1.19605e-05 -0.000258894 0.000112352)
(-5.09605e-06 -0.000226328 -7.75869e-06)
(-9.94969e-07 -3.40995e-05 -1.78971e-05)
(-6.44262e-06 3.05198e-05 -8.84197e-05)
(5.26166e-06 -2.52246e-05 -4.06874e-05)
(1.3038e-05 -1.56864e-05 -0.000227308)
(8.78981e-07 -0.000315884 -0.000348056)
(-4.47442e-08 -0.000250693 -5.65858e-05)
(1.73017e-05 7.49689e-05 0.000368695)
(2.97507e-05 -0.00020129 0.000337382)
(2.13221e-05 -0.000410445 0.000209735)
(2.57962e-05 -4.98879e-05 8.14618e-05)
(2.1759e-05 -0.000291011 4.30933e-05)
(2.21396e-05 0.000201381 0.00028505)
(2.61311e-05 0.000139848 -7.11556e-05)
(9.67399e-06 0.000141245 -0.000150102)
(-7.01484e-07 0.000369864 0.000138711)
(-1.34488e-05 0.000317454 0.000643987)
(-1.74355e-05 -1.33869e-05 0.000296392)
(4.18209e-06 -0.000304845 0.000114509)
(1.5092e-05 -0.000149474 0.000436833)
(1.45668e-05 -0.000491344 0.000474747)
(1.02503e-05 -0.000259876 0.000320499)
(1.48224e-05 -0.000130537 0.000300091)
(1.64145e-05 -0.000186353 0.000144183)
(2.7752e-05 -0.000199508 0.000146265)
(4.9409e-05 -0.000306063 0.000420564)
(5.68952e-05 -0.000112488 0.000282757)
(5.99548e-05 0.00033493 -8.06365e-05)
(5.26954e-05 7.33139e-05 -0.000218362)
(5.77094e-05 0.00018339 -0.000416989)
(6.34674e-05 0.000102696 -0.000250783)
(5.30194e-05 0.000124018 -0.000469306)
(6.21936e-05 0.000112308 -0.000223787)
(6.86203e-05 0.000270041 -9.064e-05)
(6.54651e-05 0.00032819 -4.66939e-05)
(6.86222e-05 0.000344227 0.00012865)
(5.96439e-05 0.000321664 0.00011903)
(5.99906e-05 4.45052e-05 0.000244341)
(6.89933e-05 0.000235812 0.000450357)
(8.54206e-05 0.000660857 0.000121615)
(0.000108755 0.000381886 -8.53341e-05)
(8.38891e-05 0.000469744 4.78254e-05)
(8.36015e-05 0.000426923 0.000100851)
(9.6154e-05 0.000169898 0.000151161)
(8.89527e-05 -3.64602e-05 -8.7534e-06)
(8.97111e-05 -5.01223e-05 0.000226515)
(7.21639e-05 0.000121887 0.000335043)
(6.83676e-05 -6.28393e-05 0.00052921)
(5.36067e-05 -0.000274164 0.000155232)
(4.2942e-05 -0.000282922 -0.000189486)
(5.19104e-05 -0.000440253 -0.000436664)
(5.21229e-05 -0.000570298 -0.000131625)
(4.22827e-05 -0.000340452 -0.000117748)
(5.24443e-05 -9.47249e-05 -0.000210914)
(7.26661e-05 9.27279e-06 1.37765e-05)
(9.68026e-05 -0.000347456 -5.45548e-05)
(9.15428e-05 -0.000414498 -0.000207735)
(9.95025e-05 -0.000339154 4.89314e-05)
(0.000105919 1.79016e-05 -0.000109155)
(9.68188e-05 0.000326808 -2.25821e-05)
(9.84154e-05 0.000138635 -5.07351e-05)
(8.79414e-05 0.000120602 0.000109651)
(6.44809e-05 0.000180613 9.84024e-05)
(5.08897e-05 0.000197143 -3.9557e-05)
(5.44309e-05 0.000282038 -6.35806e-05)
(6.38321e-05 -0.000135992 9.08528e-05)
(7.46844e-05 -0.000166287 -0.000204869)
(5.80669e-05 0.000192667 -0.000263189)
(6.22547e-05 0.00016345 5.16685e-05)
(7.11882e-05 -0.000284878 0.000158743)
(6.66179e-05 -0.000421923 0.000250676)
(5.37594e-05 -0.000115362 0.000543522)
(5.26092e-05 0.00017088 0.000268889)
(6.19004e-05 2.9913e-05 -4.39189e-05)
(7.0359e-05 -0.000178293 0.000101245)
(6.74231e-05 -7.20906e-05 0.000452016)
(5.63175e-05 -0.000180931 0.000496043)
(5.58288e-05 -0.000121029 0.000243067)
(7.25245e-05 -0.000185848 -0.000299811)
(8.97008e-05 -0.000355104 -0.000294189)
(9.36749e-05 -6.25287e-05 4.84153e-05)
(9.47458e-05 0.000137713 1.21272e-05)
(9.12349e-05 0.000272258 -1.05167e-05)
(0.000112825 0.000380847 3.55797e-06)
(0.000122271 0.000105228 -5.35808e-05)
(0.00012213 0.000110418 0.000227006)
(0.00010014 0.000173586 0.000100285)
(9.58092e-05 0.000172159 -0.000112427)
(8.66801e-05 0.000287006 -0.000384463)
(6.65459e-05 0.000406054 -9.52114e-06)
(4.94197e-05 0.000160548 -0.000135344)
(6.01401e-05 -8.04086e-05 -0.000100986)
(6.16848e-05 -0.00020982 6.19802e-05)
(6.44491e-05 -0.00053629 1.94314e-06)
(7.87612e-05 -0.000341931 -0.000303177)
(8.4312e-05 -0.000471052 -0.000660527)
(8.01389e-05 -0.000226392 -0.000518641)
(7.92017e-05 0.0001097 -0.000387063)
(7.70981e-05 -0.000115905 -0.000390401)
(8.60711e-05 -7.75277e-06 -0.000355437)
(9.91923e-05 -0.000415708 -0.000515529)
(0.000105704 -0.00041285 -0.000225435)
(9.44982e-05 -0.000457863 -0.000312695)
(8.94185e-05 -0.000319967 -0.00011923)
(8.87167e-05 0.00014739 -8.87675e-05)
(8.85421e-05 0.000307579 -4.88307e-05)
(7.15277e-05 5.91595e-05 -9.31149e-05)
(7.63142e-05 -9.95184e-05 0.000111196)
(8.20659e-05 -0.000116429 0.00060583)
(8.55994e-05 -5.91851e-05 0.000598529)
(9.36674e-05 0.000111008 0.000144745)
(0.000121258 -0.000212313 0.000261328)
(0.00010594 -0.000537703 4.65739e-05)
(0.000113871 -0.000262746 3.52957e-05)
(0.000124397 -1.15718e-05 0.000135601)
(0.000110578 0.000279547 -9.76609e-05)
(0.000111947 0.000324395 -8.54138e-06)
(0.000109009 0.000308373 0.000235668)
(0.000114549 0.000198865 0.000244523)
(0.000134142 1.39339e-05 0.000551032)
(0.000120514 4.30778e-05 0.000426057)
(0.00012085 3.57816e-05 3.84143e-05)
(0.000110828 -0.000290769 -0.000457605)
(0.000123934 -0.000238923 -0.000338003)
(0.000131947 -0.000154265 -3.04824e-05)
(0.000134793 -1.60787e-05 -0.000250098)
(0.000132403 -0.000376533 -0.000215778)
(0.000161213 -6.47927e-05 -0.000149513)
(0.000137321 0.000375992 -0.00035723)
(0.000127357 0.000225806 -0.000306955)
(0.000109018 1.51556e-05 -0.000289459)
(8.71283e-05 -0.000182841 1.75244e-05)
(7.67634e-05 -0.00011962 -0.000154229)
(6.95801e-05 -3.52708e-05 0.00014287)
(0.000100636 0.000115263 0.000580218)
(0.00013576 0.000368639 0.000692366)
(0.000145824 0.000230951 0.000447969)
(0.000156113 8.36452e-05 1.59209e-05)
(0.000168861 -9.68061e-06 0.000178033)
(0.000188899 -0.000279615 0.000242779)
(0.000225786 -0.000128308 0.000166155)
(0.000264707 -0.000212643 0.00016477)
(0.000292679 -0.00012103 9.55347e-05)
(0.000358056 -0.000130577 9.89779e-05)
(0.000406996 -1.00553e-05 7.50158e-05)
(0.000467547 -4.39815e-05 0.00018124)
(0.000526907 0.000169235 -7.31976e-05)
(0.000609502 0.000100799 4.80452e-05)
(0.000682973 -0.000314444 0.000234758)
(0.000799891 -0.000293624 -1.21291e-05)
(0.000876869 -0.000238912 1.87414e-05)
(0.000966145 -0.000236735 0.00013137)
(0.00106385 -0.000169952 -0.000245155)
(0.00118092 -4.1178e-05 -0.000376804)
(0.00128755 7.97644e-05 6.3422e-06)
(0.00139771 9.90165e-05 4.5984e-05)
(0.00152738 0.00021436 -4.90779e-05)
(0.00164722 -0.000313073 -5.53943e-05)
(0.00177507 -0.000177399 -0.000249802)
(0.00190848 2.3757e-05 -0.000187056)
(0.00207184 0.000132057 -0.000209655)
(0.00222258 4.79822e-05 -0.000150752)
(0.00238352 6.60208e-05 -1.71514e-05)
(0.00255362 -0.000167291 -0.000102011)
(0.00271842 -8.17888e-06 -6.11405e-05)
(0.00290252 0.000143171 2.23297e-05)
(0.00308729 2.39947e-05 -3.74388e-05)
(0.00326618 0.000133209 -7.75392e-06)
(0.00347288 -0.000139243 5.47616e-05)
(0.00368886 4.69766e-05 -0.00010891)
(0.00387507 -0.000118916 4.52356e-05)
(0.00408582 5.91431e-05 0.000136448)
(0.00429329 -8.91926e-05 4.17479e-05)
(0.00450617 6.82894e-05 3.23121e-05)
(0.00472816 2.30248e-05 2.86862e-05)
)
;

boundaryField
{
    sides
    {
        type            calculated;
        value           nonuniform List<vector> 2((0.00472816 2.30248e-05 2.86862e-05) (-0.00465382 -6.23903e-05 4.34595e-05));
    }
    empty
    {
        type            empty;
    }
}


// ************************************************************************* //
