/*--------------------------------*- C++ -*----------------------------------*\
  =========                 |
  \\      /  F ield         | OpenFOAM: The Open Source CFD Toolbox
   \\    /   O peration     | Website:  https://openfoam.org
    \\  /    A nd           | Version:  7
     \\/     M anipulation  |
\*---------------------------------------------------------------------------*/
FoamFile
{
    version     2.0;
    format      ascii;
    class       volScalarField;
    location    "0.002";
    object      overallT;
}
// * * * * * * * * * * * * * * * * * * * * * * * * * * * * * * * * * * * * * //

dimensions      [1 2 -2 0 0 0 0];

internalField   nonuniform List<scalar> 
1000
(
376.838
387.832
385.559
380.517
376.381
393.956
388.963
383.665
380.613
408.041
410.859
389.363
394.228
418.733
405.227
394.415
388.34
370.512
368.702
365.152
374.192
375.786
386.77
381.049
378.994
383.035
371.468
388.232
410.121
437.856
431.423
416.241
410.251
414.443
413.518
438.277
432.82
417.299
413.681
391.102
398.413
421.615
403.436
393.758
397.889
402.498
399.089
398.854
412.026
383.072
384.164
368.183
370.865
362.838
359.283
355.249
350.586
369.484
374.394
368.744
377.369
397.736
393.707
400.487
396.717
402.59
388.765
375.375
388.103
387.689
386.627
385.526
418.337
402.457
405.059
402.506
386.736
383.197
375.729
377.417
354.373
353.626
363.118
367.796
397.576
388.822
386.187
383.822
402.005
400.37
414.67
403.002
413.533
419.274
400.903
380.397
398.013
419.947
421.34
399.381
403.8
411.918
399.361
422.289
405.404
383.378
387.789
366.188
364.549
363.75
369.384
376.729
381.062
394.122
417.205
399.2
403.963
378.694
374.124
373.363
365.859
367.468
363.42
370.455
366.805
360.635
355.488
370.886
364.984
359.904
371.845
369.172
394.476
408.027
405.252
398.678
378.378
370.966
369.245
366.286
366.316
375.902
362.697
399.178
419.09
422.655
425.004
422.773
417.986
408.762
411.763
401.633
383.457
395.73
394.722
415.373
410.776
433.367
426.643
435.963
435.994
457.234
425.692
409.83
380.405
375.811
377.666
390.015
395.713
396.22
381.037
359.147
356.746
364.975
367.902
372.442
385.454
384.771
391.883
401.167
415.946
402.483
385.684
413.477
409.05
423.186
416.653
393.546
380.059
386.565
391.164
401.461
392.863
385.223
394.387
388.073
383.781
394.797
378.545
372.805
394.662
395.903
395.972
391.178
391.504
385.269
403.595
397.743
407.232
401.073
394.58
377.338
385.231
370.794
376.786
391.023
394.673
397.458
402.952
406.318
402.158
398.556
407.554
390.156
396.746
410.47
375.783
379.2
371.028
357.693
351.681
354.235
378.987
380.51
375.432
388.306
408.929
382.993
390.496
393.363
404.35
386.902
397.494
376.665
378.268
370.98
384.111
381.306
382.799
374.096
396.704
374.98
378.015
392.14
397.058
394.887
379.92
374.372
374.263
376.755
388.497
397.531
379.156
379.878
385.353
376.902
396.456
391.513
376.877
404.514
419.228
413.272
402.128
414.613
402.503
394.518
420.787
421.837
414.222
411.385
398.204
413.392
423.341
416.96
412.551
423.821
411.217
422.282
403.834
414.749
417.203
398.772
380.833
385.179
399.811
377.043
370.251
372.224
372.206
390.589
395.816
371.813
383.709
406.805
422.787
422.657
435.576
416.762
419.651
399.066
394.415
377.641
373.165
383.91
398.414
398.408
407.995
396.286
386.202
376.813
371.888
377.558
394.255
383.697
380.166
374.107
375.65
375.547
395.768
405.55
411.581
405.577
407.56
398.76
390.716
391.942
394.139
397.864
397.978
392.423
391.863
403.862
420.876
399.933
378.671
370.516
370.38
365.561
369.296
375.913
386.325
412.086
421.076
405.368
415.802
425.566
403.505
394.461
371.535
377.583
382.589
379.799
380.95
387.684
377.902
395.935
389.138
394.534
390.262
389.822
388.8
388.591
388.536
411.534
407.735
419.789
409.484
393.318
401.196
404.102
412.027
389.192
382.836
386.623
387.276
384.457
374.605
378.877
386.877
401.552
402.367
396.581
391.78
389.689
386.198
389.849
381.715
380.364
389.386
410.279
398.374
398.854
408.31
383.503
385.622
397.966
401.519
379.577
399.364
412.549
409.845
402.777
405.353
390.319
394.001
406.516
397.147
426.154
422.948
384.576
395.985
383.978
391.546
380.602
383.919
398.339
409.582
406.668
401.235
401.326
410.237
394.999
403.53
393.78
379.928
399.893
397.7
397.752
403.073
408.856
403.423
404.54
395.989
411.326
391.285
412.082
405.205
402.886
406.135
402.998
391.779
375.242
378.137
380.593
366.848
352.201
368.247
361.693
368.217
367.677
398.044
391.54
389.934
380.819
401.23
386.325
376.518
381.683
376.791
371.521
375.347
389.278
378.242
387.055
383.104
371.544
363.722
364.534
365.831
378.423
362.959
371.108
358.595
349.728
340.165
339.112
338.812
355.344
350.442
353.845
339.518
348.433
347.967
345.002
331.668
348.217
327.912
331.014
321.131
327.033
333.99
315.664
314.316
334.728
333.368
339.615
342.964
345.694
334.731
345.951
342.231
352.093
365.769
374.601
372.291
379.306
370.08
364.611
378.713
368.98
397.983
398.027
386.03
381.483
400.9
397.139
379.48
396.842
413.621
398.905
425.684
424.619
423.987
433.683
458.77
431.434
446.433
446.999
441.091
437.636
445.494
473.783
467.735
461.146
463.626
468.269
429.357
446.862
474.985
447.921
465.397
461.973
459.734
468.309
448.418
456.756
458.289
473.569
468.318
464.227
416.758
436.352
451.232
444.383
448.423
475.196
486.46
462.429
469.957
471.349
470.595
445.238
439.693
453.758
423.886
437.304
413.653
412.64
446.864
475.267
427.7
417.331
420.905
432.148
466.633
458.443
454.619
442.142
470.295
492.985
463.954
448.969
466.03
471.46
484.665
467.428
447.844
459.892
422.837
456.462
454.374
395.94
420.33
399.674
399.998
410.735
416.864
413.476
407.491
398.919
450.282
474.612
436.341
397.483
403.016
392.887
399.407
393.71
379.546
399.051
397.422
424.204
457.842
426.073
401.347
403.389
428.918
412.834
417.609
391.559
398.989
410.547
389.663
372.356
396.054
396.917
366.963
385.476
411.139
398.442
396.423
397.521
411.918
407.004
393.532
406.369
367.943
355.922
378.59
386.161
361.657
357.055
393.594
368.684
359.173
355.395
394.054
413.967
405.155
402.948
394.184
420.205
419.084
401.388
370.417
397.074
390.831
383.818
388.81
392.893
417.595
401.706
423.766
392.718
384.508
390.128
389.507
403.366
413.609
424.387
415.512
455.14
446.593
435.69
426.618
419.876
396.832
407.786
380.509
384.083
376.574
397
363.855
372.362
377.728
389.382
362.613
380.022
403.984
378.058
375.933
374.701
393.39
418.83
430.271
406.063
428.798
409.695
381.674
359.783
368.846
358.015
376.265
385.161
372.613
393.735
405.544
410.087
371.296
360.274
368.229
395.022
375.223
376.69
389.304
379.951
427.799
384.506
357.667
381.994
369.809
372.422
363.039
357.192
367.143
360.919
367.793
368.959
356.958
380.412
375.731
388.057
410.202
401.265
364.942
402.979
376.702
367.411
353.033
355.141
343.767
375.714
376.065
356.777
366.564
379.962
385.172
397.73
372.997
374.639
410.015
371.746
374.291
373.698
366.014
398.816
407.945
402.116
408.289
379.895
369.012
357.312
372.997
347.81
348.409
327.172
316.576
326.272
370.141
361.721
381.052
384.261
393.122
392.506
437.052
441.686
433.085
408.807
412.659
407.865
399.424
382.674
385.36
413.892
387
413.285
405.608
398.006
384.846
361.578
376.558
376.462
390.854
386.574
407.496
416.305
410.291
418.041
426.4
459.661
450.383
448.673
392.029
421.883
418.532
401.492
427.281
407.621
442.278
444.123
454.894
436.74
429.013
453.111
436.807
454.152
446.201
408.702
397.979
393.975
371.117
383.009
403.196
391.072
385.187
388.766
408.889
397.79
404.063
405.302
382.628
363.35
348.455
344.605
329.474
343.968
376.99
423.458
453.059
447.224
443.024
388.702
391.436
389.457
375.769
395.62
388.191
394.86
392.139
399.965
411.418
399.928
394.345
405.219
394.817
382.824
397.133
426.77
391.875
408.81
363.536
398.255
390.605
386.428
395.389
388.003
376.617
386.81
394.579
415.798
431.513
425.361
405.303
412.517
365.059
365.026
388.496
385.133
432.475
465.92
439.806
420.295
394.744
417.628
417.186
415.983
437.947
447.867
447.746
484.531
471.984
462.615
437.347
450.858
436.378
439.691
425.355
418.056
363.656
403.165
403.346
426.952
434.924
435.768
426.534
425.788
432.925
442.168
413.421
417.681
412.997
404.401
425.992
410.103
440.847
400.641
414.287
379.558
374.677
385.603
397.249
413.885
389.185
422.317
427.34
360.051
355.909
373.604
370.377
354.947
391.684
401.015
391.735
406.011
419.38
424.748
417.184
412.523
377.572
385.284
415.409
397.895
428.851
438.659
438.904
435.484
417.608
418.483
397.481
407.429
368.546
371.042
384.569
388.466
421.685
410.656
361.219
377.205
419.613
451.829
437.299
415.102
412.421
412.266
408.95
389.181
385.568
427.032
419.876
400.793
366.875
328.943
340.58
340.263
353.326
373.973
381.563
370.768
373.097
362.834
347.569
346.533
368.265
375.665
354.627
370.247
363.212
346.146
332.891
342.196
)
;

boundaryField
{
    sides
    {
        type            symmetry;
    }
    empty
    {
        type            empty;
    }
}


// ************************************************************************* //
