/*--------------------------------*- C++ -*----------------------------------*\
  =========                 |
  \\      /  F ield         | OpenFOAM: The Open Source CFD Toolbox
   \\    /   O peration     | Website:  https://openfoam.org
    \\  /    A nd           | Version:  7
     \\/     M anipulation  |
\*---------------------------------------------------------------------------*/
FoamFile
{
    version     2.0;
    format      ascii;
    class       volScalarField;
    location    "0.002";
    object      p;
}
// * * * * * * * * * * * * * * * * * * * * * * * * * * * * * * * * * * * * * //

dimensions      [1 -1 -2 0 0 0 0];

internalField   nonuniform List<scalar> 
500
(
1.09782
1.35944
1.57331
1.75036
1.92456
2.06603
2.18216
2.32415
2.40179
2.50143
2.62651
2.71591
2.80224
2.89288
2.95434
2.9753
3.07827
3.12908
3.20721
3.26773
3.30499
3.36464
3.3701
3.43399
3.4695
3.50356
3.5782
3.58032
3.55784
3.61459
3.63873
3.65674
3.65104
3.69507
3.73882
3.69087
3.70598
3.73822
3.78737
3.68956
3.75476
3.76441
3.79717
3.80427
3.78212
3.74578
3.76745
3.76529
3.77435
3.77801
3.76656
3.75278
3.75223
3.78761
3.76418
3.75272
3.74325
3.79197
3.75969
3.75333
3.75467
3.7517
3.75059
3.76459
3.76677
3.7249
3.75432
3.74032
3.72118
3.76431
3.74302
3.73065
3.72954
3.7311
3.77456
3.76059
3.74387
3.74764
3.74688
3.76161
3.76492
3.6942
3.73218
3.79559
3.78241
3.79044
3.77185
3.79659
3.75
3.79704
3.76976
3.80002
3.77899
3.74138
3.74547
3.71308
3.77153
3.77394
3.77689
3.78224
3.7701
3.76316
3.73413
3.74887
3.76665
3.76678
3.78391
3.75885
3.75295
3.74009
3.78121
3.77192
3.80564
3.78488
3.82581
3.73853
3.75259
3.75607
3.74609
3.76746
3.78686
3.74235
3.72905
3.7774
3.77058
3.73381
3.76106
3.73997
3.74226
3.72303
3.74199
3.74715
3.7694
3.78659
3.78926
3.77209
3.77565
3.76352
3.77432
3.72367
3.72527
3.78619
3.78915
3.77577
3.7901
3.79525
3.78575
3.78293
3.81709
3.82339
3.80345
3.75954
3.79485
3.791
3.78475
3.77949
3.76746
3.77535
3.75518
3.74719
3.77795
3.81292
3.80559
3.78696
3.81385
3.78968
3.7774
3.80262
3.81413
3.83212
3.76949
3.76584
3.83618
3.78514
3.77778
3.76397
3.75515
3.74436
3.74238
3.7644
3.79215
3.72457
3.7155
3.75809
3.75156
3.74654
3.74642
3.77996
3.74966
3.74893
3.77937
3.80294
3.75899
3.76009
3.78598
3.79307
3.7686
3.78759
3.78706
3.78176
3.81684
3.80634
3.77938
3.76809
3.74242
3.77614
3.74089
3.8002
3.7926
3.73
3.79084
3.77025
3.80429
3.80077
3.78647
3.73602
3.75051
3.74076
3.73589
3.75384
3.75988
3.71299
3.76319
3.74366
3.76016
3.75864
3.77898
3.74453
3.74101
3.75611
3.70865
3.73757
3.74676
3.7318
3.72858
3.74036
3.75307
3.71673
3.72603
3.71149
3.69745
3.73846
3.72916
3.72005
3.72676
3.70923
3.74684
3.72548
3.72596
3.72343
3.64663
3.68985
3.71611
3.70295
3.71521
3.71503
3.71516
3.71048
3.70082
3.71662
3.70347
3.69657
3.72528
3.71945
3.69255
3.70794
3.71782
3.68775
3.71389
3.72661
3.71523
3.70314
3.73863
3.669
3.70128
3.74635
3.70714
3.71111
3.72625
3.73134
3.70542
3.70623
3.71157
3.72729
3.71499
3.77059
3.73991
3.71858
3.68688
3.75784
3.74882
3.76243
3.79922
3.76769
3.74702
3.75543
3.8037
3.78071
3.75102
3.70661
3.72952
3.7889
3.78684
3.76533
3.70632
3.78041
3.74656
3.77056
3.76787
3.78
3.81581
3.77835
3.80165
3.78071
3.80135
3.7636
3.74997
3.75859
3.77262
3.70397
3.70181
3.77872
3.71129
3.73397
3.73966
3.73958
3.7019
3.73743
3.74425
3.72742
3.71464
3.71458
3.71638
3.7336
3.7529
3.80758
3.7654
3.75921
3.74716
3.75778
3.78123
3.73254
3.73237
3.73255
3.7365
3.72823
3.72415
3.70983
3.7346
3.71235
3.70431
3.76596
3.71648
3.74388
3.77006
3.73753
3.75279
3.75283
3.77631
3.79706
3.7793
3.80658
3.75855
3.7701
3.75875
3.79115
3.7521
3.77503
3.80913
3.79508
3.77142
3.7446
3.75338
3.74402
3.79511
3.71097
3.68777
3.74645
3.71522
3.74628
3.74813
3.74353
3.6973
3.72254
3.76713
3.69394
3.73887
3.75066
3.77555
3.7623
3.746
3.79419
3.74608
3.73597
3.71668
3.73433
3.73467
3.69291
3.72378
3.73392
3.71418
3.7404
3.76451
3.76474
3.74072
3.80121
3.79125
3.77544
3.75014
3.742
3.78063
3.76064
3.73192
3.75827
3.76908
3.75485
3.78943
3.79831
3.81398
3.77155
3.80902
3.81835
3.8267
3.8008
3.77856
3.78638
3.81671
3.84638
3.86663
3.87768
3.86145
3.83108
3.81367
3.81913
3.82357
3.77864
3.78964
3.78613
3.7806
3.79778
3.7612
3.83411
3.8148
3.81783
3.82339
3.81892
3.78494
3.76191
3.77381
3.76797
3.76817
3.81062
3.77604
3.79075
3.78304
3.74813
3.77679
3.72651
3.70774
3.71902
3.74144
3.69078
3.71594
3.71871
3.67391
3.64832
3.68362
3.63279
3.65127
3.63273
3.60528
3.55681
3.55522
3.4849
3.51858
3.48217
3.44588
3.36711
3.34829
3.26667
3.2766
3.19092
3.10491
3.09449
3.03227
2.97183
2.8878
2.82137
2.70915
2.58399
2.52614
2.42897
2.31259
2.24141
2.1157
1.95741
1.81367
1.63421
1.41312
1.09868
)
;

boundaryField
{
    sides
    {
        type            calculated;
        value           nonuniform List<scalar> 2(1.09868 1.09782);
    }
    empty
    {
        type            empty;
    }
}


// ************************************************************************* //
