/*--------------------------------*- C++ -*----------------------------------*\
  =========                 |
  \\      /  F ield         | OpenFOAM: The Open Source CFD Toolbox
   \\    /   O peration     | Website:  https://openfoam.org
    \\  /    A nd           | Version:  7
     \\/     M anipulation  |
\*---------------------------------------------------------------------------*/
FoamFile
{
    version     2.0;
    format      ascii;
    class       volScalarField;
    location    "0.002";
    object      rhoMMean;
}
// * * * * * * * * * * * * * * * * * * * * * * * * * * * * * * * * * * * * * //

dimensions      [1 -3 0 0 0 0 0];

internalField   nonuniform List<scalar> 
1000
(
2.07332e-05
1.97137e-05
1.98555e-05
2.02647e-05
2.01078e-05
1.95114e-05
2.04094e-05
1.96585e-05
2.13697e-05
2.04658e-05
2.03019e-05
2.04629e-05
1.97305e-05
1.85895e-05
1.94678e-05
1.99619e-05
2.00979e-05
2.16783e-05
2.16324e-05
2.1941e-05
2.04466e-05
2.10482e-05
2.02461e-05
2.06739e-05
2.02339e-05
2.10639e-05
2.12674e-05
2.14272e-05
2.0149e-05
1.89743e-05
1.83913e-05
1.87093e-05
1.75828e-05
1.80414e-05
1.86035e-05
1.72567e-05
1.70289e-05
1.82053e-05
1.85372e-05
1.9083e-05
1.90609e-05
1.75613e-05
1.78548e-05
1.77804e-05
1.85244e-05
1.85099e-05
1.89749e-05
1.9494e-05
1.86267e-05
1.91342e-05
2.04019e-05
2.01659e-05
2.14231e-05
2.18097e-05
2.09308e-05
2.15336e-05
2.07971e-05
1.9995e-05
2.02438e-05
2.04071e-05
2.00089e-05
1.87889e-05
1.88017e-05
1.86157e-05
1.8711e-05
1.88837e-05
1.9344e-05
1.97561e-05
1.92167e-05
1.91371e-05
1.94358e-05
1.90795e-05
1.86395e-05
1.86465e-05
1.88598e-05
1.93649e-05
1.97683e-05
2.01688e-05
2.02037e-05
2.07756e-05
2.15708e-05
2.08692e-05
2.1687e-05
2.06733e-05
1.92824e-05
1.90272e-05
2.00868e-05
1.899e-05
1.81304e-05
1.81373e-05
1.98259e-05
1.83222e-05
1.74241e-05
1.69138e-05
1.84646e-05
1.89639e-05
1.86965e-05
1.77531e-05
1.76526e-05
1.89621e-05
2.00403e-05
1.79542e-05
1.93016e-05
1.85361e-05
2.02624e-05
2.09279e-05
2.02827e-05
2.13144e-05
2.21288e-05
2.17789e-05
2.3107e-05
2.14225e-05
2.01235e-05
2.02037e-05
1.93161e-05
1.95585e-05
1.96492e-05
2.05669e-05
2.06193e-05
2.22764e-05
2.17225e-05
2.13853e-05
2.18858e-05
2.0825e-05
2.11563e-05
2.13476e-05
2.24589e-05
2.12685e-05
2.11761e-05
2.09093e-05
1.92144e-05
2.06925e-05
1.95277e-05
1.89551e-05
1.92725e-05
1.98782e-05
2.12255e-05
2.0274e-05
2.12598e-05
2.08262e-05
2.16981e-05
2.09192e-05
2.13929e-05
1.84436e-05
1.87238e-05
1.84204e-05
1.80647e-05
1.85744e-05
1.92231e-05
1.99764e-05
1.91789e-05
1.95945e-05
1.97852e-05
1.91911e-05
2.06198e-05
1.84994e-05
1.95492e-05
1.87482e-05
1.8632e-05
1.69771e-05
1.79548e-05
1.64436e-05
1.79316e-05
1.82233e-05
2.01752e-05
2.00909e-05
2.08739e-05
1.93045e-05
1.98927e-05
2.07989e-05
1.99502e-05
2.12679e-05
2.18841e-05
2.20288e-05
2.14202e-05
2.16603e-05
1.9709e-05
1.97834e-05
1.968e-05
1.93876e-05
1.89604e-05
1.85541e-05
1.94184e-05
1.86756e-05
1.7652e-05
1.79502e-05
1.87744e-05
1.76218e-05
1.90696e-05
1.91702e-05
1.88587e-05
1.83361e-05
1.82617e-05
1.82414e-05
1.96497e-05
2.06634e-05
1.95405e-05
1.9487e-05
2.0077e-05
2.06855e-05
1.92865e-05
1.89958e-05
1.93591e-05
1.92731e-05
1.96154e-05
1.98758e-05
1.86965e-05
1.87354e-05
1.88127e-05
1.92684e-05
1.95149e-05
1.9902e-05
2.02449e-05
2.14539e-05
2.03385e-05
2.0503e-05
1.8539e-05
1.96137e-05
1.90633e-05
1.89011e-05
1.94178e-05
1.84669e-05
1.80315e-05
1.94021e-05
1.93126e-05
1.89179e-05
2.04367e-05
2.05454e-05
2.13336e-05
2.13034e-05
2.16178e-05
2.12575e-05
2.01746e-05
2.012e-05
2.01275e-05
2.03687e-05
1.89894e-05
1.96335e-05
1.90714e-05
2.00212e-05
1.91435e-05
1.91644e-05
1.95143e-05
1.92527e-05
2.13586e-05
2.01049e-05
1.95608e-05
1.94236e-05
1.9133e-05
1.95986e-05
1.99456e-05
2.09575e-05
1.94079e-05
1.96922e-05
1.89365e-05
1.84093e-05
1.91522e-05
1.95114e-05
2.0206e-05
1.96532e-05
1.91969e-05
1.8636e-05
1.99811e-05
1.96526e-05
1.81931e-05
2.01589e-05
1.84896e-05
1.92649e-05
2.00909e-05
1.78054e-05
1.71341e-05
1.74102e-05
1.84094e-05
1.86982e-05
1.90574e-05
1.83036e-05
1.70074e-05
1.83175e-05
1.86389e-05
1.8378e-05
1.87209e-05
1.78223e-05
1.83977e-05
1.87505e-05
1.87581e-05
1.86448e-05
1.90708e-05
1.87023e-05
1.88308e-05
1.83908e-05
1.85093e-05
1.94126e-05
2.09267e-05
2.04658e-05
1.87813e-05
2.03315e-05
2.03333e-05
2.07204e-05
2.01798e-05
1.96962e-05
1.99578e-05
2.04803e-05
1.9648e-05
1.92603e-05
1.82071e-05
1.8607e-05
1.87418e-05
1.89487e-05
1.90359e-05
1.91161e-05
1.99962e-05
1.94393e-05
2.06454e-05
1.93806e-05
1.90057e-05
2.01926e-05
1.89708e-05
2.03036e-05
2.03164e-05
2.12005e-05
2.20294e-05
2.06733e-05
2.05792e-05
2.06541e-05
2.10709e-05
2.04681e-05
2.03693e-05
2.0238e-05
1.93545e-05
1.96997e-05
1.93167e-05
1.88575e-05
2.00136e-05
1.92899e-05
1.91214e-05
2.0052e-05
1.94341e-05
1.94271e-05
1.96747e-05
2.00159e-05
1.92132e-05
1.88145e-05
1.75468e-05
1.96323e-05
1.94329e-05
1.98468e-05
2.07861e-05
2.14999e-05
2.0603e-05
2.07681e-05
1.93614e-05
1.88156e-05
1.8707e-05
1.8979e-05
1.81908e-05
1.81716e-05
1.95527e-05
1.97695e-05
2.08797e-05
2.05855e-05
2.06605e-05
2.0378e-05
1.93271e-05
1.98334e-05
2.01293e-05
1.93016e-05
1.89999e-05
1.9555e-05
1.96265e-05
2.05949e-05
2.03571e-05
2.0002e-05
1.97776e-05
1.82919e-05
1.84088e-05
1.81449e-05
1.77113e-05
1.98497e-05
1.93597e-05
1.82768e-05
1.75125e-05
1.86494e-05
1.88778e-05
2.00473e-05
2.01485e-05
1.87128e-05
1.93097e-05
1.9802e-05
2.07803e-05
1.93138e-05
1.87581e-05
1.93045e-05
1.94254e-05
2.03571e-05
1.94411e-05
2.03856e-05
2.08151e-05
2.09936e-05
2.07349e-05
1.95753e-05
1.91638e-05
1.87215e-05
1.89493e-05
1.98334e-05
1.99636e-05
1.98142e-05
1.90865e-05
2.08587e-05
2.00136e-05
1.81867e-05
1.84582e-05
1.86674e-05
1.92865e-05
1.91871e-05
1.89918e-05
1.87686e-05
2.06262e-05
1.83675e-05
1.84396e-05
2.04112e-05
2.04304e-05
2.06652e-05
1.91499e-05
1.99055e-05
1.99206e-05
1.90946e-05
1.84099e-05
1.80042e-05
1.87302e-05
1.85419e-05
1.80426e-05
1.83541e-05
1.83408e-05
1.91173e-05
1.89179e-05
1.82402e-05
1.82222e-05
1.82588e-05
1.7874e-05
1.7931e-05
1.81065e-05
1.75846e-05
1.84855e-05
1.8103e-05
1.78734e-05
1.75776e-05
1.6869e-05
1.69376e-05
1.7098e-05
1.71172e-05
1.80455e-05
1.87726e-05
1.76898e-05
1.84233e-05
1.86459e-05
1.81676e-05
1.72457e-05
1.88924e-05
1.85198e-05
1.92417e-05
1.74706e-05
1.71103e-05
1.65796e-05
1.72038e-05
1.61837e-05
1.64854e-05
1.76746e-05
1.70975e-05
1.62785e-05
1.77002e-05
1.62767e-05
1.55275e-05
1.67917e-05
1.59239e-05
1.56455e-05
1.58478e-05
1.6107e-05
1.71701e-05
1.66423e-05
1.60506e-05
1.61483e-05
1.45859e-05
1.4937e-05
1.49027e-05
1.51596e-05
1.46417e-05
1.45888e-05
1.50625e-05
1.39674e-05
1.27648e-05
1.39238e-05
1.39134e-05
1.27247e-05
1.29828e-05
1.366e-05
1.32903e-05
1.30514e-05
1.29142e-05
1.21359e-05
1.17738e-05
1.12361e-05
1.14175e-05
1.11745e-05
1.07473e-05
1.13175e-05
1.14361e-05
1.15244e-05
1.12925e-05
1.16831e-05
1.1693e-05
1.11007e-05
9.69699e-06
9.22211e-06
9.81208e-06
9.49704e-06
9.73245e-06
9.72606e-06
1.01382e-05
1.01213e-05
9.55342e-06
8.77339e-06
8.92858e-06
8.61006e-06
8.89603e-06
8.36361e-06
8.72863e-06
7.93464e-06
7.63414e-06
8.66876e-06
8.43278e-06
8.61296e-06
8.22527e-06
7.90674e-06
8.22352e-06
8.11716e-06
8.3421e-06
8.62226e-06
8.23922e-06
7.75562e-06
7.84862e-06
8.00498e-06
7.43884e-06
6.98256e-06
7.06161e-06
7.11392e-06
7.0959e-06
8.35082e-06
7.24296e-06
6.89014e-06
7.47197e-06
7.30631e-06
6.94536e-06
7.23308e-06
6.77447e-06
6.76284e-06
6.63613e-06
6.30598e-06
6.17927e-06
5.72182e-06
6.18857e-06
7.17321e-06
6.94826e-06
6.82097e-06
6.66171e-06
7.19181e-06
6.73959e-06
5.93979e-06
6.64311e-06
6.32691e-06
6.29378e-06
6.03105e-06
6.18857e-06
6.09789e-06
6.00315e-06
6.88258e-06
6.71402e-06
6.5565e-06
6.91339e-06
7.0029e-06
6.65996e-06
6.73204e-06
6.63381e-06
6.57394e-06
6.54662e-06
6.04093e-06
5.71776e-06
5.88923e-06
6.12638e-06
5.56489e-06
5.82413e-06
5.90259e-06
6.80411e-06
6.19671e-06
6.4728e-06
5.60906e-06
6.13509e-06
6.03861e-06
5.93805e-06
6.32923e-06
6.14381e-06
5.7753e-06
6.89769e-06
6.53732e-06
6.38503e-06
6.04616e-06
6.70821e-06
6.20368e-06
6.1659e-06
6.9006e-06
6.22867e-06
6.11243e-06
6.16067e-06
6.29087e-06
5.77937e-06
6.48675e-06
6.15602e-06
5.58349e-06
5.2173e-06
5.78344e-06
5.91422e-06
6.61579e-06
5.62359e-06
5.49107e-06
5.96188e-06
6.44432e-06
5.75031e-06
5.72938e-06
6.45071e-06
6.16299e-06
6.06651e-06
5.57535e-06
5.69451e-06
6.28157e-06
6.48036e-06
6.50186e-06
6.72739e-06
7.15519e-06
6.85352e-06
6.25018e-06
5.7753e-06
5.74217e-06
6.21124e-06
6.11824e-06
6.12114e-06
5.96537e-06
5.84621e-06
5.45503e-06
5.88864e-06
6.50942e-06
6.69251e-06
6.52976e-06
6.80528e-06
6.08046e-06
6.75064e-06
7.72191e-06
6.81574e-06
6.46873e-06
6.12986e-06
6.63555e-06
5.96304e-06
6.07058e-06
5.59976e-06
6.21821e-06
5.85784e-06
5.28531e-06
5.68695e-06
6.01884e-06
6.34841e-06
6.40944e-06
6.14149e-06
6.09789e-06
5.94909e-06
5.35854e-06
5.33762e-06
5.49688e-06
5.87004e-06
5.93166e-06
6.03163e-06
5.83052e-06
5.54512e-06
5.28531e-06
4.73254e-06
5.52362e-06
5.50328e-06
5.48467e-06
5.51025e-06
5.48991e-06
5.61139e-06
5.27717e-06
5.75031e-06
5.67881e-06
4.91505e-06
5.62476e-06
5.47944e-06
6.06883e-06
5.19405e-06
5.66777e-06
5.53815e-06
4.79589e-06
4.87843e-06
5.29054e-06
5.98978e-06
5.3475e-06
4.91214e-06
5.1243e-06
5.37075e-06
4.9104e-06
4.98015e-06
5.95898e-06
6.26413e-06
6.13974e-06
6.52221e-06
6.00954e-06
5.673e-06
5.8404e-06
5.63289e-06
5.19812e-06
4.79764e-06
5.61313e-06
5.51083e-06
4.929e-06
5.47014e-06
5.72183e-06
5.33181e-06
5.53234e-06
5.70962e-06
5.06327e-06
5.24578e-06
5.64626e-06
5.6079e-06
5.48293e-06
5.66138e-06
5.03595e-06
4.78311e-06
5.66661e-06
5.58523e-06
4.89645e-06
4.81798e-06
4.9941e-06
5.81424e-06
5.36668e-06
5.66196e-06
5.65905e-06
6.12231e-06
6.56696e-06
6.32458e-06
6.2217e-06
5.91829e-06
5.96711e-06
6.1845e-06
6.7425e-06
6.22286e-06
6.59603e-06
5.77123e-06
5.40214e-06
5.50676e-06
5.32367e-06
6.20949e-06
5.33878e-06
5.82994e-06
6.16241e-06
6.02349e-06
5.68637e-06
5.30158e-06
4.92086e-06
5.16208e-06
5.18359e-06
5.53641e-06
5.24055e-06
5.87469e-06
5.75496e-06
5.53466e-06
5.49339e-06
5.71369e-06
6.02931e-06
6.10894e-06
6.67449e-06
6.63613e-06
6.06883e-06
6.03454e-06
5.86132e-06
6.01768e-06
5.40097e-06
5.62243e-06
4.98306e-06
4.76393e-06
4.70987e-06
5.21033e-06
5.62882e-06
5.00456e-06
5.10802e-06
5.32425e-06
5.80262e-06
5.87063e-06
5.60441e-06
5.40446e-06
5.12139e-06
5.27949e-06
5.37307e-06
5.60325e-06
6.04558e-06
5.66486e-06
6.19206e-06
5.99501e-06
5.44283e-06
4.97492e-06
5.53408e-06
5.53815e-06
4.97841e-06
4.09665e-06
4.69534e-06
4.63605e-06
5.51316e-06
5.79855e-06
5.59046e-06
6.02117e-06
5.45968e-06
5.85842e-06
5.20044e-06
5.1708e-06
4.6593e-06
5.05164e-06
5.38528e-06
4.95748e-06
4.63198e-06
4.56746e-06
4.55932e-06
5.38993e-06
6.24902e-06
5.96363e-06
6.10022e-06
6.00199e-06
5.42946e-06
5.40098e-06
5.41434e-06
6.15776e-06
5.15569e-06
4.85983e-06
5.61313e-06
5.33471e-06
5.16499e-06
5.93805e-06
6.20252e-06
5.56954e-06
6.07581e-06
5.78518e-06
5.65731e-06
5.23125e-06
4.97724e-06
4.99003e-06
5.22776e-06
5.57884e-06
5.36319e-06
5.21962e-06
5.81948e-06
4.98422e-06
5.7474e-06
6.5379e-06
5.76542e-06
5.29926e-06
5.04525e-06
5.0964e-06
5.60848e-06
5.68521e-06
6.18218e-06
5.52885e-06
5.57128e-06
5.14174e-06
5.23416e-06
5.58697e-06
5.86249e-06
5.47247e-06
5.29403e-06
6.02524e-06
5.63871e-06
5.54513e-06
5.92817e-06
5.49107e-06
5.79157e-06
5.58639e-06
4.83542e-06
5.39226e-06
5.28124e-06
5.19754e-06
5.55442e-06
5.26671e-06
5.51432e-06
5.21904e-06
4.80868e-06
4.51457e-06
5.02142e-06
5.23067e-06
4.91679e-06
5.06269e-06
5.18649e-06
5.82819e-06
5.29519e-06
5.02374e-06
5.26554e-06
5.03711e-06
5.02433e-06
4.81624e-06
5.04118e-06
5.31204e-06
5.42074e-06
5.3754e-06
5.93689e-06
5.46724e-06
6.20194e-06
5.87993e-06
5.63464e-06
5.57361e-06
5.81192e-06
6.07697e-06
5.29344e-06
5.35041e-06
5.57361e-06
5.20742e-06
5.43352e-06
5.73926e-06
5.84912e-06
5.86714e-06
4.8825e-06
5.53873e-06
5.07838e-06
5.17429e-06
4.99643e-06
5.32076e-06
5.33529e-06
5.49863e-06
5.77065e-06
5.28472e-06
5.64219e-06
5.79216e-06
5.49398e-06
6.79481e-06
5.87818e-06
6.25367e-06
6.44374e-06
6.44839e-06
5.63348e-06
5.49746e-06
5.17836e-06
4.99701e-06
5.36377e-06
5.16034e-06
5.07082e-06
5.49281e-06
5.76368e-06
5.58756e-06
5.11442e-06
5.40446e-06
5.22544e-06
5.24462e-06
5.82122e-06
5.53176e-06
5.44806e-06
5.64975e-06
5.42364e-06
5.28414e-06
5.45038e-06
6.231e-06
5.80669e-06
5.96421e-06
5.40504e-06
5.96769e-06
6.1101e-06
5.49281e-06
5.22486e-06
5.06211e-06
5.11558e-06
5.95316e-06
5.63231e-06
6.03221e-06
6.06534e-06
6.16881e-06
5.64219e-06
4.99991e-06
5.29577e-06
6.24728e-06
6.54836e-06
6.30075e-06
5.64336e-06
5.61023e-06
6.2217e-06
6.36759e-06
6.1473e-06
6.43618e-06
5.859e-06
6.02349e-06
6.58324e-06
6.14963e-06
6.28622e-06
6.20775e-06
5.61429e-06
5.87063e-06
5.93166e-06
5.65091e-06
5.93224e-06
5.16441e-06
)
;

boundaryField
{
    sides
    {
        type            symmetry;
    }
    empty
    {
        type            empty;
    }
}


// ************************************************************************* //
