/*--------------------------------*- C++ -*----------------------------------*\
  =========                 |
  \\      /  F ield         | OpenFOAM: The Open Source CFD Toolbox
   \\    /   O peration     | Website:  https://openfoam.org
    \\  /    A nd           | Version:  7
     \\/     M anipulation  |
\*---------------------------------------------------------------------------*/
FoamFile
{
    version     2.0;
    format      ascii;
    class       volScalarField;
    location    "0.002";
    object      rhoNMean;
}
// * * * * * * * * * * * * * * * * * * * * * * * * * * * * * * * * * * * * * //

dimensions      [0 -3 0 0 0 0 0];

internalField   nonuniform List<scalar> 
1000
(
6.19375e+19
3.71875e+19
3.69e+19
4.15625e+19
7.08375e+19
7.18625e+19
4.77375e+19
4.8125e+19
5.29125e+19
8.63875e+19
6.0275e+19
7.16625e+19
9.5175e+19
5.61875e+19
6.87375e+19
6.68125e+19
5.66125e+19
5.9525e+19
6.52e+19
6.79125e+19
6.6775e+19
7.23375e+19
9.6325e+19
5.72625e+19
5.59375e+19
5.17875e+19
7.845e+19
5.6525e+19
5.7e+19
5.66875e+19
5.47625e+19
7.99375e+19
6.91e+19
5.21875e+19
5.35375e+19
5.34875e+19
7.7875e+19
5.7125e+19
6.16625e+19
8.49375e+19
5.63e+19
6.315e+19
9.4325e+19
7.01e+19
7.11625e+19
6.54e+19
6.30125e+19
8.865e+19
7.2075e+19
7.47e+19
1.11088e+20
6.49e+19
9.18375e+19
7.16875e+19
6.7975e+19
8.7375e+19
8.13875e+19
1.10563e+20
8.8075e+19
6.64125e+19
7.4925e+19
1.02038e+20
7.55875e+19
7.27375e+19
6.8375e+19
6.4275e+19
1.09775e+20
7.78125e+19
6.74375e+19
9.1725e+19
6.4975e+19
6.69e+19
6.53375e+19
6.52125e+19
7.67375e+19
8.00375e+19
1.03563e+20
1.043e+20
7.725e+19
7.26e+19
6.49625e+19
6.33625e+19
8.75375e+19
9.4175e+19
1.03913e+20
7.07375e+19
6.37625e+19
6.35625e+19
6.11875e+19
6.10125e+19
5.86625e+19
5.6125e+19
5.76875e+19
8.31375e+19
5.84125e+19
8.99125e+19
7.51e+19
8.73e+19
7.82375e+19
8.6825e+19
6.0375e+19
7.575e+19
7.30125e+19
6.4025e+19
6.39875e+19
6.3725e+19
6.3125e+19
6.1825e+19
7.95375e+19
9.40875e+19
6.66375e+19
6.80125e+19
6.88e+19
8.95875e+19
7.47e+19
6.8975e+19
6.04375e+19
7.09625e+19
8.96375e+19
8.46125e+19
5.895e+19
8.82875e+19
6.58875e+19
6.66e+19
6.74375e+19
9.155e+19
9.235e+19
8.83375e+19
6.6125e+19
6.34125e+19
1.17012e+20
7.025e+19
9.03875e+19
7.5525e+19
1.18887e+20
7.22875e+19
9.5425e+19
9.26125e+19
6.93375e+19
8.17875e+19
6.13625e+19
6.3e+19
6.30125e+19
7.2075e+19
1.02025e+20
7.065e+19
8.02375e+19
7.17625e+19
6.40875e+19
6.60125e+19
9.295e+19
6.61125e+19
6.665e+19
6.795e+19
9.45625e+19
1.18387e+20
7.76875e+19
7.685e+19
9.27e+19
8.9775e+19
7.0375e+19
9.27375e+19
7.09e+19
7.01875e+19
7.14875e+19
1.01225e+20
9.7025e+19
7.195e+19
7.46625e+19
7.67875e+19
8.8175e+19
1.21187e+20
9.6175e+19
8.84875e+19
9.86875e+19
7.39e+19
9.8725e+19
7.59875e+19
7.1275e+19
7.9675e+19
1.02e+20
9.01625e+19
1.14262e+20
6.58875e+19
6.74e+19
7.22e+19
9.96375e+19
7.67625e+19
1.0265e+20
7.79375e+19
8.07125e+19
8.2075e+19
1.34562e+20
1.08425e+20
8.4e+19
7.86375e+19
9.96375e+19
7.30375e+19
7.5475e+19
7.44e+19
7.6375e+19
7.56125e+19
9.9475e+19
8.47625e+19
8.85625e+19
8.71125e+19
9.17625e+19
1.12387e+20
1.37238e+20
1.089e+20
6.9625e+19
6.59125e+19
6.7025e+19
6.97375e+19
9.55625e+19
9.6025e+19
9.76125e+19
9.4475e+19
7.07875e+19
9.97625e+19
8.0025e+19
8.04875e+19
8.62125e+19
8.23125e+19
8.745e+19
8.76375e+19
8.1225e+19
9.9125e+19
7.37625e+19
9.49375e+19
7.15125e+19
7.175e+19
7.08375e+19
9.48375e+19
7.33375e+19
7.4e+19
8.51e+19
7.715e+19
6.93e+19
8.4625e+19
8.89e+19
7.41375e+19
7.905e+19
9.99e+19
6.875e+19
1.10325e+20
9.1725e+19
9.00125e+19
1.0845e+20
1.1855e+20
9.43375e+19
1.04462e+20
7.9675e+19
7.6775e+19
7.575e+19
7.075e+19
7.62875e+19
7.90875e+19
7.66625e+19
7.13625e+19
7.025e+19
7.0275e+19
6.02125e+19
6.0225e+19
8.61375e+19
6.22875e+19
6.415e+19
6.085e+19
6.32125e+19
6.6375e+19
6.80375e+19
6.97e+19
7.0625e+19
7.25125e+19
7.16625e+19
7.37125e+19
7.58375e+19
7.7275e+19
7.7125e+19
7.86125e+19
7.79e+19
1.50763e+20
7.72875e+19
7.93e+19
7.775e+19
7.45e+19
7.4875e+19
7.22e+19
6.83125e+19
9.59125e+19
6.72375e+19
6.70625e+19
6.82375e+19
6.155e+19
8.355e+19
5.94125e+19
6.01e+19
9.1525e+19
8.90875e+19
6.37e+19
1.14937e+20
6.39e+19
5.965e+19
6.005e+19
9.1575e+19
6.64375e+19
7.12375e+19
7.47e+19
7.46625e+19
7.1975e+19
6.84875e+19
7.2125e+19
7.85e+19
7.09e+19
6.375e+19
6.545e+19
6.65625e+19
9.30125e+19
7.53375e+19
7.62625e+19
7.86125e+19
8.09875e+19
8.56625e+19
9.19625e+19
1.16737e+20
8.3e+19
1.22863e+20
7.66875e+19
1.2175e+20
7.9925e+19
1.09463e+20
8.13375e+19
8.2525e+19
1.04925e+20
7.64625e+19
1.02963e+20
7.5625e+19
7.32125e+19
7.31125e+19
9.84375e+19
7.14125e+19
1.215e+20
8.01625e+19
8.26375e+19
1.10013e+20
8.1525e+19
8.16e+19
8.35e+19
1.015e+20
8.55375e+19
7.89125e+19
7.65625e+19
7.40125e+19
7.205e+19
1.01775e+20
7.7e+19
1.00288e+20
7.49375e+19
6.99e+19
6.98875e+19
6.9925e+19
7.25e+19
7.39375e+19
1.00375e+20
8.82625e+19
1.138e+20
1.04237e+20
1.01537e+20
7.855e+19
8.0425e+19
8.05375e+19
7.64625e+19
7.5325e+19
9.735e+19
8.56e+19
9.25625e+19
1.16113e+20
8.42625e+19
7.77e+19
7.955e+19
7.90125e+19
7.59e+19
7.33625e+19
7.6575e+19
7.97125e+19
7.75875e+19
7.88e+19
7.86625e+19
1.02162e+20
1.027e+20
1.06837e+20
1.22075e+20
9.2025e+19
7.96e+19
1.04288e+20
7.9475e+19
1.04212e+20
7.475e+19
9.51375e+19
9.86625e+19
9.94e+19
7.36875e+19
7.57875e+19
7.87375e+19
1.04625e+20
9.04625e+19
1.17763e+20
8.58125e+19
8.06875e+19
1.06575e+20
1.32275e+20
1.2055e+20
9.3425e+19
1.15475e+20
7.43625e+19
9.29e+19
9.56375e+19
9.50625e+19
7.2425e+19
8.13125e+19
9.3225e+19
1.0025e+20
7.7125e+19
7.80875e+19
7.51625e+19
6.8525e+19
7.34e+19
7.4575e+19
1.19262e+20
6.88625e+19
6.13e+19
5.98875e+19
6.335e+19
6.73875e+19
6.67625e+19
7.99375e+19
8.0375e+19
9.48875e+19
9.3625e+19
6.53375e+19
6.82875e+19
9.6225e+19
6.85e+19
6.73875e+19
6.3125e+19
8.31125e+19
5.57375e+19
7.8475e+19
5.605e+19
5.8575e+19
8.3275e+19
5.8775e+19
6.14125e+19
6.475e+19
6.54625e+19
6.565e+19
6.81375e+19
6.87125e+19
6.76e+19
9.15e+19
1.17e+20
6.55625e+19
8.86e+19
9.67625e+19
6.64375e+19
6.735e+19
6.71e+19
6.03e+19
5.8675e+19
1.09062e+20
1.11987e+20
8.695e+19
6.275e+19
6.61e+19
6.91375e+19
9.05375e+19
7.11625e+19
7.72e+19
8.365e+19
7.3675e+19
6.76625e+19
6.60875e+19
9.19125e+19
9.605e+19
7.215e+19
9.5825e+19
7.4375e+19
7.41125e+19
7.06e+19
6.78875e+19
6.74625e+19
6.6825e+19
9.9375e+19
8.195e+19
6.31125e+19
8.93375e+19
6.43e+19
1.14587e+20
6.5675e+19
7.085e+19
7.69375e+19
1.01637e+20
7.6675e+19
7.79625e+19
7.6275e+19
1.07475e+20
8.64125e+19
7.2575e+19
6.80625e+19
7.54375e+19
8.83625e+19
1.08337e+20
8.31e+19
1.03725e+20
7.555e+19
9.45375e+19
1.0815e+20
7.125e+19
7.2425e+19
9.68625e+19
8.57e+19
8.4475e+19
7.4375e+19
7.77e+19
7.73e+19
7.8325e+19
8.0175e+19
7.96625e+19
1.337e+20
7.61375e+19
7.99625e+19
7.34375e+19
1.47587e+20
1.00538e+20
7.51375e+19
6.885e+19
6.16875e+19
1.11387e+20
5.98375e+19
8.4375e+19
6.13875e+19
6.4125e+19
9.405e+19
6.93625e+19
7.03875e+19
7.32625e+19
9.06625e+19
8.6425e+19
1.06362e+20
6.8675e+19
7.11375e+19
1.28675e+20
8.7375e+19
6.405e+19
6.3725e+19
8.90125e+19
9.2625e+19
8.48e+19
7.3075e+19
6.5125e+19
6.75375e+19
7.215e+19
7.48875e+19
9.9925e+19
9.88e+19
7.03625e+19
6.60375e+19
9.2725e+19
9.995e+19
8.49e+19
8.51e+19
7.79125e+19
1.17375e+20
9.835e+19
1.13187e+20
8.785e+19
8.93875e+19
8.39625e+19
1.0705e+20
8.49875e+19
8.485e+19
8.4125e+19
8.75e+19
8.61125e+19
7.92625e+19
9.9175e+19
1.2385e+20
8.50875e+19
1.046e+20
7.72e+19
7.87125e+19
9.2825e+19
9.835e+19
1.0605e+20
1e+20
9.7325e+19
8.63625e+19
8.50625e+19
8.1975e+19
8.1975e+19
1.06238e+20
8.33875e+19
8.81625e+19
8.92125e+19
1.16937e+20
8.88375e+19
1.313e+20
1.03687e+20
8.74125e+19
8.575e+19
7.78375e+19
1.0555e+20
7.89875e+19
7.695e+19
7.8e+19
1.05413e+20
8.02e+19
7.7675e+19
7.47e+19
7.2725e+19
7.355e+19
9.70125e+19
6.9075e+19
6.815e+19
6.84e+19
1.31937e+20
8.53375e+19
8.6575e+19
7.9625e+19
1.00888e+20
7.1625e+19
7.18375e+19
9.53875e+19
6.89125e+19
8.46e+19
6.04125e+19
5.7075e+19
5.71125e+19
9.1375e+19
7.8775e+19
8.20625e+19
7.665e+19
1.18275e+20
1.0745e+20
6.99875e+19
1.003e+20
8.725e+19
6.86875e+19
6.47875e+19
6.64875e+19
6.57375e+19
6.4175e+19
6.05625e+19
6.11125e+19
6.065e+19
6.6725e+19
9.7725e+19
9.625e+19
6.6175e+19
8.6275e+19
1.11925e+20
6.40625e+19
6.51e+19
9.01e+19
6.535e+19
7.32125e+19
1.02937e+20
7.76125e+19
6.83125e+19
1.1885e+20
6.84125e+19
9.2525e+19
7.075e+19
7.06625e+19
7.24e+19
1.0175e+20
7.88875e+19
8.40125e+19
8.94375e+19
9.05625e+19
1.15825e+20
9.0575e+19
8.7575e+19
8.64625e+19
8.5625e+19
1.09313e+20
1.115e+20
8.11625e+19
8.295e+19
8.3725e+19
8.0925e+19
7.94875e+19
9.24625e+19
9.6425e+19
9.17e+19
8.375e+19
8.175e+19
9.60125e+19
1.1805e+20
1.04162e+20
7.84375e+19
1.096e+20
1.14825e+20
1.23687e+20
9.08125e+19
1.35687e+20
8.48875e+19
1.62737e+20
7.46375e+19
7.13625e+19
7.77875e+19
8.035e+19
8.6825e+19
1.01012e+20
8.51e+19
8.66e+19
8.06875e+19
8.2375e+19
8.11e+19
8.36375e+19
8.5225e+19
8.63625e+19
1.09225e+20
8.60875e+19
8.385e+19
8.0625e+19
8.10625e+19
1.05663e+20
7.52375e+19
9.94e+19
9.2825e+19
1.12663e+20
8.4e+19
8.3225e+19
8.27125e+19
7.71e+19
7.94e+19
1.15375e+20
9.24125e+19
7.5725e+19
6.84875e+19
7.825e+19
1.05612e+20
9.0175e+19
8.8125e+19
6.44625e+19
6.2875e+19
7.1175e+19
7.2625e+19
1.07663e+20
9.16e+19
7.77125e+19
7.17e+19
6.71125e+19
6.98875e+19
7.35875e+19
8.80125e+19
8.44375e+19
9.9525e+19
1.06275e+20
1.10788e+20
8.59875e+19
1.012e+20
1.02875e+20
1.23088e+20
8.77125e+19
8.07875e+19
8.15625e+19
8.4075e+19
9.195e+19
9.90625e+19
9.60625e+19
1.16413e+20
7.91125e+19
1.00513e+20
7.6725e+19
7.66875e+19
1.01688e+20
9.86125e+19
7.19875e+19
1.02625e+20
7.67875e+19
7.85e+19
8.52e+19
9.8625e+19
7.9525e+19
8.085e+19
7.9325e+19
8.30625e+19
8.04375e+19
1.20412e+20
7.4375e+19
9.7075e+19
7.1025e+19
6.91e+19
1.19788e+20
6.48125e+19
6.1925e+19
8.585e+19
8.53375e+19
8.5525e+19
6.59375e+19
6.62125e+19
6.89e+19
7.31125e+19
7.34375e+19
6.43625e+19
7.13125e+19
7.14375e+19
6.98125e+19
6.045e+19
5.88125e+19
5.88e+19
8.2975e+19
8.2925e+19
5.7275e+19
1.07788e+20
5.645e+19
8.285e+19
9.1675e+19
7.3725e+19
1.01275e+20
8.87375e+19
6.56875e+19
9.5e+19
9.955e+19
1.09275e+20
8.465e+19
7.45875e+19
9.9e+19
1.1395e+20
9.06375e+19
8.3125e+19
1.077e+20
1.07125e+20
8.5625e+19
8.25125e+19
1.0665e+20
8.04875e+19
8.0475e+19
8.83e+19
9.1175e+19
1.07625e+20
7.325e+19
1.0025e+20
1.008e+20
1.03037e+20
7.77875e+19
1.01487e+20
1.27088e+20
7.34375e+19
7.4475e+19
7.61125e+19
8.6625e+19
1.15925e+20
9.7225e+19
1.1635e+20
8.58125e+19
8.7775e+19
9.13125e+19
9.055e+19
1.1025e+20
7.9275e+19
9.96125e+19
8.64875e+19
9.22875e+19
9.9925e+19
1.04662e+20
1.04813e+20
9.625e+19
1.1935e+20
9.80625e+19
9.7775e+19
9.085e+19
8.08125e+19
7.45375e+19
8.125e+19
8.38625e+19
7.68625e+19
1.04725e+20
9.85e+19
8.7425e+19
7.80625e+19
1.0255e+20
1.02337e+20
7.51875e+19
7.2575e+19
1.046e+20
8.01625e+19
7.96625e+19
9.9575e+19
7.79125e+19
7.4725e+19
8.8525e+19
7.275e+19
6.28875e+19
9.87375e+19
8.1925e+19
7.10875e+19
6.79e+19
6.34e+19
8.9075e+19
9.16e+19
6.83875e+19
6.36625e+19
6.2025e+19
8.92375e+19
9.03375e+19
6.80625e+19
8.775e+19
1.32262e+20
9.50875e+19
1.39937e+20
7.26375e+19
7.1725e+19
1.01338e+20
7.58125e+19
7.59125e+19
1.13825e+20
7.19e+19
6.98375e+19
9.3825e+19
6.7675e+19
6.7875e+19
6.70125e+19
6.69e+19
6.80625e+19
9.26e+19
7.0025e+19
9.455e+19
9.295e+19
7.025e+19
9.71625e+19
7.3675e+19
7.34875e+19
7.725e+19
7.20625e+19
6.8875e+19
6.06375e+19
8.7e+19
6.76875e+19
8.305e+19
6.2075e+19
6.0525e+19
6.15875e+19
8.6875e+19
6.3475e+19
8.9475e+19
6.3775e+19
8.54375e+19
1.07513e+20
5.54875e+19
5.32875e+19
5.3275e+19
5.35e+19
8.7025e+19
6.22375e+19
6.1775e+19
8.90625e+19
5.8475e+19
5.80375e+19
5.97125e+19
5.98e+19
5.84625e+19
6.00125e+19
6.195e+19
9.235e+19
9.22375e+19
1.09587e+20
7.52875e+19
7.27875e+19
8.615e+19
1.0635e+20
7.35125e+19
6.08375e+19
7.0275e+19
8.4925e+19
7.58e+19
7.77375e+19
5.615e+19
5.435e+19
7.625e+19
7.475e+19
5.1075e+19
5.30125e+19
5.985e+19
5.95e+19
5.94875e+19
7.50625e+19
4.6125e+19
4.29875e+19
4.36625e+19
3.94375e+19
3.7075e+19
4.42625e+19
4.16375e+19
6.1325e+19
3.2775e+19
3.1975e+19
3.16375e+19
)
;

boundaryField
{
    sides
    {
        type            calculated;
        value           nonuniform List<scalar> 2(3.16375e+19 6.19375e+19);
    }
    empty
    {
        type            empty;
    }
}


// ************************************************************************* //
