/*--------------------------------*- C++ -*----------------------------------*\
  =========                 |
  \\      /  F ield         | OpenFOAM: The Open Source CFD Toolbox
   \\    /   O peration     | Website:  https://openfoam.org
    \\  /    A nd           | Version:  7
     \\/     M anipulation  |
\*---------------------------------------------------------------------------*/
FoamFile
{
    version     2.0;
    format      ascii;
    class       volVectorField;
    location    "0.002";
    object      UMean;
}
// * * * * * * * * * * * * * * * * * * * * * * * * * * * * * * * * * * * * * //

dimensions      [0 1 -1 0 0 0 0];

internalField   nonuniform List<vector> 
500
(
(-314.194 -4.21216 2.93409)
(-260.962 2.08023 0.632453)
(-224.199 -0.934918 -1.4163)
(-197.302 -0.746085 0.464465)
(-176.322 -2.61427 2.43662)
(-157.353 1.23717 8.50763)
(-144.541 -1.27442 2.89254)
(-129.812 -6.80957 1.00842)
(-120.72 -0.232287 -1.2017)
(-108.941 -7.05732 -0.0788216)
(-97.2023 0.582654 1.2302)
(-89.8417 -1.15452 2.84553)
(-83.6294 -8.83639 -4.44266)
(-73.8616 -4.09006 -3.5932)
(-66.9148 -2.06836 -4.59386)
(-61.6985 4.02865 -4.10212)
(-55.5953 3.39851 -10.1707)
(-49.4623 3.33124 0.0206474)
(-44.452 0.516429 -3.11375)
(-40.7279 -3.83794 3.66175)
(-36.4342 2.911 10.4616)
(-32.5882 1.17283 -1.19041)
(-29.7792 -3.10734 9.1111)
(-25.9073 -6.06071 10.0841)
(-23.0789 -5.31303 2.13941)
(-20.0805 -0.409643 8.033)
(-17.0413 7.22269 -0.355448)
(-14.6314 3.67521 -3.1438)
(-12.34 3.35148 -4.08014)
(-9.70441 7.20938 -4.68463)
(-7.76267 -0.541677 2.04571)
(-6.34939 1.70929 0.484825)
(-4.92973 -1.6276 0.951173)
(-3.27567 -5.22587 -2.82805)
(-1.77376 5.17917 3.66197)
(-1.46733 4.53256 3.62912)
(-0.759825 1.14683 -3.21188)
(0.134439 -3.1078 -5.13756)
(0.359916 -7.27467 -8.96714)
(0.656423 -1.19476 -9.27279)
(1.28422 5.67021 -4.33207)
(1.57923 3.11282 -0.788021)
(1.68906 3.80383 -4.34204)
(1.78623 9.16788 4.50548)
(1.66744 5.7214 5.8428)
(1.73399 5.44794 12.6642)
(1.65725 4.73932 -3.48261)
(1.71079 10.5929 -10.5937)
(1.81605 6.54872 -7.5984)
(1.85022 -2.96934 -7.82121)
(1.76641 -2.46398 1.85872)
(1.45744 -1.71843 3.72932)
(0.816124 2.98453 -1.75765)
(0.765681 2.88279 -11.6394)
(0.787123 2.63729 -6.27137)
(1.3426 12.1159 -4.37285)
(1.22656 20.6225 -5.54753)
(1.369 9.08756 -3.16563)
(1.27614 11.6031 0.0727545)
(0.866168 9.4074 -2.82005)
(0.172352 4.5634 -4.78627)
(-0.526021 8.06925 -4.06518)
(-0.279951 15.511 0.274023)
(-0.0826341 1.7527 4.295)
(0.278034 -1.38011 2.85751)
(0.250463 -12.0146 1.4474)
(0.302978 -8.33013 1.76262)
(0.818651 -2.14999 -4.53155)
(1.28076 0.565026 8.16081)
(1.11677 0.768161 3.0335)
(1.65505 -1.30894 -6.70775)
(1.7165 -7.96784 -7.18557)
(1.82429 -8.82733 -11.0516)
(1.98668 -1.37811 -4.04858)
(2.02952 8.21844 3.07745)
(2.27958 7.37279 4.27999)
(2.16683 -0.196546 6.56819)
(2.0803 1.03927 1.76377)
(2.15405 -8.22023 -4.60369)
(2.45543 -7.80632 -4.4113)
(2.85683 1.22717 -8.37067)
(2.17175 9.06133 0.553942)
(1.93753 5.76665 -0.218326)
(2.53317 4.16379 -0.484749)
(2.56412 10.7677 8.08516)
(2.51242 6.78732 12.3046)
(1.91725 -0.194626 4.67678)
(2.19075 1.52987 3.68814)
(2.00703 5.37069 1.01969)
(1.80519 3.02678 4.21477)
(1.83908 -0.161691 4.29896)
(2.09096 -2.55391 8.07325)
(1.44103 -0.666162 12.474)
(1.53928 -5.73441 9.97522)
(1.74153 -16.1637 5.84025)
(1.03871 -4.66037 3.31194)
(1.10944 0.146059 -0.900736)
(1.36551 -3.92706 -14.3943)
(1.12289 -6.44825 -19.3022)
(1.7024 -2.04275 -7.5136)
(1.59586 -6.74287 6.3521)
(1.49179 -6.13511 9.78823)
(1.84619 -8.11666 5.20806)
(1.67924 -10.3369 5.02045)
(1.3706 -9.45691 -1.90136)
(1.49504 -7.6875 -2.63257)
(1.43693 1.67989 -2.83707)
(1.83064 8.28742 -0.616121)
(1.44072 5.82191 -2.67393)
(1.27209 3.18734 0.422468)
(0.985533 7.37031 -2.90126)
(0.553464 5.46283 -6.60937)
(0.284467 -2.05009 -8.04382)
(-0.229143 -7.18673 -2.39714)
(-0.546717 -8.09938 2.18259)
(-0.534101 -5.78765 5.45653)
(-1.47743 -4.83104 -4.95556)
(-1.89039 2.17963 -0.0487822)
(-2.5547 -0.882459 6.68603)
(-2.88753 3.03421 9.31472)
(-2.66355 1.70773 9.39152)
(-2.03931 -7.88666 3.33976)
(-2.0554 -0.814606 -6.80587)
(-1.90572 10.4015 -6.13188)
(-1.84796 -2.44632 -0.562696)
(-1.607 -5.13262 -6.50353)
(-1.36804 -0.171341 -9.03901)
(-0.86684 6.94422 -2.5309)
(-1.00939 8.71536 2.46839)
(-0.772512 0.332623 -0.741751)
(-0.888676 0.960211 5.05816)
(-0.527936 2.84657 -4.99762)
(-0.384381 1.95651 -1.30027)
(-0.244482 7.68888 2.07301)
(0.0408631 0.439199 0.181953)
(-0.11153 3.93722 -2.57249)
(-0.356737 2.69024 -7.51863)
(-0.774154 6.446 -7.90211)
(-0.422258 3.93128 -12.0088)
(-0.375318 -0.781256 -5.39027)
(-0.275312 -1.20153 6.83013)
(-0.0713374 -6.52823 6.65174)
(0.290956 -0.356837 6.7366)
(0.977549 1.87127 0.410109)
(1.14698 -10.8047 2.73513)
(0.924668 -8.45301 6.24349)
(1.24521 -3.69821 0.444389)
(0.875087 -3.08085 0.867731)
(0.241774 -3.02449 4.74438)
(0.318466 -5.24411 3.3895)
(-0.309453 -3.05751 -7.05964)
(-0.227296 -4.47961 -4.33924)
(0.295359 -3.37593 -7.64631)
(0.711339 -3.55433 -6.78001)
(0.8669 -5.83425 5.97169)
(1.30881 -2.40444 0.918673)
(1.34382 -9.37865 -0.723313)
(1.67115 -8.50688 -0.249352)
(1.85614 -10.7229 -1.4358)
(1.35509 -1.90706 -3.22479)
(1.3488 0.674121 -3.26459)
(0.869781 0.479521 3.72622)
(1.18202 -1.42424 -0.894704)
(1.65718 -5.9349 -1.95983)
(1.56779 -12.3833 -5.2559)
(1.48 -1.29238 -6.92315)
(1.90593 -5.96172 -10.7566)
(1.64905 -6.48053 -6.60255)
(1.46105 0.848624 0.256042)
(1.51861 -11.6403 -0.934092)
(1.67432 -12.4218 5.29267)
(1.91502 -16.5546 0.173175)
(1.68237 -5.78871 -3.07325)
(1.60654 -2.86954 4.39685)
(1.37896 -12.1289 9.61826)
(1.63355 -7.89462 2.79035)
(1.79956 -5.94157 -3.66052)
(1.80895 -2.46898 -0.386988)
(1.0008 -2.71488 -2.56287)
(1.0555 -5.27401 -3.58951)
(0.982671 -6.80981 3.48956)
(0.971705 -9.25941 15.5839)
(0.905269 -4.87478 4.26924)
(0.991135 0.932368 11.144)
(0.586362 12.4096 11.6561)
(0.488259 9.51633 1.96295)
(0.185379 3.69413 -1.74971)
(-0.0380059 -0.895348 -0.986596)
(0.27917 -8.51439 -7.25036)
(0.282466 -8.21752 -1.5682)
(0.295166 -6.68828 -1.55109)
(0.342228 2.59685 -3.31216)
(0.161935 10.6734 -0.660946)
(0.283193 13.9036 3.14613)
(-0.23227 18.2957 -0.904487)
(-0.600085 9.53915 -3.4236)
(0.0699015 7.18526 -7.39725)
(0.254266 0.523976 -11.4131)
(0.694949 1.44906 -6.6241)
(0.455239 1.16602 -8.44495)
(-0.102974 1.5249 -7.20305)
(0.327589 2.08694 -4.35434)
(1.0029 0.924959 -7.41617)
(1.45193 2.50814 -8.62591)
(1.90102 -5.22892 -7.07991)
(1.82082 -8.27926 -5.2841)
(1.8442 -1.06165 -12.4497)
(1.54856 -0.868056 -9.17954)
(1.25955 -1.17006 -2.94869)
(1.54167 -2.16079 -8.92157)
(2.12933 10.4549 -5.30993)
(2.0882 12.7099 -2.43115)
(2.21046 10.0105 -8.967)
(2.43787 9.95042 -1.20738)
(2.60656 6.63987 6.68825)
(3.21372 0.469747 6.47886)
(3.30456 -13.2208 3.60208)
(3.40064 -9.55455 3.09351)
(3.69313 -13.8883 2.16002)
(3.75413 -11.6857 5.77019)
(4.35128 0.875576 0.859262)
(5.29551 -1.81459 -7.64969)
(5.35353 -1.33371 -4.10025)
(5.03856 -5.87292 -1.3174)
(4.92696 -2.74035 -6.32534)
(4.47998 8.30128 -2.55103)
(4.60854 6.41137 4.8447)
(4.78181 4.84755 8.4079)
(5.05211 7.82881 8.32838)
(5.37482 6.33155 12.5339)
(5.61439 -0.441968 2.34681)
(4.86793 1.31037 -2.25573)
(4.56559 -0.0515027 -11.1444)
(4.5974 -0.573263 -9.51056)
(5.41833 -4.84598 -7.19867)
(5.74892 -3.67839 -2.56925)
(5.67743 5.30082 2.77025)
(5.02236 -2.22082 -1.29762)
(4.36272 -1.93992 3.95954)
(4.25419 3.65001 1.23804)
(4.5832 2.49453 5.54329)
(4.10185 5.43063 5.50543)
(3.9212 5.93253 -3.61054)
(4.31395 -2.03906 -6.42515)
(4.32655 2.29972 -5.93716)
(4.71804 -1.09461 -5.43547)
(5.40948 6.81429 -9.10669)
(5.3925 12.8484 -2.32384)
(4.97752 5.49365 3.69918)
(5.33418 1.26909 5.46968)
(-0.043935 0.848432 -0.280501)
(-4.80981 5.55527 0.71157)
(-5.17234 0.332834 -2.43534)
(-5.12702 5.7907 0.907229)
(-4.86218 9.18446 -1.28276)
(-5.4105 13.0142 -8.57894)
(-6.07046 7.6913 -9.76484)
(-6.25172 -0.66599 -6.32312)
(-6.75714 -3.45972 -5.22364)
(-6.579 -5.83687 0.268154)
(-6.87833 -0.973697 13.6332)
(-6.91895 -1.55274 2.2667)
(-6.98474 8.73786 3.28385)
(-7.66111 -0.0320901 0.492441)
(-7.8446 -6.09462 3.67128)
(-7.99253 -0.977637 0.385284)
(-7.10693 -4.56671 8.05863)
(-7.31721 -4.40705 16.1885)
(-7.04008 -5.80718 11.9102)
(-6.79883 -8.40346 3.9357)
(-6.79563 -1.03028 4.98853)
(-6.76006 6.24232 7.07625)
(-7.07233 -4.06284 -1.26431)
(-7.23312 1.03591 0.255535)
(-7.18902 9.0653 8.00337)
(-7.02169 7.5013 2.39186)
(-6.65164 12.6272 0.768022)
(-6.45013 4.08917 3.09124)
(-5.78031 9.73169 -0.515923)
(-5.72806 6.13762 0.534371)
(-6.56291 -0.883133 9.41919)
(-6.40453 -3.64759 -1.79705)
(-6.3961 -11.2271 0.670716)
(-6.1834 -9.64232 3.00925)
(-6.2102 -12.2069 -1.27699)
(-5.45899 3.51939 4.42749)
(-5.2174 6.08052 11.0414)
(-4.7904 1.23673 7.99685)
(-4.06963 -0.826031 11.5772)
(-3.73294 -2.27965 0.130968)
(-3.37547 -10.834 -5.62251)
(-2.29543 -7.5307 -5.34866)
(-2.19804 3.74904 -4.39509)
(-1.8615 0.609006 -4.38899)
(-1.91494 -4.03515 2.99614)
(-1.48343 -5.81974 2.96272)
(-1.25426 -5.98358 -1.46587)
(-1.49173 -6.14726 -0.36286)
(-1.36663 -2.98125 -8.21644)
(-1.32494 -1.08911 -11.6723)
(-1.20409 -5.44222 -8.55505)
(-1.36727 -12.8899 -2.8754)
(-1.5627 -16.9683 -0.388226)
(-1.97603 -9.08551 -4.33271)
(-1.78316 -1.26833 -4.05028)
(-1.72451 -1.91955 1.98603)
(-2.03147 -2.08343 1.11863)
(-2.01651 -1.65235 -4.48973)
(-1.63624 -2.44399 -12.2215)
(-1.47924 -0.553805 -6.57313)
(-1.30417 6.86859 -5.10088)
(-1.43856 11.0421 -5.92727)
(-1.20068 -2.59108 -5.7455)
(-1.26312 -0.186695 -3.2492)
(-0.797329 7.20965 -9.04577)
(-0.683745 9.4274 -5.56313)
(-0.266417 12.102 -4.3587)
(0.433612 3.23981 -5.36033)
(0.0957293 -5.57575 0.978666)
(-0.329257 -8.91145 -0.976217)
(0.00633695 -4.29412 6.04056)
(0.263256 -6.88334 5.47211)
(0.324042 -2.61843 10.5517)
(-0.139485 -2.82099 13.1257)
(-0.330295 -7.14946 3.10265)
(-0.141866 -6.30061 -0.215989)
(-0.0277833 -0.952185 -0.499752)
(-0.178148 0.843918 -2.44494)
(0.14558 -0.697914 -1.12574)
(0.35802 -0.430746 -6.24183)
(0.0239831 -8.61895 -9.49677)
(-0.00123201 -6.9027 -1.55806)
(0.475567 2.06065 10.1342)
(0.821198 -5.55612 9.31264)
(0.58362 -11.2345 5.74077)
(0.701987 -1.35759 2.2168)
(0.604771 -8.08836 1.19774)
(0.618253 5.62362 7.96008)
(0.726177 3.88635 -1.9774)
(0.269194 3.93036 -4.17683)
(-0.0192115 10.1294 3.79888)
(-0.36751 8.67492 17.598)
(-0.481416 -0.369628 8.18376)
(0.11512 -8.39141 3.15208)
(0.413568 -4.09603 11.9706)
(0.396652 -13.3792 12.9273)
(0.274984 -6.97172 8.59804)
(0.401163 -3.53294 8.12186)
(0.453159 -5.14471 3.98049)
(0.770345 -5.53797 4.06004)
(1.35638 -8.40205 11.5453)
(1.55093 -3.06636 7.70778)
(1.66399 9.29566 -2.23799)
(1.46243 2.03464 -6.06008)
(1.58032 5.02198 -11.4189)
(1.76604 2.85761 -6.97826)
(1.45746 3.40915 -12.9009)
(1.73669 3.13609 -6.24903)
(1.87081 7.3622 -2.47114)
(1.79543 9.00084 -1.28061)
(1.89855 9.52362 3.55933)
(1.62926 8.78674 3.25147)
(1.64614 1.22122 6.7047)
(1.89935 6.49176 12.3981)
(2.32485 17.9862 3.30993)
(2.96606 10.4151 -2.32729)
(2.29397 12.8453 1.3078)
(2.24363 11.4574 2.70655)
(2.58829 4.57335 4.06897)
(2.40903 -0.987421 -0.237061)
(2.48858 -1.39039 6.28351)
(1.9931 3.3664 9.25356)
(1.87886 -1.72694 14.5436)
(1.48268 -7.58299 4.29348)
(1.16535 -7.67785 -5.14223)
(1.43775 -12.1936 -12.0942)
(1.45311 -15.899 -3.6695)
(1.15731 -9.31842 -3.22285)
(1.4549 -2.62784 -5.85114)
(2.00102 0.255346 0.379367)
(2.6958 -9.67609 -1.51926)
(2.49422 -11.2936 -5.66005)
(2.74251 -9.34782 1.34866)
(2.8581 0.483053 -2.94541)
(2.6135 8.82175 -0.609573)
(2.70831 3.81513 -1.39619)
(2.40503 3.29825 2.99876)
(1.74026 4.87451 2.65575)
(1.38665 5.37178 -1.07785)
(1.48636 7.70171 -1.73621)
(1.76096 -3.75168 2.50639)
(2.02427 -4.50711 -5.55284)
(1.59731 5.29991 -7.23982)
(1.70847 4.48557 1.41795)
(1.93716 -7.75203 4.31968)
(1.82039 -11.5294 6.84994)
(1.49567 -3.20955 15.1216)
(1.47204 4.78131 7.52368)
(1.71797 0.830202 -1.21892)
(1.94894 -4.93871 2.80448)
(1.88259 -2.01292 12.6212)
(1.56968 -5.04292 13.8257)
(1.55765 -3.37677 6.78167)
(2.01787 -5.1709 -8.34174)
(2.49614 -9.88161 -8.1865)
(2.53772 -1.69394 1.31161)
(2.55084 3.70765 0.326499)
(2.48417 7.41314 -0.286353)
(3.10305 10.4745 0.0978551)
(3.37625 2.90564 -1.47952)
(3.38447 3.05993 6.29081)
(2.75561 4.77666 2.7596)
(2.64533 4.75336 -3.10414)
(2.37444 7.862 -10.5316)
(1.82101 11.1116 -0.260544)
(1.35897 4.41483 -3.72175)
(1.65397 -2.2114 -2.77731)
(1.7086 -5.81177 1.71678)
(1.77881 -14.8017 0.0536312)
(2.18392 -9.48118 -8.40659)
(2.30457 -12.8756 -18.0547)
(2.21055 -6.24481 -14.3062)
(2.20046 3.04781 -10.7538)
(2.09744 -3.15317 -10.6208)
(2.35664 -0.212272 -9.73193)
(2.74187 -11.491 -14.2502)
(2.89973 -11.3255 -6.18423)
(2.53932 -12.3035 -8.40261)
(2.38077 -8.51914 -3.17449)
(2.3696 3.93676 -2.37096)
(2.36431 8.21319 -1.30391)
(1.90684 1.57711 -2.48232)
(2.05732 -2.68287 2.99768)
(2.2187 -3.14773 16.379)
(2.30552 -1.59408 16.1207)
(2.54491 3.01606 3.93267)
(3.3305 -5.83142 7.17767)
(2.90398 -14.7393 1.27667)
(3.13946 -7.24399 0.973114)
(3.43857 -0.319866 3.74826)
(3.05621 7.72626 -2.6992)
(3.05065 8.84006 -0.23276)
(2.95393 8.35634 6.38617)
(3.10679 5.39363 6.63194)
(3.61817 0.375836 14.8629)
(3.28623 1.17467 11.618)
(3.35775 0.994174 1.06732)
(3.06859 -8.05079 -12.6701)
(3.38236 -6.52063 -9.22469)
(3.61728 -4.22912 -0.835667)
(3.69141 -0.440326 -6.8491)
(3.58318 -10.19 -5.83952)
(4.42945 -1.78024 -4.10799)
(3.70917 10.1559 -9.64915)
(3.4932 6.19347 -8.41926)
(2.98579 0.415082 -7.92772)
(2.32913 -4.88772 0.468465)
(2.11191 -3.29098 -4.24313)
(1.93584 -0.981294 3.97489)
(2.77964 3.18363 16.026)
(3.75145 10.1866 19.1321)
(4.06227 6.4337 12.4793)
(4.38796 2.35107 0.447499)
(4.67539 -0.268035 4.92933)
(5.24701 -7.76682 6.74362)
(6.28295 -3.57042 4.6236)
(7.33036 -5.88857 4.56286)
(8.3416 -3.44946 2.72282)
(10.2004 -3.71993 2.81972)
(11.439 -0.282612 2.10838)
(13.29 -1.25017 5.15172)
(15.1518 4.86656 -2.10488)
(17.3625 2.87141 1.36864)
(19.8567 -9.14209 6.82533)
(23.3388 -8.56722 -0.353897)
(25.6164 -6.97945 0.5475)
(28.4664 -6.97512 3.87067)
(32.3676 -5.17079 -7.45887)
(35.8845 -1.25127 -11.4499)
(39.6749 2.45788 0.19543)
(43.3854 3.07352 1.42736)
(47.775 6.70498 -1.53511)
(52.6084 -9.99885 -1.76917)
(57.1531 -5.71183 -8.04303)
(62.6064 0.779333 -6.13626)
(69.1502 4.40754 -6.99747)
(76.2016 1.64508 -5.16857)
(81.898 2.26848 -0.589324)
(90.8725 -5.9532 -3.63014)
(101.378 -0.305014 -2.28011)
(110.191 5.43533 0.847724)
(119.907 0.931929 -1.45408)
(131.017 5.34341 -0.311034)
(141.943 -5.69114 2.23821)
(160.33 2.04176 -4.73357)
(177.532 -5.44798 2.07242)
(196.61 2.84598 6.56591)
(223.379 -4.64067 2.17214)
(257.799 3.90685 1.84858)
(318.321 1.55014 1.93129)
)
;

boundaryField
{
    sides
    {
        type            calculated;
        value           nonuniform List<vector> 2((318.321 1.55014 1.93129) (-314.194 -4.21216 2.93409));
    }
    empty
    {
        type            empty;
    }
}


// ************************************************************************* //
