/*--------------------------------*- C++ -*----------------------------------*\
  =========                 |
  \\      /  F ield         | OpenFOAM: The Open Source CFD Toolbox
   \\    /   O peration     | Website:  https://openfoam.org
    \\  /    A nd           | Version:  7
     \\/     M anipulation  |
\*---------------------------------------------------------------------------*/
FoamFile
{
    version     2.0;
    format      ascii;
    class       volVectorField;
    location    "0.002";
    object      UMean;
}
// * * * * * * * * * * * * * * * * * * * * * * * * * * * * * * * * * * * * * //

dimensions      [0 1 -1 0 0 0 0];

internalField   nonuniform List<vector> 
1000
(
(0.205481 -10.2021 20.303)
(-0.0778084 -3.71709 10.1845)
(-0.430454 1.89567 -0.320549)
(-0.209276 -5.61179 13.8749)
(-0.0288794 -0.729056 11.3013)
(0.153553 -2.25928 17.4713)
(0.246498 -5.13737 22.2791)
(0.515246 -2.59658 8.56756)
(0.775882 -2.06166 -4.96067)
(1.01652 -0.732557 -1.74683)
(0.995246 0.894352 -3.51871)
(1.13142 6.73698 -1.26558)
(1.04279 8.58605 9.14142)
(1.37165 11.6075 11.703)
(1.48522 6.45283 9.89237)
(1.12124 -0.498817 9.21386)
(1.11722 1.69573 14.3118)
(1.21189 -3.08226 12.6257)
(1.17325 -2.94663 4.44382)
(1.47687 0.505078 2.87515)
(1.42373 0.810631 7.30051)
(1.34332 -1.48574 4.40089)
(1.39683 -4.7257 3.23119)
(1.50255 -0.585476 10.0915)
(1.60578 6.92218 16.7212)
(1.35838 5.95668 12.4233)
(1.53793 0.601979 7.39484)
(1.9388 5.98137 10.6905)
(1.69018 3.90905 9.61683)
(1.73902 3.48334 6.29494)
(1.8665 -3.42128 -2.65655)
(1.88106 3.62193 -2.19209)
(1.66582 -2.82865 -1.09873)
(2.21199 -9.30359 -6.98506)
(2.21581 -15.8659 0.596698)
(2.36553 -8.56371 -4.96962)
(2.27392 -10.1794 2.22769)
(2.50864 -10.5837 -0.200461)
(2.87305 -8.63824 8.69454)
(2.74624 -9.03434 2.54189)
(2.63433 -7.96888 -3.96095)
(2.67125 -7.27601 -2.63967)
(2.9284 -12.7643 -3.55266)
(2.88385 -15.6291 -1.13331)
(2.89588 -10.3651 -1.7339)
(2.77323 -13.2926 5.59957)
(3.27992 -12.7894 0.0555985)
(3.26502 -10.701 3.66827)
(3.24026 -10.9631 3.28571)
(3.19312 -11.6088 2.73835)
(3.74072 -2.89198 1.27207)
(4.12547 -0.21991 7.29037)
(4.06899 -2.16213 3.21073)
(4.02619 -1.81775 1.43315)
(4.45288 -10.056 7.50958)
(4.20309 -12.5511 7.45456)
(4.21183 -8.69044 3.67069)
(4.3573 -10.7416 -3.09269)
(4.07642 -9.24853 -1.4623)
(4.10115 -10.8981 8.86688)
(4.03668 -3.99062 15.463)
(4.22456 -2.80904 13.0374)
(4.37203 -5.08652 10.008)
(4.39427 -3.66037 7.32363)
(4.45364 -10.2959 3.29402)
(4.39095 -13.3077 -0.630089)
(4.34116 -11.783 -10.4639)
(4.27777 -3.24437 -5.83272)
(4.00276 -3.10873 -7.85759)
(4.24041 1.53291 -14.3546)
(4.55834 -4.45118 -11.9046)
(4.42798 4.69012 -10.2514)
(4.24618 10.5051 -3.33285)
(4.3008 2.35713 -6.61105)
(4.38592 -1.5626 -7.00491)
(4.63795 6.29744 -2.20773)
(4.63313 7.08148 0.966458)
(4.64264 2.9939 -7.01576)
(4.65411 -4.28839 -6.32718)
(4.47288 2.67639 -2.65523)
(4.40889 6.47704 -10.9406)
(4.05841 8.95048 -21.2706)
(4.54399 6.29849 -9.047)
(4.13569 -0.219156 -7.75761)
(4.39001 -11.5741 -11.6988)
(3.87072 -13.5217 -4.99339)
(3.62087 -14.7093 2.13032)
(3.48141 -17.2617 6.97804)
(3.91662 -15.3737 10.1194)
(4.02266 -10.2512 2.518)
(3.97629 -22.9626 5.77353)
(4.04464 -38.2368 5.58044)
(4.09644 -34.0674 -3.65935)
(4.34481 -15.5087 -9.06796)
(4.60975 -7.44722 -16.0891)
(4.38745 -3.42601 -25.8762)
(4.53946 -0.806017 -20.689)
(4.02214 -0.77153 -15.585)
(3.94426 2.01049 -8.30679)
(3.98668 1.50105 -14.4773)
(3.85831 -7.55347 -4.39729)
(3.75015 -5.86898 -2.36976)
(3.86943 -9.16607 2.38503)
(3.72897 2.13607 -1.45434)
(3.24185 10.7936 -6.16379)
(3.23059 10.2831 -9.32907)
(3.13292 7.95782 0.414653)
(3.25051 8.30743 -0.698305)
(3.14207 11.4696 -6.27133)
(3.19442 9.95019 -7.33964)
(3.47345 2.55412 -5.62857)
(3.47374 3.26399 -4.88515)
(3.44517 2.2111 -1.44783)
(3.21549 5.45449 -1.28158)
(3.29614 -0.777039 -6.74116)
(3.60855 4.53676 -7.07897)
(3.43382 -2.00146 -9.25736)
(3.15851 0.698537 -11.5832)
(2.68852 -6.72139 -8.05053)
(2.52345 1.17424 -0.145823)
(2.72812 -7.24057 -5.94582)
(2.80568 -4.95663 -6.3333)
(2.81458 -6.42369 -6.06023)
(2.89559 -4.79831 -1.99008)
(2.13193 2.6583 -4.41712)
(2.00925 -0.107172 -1.48938)
(1.78536 -2.52991 -5.9203)
(1.638 -2.2095 -10.5991)
(1.85082 0.741954 -4.30073)
(1.94936 -2.74024 -0.203339)
(1.90869 0.0474794 -0.618899)
(1.7322 -2.37109 -3.64738)
(1.73563 -8.68776 2.03251)
(1.7316 6.26436 -4.02584)
(1.53205 -1.24518 1.86791)
(0.914716 -8.97436 -2.08026)
(1.27428 -6.87542 -4.42054)
(1.27212 2.59777 -1.4239)
(1.12891 -0.413479 4.24916)
(0.906381 2.27403 2.42186)
(0.684777 -1.31947 -2.01777)
(1.01959 -6.45866 -10.0788)
(1.17931 -4.12373 -4.75084)
(1.12317 -2.56565 -11.1)
(1.18987 -0.556512 -23.1656)
(1.15318 4.35799 -17.5697)
(1.13836 -1.68533 -8.9015)
(0.951876 2.15873 -9.15226)
(1.09076 -4.19027 -3.87255)
(0.970683 -1.27694 -2.69189)
(0.732655 -2.74767 -9.47366)
(0.367376 0.0695866 -6.82998)
(0.00481855 4.21222 -5.39839)
(0.211552 10.2977 -8.20117)
(0.246448 10.9997 -8.04739)
(0.464348 16.523 0.0327659)
(0.572843 7.0253 3.49378)
(0.30831 11.1568 11.4272)
(-0.176411 14.0041 10.1837)
(-0.401535 13.2643 11.5799)
(-0.752674 14.2101 15.7062)
(-0.706991 8.77885 12.9741)
(-0.682346 -0.170591 6.30595)
(-0.872291 2.9841 10.9637)
(-0.831041 11.209 18.7293)
(-1.01712 10.6884 9.76662)
(-0.481823 23.8249 3.0228)
(-0.260196 25.6492 -0.681256)
(-0.263646 32.0439 -2.86931)
(-0.149843 23.3664 2.37419)
(0.0756185 13.6413 6.50344)
(0.306126 6.97015 7.28498)
(0.508174 5.38465 10.5389)
(0.651086 3.80614 4.31934)
(0.550823 7.54382 3.29256)
(0.632245 2.94007 5.71308)
(0.919973 8.11022 1.28049)
(0.75402 6.56868 -0.924738)
(0.873166 -1.25084 0.861641)
(0.607189 -1.85919 -2.00756)
(0.827137 -4.59202 -2.99638)
(0.979454 -8.99024 -5.80169)
(1.15707 -6.52753 -5.0441)
(1.37895 -3.11596 -4.75043)
(1.16008 -11.8254 2.41257)
(1.07238 -10.2421 0.515283)
(1.02502 -5.22932 7.28862)
(1.04209 4.65176 5.45238)
(1.16816 -3.7984 1.77984)
(0.97531 -2.44544 10.061)
(0.604995 -6.19146 5.29037)
(0.700716 -12.6984 4.00506)
(0.8277 -1.05615 9.42229)
(0.134184 -3.26805 8.23712)
(0.121314 4.84013 -3.94604)
(-0.0716749 2.09429 -5.88252)
(-0.0131146 12.6806 -6.97818)
(-0.321636 10.913 -9.7424)
(-0.366133 5.42421 -4.35782)
(-0.850752 10.1707 -7.63069)
(-0.954421 2.8464 -13.3109)
(-1.21802 -6.87729 -13.0218)
(-1.67598 -3.49453 -9.28056)
(-1.91826 1.95872 -20.753)
(-2.05701 2.41492 -12.541)
(-2.41066 -0.78972 -5.22585)
(-2.92105 4.20109 -5.62214)
(-2.45369 6.04978 -8.9924)
(-2.41743 4.69311 -9.25376)
(-2.42647 -3.57126 -10.6816)
(-2.35084 -11.332 -4.16635)
(-2.55893 8.21655 0.139116)
(-2.52097 0.710036 -10.0539)
(-2.62957 0.158832 -2.03385)
(-2.71318 -2.9233 -1.21931)
(-2.72097 0.360049 4.22787)
(-2.76455 -1.28719 9.40267)
(-2.60692 3.46464 7.49332)
(-2.67904 2.89909 10.1561)
(-2.82422 -0.592143 8.66221)
(-2.73124 -3.815 3.91396)
(-2.51331 4.24458 -7.00797)
(-2.22601 2.55793 -4.74139)
(-2.32114 -1.65041 -7.57313)
(-1.90015 6.65021 -5.62698)
(-1.80011 11.2183 1.79761)
(-1.41362 5.85607 -6.28302)
(-1.53369 3.32081 -14.325)
(-1.70128 -5.04624 -12.0919)
(-1.55305 6.34795 -9.56378)
(-1.48462 3.52889 -1.15276)
(-0.952481 11.5209 6.54214)
(-1.03947 4.88443 3.22281)
(-0.297148 3.11234 1.28005)
(-0.418774 4.57226 0.669255)
(-0.0514182 3.17904 -1.18501)
(-0.134622 9.40441 4.45588)
(-0.307478 9.4992 -1.40884)
(-0.386661 6.8711 -6.44803)
(-0.187281 8.97193 -3.6546)
(0.110305 2.98292 -4.56677)
(0.297652 -0.254284 -18.8888)
(0.347288 4.35945 -8.14984)
(0.281502 -1.99141 0.32583)
(0.356758 -3.02168 4.94743)
(0.633417 -5.03694 12.0552)
(0.671448 -5.33159 7.70041)
(0.577144 -11.2573 11.0833)
(0.0791276 -7.89479 4.47085)
(-0.0708005 0.307396 0.0480779)
(0.118265 3.57323 -5.1992)
(0.313981 3.20412 -11.948)
(1.03636 3.1055 -8.39536)
(1.20687 3.95388 -3.01456)
(1.1468 5.9555 4.03471)
(1.17931 0.160939 11.7768)
(1.26453 -4.92405 14.0454)
(1.04371 -0.547259 14.3379)
(0.770984 11.7877 17.224)
(0.241213 2.38363 8.44296)
(-0.106249 0.925532 10.4761)
(-0.101386 -1.25444 3.35478)
(-0.0251533 -0.0064401 3.49301)
(-0.174972 -4.29404 2.13384)
(0.0829031 -6.44419 -0.249305)
(-0.268076 -7.10889 -0.98784)
(-0.208967 -4.28287 1.75938)
(0.139116 2.89303 3.59929)
(0.321429 9.59156 -5.78472)
(-0.0453567 12.4556 -2.8061)
(-0.146658 10.6779 -5.24305)
(-0.11969 12.7446 3.89006)
(0.380236 15.675 12.0146)
(0.45505 18.5981 17.2377)
(0.137887 13.601 10.5366)
(0.0964072 12.9795 11.1241)
(-0.443262 15.3636 14.7201)
(-0.0215265 14.7769 16.8126)
(-0.514355 23.6475 8.98942)
(-0.50663 16.7656 14.0055)
(-0.629963 8.71904 13.4108)
(-0.670928 8.02051 8.81598)
(-0.535266 17.5932 9.09894)
(-0.264427 12.3879 2.16089)
(-0.396053 6.22283 1.18935)
(0.133029 14.599 -1.81811)
(0.627685 2.30391 1.88108)
(0.244414 0.00579528 2.90599)
(0.590616 0.819908 11.4665)
(0.757624 1.67941 11.5123)
(0.732445 0.556349 5.6384)
(0.467957 -5.09583 10.2546)
(0.278438 -6.27726 11.3266)
(-0.172352 -3.56767 1.27644)
(0.0285628 4.25146 -0.810221)
(0.254111 1.1464 3.32307)
(0.339007 -6.22632 8.26183)
(0.350467 1.58531 6.99363)
(-0.118978 -4.18682 4.09492)
(-0.255941 9.14629 -0.946011)
(-0.117333 0.234223 -3.4758)
(-0.373584 -7.41089 1.47017)
(-0.091106 -4.29068 2.21974)
(-0.317767 8.12128 -1.06603)
(-0.64616 5.92555 -7.18515)
(-0.708821 -2.42293 -0.357521)
(-0.956445 -0.449963 -2.28945)
(-1.08802 1.26421 -0.595496)
(-1.47677 -14.2292 6.27009)
(-1.63672 -5.35042 9.31102)
(-1.5963 -6.79784 -0.244398)
(-1.57751 -13.5246 -0.167988)
(-0.78299 -20.4347 -1.88153)
(-0.724961 -29.7286 -0.548475)
(-0.498287 -26.8165 -5.79314)
(-0.584066 -21.1907 0.0166306)
(-0.561787 -16.9424 -1.98179)
(-0.543926 -10.7244 1.09512)
(0.0842077 -3.90226 -6.71687)
(-0.0753113 -10.3598 -11.7293)
(-0.208742 -10.1368 -9.78997)
(-0.168279 -12.5064 -0.0724961)
(-0.674943 -16.8274 2.68987)
(-1.23788 -4.6912 9.34788)
(-0.971684 -7.10136 4.4709)
(-1.19135 -5.90197 2.63341)
(-1.64039 -9.01172 4.62447)
(-1.68608 -5.98274 6.79451)
(-1.45976 9.70053 8.04915)
(-1.26963 8.90334 8.61911)
(-1.39961 10.2822 17.2903)
(-1.45071 13.8166 14.9732)
(-1.58964 14.4271 18.2171)
(-1.20484 12.4436 25.46)
(-1.21587 9.90887 24.3152)
(-0.796711 4.97723 30.3223)
(-0.878012 6.54796 29.06)
(-0.942332 4.15897 16.8565)
(-0.901294 10.5226 15.5663)
(-0.625421 11.1501 21.3141)
(-0.836409 15.4751 16.7722)
(-0.716566 16.6351 21.7116)
(-0.844862 9.09448 25.0881)
(-0.816352 2.88355 13.6304)
(-0.866283 5.49202 11.2152)
(-0.455044 12.716 12.5673)
(-0.700366 9.41113 3.07552)
(-0.640107 5.21481 3.2528)
(-0.690168 6.94217 -2.28885)
(-0.322395 5.76974 -2.07965)
(-0.153236 2.39499 1.20875)
(-0.343865 -2.83424 -0.370199)
(-0.333187 -5.83856 -4.78195)
(-0.533818 -4.00573 3.73504)
(0.0240894 -1.04699 6.87039)
(-0.644427 -2.36988 7.74907)
(-1.23479 0.993854 0.373264)
(-1.31008 -4.96937 6.67426)
(-1.56828 1.64845 3.02147)
(-1.00188 2.15329 2.29135)
(-1.31115 2.2013 6.39299)
(-1.05666 -1.34085 12.0941)
(-0.881914 1.3354 12.5532)
(-1.01421 3.83578 5.93506)
(-0.726001 -8.77568 1.14987)
(-0.613471 -6.56319 -0.215483)
(-0.493862 -7.111 2.69168)
(-0.0949599 -11.9819 11.7735)
(-0.196935 -8.40011 6.45957)
(-0.187071 -15.9472 3.13201)
(-0.30164 -19.4146 -0.0987689)
(-0.0316732 -18.8407 -11.9256)
(0.442206 -20.0655 -16.4948)
(0.7998 -16.0786 -16.6299)
(0.899326 -11.4609 -9.83665)
(1.17184 -11.1137 -18.0886)
(1.44858 -6.42141 -20.5645)
(1.12749 -8.88569 -18.8444)
(1.68388 -8.28739 -9.74579)
(2.46565 -1.98749 -11.6696)
(2.58338 -8.31485 -7.05833)
(3.13305 -1.78587 -8.18733)
(3.55528 8.73894 -6.44791)
(3.76483 9.62372 -2.8571)
(3.97974 9.57296 4.05148)
(4.57085 13.2406 7.17505)
(5.42175 6.12319 -1.39883)
(5.61385 1.90078 -1.17907)
(6.36348 4.9254 5.0701)
(6.66575 0.597165 6.9065)
(7.20898 0.293032 6.48781)
(7.73887 2.69471 13.7464)
(8.29847 2.90555 6.28831)
(9.07935 -0.601494 2.31316)
(9.91659 -6.60066 -4.38283)
(10.6714 -5.47667 -1.85659)
(11.3834 -2.88789 7.50089)
(11.9554 -11.3045 20.7774)
(12.6178 -10.7783 17.1079)
(13.0989 -4.70936 9.60068)
(14.1936 -7.01632 9.6196)
(15.3889 2.28657 -1.46821)
(16.1805 -6.60558 -7.11322)
(17.4843 -12.8881 -8.35502)
(18.4281 -5.54819 1.44932)
(19.1829 -7.3154 -10.1381)
(19.7935 -2.30625 -6.51106)
(20.7163 -5.69815 1.03561)
(21.7365 -9.23029 -0.0608629)
(23.3878 -10.9329 -0.647806)
(24.0241 -8.80472 -4.71276)
(24.7385 1.66741 -9.3669)
(26.0095 5.89827 -5.55614)
(27.3199 10.4745 -1.85932)
(28.5583 9.55166 -4.08263)
(29.6374 3.98205 -8.99)
(31.3062 0.51294 -9.45934)
(32.8834 2.84599 -12.1063)
(34.0951 3.54943 -11.994)
(35.8847 -6.62082 2.7568)
(37.4601 -4.08057 -5.34443)
(38.9851 1.4636 1.35906)
(40.9927 3.50174 -2.02451)
(42.327 -3.35598 -6.86014)
(43.8673 -13.0499 -7.35996)
(44.9972 -14.5465 -4.32031)
(46.4267 -3.39345 0.271183)
(48.1749 -2.83474 -1.8181)
(49.1578 -0.571799 -6.7952)
(50.8031 4.07866 -3.80749)
(53.0721 6.62146 -0.212822)
(55.4826 4.44276 -2.85217)
(57.1632 7.97571 6.40409)
(58.8221 -1.34359 3.79299)
(60.8846 -0.888811 -0.51335)
(63.1102 -2.44735 11.261)
(65.1461 -0.742151 17.382)
(66.9695 3.53966 8.99194)
(68.9838 -0.438187 11.0197)
(70.1988 -8.51553 11.6667)
(72.8061 1.45299 14.8009)
(75.4086 2.32994 20.1307)
(77.1867 7.8748 16.3218)
(79.8316 4.62441 9.57362)
(81.1737 3.45995 8.15881)
(84.2374 -2.99532 -2.12999)
(86.8974 -7.69393 -7.8974)
(90.1217 -7.51366 -1.98694)
(92.7803 1.03199 -4.29131)
(95.6485 6.40537 -8.06314)
(98.07 3.4067 -4.75167)
(101.48 -2.67213 -14.3609)
(103.883 -6.09744 -3.32368)
(106.597 1.00049 -2.39036)
(109.434 2.71075 -4.39462)
(112.935 -6.14092 -4.32527)
(117.746 -4.77677 3.67845)
(119.239 -17.9239 0.510616)
(122.826 -18.4015 -1.13742)
(127.765 -11.4415 -7.13164)
(131.689 -4.7446 -10.8746)
(134.69 -2.01101 -10.8371)
(139.552 5.62717 -9.45098)
(143.614 10.2683 -11.0724)
(147.875 11.7395 -9.34054)
(151.226 6.11233 -5.04707)
(153.395 1.66396 4.81389)
(159.196 0.711589 6.50514)
(164.943 4.57589 7.39842)
(168.568 -7.01028 -3.10892)
(173.537 -4.38483 -13.0581)
(177.905 -2.82148 -12.4754)
(183.804 -6.2156 -5.05063)
(186.355 -1.8575 0.090826)
(195.88 3.3202 2.57148)
(199.836 2.64209 1.23993)
(203.353 1.62881 2.43229)
(207.903 8.804 6.07078)
(215.129 3.10293 4.26315)
(219.17 4.29864 0.00842521)
(226.317 -0.461339 -0.166221)
(230.76 1.58179 1.87843)
(236.959 3.63 -1.11966)
(245.656 -0.880349 3.494)
(251.767 -2.21422 8.17307)
(253.565 -4.28192 0.0786946)
(260.455 -2.06825 -2.82528)
(265.164 -7.86347 1.90823)
(269.288 -4.13325 -1.94674)
(280.634 -0.815583 1.31619)
(292.891 1.50965 6.03348)
(302.312 -5.97394 2.80737)
(310.191 2.14292 3.49136)
(317.705 -2.05929 2.42692)
(325.731 -3.76373 5.81816)
(335.676 1.42362 1.24708)
(345.089 0.821546 -6.77153)
(351.404 3.04416 -4.12672)
(366.755 4.81581 3.79665)
(380.147 -1.4852 -1.07536)
(395.356 9.53769 0.686919)
(393.956 4.26826 0.776555)
(392.969 5.82231 3.41394)
(396.384 -0.996671 -1.13363)
(391.758 4.11203 0.709331)
(385.196 1.55096 8.35139)
(387.177 -0.875587 4.04544)
(382.07 1.72175 2.67748)
(384.047 -6.17597 1.52654)
(377.844 -4.621 2.91069)
(385.189 -0.0393867 2.19727)
(380.156 0.974703 0.265948)
(385.177 -3.39069 3.31196)
(379.195 -1.34073 3.71067)
(374.766 -2.96864 1.36318)
(376.416 -5.07895 2.54026)
(376.912 -0.119173 5.17939)
(371.701 1.8272 4.09526)
(372.325 1.87591 3.71489)
(363.882 -2.81374 7.12215)
(367.61 -9.083 7.75565)
(364.715 -1.98794 2.67017)
(367.971 3.27889 -5.7021)
(361.272 5.38771 1.99423)
(360.021 7.04752 2.79543)
(346.382 7.70504 7.93964)
(349.743 2.00551 11.2377)
(350.925 6.64872 9.56463)
(348.31 0.604072 10.2042)
(338.398 -7.84879 6.7082)
(343.127 -0.805577 11.4043)
(342.643 0.863265 6.25237)
(335.337 -0.450126 7.75585)
(335.636 4.83628 10.5554)
(331.964 3.45128 7.49747)
(332.275 1.97845 8.96561)
(330.997 1.06942 8.38358)
(329.429 4.74455 6.64933)
(329.102 5.11283 4.59878)
(325.041 1.95317 10.6714)
(321.821 4.97636 5.83608)
(319.336 12.9658 13.2493)
(320.135 16.3146 10.3358)
(316.627 10.1388 12.9408)
(319.295 10.5927 13.4398)
(315.731 7.6376 8.05488)
(312.116 0.176949 7.43481)
(305.524 7.17196 5.43082)
(307.079 0.663723 4.62127)
(308.512 4.43271 10.1568)
(303.275 5.8974 8.01783)
(300.053 6.54798 1.31625)
(297.164 -0.846349 2.04254)
(290.053 4.42345 0.480071)
(286.063 9.84719 2.17078)
(292.548 -0.645313 2.25277)
(288.568 -5.67421 4.80655)
(284.184 -4.02805 6.77954)
(286.02 -2.74642 6.95968)
(284.768 -5.86052 9.81299)
(279.323 -2.87388 8.92799)
(278.051 2.88228 1.07766)
(281.093 2.11454 -2.74744)
(273.855 -3.57582 -0.186275)
(269.556 -7.36789 2.32334)
(275.578 -5.4037 -3.50962)
(271.14 -1.18875 1.86548)
(271.016 3.02445 2.6491)
(268.517 4.93702 3.73152)
(260.741 -3.5973 -0.61012)
(254.848 4.39748 3.05443)
(249.736 -4.0852 0.59375)
(255.854 -0.172024 3.19344)
(255.39 -0.573728 2.04308)
(253.799 1.05409 3.02175)
(248.702 5.59667 1.73624)
(246.545 1.80454 -1.51057)
(244.361 2.10719 1.12799)
(244.94 1.53695 5.93426)
(241.896 -3.81612 6.23134)
(233.425 -6.29413 4.00035)
(225.313 -1.3382 10.4094)
(228.894 2.34744 11.4002)
(229.586 -0.145654 6.29346)
(222.476 -7.1975 1.97794)
(222.259 -10.9149 1.9889)
(219.799 -10.5058 0.00655503)
(216.768 -10.9671 -4.31396)
(214.5 -12.8678 3.54957)
(213.729 -11.088 -1.93307)
(210.486 -8.30351 -4.96896)
(200.14 -8.76185 -2.00497)
(197.942 -10.061 -6.62945)
(192.796 -4.99702 -2.56441)
(191.713 -6.94626 -1.35532)
(186.835 -8.03378 -4.94054)
(184.371 -4.9986 -7.45322)
(186.665 -0.814698 -10.076)
(181.288 -5.65818 -3.29462)
(179.174 -1.29357 -9.27808)
(178.019 -0.549705 -16.7063)
(176.067 -6.18593 -8.47133)
(165.049 -5.87622 -8.36565)
(162.088 -3.9866 -5.4394)
(156.709 -5.16062 -3.54784)
(150.893 -3.74893 -4.77708)
(149.706 -5.39964 -12.3145)
(146.913 1.63668 -11.617)
(143.598 10.8815 -9.65674)
(135.585 12.7219 -2.43405)
(133.154 17.8896 -2.76875)
(126.584 18.1888 8.40297)
(124.325 6.04777 10.2818)
(119.207 5.42181 -0.182689)
(112.95 5.95248 -3.95594)
(108.458 4.96512 -7.01664)
(103.009 -1.11655 -0.746573)
(97.6296 0.479274 0.785097)
(92.238 0.35386 2.48909)
(86.653 2.24052 -3.18779)
(80.4355 12.9353 7.61279)
(75.6873 2.97701 13.6072)
(71.4008 -2.96725 -3.46693)
(64.2134 -4.29792 -7.9064)
(57.6385 -0.794026 -14.343)
(50.9441 -1.33108 -17.5149)
(44.948 -5.25417 -11.1564)
(39.1006 -4.27445 -6.74222)
(33.8287 -4.54766 -7.64537)
(27.2071 -2.7568 -8.09002)
(22.8113 -3.83178 -4.11008)
(18.0601 -1.91804 11.6337)
(12.4131 -10.0448 23.4606)
(6.23928 -5.89837 5.70677)
(2.84355 -4.21124 20.1952)
(0.232054 -5.12109 24.4333)
(-1.40844 -0.965152 28.742)
(-2.33471 -0.244491 23.4046)
(-2.68864 -3.24107 18.6169)
(-3.5632 0.956012 23.033)
(-3.96493 -1.85524 3.14457)
(-4.16054 -9.45886 8.69737)
(-4.39187 -2.05087 14.9844)
(-5.30372 -5.38588 24.7607)
(-4.92645 -5.05751 12.2078)
(-4.60028 10.1448 16.0323)
(-4.08261 11.5287 10.5735)
(-4.53868 8.32714 6.62396)
(-4.84502 5.26071 5.57574)
(-4.39645 6.38218 3.41164)
(-4.776 3.32351 4.82631)
(-5.19318 -2.71772 3.72924)
(-5.06171 -3.5393 2.3548)
(-5.45659 -10.8124 -3.60312)
(-5.12374 -2.93313 2.75426)
(-5.07566 -11.39 0.728693)
(-5.07533 -16.6435 2.05422)
(-5.74733 -16.1419 -0.102711)
(-5.52791 -14.349 6.73221)
(-5.90365 -8.1258 1.43393)
(-6.50507 -6.49039 -1.90714)
(-5.92599 5.1639 1.58685)
(-6.03414 3.69435 -7.96268)
(-6.33622 1.03142 -0.846609)
(-6.38858 5.82845 -6.25415)
(-6.28836 9.66867 -11.7481)
(-6.53407 14.9303 -8.93109)
(-6.86569 8.33222 -17.5402)
(-6.4649 2.92661 -16.922)
(-6.09106 -6.65157 -20.4053)
(-6.21607 0.991543 -11.1508)
(-6.36801 1.25556 -6.16294)
(-7.27207 -2.2501 -7.4229)
(-6.71441 -1.67446 -1.80119)
(-6.89339 5.50248 -1.46012)
(-6.48646 -1.65245 1.2213)
(-6.78947 2.21597 -5.40165)
(-7.71894 3.38654 14.0905)
(-8.19532 -2.86857 4.37145)
(-8.06958 -7.38761 1.69365)
(-8.37068 -12.6288 2.02141)
(-8.76595 -9.31894 -11.7487)
(-8.68239 5.11255 -8.6291)
(-7.73768 13.1969 -1.09752)
(-8.26304 0.897354 -6.45967)
(-8.26691 -2.35924 -2.34884)
(-8.22025 5.19013 1.61768)
(-7.83573 3.44266 -4.06215)
(-7.80527 8.46998 -1.83613)
(-7.7424 -0.627754 2.3394)
(-8.52482 -0.0939032 -1.39544)
(-8.28036 1.80461 -4.5484)
(-8.13866 3.10338 0.383052)
(-7.67022 6.49282 7.60246)
(-7.82325 14.2325 7.45468)
(-7.30651 15.8973 -5.00183)
(-8.03048 5.72715 -13.2592)
(-7.6518 6.49442 -17.9662)
(-7.26085 7.58738 -21.8531)
(-7.65523 -1.68141 -19.3014)
(-7.66073 2.79587 -13.687)
(-8.00126 3.80219 -13.1109)
(-7.6852 2.16853 -16.5364)
(-7.51488 2.28377 -15.3901)
(-7.46363 3.67736 -10.1326)
(-6.68511 -8.04585 -16.3717)
(-5.74936 3.35401 -14.9529)
(-5.98011 0.654281 -10.4285)
(-5.20757 3.40632 -8.70669)
(-4.17601 12.3141 -14.9666)
(-4.50899 13.3087 -17.1894)
(-4.94323 7.87326 -8.70589)
(-5.40095 4.6541 -10.4775)
(-5.35877 3.81511 -2.39223)
(-6.18269 6.34346 2.24902)
(-6.35077 11.23 -7.49136)
(-6.40886 20.8475 -4.25835)
(-5.41776 20.0067 -11.026)
(-5.47267 20.472 -13.6665)
(-5.88809 22.8334 -4.44281)
(-5.54069 21.9741 -7.92724)
(-5.94426 22.7675 -11.4661)
(-5.80145 17.3999 -2.25481)
(-5.52202 -0.124528 -3.89618)
(-5.99819 -0.833643 -4.16065)
(-6.56562 7.07465 -5.43967)
(-6.59771 -0.116647 -14.8785)
(-5.73821 -6.57889 -12.3405)
(-6.41205 -15.3625 -8.62435)
(-6.64005 -10.1812 -13.8219)
(-6.39207 -2.13899 -12.4515)
(-6.70203 5.47537 -10.1155)
(-7.12731 -12.1672 -5.68844)
(-6.80347 -15.6792 -2.28991)
(-6.8939 -19.108 -13.1791)
(-6.80222 -16.7171 -6.48346)
(-6.67698 -7.04205 -9.71458)
(-6.28753 -2.67762 -11.1627)
(-6.23752 3.01392 -12.2022)
(-6.03889 9.97414 -18.1975)
(-5.68018 7.60031 -24.0453)
(-5.73843 3.81213 -38.0259)
(-5.7569 6.69421 -29.6977)
(-6.04161 14.6141 -24.4842)
(-6.07223 6.43074 -33.3494)
(-6.83237 6.12046 -23.8484)
(-6.21654 2.83605 -26.9178)
(-7.04019 4.09691 -11.3855)
(-7.52489 2.7955 -13.5705)
(-8.0229 -8.59818 -1.38516)
(-7.37575 -7.55348 -7.20684)
(-7.18766 -4.61426 -8.75118)
(-7.74453 -23.0094 -16.6408)
(-7.85308 -23.589 -8.02802)
(-7.35467 -16.0236 -12.7513)
(-7.50263 -13.2046 -10.9637)
(-7.62481 4.30483 -5.06805)
(-6.86715 8.45721 -1.05367)
(-6.76006 3.44524 -9.0595)
(-7.01865 0.535631 -12.8924)
(-7.67197 5.33653 -12.5283)
(-8.24628 -0.268226 -11.3072)
(-8.76295 -3.12739 -2.71189)
(-8.98954 -4.31148 -9.82614)
(-8.738 -7.88839 -1.85509)
(-8.45236 -6.21124 -7.25221)
(-7.79743 -10.7469 -0.641183)
(-7.53513 -8.09405 -2.64595)
(-7.20919 -7.1194 1.0272)
(-7.26558 -20.7956 0.363237)
(-7.69509 -6.49147 -1.64851)
(-6.94264 -7.76151 -8.32435)
(-6.74761 -13.84 -15.5322)
(-6.71927 -12.0567 -10.3396)
(-6.32581 -11.9211 14.0742)
(-5.61759 -9.16084 8.9245)
(-5.80653 4.7165 5.07069)
(-6.27343 4.38888 9.5396)
(-5.94171 -10.7931 7.71976)
(-6.34213 -13.6985 -1.25508)
(-5.97159 -7.99435 -7.87131)
(-6.30919 -6.9496 -4.55391)
(-6.65398 -0.581599 -3.6563)
(-7.003 -3.19337 -5.48386)
(-6.48693 5.9607 -6.80476)
(-5.8364 10.9515 -6.82212)
(-5.31311 10.3504 -2.13384)
(-5.09727 11.6721 1.39332)
(-4.68357 8.27127 -8.08797)
(-4.39609 14.0971 5.05493)
(-4.16729 10.147 -3.4784)
(-4.14678 5.4048 -1.95559)
(-3.92916 10.5355 0.589609)
(-3.4869 11.706 7.6065)
(-4.22482 -0.0463505 5.87227)
(-4.0827 5.71507 -6.11254)
(-4.39705 11.8032 8.02019)
(-4.36958 10.2422 5.11405)
(-3.51996 6.82984 6.37897)
(-3.05329 -9.47155 6.72875)
(-2.11539 -9.47189 1.97441)
(-1.65402 8.92948 4.18499)
(-1.37874 10.7171 -0.390358)
(-1.58519 11.825 -7.93233)
(-1.00972 6.15064 -4.38791)
(-1.16213 16.9952 -4.78477)
(-0.682878 17.1379 -0.638924)
(-0.678467 14.8336 5.08451)
(-1.11788 9.175 -10.7452)
(-1.17589 10.6694 -11.3229)
(-1.05484 19.0407 -18.4962)
(-0.646936 15.9842 -23.3965)
(-0.698908 17.2171 -21.0929)
(-0.313908 13.9101 -21.8451)
(-0.504699 15.8114 -13.3708)
(-1.46345 9.68251 -13.8019)
(-1.88276 9.25243 -8.42269)
(-2.68287 -4.55605 -12.9846)
(-2.41256 4.36347 -12.1981)
(-2.06245 6.14686 -1.43368)
(-2.00519 11.439 0.458179)
(-2.19147 6.9962 -0.851764)
(-1.69497 5.86281 -9.51128)
(-1.85009 1.95191 -19.1699)
(-1.95714 0.171047 2.48168)
(-1.7725 5.31319 -8.51087)
(-2.59365 8.24227 -19.2941)
(-2.71499 16.532 -12.1889)
(-3.07554 12.5819 -12.5737)
(-2.51339 7.78294 -4.97063)
(-2.3089 0.644334 1.94922)
(-1.73 -6.91384 0.905179)
(-1.99541 13.0475 -4.19554)
(-2.5848 20.1534 -4.05167)
(-2.09893 2.73491 -6.83102)
(-1.5118 10.2836 -7.17281)
(-0.884574 1.21299 -2.91439)
(-0.94827 3.95228 -0.863008)
(-1.34216 0.690078 1.12007)
(-1.41822 7.57894 9.17418)
(-1.12648 12.4763 3.25659)
(-1.37501 -4.23561 4.53842)
(-1.38197 -10.6526 -1.12923)
(-1.35336 -0.755923 0.318518)
(-0.974566 0.535148 -6.29095)
(-1.89614 -0.209153 6.95116)
(-2.26261 -4.74103 9.05046)
(-2.48249 -6.43569 1.32847)
(-2.54903 -7.15002 5.58367)
(-2.47826 -11.9277 9.85308)
(-2.5587 -6.34979 8.14913)
(-2.08067 -3.06133 -5.06078)
(-2.25123 -8.89332 -1.93312)
(-2.48087 -8.64139 0.454117)
(-2.68322 -10.8142 10.9438)
(-2.41726 -3.34066 3.14177)
(-2.29607 0.798545 -1.31244)
(-1.77544 3.96999 -0.182887)
(-1.59705 -4.38634 -2.23066)
(-1.20842 4.42148 0.683348)
(-0.165209 3.42248 -0.496205)
(-0.273523 5.25551 -11.0818)
(-0.363534 2.34272 -13.8376)
(0.482337 -10.173 -11.2067)
(0.281299 -11.9334 -15.2844)
(0.0908461 -18.4113 -12.5425)
(0.284494 -14.7906 -19.7908)
(0.876876 0.201793 -19.5302)
(0.422884 -3.76461 -14.3885)
(0.209981 -4.44728 -4.68447)
(0.267044 -4.86537 2.90685)
(0.631279 10.9666 0.632551)
(0.313022 16.3046 4.66449)
(0.151967 5.80707 -2.15571)
(-0.267796 -3.07861 -1.17535)
(0.132693 -3.32542 -7.45175)
(0.744248 -6.93717 -12.4479)
(0.891922 2.33436 -16.9507)
(0.794516 -6.8415 -6.93584)
(0.963284 -12.9253 -8.16143)
(0.762525 -10.8006 -5.87811)
(0.604808 -0.40302 -16.1331)
(0.729332 -2.35536 -15.5144)
(0.988409 3.22788 -16.6207)
(0.825679 8.24602 -9.61619)
(0.858153 5.34197 -9.96637)
(1.70065 1.80593 -1.73314)
(1.28377 -11.3261 -2.87562)
(1.04429 -4.00337 -6.81843)
(1.69741 -7.00551 -1.61324)
(1.96057 0.709121 1.58082)
(1.92759 -6.79669 5.25721)
(2.1973 -1.90261 2.15929)
(2.26222 -3.32087 4.92887)
(2.15795 -1.59315 12.6526)
(2.12588 -2.199 8.35041)
(1.32317 -8.13563 9.76342)
(1.35585 -3.28434 5.12422)
(1.38725 3.90776 -4.23817)
(1.47505 -7.50072 -2.71822)
(1.60459 -6.91614 -3.23924)
(1.5333 -7.93578 -13.2419)
(2.09731 -6.55631 -13.4071)
(1.52443 4.75949 -18.7771)
(1.06692 16.3473 -11.098)
(1.55967 18.4504 -3.80471)
(1.72105 6.49202 -1.52512)
(1.24092 9.9079 -1.75193)
(1.43096 13.8016 -0.330493)
(0.655293 13.3053 9.60436)
(0.0661037 21.7079 8.18783)
(0.504978 24.2105 6.43407)
(-0.0802262 10.8004 13.1068)
(0.721222 16.0899 13.3438)
(0.597537 10.2171 8.54516)
(0.429855 -4.78156 5.86511)
(0.342886 -11.1229 2.79172)
(0.204412 -11.6498 4.8997)
(0.767439 -15.4947 4.85663)
(0.733704 -30.5202 6.37032)
(-0.0389909 -13.8769 11.5216)
(0.722009 -2.39553 7.88754)
(1.27388 0.995866 13.6851)
(1.62487 -0.806885 13.4978)
(2.26424 -0.400588 3.09572)
(2.56743 -12.4937 5.57116)
(2.52274 -8.00164 -4.22957)
(2.45962 -18.815 -13.2274)
(2.53419 -8.51676 -17.8442)
(3.08527 3.12437 -9.78346)
(2.66469 3.78961 6.16213)
(2.09759 -0.367388 11.1265)
(2.15279 -7.23467 8.21168)
(2.69617 0.588618 -3.55698)
(2.72558 -5.29836 0.948164)
(3.42365 -1.58549 -10.8184)
(3.33001 6.51803 -13.1574)
(3.1675 0.782494 -16.189)
(3.73032 8.05215 -18.6164)
(3.88049 9.30155 -19.7713)
(4.15267 6.53047 -24.1099)
(4.40357 8.41008 -16.3717)
(3.70312 9.06723 -8.39123)
(4.22851 0.0984384 -4.18254)
(4.04955 0.139605 -1.88088)
(3.68136 10.1254 -1.41711)
(3.79953 2.33606 -3.17681)
(3.52861 4.36769 -2.99665)
(3.22894 16.1015 2.35958)
(2.78184 8.3116 7.21213)
(2.06362 5.02204 14.2945)
(1.22198 8.47529 20.0577)
(1.07975 9.269 26.5311)
(1.66831 14.2818 31.8116)
(2.17416 1.67508 24.7213)
(2.26166 -1.9732 31.8906)
(1.77541 -10.5452 23.7856)
(1.64024 -2.48619 15.905)
(1.54219 0.254257 24.5714)
(1.45483 6.84513 19.7198)
(1.45092 3.46279 8.66027)
(2.12693 -9.76236 10.6748)
(1.67876 5.47624 -3.44957)
(1.77619 5.17248 -3.70946)
(1.92034 2.15979 -0.0349495)
(1.99622 5.23196 0.819049)
(2.1036 9.1291 7.82929)
(1.82304 5.75382 8.77919)
(1.96242 6.17719 11.0214)
(2.54848 0.810732 13.7084)
(2.4957 -1.83257 5.98873)
(2.56823 1.51691 2.49444)
(3.04929 -1.00299 6.2303)
(2.68102 -10.7896 2.48908)
(2.74853 -1.70412 16.0477)
(2.98549 14.8206 21.0893)
(2.50337 7.58293 11.0633)
(1.86066 9.36665 3.59055)
(1.37278 2.37448 -5.72825)
(0.899475 -0.235042 -1.85498)
(0.124101 -5.9148 1.24675)
(0.341841 -6.24781 7.82593)
(1.1951 -21.7895 -0.024522)
(1.5355 -19.5825 12.3656)
(1.49519 -19.2901 5.88116)
(1.89925 -11.0424 -2.45388)
(2.18278 -7.26067 -5.42694)
(2.30658 11.9665 -0.987747)
(1.75577 9.18287 -11.1617)
(0.98192 9.13811 -9.39376)
(0.924125 8.35768 -6.29066)
(0.720528 2.23606 -8.68557)
(1.1879 1.75632 -11.2035)
(0.736164 1.79938 -5.86854)
(0.640146 6.83901 -11.956)
(0.533628 5.93889 -12.8241)
(0.636006 18.2316 -17.6869)
(0.459053 10.3111 -13.8087)
(-0.274121 14.1508 1.99918)
(-0.0549466 4.28792 -3.13805)
)
;

boundaryField
{
    sides
    {
        type            symmetry;
    }
    empty
    {
        type            empty;
    }
}


// ************************************************************************* //
