/*--------------------------------*- C++ -*----------------------------------*\
  =========                 |
  \\      /  F ield         | OpenFOAM: The Open Source CFD Toolbox
   \\    /   O peration     | Website:  https://openfoam.org
    \\  /    A nd           | Version:  7
     \\/     M anipulation  |
\*---------------------------------------------------------------------------*/
FoamFile
{
    version     2.0;
    format      ascii;
    class       volScalarField;
    location    "0.0075";
    object      rhoM;
}
// * * * * * * * * * * * * * * * * * * * * * * * * * * * * * * * * * * * * * //

dimensions      [1 -3 0 0 0 0 0];

internalField   nonuniform List<scalar> 
250
(
1.13134e-05
1.10972e-05
1.07136e-05
1.05741e-05
1.11042e-05
1.05323e-05
1.04416e-05
1.12925e-05
1.14041e-05
1.10972e-05
1.04625e-05
1.04276e-05
1.12576e-05
1.04207e-05
1.1439e-05
1.04555e-05
1.11879e-05
1.1167e-05
1.116e-05
1.12716e-05
1.12088e-05
1.09159e-05
1.0888e-05
1.14041e-05
1.06369e-05
1.09787e-05
1.09298e-05
1.07555e-05
1.10693e-05
1.15157e-05
1.13972e-05
1.07834e-05
1.0888e-05
1.07624e-05
1.06508e-05
1.0895e-05
1.05532e-05
1.09438e-05
1.03997e-05
1.11879e-05
1.11391e-05
1.07973e-05
1.13065e-05
1.11042e-05
1.12158e-05
1.04625e-05
1.06438e-05
1.09926e-05
1.10065e-05
1.08461e-05
1.11809e-05
1.05532e-05
1.0595e-05
1.04904e-05
1.05671e-05
1.03509e-05
1.0595e-05
1.10345e-05
1.06648e-05
1.08392e-05
1.00161e-05
1.01556e-05
1.05462e-05
1.01068e-05
1.06996e-05
1.00022e-05
1.05532e-05
1.02951e-05
1.03788e-05
9.97425e-06
1.05183e-05
1.02533e-05
1.03997e-05
1.01556e-05
1.02881e-05
9.69525e-06
1.07973e-05
1.00161e-05
1.033e-05
1.01486e-05
1.02811e-05
1.01486e-05
9.75105e-06
1.00231e-05
9.40927e-06
1.00231e-05
9.86962e-06
9.63945e-06
9.47205e-06
9.66735e-06
9.77197e-06
9.82778e-06
9.7929e-06
9.28373e-06
9.6534e-06
9.45113e-06
9.44415e-06
9.18607e-06
9.53483e-06
8.97683e-06
9.3744e-06
9.28372e-06
9.03263e-06
9.01868e-06
8.9001e-06
9.43717e-06
8.72573e-06
8.66295e-06
8.86523e-06
8.97682e-06
8.7048e-06
8.5095e-06
8.60018e-06
8.66295e-06
8.41883e-06
8.9838e-06
8.2584e-06
8.51647e-06
8.04218e-06
7.87478e-06
8.69783e-06
8.13982e-06
8.01428e-06
7.93058e-06
7.8957e-06
7.55392e-06
7.68645e-06
7.65158e-06
7.37258e-06
7.87477e-06
7.85385e-06
7.83293e-06
7.37955e-06
7.8678e-06
7.10753e-06
7.41443e-06
7.51208e-06
7.26795e-06
7.35863e-06
6.98895e-06
7.37955e-06
6.98197e-06
7.42838e-06
7.20518e-06
7.23308e-06
7.37955e-06
7.01685e-06
6.96803e-06
6.94013e-06
6.5286e-06
6.92618e-06
7.05173e-06
6.71693e-06
7.30282e-06
6.6123e-06
6.78668e-06
6.6123e-06
6.96105e-06
6.63323e-06
7.00987e-06
6.7518e-06
6.7797e-06
6.74483e-06
6.64717e-06
6.7239e-06
6.78667e-06
6.53558e-06
6.79365e-06
6.66113e-06
6.9471e-06
6.59138e-06
6.87037e-06
6.65415e-06
6.57045e-06
6.60533e-06
6.63322e-06
6.8355e-06
6.48675e-06
6.54953e-06
6.61927e-06
6.51465e-06
6.45187e-06
6.96803e-06
6.3333e-06
6.34028e-06
6.63322e-06
6.37515e-06
6.7797e-06
6.37515e-06
6.5844e-06
6.59138e-06
6.04035e-06
6.37515e-06
6.14497e-06
6.57045e-06
6.56347e-06
6.59835e-06
6.20077e-06
6.6681e-06
6.41002e-06
6.42398e-06
6.8076e-06
6.138e-06
6.39607e-06
6.59138e-06
5.9427e-06
6.59138e-06
6.3054e-06
6.5565e-06
6.54952e-06
6.20078e-06
6.53557e-06
6.35423e-06
6.59137e-06
6.59138e-06
6.2496e-06
6.29843e-06
6.9471e-06
6.59138e-06
6.53558e-06
6.5565e-06
6.3612e-06
6.56348e-06
6.64718e-06
6.57743e-06
6.8076e-06
7.0866e-06
6.3333e-06
6.6681e-06
6.36818e-06
6.39608e-06
6.6402e-06
6.77273e-06
6.84945e-06
6.45188e-06
6.80063e-06
6.87735e-06
6.5565e-06
6.3333e-06
6.68903e-06
6.78668e-06
6.54953e-06
6.45188e-06
6.84945e-06
6.66113e-06
6.5565e-06
6.40305e-06
6.78668e-06
6.35423e-06
6.70995e-06
)
;

boundaryField
{
    sides
    {
        type            symmetry;
    }
    empty
    {
        type            empty;
    }
    procBoundary0to1
    {
        type            processor;
        value           uniform 6.24263e-06;
    }
}


// ************************************************************************* //
