/*--------------------------------*- C++ -*----------------------------------*\
  =========                 |
  \\      /  F ield         | OpenFOAM: The Open Source CFD Toolbox
   \\    /   O peration     | Website:  https://openfoam.org
    \\  /    A nd           | Version:  7
     \\/     M anipulation  |
\*---------------------------------------------------------------------------*/
FoamFile
{
    version     2.0;
    format      ascii;
    class       volScalarField;
    location    "0.0075";
    object      rhoN;
}
// * * * * * * * * * * * * * * * * * * * * * * * * * * * * * * * * * * * * * //

dimensions      [0 -3 0 0 0 0 0];

internalField   nonuniform List<scalar> 
250
(
2.433e+20
2.3865e+20
2.304e+20
2.274e+20
2.388e+20
2.265e+20
2.2455e+20
2.4285e+20
2.4525e+20
2.3865e+20
2.25e+20
2.2425e+20
2.421e+20
2.241e+20
2.46e+20
2.2485e+20
2.406e+20
2.4015e+20
2.4e+20
2.424e+20
2.4105e+20
2.3475e+20
2.3415e+20
2.4525e+20
2.2875e+20
2.361e+20
2.3505e+20
2.313e+20
2.3805e+20
2.4765e+20
2.451e+20
2.319e+20
2.3415e+20
2.3145e+20
2.2905e+20
2.343e+20
2.2695e+20
2.3535e+20
2.2365e+20
2.406e+20
2.3955e+20
2.322e+20
2.4315e+20
2.388e+20
2.412e+20
2.25e+20
2.289e+20
2.364e+20
2.367e+20
2.3325e+20
2.4045e+20
2.2695e+20
2.2785e+20
2.256e+20
2.2725e+20
2.226e+20
2.2785e+20
2.373e+20
2.2935e+20
2.331e+20
2.154e+20
2.184e+20
2.268e+20
2.1735e+20
2.301e+20
2.151e+20
2.2695e+20
2.214e+20
2.232e+20
2.145e+20
2.262e+20
2.205e+20
2.2365e+20
2.184e+20
2.2125e+20
2.085e+20
2.322e+20
2.154e+20
2.2215e+20
2.1825e+20
2.211e+20
2.1825e+20
2.097e+20
2.1555e+20
2.0235e+20
2.1555e+20
2.1225e+20
2.073e+20
2.037e+20
2.079e+20
2.1015e+20
2.1135e+20
2.106e+20
1.9965e+20
2.076e+20
2.0325e+20
2.031e+20
1.9755e+20
2.0505e+20
1.9305e+20
2.016e+20
1.9965e+20
1.9425e+20
1.9395e+20
1.914e+20
2.0295e+20
1.8765e+20
1.863e+20
1.9065e+20
1.9305e+20
1.872e+20
1.83e+20
1.8495e+20
1.863e+20
1.8105e+20
1.932e+20
1.776e+20
1.8315e+20
1.7295e+20
1.6935e+20
1.8705e+20
1.7505e+20
1.7235e+20
1.7055e+20
1.698e+20
1.6245e+20
1.653e+20
1.6455e+20
1.5855e+20
1.6935e+20
1.689e+20
1.6845e+20
1.587e+20
1.692e+20
1.5285e+20
1.5945e+20
1.6155e+20
1.563e+20
1.5825e+20
1.503e+20
1.587e+20
1.5015e+20
1.5975e+20
1.5495e+20
1.5555e+20
1.587e+20
1.509e+20
1.4985e+20
1.4925e+20
1.404e+20
1.4895e+20
1.5165e+20
1.4445e+20
1.5705e+20
1.422e+20
1.4595e+20
1.422e+20
1.497e+20
1.4265e+20
1.5075e+20
1.452e+20
1.458e+20
1.4505e+20
1.4295e+20
1.446e+20
1.4595e+20
1.4055e+20
1.461e+20
1.4325e+20
1.494e+20
1.4175e+20
1.4775e+20
1.431e+20
1.413e+20
1.4205e+20
1.4265e+20
1.47e+20
1.395e+20
1.4085e+20
1.4235e+20
1.401e+20
1.3875e+20
1.4985e+20
1.362e+20
1.3635e+20
1.4265e+20
1.371e+20
1.458e+20
1.371e+20
1.416e+20
1.4175e+20
1.299e+20
1.371e+20
1.3215e+20
1.413e+20
1.4115e+20
1.419e+20
1.3335e+20
1.434e+20
1.3785e+20
1.3815e+20
1.464e+20
1.32e+20
1.3755e+20
1.4175e+20
1.278e+20
1.4175e+20
1.356e+20
1.41e+20
1.4085e+20
1.3335e+20
1.4055e+20
1.3665e+20
1.4175e+20
1.4175e+20
1.344e+20
1.3545e+20
1.494e+20
1.4175e+20
1.4055e+20
1.41e+20
1.368e+20
1.4115e+20
1.4295e+20
1.4145e+20
1.464e+20
1.524e+20
1.362e+20
1.434e+20
1.3695e+20
1.3755e+20
1.428e+20
1.4565e+20
1.473e+20
1.3875e+20
1.4625e+20
1.479e+20
1.41e+20
1.362e+20
1.4385e+20
1.4595e+20
1.4085e+20
1.3875e+20
1.473e+20
1.4325e+20
1.41e+20
1.377e+20
1.4595e+20
1.3665e+20
1.443e+20
)
;

boundaryField
{
    sides
    {
        type            symmetry;
    }
    empty
    {
        type            empty;
    }
    procBoundary0to1
    {
        type            processor;
        value           uniform 1.3425e+20;
    }
}


// ************************************************************************* //
