/*--------------------------------*- C++ -*----------------------------------*\
  =========                 |
  \\      /  F ield         | OpenFOAM: The Open Source CFD Toolbox
   \\    /   O peration     | Website:  https://openfoam.org
    \\  /    A nd           | Version:  7
     \\/     M anipulation  |
\*---------------------------------------------------------------------------*/
FoamFile
{
    version     2.0;
    format      ascii;
    class       volScalarField;
    location    "0.00252";
    object      dsmcSigmaTcRMax;
}
// * * * * * * * * * * * * * * * * * * * * * * * * * * * * * * * * * * * * * //

dimensions      [0 3 -1 0 0 0 0];

internalField   nonuniform List<scalar> 
125
(
8.96328e-16
8.69522e-16
9.15053e-16
9.04352e-16
9.09423e-16
9.08948e-16
8.88732e-16
9.33487e-16
8.84374e-16
9.06832e-16
8.90452e-16
9.38476e-16
8.79791e-16
9.11084e-16
8.79411e-16
9.19279e-16
8.85893e-16
9.40203e-16
9.1373e-16
8.8522e-16
8.81981e-16
8.9642e-16
9.05921e-16
9.04105e-16
8.9405e-16
8.87065e-16
9.15734e-16
9.02009e-16
8.87174e-16
8.83901e-16
8.76045e-16
9.24465e-16
8.87875e-16
8.8059e-16
8.95643e-16
9.29297e-16
9.19038e-16
8.74253e-16
8.75577e-16
9.34476e-16
8.92097e-16
8.9528e-16
8.84196e-16
8.77679e-16
8.80066e-16
9.2672e-16
8.70374e-16
8.87816e-16
9.02437e-16
8.58298e-16
8.70297e-16
8.71511e-16
8.56575e-16
8.58752e-16
8.742e-16
8.8282e-16
8.5947e-16
8.89844e-16
8.7225e-16
8.46119e-16
8.62579e-16
8.74579e-16
8.54627e-16
8.74475e-16
8.37543e-16
8.66245e-16
9.07952e-16
8.16417e-16
8.16919e-16
8.22462e-16
8.62919e-16
8.4285e-16
8.09626e-16
8.17168e-16
8.46319e-16
8.22779e-16
8.12347e-16
8.18106e-16
8.24111e-16
8.00319e-16
8.27544e-16
8.28438e-16
8.51074e-16
8.04871e-16
8.173e-16
7.99668e-16
8.39006e-16
8.29414e-16
7.99389e-16
8.43499e-16
8.11872e-16
8.11083e-16
7.97159e-16
7.92539e-16
7.94439e-16
8.10811e-16
8.13352e-16
8.03336e-16
8.10693e-16
7.94339e-16
7.97023e-16
7.91202e-16
8.18981e-16
7.79951e-16
7.86066e-16
7.84501e-16
8.13421e-16
8.06637e-16
7.926e-16
7.74633e-16
7.7787e-16
7.90915e-16
8.39734e-16
7.7166e-16
7.52066e-16
7.39942e-16
7.69536e-16
7.6032e-16
7.60881e-16
7.16633e-16
7.34504e-16
7.14011e-16
7.22327e-16
7.30626e-16
7.20033e-16
)
;

boundaryField
{
    sides
    {
        type            symmetry;
    }
    empty
    {
        type            empty;
    }
    procBoundary2to1
    {
        type            processor;
        value           uniform 9.26991e-16;
    }
    procBoundary2to3
    {
        type            processor;
        value           uniform 7.41369e-16;
    }
}


// ************************************************************************* //
