/*--------------------------------*- C++ -*----------------------------------*\
  =========                 |
  \\      /  F ield         | OpenFOAM: The Open Source CFD Toolbox
   \\    /   O peration     | Website:  https://openfoam.org
    \\  /    A nd           | Version:  7
     \\/     M anipulation  |
\*---------------------------------------------------------------------------*/
FoamFile
{
    version     2.0;
    format      ascii;
    class       volScalarField;
    location    "0.00252";
    object      dsmcRhoN;
}
// * * * * * * * * * * * * * * * * * * * * * * * * * * * * * * * * * * * * * //

dimensions      [0 -3 0 0 0 0 0];

internalField   nonuniform List<scalar> 
125
(
144
96
118
129
140
127
119
118
126
140
118
138
132
124
136
122
125
135
130
137
121
158
119
122
133
147
112
133
122
129
140
115
122
128
136
125
111
139
120
142
133
139
115
151
119
140
124
123
135
99
120
120
136
124
142
124
107
116
134
146
136
139
130
151
144
138
157
138
149
166
150
157
146
167
171
183
188
185
186
189
162
169
195
210
189
173
172
199
175
207
183
204
160
172
190
159
176
175
177
176
183
198
195
165
197
176
181
184
151
167
196
153
180
190
184
171
180
191
108
72
65
76
76
72
75
)
;

boundaryField
{
    sides
    {
        type            symmetry;
    }
    empty
    {
        type            empty;
    }
    procBoundary2to1
    {
        type            processor;
        value           uniform 139;
    }
    procBoundary2to3
    {
        type            processor;
        value           uniform 61;
    }
}


// ************************************************************************* //
