/*--------------------------------*- C++ -*----------------------------------*\
  =========                 |
  \\      /  F ield         | OpenFOAM: The Open Source CFD Toolbox
   \\    /   O peration     | Website:  https://openfoam.org
    \\  /    A nd           | Version:  7
     \\/     M anipulation  |
\*---------------------------------------------------------------------------*/
FoamFile
{
    version     2.0;
    format      ascii;
    class       volScalarField;
    location    "0.00252";
    object      dsmcRhoN;
}
// * * * * * * * * * * * * * * * * * * * * * * * * * * * * * * * * * * * * * //

dimensions      [0 -3 0 0 0 0 0];

internalField   nonuniform List<scalar> 
125
(
98
150
152
139
129
132
118
114
108
144
110
135
135
129
101
119
124
122
136
131
133
136
110
130
133
126
121
134
125
132
121
141
140
126
130
142
113
107
131
135
140
134
130
158
121
136
134
130
121
133
134
123
125
130
115
127
115
144
133
147
123
125
130
147
130
128
146
152
125
146
135
180
162
179
169
183
190
181
184
194
197
177
161
176
186
188
188
213
173
183
183
178
184
169
175
169
180
166
191
198
175
201
183
184
188
158
184
185
173
174
177
162
196
183
162
175
179
190
133
58
73
80
63
72
71
)
;

boundaryField
{
    sides
    {
        type            symmetry;
    }
    empty
    {
        type            empty;
    }
    procBoundary2to1
    {
        type            processor;
        value           uniform 136;
    }
    procBoundary2to3
    {
        type            processor;
        value           uniform 74;
    }
}


// ************************************************************************* //
