/*--------------------------------*- C++ -*----------------------------------*\
  =========                 |
  \\      /  F ield         | OpenFOAM: The Open Source CFD Toolbox
   \\    /   O peration     | Website:  https://openfoam.org
    \\  /    A nd           | Version:  7
     \\/     M anipulation  |
\*---------------------------------------------------------------------------*/
FoamFile
{
    version     2.0;
    format      ascii;
    class       volScalarField;
    location    "0.00252";
    object      internalE;
}
// * * * * * * * * * * * * * * * * * * * * * * * * * * * * * * * * * * * * * //

dimensions      [1 -1 -2 0 0 0 0];

internalField   nonuniform List<scalar> 
125
(
460.873
331.812
362.602
430.506
561.81
403.017
405.502
353.321
446.699
465.035
390.365
464.776
432.664
364.764
472.907
399.32
410.446
418.052
426.298
458.355
427.351
515.88
436.603
406.568
461.625
460.399
347.892
486.765
422.74
439.733
510.475
355.496
442.675
395.691
375.128
365.134
375.136
405.108
420.123
493.994
437.939
490.722
397.998
464.814
392.629
512.995
461.975
454.79
476.194
313.954
387.066
379.343
481.606
430.193
469.204
466.801
349.495
371.177
476.674
476.551
492.049
447.36
406.181
440.786
471.583
440.651
403.57
383.638
455.429
533.233
419.617
428.075
413.504
501.075
428.776
395.253
544.325
479.31
446.257
441.187
437.451
410.353
482.147
494.475
467.675
377.94
405.487
499.8
426.415
514.755
430.185
526.215
356.015
420.234
427.331
385.109
458.019
370.524
376.215
376.775
407.064
440.087
495.824
350.672
457.031
431.283
451.694
455.323
361.336
402.029
448.931
309.353
429.307
443.737
389.95
390.044
444.379
451.394
240.987
121.243
120.82
116.223
107.534
81.0197
126.005
)
;

boundaryField
{
    sides
    {
        type            symmetry;
    }
    empty
    {
        type            empty;
    }
    procBoundary2to1
    {
        type            processor;
        value           uniform 470.385;
    }
    procBoundary2to3
    {
        type            processor;
        value           uniform 103.297;
    }
}


// ************************************************************************* //
