/*--------------------------------*- C++ -*----------------------------------*\
  =========                 |
  \\      /  F ield         | OpenFOAM: The Open Source CFD Toolbox
   \\    /   O peration     | Website:  https://openfoam.org
    \\  /    A nd           | Version:  7
     \\/     M anipulation  |
\*---------------------------------------------------------------------------*/
FoamFile
{
    version     2.0;
    format      ascii;
    class       volVectorField;
    location    "0.00252";
    object      momentum;
}
// * * * * * * * * * * * * * * * * * * * * * * * * * * * * * * * * * * * * * //

dimensions      [1 -2 -1 0 0 0 0];

internalField   nonuniform List<vector> 
125
(
(0.552345 -0.0689143 0.030764)
(1.03463 0.0533388 0.0712518)
(0.753047 0.032055 -0.163389)
(0.881296 0.0284595 -0.0464876)
(0.826487 0.0874372 -0.0326)
(0.743955 0.104387 0.0622037)
(0.690076 -0.0476322 0.0280561)
(0.670361 -0.063615 0.06169)
(0.620739 -0.0226618 0.0608553)
(0.832495 0.168749 0.109663)
(0.777119 -0.11356 0.0386388)
(0.877781 0.100515 -0.0252878)
(0.922691 0.0227727 0.130196)
(0.939611 -0.0632988 -0.0808189)
(0.710332 0.168294 -0.138064)
(0.704882 0.141864 -0.00774618)
(0.91472 0.152309 -0.0714728)
(0.809174 0.0279207 -0.100305)
(0.712051 0.0932997 -0.0903691)
(0.9487 -0.107247 0.0456869)
(0.920472 -0.0146056 -0.0109628)
(0.886762 0.0577581 0.0122981)
(0.736826 -0.120349 0.126432)
(0.829035 0.071425 0.0112269)
(0.871459 0.036652 -0.0885703)
(0.856353 0.0561717 -0.12174)
(0.851245 -0.00226873 -0.0839162)
(0.759569 0.0518962 0.0213216)
(0.887222 0.0117831 0.0517886)
(0.778338 -0.0527464 0.023491)
(0.913207 -0.0535474 -0.043823)
(0.965661 -0.0121989 -0.0364258)
(0.922232 -0.0230243 0.0393934)
(0.931147 0.0301055 0.0819453)
(0.820765 -0.0695959 -0.0310962)
(0.927699 -0.137027 0.035683)
(0.686399 0.0998391 -0.0124883)
(0.741616 -0.0690862 0.0506901)
(0.898658 -0.0128973 -0.126517)
(0.955422 -0.0098974 0.0603571)
(0.898419 0.118158 -0.11795)
(0.888969 -0.0794435 0.0854401)
(0.794997 0.0468426 -0.10177)
(0.996908 -0.175571 0.0907367)
(0.743902 0.0432569 -0.128434)
(0.967856 0.00974504 0.101545)
(0.780293 0.0462499 0.00588255)
(0.817938 -0.00046927 -0.0355076)
(0.832356 -0.0472716 0.0457519)
(0.973179 -0.0705135 0.0375603)
(0.869225 0.0033185 0.0559968)
(0.739986 -0.106397 -0.140786)
(0.70072 0.061882 0.00701723)
(1.07586 -0.00691518 -0.0150589)
(0.786844 0.0727 -0.0399917)
(0.676971 -0.0418439 0.152018)
(0.718138 0.000124856 -0.0116076)
(0.829627 -0.0116574 -0.12658)
(0.833059 -0.0763521 0.0502814)
(1.16628 -0.147345 0.0582174)
(0.717765 0.0932217 -0.0874729)
(0.826922 -0.0666827 0.05401)
(0.887024 0.0019484 -0.121894)
(0.949002 0.0287802 0.174573)
(0.89994 0.0733686 0.183842)
(0.778773 -0.0205257 0.0779488)
(1.00573 0.00775907 0.0343738)
(1.24116 -0.0524023 0.151866)
(0.842688 0.0484545 0.0765817)
(0.967865 0.132641 0.0394105)
(0.725622 -0.0725968 0.00487463)
(1.15517 -0.00818999 -0.0626771)
(1.02561 0.132122 -0.0416348)
(1.15858 -0.102395 -0.112844)
(1.05279 -0.0608102 0.15148)
(1.11589 0.0241663 -0.0647588)
(1.1835 -0.0686424 -0.0123927)
(1.18786 -0.0044909 -0.141128)
(1.1544 -0.0338083 0.118275)
(1.4001 0.045206 0.0883334)
(1.23135 -0.0363473 0.000445358)
(1.16948 -0.078445 0.0171908)
(1.01176 -0.0549006 -0.107383)
(1.32152 0.148584 0.0522844)
(1.1644 -0.127241 -0.130717)
(1.15684 -0.13234 -0.117601)
(1.26284 0.113816 -0.0782404)
(1.3564 0.00524259 0.0643438)
(0.988822 0.0512626 -0.0651412)
(1.22077 0.0199294 0.0508915)
(1.20758 -0.0990835 0.0114624)
(1.12908 0.0160898 0.0201512)
(1.33597 0.0698868 0.126926)
(1.03494 0.0702343 -0.033169)
(1.08722 -0.0933123 -0.124459)
(1.16935 -0.150081 0.071454)
(1.14334 -0.038118 0.1355)
(1.0402 -0.0307526 0.00437862)
(1.2491 0.00474868 0.0332265)
(1.25622 0.0912126 -0.193868)
(1.1776 -0.0403093 0.0428708)
(1.34639 0.105996 0.0742257)
(1.18328 0.15808 0.0420062)
(1.37269 -0.0559817 0.0292882)
(1.08275 -0.0128172 0.0519349)
(0.985737 -0.0053972 0.0453175)
(1.21392 0.0190952 -0.0356406)
(1.10013 -0.0577139 0.0343493)
(1.20459 0.0904026 -0.160096)
(1.12538 -0.0805061 0.0919262)
(1.18148 0.026512 -0.0599882)
(0.994309 -0.0475764 0.0277877)
(1.1244 -0.047344 0.148523)
(1.32263 0.0128246 -0.0214275)
(1.17028 0.122573 -0.0593848)
(1.18344 0.0310706 -0.0102331)
(1.26084 0.010615 -0.0160929)
(1.1386 -0.0802928 0.0616199)
(0.520268 -0.0330986 -0.0359354)
(0.047837 -0.0234057 -0.030803)
(-0.000690436 -0.0022017 -0.00300776)
(-0.0349531 0.00912048 0.00323399)
(0.0504241 -0.0885528 0.0224521)
(0.021421 -0.023563 -0.011784)
(-0.0495918 -0.018435 0.00286852)
)
;

boundaryField
{
    sides
    {
        type            symmetry;
    }
    empty
    {
        type            empty;
    }
    procBoundary2to1
    {
        type            processor;
        value           uniform (0.832692 0.0223446 0.0153625);
    }
    procBoundary2to3
    {
        type            processor;
        value           uniform (-0.0651417 0.072731 -0.0442737);
    }
}


// ************************************************************************* //
