/*--------------------------------*- C++ -*----------------------------------*\
  =========                 |
  \\      /  F ield         | OpenFOAM: The Open Source CFD Toolbox
   \\    /   O peration     | Website:  https://openfoam.org
    \\  /    A nd           | Version:  7
     \\/     M anipulation  |
\*---------------------------------------------------------------------------*/
FoamFile
{
    version     2.0;
    format      ascii;
    class       volScalarField;
    location    "0.00108";
    object      dsmcSigmaTcRMax;
}
// * * * * * * * * * * * * * * * * * * * * * * * * * * * * * * * * * * * * * //

dimensions      [0 3 -1 0 0 0 0];

internalField   nonuniform List<scalar> 
125
(
8.96328e-16
8.65965e-16
9.15053e-16
9.0106e-16
8.78027e-16
8.74316e-16
8.88732e-16
9.33487e-16
8.75123e-16
9.05399e-16
8.8982e-16
8.59153e-16
8.67659e-16
8.82222e-16
8.58109e-16
9.19279e-16
8.85893e-16
9.2687e-16
8.83235e-16
8.75914e-16
8.4726e-16
8.91027e-16
8.84436e-16
8.60842e-16
8.54105e-16
8.45714e-16
8.57638e-16
8.28784e-16
8.36267e-16
8.37795e-16
8.26382e-16
7.93988e-16
8.05747e-16
7.95744e-16
7.8559e-16
8.16138e-16
7.88296e-16
7.9595e-16
7.96325e-16
7.80913e-16
7.83181e-16
7.92595e-16
7.76215e-16
7.86774e-16
8.00842e-16
7.70715e-16
7.6787e-16
7.82864e-16
7.69685e-16
7.5421e-16
7.39539e-16
7.01048e-16
7.18289e-16
7.1002e-16
6.91463e-16
7.20686e-16
7.17824e-16
7.10049e-16
7.33087e-16
7.05379e-16
6.87163e-16
7.1517e-16
6.99453e-16
7.02654e-16
7.33116e-16
6.9583e-16
6.89127e-16
6.77103e-16
6.95472e-16
7.17682e-16
7.3147e-16
6.7671e-16
6.97574e-16
7.12863e-16
7.13247e-16
7.24292e-16
7.04914e-16
6.87822e-16
6.91006e-16
7.5068e-16
7.02519e-16
6.98042e-16
6.86251e-16
7.22952e-16
7.21159e-16
6.89898e-16
6.8736e-16
7.01801e-16
6.83952e-16
7.04065e-16
7.28572e-16
7.43857e-16
7.06339e-16
7.08753e-16
7.11052e-16
7.34301e-16
6.98589e-16
6.97979e-16
6.95849e-16
6.83789e-16
7.04965e-16
7.31567e-16
7.53216e-16
7.0906e-16
6.92688e-16
6.95659e-16
7.14267e-16
7.00138e-16
7.00289e-16
7.25562e-16
7.23821e-16
6.84356e-16
7.15927e-16
7.16168e-16
6.99209e-16
7.14454e-16
7.04896e-16
7.02421e-16
7.60881e-16
7.16633e-16
7.34504e-16
6.96831e-16
6.98053e-16
6.89597e-16
7.20033e-16
)
;

boundaryField
{
    sides
    {
        type            symmetry;
    }
    empty
    {
        type            empty;
    }
    procBoundary2to1
    {
        type            processor;
        value           uniform 9.26991e-16;
    }
    procBoundary2to3
    {
        type            processor;
        value           uniform 7.41369e-16;
    }
}


// ************************************************************************* //
