/*--------------------------------*- C++ -*----------------------------------*\
  =========                 |
  \\      /  F ield         | OpenFOAM: The Open Source CFD Toolbox
   \\    /   O peration     | Website:  https://openfoam.org
    \\  /    A nd           | Version:  7
     \\/     M anipulation  |
\*---------------------------------------------------------------------------*/
FoamFile
{
    version     2.0;
    format      ascii;
    class       volScalarField;
    location    "0.00108";
    object      dsmcRhoN;
}
// * * * * * * * * * * * * * * * * * * * * * * * * * * * * * * * * * * * * * //

dimensions      [0 -3 0 0 0 0 0];

internalField   nonuniform List<scalar> 
125
(
116
131
117
121
136
120
107
132
124
135
128
118
119
143
138
113
136
134
127
104
151
124
112
153
123
125
134
134
133
151
174
168
158
171
163
192
184
171
206
174
182
179
181
182
168
198
176
190
155
195
141
91
71
64
77
72
77
87
64
63
68
79
80
68
74
65
71
61
69
79
84
86
71
78
59
66
65
81
66
87
80
80
72
69
78
74
68
76
88
73
81
86
57
78
65
76
88
76
59
71
71
83
84
73
72
83
65
74
74
83
68
73
83
79
77
86
75
82
64
79
71
59
68
78
77
)
;

boundaryField
{
    sides
    {
        type            symmetry;
    }
    empty
    {
        type            empty;
    }
    procBoundary2to1
    {
        type            processor;
        value           uniform 134;
    }
    procBoundary2to3
    {
        type            processor;
        value           uniform 70;
    }
}


// ************************************************************************* //
