/*--------------------------------*- C++ -*----------------------------------*\
  =========                 |
  \\      /  F ield         | OpenFOAM: The Open Source CFD Toolbox
   \\    /   O peration     | Website:  https://openfoam.org
    \\  /    A nd           | Version:  7
     \\/     M anipulation  |
\*---------------------------------------------------------------------------*/
FoamFile
{
    version     2.0;
    format      ascii;
    class       volScalarField;
    location    "0.00108";
    object      internalE;
}
// * * * * * * * * * * * * * * * * * * * * * * * * * * * * * * * * * * * * * //

dimensions      [1 -1 -2 0 0 0 0];

internalField   nonuniform List<scalar> 
125
(
506.794
414.66
461.363
509.817
375.448
396.001
337.761
516.046
395.139
341.249
441.029
552.756
330.509
413.237
385.744
472.839
414.124
513.215
429.351
433.043
385.571
535.283
458.832
429.905
428.275
378.626
402.759
341.374
490.502
375.178
406.223
384.178
429.606
482.654
392.701
397.905
454.433
483.44
393.271
349.041
417.659
345.97
476.853
446.645
369.047
382.054
445.576
406.352
415.612
449.474
334.499
151.508
118.135
138.965
92.7146
89.634
136.063
96.9222
120.004
69.7637
141.518
134.253
108.598
116.636
146.141
83.3827
95.066
102.13
98.7613
134.192
116.646
88.1744
94.0051
130.341
99.8424
108.292
87.7818
86.9538
90.5795
82.4244
118.804
123.874
125.048
112.736
126.55
116.461
119.591
100.834
123.885
157.461
103.887
125.818
105.861
82.7131
98.5451
96.2366
122.076
124.363
100.248
97.5603
96.7515
119.941
95.3652
104.134
121.692
119.006
100.045
121.125
105.894
115.958
146.438
120.869
103.568
115.977
123.172
102.235
90.6176
93.6801
94.2821
104.179
110.011
111.896
107.735
150.382
98.3956
)
;

boundaryField
{
    sides
    {
        type            symmetry;
    }
    empty
    {
        type            empty;
    }
    procBoundary2to1
    {
        type            processor;
        value           uniform 476.022;
    }
    procBoundary2to3
    {
        type            processor;
        value           uniform 136.492;
    }
}


// ************************************************************************* //
