/*--------------------------------*- C++ -*----------------------------------*\
  =========                 |
  \\      /  F ield         | OpenFOAM: The Open Source CFD Toolbox
   \\    /   O peration     | Website:  https://openfoam.org
    \\  /    A nd           | Version:  7
     \\/     M anipulation  |
\*---------------------------------------------------------------------------*/
FoamFile
{
    version     2.0;
    format      ascii;
    class       scalarField;
    location    "0.009/lagrangian/dsmc";
    object      Ei;
}
// * * * * * * * * * * * * * * * * * * * * * * * * * * * * * * * * * * * * * //


4669
(
1.575186623e-21
7.192232661e-21
1.164823501e-22
8.387144295e-21
1.227944199e-21
2.043527177e-21
4.36543004e-21
9.17963311e-21
1.403006046e-21
1.251377085e-20
8.633296995e-21
1.635573238e-21
6.61479001e-21
5.72159948e-21
1.932602877e-21
5.821575683e-21
2.756970062e-21
3.473011789e-21
1.329541559e-20
9.241126727e-21
2.703601163e-21
1.744902453e-21
1.42458578e-20
3.349599266e-22
1.257858852e-21
2.353788339e-21
6.147321472e-21
5.512108778e-21
2.822791098e-21
5.659008058e-21
3.067514951e-21
1.415931422e-21
1.095425902e-20
5.413243912e-21
1.654764474e-21
8.940331356e-23
1.791167786e-22
1.470738756e-20
3.366949711e-21
3.51468415e-21
2.030935523e-21
7.988769944e-22
2.353683117e-21
7.70713933e-21
2.807531614e-21
5.450910045e-22
4.119113091e-22
1.590915171e-21
8.361543901e-22
8.042329752e-21
9.436720749e-21
2.877577953e-21
1.501237777e-20
3.031825898e-22
8.415691942e-21
5.712049567e-21
1.089458075e-21
4.980569385e-21
3.626463132e-21
9.21952015e-21
1.128105406e-20
1.309171345e-20
2.24789018e-21
3.108963393e-21
8.884831342e-21
9.937756145e-21
3.926354367e-21
6.355265505e-22
1.582132631e-21
3.017267952e-21
2.964108109e-21
2.376246548e-21
1.182462067e-20
1.238123607e-21
2.455812295e-21
5.506974753e-21
8.002233746e-21
1.488685976e-22
1.154548817e-20
7.688648394e-21
1.04056869e-20
4.36309793e-21
5.989519957e-22
7.578263413e-21
7.326263755e-21
8.139160879e-21
8.284001353e-22
1.166678606e-21
2.906120578e-21
4.300467636e-22
2.053955571e-21
1.144824396e-21
8.44487394e-22
9.67810285e-22
1.593516217e-21
5.114630764e-21
5.796576043e-22
3.801991895e-21
1.122460578e-22
1.700656487e-21
1.186124453e-23
3.329663058e-21
9.774966887e-21
1.565095668e-20
1.542575894e-21
2.531318669e-21
1.60987349e-22
1.461535628e-21
9.3326118e-21
5.136714183e-21
3.201217153e-22
6.495348541e-21
9.338689681e-22
2.769698977e-21
5.999302776e-21
2.818925271e-21
2.767899758e-22
2.366537163e-21
3.270034457e-22
1.859296974e-20
4.126130234e-21
1.379466911e-20
7.50071501e-22
1.054732686e-21
9.044440223e-21
3.558939139e-21
2.646887311e-21
1.008320058e-20
5.096441506e-22
6.276522148e-21
7.179842623e-22
8.387983068e-21
8.187602758e-21
1.344189186e-21
2.915439444e-21
1.279611167e-20
3.812803933e-21
1.630064138e-21
2.870857907e-21
4.757840555e-21
9.229763403e-22
2.484851522e-21
2.477934958e-22
7.504576428e-24
1.168946519e-20
1.051159201e-20
4.049523806e-21
1.923204038e-21
9.226457766e-22
1.099417829e-21
5.795428696e-23
2.055408354e-21
1.068667074e-21
1.736718661e-21
3.638329544e-23
9.766217181e-22
1.243272126e-21
5.56848532e-21
1.424731348e-20
2.974651428e-21
2.910368694e-21
5.269076438e-21
5.209662525e-21
4.866866616e-21
1.664886179e-21
1.895461514e-20
1.978479798e-21
6.963617393e-21
1.175493835e-22
3.806042084e-21
3.26749926e-21
2.15014156e-21
5.876198437e-21
4.358396295e-21
2.640972726e-20
3.802997451e-22
6.704871395e-21
4.341732786e-21
1.577230643e-22
4.013222117e-21
1.764196019e-22
3.306972156e-21
8.085693122e-21
3.793391854e-21
3.525669305e-22
4.529568072e-22
1.569993064e-21
2.557507414e-21
8.214594357e-23
1.494545932e-21
8.983407089e-22
2.819136233e-22
2.498516686e-21
1.793472285e-24
3.830962614e-21
3.548096913e-22
5.409421419e-21
5.045401815e-22
2.290049801e-21
5.844434541e-23
2.178322729e-21
2.07750258e-21
1.353344811e-21
4.704398728e-21
3.688577972e-21
3.755051524e-21
2.712980439e-22
3.646255714e-22
6.90462307e-21
2.08990594e-21
5.177563895e-21
1.299289664e-21
2.54777343e-21
1.235601133e-21
1.49125515e-21
4.353953849e-21
2.348651822e-20
9.897714741e-21
2.186033138e-21
4.333595764e-22
7.024351756e-21
1.19507851e-21
1.86456594e-21
7.52657782e-21
2.17126482e-21
2.105494704e-20
1.138540367e-22
3.760417707e-21
9.220338811e-21
3.620343059e-22
2.005739544e-21
6.506500741e-21
5.448536982e-21
6.84897353e-21
2.928724416e-21
5.343776072e-22
1.72369908e-21
6.277001604e-22
6.486902277e-22
2.29578582e-21
1.772463109e-21
2.898238069e-21
2.867015672e-21
8.156201576e-22
1.979361906e-21
1.923709784e-21
5.187744154e-21
2.571373208e-21
4.335797114e-21
6.391422566e-22
2.705823062e-21
6.396666603e-21
1.326759343e-21
3.918183999e-21
3.48077682e-21
2.269009437e-21
1.289778304e-21
6.280537224e-21
7.800607482e-21
8.120630206e-22
7.981814798e-21
1.784448309e-21
3.739071126e-21
4.412291119e-21
1.209073454e-21
1.149589649e-21
4.698586161e-23
1.699381005e-21
3.382616319e-21
4.334571776e-21
5.544187835e-21
9.782358698e-22
3.967571693e-21
4.642576809e-22
2.796398758e-22
1.131394572e-20
1.620182911e-22
9.470367854e-21
4.586689219e-22
1.348137851e-20
4.658081525e-21
4.91865976e-22
4.974690212e-21
1.045064196e-20
1.005137073e-21
7.9443298e-22
2.015118055e-21
5.122911009e-21
3.090385215e-21
1.027638927e-22
6.69309115e-21
8.680487213e-22
1.617759376e-21
2.498442101e-21
2.415996393e-21
2.369887655e-21
2.76041422e-21
9.065009622e-22
8.879227901e-21
7.827669057e-21
3.655426017e-21
5.809299119e-21
1.065416558e-20
1.526656029e-22
9.400204008e-21
1.589541983e-21
3.196545271e-21
1.719750883e-20
1.081250462e-20
1.931953934e-21
1.376942501e-21
2.320434731e-21
8.629803415e-21
1.619168309e-21
6.497157516e-21
3.335103094e-21
1.149477616e-22
2.348000274e-22
2.531762595e-21
2.3040746e-21
3.375447449e-21
2.547860674e-20
1.966942988e-21
8.606184228e-22
1.201479062e-21
1.205543268e-21
1.152526716e-20
2.416433398e-21
6.847635586e-21
1.155255939e-20
3.189567221e-21
5.900142198e-21
1.301785697e-21
5.77169529e-21
1.564860384e-21
1.174028974e-20
2.420651533e-21
4.29931639e-21
6.095887283e-23
1.386903118e-21
3.525172894e-21
3.257621821e-21
6.622630726e-21
2.043673365e-21
3.151798078e-21
2.033844051e-21
5.271122481e-21
2.785011079e-21
9.161539721e-21
1.468196114e-22
2.813786328e-21
4.18832591e-21
1.793943938e-21
2.088233522e-21
2.286908518e-21
1.095668514e-21
4.168757212e-21
4.090628421e-21
2.263880056e-21
3.877299485e-21
1.624201887e-21
7.300550822e-21
1.539671326e-20
5.286726873e-21
1.277089521e-20
8.647882369e-21
3.887448432e-21
2.887048398e-21
6.510529519e-21
5.10130326e-22
2.7790439e-21
2.848053706e-21
1.76818108e-21
2.769982053e-21
3.458357018e-21
1.907130255e-20
1.585703007e-20
5.736486479e-21
3.95499935e-21
3.329526062e-21
2.52909837e-21
1.952106383e-21
2.263577754e-21
5.143296967e-21
7.081039713e-21
2.878317243e-21
8.304739953e-21
6.049060309e-21
4.907369825e-21
1.406589588e-21
1.264911387e-20
6.744755956e-22
4.427049644e-21
3.036092275e-21
4.901102023e-21
2.58477894e-21
6.986844927e-22
1.501228411e-20
7.024033236e-21
5.86123716e-21
9.063068791e-21
3.16706196e-21
1.638520201e-21
8.676900019e-25
2.19613918e-21
6.285574964e-21
1.090176221e-22
2.54714762e-21
2.21309218e-21
1.455088563e-21
1.230227538e-20
3.738643507e-21
1.116320324e-22
1.938189393e-21
1.050830837e-20
7.943562335e-23
7.64751866e-21
7.677477658e-21
4.767238109e-21
4.682588989e-21
7.323961167e-21
9.697805439e-21
1.783676077e-21
5.123315662e-22
3.252074491e-21
3.186125322e-21
4.772859639e-22
5.095465133e-22
3.932728543e-21
8.619779687e-21
5.30641155e-21
4.252795364e-21
2.080983558e-21
6.231188125e-22
6.455279917e-21
3.163178272e-21
4.196389844e-22
6.278140507e-21
1.032892678e-21
6.774070026e-21
5.51884945e-21
1.043949755e-20
1.567822057e-22
8.916426525e-21
4.442313255e-21
1.386923153e-20
7.21788701e-22
6.297462444e-22
1.711693274e-22
6.226213214e-21
1.674482398e-20
8.802312518e-22
2.803857965e-21
3.756169941e-22
7.193431557e-21
1.432004339e-22
7.999074755e-21
1.232573299e-20
3.220657644e-21
6.78086952e-21
1.506614643e-21
1.501032661e-20
8.844643867e-21
3.517806047e-22
9.067515608e-22
1.645161141e-21
3.754123766e-21
1.252464116e-20
1.540041706e-21
4.868084246e-21
6.175908787e-21
1.992548608e-21
5.274262342e-22
2.311949452e-21
6.63732343e-21
1.597621214e-21
9.037442851e-22
6.396548391e-22
2.827154551e-21
1.273705478e-21
8.086183851e-21
6.373379691e-22
8.195408006e-21
2.332429889e-21
2.31703766e-21
1.143833959e-20
6.856451432e-21
2.008388152e-21
5.472996064e-21
3.86611844e-21
7.846565331e-22
2.718880306e-21
1.66354353e-21
1.112074772e-20
4.83585877e-21
8.087318849e-21
1.881062389e-20
4.483757974e-21
5.543973441e-21
9.584863235e-21
1.644550178e-22
4.195239153e-22
8.083552803e-21
1.688637516e-20
3.037707379e-21
2.535251579e-21
2.147450031e-21
1.385476767e-21
1.022278177e-21
2.219692282e-21
5.788056858e-21
9.982740844e-21
7.128920647e-21
1.720057642e-21
2.573641544e-21
2.702704035e-21
1.966489425e-20
8.964103723e-21
2.296113167e-21
6.046971459e-21
4.706821299e-21
5.869674136e-21
6.342576222e-21
1.147887797e-21
2.069739707e-21
2.822582621e-22
4.126989526e-21
1.156035178e-21
2.563630384e-21
3.379786622e-21
3.506746214e-21
1.775519068e-21
5.663691774e-21
7.264993692e-22
9.296182829e-22
3.44599952e-23
3.486096474e-21
6.02614562e-21
4.726149794e-21
2.393177235e-21
2.320954213e-21
7.746551249e-21
3.567135031e-22
6.032286831e-21
7.984081348e-22
2.874467492e-21
2.76185229e-22
6.724014765e-21
1.191398206e-21
3.292395074e-21
1.902151833e-21
5.372947159e-21
1.867593038e-21
4.015926939e-21
2.014239088e-21
5.099563003e-23
3.240056673e-21
3.738048759e-22
2.14075749e-20
7.720379107e-21
8.23673088e-21
3.846136466e-20
3.83447958e-21
1.876329187e-20
6.69586299e-22
1.149569658e-20
2.276342284e-21
7.467619155e-22
9.762302326e-23
3.941280983e-21
5.08441788e-22
3.580332024e-21
2.502941121e-21
3.028260626e-21
1.744953465e-21
3.678997465e-21
9.348093359e-21
4.063379287e-21
2.485287085e-21
2.658218685e-21
3.890660658e-22
1.796321604e-20
3.838527296e-22
1.295557706e-21
1.348679516e-20
5.221569929e-21
1.450206765e-20
4.375898095e-21
9.589363765e-22
1.287436027e-21
2.530466144e-21
1.177141657e-21
6.678774722e-21
2.648511828e-21
2.897260198e-21
4.164249919e-21
1.136858439e-21
1.32164518e-21
2.186411035e-21
1.915184912e-22
2.791234573e-21
6.439046041e-21
2.180029691e-21
1.686204116e-21
3.450139287e-21
8.906172894e-21
2.964948266e-21
2.066399479e-21
1.015521081e-21
4.632128746e-21
6.783614878e-22
4.703812502e-22
3.057088305e-20
3.341141839e-21
1.818789295e-20
4.92963478e-21
1.447586294e-21
1.105408647e-20
1.47717468e-20
1.188074724e-21
5.668798604e-21
8.638300834e-22
7.687660925e-21
3.61573242e-21
9.371531221e-21
1.206654145e-21
2.13601831e-21
1.351955035e-20
6.330042279e-22
3.633923331e-21
2.227589313e-21
3.232502308e-21
5.251119023e-21
2.220907633e-21
1.126723439e-21
1.788231851e-20
1.991982306e-21
1.26088293e-22
1.429744861e-21
6.213569219e-21
5.936761893e-22
8.913739476e-21
4.8071159e-23
2.484099318e-21
9.101403285e-22
9.174107016e-22
1.754266879e-21
9.497722916e-22
1.555795056e-21
2.330518919e-21
8.978517057e-21
6.115033978e-22
9.89491816e-21
2.076750673e-21
7.116540267e-21
9.692458558e-21
2.238261087e-22
1.107218178e-20
2.744361007e-21
6.423734391e-22
1.441366436e-20
2.495966802e-22
1.362818099e-20
1.735156914e-21
1.477830713e-20
2.313767685e-21
8.691287603e-22
4.832557956e-21
2.806432157e-22
3.014954849e-21
1.325838138e-21
3.529077006e-21
7.687091305e-21
7.932604075e-22
2.261208303e-21
1.884706215e-21
1.317194378e-20
1.192797214e-22
2.824738006e-21
2.789417726e-21
2.857121467e-21
7.599946506e-21
1.122063423e-21
2.540194446e-21
3.270764374e-21
5.668897273e-21
1.122359257e-21
4.224496261e-21
3.209995753e-21
5.684235723e-21
7.208645802e-21
5.293705436e-22
5.137071504e-21
5.287286355e-21
6.774943551e-23
2.118876092e-21
1.426915433e-21
1.013467769e-20
5.390085195e-21
1.292200591e-21
1.091399778e-20
3.979680426e-21
3.451391556e-21
6.094458416e-21
2.215532576e-21
3.07244674e-21
7.542237371e-21
9.6375309e-22
1.093182711e-21
8.6839268e-21
2.662361542e-22
7.262893262e-22
9.92844952e-22
3.808020429e-21
1.049805932e-21
5.871180522e-21
3.048909403e-22
3.440990389e-22
9.069760895e-22
1.55781173e-20
3.27788035e-22
2.596189862e-21
5.885213721e-22
6.864529027e-21
9.495150135e-22
1.222025361e-21
1.661703899e-21
2.541268321e-21
5.538779767e-21
2.101800968e-21
4.939821169e-21
4.354173004e-21
1.868425638e-22
2.818398318e-21
4.530964314e-21
7.215368573e-21
1.073197374e-20
4.14064862e-21
4.244071477e-22
5.433309174e-21
4.991103878e-21
1.623504201e-20
4.276336713e-21
1.051381956e-21
2.755407785e-21
4.22849661e-21
7.53731963e-21
7.887319896e-22
1.143220642e-20
5.173698805e-21
9.708369973e-21
1.13322338e-22
1.018736956e-21
1.448280203e-20
4.993632969e-21
2.451929003e-21
2.21104067e-21
5.034242955e-22
4.529549139e-22
7.89184803e-21
2.545836726e-21
2.018417514e-20
4.982815631e-22
2.85213613e-21
2.683799494e-21
3.591368637e-21
1.3580929e-21
3.344138791e-21
3.454956504e-21
1.670703874e-23
2.033164987e-22
2.154122407e-21
2.620975053e-21
3.201986114e-21
1.206323697e-21
4.033787425e-21
1.015185239e-21
1.791318833e-21
2.178598272e-21
1.366975754e-21
1.672995905e-21
9.208302927e-22
3.22646963e-21
8.489977234e-21
5.806136487e-21
3.760992298e-21
9.549901429e-23
6.03697832e-21
6.964050192e-21
6.045563875e-22
5.702808536e-21
3.844818127e-21
9.402984975e-21
3.49722226e-21
4.811472043e-21
1.017114566e-20
4.724077315e-21
1.743219351e-21
4.791891201e-21
3.311802634e-21
8.38502673e-22
4.441454063e-21
2.230220532e-21
9.78182204e-22
1.03702752e-20
1.614985199e-21
9.622342821e-21
3.222608077e-21
1.93641127e-22
1.548443039e-21
4.626224631e-21
4.968012532e-21
3.330700346e-21
6.737194457e-22
5.707647635e-21
6.439282119e-21
4.878786003e-21
5.176587072e-21
2.55917525e-22
1.010587011e-20
1.274975441e-20
8.953155195e-22
4.052510919e-22
8.781658299e-21
2.445307457e-21
3.952483524e-21
1.115304466e-21
1.064361807e-20
6.444065648e-21
9.301626437e-23
4.406314264e-21
1.93219169e-20
1.3062172e-21
2.002322376e-21
1.459380785e-20
5.795777634e-21
1.977487324e-21
1.038408607e-21
1.606513557e-22
9.58147106e-21
2.494436144e-21
2.185588463e-21
2.83164581e-20
9.243789358e-21
2.795575056e-21
1.496118022e-21
2.830931535e-21
1.355463184e-21
5.513645658e-21
7.713750949e-21
5.2314393e-21
8.832565263e-21
4.010575121e-22
1.387246964e-21
1.556189446e-21
1.678119351e-20
3.681317119e-21
1.499886655e-20
4.582571827e-22
2.388966164e-21
9.380618078e-21
2.618670026e-22
5.294669124e-22
2.757351795e-21
3.42036118e-21
3.989203938e-21
2.930641354e-21
4.930782543e-21
5.13085524e-21
6.51736105e-21
7.123083589e-22
7.687700109e-22
6.034067007e-21
2.97396313e-21
5.00090052e-22
2.96642042e-21
5.950063477e-23
3.728336162e-21
1.116839062e-20
8.260653328e-21
4.682002892e-21
2.502543768e-22
1.201461829e-20
3.03994772e-21
4.085261313e-21
1.802696083e-21
2.412641379e-21
1.036421885e-21
6.135221301e-22
1.565021771e-20
7.220650637e-21
5.422425847e-21
6.845656708e-22
1.388996429e-21
1.628553098e-21
2.451913718e-20
7.54055222e-21
6.725544419e-21
3.774552021e-21
3.34184823e-21
2.467457126e-21
5.340204375e-23
4.93371696e-21
1.429374626e-21
1.659028529e-21
9.200233972e-22
6.212333598e-21
1.147109412e-21
5.126588717e-22
5.021258101e-21
5.373723125e-21
3.135517774e-21
9.149828961e-22
3.72282539e-21
1.345441764e-20
3.505721228e-21
2.287180425e-21
2.703469043e-21
1.048942022e-20
7.57745379e-21
2.167325817e-22
5.208672337e-21
6.622988508e-21
5.455303649e-21
1.149234802e-20
7.76463533e-21
9.060607214e-21
2.507086567e-21
2.77064732e-21
2.704784376e-21
7.462029474e-22
1.403160313e-21
5.112794813e-21
6.188921123e-21
2.362718534e-20
9.627625338e-22
6.638020743e-22
1.609254872e-21
2.615986898e-21
1.286511494e-21
3.283091369e-21
3.251999965e-21
2.374830084e-22
4.058793067e-21
3.29561636e-21
5.472913928e-21
4.896171487e-21
6.876935034e-21
4.695090235e-21
1.003732754e-20
1.97291435e-21
2.151484483e-21
6.298592781e-21
3.426229585e-21
1.303982102e-20
4.740067488e-21
1.611337327e-21
7.781875016e-22
6.620673009e-21
1.922778333e-21
3.368572644e-21
7.406881798e-21
5.506451297e-22
3.18198991e-21
4.037200781e-22
6.546196103e-22
3.357775367e-21
6.765476374e-21
7.561618747e-21
6.408324449e-22
9.079543703e-21
1.819259111e-21
1.44910785e-21
1.026436178e-21
1.240207163e-21
4.499593476e-21
1.246636775e-20
5.138346242e-21
2.17685653e-22
3.372267771e-22
3.831509135e-21
3.81857536e-21
7.243030193e-21
1.344757363e-20
2.747914481e-21
5.467111221e-21
5.861302441e-21
3.577903364e-21
1.136216867e-20
3.965783177e-21
1.755915289e-20
2.932042551e-22
4.814727357e-21
3.888884563e-21
1.693705099e-21
1.970826077e-21
3.715462646e-21
9.249702373e-21
1.365451521e-22
9.189348753e-21
1.510534319e-21
3.712921154e-21
1.533450406e-20
1.606330785e-20
9.847637872e-21
3.634819769e-21
6.10442098e-21
6.212565265e-22
1.159831665e-21
4.138649283e-21
4.521986583e-22
1.572201627e-21
1.75623246e-21
6.472175398e-22
1.257129825e-21
2.889500933e-21
3.936832423e-21
6.794057778e-21
1.154264906e-20
6.373907388e-21
1.882422003e-20
7.236532097e-21
2.982370639e-21
2.339534648e-21
5.948782479e-21
5.340334464e-22
2.791734112e-21
9.863075609e-21
5.211124055e-22
4.427534768e-21
2.124627384e-21
2.34133909e-21
5.035406084e-22
9.621979965e-22
7.569338408e-21
7.615685826e-22
4.518535776e-21
5.220358307e-21
2.807261243e-21
4.702674093e-22
7.411010629e-21
1.438764754e-21
8.633087935e-21
1.039275583e-20
1.122461214e-21
1.80074633e-21
3.02240933e-21
1.142277033e-20
4.124916328e-21
7.695473251e-21
3.407824077e-21
3.631164953e-21
7.670743215e-22
7.895413294e-21
5.245462818e-21
8.553916821e-22
2.830759689e-21
2.764019624e-21
6.475563734e-21
1.0664885e-21
3.909429351e-21
5.42541401e-21
1.83615873e-21
2.098561717e-21
5.325364697e-21
3.658516533e-21
2.323679533e-21
6.355095343e-21
3.308994568e-21
1.035933201e-20
9.052229964e-21
2.503385168e-23
1.029897116e-20
2.013652956e-21
5.300502775e-22
2.631364678e-22
2.139785011e-21
2.206045601e-21
1.491794128e-20
3.707563737e-21
7.045993145e-21
5.212552882e-21
7.425587335e-22
4.704472371e-21
1.071126104e-20
3.615035558e-21
8.4217473e-21
5.568871065e-23
2.507287349e-21
3.905627218e-21
6.007782865e-22
5.839921236e-21
5.553760691e-22
9.372022576e-21
8.091919737e-21
1.004580258e-21
1.084529682e-21
1.078963216e-20
3.963488698e-21
1.19616458e-20
4.11646148e-21
2.559761047e-21
1.93224133e-21
2.350677612e-21
4.971670196e-21
1.061983876e-21
1.428575485e-20
2.292188396e-21
7.299815693e-21
3.472024934e-22
1.581525721e-20
1.922801106e-21
3.157264612e-21
1.896304574e-21
8.726486903e-21
6.850833665e-21
4.802531655e-22
7.782770571e-21
1.142062361e-20
1.778135348e-21
2.92795794e-21
1.291386473e-21
4.079316111e-21
2.520062489e-21
3.723489653e-21
2.738591804e-21
1.00659791e-20
9.080707283e-21
4.512674871e-21
3.042195635e-22
1.862966544e-21
7.599169317e-22
1.468756994e-21
2.382440019e-21
1.535770479e-21
2.446184571e-20
2.960954558e-21
1.55942988e-20
6.742683746e-21
1.060087063e-21
1.30921036e-21
2.587316855e-21
4.788998401e-21
2.523440389e-21
2.278868194e-21
6.019204831e-21
1.32948813e-22
1.233628404e-20
1.303354879e-21
1.983499039e-21
2.608064837e-21
8.320328581e-21
2.661897283e-21
1.222465241e-20
5.222029385e-21
2.797380667e-21
3.127009509e-21
7.054619543e-21
1.530976738e-22
5.773844319e-21
1.221169714e-20
8.341507323e-21
7.049726046e-21
1.772413211e-21
1.377149437e-21
3.756342619e-21
7.024264896e-21
2.512460548e-21
8.123433408e-21
7.317593313e-21
6.796949262e-21
1.617093297e-21
1.411119579e-20
2.051325102e-21
1.506883714e-21
2.310359053e-20
7.868957865e-21
3.960779641e-21
6.668648102e-21
2.116684232e-21
5.635613303e-22
5.999603439e-21
2.498781736e-21
5.899454829e-22
5.112782173e-21
1.382558334e-21
7.21702681e-21
2.420174092e-21
5.849856724e-21
1.382721319e-21
4.997853831e-21
2.281956376e-20
9.317169439e-22
6.680548015e-21
2.818170669e-21
5.562639508e-21
6.743920272e-22
1.487881539e-20
8.324794105e-23
3.612897502e-21
4.672689278e-21
1.140277083e-21
2.995080556e-21
8.20983423e-22
9.533200103e-21
7.990473047e-22
4.849720335e-21
7.839598942e-21
1.568379595e-20
4.895795872e-21
7.083677763e-21
9.265586524e-21
5.959838934e-22
2.080870093e-21
4.650592808e-21
4.30347041e-22
3.061398087e-22
5.568700043e-22
5.006396299e-21
1.062413835e-20
7.921664602e-21
1.966800295e-21
1.416048832e-20
7.210262328e-21
2.919565823e-22
6.670377516e-21
5.626200371e-21
3.274988858e-22
1.406262514e-21
2.967669859e-21
4.750699083e-21
1.235557859e-22
8.789179206e-21
3.5415572e-20
2.026490376e-21
4.529513956e-21
7.810314669e-21
4.947987597e-22
2.922782219e-21
1.606080095e-21
5.123813024e-23
1.737965172e-21
6.125054459e-21
7.861517291e-21
1.644142802e-20
4.00335706e-21
1.844297993e-22
1.929573221e-22
2.882568487e-21
3.204119107e-22
5.923212526e-21
2.666879532e-21
6.580036672e-21
8.647014914e-21
7.907700622e-22
8.992441908e-22
1.293632327e-21
1.432758799e-22
5.07446889e-21
4.461695359e-21
8.028041365e-21
6.050273391e-21
1.150828226e-21
1.87441731e-20
3.779043736e-21
9.546016494e-21
1.43666521e-21
7.332866683e-22
1.860465196e-21
1.375818288e-21
3.057828309e-22
1.704985823e-21
4.478556618e-21
8.206733788e-21
9.260916963e-22
2.902017459e-21
8.90977452e-22
2.424584676e-21
7.309677864e-21
3.947838457e-21
2.997452416e-21
8.765463683e-21
2.619725253e-21
2.563355535e-21
1.69805865e-22
2.260498325e-20
1.538581757e-21
2.216225367e-21
7.90181954e-22
1.164920092e-20
8.672813719e-22
3.297067119e-20
4.585261421e-21
5.20257099e-21
1.150162584e-20
2.288527344e-22
2.248971845e-21
1.147446474e-20
3.875971189e-21
4.724930183e-21
1.434253953e-21
4.166653921e-21
7.796431785e-22
1.161444602e-21
1.230484427e-21
1.968784491e-21
3.750618474e-21
1.551756313e-22
2.539725903e-22
1.506370478e-20
4.453616076e-21
2.989278871e-21
8.225167923e-23
9.355058157e-21
1.780292701e-21
1.522893133e-21
9.147302824e-21
2.891738435e-22
1.086080642e-21
5.610066903e-21
6.529782127e-21
1.127854476e-20
3.534605459e-21
8.858952628e-21
4.993229836e-21
7.362436977e-22
3.17570799e-21
1.610115683e-21
9.863240488e-21
4.440364355e-21
6.921734591e-21
1.112327029e-21
1.207611321e-21
1.312914859e-20
2.790327005e-21
1.892309891e-21
7.549400444e-21
6.81513249e-21
8.517896441e-21
8.520918717e-22
3.563824961e-21
7.107775411e-21
2.932128378e-21
3.503383503e-21
1.402889639e-21
8.489105575e-22
4.508482015e-21
2.444103732e-21
3.043950837e-21
1.505814422e-21
5.143408719e-21
7.389341282e-22
2.733695463e-21
4.140461648e-22
6.442377724e-21
3.564598571e-21
7.334689562e-22
8.133846691e-21
5.365200252e-21
1.950413365e-21
4.50581672e-21
4.94749533e-21
5.58696178e-21
4.993575743e-21
1.406673808e-20
4.873110355e-21
6.210158709e-22
2.577512943e-21
2.841162801e-21
2.159924736e-21
2.562279745e-21
4.474043475e-21
1.817393695e-21
8.054064601e-21
6.90744151e-21
6.0762192e-22
2.19845869e-21
5.302885449e-21
4.597852957e-21
2.782689658e-21
1.382859353e-21
3.053820086e-21
4.987535999e-21
2.251076931e-21
2.468549438e-22
5.930566738e-21
3.635664157e-21
4.721167259e-21
3.281098217e-21
1.746382439e-20
6.287279947e-21
6.14266833e-22
5.213441069e-22
1.198941773e-21
1.204554374e-20
8.879624193e-21
1.363057074e-20
4.30749274e-21
1.045438651e-21
2.545206299e-21
8.092069987e-21
2.671431239e-21
5.833935463e-21
5.967052995e-22
5.54993958e-21
7.550122548e-22
4.520548566e-21
7.925247735e-22
8.092899809e-21
2.062977022e-21
2.816698586e-21
8.187936273e-22
1.108392484e-20
1.535302521e-20
3.340388943e-21
9.709602262e-21
2.877457383e-21
3.093576677e-21
6.541565015e-21
2.336823828e-21
6.657702018e-21
5.421112277e-21
5.256800493e-21
1.778679191e-20
2.6197363e-21
2.949211985e-21
3.520093855e-21
8.097008336e-21
4.948145923e-22
6.702725305e-21
1.896107241e-21
4.30166885e-21
8.491621088e-22
4.077719828e-21
2.425057002e-21
8.478218086e-21
6.734224974e-21
4.232367233e-23
2.268902409e-20
5.800096686e-22
9.731182069e-21
5.658608787e-21
5.06454467e-23
1.933224306e-21
1.524016909e-20
7.23435824e-21
8.673177354e-22
5.837211295e-21
1.053632411e-20
1.071762191e-21
4.308083454e-21
1.869529132e-21
4.801547027e-21
2.29961311e-22
4.309143645e-21
2.459677428e-21
7.777285112e-21
1.223485338e-21
4.347548544e-21
2.630333821e-21
1.977476826e-20
1.720305801e-20
5.375829237e-22
1.703937623e-20
8.755080217e-21
2.115266682e-21
1.083310608e-20
3.26442092e-21
5.775338316e-21
4.116935306e-22
7.054832457e-21
4.00535816e-21
2.458800186e-21
1.263268286e-20
3.309860896e-21
8.384445808e-21
5.670951404e-21
5.275971255e-22
9.91708991e-22
9.722907966e-22
2.985401854e-21
1.640172519e-22
1.166190768e-21
8.096811137e-22
1.274244938e-20
4.327138056e-21
1.635514597e-21
5.104485921e-21
2.101886391e-21
8.909337164e-21
2.032179164e-21
5.173068522e-21
1.209623461e-20
2.47814923e-21
3.531106573e-21
7.672526105e-22
2.009246193e-20
7.54113861e-21
6.245660737e-21
1.911668384e-21
6.401828426e-21
9.706341089e-22
9.673328535e-22
1.979909679e-21
8.357618976e-21
1.276000596e-21
1.139855688e-20
1.266914085e-20
5.493357215e-21
1.159834553e-21
2.984752434e-21
1.104675098e-20
2.302498449e-21
1.271691115e-21
4.019708247e-21
2.262923166e-21
2.568089568e-21
8.828119198e-22
1.873968772e-21
1.719088453e-21
6.467357289e-21
1.324561291e-21
1.527674766e-20
3.290474783e-21
3.827035041e-21
1.638493192e-20
1.051875791e-20
7.280674117e-21
9.136941537e-23
3.297954487e-21
8.321800023e-21
4.501274757e-21
2.83575519e-21
6.787494464e-21
1.864535282e-21
9.941774902e-23
2.294588743e-21
1.533864378e-21
8.941540025e-23
1.231582554e-20
3.788711416e-21
5.307403779e-22
2.631015029e-22
3.23417183e-21
2.089793723e-20
5.97016454e-21
1.475534707e-20
3.645938708e-21
4.949803975e-21
4.092136278e-21
8.591997797e-21
1.325919335e-20
2.191778436e-22
1.442688864e-20
3.20061598e-22
1.041796291e-20
8.166257777e-21
7.96309415e-22
4.330683912e-21
3.291820559e-22
7.093815302e-21
1.737947042e-21
3.302572372e-21
1.608098253e-21
9.506440681e-21
6.917823922e-21
5.804955843e-22
5.394643167e-22
1.360201796e-20
1.665578341e-21
8.841963302e-21
3.569243969e-21
8.080515527e-21
9.500494136e-21
2.966770494e-21
4.515205029e-22
1.822648938e-21
2.494403514e-21
3.170200845e-21
1.474910301e-21
5.050830822e-22
9.340811964e-21
5.677364463e-21
3.623368234e-21
6.912814592e-21
2.111368229e-21
4.113032091e-21
7.803239001e-21
1.333482885e-20
5.607515669e-21
1.433862402e-21
1.509389761e-21
3.234179932e-21
4.256446609e-21
1.18842148e-20
3.079285984e-22
5.891804941e-21
9.063710642e-21
3.109104228e-21
2.060629249e-20
2.427277043e-21
1.449294847e-21
4.45466286e-21
1.008091385e-20
3.532181726e-21
6.973014339e-22
5.354613041e-21
1.269961326e-20
3.061070958e-21
1.927902787e-21
2.229110529e-21
1.428759545e-21
5.89316854e-21
7.035380041e-21
1.103219833e-20
2.551033268e-21
3.401156408e-21
8.154310536e-21
5.468982812e-21
1.201163905e-20
4.315123232e-21
7.811262065e-21
5.984278901e-22
1.261349002e-21
2.773101847e-21
7.65816375e-21
3.408185291e-22
4.84334407e-21
1.121199674e-20
1.073787767e-21
3.163450615e-21
2.962330393e-21
5.060737127e-21
1.437546895e-20
7.92520167e-23
6.550338942e-22
1.040861772e-20
3.167809745e-21
8.264694777e-21
6.999163951e-21
1.159863542e-20
6.092437473e-21
1.370408926e-20
1.16915419e-21
1.098757081e-21
1.905224804e-20
2.518697731e-21
8.230066112e-21
1.047527379e-20
3.157248902e-21
1.847083464e-21
8.968934935e-22
1.034007917e-20
1.200919966e-21
9.630484225e-23
1.124014431e-21
1.10597129e-21
7.175352257e-22
2.17860422e-21
1.913014759e-21
1.6614978e-21
8.922805778e-21
7.976288682e-22
7.482698285e-21
3.277533583e-21
4.739795292e-22
2.662782701e-21
3.371071967e-22
2.616543919e-22
4.445160256e-21
1.841514806e-21
6.518982995e-21
2.524118853e-21
4.825403566e-21
5.740268405e-21
3.409153604e-22
2.633188955e-21
3.874640592e-21
9.103934803e-22
2.774118769e-21
3.61176419e-21
1.201220896e-21
4.479808415e-21
1.124480076e-21
5.144566426e-21
5.326467581e-22
4.450984036e-22
2.020946852e-21
5.293658776e-21
2.776229449e-21
5.554199679e-21
3.43302578e-21
7.817887638e-22
7.58665133e-24
1.315279352e-20
1.053774072e-21
2.174862448e-21
6.239317537e-21
5.902065817e-22
2.38777346e-21
5.979758089e-21
1.914751366e-21
4.208162496e-22
3.62393517e-21
2.67412388e-21
2.427358993e-21
1.343507984e-21
3.967220053e-21
7.527089336e-21
1.638096989e-20
1.157984372e-20
8.557832368e-22
1.775159763e-21
4.841378347e-22
8.427500689e-21
7.383944831e-21
1.13648141e-20
5.647037002e-22
3.453546023e-21
6.670988825e-21
9.467551645e-21
6.626247071e-22
7.867005238e-22
1.026826202e-20
1.39515873e-21
9.315980279e-22
6.117484885e-21
1.730960196e-21
1.613727016e-20
1.044551562e-21
1.044747654e-21
4.430472822e-21
4.201860164e-22
4.916837034e-21
6.270733306e-22
1.307748748e-20
2.517786389e-22
4.623590817e-21
8.951817598e-22
4.110565941e-22
1.971535256e-21
8.248680967e-22
2.27270084e-21
4.105784127e-21
1.733844948e-21
4.401791812e-21
7.497774408e-21
2.91131795e-21
8.227614556e-21
5.131922203e-22
1.917217262e-21
8.378843302e-22
1.444012929e-21
1.475367025e-21
1.024871755e-20
2.643375199e-21
2.142920261e-21
4.352656576e-21
7.460999939e-21
6.171756586e-22
8.06673941e-21
8.246884628e-21
1.130333837e-21
1.039726919e-21
5.328059198e-21
2.616985515e-21
3.940189355e-21
9.216759509e-22
2.588569883e-21
2.800340157e-21
4.562434755e-21
3.00353987e-21
9.385870786e-22
2.560587753e-21
1.266037458e-20
3.652255557e-21
1.984590134e-21
3.015733918e-21
5.70758701e-21
4.488541104e-21
1.527352663e-21
8.199866501e-21
1.682883921e-21
3.425000624e-21
1.180301097e-20
1.157309051e-21
7.195108099e-23
1.027710898e-21
5.194268031e-22
3.700488861e-21
7.748031432e-22
5.917560684e-21
6.481045104e-21
3.138560989e-23
6.072766303e-21
3.052537166e-21
1.172923377e-20
8.922592936e-21
7.179217371e-21
5.938773333e-21
2.880211415e-22
8.682490417e-22
1.365285179e-21
6.463951962e-21
2.188102249e-21
2.656912079e-21
4.061795349e-22
4.981913035e-21
4.24413493e-21
3.647178902e-21
9.150150304e-21
1.761540021e-22
8.658477183e-21
1.207560426e-21
3.674740447e-22
3.43940348e-23
2.054644565e-21
3.292696458e-21
5.59541941e-21
2.936661908e-21
3.170559632e-21
1.277560183e-22
2.792800619e-21
3.869672756e-21
9.462643458e-21
2.892944302e-21
5.133827366e-22
3.895260362e-21
2.521680336e-21
2.420470048e-21
5.333307277e-22
1.227881385e-22
6.624794189e-22
5.552211116e-21
2.08697586e-22
3.578854016e-21
1.154311278e-20
1.387391916e-21
4.947577522e-21
5.615530184e-21
5.223156922e-21
3.342907322e-21
7.556884498e-21
3.662682486e-22
2.00723306e-21
1.540499322e-21
6.399462713e-21
1.034511501e-20
4.48100817e-21