/*--------------------------------*- C++ -*----------------------------------*\
  =========                 |
  \\      /  F ield         | OpenFOAM: The Open Source CFD Toolbox
   \\    /   O peration     | Website:  https://openfoam.org
    \\  /    A nd           | Version:  7
     \\/     M anipulation  |
\*---------------------------------------------------------------------------*/
FoamFile
{
    version     2.0;
    format      ascii;
    class       labelField;
    location    "0.009/lagrangian/dsmc";
    object      origId;
}
// * * * * * * * * * * * * * * * * * * * * * * * * * * * * * * * * * * * * * //


6217
(
384842
385462
387542
385548
387296
386680
387134
450145
448939
386605
386330
386555
386914
383725
386503
387395
448583
385540
386124
386531
386758
387034
386516
386599
387518
387546
387700
388089
388323
385975
386038
450257
385888
386329
387095
387449
387470
387481
387705
387730
387906
388082
451687
385853
386840
387370
387805
386012
386757
386883
387222
387292
387525
387976
388228
388240
388266
388620
385810
387400
387814
387875
388333
388563
389591
451080
386295
452191
386860
387564
451184
387636
387707
387908
387929
388402
388691
388822
389625
451882
388313
449441
452478
45132
387188
387366
387532
387571
388079
388182
388187
388242
388325
451888
388504
389051
389418
451779
390499
452201
387168
451557
45143
452417
386440
386931
387113
387276
387379
387539
387824
387925
387936
388016
388260
388309
388320
388494
388751
392519
452398
452414
450564
387832
452102
388068
388143
388586
388696
388802
389106
389233
452601
388149
452299
386607
386694
386879
387215
387463
387577
387733
387785
387938
387973
387997
388193
388250
388332
388353
388386
388450
388673
390142
390314
390315
452071
386738
386768
387176
387269
387619
387664
388011
388241
388257
388277
388599
388602
388607
388709
388779
388833
388847
388854
388887
451880
390679
450039
451467
391818
392434
452915
386985
387307
387567
387582
387625
387661
387701
387889
387907
388021
388130
388435
388600
388608
388648
388693
388703
388707
388718
388862
388872
388986
389133
389239
389358
389621
451772
390500
392081
388930
386956
387355
387737
387739
388088
388090
388248
388267
388287
451182
388421
452099
388577
388594
388663
388788
388881
388933
388947
388960
388998
389023
389034
389077
389078
389132
450782
389693
452800
451358
385631
387549
387637
387717
387725
387920
388050
388161
388338
388375
388385
388455
388474
388521
388623
388688
388907
389018
389030
389031
389126
389384
389584
390053
452192
453017
388747
454244
393494
394013
394102
451081
452922
387931
387977
388008
388009
388177
388190
388265
388346
388453
388469
388510
388529
388613
388698
388721
388743
388761
388782
388787
388853
388880
388906
388935
389048
389136
389219
389319
389348
389353
389487
389639
390589
453418
451272
453522
393757
449494
387283
387412
387722
388056
388105
388170
388263
388282
388329
388330
388365
387343
388403
388430
388496
388508
388567
388578
388601
388622
388670
388680
388720
388839
388867
388944
388948
388951
389127
389222
389297
389336
389351
389390
389423
389436
389448
389456
389480
389601
389836
389971
390031
390048
453224
388501
391542
388229
451855
450268
453333
387356
387488
387734
387795
387900
387903
388063
388305
388334
388566
388666
388681
388690
388774
388809
388845
388934
388961
388991
389016
389057
389105
389145
389162
389204
389249
389306
389307
389312
389337
389343
389362
389555
389574
452420
389682
389701
389740
389772
389872
390010
390311
454149
391815
392082
392951
453433
454349
394541
451670
452511
387360
451996
387974
388252
388308
451997
388422
388468
388523
388543
388579
388679
388727
388769
388785
388811
388954
389032
389043
389054
389074
389110
389149
389209
389212
389223
389230
389310
389435
389565
389580
389636
389668
389698
389716
389743
389848
453025
390226
390673
453732
453214
393668
453107
450054
384314
387500
387648
388070
388269
388343
388355
388431
388436
388555
388564
388629
388706
388753
388759
388821
388837
388842
388889
388937
388940
388949
388972
388987
389121
389203
389205
389225
389226
389293
389314
452817
389370
389465
389494
452305
389579
389671
389741
389779
454152
389807
389960
390034
390116
390423
390631
391817
393309
452197
452698
453000
453524
389013
45247
388057
387642
388405
388532
388539
388541
388682
388692
388762
388767
388789
388829
388883
388894
388959
388982
388989
389049
389068
389071
389128
389165
389290
389296
389300
389321
389327
389331
389405
389431
389463
389488
389518
389554
389576
452304
389735
389826
389831
390275
390404
390405
452203
453227
391204
452811
389288
393043
393574
453324
394012
394101
453530
45259
451497
453004
387699
387702
454135
389991
386776
388280
388303
388322
452419
388423
388442
388636
388661
388671
388773
388776
388794
388871
388924
388946
389079
389101
389135
389245
389344
389357
389380
389386
389401
389419
453022
389512
389523
389594
389645
389649
389669
389686
389731
389775
389849
389912
389939
389973
389996
390026
390027
390170
390287
390310
390539
390637
390810
454153
392259
393125
393400
388580
454950
451574
387821
388404
388438
388506
388533
388676
388678
388694
388863
388866
388926
389027
389044
389052
389076
389115
389129
389134
389146
389164
389197
389202
389267
389316
389355
389455
389486
389505
389531
389561
389581
389694
453436
389723
389727
389750
389771
389823
389846
389900
389911
389934
389946
452510
390073
390078
390198
390202
390343
391543
454154
393308
452815
452390
386825
453521
388667
387721
388054
388083
388255
388290
388452
388550
388557
388806
388967
389041
389058
389070
389166
389169
389250
389255
389294
389404
389409
389422
389501
389513
389535
389664
389688
389730
389749
389756
389797
389866
453330
389965
389968
389998
390111
390115
390120
390124
390257
390284
390288
454045
390329
390446
390718
390728
388919
387261
391372
455267
452805
387692
453828
389982
389977
453334
392864
393307
393493
388745
394630
394717
394986
45280
45281
45283
445111
452809
388100
388115
388339
388467
388702
388834
388882
388902
389028
389069
389102
389120
389216
389217
389224
389303
389308
389367
389388
389416
389432
389439
389476
389498
389508
389571
389643
389674
389766
389827
389840
389844
389889
389917
389922
389933
389992
390037
390132
390151
390174
390177
390471
390569
393666
453112
394187
454455
449592
452579
386317
385833
387439
387817
387982
387998
388110
388259
388349
388371
388725
388765
388856
388869
389100
389114
389158
389220
389234
389241
389243
389251
389291
389309
389315
389322
389323
389334
389335
389354
389407
389474
389483
389495
389519
389602
389606
389642
389657
389677
389728
389787
389791
389861
389918
389948
390013
390179
390205
390207
390263
390381
390435
390580
390586
390592
390639
390813
391813
392515
454745
393667
452912
454150
454119
395246
390602
451267
387761
387816
387897
388254
388604
388621
388808
389053
389157
389200
389349
389379
389398
389481
389521
389526
389560
389562
389592
389599
389662
389673
389676
389680
389708
389736
390100
390200
390217
390228
390270
390282
390348
390377
390418
390472
390485
390563
390564
453108
390614
390642
391013
454459
454657
391541
452196
391988
390236
454853
393306
393754
453837
389193
394100
394359
455369
452185
454351
388518
388590
388612
388942
388952
388957
388983
389063
389206
389318
389333
389376
389414
389426
389427
389493
389499
389566
389653
389666
389710
389715
389774
389834
389845
389901
389954
389993
390006
390084
390086
390110
390127
390165
390192
390291
390309
390325
390362
390403
390417
390460
390530
390585
453525
391299
455173
391811
390863
455576
454850
392607
453514
393215
393492
454040
390064
45317
447467
453818
388289
388347
388516
388536
388606
388683
388799
388857
388939
389050
389148
389188
389229
389252
389261
389302
389400
389506
389559
389568
389577
389585
389593
389615
389650
389681
389687
389738
389761
389784
389812
389829
389841
389864
389956
389959
389192
390021
390040
390041
390052
390082
390117
390134
390154
390168
390195
390268
390339
390386
390456
390517
390567
390568
390619
390686
390835
390867
390868
390881
390885
390923
391011
391220
453640
391329
391387
454961
392173
392516
454644
393923
394629
455260
395507
447360
382817
452269
450841
453099
454139
453940
388075
388335
388356
388665
388797
388965
389257
389305
389330
389511
389658
389659
389667
389847
389885
389887
389906
389915
389932
390016
390020
390030
390074
390186
390190
390243
390283
390340
390373
390425
390442
390474
390479
390571
454658
390709
390729
390820
454249
391172
454133
455375
392865
455569
394892
395244
453518
395506
448865
388750
453206
455150
389285
454558
454967
387986
388096
388803
388879
453229
389022
389042
389137
389208
389237
389242
389304
389320
389371
389437
389469
389491
389548
389557
389595
389665
389732
389755
389813
389850
389891
389895
389940
390012
390014
390043
390075
390099
390114
390138
390150
390162
390169
390173
390199
390242
390269
390352
390360
390369
390390
390420
390447
390449
390458
390518
390535
390540
390558
390559
390566
390627
390653
390690
390715
390735
390323
390779
390799
390806
390908
390983
391252
391367
391369
454454
455890
391551
391810
392256
392257
392780
454652
453833
395245
45334
45335
448323
449717
450610
387901
451736
454439
454018
388875
389045
389046
389111
389244
389263
389391
389406
389458
389482
389496
389500
389597
389646
389647
389663
389734
389745
389763
389773
389819
389820
389825
389837
389892
389938
390018
390072
390083
390112
390164
390196
390237
390274
390276
390296
390353
390356
390358
390359
390379
390427
390434
390491
453428
390513
390516
390536
390544
390565
390572
390656
390658
390689
390801
390912
390955
391024
391113
391175
391181
391188
391368
391900
393211
455790
45344
449733
452993
453341
389035
389116
389141
389373
389413
389415
389477
389598
389683
389685
389690
389697
389754
389824
389828
389833
389902
389913
389923
389951
390000
390007
390024
390066
390088
390089
390092
390104
390106
390175
390209
390251
390290
390337
390345
390355
390368
390473
390490
390532
390534
390553
390632
390633
390657
390694
390717
390731
390736
390794
390817
390844
390880
390905
390911
390916
391019
391097
391174
391176
391179
391324
391455
391696
455066
392002
390067
455378
454955
393304
394010
454954
455156
395850
45360
45362
45363
45364
451869
453226
387622
389124
389143
389301
389420
389473
389478
389516
389705
389742
389747
389752
389778
389800
389815
389822
389830
389838
389907
389908
389984
389999
390028
390070
390103
390122
390159
390248
390264
390267
390272
390280
390324
390354
390357
390370
390475
390523
390538
390545
390554
390560
390612
390634
390646
390667
390704
390723
390743
390766
390818
390848
390877
390963
390984
391155
391268
391396
456402
391646
391688
391847
391875
393840
394538
394891
390235
395164
451171
45376
45377
390595
388610
450945
455263
389080
389194
389196
389424
389429
389443
389859
390015
390025
390097
390129
390136
390156
390163
390191
390219
390259
390361
390367
390402
390431
390443
390445
390551
390570
390583
390594
390618
390623
390655
390721
390764
390790
390795
454748
390882
390896
390968
390991
390994
390995
455685
391194
391328
391656
391898
392078
394009
394264
389131
394890
455673
455460
45382
450478
449920
451339
455168
452896
454650
450455
388956
388980
389214
389588
389679
389753
389764
389780
390022
390032
390069
390185
390266
390277
390278
390332
390341
390364
390398
390429
390444
390454
390461
390481
390512
390537
390555
390582
390600
390611
390705
390710
390716
390726
390740
390787
390802
390809
390833
390903
390914
391039
391049
391073
391075
391080
391083
391096
391158
391164
391232
391241
391516
391612
392254
393303
454746
390785
455056
455259
394357
457000
453507
454738
453746
456698
455153
45391
45392
447466
452508
388326
454941
388525
388758
388950
389410
389582
389600
389678
389852
389914
389926
389936
389955
389989
389990
389994
390008
453431
390091
390121
390184
390261
390301
390349
390384
390455
390467
390520
390524
390527
390562
390622
390651
390738
390812
390814
390827
390842
390851
390852
454963
390875
390890
390999
391047
391065
391086
391134
391274
391278
391279
391292
391377
391430
391489
391508
391766
389894
455782
392015
393572
393922
394536
390232
394985
395596
395939
396299
45402
45404
449893
443638
451373
451944
389014
453215
453638
390148
388497
390062
389654
389352
389583
389660
389748
389777
389814
389981
390004
390046
390071
390109
390152
390172
390187
390245
390292
390294
390331
390336
390365
390468
390522
390556
390601
390603
390635
390688
390758
455384
390791
390804
390893
390898
390921
390934
390950
391000
391001
391015
391118
391145
391156
391169
391171
391177
391183
391229
391251
391289
391364
391629
391651
390145
391952
455578
454845
455777
454756
454947
454545
453598
454340
455676
455272
387918
388528
388964
389227
389396
389434
389652
389675
389768
389925
389961
390042
390079
390128
390160
390180
390188
390214
390255
390279
390302
390334
390363
390394
390440
390463
390486
390547
390549
390628
390630
390712
390832
390884
390915
390930
390972
390989
390997
391012
391060
391062
391072
391077
391112
391147
391154
391211
391222
391234
391263
391282
391339
454449
391405
391470
391536
391555
391748
391887
455261
456183
393753
394535
454226
395243
453505
456187
395328
390692
454555
455070
396204
45417
45418
45419
45421
449628
451883
451589
451988
453830
388512
456386
389338
389503
390080
390087
390105
390107
390108
390201
390204
390335
390450
390546
390561
390575
390576
390605
390607
390613
390643
390644
390664
390733
390792
390822
390871
390883
390886
390909
390962
390974
390987
390993
391103
391104
391149
391190
391228
391233
391238
391253
391271
391408
391417
391442
391525
391575
391739
391792
391794
391833
392514
392692
455383
393752
454250
455271
394099
395413
454956
45425
45426
45427
450968
452507
452470
388401
453322
455476
457006
388710
388859
389281
389408
389818
389924
389937
389941
390146
390149
390158
390197
390254
390260
390273
454251
390347
390421
390426
390476
390493
390626
390648
390749
390879
390887
390888
390889
390922
390957
390992
391044
391046
391050
391066
391107
391139
391159
391162
391187
391227
391231
391300
391310
391311
391314
391414
391426
391487
391564
391577
391580
391583
391601
456710
392124
456585
456400
393665
455884
391716
394810
394811
395163
456587
395938
396203
45434
45435
444024
452483
387178
452768
390063
388687
455972
389393
389430
389935
390009
390076
390131
390182
390391
390433
390533
390550
390620
390621
390699
390730
390746
390751
390757
390805
390815
390829
390891
390964
390967
390970
390976
390980
391014
391018
391045
391076
391084
391109
391148
391153
391157
391173
391184
391213
391230
391237
391239
391246
391258
391285
391302
391334
391337
391347
391399
391407
391424
455174
391539
391604
391621
391627
391641
391675
391681
391732
391733
391746
391779
391860
391939
391942
392014
456497
392718
454230
455677
456188
394984
454735
395937
396119
391214
45442
45443
447842
449646
453195
453011
453720
456085
389896
389916
389921
389958
390038
390178
390239
390262
390350
390366
390382
390464
390552
390574
390629
390703
390720
390750
452081
390775
390798
390823
390854
390894
390904
390935
390958
391052
391057
391074
391085
391100
391132
391141
391178
391193
391248
391254
391309
391340
391416
391433
391440
391505
391509
391527
391553
391595
391607
391639
391645
391740
391742
391759
391776
391780
390776
391863
392026
392056
392069
392800
394532
455854
455055
395848
395936
396035
396648
45449
444895
450864
449705
452395
453015
452188
453600
453718
453327
389103
456678
390793
389760
390060
390171
390208
390451
390457
390459
390526
390548
390596
390700
390708
390714
390725
390727
390734
390744
390752
390756
390906
390920
390926
390949
390956
390985
391017
391082
391098
391126
391138
391140
391165
391180
391197
391287
391312
391318
391323
391326
391331
391335
391389
391390
391443
391476
391480
391495
391552
391590
391606
391671
391673
391678
391684
391775
391782
391795
391851
391909
391930
392142
392149
392246
392403
454044
394007
456185
454543
455887
456174
457299
455993
396472
45453
45454
45456
45457
445648
449317
447836
449885
450666
451484
388053
451553
452079
389009
453115
389893
455169
391042
455962
456997
389254
389835
390036
390194
390453
390515
390624
390778
390811
390819
390836
390849
390895
390900
390907
390996
391053
391067
391152
391160
391170
391189
391191
391264
391307
391321
391330
455175
391383
391397
391402
391404
391410
391467
391474
391510
391512
391519
391522
391565
391570
391587
391589
391617
391618
391660
391672
391741
391745
391758
391785
456590
391853
391870
391872
391895
391950
391954
392031
392072
392107
392172
392218
392225
392274
392314
392540
392691
456490
393490
455270
394005
394008
456702
394715
455762
395069
395593
456478
457813
456279
455579
456349
396907
45461
45462
45463
45465
452182
451555
453704
453922
454637
454949
390711
389368
453302
455881
389545
389983
457631
389986
387890
389389
389617
389700
390003
390101
390462
390470
390521
390557
390608
390724
390745
390782
390783
390837
390897
390901
390977
391210
391276
391304
391355
391361
391409
391418
391441
391451
391479
391491
391496
391524
391562
391574
391635
391643
391674
391680
391698
391726
391735
391784
391797
391803
391882
391897
391938
391972
392087
392114
392200
392204
392219
455787
392273
392299
392306
392368
392385
392475
392565
456086
394807
394809
456796
396817
45475
45476
450644
450544
452065
452481
453403
452593
386678
453993
450361
389040
388838
389201
389853
389997
390065
390327
390342
390375
390543
390706
390932
390954
390986
391007
391064
391070
391255
391257
391267
455991
391290
391352
391401
391438
391465
391466
391477
391507
391556
391644
391670
391686
391693
391704
391728
391743
391769
455889
391866
391922
391929
392010
392086
392125
392133
392136
392167
392208
392230
392272
392479
392529
392601
456906
392802
390777
457004
393209
455359
456164
457115
395504
456560
455475
396202
396559
45481
45482
449013
455636
455772
456679
388969
453636
390005
390019
390077
390166
390222
390256
390351
390436
390541
390617
390737
390789
390913
390969
390973
391056
391114
391275
391319
391322
391325
391419
391423
391492
391503
391506
391529
391533
391560
391576
391588
391695
391699
391722
391731
391734
391790
391802
391923
391932
391935
391956
392045
392047
392054
392060
456399
392135
392138
392139
392151
392156
392343
392363
392390
392399
392464
456911
392639
392807
456093
393488
393664
394440
395412
395503
391388
455381
45487
45488
45489
45491
45492
45494
45495
450749
452160
450262
452075
451768
453839
454112
389725
386023
454946
390437
456250
454557
453944
455163
388846
457114
390448
390480
390615
390649
390732
390747
390902
390924
390961
390965
390998
391168
391225
391247
391270
391303
391345
391378
391382
391406
391415
391434
391437
455065
391502
391528
391531
391568
391571
391611
391636
391637
391652
391655
391692
391727
391793
391864
391914
391918
391921
391949
391971
392076
392111
392117
392143
392191
392220
392285
392319
392382
392554
392588
392640
392742
456492
393048
456798
456182
394626
394627
454345
396390
457395
45505
45506
45507
45508
45509
45510
45513
450699
450107
448898
449941
450860
453385
388146
453316
455382
455172
391293
390428
454035
391585
391296
389564
390093
390176
390424
390584
390808
390918
390990
391023
391041
391081
391087
391151
391182
391242
391245
391250
391256
391259
391286
391327
391342
391400
391411
391429
391472
391626
391658
391662
391663
391668
391708
391767
391841
391856
391890
391936
391957
391961
392013
392019
392105
392109
392131
392140
392226
392236
392238
392247
392270
392279
392281
392288
392291
392313
392413
392465
392478
454844
392557
392644
392690
392868
392960
392615
390687
456493
455161
456579
457511
395759
395847
391468
457119
397166
45518
45519
45520
45521
45522
446198
448229
449604
450230
448548
452063
388585
452607
452791
453920
389107
385764
387131
388921
390482
390696
390719
390825
390838
390839
390843
390979
391192
391217
391315
391348
391353
391362
391481
391513
391517
391518
391592
391602
391613
391648
391665
391676
391689
391763
391765
391778
391852
391855
391953
391960
391976
392000
392004
392023
392043
392095
392188
392189
392209
392211
392224
392292
392307
392308
392311
392335
392402
392508
457121
392832
392845
392874
392949
457420
393022
393208
391376
457113
456077
458229
456989
456994
392269
397253
45528
45529
45530
449759
449196
387966
447215
452576
388583
385612
452905
453425
452833
455575
456083
388605
389765
390293
390697
390702
390797
390821
390971
390982
391068
391090
391261
391308
391446
391463
391493
391497
391584
391608
391622
456287
391706
391723
391754
391768
391781
391798
391843
391867
391877
391879
391894
391937
391943
392036
392121
392148
392203
392214
392221
392222
392245
392310
392315
392320
392328
392337
392351
392391
392394
392438
392463
392533
392549
392558
392672
392713
392728
392856
393123
455479
394006
456486
456794
394531
395411
456803
454931
454837
396389
456286
397345
456565
45535
45536
45538
45539
45540
45541
450236
450207
452172
450545
452904
451960
385950
454017
389218
453924
454252
388614
452712
457407
389462
389980
389428
389930
391059
391091
391136
391243
391295
391341
391395
391427
391471
391475
391494
391499
391514
391616
391669
391709
391761
391837
391848
391892
391947
391966
392011
392027
392039
392046
392049
392051
392052
392073
392202
392212
392213
392303
392318
392449
392461
392477
392481
392485
392494
392524
392534
392550
392566
392721
392733
392789
392880
392906
392923
393015
393158
393256
455264
393379
393565
391037
455980
394533
457308
395162
396295
456902
397252
45544
45545
45547
45548
45550
451556
451754
450159
453218
452497
450676
390610
455551
453019
455873
391559
453331
452292
390519
390528
390581
390899
390910
391055
391249
391346
391356
391412
391431
391462
391558
391573
391600
391657
391659
391737
391747
391757
391826
391846
391861
391869
391874
391908
391951
391968
391969
391973
391979
391997
392030
392044
392059
392092
392112
392113
392155
392207
392295
392296
392304
392336
392358
392412
392469
392564
392571
392580
392662
392737
392838
392858
392940
393139
393489
394438
395935
391461
391473
391917
45557
45558
45559
450504
449433
451376
450909
452856
450097
386478
452480
451676
452515
451581
452684
452455
387083
455146
389570
452806
454865
455266
454965
453916
455577
456395
390862
391911
457003
390514
451656
390181
390713
390803
390807
391105
391313
391393
391425
391591
391605
391649
391685
391697
391701
391749
391752
391865
391913
391934
391963
391964
391974
391981
391983
392022
392025
392037
392042
392067
392205
392240
392280
392284
392297
392322
392332
392334
392339
392424
392431
392468
392560
392642
392649
392661
392723
392746
392747
392750
392751
392778
392893
392926
393020
393023
393038
393362
393375
393703
456588
458535
397165
391829
397440
45568
45569
449257
449595
451134
450497
450872
450296
454444
452803
452300
454032
453435
454554
454144
455138
453608
454239
386748
390873
391218
391093
391142
391291
391511
391535
391603
391679
391849
391850
391912
391925
391941
391946
391967
391993
392005
392018
392021
392123
392127
392196
392227
392229
392287
392298
392331
392338
392356
392364
392366
392377
392388
392466
392548
392563
392569
392628
392641
392650
392676
392689
392788
392835
392839
392870
392931
392945
393085
393092
393129
393134
393171
393233
393282
393343
393352
394888
394981
395242
391719
395758
456566
395846
396032
456804
396815
457403
397343
397788
45570
443926
448330
450861
451167
452281
452700
453315
389038
452054
448444
454519
454333
453304
388850
453931
456070
454151
389726
390430
457619
389572
389544
390125
390189
391079
391385
391398
391421
391432
391572
391596
391654
391666
456290
391881
391883
391885
391896
391958
392016
392017
392061
392145
392152
392168
392217
392243
392373
392400
392486
392491
392495
392507
392532
392546
392547
392586
392589
392626
392663
392665
392717
392754
392755
392811
456905
392975
393019
393074
393096
393098
393165
393396
393640
394441
457521
395161
395327
457320
396200
392627
397076
392704
45573
45574
45575
45576
45577
45579
45580
45581
45582
449724
447118
451590
452745
453292
453728
389457
454023
452764
455465
455253
453713
454248
390465
390477
390796
391069
391071
391101
391413
391582
391609
391661
391738
391744
391756
391771
391787
392008
392024
392058
392068
392106
392115
392120
392129
392132
392206
392253
392294
392300
392317
392392
392457
392522
392545
392552
392570
392579
392636
392637
392654
392708
392725
392734
392744
392757
392774
392820
392892
392904
392909
392948
392978
392980
393100
393184
393185
393262
393284
393459
457925
393608
393661
393663
393684
393921
457005
394439
457921
396292
391485
457219
397342
397439
397884
45587
45588
45589
45590
45591
45592
446510
449167
448982
441793
450532
450422
451763
451641
454942
453739
457300
452891
456707
455044
386320
391036
391143
391221
391333
391350
391464
391486
391498
391579
391586
391690
391725
391773
391789
391919
391959
392033
392181
392201
392231
392289
392302
392330
392389
392396
392406
392455
392458
392489
392504
392537
392664
392697
392707
392726
457418
392827
392883
392885
392921
392937
392982
393025
393039
393160
393347
393348
393356
393547
456284
393872
395160
392536
395933
457316
397164
458549
397529
45598
45599
449088
451388
449136
452495
450770
452082
453066
452101
452901
452506
388058
453882
451889
453533
453144
389286
455778
453629
386461
455683
455671
451675
454456
390609
391061
391166
391265
391751
391834
391838
391845
391945
391962
392003
392006
392050
392097
392130
392187
392195
392223
392233
392235
392290
392365
392371
392386
392395
392417
457226
392452
392472
392473
392483
392490
392544
392556
392605
392658
392659
392671
392739
392790
392805
392814
392819
392824
392830
392887
392912
392925
392928
392935
456401
393047
393087
393149
393202
393204
393255
393259
393330
393434
393446
393478
393550
458347
393587
393601
393646
393685
393735
393813
393845
393961
458651
391828
394185
394354
457718
395932
396293
457214
393223
391219
458537
398305
45600
45601
45602
45603
451441
450661
450684
453242
450601
451251
453209
453408
453835
454325
454966
453287
387538
455482
451879
453532
450870
390966
389189
451787
390098
390531
391106
391185
391297
391594
391599
391625
391664
391736
391753
391762
391999
392090
392091
392098
392147
392169
392170
457009
392216
456910
392275
392352
392376
392383
392467
392492
392505
392541
392559
392562
392575
392595
392635
392643
392669
392677
392678
392699
392710
392722
392727
392815
392816
392836
392901
392917
392996
393067
393111
393142
393168
393170
393175
393196
393247
393249
393319
393353
393367
393397
393423
393519
458451
393609
393629
393958
394204
394209
394887
458019
396813
397251
456580
45606
45607
45608
45609
45610
45611
45612
45613
446824
451266
448954
450816
451563
452769
451886
448557
452257
453526
453782
453192
453710
454341
454029
390250
453740
454806
454142
456780
389563
389897
389024
390155
392616
392182
391926
391994
390826
390840
391167
391504
391532
391563
391774
391868
391927
392040
392144
392193
392198
392239
392241
392301
392359
392374
392387
392450
392460
392471
392480
392543
392625
392683
392732
392748
392796
392806
392840
392849
392850
392875
392881
392889
392894
392895
392905
392993
393007
393016
393026
393027
393037
393072
458136
393128
393203
393205
393269
393275
393344
393390
457117
393411
393485
457635
393522
393585
393838
393875
394098
458338
395410
395501
456080
396388
396814
458428
45618
45619
45620
45621
444774
449899
450955
451268
450293
451321
451922
452714
451873
453703
452252
452073
453808
452189
452363
453109
389017
453336
454445
454010
454245
452525
455987
456483
456479
390529
387784
456180
457632
451163
454140
389394
457109
390333
390869
391163
391422
391526
391764
391844
391873
392100
392215
392228
392234
392397
392409
392411
392430
392448
392454
392459
392551
392620
392715
392720
392768
392793
392804
392822
392823
392837
392891
392899
392920
392968
392998
393065
393082
393086
393091
393094
393127
393133
393144
393188
393230
393427
393462
393480
393506
393524
393651
393741
393785
393920
393968
393983
393993
457204
458547
458641
396028
392959
458436
457497
397528
455867
45625
45626
45627
442026
449693
446300
386111
450615
453032
387426
452248
451659
452773
451680
388066
452906
454116
454202
389810
390338
453620
452872
453840
391054
387022
389289
452287
455314
392700
453018
387991
388350
390238
391004
391092
391137
391186
391358
391772
391835
391857
391955
392041
392119
392153
392333
392372
392384
392393
392408
392462
392476
392482
392561
392576
392587
392618
392623
392668
392674
392706
392784
392799
392831
392833
392843
392939
392981
392997
392999
393004
393008
393049
393056
393073
393079
393102
393150
393186
393235
393264
393265
393288
393337
393361
393393
393437
393445
393526
393630
458551
393803
393827
457719
393971
394034
394083
394183
394297
394355
394466
458234
458642
396557
397074
397250
457515
458342
457730
457636
397786
397883
398480
398574
45631
45632
45633
45634
45635
45637
449208
449375
439544
449451
445167
448961
449928
450304
450840
450333
451718
451764
452967
451400
449869
451232
452504
452058
451984
452485
452184
452962
452964
453082
449944
452412
453210
451125
455368
455634
455340
453635
456572
387455
454241
393161
455571
390640
390933
391380
391578
391628
391683
391760
391839
391884
391933
391975
392159
392199
392278
392283
392369
392398
392401
392474
392531
392535
392577
392578
392583
392621
392670
392702
392736
392743
392752
392758
392769
392792
392809
392813
392825
392829
392834
392882
392907
392919
392932
392965
392976
392987
457318
393063
393097
393112
393174
393199
393258
393271
393317
393391
393424
393439
393447
393469
393496
393530
393531
393536
393648
393659
393693
393700
393708
393715
393721
393729
458344
393947
457629
458133
458543
396033
396198
396812
397612
457414
45643
45644
45645
45646
45647
45648
45649
45650
45651
45652
45653
45654
45655
447005
447447
450258
447756
450845
445073
451967
447348
452882
453614
453832
454318
455659
454553
454215
386910
388848
390707
457389
389198
456487
389809
392108
458863
391161
391305
391650
391691
391700
391799
391876
392085
392137
392286
392375
392581
392592
392629
392630
392687
392724
392760