/*--------------------------------*- C++ -*----------------------------------*\
  =========                 |
  \\      /  F ield         | OpenFOAM: The Open Source CFD Toolbox
   \\    /   O peration     | Website:  https://openfoam.org
    \\  /    A nd           | Version:  7
     \\/     M anipulation  |
\*---------------------------------------------------------------------------*/
FoamFile
{
    version     2.0;
    format      ascii;
    class       vectorField;
    location    "0.009/lagrangian/dsmc";
    object      U;
}
// * * * * * * * * * * * * * * * * * * * * * * * * * * * * * * * * * * * * * //


6217
(
(908.6782657 900.9587341 -80.1295221)
(589.3712854 793.9045539 176.2701215)
(1528.85122 -629.6594222 508.0502271)
(1457.022962 678.0851336 -32.1417695)
(886.7403172 -252.2455475 -628.630674)
(1864.353363 194.9506491 -714.7967468)
(1059.077458 -179.0321415 266.1776322)
(1662.952161 231.3373726 -260.7716953)
(783.7964789 722.5892088 182.6588036)
(756.4070068 -264.2571148 36.60747068)
(1199.953231 -653.5077054 -97.30989018)
(1844.741993 1856.192987 -307.9617323)
(1116.177215 1248.067175 -1190.653976)
(1465.263971 434.3537742 -133.6400794)
(2238.870634 209.3846497 183.6920651)
(1695.53139 389.7743296 -176.5666938)
(920.838145 -304.2794212 -462.3018289)
(1299.046095 -3.002064282 -28.84993153)
(1620.46291 99.80614111 -34.95350871)
(1287.377801 -7.134168442 -41.7273588)
(944.0953413 1088.81717 343.2613821)
(1657.175794 -356.0003829 168.8978086)
(1102.288099 932.1869268 964.0090928)
(1089.357655 -360.9518409 -145.5743261)
(1584.410395 369.3327667 169.4865286)
(868.6798902 349.8129784 -477.9043828)
(816.4879287 571.6417003 304.8340598)
(977.7083375 96.24807467 -646.5782142)
(1770.360398 588.210362 235.5486524)
(920.6367913 -275.5483859 175.5371018)
(1577.186093 285.8916775 -393.4284506)
(1966.751637 -56.94452073 -524.1337427)
(2007.723815 120.3022247 236.947726)
(1393.882559 -580.5293831 260.8542351)
(1155.026071 884.4338859 395.5242749)
(1390.921011 48.25279748 -359.1958102)
(1524.089185 213.6277165 141.1222265)
(1617.766391 418.8263117 385.443293)
(992.0076303 -54.30588542 -186.9399107)
(954.0633997 1180.786329 -263.8769301)
(1583.362633 -294.3514169 -232.6756407)
(1257.515999 279.2635769 -197.5688628)
(882.8212545 -118.9355614 -317.7349099)
(1745.919341 331.2307327 -354.1556999)
(1433.541826 275.2404239 -633.0835012)
(2180.968133 1.067963527 766.7454298)
(1137.714212 398.0530449 -134.6853372)
(1527.97377 221.7004598 46.40940558)
(1329.588398 205.8143815 -96.84613011)
(1697.027637 125.030608 -122.2963405)
(1615.401709 819.3792602 -139.9131558)
(1467.977059 -139.6800341 -230.0002083)
(1953.016959 927.614686 675.3490454)
(928.5872246 683.6224523 141.5255837)
(1127.638128 48.87002392 -508.5171093)
(1571.790187 777.8698206 404.3858059)
(1276.668835 173.6834452 -270.6011974)
(249.6345855 680.5712025 22.91269785)
(1420.627549 73.26440841 -285.5782272)
(1122.743632 61.10265931 -346.5084355)
(1657.648277 220.3839452 70.49678288)
(1939.041185 199.3192441 17.72607272)
(1428.993665 1160.750734 31.89836647)
(1644.991842 568.644754 -161.510515)
(748.3856632 -158.4224819 -286.8322721)
(1384.614988 482.3861458 128.8260453)
(1009.839739 625.5312573 -506.3424531)
(1143.312838 545.1163225 -383.0304319)
(1203.678966 376.9440065 -103.6558649)
(1442.480833 -152.6459175 -267.6710132)
(1305.322682 286.4442634 4.052714717)
(1728.127346 -368.5341142 662.6027349)
(1189.768023 657.4809588 259.610003)
(1604.893847 -646.4711049 49.53065195)
(1761.085718 264.1926524 789.3220855)
(1773.807294 468.540007 -57.43337245)
(1140.076051 1506.000821 354.2111323)
(1630.723305 -370.4441399 123.1040783)
(2032.082437 0.9814632798 -15.41644964)
(1416.399312 237.1447422 714.1467304)
(1586.002464 261.7955247 -346.6348327)
(1402.92432 -633.0431954 -562.4725771)
(1899.688463 315.5468759 5.377286597)
(809.6837312 -307.5491549 -192.1807168)
(981.2223667 276.9327368 -293.0650646)
(1520.603618 822.4877591 -77.63362551)
(835.6799861 902.3482712 -38.10993072)
(1415.615862 209.5150128 -581.0147313)
(1512.457107 -324.0156183 -215.3762579)
(1442.710894 242.1516729 143.4498916)
(1390.806375 559.9921231 -317.9740383)
(1656.038973 121.4781605 369.6929023)
(651.3412981 89.01685841 -508.0340528)
(752.9271054 258.4089462 -849.9968922)
(863.3076045 -67.5087479 54.93641556)
(1012.331646 331.7990464 -48.93572208)
(1456.719424 -276.2699558 120.2310804)
(1256.412438 360.0075051 195.3364757)
(1365.351539 214.9643563 542.2689194)
(1530.124509 285.7957731 479.7234192)
(1221.585655 975.5508439 625.9690326)
(1683.430734 1017.416867 -644.0617841)
(1413.305295 914.2527784 1121.24815)
(1788.285182 1071.964448 -183.7404389)
(789.4659124 -8.524003955 101.1871545)
(1307.402157 -110.084244 -52.92418532)
(1606.45525 595.3900695 -88.02027661)
(1084.634346 539.7940813 322.3051788)
(2065.556084 208.1303477 -145.1775893)
(1089.837363 -102.9823766 326.8015058)
(1691.421843 -340.9241314 -230.8424757)
(1759.756002 62.06730835 226.2836794)
(1550.827863 347.9526154 130.2374428)
(1537.637946 466.9866396 -313.549049)
(1533.033601 -116.5367812 -556.0041735)
(1388.479657 -505.5413326 -229.7002103)
(1169.089683 848.0689314 -396.3851855)
(1382.448346 105.9555124 528.3195785)
(614.175952 655.8515514 -710.5118805)
(1693.391139 -357.943442 304.9687326)
(1332.301874 -186.8851143 -686.7240143)
(1741.889148 -637.1343961 936.7601336)
(190.0211747 447.5650355 -501.9227412)
(1665.139481 -198.6181008 -878.5018931)
(1934.213206 325.5676812 2.702548215)
(1836.825766 216.2290998 249.311126)
(684.7499486 478.0419879 -114.15943)
(471.1353587 411.3827065 243.2217513)
(1591.969622 133.0789884 108.9939196)
(875.1364572 337.813939 -703.4498882)
(966.9781924 207.368708 499.5057218)
(1689.88278 593.158394 -507.0677708)
(662.5424308 20.55659287 -738.8524769)
(793.8315249 261.7314296 -152.8898203)
(1110.339818 86.23485279 -145.7458831)
(1437.2668 -410.7950405 -107.5403522)
(1554.825347 883.6293644 730.4517016)
(1879.867363 362.1296821 342.380729)
(1646.609913 -25.60805253 -94.52817194)
(2003.879254 426.2055962 142.0843328)
(1218.351567 -357.6643657 -418.8803303)
(1428.273071 204.5285575 -259.2719575)
(1355.323471 456.6047228 681.3147207)
(1632.200778 -19.598352 -510.884561)
(1608.797303 466.6793087 322.0885404)
(1189.687361 206.5527476 -20.42516355)
(1905.820519 250.222199 600.7540814)
(1511.981079 611.6363136 9.575325789)
(266.8686419 381.0136355 -88.61162149)
(809.475157 264.347991 292.9008997)
(2423.528925 254.6837591 -209.2965454)
(1945.021584 -64.19126871 287.7501944)
(1108.264919 314.1602225 355.2024247)
(1962.534585 95.88126026 -703.8106335)
(1129.295665 72.22638717 -392.3730385)
(1503.729649 -468.4493179 67.46405269)
(1540.439499 369.5074769 -852.8548645)
(1540.954265 209.2420915 -32.71703733)
(1800.681997 201.1336022 -328.8895282)
(1453.188637 497.4215919 -559.1713984)
(589.5257594 114.6183434 -64.11207597)
(1559.140185 100.2896122 -260.5656679)
(1367.776947 -274.3306253 180.4139643)
(934.0667244 21.76024052 -506.5720879)
(760.3765899 340.9790171 154.0903213)
(1372.142715 -102.2322789 -95.44797777)
(1441.596787 -110.2243097 -226.71383)
(957.1649848 232.6495641 -281.0887949)
(977.3118591 160.1930134 -130.7018182)
(1499.696285 -35.45029244 367.5285967)
(1414.484923 -674.4748674 10.26542662)
(955.6662065 459.7903043 -905.8936915)
(154.2945489 694.3542712 -557.5767096)
(1034.409887 211.7707508 249.1479516)
(1036.277518 1030.38918 864.4971392)
(1905.724057 285.9368415 -165.8199925)
(794.4124283 1347.424414 620.5656338)
(1967.368428 -11.33181657 220.8358826)
(2137.067316 -351.0049052 1.277057738)
(2610.993872 129.5860599 125.0331412)
(1274.006281 -392.0007668 205.8219491)
(1713.750171 193.1804457 53.97040833)
(1603.114969 489.2167204 8.00462241)
(1104.049542 -1.324563248 -278.4778272)
(1317.48921 92.79665657 -2.950631872)
(1179.099109 862.2061773 -537.4445111)
(1801.044033 156.2390285 -346.435437)
(1725.753375 199.3359778 13.78418394)
(1821.194317 500.572196 79.11373088)
(1201.489993 320.0623468 488.2574432)
(1435.361313 -309.7576812 245.7783235)
(1362.011248 -637.0308519 -330.2858782)
(1357.824605 681.3392957 -26.26368738)
(1458.294417 -232.2058571 -16.45779358)
(1344.743785 763.2900041 -749.0507662)
(969.2786632 424.2343393 29.93286364)
(1187.973133 411.9426609 129.3726037)
(1957.906727 34.3828093 -175.6171886)
(1582.474504 -309.1429007 135.3290528)
(1533.82995 21.09113822 468.8697424)
(1284.327951 -218.5385054 346.6274311)
(1095.570768 -263.130842 -450.7314099)
(1317.458937 288.0923636 -72.04534165)
(1093.957263 -623.4063454 -196.9797823)
(1474.74935 240.2766017 -279.8962758)
(1962.669744 -166.1926196 212.4230089)
(1333.139191 446.8611237 139.7756191)
(1676.161447 -116.2986433 -0.2624077397)
(1367.685182 -37.99100634 145.7639146)
(881.6644791 629.0470313 -44.36609245)
(1909.705008 180.1891709 -76.40077204)
(147.6649112 555.1213003 279.6426484)
(1543.695858 104.288005 122.9702262)
(1405.105929 -6.604044029 204.0284482)
(1668.387757 -193.6514676 -351.7413762)
(586.6682372 361.5056618 -81.29149214)
(2228.67588 311.2685059 -106.9403354)
(1513.190478 620.3736391 474.1081085)
(1511.461156 17.50311276 -556.4800966)
(1719.393417 397.2189452 79.06556132)
(854.8322787 741.2940966 520.5143913)
(1552.481403 8.291744187 -77.84370563)
(953.2017254 757.4943865 529.8977706)
(1413.650073 316.34445 -5.684931874)
(1267.338989 -324.9023054 464.6761329)
(1551.045416 775.1037429 -556.9066516)
(2222.793719 590.2383382 -111.9541024)
(1629.224113 -167.256257 373.654757)
(1032.09388 307.2514804 350.8645544)
(2110.321704 275.3342802 533.8540487)
(1394.229899 -61.9734411 -544.0842214)
(1662.589239 671.6364013 227.1823551)
(1736.291649 -159.2617001 192.0197594)
(1568.089302 -85.82326663 -251.2962643)
(745.9734973 343.8255986 349.2777833)
(1259.264967 202.1749226 -372.3470817)
(1688.775672 -449.5546898 135.7036354)
(1625.029146 -43.17823624 -23.44101427)
(888.0101589 505.0332976 278.9116169)
(1497.771341 218.2850437 171.8958684)
(1616.893485 232.9097642 794.0271199)
(1138.199783 137.5326131 -285.4575487)
(1761.464934 301.0602811 262.864971)
(1443.552691 188.0529239 -158.6714271)
(710.034125 -430.7278353 -31.51701701)
(1254.861389 740.5088701 715.8069357)
(1925.599414 34.42856892 -607.5899667)
(1193.040653 255.375019 -613.5393172)
(1554.399707 -308.9460069 367.9497511)
(1515.938531 677.9765474 -219.5636894)
(1447.012567 1305.548675 -61.10507999)
(1503.642488 363.2894855 155.6936681)
(2006.044263 203.6026955 -229.2026665)
(1253.476437 90.7181227 281.0090351)
(1340.896221 989.2535635 406.1529215)
(1490.690876 183.4978552 492.9717954)
(1760.470256 -565.6906193 150.1156826)
(1094.090169 95.92201093 302.0742176)
(888.0475103 154.2050195 -192.2881447)
(1558.589341 121.6385611 60.28413142)
(1464.403374 527.4399382 -593.4986185)
(1512.733968 646.7464856 -492.4152705)
(1134.865881 832.5331996 -175.9924933)
(2089.890792 643.2648233 -58.3204007)
(898.6470993 1407.377604 -495.4591413)
(2352.517945 553.7829804 -756.9688429)
(1489.180583 123.2434224 -176.6667028)
(1496.368445 -112.4920079 206.9861262)
(1336.112699 698.779444 51.74830769)
(1017.777334 179.730485 -48.428988)
(1370.600201 944.9561669 -733.2530748)
(1673.642649 -22.65705065 -522.6607351)
(1526.920414 186.6372605 -1.669790157)
(1774.438296 148.1738146 190.8456038)
(937.406849 -16.99587905 411.6072393)
(1758.51308 195.8160465 -389.5506664)
(913.6329529 450.7050866 -167.0856999)
(1638.631658 501.9690879 58.09514041)
(2375.050686 9.269632023 -136.2998384)
(1722.301653 -362.1640615 -105.1533846)
(1279.259995 -471.6027856 209.1664031)
(1444.03429 142.8448689 40.422823)
(1868.366328 113.7090457 -262.8913405)
(922.7455994 119.8955186 -178.0517639)
(1877.730319 -15.3588695 165.0997375)
(1230.071873 -290.4100622 -615.0402258)
(1542.968462 171.5009272 -37.65232418)
(1484.51983 463.7443565 232.4935449)
(1303.303325 89.72683074 -37.56876719)
(1129.124058 -172.9166518 -129.1559398)
(1610.488082 330.7309304 256.367659)
(1765.809251 68.53318865 1088.143127)
(1500.913417 136.787912 -431.9701253)
(1792.379943 337.7611116 896.6337177)
(1319.623181 -277.9228643 -275.0547728)
(1539.390463 496.1855714 113.8575288)
(1318.574327 -123.4015329 139.5859847)
(1757.275986 -279.5482401 124.6399536)
(2048.106533 230.0125977 57.87275019)
(1237.559001 523.2732092 -46.66207481)
(1783.867348 560.7683417 -384.5240811)
(1607.19518 412.3392008 -666.62169)
(1412.559038 -617.8607177 24.66882736)
(1859.632566 113.3426407 -789.8820834)
(1230.573738 1299.102037 404.1397473)
(1184.64386 69.2254377 103.4149556)
(1914.859617 49.63727877 -203.3583419)
(699.1868277 -197.6725987 470.5056421)
(1459.969624 794.1733944 1083.210003)
(1329.868592 937.3944515 -260.1042505)
(1544.986212 -225.5008405 -697.5470195)
(420.6475343 990.4061311 -337.5405466)
(1159.237087 408.2543498 -202.4882793)
(1925.013984 3.82211256 73.69412164)
(1908.314538 -362.817083 30.67588587)
(1706.158473 374.0572169 254.3365156)
(293.3770643 385.0726917 21.80009893)
(1647.578206 77.23179148 -255.277168)
(704.4845245 155.6881415 -190.7735356)
(1896.517253 261.7041607 -189.9221092)
(1514.334538 -191.0064535 0.2988311285)
(1511.87231 715.8835351 469.2343661)
(1754.627961 148.479489 458.4919235)
(1416.344046 204.9110452 349.0302107)
(1297.131533 1376.67081 954.9628467)
(1477.494148 368.1665957 162.3182882)
(2470.604803 -342.0530818 -911.3427982)
(1672.498727 150.1349089 159.4633645)
(1084.943128 340.803932 228.5247151)
(1639.384899 43.4922848 49.66478112)
(1077.361425 119.0187781 -31.07923782)
(1444.530711 668.9543788 865.7821813)
(1535.679544 235.3706927 292.1715501)
(1660.988949 -400.9991009 188.0008104)
(838.1053431 -112.1514602 288.4620035)
(1049.761509 414.8789346 -655.2312019)
(1180.937044 -238.1938679 -467.3215122)
(1735.496978 115.4343191 12.65467845)
(1795.622014 476.9947784 -66.77879078)
(1293.749696 250.4274693 88.06493883)
(855.985459 148.6977842 -548.966816)
(1585.710838 372.2563865 -2.525912305)
(1260.633665 400.5341493 64.82955026)
(1903.087203 -589.6242601 -81.54970297)
(1337.74072 -60.41586931 -315.1454737)
(966.9844784 112.8915373 -86.30146969)
(767.9993815 545.6921576 -531.859536)
(1971.450647 -80.51740703 298.9617285)
(1474.614829 467.9946908 -10.34502846)
(1449.121444 -188.4185009 167.8278257)
(852.71971 -106.6935097 289.6676701)
(1484.804124 -93.81632395 45.07563193)
(1982.658523 68.51553902 -192.3243312)
(1916.324907 -44.13708 483.3477261)
(1777.272041 316.5180853 365.8938827)
(1986.958355 -217.5509839 139.340624)
(1441.719643 7.350250109 254.41741)
(650.7374873 1095.252722 -254.529476)
(1952.499539 67.34436332 -143.0870338)
(2097.893568 -794.1748102 58.91147933)
(693.8048976 790.3140753 339.9525462)
(2182.997515 -371.7068301 -169.7370048)
(323.8628843 1136.082382 -400.0486318)
(1848.639394 -307.4229948 351.9888295)
(1702.589685 214.043437 -349.4151365)
(2004.84033 -228.2727773 -44.58173431)
(1118.131962 268.8746609 70.51217038)
(2038.262657 251.4246114 -927.8601933)
(1340.828795 1291.402664 206.6496601)
(1350.727537 384.116397 -19.00784409)
(2057.815391 382.9232777 158.3319292)
(1381.322489 -146.6069374 -4.970248995)
(1684.353688 516.5617301 24.32581951)
(1382.603068 74.27373772 -28.55667304)
(1874.10405 -162.9892238 192.4993419)
(1848.238931 106.3963234 -393.3550734)
(2145.106269 -349.1615844 -318.987015)
(833.6871678 1136.198821 -189.0148523)
(1398.154432 68.56813629 416.1215815)
(1092.800322 714.7224147 69.05392009)
(1477.411867 124.6820189 291.1324452)
(1815.044249 76.37537714 -457.3534815)
(1852.778542 117.238813 -246.5219896)
(1723.16493 551.4488042 81.75513601)
(1576.530428 68.14282629 299.4689922)
(1100.86959 251.6903532 465.1952237)
(1821.264304 -242.2354231 -144.7026263)
(1682.314232 -392.0601409 -273.4302866)
(1650.107056 177.3284353 -125.4776364)
(1362.879275 120.3213203 -218.5129101)
(1762.344334 652.4512382 -462.4234385)
(1829.296958 10.06725017 -426.859179)
(1515.483175 65.79392727 243.1501441)
(1678.741289 -275.7076816 384.3516009)
(1575.954333 -169.2181267 -288.636707)
(1423.953152 198.269596 345.2705699)
(1670.449157 383.8024086 465.0170351)
(1396.910057 16.18855978 -77.95119025)
(1758.725102 556.0463721 -364.181223)
(1375.905927 -150.0766317 133.7585033)
(1798.750061 3.616263288 -318.1546914)
(1175.858519 701.8100348 -1170.025185)
(1836.441773 60.87921635 -274.4365974)
(1602.524865 208.222902 124.0198201)
(1306.374125 384.5861472 150.6295678)
(950.1900555 -178.0689655 -59.13662491)
(1536.54051 306.909116 -9.638500715)
(1839.247512 117.316661 -629.0879725)
(2027.610495 85.75778041 -255.097837)
(1681.987534 -137.8127199 459.9279513)
(683.9553321 617.9924012 -263.471333)
(1751.031873 -155.6115237 -660.2166072)
(1466.531705 -159.7519795 -920.3079981)
(1607.893115 660.7213374 -464.2795578)
(2256.425518 373.8949599 523.7844144)
(1149.934895 428.5679651 182.3313832)
(1760.053118 873.7850547 -1075.059157)
(1313.924692 65.91474994 227.3158942)
(1297.022848 300.2084916 14.33030715)
(1130.483445 -142.7035285 -238.0771209)
(1945.556597 173.6604011 -30.26095419)
(1429.021413 269.5961419 774.178856)
(1840.871655 13.71024287 -213.2483116)
(2058.19174 230.8834985 259.4018635)
(1726.125422 592.279343 404.9464948)
(1035.652224 1257.104957 345.0308958)
(1722.424368 219.3344187 -205.1832297)
(1734.243448 -131.3463045 230.4211293)
(1776.793864 223.5791708 534.200505)
(1561.095479 97.61179381 117.39032)
(2332.941403 -240.9752576 -205.9564406)
(1404.37905 -175.4212541 -180.8955052)
(1563.461273 433.035113 156.7702342)
(1899.710984 916.917996 -224.9280151)
(696.1322481 -352.8539226 816.6742798)
(839.8670691 -117.7086985 378.8079575)
(2098.739345 259.2036529 204.8546302)
(1986.277914 1129.822912 469.8929411)
(1329.479074 -0.6159020158 660.3639231)
(835.4547453 771.7646391 23.20406067)
(1533.110648 -584.1795585 -131.8142832)
(1814.853133 -100.7228026 -65.92209537)
(1317.233232 383.1397367 -374.8153594)
(1395.885726 201.5587346 -377.5680168)
(1696.327553 745.7044835 422.8307515)
(1818.154438 480.5414846 -108.7806565)
(1516.215227 143.3112937 414.3428835)
(1656.688576 87.89635339 -36.09903147)
(1370.085115 47.21701448 122.6530987)
(1631.074847 298.3443774 -16.34640381)
(1043.582986 -247.1528707 67.98186118)
(2109.989286 556.0546002 782.786733)
(1313.475818 163.0500449 463.0925408)
(2009.827501 -237.9960614 -207.3372268)
(1951.701351 -130.6688453 -286.4207126)
(1438.071521 296.3039307 -520.5720011)
(464.5412826 558.5112552 662.5105583)
(1020.889929 -51.07305847 -358.224425)
(1583.706368 -66.62225717 135.353396)
(950.0313989 -289.7402466 163.2874763)
(918.9666556 278.9473906 55.31514429)
(1533.236808 -309.5845069 -45.53547383)
(1694.035354 -46.70465899 -7.468291503)
(1597.197481 623.7455757 530.3424944)
(1371.166127 -337.2324414 504.0773114)
(1477.611494 99.96387291 -200.5283189)
(1098.041735 137.1989321 124.0522683)
(1293.207021 113.8264537 206.100451)
(1751.695629 269.5003403 -121.3753532)
(1486.505095 95.87270001 39.03189873)
(994.5092197 677.1210539 -373.1189007)
(1916.574088 1291.993598 1.575413706)
(1983.666717 807.4575976 51.7425232)
(1537.396376 545.5085551 -134.6500176)
(2054.550291 207.1020022 -191.5227195)
(1561.516949 -173.8958647 12.39029592)
(1534.794599 553.244308 138.34805)
(1454.279321 1052.171839 -464.5507889)
(1745.40912 82.120328 -358.2518395)
(452.7338835 969.4414038 254.6622274)
(1644.745703 -582.3134573 124.5190809)
(1584.045177 304.5121713 -106.3815473)
(1256.044355 139.404473 -76.72939311)
(1572.00099 -299.4786308 303.9539822)
(1869.874273 117.2861398 695.0928174)
(2321.458014 1627.38885 23.73139931)
(1845.04104 144.0612124 366.6877378)
(1442.225777 134.7753119 62.08335832)
(1114.013883 -682.0529713 339.778264)
(1598.75858 35.52555271 443.2493719)
(1093.645234 812.5233447 -89.06428672)
(1519.341524 421.6868699 -35.29094568)
(1839.398918 527.1952215 -535.2164209)
(1958.006406 -69.06944855 -224.9423252)
(1831.276945 221.2215078 -95.42905428)
(1349.196252 -203.8213655 -96.03605316)
(1499.004374 852.8211255 -191.2089413)
(1495.451692 459.395996 8.730521197)
(1685.987951 -4.803682007 -189.1422629)
(1450.346636 -608.5431207 -13.23680747)
(847.7665038 211.7379275 -208.2874899)
(1436.191748 464.9984308 474.5487595)
(1405.576388 -328.4889392 -386.6537268)
(1360.593361 333.5502652 268.1647708)
(1048.480628 204.6798466 -912.3821568)
(1865.341177 143.2848289 450.1028613)
(1714.739775 -106.2884833 76.87867773)
(1647.36824 148.9944462 25.43058579)
(1524.868516 -143.0947976 205.4620324)
(913.1495282 673.8921521 -504.4984121)
(959.475462 894.7519859 298.3441188)
(1180.761802 463.5762775 501.4939279)
(1873.030684 -61.46886443 -106.3337087)
(2038.846076 477.0809517 -340.6471742)
(2164.664481 63.57939824 -63.2071892)
(1130.125938 72.83608317 243.946647)
(1732.328928 71.81725781 -87.20794539)
(1265.700237 106.2952506 -911.2687019)
(1594.259747 1829.831409 -722.0486344)
(1687.901916 179.0719679 -265.5269912)
(1829.53839 481.4971297 -13.60698554)
(1284.492079 132.6908707 -25.35396905)
(1470.246651 7.251206363 -270.0924252)
(1511.614427 320.0480902 -287.4948056)
(1540.710048 -450.785207 452.3538852)
(1945.092734 -231.758036 432.0133865)
(1691.605514 109.7947123 639.7593763)
(1759.328754 358.1432298 360.7626712)
(1704.78661 -129.4073551 429.9301348)
(1826.150121 -316.6144316 -392.240164)
(1480.099999 -148.5647109 65.71713462)
(1623.696589 334.8137752 602.9526197)
(1429.309283 30.29854973 252.1495092)
(1859.462986 -393.1798455 277.3076643)
(1920.585972 161.7729818 418.5175879)
(1602.418426 226.0864655 -387.9402634)
(1613.000553 -429.8941491 -485.8329324)
(1413.157137 472.689465 -190.1270006)
(1638.478092 275.4482543 530.7755005)
(2014.14713 173.0499297 -705.3837085)
(1193.526751 -243.2266987 -408.2826259)
(1312.895581 -105.3429942 -53.80934827)
(2106.941501 -248.1140051 302.608557)
(1880.651602 149.3542598 -270.5492689)
(1508.04858 -129.1627524 206.3453867)
(1544.067744 469.1972582 307.6130311)
(864.8490975 753.6522967 -467.708859)
(1667.850582 54.44212919 162.7517282)
(1584.989427 -278.6472208 389.2854211)
(1841.305404 1140.487038 98.83987634)
(1523.507849 -540.7989054 -174.7664123)
(1633.082521 -266.6722073 352.256358)
(2019.399106 723.3094121 -743.3752601)
(1494.248575 109.9068337 254.2000924)
(1812.649557 150.921933 -146.2290199)
(1533.533678 -21.36112432 -245.1779404)
(1193.972607 75.75233957 -10.99818602)
(2017.927932 -97.7326969 -100.9008455)
(1865.737828 279.4684089 312.2886973)
(1537.502 -293.9505004 -341.6814547)
(1245.770957 640.3300244 -210.2429537)
(1502.577133 127.7319836 497.0979104)
(1900.646554 -188.4949747 49.46165279)
(1869.317765 -150.2800289 435.8065827)
(1613.650797 853.0028044 -237.487701)
(1685.929826 289.9941669 23.134954)
(952.2030371 -250.3331042 154.9969692)
(1209.978218 232.748277 -165.0176853)
(1301.582591 300.8205682 170.3309698)
(1919.238158 -149.0265795 -861.8055396)
(1322.340575 1021.609762 -970.5518086)
(990.5206889 143.8784759 -108.0844249)
(1544.400154 202.8488917 -131.3618809)
(1403.212793 -195.5969578 -602.6096476)
(1016.357147 154.1161458 480.4179781)
(1585.823513 243.1021083 362.9360129)
(1550.212485 27.13056044 -109.5464219)
(1908.08306 -537.1919316 124.446659)
(1399.426223 450.8337314 531.3244952)
(1660.067986 -240.0340938 58.28687156)
(1247.213223 224.1303434 308.1369893)
(1694.561617 278.4633003 -288.0030835)
(2327.77499 355.453039 425.7008504)
(1676.229666 43.11360844 -244.4286276)
(2125.459857 628.2709642 -421.3181465)
(1513.980344 722.7065962 636.1812426)
(1645.478855 169.4580701 30.2754169)
(2019.654771 230.7719496 -199.2602542)
(1838.477623 248.5456572 -43.15859066)
(1599.587118 198.491435 21.76295918)
(1694.876039 -133.7948882 704.5311887)
(1714.299072 110.8708431 -97.16631987)
(1451.27243 659.6238475 298.5293088)
(2097.385586 -47.32711851 424.5932433)
(1679.65088 8.24344911 40.2453797)
(1684.643664 101.7463427 -60.9761821)
(1966.674692 258.214024 -214.2203678)
(1688.948361 -61.91274716 121.6675159)
(1821.437252 307.6135406 157.2637318)
(1430.688155 328.1805753 -2.388658338)
(1605.542537 535.638352 242.2981377)
(2088.148512 657.9222427 -47.86748216)
(1745.406092 -298.6776246 -177.5450035)
(1887.75299 -195.5652313 118.4394475)
(1434.635773 -430.3315327 151.9930031)
(1615.878938 165.8385701 -1103.223709)
(1987.151275 289.3938714 -198.0000033)
(1692.174623 -186.0410176 -238.5717108)
(1584.091294 239.0587878 -38.16233313)
(975.6177836 100.8088394 -177.2404241)
(1726.338611 -349.021914 242.2649536)
(1735.458019 40.60548811 -107.6157201)
(2146.898126 67.86468103 213.4283932)
(1810.44165 -491.4365077 206.788888)
(1473.534752 295.0302106 -473.9788637)
(1982.707413 550.7117728 -457.6368052)
(1637.158288 -296.6372491 103.4456904)
(2195.728367 289.7106481 -285.6048043)
(1662.566162 -116.4912944 -8.689951525)
(1629.889598 161.1139353 395.4522511)
(1676.273494 -184.5515407 -201.5073772)
(1495.090171 787.5075812 644.4188903)
(1647.407025 -130.7233497 -53.17407963)
(925.6850321 740.2364001 841.0830323)
(1365.612167 -317.9600718 -60.62674955)
(1912.533962 16.02772408 -130.7465662)
(1323.303607 -81.67379638 -100.9630101)
(1258.921862 -562.7724918 -117.5470695)
(1421.173072 694.2406605 -54.91987922)
(1733.167318 -266.4399935 253.4748964)
(1392.18298 533.663297 467.3327314)
(1991.296595 -336.0297863 578.3935714)
(1301.386885 644.9006193 -58.97450029)
(1580.977133 -640.8045428 -460.392768)
(1354.774915 1.398261217 -277.7768719)
(1578.673591 -69.91379225 529.5972807)
(1625.827763 -135.5450782 30.66361842)
(1049.71744 935.5657871 -239.4918077)
(1788.981569 -90.84335442 -167.6026897)
(1375.019842 151.6119513 126.488852)
(2327.622344 3.209920204 -475.2996226)
(928.78099 57.68892247 266.5562096)
(1864.438893 -234.1360883 -150.6398658)
(1264.784365 425.3540078 118.2451745)
(1754.001462 -3.862873225 -54.69263186)
(1631.454924 -61.64306163 -120.8994002)
(1959.680869 175.7142076 118.6958627)
(1644.136573 -372.3363052 -190.8415594)
(1628.555088 324.4266773 -248.1382213)
(2033.3261 -158.8459275 -227.9363371)
(1583.05001 243.8665763 -50.84526956)
(1620.815416 -416.9566663 -223.4051154)
(2085.915993 276.4276284 -502.4493435)
(1688.040506 265.680251 -355.1295726)
(1826.566475 -524.3469704 -36.62093484)
(1518.934825 -189.5244843 57.64325834)
(1860.896521 515.8198557 916.4261641)
(1558.534534 386.9752126 33.00848319)
(1059.321347 2.028074769 509.0369186)
(1995.91601 131.3861706 358.4738623)
(1757.618762 659.2656405 -18.25954747)
(1924.710982 -466.8982036 -77.25500656)
(1667.552656 -93.25926211 -196.3360198)
(770.0660208 554.2958843 -453.0112729)
(1202.792107 681.4292913 818.4248982)
(1877.073711 117.4038161 -582.98274)
(1142.734551 1014.609973 -333.9236792)
(1645.093744 280.5514008 457.3011546)
(1398.930779 63.29911967 208.7020284)
(1676.739127 192.2203184 313.9616127)
(1023.067773 -91.98570211 350.7039975)
(1193.095811 187.9990033 -661.2717837)
(1439.355817 -158.0318865 -214.9586677)
(1659.423962 -183.9078559 -373.120994)
(1406.270847 -562.0499027 -259.0060511)
(1844.105763 -537.6451079 -417.9533391)
(1670.007601 -163.0854197 -250.4732092)
(1656.096935 -37.64044358 -152.2484142)
(2125.248342 -111.5548248 -64.24468312)
(2001.928451 469.9395623 46.42230737)
(1723.428218 900.0420564 -747.1794946)
(1679.43245 1181.882727 51.55971571)
(1486.582176 -140.9086768 -626.4925794)
(989.5028496 329.2572517 268.5738413)
(1542.160729 -170.5295292 -8.102006272)
(1337.903674 52.39240533 78.48529094)
(1533.543698 1033.152117 -221.9491253)
(2008.131829 831.9022225 212.1396038)
(1990.514283 13.06714266 -392.0366606)
(2083.101022 -194.5307824 125.1493981)
(1504.967425 -144.7859336 424.6584347)
(1812.379414 73.87627858 220.0539283)
(2026.638991 -117.372567 -596.3452899)
(1414.107934 215.8365927 -59.23710605)
(1828.547415 -433.1820283 626.478058)
(1315.538141 272.9115443 -190.6375193)
(2042.369057 472.6159765 -16.4693226)
(2173.912686 206.7259744 592.9513297)
(1999.377393 245.7647626 -41.61295955)
(860.0771406 249.269571 38.30721454)
(1532.394553 -107.9910769 420.6341402)
(2068.28721 -293.2759819 -406.9780799)
(1970.399843 132.943158 -111.0595797)
(1869.488072 96.82137932 402.5682968)
(1221.567378 84.73352981 -390.5993268)
(652.6023799 504.614068 -219.758072)
(1636.714229 -194.2427971 236.9990388)
(1634.938756 273.0845315 -218.4212908)
(1289.980724 7.115667694 -530.4736581)
(839.2391953 -28.3755115 -189.357831)
(2208.199213 115.063606 -94.00877366)
(1245.630227 32.85096065 251.7312192)
(1637.428744 592.0479345 -71.3536091)
(1044.233884 276.5473233 -405.3307478)
(1203.878226 487.385575 -239.5109172)
(1532.151894 625.1005221 -214.6179202)
(1216.61741 343.9986366 38.16929206)
(934.1436699 670.8717532 -373.1161137)
(1636.797136 9.601063372 -386.1073433)
(1422.758645 -243.5972687 -256.1247604)
(1515.233837 103.0575857 352.7268067)
(1345.530155 279.5587699 -414.3767947)
(1686.226777 -197.8234646 -5.366956059)
(1784.486214 -52.70425567 232.4832705)
(1771.266344 -179.9933536 36.80072409)
(1635.615932 606.7959255 354.0524555)
(1816.553625 -4.037229691 -216.319123)
(1834.63609 183.6674611 83.18591856)
(1706.101856 255.4347995 647.3025002)
(1312.08347 4.473391185 98.99011885)
(899.7268738 488.2016365 808.9992825)
(1936.436265 1214.532096 -36.28488507)
(1869.740253 261.5582874 -129.2178136)
(1829.101061 -197.1429215 -388.5472409)
(1615.200286 86.95401056 328.7547968)
(1323.470052 1195.579686 -163.1362678)
(2152.195183 253.9580876 -305.5314339)
(1582.862583 -367.2474843 -120.055902)
(1601.050121 -119.3556085 -443.69179)
(626.0909005 817.5168541 582.2912063)
(1535.690951 92.4829163 -108.4671433)
(1172.57455 -481.5814783 251.0991411)
(1043.928047 674.9770437 -961.7276363)
(1853.828739 707.6378731 -54.41742305)
(1919.666173 642.6263393 -73.82256687)
(1609.37998 -86.53328589 219.5519807)
(1569.537284 -981.712588 -63.48739643)
(1808.263599 114.3927036 -207.2656633)
(1007.581374 -189.0620758 370.373939)
(1360.516932 -502.9460603 -169.6244755)
(2088.196664 11.35061189 687.5312238)
(1224.887178 161.2168323 -199.3236269)
(1951.388775 -110.5740041 -73.7271405)
(1928.915879 -270.2693487 -131.457885)
(1385.395429 -534.353642 -389.3858756)
(1427.63475 36.28710762 85.76697305)
(1068.056633 -396.5649792 -415.8550286)
(1279.868552 227.8838091 -236.5850615)
(1757.308588 516.7515721 181.5224671)
(1629.86416 288.3262559 -338.4350829)
(2026.17424 -226.1394554 53.37462643)
(1286.734304 53.14480931 -138.5728917)