/*--------------------------------*- C++ -*----------------------------------*\
  =========                 |
  \\      /  F ield         | OpenFOAM: The Open Source CFD Toolbox
   \\    /   O peration     | Website:  https://openfoam.org
    \\  /    A nd           | Version:  7
     \\/     M anipulation  |
\*---------------------------------------------------------------------------*/
FoamFile
{
    version     2.0;
    format      ascii;
    class       labelField;
    location    "0.007/lagrangian/dsmc";
    object      origId;
}
// * * * * * * * * * * * * * * * * * * * * * * * * * * * * * * * * * * * * * //


4978
(
18880
13848
13965
25292
31127
31457
32616
14068
33346
19393
29194
35058
35808
36363
36707
36761
33809
7825
33584
37486
37651
37763
17682
7909
37885
38227
37121
38495
38539
29013
38622
24516
38987
39105
39124
39147
39221
38493
10884
26072
39403
1948
39575
39597
6704
35472
39940
40003
36750
40025
13935
32632
14918
34968
40276
40298
19797
40382
40473
40505
40559
40741
36881
26071
40991
41105
22542
25773
41429
41432
41441
41539
32421
15526
9169
6950
37021
28893
41769
41929
30826
41961
41976
42012
42037
42098
36873
42124
36742
9970
42337
42359
42363
32309
42417
17603
42456
15056
38552
42565
10743
42644
42648
8275
32129
42739
13588
42884
9950
32742
42995
42996
21603
8598
5999
34794
43176
43218
43280
9237
37009
38151
43434
43438
36041
43457
33978
43484
24704
31966
43511
43083
43650
43659
20147
43717
40024
26460
33103
43850
5837
43910
43914
43972
43973
43998
31502
3848
38671
42228
44159
36365
44171
20230
44202
43111
44219
44223
40679
9965
21815
23574
38895
44484
44508
44518
33898
22190
44629
39546
44665
44693
44737
44740
37358
44741
44748
44754
44772
44776
44783
40727
25204
44849
44888
44006
44909
44922
22624
44969
45016
45021
35362
45048
45069
45078
45097
45100
45123
44955
45170
7092
45206
35454
45222
34893
45266
45267
45292
13242
45308
33402
45316
38535
45346
45369
45389
43727
45448
39750
45074
45488
45515
45530
45539
30711
36935
37562
45569
45595
45600
36680
13405
17337
45319
45633
38247
13721
29586
20418
45682
45703
7827
45073
45766
45777
45799
35475
30024
45808
29420
45824
36810
41586
39481
43893
45830
45832
22364
8843
45864
45866
44467
45894
45906
45920
45927
45934
45941
45952
45959
41792
45975
45992
45999
46007
46014
46030
46067
38890
46076
46082
41391
46093
46103
46117
46146
46147
42388
46168
44541
46185
46226
46227
46230
46235
46267
46276
24008
46306
10424
5181
46318
6016
21851
44423
27442
46409
46443
10235
21936
42597
23173
19964
20877
46488
43229
36968
46518
20860
38042
46527
46546
46556
7479
46587
46593
46607
46611
39678
46647
46679
39474
46689
41995
46717
7715
46723
12475
46744
46751
46325
46759
28887
30319
31051
46773
46774
18347
41008
46813
46820
42830
26190
46852
46883
35398
11368
21236
39207
44239
39126
20777
46952
46954
13700
46960
46969
21476
46987
38383
47040
47045
21302
35865
37938
11792
22388
47118
6829
40046
43251
8425
29493
14223
47273
47299
39175
42404
47312
36506
35615
30434
34231
10826
38808
47398
9093
47413
25288
43467
19387
47456
30605
10094
47503
47505
47517
47519
8774
47529
47530
47540
47542
47139
47265
47545
47551
47585
47595
40050
45978
6626
33386
47631
47641
47656
47659
42401
47668
6488
40323
47684
47693
47696
35786
47711
19278
44274
41755
40914
32748
47750
47752
41709
34267
42658
16367
45688
47768
47781
47795
47805
9993
761
37793
45744
32729
47881
6101
26773
11307
43054
36302
46567
47917
47918
47926
36321
38788
47955
18055
902
47980
43862
31405
6193
48007
36899
48029
48034
43497
18304
45544
35001
48067
15966
39401
8241
48103
48114
32947
48117
39389
48137
48145
39970
40684
48155
48156
48158
41921
26379
48167
48173
40629
6433
30544
48185
48186
48194
48207
48210
48212
48213
47025
7636
48235
34086
48258
48264
27716
41659
25157
48269
13181
5729
47929
11383
48176
48319
22231
10534
48346
39475
11110
48370
48374
48375
37388
39412
48388
40514
25709
43019
18477
39288
36716
38479
48437
48439
47003
23113
48468
48476
48480
48483
48493
48506
43150
11584
24996
48521
48023
48539
30078
26971
44488
48543
48546
48551
48553
28999
39754
48559
48560
48562
48579
48584
14089
36944
48414
48596
31778
47046
7317
48631
48634
48646
48655
42720
48657
19280
31686
48683
31836
43746
40775
48707
35414
48719
46670
48736
8220
48743
48745
43624
10675
34124
9301
22638
7061
48776
48794
26648
48805
48808
31289
40880
48831
30688
25112
48846
47932
48857
48869
18977
42870
32741
48877
48878
48882
48883
35659
34961
28970
38936
43732
35798
42102
48921
48925
40180
48947
34828
48955
48960
48963
38611
34576
35117
48116
48965
48971
39815
29694
48979
5842
21701
36909
15739
43757
49029
49031
39007
9503
49048
26042
37332
9453
49082
49069
49077
40333
49086
20882
47249
49121
49140
36382
45792
49159
41156
28620
35698
48548
49167
49171
31571
49194
49003
45479
49218
49221
49227
49236
49237
9177
44152
44258
49246
49248
7130
43369
49265
49275
32189
31067
49280
49287
49293
34299
12321
49059
49302
49304
22314
49314
49320
10429
42211
49335
49341
38286
49360
49364
49366
49367
49384
49385
36836
27047
47097
47647
49398
41533
49399
49420
9640
31907
46845
49425
49433
42076
49439
45429
11855
33886
49457
12233
30661
18235
49464
49468
49470
49473
42231
20868
7686
36246
49493
34689
49503
36778
48253
49526
49532
49533
42361
43713
32585
38340
40083
49568
49570
16250
25582
15060
49592
22622
49604
26617
13059
31177
44248
44212
7246
47723
48415
27565
49622
49189
49638
49639
49643
49647
49650
49665
49667
46954
49673
33779
49680
40977
49698
49700
44352
49714
41691
40603
20047
39180
49734
27048
42693
39642
28697
43029
49738
49744
49754
45021
49760
49764
42889
8479
49371
42791
49793
49802
49806
36895
7914
46866
49814
40690
49828
49835
49837
25763
40876
43730
49845
49848
49852
49854
6659
49871
49876
49877
49883
28960
9298
49896
38106
44636
49903
38292
49909
33894
49920
34891
41084
36879
49928
49932
49942
49947
12876
49797
49965
34736
49984
49989
49992
40397
42383
42151
50010
50014
50015
50017
43960
28342
50027
50031
16626
26758
50033
50034
36565
50053
50058
50059
50071
50072
7395
42431
48198
49433
39614
38723
39098
13977
49191
37376
5725
50090
28241
38071
12183
48433
50104
40088
6292
42819
8856
17656
35982
41422
45381
46379
6559
41358
50151
50153
50154
37294
11711
50166
45780
40058
50185
50187
43353
40255
50196
50197
46551
23286
50209
50210
44380
34615
47967
50216
50223
50224
50228
30369
50230
50234
50242
50243
50244
30791
40003
47784
50258
18282
40261
45564
37046
50275
50277
36699
50304
50306
50310
44392
46143
40375
50328
50329
50330
33173
45506
22981
47990
50337
50342
50343
39918
41627
42257
50052
23031
12102
6643
50354
24390
11270
48918
50371
34834
30125
21919
50378
36930
37652
7962
29319
50400
50408
50409
42984
50415
50423
50428
30470
40263
44985
18512
22128
50433
50437
50441
50446
37571
50459
19959
50470
42471
29217
33715
22795
50479
50480
50489
50491
50492
50498
50500
50503
50505
50508
50510
50513
46423
8391
49337
50520
35255
36413
49742
50523
50536
37488
50553
50554
50555
50563
50564
50565
39461
8317
32966
46441
50573
29895
43369
50584
33686
39068
10326
44231
25118
38113
50597
11432
38066
40863
11303
50607
50613
42915
5940
44564
50618
50619
50625
50632
50633
28786
33604
50634
50637
50645
9535
37999
50650
50653
50655
50658
50659
41306
23268
42343
8349
50662
50673
50674
50680
11153
18548
50689
50690
50691
50692
50693
10830
50702
50703
50708
29980
39670
50714
50720
50722
50726
50728
50734
50737
50743
23993
45453
16742
26485
31099
50139
50768
50769
40831
50781
50785
33400
42860
8571
38325
50789
50790
50796
19199
40742
50803
50804
50808
50809
50815
44172
42030
41517
50068
44682
50826
50833
50838
50841
50844
50848
50856
45208
44941
50866
50869
43284
44415
50885
50899
50902
50904
50906
42254
50919
12687
46122
50936
50937
40792
43128
42316
50944
50949
50952
38144
45638
44131
50970
36116
31310
19424
50977
50986
50988
50989
13609
50994
51010
37600
51020
51023
38259
32166
32438
51031
51034
51038
46015
34891
45694
37771
49895
51051
51052
45055
41626
42387
51063
51071
45166
10326
51082
51087
51089
51091
40237
46507
51094
51099
51101
51102
51103
45039
36480
41765
40574
43751
12184
51129
51132
51133
51134
44984
10272
49301
37874
37315
16922
51140
51146
51148
42193
32126
38355
51166
51167
51168
51169
51172
51179
51185
51187
5364
29632
51191
51196
51206
21758
51209
51216
51217
51218
51220
39286
25985
43263
51233
42294
12578
19024
51240
51244
51246
41448
41925
51248
51251
51252
51253
27822
32071
51258
51261
51262
51265
19697
44842
46332
51273
51277
51280
51281
42441
42616
28002
46620
51296
25237
42048
51310
51311
51313
36252
40159
11753
51322
51330
51337
51340
51341
51343
51354
51368
51369
51370
14606
42612
39571
21057
13815
51379
51383
22136
48215
51385
51388
51390
51392
51396
39406
41552
24866
25318
51402
51406
51407
51409
51420
51421
6147
51422
51426
51431
44438
49025
51440
42423
5694
45084
45945
46810
51449
51450
51459
51461
51462
51463
51467
51470
51478
51484
51486
31882
18253
32775
43841
32536
23660
33917
49586
51492
42995
44970
41209
22840
9399
51503
51504
46468
51507
51509
51517
51518
51519
46311
22271
46351
48390
48920
49613
51526
51534
51535
39880
27675
39074
47363
39612
30376
30264
50470
46543
51550
51553
51557
51558
51559
51561
51564
28215
51576
51578
51583
51585
51589
15123
38952
45514
49906
51597
51602
51603
51605
45336
46407
47378
32823
44570
50265
51626
6794
41788
28440
10364
7843
49034
30365
51635
51638
51643
51646
34832
50835
34974
36842
51657
51660
51664
39486
27484
41755
9897
21294
51501
51673
51674
51676
51677
41891
46348
6663
45708
51681
9818
51686
51692
51697
51701
44275
48385
46612
51713
51714
41733
20661
43904
43101
51733
51735
51736
51737
34112
20864
31643
31419
51740
51742
51749
51752
51757
297
45482
28646
38996
50334
51760
51763
51764
51766
51768
51772
51774
45176
33114
39685
51779
51781
33489
34090
51787
51789
51792
43189
36027
51797
51805
51806
51812
33377
49690
51819
51828
51830
51831
51838
23316
51854
43234
29709
38884
7747
27706
40635
51857
51861
6381
42714
29235
28011
17158
42446
46261
21608
51875
51880
48874
43884
13492
46113
32943
51359
51893
51896
51900
51902
51904
51907
51908
35101
14608
44249
51912
51914
51915
51920
32941
7722
46728
51922
51927
17365
51934
51941
51945
45468
41181
45512
45927
49699
39235
51952
51954
51959
51962
51963
39515
9565
47255
51969
51970
46758
47486
51977
51978
39945
46487
39761
51987
51988
51991
51992
51993
51996
44758
41388
52000
52004
52005
52007
52008
52011
52012
52016
52018
52019
43067
27731
45473
46686
37561
28969
52038
52040
52045
52050
52052
52055
52056
52059
52060
42982
42174
5033
43644
52072
52073
52075
52076
52081
52082
48292
37400
45392
34776
52107
47366
41195
51892
50215
52112
52119
30418
52130
52135
38243
50059
52140
52142
52146
52147
52154
52156
489
11851
18025
52161
31590
35077
49314
52167
52170
43084
29436
25129
46942
47085
46671
51542
45526
42164
52076
52179
52183
45436
45637
49728
22251
52199
52202
52204
52206
17900
51234
51236
52207
52211
52213
39464
13754
47158
49006
47771
31239
52214
52215
52216
52218
14846
49097
44436
52227
52228
52236
52237
52239
11779
39633
44013
51282
52252
52253
52254
52257
52259
52261
52262
10170
46178
48296
30336
46694
36984
52265
52266
11447
40564
51579
52278
52284
41544
36590
42737
47520
52289
52290
52295
52296
52298
52299
35990
47269
12829
19475
18722
52320
52321
52324
44198
46558
46955
44369
45210
14365
51479
52328
52331
46211
52346
39247
44827
25861
46696
52351
52356
52358
33660
26943
46890
46602
52361
52365
52367
39530
40811
50933
12121
52378
52382
52383
52394
23934
26662
43371
41781
52402
14680
43974
45474
50526
34902
52408
52409
52410
52412
52413
45811
47131
46825
25729
51266
52414
52417
27723
51877
52428
52429
52430
52434
52438
52439
42219
20736
52449
52453
52461
29692
36937
42317
25125
40852
52467
52468
52476
45088
46157
29319
45342
45683
52487
52488
52489
52492
52495
52497
36517
25216
24172
43838
13004
52507
52512
52517
52518
52520
52523
16829
35913
44606
37969
52528
25621
46107
44501
42029
47221
52532
52535
52541
52546
52549
37277
46510
32960
52562
52563
52566
52567
52568
52569
52570
46253
29390
46782
52574
52579
52581
52582
52584
35289
38000
45786
51115
52589
52590
37657
30663
40084
49156
40889
52594
52595
52602
52603
38739
29273
28736
52607
52614
52621
52625
33802
52629
52631
52633
52637
42719
40593
42419
47992
41506
46910
41943
36477
52647
52650
52651
52654
18509
46232
35929
48387
10002
52659
52660
52661
52663
52677
43765
44409
27303
27983
52680
52681
52684
52687
52688
52689
52690
52691
52692
52694
52695
52696
41708
44497
10633
34669
47032
11976
40936
6549
47116
52700
52701
41327
45772
52647
52704
52707
52709
52710
52712
49096
49453
52716
52719
52722
52725
52726
20329
49439
51323
42018
52739
52744
52746
52749
52750
52753
52756
32623
44694
39128
52757
52758
52769
35320
32934
40178
33729
52770
52774
52775
16873
36245
52245
47791
52781
52782
52783
52784
43026
52786
52787
52788
52792
52796
52797
52798
52799
24939
44988
40515
51373
27012
52808
52809
52810
52812
52814
52820
23803
38932
14607
37463
48778
52830
52832
52833
52834
35537
25295
8483
42490
34946
45850
48722
52838
52846
52851
37309
36165
7580
40833
47302
11547
34064
43055
52856
52859
52862
38227
43945
52868
52874
7923
40190
42625
23986
46118
39024
41012
33924
6941
20978
52876
52878
52885
52886
27228
45362
31513
52888
52890
52893
52894
52896
52898
52902
52903
49207
45114
37238
47341
52912
52913
52914
39195
9334
47206
48687
52527
49807
52931
52936
15712
28119
45180
23159
28709
44970
52937
52938
52940
52945
52946
52947
45309
47083
35487
29632
52648
52951
52952
52957
40526
43675
45360
47384
37845
9345
45845
52961
52962
52964
52970
52971
52972
37207
19436
47545
27754
23399
37671
42344
52980
52986
52988
52990
52993
52994
41060
6757
38597
49163
8121
53000
53001
53002
53003
53010
53011
53012
44095
43665
31298
21222
48318
36387
26291
29374
53018
33997
10262
34581
53022
53025
53027
53028
53032
53033
53037
53040
53048
53051
53052
53056
53057
41682
34644
24977
19221
53065
53066
53067
43550
48471
24280
46944
5477
10334
41014
46209
31482
53079
53084
53085
53086
53087
38634
36257
30539
30985
43247
37783
53093
53094
53096
53098
53099
53101
53102
53103
44119
17809
50146
53111
53113
53114
53116
53118
53119
40300
23601
46803
53123
53126
53127
53130
40857
38082
16768
46827
36979
50386
53136
53139
53142
53143
53144
53145
41715
24677
42656
6023
7023
25128
53149
53151
53153
53154
53155
53158
53159
53161
53164
53166
32829
43255
49443
53170
53171
53172
53177
53182
31369
42919
8456
51607
40884
52075
53186
53190
53191
53192
53194
50016
48606
53197
53198
53199
53204
7092
30440
47976
23379
36652
53209
53211
53213
53215
40182
42988
810
46280
27099
53221
53222
53225
53232
50752
28671
53241
53244
53245
53247
53250
53252
40431
41019
22076
47317
12564
16287
51313
52483
53255
53257
53261
53262
35972
44289
49753
37742
49386
53267
53270
53272
53277
53278
53282
34483
51209
53290
53293
53295
53296
44218
38121
31979
47187
51275
51879
53301
53304
53306
53308
51873
16004
11190
53310
35102
41670
9980
48315
1457
34733
47323
37924
53318
53319
53323
53326
53328
45839
8695
41788
50219
42210
19724
28984
40377
18697
53331
53335
53336
53338
53340
53341
53342
53343
53344
53348
53349
53350
53351
51633
50112
52462
48310
29272
9849
53354
53358
53359
53360
53361
53362
46851
43073
5983
47993
45520
53368
53372
53375
53376
53377
11409
39440
53383
53387
27627
7907
46412
44181
50731
51678
53389
53393
53394
53398
53401
53402
53404
53405
53406
53409
49737
50101
41321
42683
34618
53411
53414
53418
53423
53426
29716
45112
31089
41727
35500
42426
53428
53430
53432
53435
47605
17659
34690
40485
53441
53443
53444
53445
53446
53447
53448
24120
49352
51444
50348
42520
9647
53455
53456
53458
53460
53461
53463
53464
53465
53466
53467
53468
53469
40146
23952
48110
41387
13623
40065
53470
53471
53472
53473
53474
53475
53477
53478
53480
53482
53483
53484
53485
53488
45322
35657
47311
53490
53492
53493
53494
53495
40037
18280
43701
36500
18339
47111
50695
46642
11915
53503
53505
53507
53508
53510
42630
47796
48055
32480
53518
53521
53522
53527
53530
27217
23293
38339
53532
53533
53536
53542
53543
53545
44442
10554
53548
53553
37502
34486
43888
51404
47460
26513
29324
53555
53561
33274
7349
20903
40319
30206
45867
16106
50216
42018
53563
53570
53571
53572
36938
34071
45502
44378
53579
53582
53584
53585
53588
53590
53591
53592
28734
52288
53596
53597
53598
53599
53605
53607
53608
53611
53615
32319
40712
39622
47543
47603
53434
53618
53620
53621
53624
53627
46405
50887
46759
49756
42807
53629
53632
53633
53636
53638
53640
53641
20416
49810
8656
15420
53646
53649
53650
53651
11810
47808
43580
48145
18811
53658
53659
53664
53666
53668
53671
41143
48124
48575
46320
53672
53673
53675
53678
53684
53686
37915
40239
12616
46807
12656
51673
53688
53691
53694
53697
42032
29746
45297
50235
47724
5368
53703
53710
53714
53716
44172
45922
34603
49596
38860
52768
53599
53724
53725
53726
53728
40902
43440
22531
43202
32992
53547
42771
53732
53734
53736
18143
48945
43082
52505
32779
52248
53745
53747
53748
53749
53751
53752
53754
46699
53409
53758
31411
44739
12086
42861
52956
52325
53771
53776
53779
53780
35081
38806
39816
43698
34623
45345
44705
44695
11141
53206
53784
53785
53787
53790
53791
53792
53793
44049
46091
46726
30048
38576
8434
51540
53798
53800
53802
53804
14202
36450
13647
53811
53812
53813
53814
53817
53818
53819
53821
53822
53823
27735
8509
48128
37817
53826
53827
53830
53832
53833
53834
53835
53836
53841
19632
44730
53780
53843
53845
53846
53852
53854
6828
25340
52141
42246
44645
48537
49784
52478
53860
53863
53866
53868
53869
53870
53872
53873
53876
53878
22724
42063
47502
49298
45962
53881
53883
53884
40371
42591
33629
25878
43514
28608
53889
53891
53893
53895
53896
53897
29573
52918
28870
53902
53903
53905
53911
53914
53916
53917
45212
47087
39644
49603
53526
53919
53920
53922
53924
53925
53926
53929
42103
40656
12371
51542
53931
53932
53935
53938
53939
53940
53942
37104
47075
25692
47194
45457
35891
27764
51951
49087
43085
47224
27956
26653
53872
53964
53947
53948
53949
53951
53952
53953
53955
53959
31747
44620
19132
47077
44437
38805
26411
8585
52939
53964
53965
53967
53968
45603
46776
42411
33935
31668
50468
52391
45167
33508
53973
53974
53975
53978
53979
42692
49019
37427
43092
15339
53174
33725
53983
53984
53985
53986
53987
53991
53992
53993
40657
42013
46638
7165
47784
35570
8342
51470
52147
42972
43924
49569
53994
53997
53998
54000
54001
54006
32463
25623
40518
40404
26015
38044
53285
54009
54013
54015
54017
54018
54020
54021
54022
54023
54024
54025
54027
45298
26040
12093
47032
54031
54035
54036
54037
54038
54040
44759
47127
33747
9450
27070
41891
53044
54041
54044
54046
54047
54048
54049
54050
54052
38280
41666
48077
46914
48958
9678
39777
6590
50830
33518
54055
54057
54060
54061
54063
54066
54067
36300
25296
46936
53034
46060
48593
12420
54069
54074
54075
54077
54079
54081
54082
54084
54088
36166
28534
52609
49190
52349
54093
54095
54097
54102
54104
41937
47874
48967
51376
48293
47283
48710
23619
51594
11264
54112
54114
54115
32545
37629
24111
9547
54116
54119
54120
54126
10883
49389
42066
47522
48934
28605
52036
10456
54128
54129
54130
54132
54133
54134
54135
54137
54138
39774
38322
52944
54142
54146
54149
54151
54155
54156
54159
54161
38489
45098
11434
31968
50783
2180
32756
53410
23413
36150
22637
8828
54025
54162
54163
54164
54168
54171
27623
41446
43747
46329
48789
52251
22031
54172
54173
54176
54177
54181
54182
54183
54184
54185
28672
10616
29462
39019
37077
28380
48879
37721
54186
54188
54189
54190
54193
54195
54199
54200
28900
27137
22965
34470
28588
12130
47166
40551
46894
54204
54205
54206
54207
54209
54210
54211
45114
46466
53318
6838
29102
54213
54214
54215
54216
54219
54221
54222
54223
10647
43857
30497
45038
23812
27519
47457
51530
54224
54227
54228
54229
54230
54233
54235
54236
54239
49819
50404
38037
39388
49460
10736
54241
54245
54246
54247
54248
54249
54250
54254
47546
39231
38885
12839
53641
54257
54259
54260
54262
54263
54267
54268
54269
40824
46435
44954
24585
31411
31952
47815
39300
22857
13148
29233
54273
54276
54278
54281
54282
54283
54284
54285
40675
42871
37454
43598
43948
9110
11439
12232
21334
40701
54287
54290
54291
54293
54294
54296
54297
54298
35961
29543
41597
34642
31737
6841
45150
36263
47104
46870
51143
22514
54300
54301
54302
54303
54304
54305
54307
54308
17777
45207
47213
47707
31248
47835
28833
53147
54311
54312
54315
54316
54317
54319
54320
54321
54322
54323
54324
54326
54327
54329
54331
14819
38860
42402
54335
54336
54338
54341
36610
46720
38634
54346
54347
54351
54352
54354
54355
54357
43805
11822
13599
41825
54360
54363
54368
54369
54370
54373
47966
46807
36669
51755
46124
54376
54377
54378
54380
54382
54383
54386
41169
46451
54390
54393
54395
54398
54400
35104
45371
41183
47898
48177
44274
44590
53719
15834
21767
53886
54404
54405
54406
54408
54410
54411
54412
54414
54418
54419
37254
30388
52748
47222
54233
49575
47558
54421
54425
54428
54429
54430
36205
20246
44663
44442
50004
50440
13162
46844
54435
54436
54437
54440
54441
27228
42623
41630
48976
33354
51839
43504
46943
54306
54447
54449
54451
54453
19823
52374
9949
41163
37616
47477
51699
20597
37290
54459
54462
54464
54465
54467
43055
43411
28460
40224
13845
51717
25059
54469
54470
54472
54474
54475
54476
54477
54478
54479
54480
54481
54482
44733
46139
43960
47002
53360
54485
54486
54487
54488
54489
54490
54491
54493
54494
54496
32555
25709
8911
25159
34617
48746
50473
39832
23382
54497
54498
54499
54501
54502
54504
54505
54506
54507
54508
54509
54511
54513
31729
40089
26313
44320
52998
49492
52460
16531
53056
54516
54517
54518
54519
54520
54521
54522
54523
54524
54525
54526
54527
54528
41505
48351
51272
48660
39269
54530
54531
54535
54539
54540
54542
54543
54544
54545
54546
54547
54548
54549
29012
21125
42833
45828
47499
8089
51223
48950
43812
47949
42544
27619
28200
54553
54554
54556
54557
54558
54560
42898
36494
11246
29305
41789
32144
49673
49342
53217
54561
54562
54563
54564
54565
54566
54567
54569
54570
54571
46021
19318
32241
48147
44971
32668
48708
35155
49140
12181
26785
9463
40929
49805
54573
54574
54575
54576
54578
54579
54580
54582
41910
45457
45956
51404
40114
44517
50923
54587
54588
54590
54594
54595
54596
54598
54599
54600
34853
42784
36540
45226
54159
54602
54604
54605
54606
54607
54608
54609
54610
46198
28158
45183
48560
26639
50000
26767
54612
54613
54614
54615
54616
54617
54618
54622
42553
44648
46758
48877
30370
20513
50399
52800
13143
54627
54628
54633
54634
54635
54636
54637
11184
39373
35196
48539
52512
45755
7349
54641
54642
54643
54644
54645
54646
54648
54649
54650
54651
6600
41813
42179
45205
19229
47806
42753
53352
12560
54654
54656
54659
54660
54661
54662
54663
54664
54665
54668
54669
54671
24002
33693
25175
7570
31578
17354
34058
33077
46955
52504
29645
54672
54673
54674
54675
54680
54682
54684
44046
35904
47552
46474
54710
54689
54691
54693
54694
54695
54696
54698
54699
54700
29109
29286
45878
45983
39875
40795
54705
54707
54711
54713
54715
40131
43295
48815
45391
47727
54202
34363
52729
45353
54717
54718
54719
54720
54722
54723
54724
54725
54726
54727
54728
54729
54731
40754
26910
37977
8096
54733
54734
54735
54736
54737
54738
54739
54740
54741
37572
24581
42909
8727
52083
11706
54745
54748
54750
54751
54753
54754
54755
54756
54757
54758
43380
46489
38577
48108
40560
34697
48878
47072
13970
54764
54765
54767
54769
54771
54773
54775
54776
54777
54778
24189
4931
37316
41540
49126
9252
51268
54781
54782
54783
54784
54785
54787
54789
54790
54792
54794
24646
37764
47529
46945
34699
44204
21423
52917
6985
54795
54798
54799
54800
54803
54805
54806
54807
40690
44398
33666
18407
8398
46311
45741
47730
13060
54810
54811
54812
54813
54814
54815
54818
54819
54821
31784
37373
29595
25534
43989
32746
43439
26064
50392
49088
13295
7402
42794
45538
7122
52443
54827
54828
54829
54830
7242
42676
40638
10074
13886
34903
43854
43357
7945
49094
50010
23828
50825
54832
54833
54834
54835
54836
54837
54839
54840
54842
54843
54844
29088
42855
42457
46159
53491
48615
33984
24609
54846
54847
54848
54849
54853
54854
54855
54856
54857
54858
54859
28564
10650
43785
17013
49063
42843
8014
49325
54402
54863
54866
54868
54870
54871
9586
42092
14204
28776
8805
29811
54875
54876
54877
54878
54880
54881
54882
54884
54885
47547
45767
5775
50120
49554
44914
29326
54886
54887
54888
54889
54891
54893
54894
44388
41049
35714
52174
48672
49128
37013
47694
37232
39000
52017
31684
7486
47212
50067
53546
34865
54896
54899
54900
54901
54903
54904
54906
54907
54908
54910
54911
54912
54913
54914
47159
47922
43045
48291
45693
42899
31840
53656
53877
22948
54917
54918
54919
54921
54922
40917
37599
22508
14025
9448
49401
2114
54925
54927
54928
54929
54930
54931
54932
54934
54935
54936
54937
54938
54939
54941
39507
45030
47795
49234
49338
33129
12505
54947
54948
54949
54950
54951
54952
54953
44018
47084
11752
51971
35296
49057
51476
21887
54954
54955
54957
54958
54959
54960
54961
54962
54964
54965
54966
54967
54968
54969
28667
31544
28880
23862
46623
12019
8713
49518
54403
54970
54971
54972
54973
54974
54976
54977
54979
54980
54981
54982
54983
54984
54985
54986
54987
54988
54989
54990
37305
45982
46256
29315
8877
33738
46124
23939
48662
47492
49388
10070
32938
48465
49839
33426
53583
42253
48569
50580
54992
54993
54994
54997
54998
54999
55000
55001
55003
55005
55006
55007
34767
34361
35996
45493
47698
46593
51783
49098
34489
48190
48519
44723
48696
12752
42809
50102
47067
55009
55011
55012
55013
55016
55017
40090
48963
47821
51403
31743
50247
6314
50957
54892
26921
25426
55018
55019
55020
55023
55025
55026
55027
55028
55029
55030
55031
55032
55033
55034
41464
50732
41574
35638
49541
13804
45626
55036
55037
55038
55039
55040
55041
55042
55044
55045
55047
42914
8314
22733
36254
19206
40564
32559
45123
43489
51830
51208
40005
50955
55051
55052
55054
55055
55056
55057
55058
55059
55061
41485
44957
45596
34982
49000
48339
44501
41963
36341
40787
47210
44044
49645
10017
54754
55068
52834
55062
55064
55067
55068
55069
55070
55071
55072
55073
55074
55076
55077
55078
55079
55080
55081
55082
46772
42936
47828
51331
47857
46134
53240
54149
54576
55083
55084
55086
55087
55088
55089
55090
55091
55092
55093
55094
14099
48176
41391
8486
24922
23930
44960
55095
55096
55098
55099
55101
30943
38428
13902
33284
9925
47977
51139
34440
6588
38015
40171
44981
11601
55102
55107
55110
55111
55115
40107
43872
47977
32328
21101
50276
48914
50318
16821
51228
40809
49714
36138
10416
33001
41895
55117
55118
55119
55120
55121
55122
55123
55125
55126
55128
45571
41839
47720
30570
28276
42836
51144
52118
11257
55129
55130
55131
55132
55133
55134
55135
55136
55138
55140
55141
55143
55144
10243
18075
44778
48948
49363
52804
49985
49595
33834
10282
55146
55147
55148
55149
55150
55151
55153
55155
55156
55157
55158
55159
55160
55161
55162
55163
46284
46808
35082
36653
44865
44870
37159
27038
43505
39781
38796
49506
53205
54141
54179
54719
55164
55166
55168
55169
55170
55171
55172
55173
55175
55176
55177
55178
55179
21383
22298
43567
24170
32496
43478
11695
53218
48647
44357
49370
12041
55180
55182
55183
55184
55185
55186
55187
41149
48150
45325
45991
47612
44768
41606
48690
52639
55189
55190
55193
55194
55195
55196
55197
55198
55199
55200
21257
41082
46566
15407
27446
47591
16892
42778
24287
54219
47539
55202
55203
55204
55205
55206
55207
55208
55209
55210
55211
55212
30885
41628
43760
24966
45463
49459
13922
31261
33605
18432
53450
28094
54964
54068
48878
32068
51302
55213
55214
55215
55216
55217
55218
55220
55221
55222
55223
55224
55225
55226
55227
55228
55229
55230
55231
20421
37923
47689
37426
48063
45033
8930
47786
41732
11421
34738
50264
55233
55234
55235
55236
55238
55239
55240
55241
55242
55243
55245
55246
55247
55248
33883
34391
35837
40651
50777
12025
44129
32946
52498
7526
55249
55250
55252
55253
55254
55255
55256
55257
55260
55261
55263
55264
55265
18996
17621
45602
42875
48743
53311
49785
19450
10821
10794
52426
44204
33075
55253
55267
55268
55270
55271
55272
55274
55275
55276
55277
33365
41383
51874
37709
22384
49449
44656
54402
12903
14759
42999
53134
55278
55279
55280
55281
55282
55283
55284
55285
55286
55287
55288
55289
55290
43770
37961
40241
36918
49683
26498
39961
9559
52611
44842
53175
37510
54026
54290
53838
54299
55292
55293
55295
55296
55297
55298
55299
55300
25861
30736
25138
36256
29525
30654
35133
50517
43742
37191
42481
49799
55302
55303
55304
55305
55306
55307
55309
55310
55311
55312
55313
55314
38682
40580
22947
45422
11539
47745
53834
43819
42817
55315
55316
55318
55319
55320
55321
55322
55323
55324
55325
55326
55327
55328
55329
35190
17555
47158
48496
44550
46760
49619
45089
47449
46263
47841
19872
33221
52195
47852
49050
52139
49758
34083
55330
55331
55332
55333
55334
55335
55336
55337
55338
55339
55340
55341
45066
45448
40554
33688
49773
50891
12676
43754
54796
19926
48313
55342
55343
55344
55345
55346
55347
55348
55349
55350
55351
55352
55353
55355
55356
55357
55358
55359
55360
55361
55362
55363
46573
31944
43112
47357
25560
41697
46114
49072
52224
49606
37784
42627
33375
54220
35990
41268
55037
51366
55364
55365
55366
55367
55368
55369
55370
55371
55372
55373
44966
39641
36480
35545
46416
48999
50308
45690
51972
43012
49480
40218
48876
51241
51855
48069
42997
55393
34041
55374
55375
55376
55377
55378
55379
55380
55381
55382
55383
55384
55385
55386
55388
55389
55390
55391
55392
55393
32155
46371
47313
46366
33003
46920
42575
52883
54923
55394
55395
55396
55397
55398
55399
55400
55401
55402
55403
55404
55405
55406
55407
55408
45036
46063
46901
35903
44211
33568
39934
55410
55411
55412
55413
55414
55415
55416
55417
55418
55419
55420
55421
55422
55423
55424
43062
39297
38365
49971
26721
30726
45779
54143
53334
35635
54359
46079
54774
50953
55200
55425
55426
55427
55428
55429
55430
55431
55432
55433
55434
55435
55436
55437
29401
26258
45714
43858
49640
49711
53029
46232
23682
39270
54994
55082
55438
55439
55440
55441
55442
55443
55444
55445
55446
55447
55448
55449
55450
55451
55452
47123
40925
45974
52436
36385
42206
43969
41566
48966
18840
53234
52908
44989
43870
55453
55454
55455
55456
55457
55458
55459
55460
55461
55462
55463
55464
55465
55466
55467
55468
55469
55470
55471
55472
55473
37598
43315
46192
46905
47059
42946
45720
49271
40866
49713
44894
51614
49948
31641
12646
38256
43692
10067
11604
48415
54664
13301
53757
55474
55475
55476
55477
55478
55479
55480
55481
55483