/*--------------------------------*- C++ -*----------------------------------*\
  =========                 |
  \\      /  F ield         | OpenFOAM: The Open Source CFD Toolbox
   \\    /   O peration     | Website:  https://openfoam.org
    \\  /    A nd           | Version:  7
     \\/     M anipulation  |
\*---------------------------------------------------------------------------*/
FoamFile
{
    version     2.0;
    format      ascii;
    class       labelField;
    location    "0.007/lagrangian/dsmc";
    object      origId;
}
// * * * * * * * * * * * * * * * * * * * * * * * * * * * * * * * * * * * * * //


5141
(
304430
304551
304689
304705
304898
304958
305034
305168
305241
305279
305299
305303
305406
305415
305421
305504
305544
305580
305582
305590
305597
305654
305683
305743
305751
305762
305764
305777
305780
305815
305825
305831
305834
305841
305857
305903
305922
305929
305935
305936
305940
305947
305949
305965
305966
305989
306003
306015
306017
306018
306021
306023
306028
306040
306042
306044
306046
306073
306094
306098
306106
306110
306111
306113
306114
306117
306127
306140
306148
306165
306167
306175
306193
306194
306195
306198
306224
306226
306228
306229
306235
306237
356500
306253
306267
306268
306271
306272
306280
306283
306284
306285
306289
306298
306301
306313
306314
306320
306328
306344
306347
306360
306363
306370
306376
306381
306383
306385
306386
306390
306393
306397
306407
306413
356293
306432
306440
306441
306442
306443
306444
306447
306455
306459
306461
306464
306465
306467
306473
306474
306476
306481
306482
306484
306493
306498
306523
306528
306529
306532
306538
306543
306544
306545
306546
306551
306552
306555
306556
306558
306560
306561
306564
306570
306571
306573
306574
306578
306583
306585
306588
306589
306615
306620
306627
306629
306637
306638
306642
306646
306647
306648
306651
306658
306660
306662
306664
306665
306666
306667
306668
306669
306671
306674
306676
306677
306685
355977
306708
306715
306716
306719
306723
306725
306726
306731
306733
306734
306735
306736
306737
306739
306740
306742
306743
306745
306747
306751
306754
306755
306757
306760
306765
306767
306773
357316
306780
306787
306789
306791
306793
306796
306797
306798
306799
306801
306804
306805
306806
306808
306810
306811
306812
306814
306815
306816
306817
306818
306819
306821
306822
306823
306826
306830
306832
306833
306835
306837
306838
306841
306842
306844
306845
306847
306849
306850
306857
356599
306872
306876
306879
306884
306885
306886
306887
306889
306893
306895
306897
306899
306901
306902
306904
306905
306906
306911
306912
306913
306914
306915
306916
306919
306920
306921
306922
306923
306924
306925
306929
306930
306931
306935
306936
306937
306939
306940
306941
306943
306945
306947
306952
356699
357519
357624
306965
306966
306969
306970
306971
306972
306976
306977
306978
306979
306980
306981
306982
306985
306989
306991
306992
306994
306995
306996
306997
306999
307000
307001
307002
307003
307004
307007
307008
307009
307010
307011
307014
307016
307017
307018
307019
307020
307024
307025
307026
307030
307034
307051
307056
307057
307060
307064
307065
307068
307071
307072
307074
307078
307079
307080
307081
307082
307084
307085
307087
307089
307090
307091
307093
307094
307096
307099
307102
307103
307104
307105
307107
307109
307110
307111
307115
307117
307119
307120
307122
307123
307135
307140
307143
307146
307148
307150
307152
307154
307157
307158
307160
307161
307162
307163
307164
307165
307167
307168
307169
307173
307175
307176
307177
307178
307179
307180
307181
307182
307183
307184
307185
307186
307187
307188
307189
307190
307191
307192
307195
307197
307198
307200
307201
307203
307204
307209
357726
307215
307220
307222
307223
307225
307226
307228
307230
307232
307233
307234
307235
307236
307237
307239
307240
307241
307242
307243
307244
307245
307246
307248
307249
307250
307251
307252
307253
307254
307256
307257
307262
307263
307264
307265
307266
307267
307268
307271
307272
307273
307274
307275
307276
307277
307278
307279
307280
307282
307283
307285
307287
307288
307292
358129
307302
307303
307305
307307
307309
307310
307311
307314
307315
307316
307318
307319
307320
307321
307322
307323
307324
307326
307327
307328
307329
307330
307331
307332
307333
307334
307336
307337
307338
307339
307340
307341
307342
307343
307344
307345
307346
307347
307348
307349
307350
307351
307352
307353
307354
307355
307356
307357
307358
307360
307362
307363
307364
307365
307367
307368
307369
307370
307371
307373
307374
307379
307382
307394
307395
307397
307398
307400
307403
307404
307405
307407
307408
307410
307411
307413
307414
307415
307416
307417
307418
307419
307420
307421
307422
307423
307424
307425
307426
307427
307428
307429
307430
307431
307432
307433
307434
307435
307436
307437
307438
307439
307440
307441
307442
307443
307445
307447
307448
307449
307450
307451
307453
307457
307460
307462
307463
307464
307465
307467
307468
307469
307477
307480
307484
307485
307486
307487
307489
307490
307491
307492
307494
307497
307499
307501
307502
307503
307504
307505
307507
307508
307509
307510
307511
307512
307513
307514
307515
307516
307517
307518
307519
307520
307521
307522
307523
307524
307525
307526
307527
307528
307529
307530
307531
307532
307533
307534
307535
307537
307538
307539
307541
307542
307544
307545
307546
307547
307550
307559
357832
307565
307566
307573
307574
307577
307578
307580
307582
307583
307584
307585
307586
307587
307588
307589
307590
307591
307592
307593
307594
307595
307596
307597
307598
307599
307600
307601
307602
307603
307604
307605
307606
307607
307608
307610
307611
307612
307613
307614
307616
307617
307618
307619
307620
307621
307623
307624
307625
307626
307627
307630
307632
307633
307634
307635
307636
307638
307640
307643
307645
307646
307647
307648
357622
307662
307664
307665
307667
307668
307669
307670
307671
307672
307674
307675
307676
307678
307679
307680
307682
307683
307684
307685
307686
307687
307688
307689
307690
307691
307692
307693
307694
307695
307696
307697
307698
307699
307700
307701
307702
307703
307704
307705
307706
307707
307708
307709
307710
307711
307712
307713
307714
307715
307717
307718
307719
307720
307721
307722
307723
307725
307726
307728
307730
307731
307732
307735
307736
307748
307749
307750
307751
307752
307754
307755
307756
307759
307760
307761
307762
307763
307764
307766
307767
307769
307770
307771
307772
307773
307774
307775
307776
307777
307778
307779
307780
307782
307783
307784
307785
307786
307787
307788
307789
307791
307792
307793
307794
307795
307796
307797
307798
307799
307800
307801
307802
307803
307804
307806
307808
307809
307810
307811
307812
307813
307814
307815
307816
307817
307819
307821
307822
307824
307825
307827
307839
307842
307843
307844
307845
307846
307849
307850
307852
307853
307854
307856
307857
307858
307859
307860
307861
307862
307864
307865
307866
307867
307868
307870
307871
307872
307873
307874
307875
307876
307877
307878
307879
307880
307881
307882
307883
307884
307885
307886
307887
307888
307889
307890
307891
307892
307893
307894
307895
307896
307897
307898
307899
307901
307902
307903
307904
307906
307907
307908
307909
307910
307911
307912
307913
307914
307916
307917
307919
307921
358539
307930
307932
307933
307935
307938
307939
307942
307944
307945
307946
307947
307948
307949
307950
307951
307952
307953
307954
307955
307957
307958
307960
307961
307962
307963
307964
307965
307966
307967
307968
307969
307970
307971
307972
307973
307974
307975
307976
307977
307978
307980
307981
307982
307983
307984
307985
307986
307987
307988
307989
307991
307992
307993
307994
307995
307996
307997
307998
307999
308001
358024
306704
358746
308014
308016
308018
308020
308021
308022
308023
308024
308025
308026
308027
308028
308029
308030
308031
308032
308033
308034
308035
308036
308037
308038
308039
308040
308041
308042
308043
308044
308045
308046
308047
308048
308049
308050
308051
308052
308053
308054
308055
308056
308057
308058
308059
308060
308061
308062
308063
308064
308066
308067
308068
308069
308070
308071
308072
308073
308074
308075
308076
308077
308078
308080
308082
308086
308088
308090
308094
358028
358637
358853
308109
308112
308114
308116
308117
308118
308120
308121
308122
308123
308124
308125
308126
308127
308128
308129
308130
308131
308132
308133
308134
308135
308136
308137
308138
308139
308140
308141
308142
308143
308144
308145
308146
308147
308148
308149
308150
308151
308152
308153
308154
308155
308156
308157
308158
308159
308160
308161
308162
308163
308164
308165
308166
308168
308169
308170
308172
308174
308175
308177
308183
308184
308186
308187
356698
358429
358635
358749
308192
308194
308198
308199
308201
308202
308203
308204
308206
308207
308208
308209
308210
308211
308212
308213
308214
308215
308216
308217
308218
308219
308220
308221
308222
308223
308225
308226
308227
308228
308229
308230
308231
308232
308233
308234
308235
308236
308237
308238
308239
308240
308241
308242
308243
308244
308245
308246
308247
308248
308249
308250
308251
308252
308253
308254
308255
308256
308257
308258
308259
308260
308261
308262
308263
308265
308266
308268
308269
357927
308275
308277
308278
308282
308283
308284
308286
308287
308288
308289
308290
308291
308292
308293
308294
308295
308296
308297
308298
308299
308300
308301
308302
308303
308304
308305
308306
308307
308308
308309
308310
308311
308312
308313
308314
308315
308316
308317
308318
308319
308320
308321
308322
308323
308324
308325
308326
308327
308328
308329
308330
308331
308332
308335
308336
308337
308338
308339
308341
308342
308344
308346
308347
308348
308350
308351
358953
359363
308356
308359
308360
308361
308362
308364
308365
308366
308369
308370
308371
308372
308373
308374
308375
308376
308377
308378
308379
308380
308381
308382
308383
308384
308385
308386
308387
308388
308389
308390
308391
308392
308393
308394
308395
308396
308397
308398
308399
308400
308401
308402
308403
308404
308405
308406
308407
308408
308409
308410
308411
308412
308413
308414
308415
308417
308418
308419
308420
308421
308422
308423
308424
308425
308426
308427
308428
308432
308436
308437
308438
308439
308440
308443
308451
308454
308456
308458
308461
308462
308463
308464
308465
308467
308468
308469
308470
308471
308472
308473
308474
308475
308476
308477
308478
308480
308481
308482
308483
308484
308485
308486
308487
308488
308489
308490
308491
308492
308493
308494
308495
308496
308497
308498
308499
308500
308501
308502
308503
308504
308505
308506
308507
308508
308509
308510
308511
308512
308513
308514
308515
308516
308517
308518
308519
308520
308521
308522
308523
308524
308525
308527
308528
308529
308532
308533
357298
358955
308539
308541
308543
308545
308546
308547
308549
308550
308552
308553
308554
308555
308556
308557
308558
308559
308560
308561
308562
308563
308564
308565
308566
308567
308568
308569
308570
308571
308572
308573
308574
308575
308576
308577
308578
308579
308580
308581
308582
308583
308584
308585
308586
308587
308588
308589
308590
308591
308592
308593
308594
308595
308596
308597
308599
308600
308602
308603
308604
308607
308608
308609
308611
308614
308616
308617
308618
357517
359262
308622
308623
308624
308625
308626
308627
308628
308629
308630
308631
308633
308634
308635
308636
308637
308638
308639
308640
308641
308642
308643
308644
308645
308646
308647
308648
308649
308650
308651
308652
308653
308654
308655
308656
308657
308658
308659
308660
308661
308662
308663
308664
308665
308666
308667
308668
308669
308670
308671
308672
308673
308674
308675
308676
308677
308678
308679
308680
308681
308683
308684
308685
308686
308687
308688
308690
308691
308692
308693
308695
308697
308699
308700
357502
357515
359066
359463
308705
308706
308707
308708
308710
308711
308712
308713
308714
308715
308716
308717
308718
308719
308720
308721
308722
308723
308724
308725
308726
308727
308728
308729
308730
308731
308732
308733
308734
308735
308736
308737
308738
308739
308740
308741
308742
308743
308744
308745
308746
308747
308748
308749
308750
308751
308752
308753
308754
308755
308756
308757
308758
308759
308761
308762
308763
308765
308766
308767
308768
308769
308770
308771
308774
308776
308777
308778
308779
308780
358331
359671
308795
308798
308800
308802
308803
308804
308805
308806
308808
308809
308810
308812
308813
308814
308815
308816
308817
308818
308819
308820
308821
308822
308823
308824
308825
308826
308827
308828
308829
308830
308831
308832
308833
308834
308835
308836
308837
308838
308839
308840
308841
308842
308843
308844
308845
308846
308847
308848
308849
308850
308851
308852
308853
308854
308855
308856
308857
308858
308859
308860
308861
308862
308863
308864
308865
308866
308867
308869
308870
308872
308875
308876
308877
308879
308880
357826
359264
359767
308888
308889
308890
308891
308892
308893
308894
308895
308896
308897
308898
308899
308900
308901
308902
308903
308904
308905
308906
308907
308908
308909
308910
308911
308912
308913
308914
308915
308916
308917
308918
308919
308920
308921
308922
308923
308924
308925
308926
308927
308928
308929
308930
308931
308932
308933
308934
308935
308936
308937
308938
308939
308940
308941
308942
308943
308944
308947
308948
308949
308952
308958
359462
308961
308963
308964
308968
308969
308970
308971
308972
308973
308975
308976
308978
308979
308980
308981
308982
308983
308984
308985
308986
308987
308988
308989
308990
308991
308992
308993
308994
308995
308996
308997
308998
308999
309000
309001
309002
309003
309004
309005
309006
309007
309008
309009
309010
309011
309012
309013
309014
309015
309016
309017
309018
309019
309020
309021
309022
309023
309024
309025
309026
309027
309028
309030
309031
309032
309033
309034
309036
309037
309038
309040
309041
309042
309043
309045
309046
309047
309048
359460
359769
309057
309059
309062
309064
309065
309067
309068
309069
309070
309071
309072
309073
309074
309075
309076
309077
309078
309079
309080
309081
309082
309083
309084
309085
309086
309087
309088
309089
309090
309091
309092
309093
309094
309095
309096
309097
309098
309099
309100
309101
309102
309103
309104
309105
309106
309107
309108
309109
309110
309111
309112
309113
309114
309115
309116
309117
309118
309119
309120
309121
309122
309123
309124
309125
309127
309129
309130
309132
309133
309134
309135
309136
309137
309138
309139
309142
357510
359361
306709
360073
360075
309148
309150
309152
309154
309156
309157
309158
309161
309163
309164
309167
309168
309169
309170
309171
309172
309173
309174
309175
309176
309177
309178
309179
309180
309181
309182
309183
309184
309185
309186
309187
309188
309189
309190
309191
309192
309193
309194
309195
309196
309197
309198
309199
309200
309201
309202
309203
309204
309205
309206
309207
309208
309209
309210
309211
309212
309213
309214
309215
309216
309217
309218
309219
309220
309221
309222
309223
309224
309225
309226
309227
309228
309229
309230
309231
309232
309233
309234
309235
309236
309237
309238
309239
309240
309241
309242
358638
359561
309254
309256
309257
309258
309259
309260
309261
309262
309263
309265
309266
309267
309268
309269
309270
309271
309272
309273
309274
309275
309276
309277
309278
309279
309280
309281
309282
309283
309284
309285
309286
309287
309288
309289
309290
309291
309292
309293
309294
309295
309296
309297
309298
309299
309300
309301
309302
309303
309304
309305
309306
309307
309308
309309
309310
309311
309312
309313
309314
309315
309316
309317
309318
309319
309320
309321
309322
309323
309324
309325
309326
309327
309328
309329
357823
358121
358531
360178
360180
309338
309341
309342
309343
309345
309346
309348
309349
309350
309351
309352
309353
309354
309355
309356
309357
309358
309359
309360
309361
309362
309363
309364
309365
309366
309367
309368
309369
309370
309371
309372
309373
309374
309375
309376
309377
309378
309379
309380
309381
309382
309383
309384
309385
309386
309387
309388
309389
309390
309391
309392
309393
309394
309395
309396
309397
309398
309399
309400
309401
309402
309403
309404
309405
309412
309413
357417
358432
309415
309417
309418
309419
309421
309423
309424
309425
309426
309429
309430
309431
309432
309433
309434
309435
309436
309437
309438
309439
309440
309441
309442
309443
309444
309445
309446
309447
309448
309449
309450
309451
309452
309453
309454
309455
309456
309457
309458
309459
309460
309461
309462
309463
309464
309465
309466
309467
309468
309469
309470
309471
309472
309473
309474
309475
309476
309477
309478
309480
309481
309482
309483
309484
309490
309491
309493
309495
309496
309497
309498
309499
309500
357007
357193
358535
359455
360173
360486
309510
309512
309514
309516
309517
309518
309519
309520
309521
309522
309523
309524
309525
309526
309527
309528
309529
309530
309531
309532
309533
309534
309535
309536
309537
309538
309539
309540
309541
309542
309543
309544
309545
309546
309547
309548
309549
309550
309551
309552
309553
309554
309555
309556
309557
309558
309559
309560
309561
309562
309563
309564
309565
309566
309567
309568
309569
309570
309571
309572
309574
309575
309576
309577
309578
309579
309583
309584
309585
309587
309588
309591
357824
358639
358744
307393
307304
360181
309595
309596
309597
309599
309600
309602
309603
309605
309606
309608
309609
309610
309611
309612
309613
309614
309615
309616
309617
309618
309619
309620
309621
309622
309623
309624
309625
309626
309627
309628
309629
309630
309631
309632
309633
309634
309635
309636
309637
309638
309639
309640
309641
309642
309643
309644
309645
309646
309647
309648
309649
309650
309651
309652
309653
309654
309655
309656
309657
309658
309659
309660
309661
309662
309663
309664
309665
309666
309667
309669
309672
309673
309674
309679
309681
309682
309683
309684
309685
309686
309687
309688
309689
309690
309692
309693
309694
309695
309696
309697
309698
309699
309700
309701
309702
309703
309704
309705
309706
309707
309708
309709
309710
309711
309712
309713
309714
309715
309716
309717
309718
309719
309720
309721
309722
309723
309724
309725
309726
309727
309728
309729
309730
309731
309732
309733
309734
309735
309736
309737
309738
309739
309740
309741
309742
309743
309744
309745
309746
309747
309749
309751
309752
309753
309754
309755
309756
309758
309759
355969
358122
358736
358745
360792
309760
309762
309763
309764
309766
309768
309770
309771
309773
309774
309775
309776
309777
309778
309779
309780
309781
309782
309783
309784
309785
309786
309787
309788
309789
309790
309791
309792
309793
309794
309795
309796
309797
309798
309799
309800
309801
309802
309803
309804
309805
309806
309807
309808
309809
309810
309811
309812
309813
309814
309815
309816
309817
309818
309819
309820
309821
309822
309823
309824
309825
309826
309827
309828
309829
309830
309831
309832
309833
309834
309836
309837
309838
309839
309842
356591
306162
359162
360692
360896
309845
309846
309847
309849
309850
309851
309852
309853
309854
309855
309856
309857
309858
309859
309860
309861
309862
309863
309864
309865
309866
309867
309868
309869
309870
309871
309872
309873
309874
309875
309876
309877
309878
309879
309880
309881
309882
309883
309884
309885
309886
309887
309888
309889
309890
309891
309892
309893
309894
309895
309896
309897
309898
309899
309900
309901
309902
309903
309904
309905
309906
309907
309908
309909
309911
309913
309916
309917
309919
309920
309922
309923
309925
309926
357932
359359
359464
359758
360489
308274
308794
361200
309934
309935
309938
309939
309940
309941
309942
309943
309944
309945
309946
309947
309948
309949
309950
309951
309952
309953
309954
309955
309956
309957
309958
309959
309960
309961
309962
309963
309964
309965
309966
309967
309968
309969
309970
309971
309972
309973
309974
309975
309976
309977
309978
309979
309980
309981
309982
309983
309984
309985
309986
309987
309988
309989
309990
309991
309992
309993
309994
309995
309997
309998
309999
310000
310001
310002
310008
310010
310011
310013
310014
310016
357924
356093
306898
361309
310022
310024
310025
310028
310030
310031
310032
310034
310035
310036
310037
310038
310039
310040
310041
310042
310043
310044
310045
310046
310047
310048
310049
310050
310051
310052
310053
310054
310055
310056
310057
310058
310059
310060
310061
310062
310063
310064
310065
310066
310067
310068
310069
310070
310071
310072
310073
310074
310075
310076
310077
310078
310079
310080
310081
310082
310083
310084
310085
310086
310087
310088
310089
310090
310091
310092
310093
310094
310095
310097
310098
310100
310101
310102
308193
359857
360071
360381
360385
361197
361408
310109
310111
310112
310114
310115
310116
310117
310118
310119
310120
310121
310122
310123
310124
310125
310126
310127
310128
310129
310130
310131
310132
310133
310134
310135
310136
310137
310138
310139
310140
310141
310142
310143
310144
310145
310146
310147
310148
310149
310150
310151
310152
310153
310154
310155
310156
310157
310158
310159
310160
310161
310162
310163
310164
310165
310166
310167
310168
310169
310170
310171
310172
310173
310175
310176
310177
310178
310179
310180
310181
310182
310184
310185
310186
310187
310188
310190
358095
359861
360693
310194
310195
310197
310198
310199
310200
310201
310202
310203
310204
310205
310206
310207
310208
310209
310210
310211
310212
310213
310214
310215
310216
310217
310218
310219
310220
310221
310222
310223
310224
310225
310226
310227
310228
310229
310230
310231
310232
310233
310234
310235
310236
310237
310238
310239
310240
310241
310242
310243
310244
310245
310246
310247
310248
310249
310250
310251
310252
310253
310254
310255
310256
310257
310258
310259
310260
310262
310263
310265
310267
310268
310269
310273
310274
310275
310276
310277
310278
310279
359061
359355
307661
360277
360580
308884
310290
310291
310293
310295
310296
310297
310298
310299
310300
310301
310302
310303
310304
310305
310306
310307
310308
310309
310310
310311
310312
310313
310314
310315
310316
310317
310318
310319
310320
310321
310322
310323
310324
310325
310326
310327
310328
310329
310330
310331
310332
310333
310334
310335
310336
310337
310338
310339
310340
310341
310342
310343
310344
310345
310346
310347
310348
310349
310350
310351
310352
310353
310354
310355
310356
310357
310358
310359
310360
310361
310362
310363
310364
310365
310366
310367
310368
310369
310370
310372
310373
310374
310375
359853
360484
310379
310381
310383
310384
310385
310386
310387
310388
310389
310390
310391
310392
310393
310394
310395
310396
310397
310399
310400
310401
310402
310403
310404
310405
310406
310407
310408
310409
310410
310411
310412
310413
310414
310415
310416
310417
310418
310419
310420
310421
310422
310423
310424
310425
310426
310427
310428
310429
310430
310431
310432
310433
310434
310435
310436
310437
310438
310439
310440
310441
310442
310443
310445
310446
310447
310448
310451
310453
310454
310455
310456
310457
310458
359063
360375
360490
361305
310462
310463
310464
310465
310466
310467
310468
310470
310471
310472
310475
310476
310477
310478
310479
310480
310481
310482
310483
310484
310485
310486
310487
310488
310489
310490
310491
310492
310493
310494
310495
310496
310497
310498
310499
310500
310501
310502
310503
310504
310505
310506
310507
310508
310509
310510
310511
310512
310513
310514
310515
310516
310517
310518
310519
310520
310521
310522
310523
310524
310525
310526
310527
310528
310529
310530
310531
310532
310534
310536
310538
310539
310540
310541
310542
310543
310544
310545
310546
310547
310549
357715
358421
359865
360483
360997
360998
310556
310558
310559
310560
310561
310562
310563
310564
310565
310566
310567
310568
310569
310570
310571
310572
310573
310574
310575
310576
310577
310578
310579
310580
310581
310582
310583
310584
310585
310586
310587
310588
310589
310590
310591
310592
310593
310594
310595
310596
310597
310598
310599
310600
310601
310602
310603
310604
310605
310606
310607
310608
310609
310610
310611
310612
310613
310614
310615
310616
310617
310618
310619
310620
310621
310622
310623
310624
310625
310626
310627
310628
310629
310632
310634
310636
310638
310639
310640
310641
359053
359862
359957
360793
310647
310649
310650
310651
310652
310653
310654
310655
310656
310657
310658
310659
310660
310661
310662
310663
310664
310665
310666
310667
310668
310669
310670
310671
310672
310673
310674
310675
310676
310677
310678
310679
310680
310681
310682
310683
310684
310685
310686
310687
310688
310689
310690
310691
310692
310693
310694
310695
310696
310697
310698
310699
310700
310701
310702
310703
310704
310705
310706
310707
310708
310709
310710
310711
310712
310713
310714
310715
310716
310717
310718
310719
310720
310724
310726
310727
310728
310729
310730
310731
310732
310733
310734
310735
310737
358942
308452
359760
360481
361919
310741
310742
310743
310744
310745
310747
310749
310750
310751
310752
310753
310754
310755
310756
310757
310758
310759
310760
310761
310762
310763
310764
310765
310766
310767
310768
310769
310770
310771
310772
310773
310774
310775
310776
310777
310778
310779
310780
310781
310782
310783
310784
310785
310786
310787
310788
310789
310790
310791
310792
310793
310794
310795
310796
310797
310798
310799
310800
310801
310802
310803
310804
310805
310806
310807
310808
310809
310810
310811
310813
310814
310815
310816
310817
310820
310822
310823
310824
357911
357920
306341
359160
360063
360694
360899
308017
310196
310828
310831
310832
310833
310834
310835
310836
310837
310838
310839
310840
310841
310842
310843
310844
310845
310846
310847
310848
310849
310850
310851
310852
310853
310854
310855
310856
310857
310858
310859
310860
310861
310862
310863
310864
310865
310866
310867
310868
310869
310870
310871
310872
310873
310874
310875
310876
310877
310878
310879
310880
310881
310882
310883
310884
310885
310886
310887
310888
310889
310890
310891
310892
310893
310894
310895
310896
310897
310898
310899
310900
310901
310902
310903
310905
310906
358219
360993
361194
310909
310910
310911
310912
310915
310916
310917
310918
310919
310920
310921
310922
310923
310924
310925
310926
310927
310928
310929
310930
310931
310932
310933
310934
310935
310936
310937
310938
310939
310940
310941
310942
310943
310944
310945
310946
310947
310948
310949
310950
310951
310952
310953
310954
310955
310956
310957
310958
310959
310960
310961
310962
310963
310964
310965
310966
310967
310968
310969
310970
310971
310972
310973
310974
310975
310976
310977
310978
310979
310980
310981
310982
310984
310985
310986
310987
310989
310991
310994
310995
357619
358949
359558
360269
307934
361097
361708
361918
362020
310997
310998
310999
311002
311003
311004
311005
311006
311007
311008
311009
311010
311011
311012
311013
311014
311015
311016
311017
311018
311019
311020
311021
311022
311023
311024
311025
311026
311027
311028
311029
311030
311031
311032
311033
311034
311035
311036
311037
311038
311039
311040
311041
311042
311043
311044
311045
311046
311047
311048
311049
311050
311051
311052
311053
311054
311055
311056
311057
311058
311059
311060
311061
311062
311063
311064
311065
311066
311067
311068
311070
311072
311073
311074
311075
311076
311078
311079
311080
311081
311082
311083
358198
362330
311087
311088
311089
311090
311091
311092
311093
311094
311095
311096
311098
311099
311100
311101
311102
311103
311104
311105
311106
311107
311108
311109
311110
311111
311112
311113
311114
311115
311116
311117
311118
311119
311120
311121
311122
311123
311124
311125
311126
311127
311128
311129
311130
311131
311132
311133
311134
311135
311136
311137
311138
311139
311140
311141
311142
311143
311144
311145
311146
311147
311148
311149
311150
311151
311152
311153
311154
311155
311156
311157
311158
311159
311160
311161
311162
311163
311164
311165
311166
307931
306706
360382
360572
361497
361600
311169
311171
311172
311173
311174
311175
311176
311177
311178
311179
311180
311181
311182
311183
311184
311185
311186
311187
311188
311189
311190
311191
311192
311193
311194
311195
311196
311197
311198
311199
311200
311201
311202
311203
311204
311205
311206
311207
311208
311209
311210
311211
311212
311213
311214
311215
311216
311217
311218
311219
311220
311221
311222
311223
311224
311225
311226
311227
311228
311229
311230
311231
311232
311233
311234
311235
311236
311237
311238
311239
311240
311241
311242
311243
311244
311245
311246
311247
311248
311250
311251
311252
311253
311254
356579
357614
306522
359969
360271
360893
361198
304867
362235
311259
311260
311261
311262
311263
311264
311265
311266
311267
311268
311269
311270
311271
311272
311273
311274
311275
311276
311277
311278
311279
311280
311281
311282
311283
311284
311285
311286
311287
311288
311289
311290
311291
311292
311293
311294
311295
311296
311297
311298
311299
311300
311301
311302
311303
311304
311305
311306
311307
311308
311309
311310
311311
311312
311313
311314
311315
311316
311317
311318
311319
311320
311321
311322
311323
311324
311325
311326
311327
311328
311329
311330
311331
311332
311333
311334
311335
311338
311339
356491
357822
359547
360265
360584
360788
362428
305125
311343
311344
311345
311346
311347
311349
311350
311351
311352
311353
311354
311355
311356
311357
311358
311359
311360
311361
311362
311363
311364
311365
311366
311367
311368
311369
311370
311371
311372
311373
311374
311375
311376
311377
311378
311379
311380
311381
311382
311383
311384
311385
311386
311387
311388
311389
311390
311391
311392
311393
311394
311395
311396
311397
311398
311399
311400
311401
311402
311403
311404
311405
311406
311407
311408
311409
311410
311411
311412
311416
311417
311418
311419
311420
311421
311422
311423
362426
362736
311426
311427
311428
311429
311430
311431
311432
311433
311434
311435
311436
311437
311438
311439
311440
311441
311442
311443
311444
311445
311446
311447
311448
311449
311450
311451
311452
311453
311454
311455
311456
311457
311458
311459
311460
311461
311462
311463
311464
311465
311466
311467
311468
311469
311470
311471
311472
311473
311474
311475
311476
311477
311478
311479
311480
311481
311482
311483
311484
311485
311486
311487
311488
311489
311490
311491
311492
311493
311494
311495
311496
311497
311498
311499
311500
311501
311502
311503
311504
311505
311506
311507
311508
311509
311510
311511
311512
357423
357514
357716
357724
358026
359249
360264
307061
360794
310026
362431
310382
362831
311515
311517
311518
311519
311520
311521
311522
311523
311524
311525
311526
311527
311528
311529
311530
311531
311532