/*--------------------------------*- C++ -*----------------------------------*\
  =========                 |
  \\      /  F ield         | OpenFOAM: The Open Source CFD Toolbox
   \\    /   O peration     | Website:  https://openfoam.org
    \\  /    A nd           | Version:  7
     \\/     M anipulation  |
\*---------------------------------------------------------------------------*/
FoamFile
{
    version     2.0;
    format      ascii;
    class       scalarField;
    location    "0.006/lagrangian/dsmc";
    object      Ei;
}
// * * * * * * * * * * * * * * * * * * * * * * * * * * * * * * * * * * * * * //


5450
(
7.595278045e-21
2.25441418e-21
5.482786877e-21
9.467463598e-21
7.496565442e-22
1.356492343e-22
1.905075716e-22
1.515423716e-20
1.22300326e-21
1.988872891e-20
4.756155807e-22
5.930879248e-23
4.376365376e-21
1.935347196e-21
1.157464904e-21
4.28184964e-22
1.225936814e-21
1.088238377e-21
9.009040204e-24
4.392950057e-21
3.664711166e-21
1.10112933e-21
6.465838571e-21
1.00993532e-20
2.864397968e-21
4.300990445e-22
1.729856558e-21
1.970099175e-20
1.949838072e-21
7.601639433e-22
4.695405149e-22
2.077949073e-20
2.554121545e-23
2.911412671e-21
2.181063358e-21
5.238656856e-21
1.247561147e-21
3.788050354e-21
6.77564703e-21
1.328285294e-20
5.916104338e-22
1.174443283e-21
4.293398413e-21
1.794541358e-22
5.422336529e-22
3.850519494e-22
6.486430574e-21
7.751352804e-21
1.458505814e-22
2.889294815e-21
3.713076334e-21
3.135456683e-21
4.757712728e-21
4.366086596e-21
1.242195442e-20
7.095574902e-22
2.723888075e-21
1.697896036e-22
1.382279377e-21
4.161922164e-22
1.582746466e-20
3.391483034e-21
8.073513572e-22
4.269885246e-22
9.06457858e-21
1.559032125e-21
5.453839404e-21
9.89254545e-21
8.644498162e-22
1.176487333e-22
1.44051382e-21
4.056385958e-21
7.098625049e-21
1.000171505e-20
1.172981501e-22
8.760301747e-21
1.879719306e-21
9.108596736e-21
1.237424247e-20
1.11380213e-20
4.593650479e-21
3.055367836e-21
1.190733317e-20
7.73824076e-21
8.506479315e-21
1.228267344e-21
5.858944606e-21
3.472621896e-21
1.930269569e-21
6.26894776e-22
8.066085099e-22
3.175503719e-21
1.741012035e-20
1.818573752e-21
5.102761933e-22
5.850818474e-21
4.329114842e-21
1.631540642e-21
2.914673705e-21
1.766310129e-21
3.168598189e-20
1.253938587e-20
1.201071769e-21
2.359979334e-22
3.71829509e-21
1.279409918e-21
2.874816092e-21
3.62313034e-21
9.379745337e-21
3.533598099e-21
2.119110497e-20
1.455392704e-21
3.890773344e-21
7.142492015e-21
2.392279706e-21
1.24145392e-21
4.051283785e-21
7.268470886e-21
2.367793805e-21
3.670923254e-21
1.126093045e-20
7.951759997e-21
2.708267832e-21
4.661366378e-21
9.115344417e-21
4.55976852e-21
7.469516948e-21
9.018196105e-21
1.787968976e-21
7.249848828e-21
3.524852534e-22
3.368868548e-21
2.334220538e-21
5.136247222e-21
3.663739211e-21
4.558472232e-21
1.184509466e-22
4.817168416e-21
8.132232899e-21
7.119291657e-21
3.002635849e-21
1.832555436e-22
6.586378694e-21
5.888508963e-21
4.482680625e-21
6.330183828e-22
2.762841366e-22
8.814795948e-22
3.653235205e-22
1.280044884e-22
3.349583952e-22
2.425067025e-20
8.374725303e-22
5.061700945e-21
1.448193031e-21
1.679753105e-21
2.345949507e-20
6.375026645e-21
3.015535261e-21
2.062179858e-21
3.670266398e-22
4.363638108e-21
2.494410552e-21
4.244904536e-21
8.533863295e-21
2.093567501e-21
1.994824266e-20
1.391836918e-20
6.853957568e-21
2.919592261e-21
1.199425134e-20
1.598958666e-21
3.181030445e-21
3.210510353e-21
1.415081344e-21
1.150346274e-20
2.505168036e-21
2.986147961e-21
4.188002034e-21
4.180009219e-21
3.689299523e-21
4.719554513e-21
6.413087475e-21
1.330418022e-21
5.246539709e-22
3.56068941e-21
2.797230921e-21
1.580602804e-21
8.177397396e-21
1.274386773e-21
2.500205619e-21
5.678131964e-21
9.432734326e-21
1.917806303e-21
4.859114628e-21
1.75984579e-20
2.944645329e-21
3.924117494e-22
1.317890138e-20
5.881616735e-22
5.162795095e-21
3.097618977e-21
4.876352658e-21
2.951549822e-21
3.364469632e-21
4.308144997e-22
1.749544584e-21
7.177600381e-21
6.534578491e-21
1.250488022e-20
1.087845325e-20
1.081425097e-20
1.156862018e-20
6.162320018e-22
2.089569842e-21
6.543923889e-21
4.176908254e-21
3.548819718e-21
8.84093433e-21
1.763146143e-21
1.019603123e-21
1.911002076e-21
1.029582678e-21
1.27679103e-20
5.625626485e-21
2.52858337e-22
5.250480044e-21
3.392079503e-21
1.654538029e-21
4.339993915e-21
4.065720785e-21
1.982949109e-21
6.953463995e-21
1.013781441e-20
2.133500661e-20
1.130649252e-21
3.130627534e-22
5.994167328e-22
5.795593075e-22
1.148775318e-21
1.156160299e-22
7.07474714e-21
5.802935928e-21
1.921692357e-21
4.734411019e-21
5.496985556e-22
4.419094399e-21
8.138673592e-22
6.639190156e-22
8.583294283e-21
5.440153164e-21
4.439572459e-21
1.779280012e-20
1.7787735e-21
1.183609628e-20
7.875169204e-21
3.959176829e-23
7.490739963e-21
3.897252973e-21
6.063208229e-21
3.359899995e-21
2.816628274e-21
1.959692541e-21
8.428860848e-21
2.959434396e-21
5.426921266e-21
9.454769909e-21
9.381612764e-23
5.026933484e-21
5.452995282e-21
3.315039713e-21
4.567163045e-22
4.293505014e-22
7.972665965e-21
4.236186877e-22
1.304195544e-21
9.533960278e-21
8.093375868e-22
7.977847229e-22
9.045200127e-22
4.126405174e-21
3.322066641e-22
9.449693806e-21
1.957003429e-21
3.344626206e-22
7.413802621e-22
1.653304063e-20
6.530386996e-22
2.999185414e-21
5.114143903e-21
6.268329283e-21
8.582983967e-21
1.839592756e-21
2.538947765e-21
4.878332048e-21
3.804693389e-21
6.510081962e-22
1.302432459e-20
2.797170431e-21
2.204864775e-21
2.796068139e-21
1.110128156e-21
2.340834673e-21
7.181028602e-22
7.595981865e-21
1.490536788e-21
4.819492483e-21
2.605752836e-21
1.058126986e-21
5.456303217e-21
2.197549573e-21
2.559057797e-21
3.554102103e-21
3.164505713e-21
4.643679611e-21
6.612930595e-22
1.075270051e-21
6.746309557e-22
3.968483274e-22
2.544481324e-21
7.95875206e-21
1.142772125e-20
1.208774816e-20
2.609803733e-21
3.409898433e-21
3.168602678e-21
2.248666475e-21
1.076972705e-21
4.690316737e-21
2.669798664e-21
1.161707684e-21
1.490470803e-21
4.762714479e-21
4.65908631e-22
3.523252432e-21
1.321079333e-21
2.381008435e-20
4.76692448e-21
6.289249041e-22
6.314159669e-21
7.842556021e-22
4.819261351e-21
1.534337761e-20
1.847982268e-21
1.783374543e-21
1.2795211e-20
5.545024364e-21
1.290130829e-20
9.572702153e-21
2.144396524e-21
1.890394865e-20
1.693172393e-22
6.565568751e-21
5.341120853e-21
1.296124172e-20
1.61868281e-21
2.406868012e-21
1.537431338e-20
6.333453209e-22
3.625577167e-21
3.617726749e-21
1.59305072e-21
7.812939767e-22
1.018227563e-20
4.724590772e-21
2.945590781e-21
3.084787024e-21
1.954658788e-21
8.3829779e-21
1.211676712e-21
2.525161823e-22
1.567261519e-20
1.048642496e-20
9.74919642e-23
5.38874354e-21
3.407477417e-21
6.551301311e-22
3.550477821e-21
2.902979206e-22
4.799007851e-21
1.204805947e-21
1.434050146e-21
4.521273018e-21
7.399130995e-21
1.710142026e-21
1.402209134e-20
6.119364712e-21
7.025073977e-21
6.729059837e-21
4.741965237e-21
1.493885221e-21
4.431799931e-21
3.81032027e-22
2.198543179e-23
2.901215081e-22
1.198132459e-20
5.530987076e-21
4.42473812e-21
1.007044755e-21
4.924769231e-21
6.636000736e-22
1.185859417e-21
3.279666003e-21
1.588606377e-21
4.675012532e-22
1.710632811e-21
4.889896255e-21
9.781046536e-21
3.591748687e-21
1.735866053e-21
2.337502148e-21
1.499282524e-21
3.794336462e-21
8.691786831e-22
7.592789217e-21
1.657764045e-21
2.746673615e-21
1.653632364e-22
1.623333396e-20
1.755611728e-21
3.032246877e-21
6.46659311e-21
2.169233184e-21
1.353782005e-20
1.229087771e-21
6.672316471e-22
7.454810584e-22
6.835229448e-21
2.999100078e-21
1.199789758e-20
1.062345778e-20
9.102774858e-22
1.890408237e-21
2.362428607e-22
9.541947046e-21
3.026053054e-21
4.600534589e-21
1.264856833e-20
1.127465939e-20
3.397283396e-21
5.88457395e-24
1.39026292e-21
6.472711086e-21
6.675934316e-21
1.939006844e-21
4.703202469e-22
1.52417645e-20
7.666648503e-21
3.215605374e-21
3.0838161e-21
1.55868468e-22
1.068453468e-21
5.577577357e-21
1.638005954e-21
5.561091364e-21
3.846325946e-21
7.017479515e-21
1.489155177e-21
5.089579922e-21
9.104113853e-22
9.16952081e-21
5.314630928e-22
6.096785096e-21
1.561649165e-21
1.927429686e-21
1.969447222e-21
2.501030597e-21
7.685505512e-21
3.944743222e-21
1.631870718e-21
6.210078873e-22
7.759225422e-23
2.789173173e-20
1.145970336e-21
2.720934076e-21
6.045746583e-21
3.842953378e-21
5.920964075e-22
3.687793325e-21
2.559731898e-21
8.301541208e-22
6.22668359e-21
2.349083954e-21
1.921668937e-21
8.837396736e-21
7.824745474e-22
4.037553725e-21
6.181542027e-21
1.057615609e-21
1.04921411e-20
1.933767127e-21
2.504184279e-21
3.39332022e-21
8.789111584e-21
9.994655817e-21
2.451667261e-20
1.791377949e-21
1.306473631e-21
2.736893336e-21
8.889137385e-22
7.001402694e-21
4.993728637e-21
4.852975148e-21
1.585005301e-21
3.827560004e-21
6.08451206e-21
8.443547532e-21
1.005882227e-20
7.785350322e-21
1.745366441e-21
6.675484755e-21
6.538308773e-21
5.307589221e-21
4.792298362e-21
3.587886074e-21
7.078692845e-21
1.662814439e-20
3.208375848e-21
2.26702245e-21
5.373429783e-22
7.95195791e-22
3.201668005e-21
5.502360198e-21
3.79939787e-21
1.868597356e-20
1.067229003e-21
6.850326591e-21
8.168222192e-21
3.567329783e-21
1.332082339e-21
3.363016267e-21
1.316633668e-21
1.84921242e-20
8.657722464e-22
1.10753577e-21
1.377157773e-20
4.925356362e-21
1.432738672e-21
1.195855952e-21
1.131451179e-21
6.298281392e-21
2.08639607e-21
5.462373655e-21
1.514889671e-23
4.424368696e-21
5.036629294e-21
1.529392181e-20
1.497240751e-20
6.919389641e-21
7.438264233e-21
1.45967542e-20
2.756080501e-21
5.250210143e-21
1.433456994e-21
1.65646118e-21
4.048350501e-21
1.259095713e-20
4.299213184e-22
1.827461802e-21
1.962056764e-21
1.148158139e-21
4.0584599e-21
3.38018641e-21
5.171326556e-22
1.009110659e-20
4.819533096e-21
1.13774707e-21
4.060921704e-21
2.2610624e-21
1.121153964e-20
6.98655628e-21
3.169434017e-21
2.690672545e-21
2.527095936e-21
1.285077328e-20
2.1419501e-20
1.514543112e-21
3.194925476e-21
1.87515398e-20
5.69127686e-21
5.289756791e-21
6.072110433e-21
1.204980579e-20
2.616983355e-21
2.571304749e-21
6.472145629e-21
5.41709809e-21
2.73958617e-21
4.99730872e-22
6.196088403e-21
5.692843418e-21
3.055489516e-21
3.302446987e-21
1.190404632e-21
8.393070448e-21
1.049546711e-21
2.579390704e-21
2.166457494e-21
1.640385155e-21
8.982864999e-21
3.400313002e-21
7.616046829e-22
5.937793445e-22
2.726856421e-22
1.822868152e-21
1.116896655e-20
8.925094166e-21
9.309294098e-22
3.225564999e-21
1.232455427e-21
7.619035762e-24
6.148444251e-21
2.186221406e-20
4.630090944e-21
8.911731021e-21
6.653356946e-21
3.023908246e-21
9.046262931e-22
5.152888351e-21
1.125966407e-21
1.268236126e-20
5.044023664e-21
8.918199598e-22
2.44991767e-21
2.166941365e-21
8.916458349e-21
7.039923421e-21
7.759906e-23
8.414786347e-22
6.084726053e-21
1.354763532e-21
7.658479091e-21
2.52691348e-22
1.632799852e-20
9.124196639e-22
4.064214308e-21
2.051186946e-22
2.709192477e-21
3.519575329e-21
6.101260718e-21
1.146549279e-20
1.111271197e-20
8.353123095e-22
7.678098899e-21
1.372944266e-21
4.655046061e-21
5.46701391e-21
8.309317516e-21
2.429555102e-21
2.146069886e-21
4.569141964e-21
1.112775924e-20
1.348552764e-20
1.331541786e-21
1.199272781e-21
1.202748555e-21
3.849931656e-21
4.128288093e-21
1.714084414e-21
2.405133695e-21
9.237566832e-21
8.493704189e-21
1.126352925e-20
1.471858047e-22
1.612421886e-20
3.37280897e-21
1.784861255e-21
6.65030239e-21
2.557414711e-21
7.173067422e-21
1.620286901e-22
2.918203512e-21
1.188271625e-21
4.665412383e-21
9.531236462e-21
1.375495176e-20
1.288300829e-20
4.562422812e-22
3.50752776e-21
2.059471168e-20
6.661593491e-22
3.664135655e-21
7.770897527e-21
1.080555589e-20
7.011037866e-22
7.984254411e-21
1.9595546e-21
1.591853673e-21
4.714915245e-23
3.096574765e-21
6.883565705e-21
2.176019175e-21
3.392588107e-21
3.739023933e-22
9.814820121e-21
1.904629694e-21
2.200737393e-21
1.923155365e-20
4.357373326e-21
7.247610974e-21
1.225273863e-20
6.807695995e-21
6.635590673e-21
3.034118432e-21
4.33018821e-21
1.087593946e-20
2.032246852e-20
9.609047878e-22
2.788249587e-20
3.852826015e-22
6.083577041e-21
1.131754469e-21
9.696528255e-21
6.380832359e-22
9.46327707e-21
4.453695083e-21
3.703808701e-21
2.189087878e-21
8.97596017e-22
3.121518398e-21
1.044319244e-20
3.694455124e-21
2.804783045e-21
6.358993966e-21
6.224740953e-22
4.055308526e-21
3.548237175e-21
2.096383631e-20
3.504045879e-22
1.93778327e-21
1.458388957e-20
1.569514963e-22
1.674604817e-20
7.656686869e-21
8.16317499e-21
1.361153023e-20
6.171286888e-21
7.542321051e-21
1.899123376e-21
7.245906542e-23
5.492268553e-21
7.707845911e-22
2.632934279e-21
1.159320978e-21
1.179826563e-21
2.083443479e-20
1.450912234e-20
1.772349331e-22
2.113591367e-21
2.063772532e-21
8.743279872e-22
1.922440219e-21
1.521441301e-20
3.295681406e-21
4.060480602e-21
4.453707802e-21
4.200288667e-21
2.419243203e-20
4.217410489e-21
1.060504118e-21
1.086229472e-20
8.468477412e-22
2.925595598e-22
1.205639651e-22
1.89821622e-22
5.62261219e-21
1.807034254e-21
3.325299145e-21
1.576871896e-21
3.866652332e-21
1.323985766e-20
1.024378691e-20
1.435131174e-20
2.230151022e-21
3.256020848e-21
2.295307057e-23
4.488752639e-21
8.254284913e-21
5.907681848e-21
2.594850805e-22
1.769186339e-21
4.394696269e-22
4.022595499e-22
4.578077544e-21
1.913711625e-21
1.599368906e-21
5.883703045e-22
1.105547677e-21
5.196492068e-22
2.367480505e-20
1.885433151e-21
1.559485772e-21
7.214688948e-21
9.772440752e-21
1.159461564e-21
6.498321702e-21
3.441092422e-21
9.378151222e-21
1.24790781e-21
4.958748164e-21
2.574277277e-21
6.442337146e-21
1.080307888e-21
4.047811381e-22
7.288416023e-21
6.403738366e-21
5.830845842e-21
5.672258995e-23
1.157499828e-21
3.529152603e-21
1.812680915e-21
4.059216375e-21
2.417678105e-21
1.783910422e-21
9.125999751e-22
6.29539379e-21
5.693729443e-21
7.262823271e-21
7.32087084e-22
2.349589074e-20
3.827991398e-21
1.131748902e-21
1.250485654e-21
4.950307389e-22
1.057660377e-20
7.07642249e-21
7.678769026e-21
9.214055721e-21
1.28641128e-21
3.799538026e-21
2.740189376e-21
1.880779057e-20
2.400137344e-21
3.916817334e-21
2.363791092e-21
6.754652029e-21
1.067556978e-20
1.00161241e-21
1.492863122e-22
1.545676725e-21
1.387768495e-21
8.942409349e-22
1.617419571e-21
8.545599897e-21
1.069354397e-20
2.185548665e-21
1.477372426e-23
1.015882731e-20
3.820574454e-21
1.749268614e-21
1.746503545e-21
7.50754656e-21
1.278992543e-21
4.721105021e-22
1.970341495e-21
3.02152589e-21
3.907520071e-22
9.108940897e-21
1.916157921e-21
1.317526976e-20
1.929030759e-21
1.588872474e-20
2.69038909e-21
5.078317939e-22
6.138167279e-22
2.344696114e-21
1.914769234e-20
9.851657413e-21
9.872569622e-22
8.376516668e-21
1.285523011e-20
1.080031572e-20
1.159509571e-21
7.89392246e-22
7.248318308e-21
7.159359159e-21
5.416223117e-22
3.184553185e-21
5.299861986e-21
9.037314535e-21
1.391886221e-21
1.256412746e-21
3.523706696e-21
8.615896956e-22
3.921465359e-24
5.884613688e-22
3.334066123e-21
8.043268523e-21
9.697010342e-21
1.933428476e-21
3.155260063e-21
5.302904372e-21
1.028630373e-21
9.262318533e-21
7.226386234e-21
2.681128292e-21
3.222117737e-21
4.093794015e-21
4.574962532e-21
1.556887058e-21
4.778749277e-22
1.338004987e-21
2.936524732e-21
3.961426291e-21
6.119261721e-21
5.833307019e-22
8.022322031e-22
7.927615927e-21
3.926330494e-21
5.795781003e-21
3.905874396e-21
4.573854735e-21
5.728425658e-21
1.528910696e-21
2.01555443e-22
8.53053027e-21
3.482101708e-22
3.166183367e-21
2.159690237e-21
9.576622475e-21
4.256541126e-21
2.469630155e-21
6.181387601e-22
2.287157257e-21
2.68582383e-21
3.373469767e-21
3.560012297e-21
7.401717203e-21
1.831721618e-21
3.016207641e-21
1.172031221e-20
4.627878919e-21
1.642553567e-21
6.326955516e-21
8.659915489e-21
2.103632127e-21
6.279674726e-21
7.296101963e-21
5.78248744e-21
3.255946999e-21
6.9878756e-21
1.585264364e-20
7.9571114e-21
4.421744694e-21
2.803011816e-21
6.114468097e-21
1.273700356e-21
3.603478403e-21
4.013976651e-21
6.560552332e-21
6.243684836e-21
6.144809282e-22
3.193046014e-21
1.933171509e-21
1.438949885e-20
1.525252339e-21
1.248770604e-20
2.9400722e-21
8.994648308e-22
5.586962923e-21
1.295780284e-20
1.76261476e-21
5.939125146e-21
4.037902914e-21
6.950896246e-22
8.775792423e-22
6.186000552e-21
1.75900416e-21
6.307727911e-21
2.587854566e-21
6.675578132e-21
8.824975921e-22
2.172463272e-21
3.751560993e-21
1.369993361e-21
1.209089034e-20
4.58807588e-21
1.392799562e-20
1.483207034e-21
7.360674169e-21
2.246785768e-21
1.95678561e-20
1.486023138e-21
7.737527941e-21
2.231003961e-21
4.958070206e-21
1.768149713e-20
2.507913815e-21
1.486253401e-21
2.232092925e-21
5.91138544e-21
2.767184355e-21
3.412195571e-21
3.712967203e-21
1.267171889e-21
8.180494844e-22
8.708612517e-22
1.062852298e-21
8.56605912e-22
9.989529178e-22
1.047333146e-21
2.519239564e-21
4.862655893e-21
3.41554446e-22
2.663585678e-21
4.104694471e-21
9.043605824e-22
8.859723748e-22
2.731023195e-21
3.632387081e-21
2.170657283e-21
4.686246307e-21
5.445533626e-22
2.65299193e-21
2.058049879e-20
2.770253441e-22
1.609099566e-21
9.833801355e-22
9.862693566e-22
2.591617216e-21
5.17127312e-21
1.87928511e-21
3.31728556e-21
2.758178004e-22
5.037496448e-21
1.598146181e-21
1.379813298e-21
6.00163348e-21
2.06626114e-22
4.156321054e-22
1.360867026e-21
2.668686244e-21
2.829994701e-21
1.164946489e-20
7.781495587e-21
3.325967254e-21
2.310319098e-20
1.99068489e-20
1.694561902e-21
3.657520136e-21
4.903495106e-21
2.336047607e-21
1.771001749e-21
2.634773916e-22
1.195235997e-20
5.05759986e-22
1.317619307e-22
1.139202016e-21
8.982528797e-21
1.564574164e-21
5.649572819e-21
9.11551564e-22
4.806556812e-21
1.237134172e-20
5.178760453e-21
3.895836875e-21
1.994046511e-21
2.357501936e-21
4.855870274e-21
9.128320633e-21
4.308349512e-21
2.957902547e-22
9.318494072e-22
7.196460024e-21
6.363212954e-21
8.621210231e-22
1.638491702e-21
1.651041217e-21
1.414481586e-20
2.160857902e-21
7.599966375e-21
2.210562667e-21
6.73695186e-21
2.27441953e-20
4.526115116e-21
6.099462255e-21
4.286166449e-21
3.576364639e-21
1.222852923e-20
7.419793463e-21
2.117801165e-20
1.386560874e-20
2.157630973e-21
6.593666716e-21
2.328655252e-21
1.464950588e-21
5.998497871e-22
6.537842738e-21
3.433717479e-21
1.315296969e-22
1.325888841e-20
3.903060901e-21
1.553974227e-21
4.752023304e-21
6.076025191e-21
1.056611538e-21
1.376881091e-21
1.773390211e-23
2.124415869e-21
1.222029984e-21
1.271112599e-21
8.280659151e-23
4.312616911e-21
3.102188202e-21
2.783848066e-21
5.525386962e-21
2.429406884e-21
1.714074167e-21
1.319795763e-20
2.137683528e-21
2.890946807e-21
1.582819377e-22
1.370981939e-23
7.565264322e-21
1.324335431e-20
1.530474263e-20
6.523850788e-21
8.127166098e-22
3.02087453e-21
2.513470501e-21
1.304206544e-21
1.677555715e-21
8.108589442e-21
6.387670259e-21
4.926666706e-21
1.898015622e-21
8.561021315e-21
1.332002511e-20
4.546264496e-21
4.239747044e-22
1.889048575e-21
2.259745256e-21
2.069466316e-20
1.545862393e-21
3.039475271e-21
1.90187176e-20
7.633875312e-21
3.185609886e-21
1.025651199e-21
1.80350858e-21
4.115304474e-22
4.753722787e-21
1.377377114e-22
1.180921439e-21
5.609783597e-21
1.717786577e-21
1.508566073e-20
8.819621439e-21
2.838573222e-21
2.283502898e-20
1.913921166e-21
1.312328991e-20
3.189942571e-22
6.365212529e-22
3.637666122e-22
2.949243294e-21
5.076162376e-22
3.30931346e-21
8.07022043e-21
3.021956328e-21
2.270247943e-21
1.085168793e-20
5.243433494e-22
6.282173012e-21
1.558646237e-21
3.00425141e-21
8.618979647e-22
3.31530356e-24
2.572566038e-21
4.030069454e-23
9.956501519e-21
2.151893716e-21
3.993530723e-21
1.586573219e-21
9.340610278e-21
5.589557799e-21
4.35014104e-21
1.613687095e-21
1.581422757e-20
4.850291628e-21
1.35323712e-22
1.103345381e-21
3.786208699e-21
8.498083307e-21
1.728306709e-20
9.764310284e-21
6.295600408e-21
4.263391355e-21
1.21603292e-21
1.064580984e-22
1.339697728e-21
1.491684982e-20
5.080198782e-21
5.61050176e-21
7.842262223e-22
1.489365761e-20
5.346956477e-21
3.761327348e-21
6.669015279e-21
1.350414404e-20
9.040834065e-21
2.544069713e-22
1.360806803e-21
3.488026232e-21
9.809027787e-21
2.980613462e-21
6.091323428e-21
1.49068155e-20
8.536145859e-21
7.587684162e-22
2.82149491e-21
2.125405517e-21
5.309173224e-22
4.294790539e-22
2.190084894e-21
2.151282988e-21
8.239194009e-21
4.350793961e-22
1.409016321e-20
1.615348637e-20
6.85648768e-21
3.331813983e-21
2.708697986e-21
6.653719216e-22
1.404739614e-21
3.702515101e-21
1.244403463e-20
6.118512655e-21
7.281528591e-21
3.244393111e-21
1.453725723e-21
9.642734123e-21
2.762760489e-21
2.909327372e-21
1.261594757e-21
1.365766268e-21
1.06292186e-21
7.782366099e-21
1.224599182e-20
5.085506087e-21
4.713914556e-21
8.006686813e-22
5.198334246e-21
2.287093771e-21
3.053882238e-21
1.284036836e-21
4.25020345e-21
1.065110467e-21
9.922186654e-21
2.042087539e-21
3.745699733e-21
4.442580288e-21
8.102372529e-21
7.349064065e-21
3.584616347e-20
4.197932555e-21
8.814649406e-22
2.151525173e-21
4.731248086e-21
8.303851691e-21
3.027729684e-24
5.473025123e-21
9.313553728e-21
1.102819909e-21
6.135191209e-21
1.821209105e-20
6.380579317e-21
3.476575987e-21
1.109782968e-22
7.364360363e-21
1.025394471e-20
6.899513981e-22
2.219403044e-21
2.613455035e-21
5.852226202e-21
1.026079237e-21
6.868899456e-21
5.708123744e-22
1.95367542e-21
4.202257333e-21
1.764441523e-20
2.105346568e-22
7.987251401e-21
1.134498141e-20
1.482836802e-21
3.717420586e-22
9.594867493e-22
5.162494899e-21
1.746205857e-20
4.672224957e-21
2.021357912e-21
2.666931654e-21
5.579873973e-21
1.39821033e-20
9.290560506e-22
5.972349628e-21
1.029775338e-20
3.051948104e-20
2.741708429e-21
9.930410281e-22
1.004222595e-20
1.41736949e-20
3.732083277e-22
1.302300773e-23
2.530398449e-22
4.301326958e-21
2.231685462e-22
3.247569173e-22
2.282139726e-21
1.138018341e-21
4.303651699e-21
2.95953898e-21
6.989205693e-23
2.257602782e-21
2.459125892e-21
2.012437474e-21
1.809074023e-22
6.547311685e-22
1.349045083e-21
1.046560608e-21
4.647425355e-21
1.585977054e-20
1.938143522e-20
1.080984341e-21
3.50899251e-21
1.716526418e-20
1.886638148e-20
4.227605346e-21
1.596480545e-20
5.716340978e-22
4.579189942e-21
3.880223869e-21
1.570275059e-21
1.659223073e-20
1.657070289e-21
2.608170463e-21
8.780861932e-21
6.677531187e-21
5.524355124e-21
1.866772029e-22
6.814683403e-22
5.852535495e-22
2.601855526e-22
8.197515413e-23
2.358713809e-20
1.471130314e-20
2.960743879e-21
9.713881792e-21
9.526996538e-22
1.123664588e-20
1.136725595e-21
3.589478162e-21
7.114845084e-21
3.22108563e-21
1.934108901e-21
2.932277614e-21
1.108001371e-22
2.634717142e-21
2.236268947e-20
1.849057651e-21
4.171176836e-21
1.969414196e-21
4.826019667e-21
3.870908093e-21
7.187974983e-21
9.163974368e-22
2.185744582e-23
1.104713183e-21
7.330596316e-22
7.140068943e-21
6.553524657e-22
3.142278389e-21
2.007970707e-20
8.04528404e-21
2.978687354e-22
5.743445432e-21
6.882124709e-21
6.503494273e-21
2.074453096e-21
1.121791528e-21
3.195980318e-21
6.237881976e-21
4.27117522e-21
9.005468722e-22
6.798346151e-21
1.623318236e-20
5.678791892e-21
1.729091713e-21
3.299652611e-22
4.604874374e-21
8.187159749e-21
2.672212599e-21
6.49467974e-21
4.508223822e-21
5.76623983e-21
2.043446765e-21
3.836952669e-21
9.950657109e-22
3.423826047e-22
3.665470017e-21
7.221372851e-21
3.445780705e-22
1.98118724e-20
3.418658018e-21
1.027225379e-21
1.031722341e-21
6.785619966e-22
8.17477708e-21
8.025384423e-21
3.050268413e-21
2.326743814e-21
8.005679164e-22
8.778257594e-22
8.150980195e-22
3.153717473e-21
3.985687885e-21
1.128375456e-20
5.372239844e-21
1.303062258e-20
3.148985022e-21
4.163074008e-21
8.664324142e-21
1.103745085e-20
4.113317923e-21
1.299546343e-20
1.103566828e-21
3.005062957e-21
2.898680697e-21
8.123806031e-21
2.106585942e-21
6.384628258e-21
1.397677982e-20
4.812739407e-22
1.422080263e-21
4.41848601e-21
1.11927628e-21
2.082895586e-21
6.531385476e-21
1.057945682e-20
2.311369295e-21
3.145758386e-21
8.63207841e-23
1.731179925e-22
5.717151309e-21
6.323109618e-22
7.137959713e-22
6.540352521e-21
1.228827151e-20
3.865822679e-21
2.01918575e-22
1.241014006e-21
2.208264715e-21
1.704481429e-22
1.332969452e-21
5.840566364e-21
2.86280251e-22
2.47161379e-22
1.98390388e-20
1.249245227e-20
5.162311112e-21
1.027244385e-20
2.943492269e-21
8.687056734e-22
3.904948378e-21
1.259368509e-25
1.747731458e-21
6.98260006e-21
1.676682488e-20
8.09349803e-22
9.68170366e-21
2.706610613e-21
1.917810005e-21
5.459520846e-21
8.55799354e-22
2.292608615e-21
1.364073907e-21
2.433419492e-21
1.917618633e-20
3.850203456e-21
1.482408075e-21
6.255174789e-21
2.897136667e-22
1.653340916e-21
1.086330283e-21
3.074718805e-21
3.360228611e-21
5.852998754e-21
1.113001239e-20
4.782890422e-22
9.123183302e-23
6.707735406e-21
4.020107971e-22
1.234995275e-21
8.335251669e-22
2.654989712e-21
2.560621531e-21
1.360634872e-20
4.881759863e-22
3.671959995e-21
1.238633588e-21
2.805369345e-21
2.725098703e-21
5.795040759e-21
1.894631491e-21
4.618075092e-21
1.289735951e-20
3.682470145e-21
6.120647021e-21
6.433353749e-22
4.393747297e-22
7.090313832e-21
3.423637199e-21
2.18981538e-20
1.215152382e-21
7.434631757e-22
4.510306899e-22
7.526839984e-21
2.816642838e-21
1.212881948e-20
8.477149557e-22
1.235256633e-21
4.992899831e-21
3.994552011e-21
2.84540089e-21
6.697288802e-21
1.194351971e-20
1.660923507e-21
5.606007822e-22
1.234025266e-21
1.198306723e-21
3.841880309e-21
1.243570429e-20
2.009920793e-20
3.148195883e-21
1.012048656e-20
7.67998651e-21
3.703987677e-21
4.619703103e-21
1.534146247e-20
2.799844903e-21
1.493106636e-20
7.336982834e-21
1.185977755e-21
2.572451622e-21
3.966515091e-21
6.785369371e-22
2.261760239e-20
1.3680233e-21
2.884633327e-22
7.351295079e-22
5.712159533e-21
8.293213371e-22
2.259079994e-21
1.109783184e-20
3.529858376e-21
2.628034473e-21
1.197948115e-21
4.722004642e-21
6.227097223e-21
8.953403317e-21
9.786629858e-22
3.655005862e-22
3.062403141e-21
5.522337029e-21
6.399871218e-21
4.89200817e-21
1.731125393e-20
4.827759326e-21
6.868316704e-21
3.237846592e-22
3.815139513e-21
2.407087412e-21
1.067803372e-21
3.35689304e-21
8.929670279e-22
6.728198336e-22
9.535971513e-21
3.364915977e-21
3.02531961e-21
9.346607079e-21
1.149001055e-21
1.988949616e-22
5.87004859e-21
5.923344731e-21
1.835137975e-21
1.837457663e-21
2.084879831e-20
5.162796908e-22
8.246746508e-21
5.460051035e-22
1.758452374e-21
3.959145525e-21
2.304582917e-21
3.810428473e-21
2.835690892e-21
7.616326812e-22
1.820317468e-21
5.091722118e-21
1.366135627e-21
2.109615075e-21
5.313926395e-23
1.429457297e-21
5.402239573e-21
1.065793303e-21
2.302070655e-21
2.020445516e-20
3.162090989e-21
5.797796917e-21
3.049870943e-21
2.127876743e-22
1.998660638e-21
4.205611911e-21
6.215058759e-22
1.052235163e-21
2.628660335e-21
7.630098109e-21
2.298469746e-22
6.997023455e-21
6.629311633e-21
1.141259601e-21
4.868907766e-21
1.580252653e-20
4.711806173e-21
2.000936751e-21
7.071616741e-21
3.525702257e-21
5.857258697e-21
6.725693769e-21
2.526970702e-22
4.52633374e-21
1.010615793e-20
4.288624934e-22
4.359450584e-21
1.210269806e-22
2.103992995e-21
5.838958719e-21
5.439423415e-22
5.098533729e-21
2.147398786e-21
1.196518097e-22
1.068955938e-21
2.104699918e-21
1.469298824e-21
9.106236313e-22
5.688343917e-21
1.419432427e-20
2.245351701e-21
4.179085705e-22
7.128288403e-21
9.430716198e-21
2.302857065e-20
2.088399633e-21
3.124705942e-21
1.372290665e-20
6.860540841e-22
2.055434474e-21
1.557405211e-21
6.408293246e-21
6.638608095e-21
5.0491975e-21
8.301711272e-21
1.238940572e-20
1.775959412e-22
4.524288171e-21
2.797994891e-22
6.884794695e-22
4.903152077e-22
6.016110276e-21
1.487183033e-21
1.085042894e-21
5.293951722e-21
2.08388473e-21
2.932151341e-22
3.639857384e-21
2.517612245e-21
1.598562316e-21
3.258584874e-21
1.326032002e-20
2.532921656e-21
4.526740272e-23
1.143265852e-20
8.578402721e-21
1.618063304e-21
2.704985286e-21
7.653660873e-21
7.637450948e-21
2.784696087e-21
2.686891703e-21
1.497195851e-20
2.113817898e-20
1.096749765e-21
4.943958292e-21
4.321156599e-24
2.332845725e-21
3.778371419e-21
5.66966792e-21
1.253105687e-21
7.13551211e-22
1.670856285e-21
6.453031469e-21
3.329187661e-21
4.360516052e-22
5.330279811e-21
2.794944825e-22
2.005676175e-21
4.454515131e-21
3.257319873e-21
3.323939994e-21
1.316636473e-21
7.758759287e-21
3.387301381e-21
1.467064671e-21
9.856230271e-21
7.042537825e-22
5.086929797e-21
1.085448763e-20
1.120947109e-20
7.749096098e-21
8.808513365e-21
1.070998149e-20
1.509828663e-20
4.510109246e-21
1.943908989e-21
2.468676141e-22
5.584303317e-21
1.430411553e-23
1.66179765e-21
1.215106221e-23
5.013334508e-21
3.628022838e-21
1.337700002e-20
2.523388228e-21
4.92462521e-23
2.738592998e-21
1.099774845e-21
1.252111887e-21
3.066809384e-21
1.188700838e-20
6.130912271e-22
4.376445339e-21
1.00109249e-22
7.690927961e-21
3.804085341e-21
9.650030892e-21
1.081177284e-21
3.992587345e-21
1.398317374e-20
2.586198414e-21
7.69456416e-21
1.015887356e-20
3.182951053e-21
1.866319797e-20
1.580596177e-21
1.712902404e-21
1.07357829e-20
3.213148071e-21
6.731174188e-21
3.266658379e-22
2.850842687e-21
3.28935667e-21
5.27978732e-22
7.514383475e-22
2.644071945e-21
1.757583069e-21
2.282146675e-21
6.906963892e-21
6.219014723e-21
6.361974742e-21
1.668186433e-20
1.205658959e-20
7.601380479e-21
1.27387213e-21
1.201733829e-20
1.05237902e-21
4.375850369e-21
4.513596577e-21
2.207083037e-20
3.50913095e-21
8.829846891e-21
5.138999527e-21
1.786190541e-21
1.99200383e-21
1.051198964e-20
5.263530851e-22
1.12564795e-21
4.724140287e-21
4.794497513e-21
6.344738615e-22
2.120181978e-21
5.593466103e-21
1.639814037e-21
5.58410546e-21
1.011974637e-21
7.981337956e-22
3.608413859e-22
6.744855168e-21
1.210242005e-20
5.148446172e-21
6.108984487e-22
3.38598883e-20
9.335032947e-22
3.046161382e-21
4.718984996e-22
8.652064257e-22
1.923741049e-22
7.302056037e-21
5.250850206e-22
4.138061017e-21
1.036263483e-20
6.911035066e-21
5.085685781e-22
4.272427625e-21
3.349340609e-21
1.147815669e-20
4.487286499e-21
1.506860948e-20
2.609675563e-22
1.227577505e-20
1.118666764e-20
2.595540182e-21
7.32707322e-21
1.867497559e-22
3.199789547e-21
4.995656355e-22
4.863339074e-23
1.75916066e-20
1.352677527e-20
1.113033744e-20
5.401360861e-22
9.515893562e-21
1.697227917e-20
2.552032595e-21
8.146541177e-21
1.96979583e-21
1.737263241e-21
8.394961362e-21
1.588311036e-21
4.555543989e-22
8.016708043e-22
7.668192528e-21
2.643836189e-21
9.134644345e-22
6.325269449e-21
1.041239314e-21
4.661573754e-21
3.517712746e-21
8.338825299e-21
2.407328176e-21