/*--------------------------------*- C++ -*----------------------------------*\
  =========                 |
  \\      /  F ield         | OpenFOAM: The Open Source CFD Toolbox
   \\    /   O peration     | Website:  https://openfoam.org
    \\  /    A nd           | Version:  7
     \\/     M anipulation  |
\*---------------------------------------------------------------------------*/
FoamFile
{
    version     2.0;
    format      ascii;
    class       labelField;
    location    "0.006/lagrangian/dsmc";
    object      origId;
}
// * * * * * * * * * * * * * * * * * * * * * * * * * * * * * * * * * * * * * //


5450
(
10002
11242
9463
18209
17216
10349
19219
19344
19955
20064
20183
12622
6063
21417
21595
21622
10599
22550
16537
19266
23033
11499
23512
23529
7507
23614
24108
21558
24143
14355
19109
676
20078
13566
25078
25097
25937
19697
25912
26017
26037
7063
26341
12616
26400
26621
26654
26719
10380
5934
8266
18116
27070
27080
27097
10555
16293
27366
27612
8602
27713
27826
27928
27958
6806
28085
23981
26321
7686
7292
23524
21011
29786
28667
14846
28865
28900
28933
28941
28946
18977
27999
28999
13004
16229
29062
29066
29086
29109
29229
29264
16486
29286
29325
29401
29445
29563
25026
20820
29806
24756
32095
18326
29891
15123
28353
31447
30120
25763
30218
7939
30301
19872
26267
11752
7511
8160
30476
16570
30674
29123
5570
22408
30821
30861
25457
30907
22773
6383
30943
8851
30960
14089
30979
31014
31022
23293
31032
31038
29892
31088
20148
18328
31121
31149
23560
31190
31194
31224
7071
31283
31292
31310
31325
19896
32548
31468
31513
24657
31482
31617
19472
31641
27047
24737
31666
31679
31692
10746
29284
31697
18684
10124
31768
29234
31847
31882
31921
31924
29812
31944
31953
31954
21469
32047
32057
32072
32079
24181
32083
32100
6734
7516
28622
23430
32165
9139
34890
32198
22857
30846
8928
31145
28080
32280
30174
10170
18432
9359
32345
32379
10015
34767
29281
16250
9415
9038
32511
32519
14073
32544
9450
8026
23601
32638
7104
25676
32668
31784
32679
30351
17484
32741
12752
25561
21189
28880
32862
24977
32885
11275
32913
32915
32941
32952
9849
1284
33513
32992
5804
8565
7923
34749
33095
23992
33133
33145
24332
33174
33200
29758
9177
33266
2832
22089
21571
25226
29716
33350
33391
33402
33405
33440
15364
17699
33482
33484
33486
19724
31153
10959
33525
30198
33570
33571
33578
33608
33629
30611
33645
33656
33660
33685
33686
21841
26241
33721
4412
33733
33738
23217
33781
19970
29254
33881
11432
12507
20378
29485
33935
27332
24491
10466
33995
11591
28564
6964
27128
13059
34112
9390
34543
26975
34177
34191
31289
20599
34238
17345
6902
34278
34279
34288
34302
32240
34304
36482
29988
34361
4918
34410
16767
16761
34418
34444
34455
34471
32743
26960
34494
23929
34513
26767
29695
34533
25704
37207
6163
37196
34580
34594
34604
34609
34617
34618
34639
30381
36646
34660
34661
10937
20892
34675
18136
6718
31502
34703
34719
34736
34737
34740
34742
34744
34747
34767
34779
34783
34785
34792
34826
34832
10011
34852
32141
34870
28767
8570
34910
34832
36813
34935
34946
34947
35140
34951
34961
34975
34978
4713
16839
34988
32535
29049
34997
35004
10766
30445
31425
36610
35050
27824
15934
38281
18996
35079
35081
11540
35101
36294
35104
26379
22184
35151
35171
14451
35180
35190
35194
33764
35196
35219
9563
35226
10109
35247
31836
6857
35255
18131
33729
35264
35273
19145
35289
35297
35317
35320
35322
27446
33749
35331
25340
35364
22388
35727
34891
35382
35404
29977
28276
7357
35437
35441
32176
25359
35481
15101
20194
35493
35498
35500
30387
20642
27627
35545
35549
34380
35584
35596
35599
35612
17665
36166
35625
35631
35636
35643
1235
34914
34379
35687
29645
35702
29898
420
35723
35724
11475
14846
13850
33243
35743
35779
15348
31590
33181
35804
35805
18509
24455
35819
35822
35825
35835
8339
1585
35844
38694
11631
35869
36776
34990
35889
35895
16623
35757
22813
21323
25197
35932
35939
35949
34780
29213
35964
36035
26313
36049
26025
16850
12134
13536
36077
36081
20208
6957
36095
18501
22475
36141
36170
36187
36189
23448
36199
7260
19190
36574
36205
36209
19612
11025
36219
24964
19534
37070
28415
18398
36256
36259
10408
36271
36290
36300
31841
30096
36313
26389
36325
36326
36341
29934
6592
18777
36372
29131
36391
36401
36409
7120
15365
9552
22596
36427
36430
36431
36452
29422
36454
36455
36461
5440
36480
30222
36484
36497
31898
27012
30091
36516
36522
36527
6687
18253
7433
36540
36554
36555
9812
29744
36564
36566
36583
31991
36612
26412
36613
36620
40037
30443
36646
36652
22557
36657
36662
36667
36693
36670
8190
5605
38035
33197
22519
36697
36703
36707
37757
36717
36724
17842
19431
36737
36738
36743
10521
36758
36762
36766
36768
33501
36777
36784
36792
32562
36803
36812
13002
36839
36840
35253
29608
36845
36851
36869
16747
18334
9644
36889
36893
11153
22951
5161
36909
36914
36915
19058
14893
36376
36916
36930
36938
11887
36942
36953
36954
36955
30486
38205
36960
28809
7195
37895
18264
36987
9360
35155
36997
37006
7754
37027
37028
7541
37043
37046
37047
37577
9011
14606
29088
17690
37091
37092
32319
9834
37106
16999
22675
35647
21383
39461
33289
37142
29012
28284
37159
37161
37164
37179
37182
37205
37213
37215
10677
11403
10650
33836
37232
37233
37246
8713
38044
37254
15086
32738
19604
13674
33939
37268
37273
6145
23742
37755
37294
542
37298
37305
37307
37311
37315
37318
29524
37339
32827
39050
37345
37357
37363
34888
33296
37382
37388
33971
24150
37400
37414
37423
29227
35561
37340
37439
37458
37477
14717
37495
13661
37514
37519
35537
37537
37542
32868
30206
37551
27936
37561
37564
37571
9568
28453
37572
37575
37582
37583
27708
37594
37596
24094
37598
37600
37603
37614
37618
37619
38828
37645
37648
37511
24646
37663
37664
30757
37670
24866
39058
12484
40591
37701
38246
6863
35557
37714
28461
37724
37725
37732
30721
37734
37741
8285
37752
5663
33386
13401
37764
37767
37770
37778
37779
21375
21239
36001
37783
19319
1696
37808
37813
9619
39442
37824
37826
37833
37835
10672
28103
30585
37843
35102
32934
37853
37854
37855
30654
12227
36600
41411
35409
29550
29376
37867
37871
37873
33659
37888
32457
9770
10937
23931
24373
37900
37916
20772
21623
24505
35907
37924
37930
37938
29232
8113
37946
31658
21242
12186
26791
37967
37976
33411
34389
10090
7933
7791
37997
38011
38018
22912
34961
38027
38028
38030
38032
34066
38049
26294
33274
38057
38061
38887
27579
14908
26077
38078
38083
34161
39131
38085
38095
19628
33320
7731
38106
9470
10429
32108
15020
38118
38120
38121
6659
33940
38134
38144
38145
21998
34204
27586
38153
36207
31318
28859
38183
33364
35033
38198
38199
38202
38212
9694
37188
12352
3352
38215
38220
38223
6816
25695
22173
29620
7353
29032
38241
25582
9293
38246
38250
38251
38253
9775
7099
38576
38259
38261
38266
9378
38277
38280
16004
33377
8905
38281
38283
38286
38288
29101
28528
39453
39594
38295
38299
38303
17460
38311
8458
24691
10305
38322
38324
15024
35855
38329
38336
38339
38341
38344
21474
11779
9972
41610
38350
38355
30850
7767
20864
21113
39378
38379
38380
20413
26759
38389
38395
27578
18556
32463
19877
42004
38397
38402
38413
34242
35781
7857
38428
22306
31411
38434
38438
21423
37145
33257
27426
36935
22637
38459
38465
24749
38475
11812
28343
36518
38482
26439
38489
38490
38492
38494
38506
26047
19591
41507
25801
38523
38524
38050
38527
38531
38534
10973
27735
31313
5559
9293
38561
38562
8990
38571
38576
38577
38579
38580
38583
38588
38589
38592
38593
10787
8704
27543
39127
38610
38611
38622
7180
29005
36183
35297
18712
38628
8515
38650
24247
10318
38652
16742
11524
5544
38659
38665
38670
38673
38676
38685
24581
38687
38688
17985
18771
38698
33759
30310
38714
21257
38726
38728
22679
38831
41126
31292
38734
38739
38743
33404
27822
32962
36187
40850
36519
38750
38751
21210
38774
36202
33112
38781
38794
38795
10243
30460
7349
38800
38805
38806
38808
38811
38814
16310
34699
39370
38819
24544
34281
30830
29864
38823
38824
38827
38831
38837
24340
7585
24780
37683
38846
32745
38857
9825
34117
37580
30356
38875
32809
42631
38877
38883
9850
30223
20862
38893
38900
36533
33784
38902
36150
30665
42171
38909
10742
23300
39957
38924
38936
35999
38941
38952
38477
37765
8175
38970
38971
11295
36480
33365
32990
38978
38979
38981
24580
38986
38991
38992
38994
38995
6375
30885
34473
18719
38997
39002
39006
39007
39008
9025
24854
29813
39014
39016
39024
24794
29651
26916
39033
39035
29985
39044
39046
39047
10913
29339
39054
7058
37264
39062
39065
11345
27880
35961
17214
28950
12072
42553
39077
39078
39083
39084
9846
34276
31314
34200
35950
39086
39092
39097
39098
39101
39106
11386
22724
23404
35141
39121
39127
39133
39137
10851
16035
39148
39149
39150
39151
39155
36517
39161
39169
39173
23342
31196
34559
40312
39176
39187
39190
39199
26301
20479
810
39856
39215
39217
39218
23635
36454
39225
30555
15556
32053
39231
39232
39235
39237
39271
29895
16328
17777
39278
32563
39286
38428
40089
28431
39290
39291
39293
39295
26321
35199
25569
39297
39300
39304
39309
4266
30707
18407
21626
15406
6549
11019
39313
11414
34551
27137
39331
39333
39334
10882
14912
38596
39337
39345
39346
31864
7303
25719
35850
23284
39349
39351
39353
39359
39364
39365
39367
6890
29025
14167
22421
40618
38104
39377
39378
39386
39387
16554
32603
39396
39399
39402
39406
32152
41512
34043
39409
39415
39416
43267
39428
36510
31511
37653
37622
10239
39433
39434
39439
27966
39442
26287
39451
35776
28675
36298
39461
39469
39471
39476
14615
38637
22916
39483
39484
39486
39491
25450
32878
35462
35941
24346
39492
39493
39494
18075
27950
39501
39508
31433
14662
39510
39513
39518
39530
37657
41897
14322
22949
39533
39536
27948
23350
7836
39554
39557
35257
12477
39561
39567
39570
16649
36652
28215
35260
39575
31523
38024
35798
34647
42798
39592
39597
39599
38700
40030
8509
33444
39608
39615
15774
32186
24280
39622
39624
34576
39633
39634
39635
10748
19757
42278
42311
10202
39644
39645
34619
39657
26042
39661
39664
24335
22650
28200
17158
28709
20570
32696
30791
17640
26522
39679
39680
33311
33441
35996
39288
39694
39695
33303
39701
39706
39707
12185
7089
39719
39839
39736
39738
39739
36210
39752
39759
22849
26947
36497
39762
39764
39767
39768
39771
39772
39774
15896
33132
19087
39779
39781
39783
39786
8121
17756
39793
39796
19841
33761
39810
39815
39816
39820
39389
27673
12462
39831
39832
39833
39834
39837
8380
9572
9548
39848
39902
34959
39852
39859
39860
36984
42711
24112
39863
39864
39870
27403
39875
34255
34882
39880
39885
39886
39888
18722
36725
41506
32241
43105
39897
39898
39901
25409
39915
39917
39918
39920
39923
39924
39926
39927
39929
39930
39933
39934
39936
39937
39938
39940
27349
37375
33973
40647
39464
6373
32843
39595
39943
39953
39958
20581
23912
39964
39975
39979
18282
39984
39987
39993
39994
42683
31008
39999
40001
40003
40004
32785
33432
40005
40006
40008
40020
40021
34459
9559
37388
39614
40022
30026
42063
40032
6147
23573
5554
20416
40040
40045
40047
25028
6375
10815
5617
40051
40054
26513
43053
31792
40063
40064
40065
40067
27929
38717
34750
38209
40070
32775
15712
30928
40080
40083
40084
40085
33037
38229
40094
40095
40096
40097
36463
41309
40100
40101
40107
10068
34971
40115
40120
40129
40131
40132
40133
13964
25525
40137
40141
40146
40148
11394
33003
10230
16663
40149
40156
40157
40159
10100
39077
30335
32675
25023
40169
40170
40171
40173
40176
40178
35875
40181
40190
40191
40196
25185
42130
37321
37541
8997
40198
40200
40201
40207
40209
40211
42567
30597
34228
40215
40218
40219
40222
34347
37777
42510
40224
40225
34982
31043
26375
41719
40240
12016
31971
40246
40248
40249
40250
11318
40257
40258
40261
40188
16482
42462
34278
39055
40267
40269
27674
21032
6794
43742
30137
40280
9148
26579
40284
40285
40289
40291
24731
40292
40299
40300
30267
20633
35627
40308
40310
40311
40312
29543
19144
10602
40315
40318
40319
40320
40324
40338
32722
8733
21135
26315
40349
40357
40360
40362
27503
33575
31624
40363
40365
40371
40374
40376
40377
40379
35748
36216
40383
40384
40388
11329
28170
40560
13244
40392
40396
40397
40400
40402
40407
16116
16029
16032
15733
25251
40414
40415
5447
40423
40427
40429
40431
30090
35796
40711
40438
40441
40444
8545
33138
22847
35778
14284
35307
33712
40450
40458
40460
9965
23804
24964
6709
43720
40461
40466
29528
40473
40477
29731
31729
6322
32136
34925
40481
26541
32352
39200
7526
35054
35543
40488
40489
40492
40495
40496
40497
40498
40500
19104
20982
12533
36161
33385
40506
40507
40508
40510
40514
40515
40518
40519
8679
39754
40723
40527
40528
40530
40531
40532
7747
37489
15677
23640
271
11526
9848
34761
6517
21473
40534
40541
40546
40547
20506
36565
34891
37244
40549
40551
40554
40560
40567
33841
40456
17618
42489
40568
40570
40572
40574
36013
41825
43159
40577
40578
40579
40580
40588
40589
40591
40592
40593
34048
38982
6290
26475
44403
35421
40604
7087
29088
35296
39781
40606
40607
40613
40620
40621
40626
9968
11702
27623
40667
40973
41681
7711
36639
40631
40635
40637
40638
29276
39236
40643
40651
40653
40654
37502
19132
32026
6013
12337
39881
40656
40657
40659
40664
40668
8372
31747
40675
40680
13392
40683
40689
18840
6590
17625
40692
40695
40700
37072
41822
41991
28476
19199
40701
40703
40706
40712
40714
27295
12782
20858
34999
5917
29488
34339
40401
40716
40728
40731
25623
6609
35696
10333
16873
42159
42445
40742
40744
40746
40748
40749
40750
40751
9642
35181
35363
28258
40754
40758
40759
40760
40761
40768
31703
33502
9051
40075
40771
40774
40777
30279
5516
38426
41628
26915
40779
40781
40784
40787
40789
40792
40793
40796
40800
40801
8548
18125
31737
43483
14446
43797
40803
40804
40806
40808
40809
10724
32623
41675
43809
37784
37629
40819
10196
30324
39650
16892
11095
40820
32279
13349
40830
40838
8428
40957
18343
40849
40850
40851
40852
30376
40981
12703
41540
40854
40855
40857
27146
40861
40862
40867
41806
40871
40875
40876
40877
40882
11409
29352
40579
21125
31124
40887
31985
42551
42809
30078
41505
40899
40900
40902
35066
23984
36479
40906
40908
40916
40917
40920
10427
41184
13763
27421
35845
40925
40926
40928
40931
40936
34234
24289
40946
40953
40954
40956
34506
9533
10517
44249
33537
40963
40968
40970
40972
30606
34044
21801
29656
4323
40982
40985
30628
15682
4999
36944
38357
40988
40991
22718
40823
16396
41636
42241
9913
35423
40996
40998
41000
41001
41006
6686
32424
41559
15444
41012
41013
41016
7880
11652
36612
36112
44490
41018
41019
41026
41027
8203
5880
8995
35770
39539
27085
41031
41033
28839
31584
41564
41042
41043
34141
9017
23989
26357
35874
41050
41053
41058
41059
41060
41063
9564
41065
22395
12510
6900
13778
6474
6430
36865
651
42143
31177
38307
41072
41077
41078
41080
41082
25465
41566
41084
41090
41091
41096
13387
7843
38915
38358
41100
41105
41107
41108
41109
41110
14632
38737
33400
26634
3449
41258
28188
41118
24708
20513
16492
9918
32189
30246
6600
41123
41124
41128
41129
41130
11153
9939
22862
43326
18796
44672
39677
45088
41133
41135
41137
41142
41147
41148
25949
35972
36836
34776
31619
37241
41149
41150
41155
41156
41157
41158
41159
41160
41162
41163
41164
41165
23229
27006
7162
41171
41172
41173
41174
41175
41176
41180
41181
27985
8582
7524
41187
12564
31411
41202
15872
39315
42312
35255
40735
37574
41205
41207
41209
41213
41215
41217
41218
41219
7122
32946
32376
39712
41224
41233
25489
42080
6879
41234
41237
9018
6499
40393
37159
31625
43474
40894
41240
8828
33052
35784
36448
29462
34177
37316
26909
7550
41245
41246
41248
41249
41254
41258
8720
10530
25295
23623
18425
41261
41264
41265
41266
41268
41272
24717
40959
20004
41276
38866
44610
41282
17765
40551
33214
40204
44029
39130
34865
41288
41289
41291
41297
41299
41300
20903
26392
27169
41309
41310
41314
41315
41316
41320
41321
8004
23657
10050
25055
41324
41327
41330
41333
41336
33746
25179
42554
19280
33160
41342
37909
34956
41498
6188
41345
41347
41348
41353
41354
41355
41356
41358
41360
41361
41364
41366
5422
32989
25673
43169
33180
45072
41371
41375
41383
41384
41385
41387
41388
8200
34871
16540
23620
32829
41389
41390
41392
41393
41394
41395
41397
41398
41399
15360
21720
25164
24192
27724
41402
41403
41406
13428
33125
37748
4960
41549
41411
41413
41414
41419
28278
10883
23660
22767
38427
33066
30470
16087
34203
29970
24021
41420
41423
41427
41434
24856
17675
32151
11749
652
25388
45055
8824
41439
41440
14314
29618
38194
41308
23682
43389
40864
41443
41446
41447
10038
26069
9283
24716
33205
41448
41451
41452
41454
41455
24389
22231
42398
11198
9549
41462
41464
10165
13060
36246
40199
41285
266
19860
38289
6454
41472
41476
23987
33982
37579
41135
39144
36473
41479
41485
41488
23054
11647
30297
40372
37332
38282
41493
41494
41499
41500
33915
18898
36299
38004
13390
41503
41504
41506
41510
41514
41515
41516
41521
41523
41525
41526
41527
38354
27712
14680
20128
41530
41533
41534
41535
41539
41540
41543
41544
10871
25621
42471
2105
45128
41547
41551
41552
41555
41556
15761
42650
39895
37157
41558
41560
40677
26261
41565
41567
41571
41573
41576
41577
41579
41584
33598
31287
28040
5566
35163
41193
41586
41587
41590
41597
41598
22124
38853
30635
42413
29039
9619
19997
41604
41605
41606
41607
41608
41610
8741
39917
40409
32597
32761
32996
45381
41611
40042
31123
33284
41167
41785
43877
39923
29224
41615
41617
16898
33522
39199
35162
41627
41628
41629
41633
41635
41636
41639
32621
9349
34942
41643
41646
41648
41649
6297
36323
39803
39726
19721
41651
41653
34761
36095
41658
41662
41666
41668
21009
28588
39411
10692
41670
41671
41673
41682
36419
9018
41686
41687
41691
27814
28550
41701
41704
41705
25955
38008
33421
297
45618
41708
41710
41712
41713
41715
30969
31428
8591
41723
41724
41728
41730
41731
41733
41739
41742
41743
41746
41747
29106
37187
42180
44521
41750
41756
41762
41763
41765
25157
39068
42175
27121
24359
41766
41771
41774
41776
11360
12876
30855
43664
22946
41787
41788
41720
27612
23300
34046
27228
45006
29869
41790
41792
41793
41796
41797
41799
41801
41804
41805
36579
34822
34645
29692
23212
41813
41814
41815
35886
34790
10327
34550
23803
44380
41816
41820
41821
41822
19044
33617
43433
38546
41102
37066
9333
41825
41827
22197
7901
23834
32354
41502
35525
31529
41828
41830
41831
41834
8483
34303
18906
39156
35217
36668
38206
41839
41840
41841
41842
41847
41850
41851
41852
41853
41854
41855
30759
23379
40499
42155
41257
32416
41857
41859
41860
41863
28526
27601
31883
43000
41867
12900
7750
26645
41306
29691
7603
41870
41872
41873
41875
41877
41878
32570
27399
39337
41882
41883
41884
41885
41889
41891
41893
41894
41895
41899
30439
32169
23329
37606
39612
11061
6624
24002
38243
41900
41904
41910
41911
41913
41914
35716
42804
36983
2149
31671
41916
41920
41922
41924
34474
6
12650
39683
37861
34071
41925
41927
41929
41930
41932
41935
41937
41938
1975
22097
20177
42005
39817
34189
44359
31549
33198
41945
41958
41959
41962
1976
31247
8456
37190
39092
41074
33369
42733
41963
41965
41967
41968
41969
41971
41972
41978
41980
41981
27846
27933
34642
42472
35487
1563
41983
41986
41987
41988
41989
26651
16528
8789
33157
31449
41991
27150
21158
23268
33449
17612
43962
13294
41996
41999
42002
42004
42007
26976
11804
7356
15202
23874
37817
6381
14758
34480
42013
24613
23773
38562
29372
21841
39299
42023
42029
42030
42032
9503
5557
25461
38929
43760
38451
40731
42033
42034
35321
9840
21404
30746
42821
43508
43512
26228
33392
37277
42036
42040
42045
34722
39994
41177
35342
10835
35957
10653
42050
42054
42055
42060
42061
9755
24793
26316
25740
45229
42063
42069
42073
38111
32032
33779
5110
26922
36934
9298
23828
42074
42075
42076
42080
34381
23666
36622
39025
28535
33585
40825
31199
40832
42081
42085
42091
42093
28018
44248
33646
17966
42097
42098
42102
42103
42104
42107
42111
42115
28906
40651
40520
38746
34692
42657
43951
24728
33259
27675
45729
35595
42120
42122
42124
42129
42131
42132
42134
42135
42137
10892
16431
28114
24437
43383
27954
42140
42143
42144
42148
10766
11816
30878
33264
42149
42150
42151
42155
42157
42159
42160
11198
41315
37550
40776
42163
42165
42171
42176
42178
42179
42181
42182
42183
30379
36319
7130
36118
46124
42188
42191
42193
42194
42195
42196
9525
6971
36441
40979
42197
33548
31018
32703
37067
36602
38320
42202
33954
32293
5520
34810
42207
42208
42209
42211
42213
42217
36306
43369
25149
38082
40033
42488
30724
45231
35974
34377
36435
42219
42222
42225
42227
42228
42230
42231
6755
38813
9320
45743
37145
33650
42234
42236
42238
42241
42242
22298
11752
6217
44678
39480
14099
40171
42243
42245
16063
38825
42247
42250
42253
42257
11777
7131
23699
39649
40334
43276
38102
21162
42948
37234
42263
42267
42271
42272
2331
38239
21171
40697
7083
35870
45183
11803
42275
42279
42281
42282
42283
42285
42286
26885
23993
15078
6493
10017
22881
34687
39165
39514
8014
16720
6058
18677
33883
42288
42293
11889
9100
19632
34326
33012
37898
35913
46024
42294
42295
42298
42300
42302
42303
42305
36920
21760
6314
32583
40281
7884
9928
38595
34775
43177
42310
42312
42313
42314
42315
42325
42327
27014
35082
34301
39085
22449
40008
7246
44988
39684
36995
37988
42329
42330
42331
42333
42334
42335
42337
42341
42342
42343
42344
42345
12482
39440
43380
10885
42533
43926
43991
32792
32155
36008
42348
42350
42357
31971
21327
26521
31305
42360
42361
42362
42364
42365
42369
42370
42371
11954
32055
20518
9917
33577
41622
39578
13840
34417
40454
12266
34858
42373
42375
42376
42378
42379
42381
42387
42388
29000
34669
35047
42393
42396
42397
42398
42400
42402
42404
28380
22899
34920
7644
4822
42406
42408
42410
42411
31298
41771
34835
40511
26434
42414
42416
32043
32872
37309
9221
34171
38621
7907
43592
25206
12897
21701
42418
42421
42423
42424
42427
42428
42429
42432
42434
42435
42436
9608
9913
28051
20697
42728
44939
45518
45728
7827
42437
42438
42439
42440
42441
42443
42444
42445
42446
14022
32385
36165
6865
22419
34003
9443
42447
42448
42449
42451
42453
10903
41789
42847
32334
33991
24997
18569
6781
42455
42456
42459
10195
36914
10534
14451
42463
42464
42467
42471
42473
42475
42477
30259
15537
42341
10417
22965
43055
7881
25471
42478
42480
42481
42484
42488
42490
11923
11257
15060
18294
36299
34361
26721
34090
34629
43713
40763
42493
42496
42497
42499
14694
31660
6066
34311
33470
12903
42503
42504
42505
42513
26571
41180
42723
13345
8949
32725
42517
42518
9544
18215
19329
42426
9374
37439
21143
42527
42528
42530
42531
42532
42534
42538
42539
42540
25804
15568
35030
9301
42543
42545
42547
42548
42550
42552
42553
42561
42562
42563
42565
42566
28844
20421
13926
10643
43581
22394
42569
42570
42571
42572
41904
36517
35844
35176
35975
8936
24390
42574
42575
42576
42577
42578
42579
42580
42581
42582
42583
25818
42866
20648
8930
42588
42592
42595
42598
42599
42600
42601
42602
42603
17018
36641
27425
36500
27735
42606
42607
42612
42613
42614
42615
33251
39080
30500
26158
25326
39760
13144
38859
40079
36750
46885
42616
42618
42620
36669
10201
31250
18856
34898
26360
42623
42625
42626
42627
42628
42629
42630
22750
32633
27528
42631
42632
42635
42637
42638
34559
31272
18054
43440
40542
42640
42641
42642
42643
42644
42647
42648
42649
42650
42651
42654
35564
15739
25560
23405
44130
26477
42656
42657
11946
42023
7045
15687
40532
34287
40886
42030
34355
40513
36093
42664
42665
42667
35065
11810
37961
32805
32948
42671
42672
42675
42678
42680
42682
42684
22017
10391
12519
44055
34942
40385
37714
45814
42685
42688
42691
42695
42697
42699
42700
42701
42702
42703
42704
23633
27257
33607
31568
24901
35638
34197
30418
41923
42706
42707
42708
42710
42713
42714
42715
42716
42718
12092
37119
46310
42720
42721
42722
42724
42725
42726
12226
27709
13277
42730
42731
42732
42733
42735
42736
42738
42739
42742
20868
36656
28460
34348
26742
25807
39369
37120
42745
42746
42748
42749
42750
42751
42753
42754
42756
42760
42761
42762
35837
43634
39349
30264
38035
34896
42767
42770
42773
42774
42775
42776
42777
42778
7187
32082
18679
22129
44107
25587
42780
42782
42784
42785
42787
22447
41388
33848
17621
39373
36964
42790
42791
42792
42794
42796
42797
42799
42800
42801
27611
10848
37927
31981
37372
29020
39260
10339
42804
42805
42808
42813
42814
42815
42817
13063
20038
39557
9925
26971
8687
6872
34066
42818
42820
42821
38292
24189
5882
31541
40333
44944
39777
42827
42828
7297
37697
5694
37700
40312
42709
25828
30027
39893
44656
32823
42830
42833
42837
7667
30616
36828
6838
35458
40519
29156
20016
26541
45445
42842
42843
42844
42845
42846
42848
42849
42853
42854
42855
42856
42857
12163
36940
10567
20560
29635
36046
23818
35754
7908
33459
22932
42858
42859
42860
42861
42862
42863
34068
31737
39327
38932
42864
42870
42871
42873
42874
42875
28447
18675
40492
37796
29624
45453
36618
47024
41517
47227
42877
42881
42882
42883
14858
40526
9949
42886
42888
42889
42894
42898
42899
42900
7528
36185
31632
12252
39475
42714
30076
41672
45425
247
42905
42906
42907
42908
42909
42911
42912
42915
42916
42918
42921
42922
42923
34024
43163
36321
40386
43631
43761
29547
35445
42924
42928
42929
42930
42931
42933
42935
42936
42937
34687
28941
20882
25175
18931
47049
42939
42940
42943
42944
15486
43357
28932
38687
41304
42947
42948
42949
42950
42951
42952
42955
42956
42958
42962
14630
34064
8935
7545
8488
43804
27132
46407
35784
42963
42964
42965
42967
42968
42969
42974
42975
42977
42978
42979
22265
2394
12787
19529
10647
42982
37434
10449
28306
26485
47142
42980
42982
42983
42984
42985
42986
42987
42988
42989
42990
42991
42992
35851
34882
6419
16473
30402
37599
32585
24283
32888
28180
43422
39066
42994
42995
42996
42999
43000
43002
11775
5802
39127
15425
31605
31427
39023
30369
21895
13156
46594
22364
43003
43008
25709
33094
10979
36478
33620
26181
43078
27228
26401
38411
43010
43012
43013
43016
43019
43020
25809
27180
27069
32308
44149
39083
40662
42869
20483
43026
43027
43028
43029
43031
43032
43033
43034
43035
43036
23454
35755
10735
42991
40263
35305
39413
41979
37473
37366
11009
32752
35169
43037
43038
43041
38231
5475
15062
16166
28736
16652
42676
45722
42843
35202
45849
43043
43044
43045
43046
43047
7702
32759
44421
46239
40262
15437
43049
43052
43053
43054
43058
43060
43061
43062
9905
6190
11728
11655
31465
33777
39246
39803
44172
46107
27038
29031
34915
31102
23080
43067
43068
43073
43076
43077
43079
43082
10334
8342
4803
41937
32403
46363
22357
43083
43084
43085
43086
43088
43089
6796
37111
34854
34391
6934
34599
11023
28269
43090
43091
43092
43093
43094
43095
34117
24508
42997
43074
38625
42752
43097
43099
43100
43101
43102
43103
43104
43106
43110
43111
43112
43113
43114
43115
12264
31578
8829
11928
21593
12838
7395
38694
9301
35955
34307
27931
36891
11837
34435
42073
43116
43117
43118
43119
43121
43124
43126
43128
43129
11889
29457
31941
10568
36699
7374
40833
45114
25402
13532
43132
43133
43134
43135
43136
43137
43138
43139
43140
43141
42510
41218
44561
18888
42663
46344
31175
37454
42554
43143
43146
43147
43148
43149
43150
43151
43154
10762
43965
45739
45919
25097
37213
5936
43155
43156
43159
43160
43165
43167
43169
43170
12888
34105
7106
42260
29317
46134
7242
32768
43171
43172
43176
43177
43181
43182
43183
43185
43186
6938
33325
5696
5705
12125
44231
8683
38930
18725
38113
43190
43191
43192
43195
43197
43198
43199
43200
43203
43204
37174
38597
44338
36027
34821
7817
46897
35133
47430
43207
43208
43209
43210
43211
43212
35857
36998
43927
45571
43648
228
37293
27579
35657
38971
43213
43215
33505
15123
34386
40075
28179
46253
47452
43216
43217
43218
43220
43221
43223
43224
43225
43226
43227
43228
43229
18704
9809
10849
14523
22492
39924
40031
44707
35898
43232
43233
43234
43235
43237
43238
43239
43241
43242
43243
43245
43247
27144
10726
36127
41014
40329
41772
36728
39032
37534
29863
42602
28342
43248
43250
35701
37814
5842
32721
40310
43746
43974
39045
38365
20832
43253
43256
43257
43258
43259
43261
43262
43263
43264
16402
32536
16133
43525
37868
34080
37437
32852
30225
39247
43268
43272
43273
43274
43275
43276
43278
43279
8103
10262
39835
15362
25094
40224
17893
32096
43281
43282
43284
43285
43286
43288
43289
43290
43291
18356
35189
28338
44591
45592
33530
46469
13754
43292
43293
43294
43295
43297
43301
13011
8096
41120
41887
26552
35117
39531
39692
9924
7269
186
43304
43305
43306
43307
43310
43311
43312
43313
43315
6575
30420
24170
32119
43327
34411
44688
34599
34828
41919
47364
32438
35841
43317
43318
43319
43320
43321
43322
43323
43324
43325
43326
43327
43328
12690
31339
35947
6924
28857
23383
38917
32730
33416
38480
42633
32741
33692
43330
43331
43332
43333
43334
43335
43336
43339
43340
43341
43343
43344
43345
43346
43347
43349
43350
43352
28119
6843
10886
37678
33830
30604
34675
32284
29940
29324
32756
8599
42206
5812
8120
33944
37228
39206
43354
43355
43356
43357
43358
43359
43360
43361
43362
43365
43366
43367
13444
36786
30470
43019
43369
43370
43371
43373
43374
43376
43377
43378
43379
43380
9236
42742
9334
19300
46555
37241
12706
25159
29286
41183
22054
43381
43382
43383
43384
43386
43388
43389
43390
43391
43392
43393
11125
11416
20318
7182
31244
20102
18751
31053
45196
38767
26648
27022
33096
21030
29511
43394
43395
43396
43397
23952
11217
13923
16999
34186
40009
40373
8813
43265
31041
38920
11183
26186
43400
43401
43402
43403
43404
43405
43406
43407
43408
43409
43410
43412
43414
43416
18021
36353
35950
12349
33883
24018
21406
41630
39338
44928
40410
20958
38942
43043
43418
43419
43421
21423
10061
39672
42720
37719
42810
47469
43422
43423
43424
43425
43426
43427
43430
7714
28241
36475
20703
43433
43435
43436
43437
43438
43440
43441
43442
43444
43445
43446
43447
43448
29386
10384
12381
41403
11216
27189
19820
42980
26910
34619
47702
43449
43450
43451
43452
43453
43454
43455
21890
31974
38066
26785
32462
9387
7562
47159
41974
43457
43460
43461
43462
21927
11625
11447
14371
32170
40822
30309
47253
20661
9680
43463
43465
43466
43467
43469
43471
23735
12869
41240
43676
33221
43472
43473
43474
43475
43476
43480
43481
43482
43484
43485
43486
38138
40802
27303
40993
24432
36716
30688
43489
43491
43492
43493
43494
43495
43496
43497
43498
43500
43501
43502
43503
43504
43505
43506
28250
33087
34662
30020
29477
10771
532
40088
42987
46685
42163
8124
34620
43507
43508
43509
43510
43511
43512
43513
43514
43515
43516
43517
43518
43519
43520
34843
34820
34353
19230
35761
10326
19364
44941
33747
33693
37923
33075
31544
43521
43522
43523
43526
43527
43529
43530
43531
43532
43533
28960
36662
21312
26486
41211
16962
44804
21117
43534
43535
43536
43537
43538
43539
43540
43542
43544
43545
43546
43547
43548
43549
11601
7740
36782
34256
11432
40388
25913
41108
26183
40773
43552
43553
43554
43555
43556
43559
43560
43561
43562
43563
43564
43565
43566
43567