/*--------------------------------*- C++ -*----------------------------------*\
  =========                 |
  \\      /  F ield         | OpenFOAM: The Open Source CFD Toolbox
   \\    /   O peration     | Website:  https://openfoam.org
    \\  /    A nd           | Version:  7
     \\/     M anipulation  |
\*---------------------------------------------------------------------------*/
FoamFile
{
    version     2.0;
    format      ascii;
    class       Cloud<dsmcParcel>;
    location    "0.006/lagrangian/dsmc";
    object      positions;
}
// * * * * * * * * * * * * * * * * * * * * * * * * * * * * * * * * * * * * * //

5450
(
(0.09042959306 0.4547852035 0.1646170994 0.2901681041) 133 264 2
(0.2343220462 0.3828389769 0.316397304 0.06644167291) 448 877 1
(0.1295151835 0.4352424083 0.2305130454 0.2047293629) 231 463 1
(0.1953277763 0.4023361119 0.1453495889 0.2569865229) 430 821 1
(0.5761302295 0.2119348853 0.1326598349 0.07927505041) 328 657 1
(0.05766110946 0.04503889952 0.4711694453 0.4261305457) 348 694 1
(0.5429962894 0.08289280677 0.2285018553 0.1456090485) 606 1177 2
(0.2926698611 0.3536650695 0.2356252002 0.1180398693) 111 183 1
(0.5524623551 0.2237688224 0.1823785962 0.04139022628) 600 1146 1
(0.4499881194 0.2750059403 0.2676606992 0.007345241066) 157 275 1
(0.609427032 0.195286484 0.03402607234 0.1612604117) 169 299 1
(0.3815964542 0.03008920463 0.2791125683 0.3092017729) 85 170 1
(0.7109476781 0.1445261609 0.01855647639 0.1259696845) 578 1124 1
(0.2153907142 0.3923046429 0.08623642697 0.3060682159) 299 596 2
(0.1684133657 0.4157933172 0.2399209856 0.1758723316) 2 5 1
(0.8289714168 0.03789063749 0.04762365409 0.08551429158) 266 532 1
(0.4110888071 0.2944555965 0.1620522559 0.1324033406) 257 512 2
(0.0407093562 0.4796453219 0.1754001832 0.3042451387) 343 687 1
(0.4588760588 0.2705619706 0.0820956547 0.1884663159) 153 306 2
(0.4269779379 0.1863968019 0.2865110311 0.1001142292) 119 236 1
(0.4477604807 0.1729794139 0.2761197596 0.1031403458) 292 582 1
(0.03532943603 0.482335282 0.2334371328 0.2488981491) 267 535 1
(0.3238484058 0.3380757971 0.1731714024 0.1649043947) 581 1129 1
(0.4736828957 0.2631585522 0.116003188 0.1471553642) 118 197 1
(0.1503931563 0.3363740251 0.08842939677 0.4248034218) 263 487 2
(0.1206104338 0.3792511471 0.4396947831 0.06044363596) 460 119 1
(0.02564684564 0.4871765772 0.2086435984 0.2785329788) 613 1187 2
(0.03534249664 0.1490940353 0.3332347164 0.4823287517) 131 223 2
(0.09020134888 0.2085617971 0.2463375285 0.4548993256) 461 882 2
(0.1485941101 0.4257029449 0.2604575211 0.1652454238) 214 389 1
(0.7153516127 0.1061111076 0.03621308599 0.1423241936) 152 265 2
(0.628409724 0.185795138 0.1625869654 0.0232081726) 68 134 2
(0.03580945337 0.4820952733 0.3205576807 0.1615375927) 224 448 2
(0.4236740369 0.2509431312 0.03721985035 0.2881629815) 594 1153 1
(0.1232489337 0.3716100258 0.4383755331 0.06676550729) 263 527 2
(0.1165072968 0.4417463516 0.03714435387 0.4046019977) 273 544 2
(0.8156979061 0.06593355696 0.09215104696 0.02621749) 159 318 2
(0.5776368179 0.211181591 0.1728975123 0.03828407873) 335 671 1
(0.7241991006 0.1379004497 0.06478814098 0.07311230871) 297 592 2
(0.6486793142 0.1756603429 0.1438537175 0.0318066254) 356 710 2
(0.4855392259 0.2572303871 0.006975110188 0.2502552769) 95 191 1
(0.5060654957 0.1117890281 0.135178224 0.2469672521) 140 241 2
(0.2449357962 0.07064181955 0.3068902824 0.3775321019) 620 1202 1
(0.6348785222 0.1825607389 0.03847293424 0.1440878047) 495 965 2
(0.03680720721 0.2606445948 0.2209518016 0.4815963964) 167 295 2
(0.3555653824 0.01142172969 0.3222173088 0.3107955791) 483 940 1
(0.274823474 0.1400252717 0.2225629913 0.362588263) 344 649 2
(0.5340909909 0.2329545045 0.1188640732 0.1140904313) 183 327 1
(0.1063036826 0.4468481587 0.2342496432 0.2125985155) 164 328 2
(0.06602763008 0.466986185 0.3506526639 0.1163335211) 352 665 1
(0.2843550509 0.126495626 0.2313268485 0.3578224746) 40 80 1
(0.1256736071 0.4371631965 0.2983606815 0.1388025149) 253 506 2
(0.1344047463 0.1601150021 0.4327976268 0.2726826247) 584 1132 1
(0.3172658666 0.3413670667 0.008673171295 0.3326938954) 347 655 1
(0.2030931429 0.3984534286 0.2140393797 0.1844140489) 157 314 2
(0.07353326904 0.4632333655 0.4172764575 0.04595690796) 409 818 2
(0.1249001824 0.4375499088 0.06092741018 0.3766224986) 99 196 2
(0.6278764181 0.186061791 0.1211349374 0.06492685357) 108 217 1
(0.4858695157 0.2570652421 0.1483317786 0.1087334635) 405 811 1
(0.7212084102 0.1004333887 0.03896240622 0.1393957949) 388 737 2
(0.7914639069 0.1042680465 0.02897905289 0.07528899365) 424 843 2
(0.3335174881 0.2311340619 0.1021071941 0.3332412559) 159 278 2
(0.4299879181 0.285006041 0.04750336141 0.2375026795) 604 1170 2
(0.4834338131 0.1992810914 0.2582830934 0.059002002) 95 188 1
(0.8473066181 0.07634669094 0.04427153828 0.03207515266) 521 1015 1
(0.5107897692 0.2446051154 0.1862860153 0.05831910011) 412 785 1
(0.004155726125 0.4979221369 0.2852325057 0.2126896313) 234 468 2
(0.4803278464 0.2598360768 0.0459907942 0.2138452826) 31 23 1
(0.02484995006 0.487575025 0.250518086 0.237056939) 301 563 1
(0.3848446651 0.286496557 0.3075776674 0.0210811104) 90 181 2
(0.1725425592 0.195300541 0.4137287204 0.2184281794) 343 684 1
(0.2380525014 0.2093891971 0.1715845522 0.3809737493) 550 1051 2
(0.5657252298 0.2171373851 0.1745987029 0.04253868214) 561 1091 1
(0.5404408825 0.0390789612 0.2297795587 0.1907005976) 444 866 1
(0.2806149022 0.2126122832 0.1470802657 0.3596925489) 15 30 1
(0.7783156003 0.03291275371 0.1108421999 0.07792944615) 219 438 2
(0.1680042166 0.4159978917 0.3270465726 0.08895131913) 354 706 2
(0.1261131955 0.4369434023 0.3830167872 0.05392661501) 78 117 1
(0.1085630715 0.0900507475 0.4457184642 0.3556677167) 238 474 1
(0.3025789918 0.3313998776 0.3487105041 0.01731062643) 500 279 1
(0.3021909175 0.3489045412 0.2300943619 0.1188101793) 349 696 2
(0.1540007747 0.2126971881 0.4229996126 0.2103024246) 12 22 1
(0.06529198427 0.3756878337 0.4673540079 0.09166617416) 395 788 1
(0.4835065077 0.2582467461 0.2258538117 0.0323929344) 651 1253 2
(0.4168200483 0.2915899759 0.09941647216 0.1921735037) 537 1027 1
(0.1429173054 0.4285413473 0.3461348252 0.08240652216) 196 353 1
(0.001201967238 0.4993990164 0.1108813386 0.3885176778) 84 129 1
(0.4123159553 0.2728589884 0.0209830339 0.2938420223) 591 1129 2
(0.3300691458 0.2422144622 0.09275096492 0.3349654271) 338 676 1
(0.01601924229 0.4212278463 0.07076253256 0.4919903789) 37 35 2
(0.7071219245 0.1464390377 0.02329182271 0.123147215) 582 1112 1
(0.3836441172 0.3081779414 0.1345996745 0.1735782669) 209 379 1
(0.06668753674 0.4666562316 0.04294398507 0.4237122466) 297 555 1
(0.09831214757 0.4508439262 0.2052515641 0.2455923621) 392 785 1
(0.1593766252 0.2679324379 0.1523792495 0.4203116874) 191 382 1
(0.6376619011 0.09465897312 0.08651007634 0.1811690495) 58 77 2
(0.4925797219 0.2413850412 0.01232509791 0.2537101391) 253 506 1
(0.07185307996 0.1547865548 0.46407346 0.3092869053) 495 963 1
(0.1972559014 0.4013720493 0.05203552861 0.3493365207) 273 544 2
(0.09833918198 0.1211871791 0.450830409 0.3296432299) 83 167 2
(0.08963386017 0.3607324765 0.4551830699 0.09445059346) 461 901 2
(0.17574489 0.314845482 0.09728207302 0.412127555) 461 900 1
(0.1094843229 0.174533242 0.2707245965 0.4452578386) 183 366 1
(0.8714857876 0.06425710622 0.05018504031 0.01407206591) 171 340 2
(0.6415266523 0.09163034219 0.08760633168 0.1792366739) 561 1072 2
(0.3215352026 0.1069826471 0.3392323987 0.2322497516) 645 1248 1
(0.4173910191 0.2913044905 0.1166316664 0.174672824) 169 336 2
(0.5867569421 0.2066215289 0.08837682371 0.1182447052) 610 719 2
(0.4423999846 0.2788000077 0.1026143224 0.1761856853) 307 614 2
(0.5771845173 0.0875867475 0.2114077414 0.1238209939) 229 456 1
(0.01179267431 0.3499907001 0.1441129628 0.4941036628) 167 334 1
(0.3355978901 0.3322010549 0.0369769865 0.2952240684) 49 96 2
(0.1405305719 0.429734714 0.2522325332 0.1775021808) 607 1160 1
(0.5113848189 0.03686103471 0.2443075905 0.2074465558) 115 228 1
(0.003320973522 0.4983395132 0.08230228753 0.4160372257) 551 1072 1
(0.7192012545 0.04164012767 0.0987592451 0.1403993728) 246 453 2
(0.4920535784 0.01528685204 0.2386863588 0.2539732108) 609 1163 2
(0.144265096 0.3736301477 0.427867452 0.05423730437) 100 201 2
(0.1340146655 0.05145594241 0.4329926673 0.3815367249) 157 315 2
(0.9369651807 0.03151740965 0.02019269681 0.01132471284) 91 143 1
(0.2626992559 0.2161936052 0.3686503721 0.1524567668) 483 940 1
(0.1527812799 0.4236093601 0.1276911973 0.2959181628) 126 252 2
(0.09832679633 0.4508366018 0.4135574499 0.0372791519) 108 214 2
(0.1580445263 0.4209777368 0.328155282 0.09282245484) 461 900 2
(0.6097531149 0.1951234426 0.1597236944 0.03539974814) 595 1156 1
(0.1196676257 0.4401661871 0.4271648043 0.01300138288) 183 327 1
(0.06080828184 0.4695958591 0.2981709022 0.1714249569) 133 267 1
(0.5258918588 0.2370540706 0.01088465661 0.226169414) 441 862 2
(0.1815253243 0.0263969713 0.4092373378 0.3828403665) 362 725 2
(0.2474983332 0.1872451331 0.3762508334 0.1890057003) 564 1094 1
(0.2806846592 0.3596576704 0.1423253294 0.217332341) 481 936 2
(0.1506685569 0.4246657216 0.4147573718 0.00990834978) 209 416 2
(0.6190938608 0.1904530696 0.1144041232 0.07604894637) 430 821 1
(0.388448973 0.3057755135 0.2835186449 0.02225686862) 116 233 1
(0.02658394259 0.4764468111 0.4867080287 0.01026121756) 346 693 2
(0.2503587937 0.3748206032 0.1165329061 0.258287697) 295 551 1
(0.1545668096 0.4227165952 0.3850253597 0.03769123549) 382 764 2
(0.1670034043 0.4164982978 0.2504187749 0.1660795229) 74 109 1
(0.1990057819 0.3095722151 0.400497109 0.09092489398) 195 388 1
(0.2098078762 0.3420069027 0.3950960619 0.05308915921) 293 587 2
(0.09213761366 0.4150854718 0.03884572135 0.4539311932) 582 1112 2
(0.4199534583 0.2900232709 0.06856582867 0.2214574422) 21 40 2
(0.3317048509 0.1390129285 0.1951346461 0.3341475746) 349 659 2
(0.5070874649 0.2464562675 0.09039353906 0.1560627285) 270 538 2
(0.620465518 0.07302129679 0.189767241 0.1167459442) 584 1135 2
(0.5923122004 0.2038438998 0.005006095521 0.1988378043) 93 186 2
(0.2248909048 0.05735202506 0.3875545476 0.3302025225) 520 359 1
(0.2121417794 0.3588715647 0.3939291103 0.03505754563) 191 380 1
(0.3610699586 0.3194650207 0.1057641496 0.2137008711) 72 145 1
(0.2134784937 0.3932607532 0.3346278879 0.05863286528) 93 147 1
(0.2802105812 0.3598947094 0.2406299064 0.119264803) 59 119 2
(0.3689839132 0.03406354923 0.2814444942 0.3155080434) 523 1018 1
(0.7314700024 0.1342649988 0.07538466311 0.05888033569) 388 776 2
(0.2941651229 0.3529174386 0.28949411 0.06342332854) 229 456 2
(0.02991043056 0.2451793879 0.2398653968 0.4850447847) 23 46 1
(0.1300602833 0.4349698583 0.3860777299 0.04889212849) 187 374 2
(0.7472037816 0.03603882056 0.09035928864 0.1263981092) 273 546 1
(0.3752707654 0.3123646173 0.09820873478 0.2141558825) 414 828 2
(0.1411381186 0.4294309407 0.1322173109 0.2972136298) 53 67 1
(0.008070303812 0.4959648481 0.09608356782 0.3998812803) 249 496 2
(0.3483071498 0.3258464251 0.005426893564 0.3204195316) 527 1026 2
(0.2577885025 0.009707110544 0.3613986382 0.3711057488) 97 155 2
(0.06323985815 0.4683800709 0.2686886093 0.1996914616) 376 752 2
(0.06693309369 0.3214681659 0.4665334532 0.1450652872) 305 608 1
(0.1641020956 0.4179489522 0.07525834255 0.3426906097) 394 749 1
(0.591429792 0.03895903478 0.1653260692 0.204285104) 111 183 2
(0.4084258284 0.04176080019 0.2957870858 0.2540262856) 116 233 2
(0.4507243981 0.2746378009 0.03695109877 0.2376867022) 532 1017 1
(0.4225922504 0.005733252275 0.2829706225 0.2887038748) 74 109 2
(0.4645895717 0.02194642855 0.2677052142 0.2457587856) 45 88 1
(0.7769472295 0.1114803744 4.601084279e-05 0.1115263852) 464 888 2
(0.2363927567 0.05736061293 0.3244430087 0.3818036216) 316 593 2
(0.120449 0.3062027066 0.4397755 0.1335727934) 198 397 2
(0.4407645317 0.196507423 0.0831103111 0.2796177341) 232 464 1
(0.690738906 0.03746461918 0.1171659278 0.154630547) 402 804 1
(0.4678005121 0.06630950977 0.266099744 0.1997902342) 187 372 1
(0.7839416669 0.1080291665 0.07466490531 0.03336426122) 580 1126 2
(0.2283108983 0.3858445509 0.3125007049 0.07334384594) 229 456 2
(0.3966563066 0.1089861491 0.1926856976 0.3016718467) 265 491 2
(0.41117337 0.266665273 0.02774804202 0.294413315) 297 594 1
(0.3858948652 0.3070525674 0.02701362727 0.2800389401) 523 1016 2
(0.4571918365 0.001477963957 0.2699261178 0.2714040818) 90 141 2
(0.4745662417 0.2047403588 0.2627168792 0.05797652033) 103 207 2
(0.01219509001 0.3834743353 0.493902455 0.1104281197) 167 335 2
(0.4366380756 0.06851770546 0.2131632567 0.2816809622) 136 272 1
(0.02572856279 0.4871357186 0.2679720231 0.2191636955) 491 955 2
(0.7677463875 0.06949503867 0.1161268063 0.04663176758) 117 232 1
(0.2066879615 0.1890882459 0.2075677733 0.3966560193) 62 124 1
(0.1825402198 0.4087298901 0.06002800168 0.3487018884) 221 440 2
(0.2102453251 0.3948773374 0.04789917125 0.3469781662) 147 255 1
(0.5721196658 0.2139401671 0.1418035602 0.07213660688) 132 225 1
(0.5116155475 0.138760911 0.2441922262 0.1054313152) 163 327 2
(0.2963180571 0.06796302709 0.2838779444 0.3518409714) 540 1050 1
(0.3336994881 0.1916682792 0.333150256 0.1414819768) 101 203 2
(0.2619819945 0.3690090028 0.2160137343 0.1529952685) 349 698 2
(0.4610744626 0.2694627687 0.1670283649 0.1024344038) 252 504 2
(0.2190979867 0.3904510066 0.3672002835 0.02325072318) 306 610 2
(0.0009366434366 0.4995316783 0.346511533 0.1530201453) 259 518 1
(0.1288918414 0.121340132 0.4355540793 0.3142139473) 211 423 2
(0.5789330891 0.09671118025 0.1138222752 0.2105334555) 632 1225 1
(0.1662833859 0.416858307 0.3109522145 0.1059060926) 203 367 1
(0.255359155 0.05602926858 0.3723204225 0.3162911539) 513 1000 2
(0.1587384722 0.4206307639 0.06591953607 0.3547112278) 195 388 2
(0.6990519089 0.141745445 0.1504740455 0.00872860054) 191 383 2
(0.1376662897 0.4311668552 0.1576211377 0.2735457175) 248 494 2
(0.6484907195 0.1757546403 0.06281676443 0.1129378758) 542 1052 2
(0.2175751725 0.3912124137 0.241840859 0.1493715548) 69 138 2
(0.4012131749 0.1421336224 0.2993934126 0.1572597902) 517 1008 2
(0.001716990953 0.2551266745 0.24401483 0.4991415045) 298 557 2
(0.6739497688 0.1630251156 0.08675913381 0.07626598181) 103 204 2
(0.6283116837 0.05897463504 0.1858441582 0.1268695231) 108 217 2
(0.1780141145 0.4109929427 0.1468501774 0.2641427653) 248 496 2
(0.1151205233 0.1751020448 0.2673376936 0.4424397383) 79 159 1
(0.2052141518 0.3973929241 0.03588041664 0.3615125074) 314 626 2
(0.07826916715 0.4608654164 0.2389724029 0.2218930135) 584 1116 1
(0.02061171301 0.05145574215 0.4382384014 0.4896941435) 35 31 2
(0.05969944162 0.4701502792 0.07060931838 0.3995409608) 642 1245 1
(0.4308935656 0.1604069469 0.2845532172 0.1241462703) 393 787 2
(0.7362506344 0.1318746828 0.1158092879 0.01606539489) 484 926 1
(0.1544716272 0.04864619167 0.4227641864 0.3741179947) 69 139 2
(0.1736787525 0.4131606237 0.1619940872 0.2511665365) 435 855 2
(0.465118689 0.2674406555 0.08577910718 0.1816615483) 431 850 2
(0.08518786049 0.1744993 0.2829067698 0.4574060698) 573 1095 2
(0.132391686 0.433804157 0.2948320873 0.1389720697) 316 633 1
(0.1655571693 0.003613009599 0.4136084058 0.4172214153) 38 76 1
(0.07326733108 0.4633663345 0.3194499689 0.1439163655) 320 601 1
(0.481996356 0.259001822 0.2247068753 0.03429494667) 587 1122 1
(0.1478182663 0.06172519811 0.4260908668 0.3643656687) 574 1116 2
(0.2521692607 0.3739153697 0.3387635557 0.03515181393) 133 266 2
(0.008385878121 0.4958070609 0.2722946504 0.2235124105) 312 585 1
(0.4420595718 0.2682269479 0.01074326623 0.2789702141) 374 709 2
(0.9058436267 0.04707818663 0.0002692374404 0.04680894919) 66 130 2
(0.4402035853 0.2798982073 0.03783308511 0.2420651222) 561 1091 1
(0.1854764863 0.2992815185 0.4072617569 0.1079802384) 329 656 1
(0.317430101 0.2227354153 0.1185495342 0.3412849495) 335 631 2
(0.6276711414 0.1861644293 0.002120657303 0.184043772) 292 584 2
(0.1059929967 0.4470035016 0.06760016977 0.3794033319) 520 359 2
(0.4128091629 0.06357504402 0.2935954185 0.2300203745) 111 223 2
(0.2338271007 0.3830864497 0.1962865579 0.1867998918) 356 673 1
(0.1975491948 0.2967756524 0.4012254026 0.1044497502) 296 590 1
(0.5869490815 0.07424485344 0.1322806058 0.2065254592) 429 819 2
(0.4727954571 0.2636022714 0.2401166501 0.02348562134) 448 874 2
(0.3048500749 0.3475749625 0.1134791532 0.2340958093) 135 268 2
(0.179695754 0.1665278024 0.410152123 0.2436243206) 238 477 2
(0.324251866 0.337874067 0.3154517196 0.02242234746) 149 296 2
(0.2775450311 0.01809993231 0.3431275521 0.3612274844) 543 1056 1
(0.3431603072 0.3284198464 0.1187712725 0.2096485739) 216 432 2
(0.4222800796 0.1374530277 0.2888599602 0.1514069325) 570 1108 2
(0.2226694942 0.3886652529 0.05744671 0.3312185429) 287 575 1
(0.7511320462 0.1244339769 0.1231683371 0.001265639777) 146 292 2
(0.2947884034 0.3526057983 0.1140563414 0.2385494569) 256 510 2
(0.4514896378 0.1252526172 0.2742551811 0.1490025639) 105 211 2
(0.626565813 0.1867170935 0.08168415432 0.1050329392) 491 957 2
(0.3394825285 0.2517251304 0.07853360531 0.3302587357) 544 1040 2
(0.2693836949 0.3653081525 0.005325045423 0.3599831071) 87 172 2
(0.6763822338 0.1618088831 0.1605850962 0.001223786913) 220 1267 1
(0.2085336473 0.0213255007 0.3957331764 0.3744076757) 501 974 1
(0.635476606 0.1402492617 0.182261697 0.0420124353) 219 436 1
(0.07220645858 0.4638967707 0.42609336 0.03780341066) 591 1148 1
(0.7163234075 0.1418382963 0.0173917173 0.124446579) 521 996 1
(0.07422698388 0.4628865081 0.1800649626 0.2828215455) 415 791 1
(0.04392289568 0.4780385522 0.02837796507 0.4496605871) 576 1119 2
(0.07799974865 0.03358724485 0.4274128808 0.4610001257) 366 732 1
(0.01629167674 0.2149037875 0.2769503741 0.4918541616) 307 575 2
(0.4519723187 0.2740138406 0.2016819641 0.07233187657) 48 94 2
(0.02039767791 0.09615544335 0.489801161 0.3936457177) 277 552 1
(0.04007335171 0.4799633241 0.1791769291 0.3007863951) 75 151 1
(0.6984202929 0.1507898535 0.07448712501 0.07630272852) 191 380 2
(0.50358054 0.1166672904 0.1315424396 0.24820973) 325 650 1
(0.2957548257 0.0003834697815 0.3521225871 0.3517391174) 58 117 2
(0.2654542748 0.3672728626 0.0832599039 0.2840129587) 398 797 1
(0.861763969 0.06911801552 0.003231196883 0.06588681863) 253 507 1
(0.09501473851 0.3502957914 0.4524926307 0.1021968393) 108 217 2
(0.488698502 0.255650749 0.09207807938 0.1635726696) 135 231 1
(0.6884905321 0.1547929938 0.1557547339 0.0009617401579) 376 750 1
(0.11860203 0.2552049521 0.440698985 0.1854940329) 188 374 1
(0.1889534388 0.4055232806 0.1456554009 0.2598678797) 172 342 2
(0.3415745973 0.0267720262 0.3024406752 0.3292127014) 119 239 1
(0.3825836747 0.3087081627 0.2637076026 0.04500056006) 517 1005 2
(0.07008090319 0.4649595484 0.1448882973 0.3200712511) 150 300 2
(0.002891618048 0.009215492776 0.498554191 0.4893386982) 55 111 2
(0.01289809489 0.4935509526 0.2454981455 0.2480528071) 621 1204 2
(0.3479606245 0.2608740175 0.3260196878 0.06514567028) 531 1034 2
(0.3851239228 0.3074380386 0.2512517022 0.05618633637) 391 780 2
(0.3412490829 0.1060052926 0.3293754586 0.223370166) 572 1109 1
(0.1297754181 0.3689434707 0.435112291 0.06616882021) 389 776 1
(0.4655793544 0.2672103228 0.05367485251 0.2135354703) 501 958 1
(0.4044468592 0.2977765704 0.08168194699 0.2160946234) 450 79 2
(0.4319677736 0.02446525984 0.2595508534 0.2840161132) 640 1222 2
(0.2867387367 0.3566306317 0.1667602378 0.1898703939) 522 1017 1
(0.1120103997 0.01421249454 0.4439948001 0.4297823056) 589 1142 1
(0.1733912129 0.3448874512 0.06841694232 0.4133043935) 363 687 2
(0.4537232527 0.2554465089 0.01769186474 0.2731383737) 315 630 1
(0.142912524 0.428543738 0.3585998284 0.06994390961) 611 1183 2
(0.2483799074 0.3758100463 0.2432806613 0.1325293849) 318 597 1
(0.07646786405 0.461766068 0.3030133443 0.1587527237) 135 270 2
(0.6847758584 0.1195936512 0.1576120708 0.0380184196) 409 819 2
(0.2992427904 0.1442511177 0.2061274871 0.3503786048) 432 825 2
(0.001674255205 0.4991628724 0.2089792122 0.2901836602) 500 974 2
(0.3981002341 0.300949883 0.02298841314 0.2779614698) 530 1013 1
(0.8550050501 0.07249747497 0.06263391908 0.009863555885) 395 751 1
(0.1233311683 0.2087889028 0.4383344158 0.229545513) 245 488 1
(0.8517084725 0.03544177807 0.07414576376 0.0387039857) 530 399 1
(0.2914530082 0.3542734959 0.3434057668 0.01086772908) 290 581 1
(0.2159637035 0.2889948503 0.1030232979 0.3920181483) 268 536 1
(0.742387985 0.08349245794 0.1288060075 0.04531354955) 53 104 1
(0.2360159721 0.3819920139 0.3421962914 0.0397957225) 232 464 2
(0.242263118 0.378868441 0.3783722091 0.000496231937) 107 215 1
(0.1778421484 0.05225480809 0.4110789258 0.3588241177) 574 1116 2
(0.04294293646 0.1345981365 0.3439303952 0.4785285318) 190 341 2
(0.685076497 0.1134688727 0.1574617515 0.0439928788) 36 70 1
(0.2142013666 0.3928993167 0.05481935305 0.3380799636) 61 83 1
(0.563304106 0.04832059018 0.218347947 0.1700273568) 57 115 2
(0.4127056993 0.2608754493 0.03277170108 0.2936471503) 207 375 2
(0.001040443793 0.4994797781 0.1618959603 0.3375838178) 456 873 1
(0.5094237834 0.2452881083 0.1779995941 0.06728851418) 199 396 2
(0.6994204062 0.1502897969 0.08491332377 0.06537647312) 395 790 2
(0.06974281653 0.2639384107 0.2011901811 0.4651285917) 372 705 2
(0.5771168459 0.2114415771 0.1125837656 0.09885781143) 210 418 2
(0.5173737773 0.01940773264 0.2413131113 0.2219053787) 553 1076 2
(0.08216566759 0.2646056174 0.1943115488 0.4589171662) 521 996 2
(0.4947433598 0.1889637808 0.2526283201 0.06366453934) 310 621 2
(0.8441315421 0.04849985847 0.07793422897 0.0294343705) 348 694 1
(0.05610881694 0.4719455915 0.3996138339 0.0723317576) 31 63 1
(0.5588558848 0.138868546 0.0817035116 0.2205720576) 78 117 2
(0.0664592596 0.03061586298 0.4667703702 0.4361545072) 591 1148 2
(0.4094022016 0.1926535843 0.1026453149 0.2952988992) 370 701 2
(0.4225300215 0.2549512391 0.03378375011 0.2887349892) 348 657 2
(0.3086816355 0.3456591822 0.2704267462 0.07523243603) 217 435 1
(0.3366010612 0.1864760861 0.1452233833 0.3316994694) 196 353 2
(0.5252393343 0.2373803328 0.03656763198 0.2008127009) 174 309 1
(0.3302462534 0.1400457765 0.1948310968 0.3348768733) 338 676 1
(0.4252552049 0.2873723976 0.08960345248 0.1977689451) 235 471 1
(0.01512519362 0.4136586706 0.4924374032 0.07877873257) 324 646 1
(0.4735703894 0.01214868894 0.2632148053 0.2510661163) 33 64 1
(0.5143512623 0.2428243688 0.03732310929 0.2055012596) 481 939 1
(0.3965612241 0.2563367144 0.0453826736 0.301719388) 482 940 1
(0.03485787508 0.2337007446 0.4825710625 0.2488703178) 596 1158 2
(0.2518682331 0.3740658835 0.2208126037 0.1532532798) 613 1189 2
(0.01922987166 0.4903850642 0.4285862834 0.06179878073) 553 1075 2
(0.4714204704 0.2642897648 0.03689880185 0.2273909629) 147 295 1
(0.3257788897 0.3371105551 0.1132293779 0.2238811772) 613 1189 2
(0.2160715806 0.100668031 0.2912961788 0.3919642097) 493 961 1
(0.2861302479 0.3370145634 0.01992031268 0.3569348761) 243 486 1
(0.8509737655 0.07451311724 0.05584698011 0.01866613713) 21 40 2
(0.09745362795 0.3632454951 0.08802769097 0.451273186) 310 620 1
(0.09694808526 0.4515259574 0.04809643651 0.4034295209) 171 340 2
(0.2660024012 0.06904830426 0.3669987994 0.2979504951) 296 593 2
(0.6265451248 0.1867274376 0.1056340631 0.08109337449) 566 1098 2
(0.8443150339 0.07784248303 0.05979489106 0.01804759198) 11 1289 2
(0.45536765 0.1496701278 0.1226460472 0.272316175) 550 1069 1
(0.4628783443 0.2667116938 0.00184913404 0.2685608279) 344 649 2
(0.202698472 0.06243866699 0.336212097 0.398650764) 199 399 1
(0.0243689197 0.09930519179 0.4878155401 0.3885103484) 565 1096 1
(0.4235203976 0.2882398012 0.1948961959 0.09334360523) 268 536 2
(0.4774836041 0.1293515966 0.1319066014 0.261258198) 38 37 2
(0.0820334962 0.3126791245 0.4589832519 0.1463041274) 197 395 2
(0.4361244946 0.2819377527 0.00844249656 0.2734952561) 136 233 1
(0.06152507918 0.4692374604 0.3525147053 0.1167227551) 179 358 1
(0.08678413869 0.4566079307 0.01853320656 0.4380747241) 108 216 2
(0.4140531647 0.2678710116 0.02510240609 0.2929734177) 474 925 1
(0.4980265933 0.04745284592 0.2509867034 0.2035338574) 171 343 2
(0.1859901785 0.05837487305 0.3486300377 0.4070049107) 104 208 1
(0.3840833375 0.3079583312 0.1481908113 0.1597675199) 387 735 1
(0.07810739143 0.2422471707 0.4609463043 0.2186991336) 318 637 2
(0.4325494063 0.2837252968 0.1281409662 0.1555843307) 118 197 1
(0.504930393 0.2475348035 0.1673742933 0.08016051023) 163 324 2
(0.09289142252 0.4535542887 0.06072235981 0.3928319289) 175 311 1
(0.02941998927 0.0817875368 0.4035024686 0.4852900054) 97 155 2
(0.4938833995 0.2530583003 0.1274690512 0.1255892491) 152 304 2
(0.09541285509 0.3094106323 0.4522935725 0.1428829401) 591 1145 1
(0.1333555313 0.4333222344 0.07385470856 0.3594675258) 540 1050 2
(0.1454372794 0.1947711824 0.4272813603 0.2325101779) 252 502 1
(0.401148305 0.2994258475 0.01508298272 0.2843428648) 448 1306 2
(0.5444978012 0.2277510994 0.01584232258 0.2119087768) 583 1132 2
(0.5784011014 0.1114832363 0.09931621306 0.2107994493) 225 411 2
(0.4171383823 0.0213326905 0.2700981183 0.2914308089) 96 153 2
(0.2811821687 0.3594089156 0.1874355246 0.171973391) 90 180 2
(0.2194046697 0.3796792459 0.01061841927 0.3902976651) 615 1193 1
(0.1969612191 0.4015193905 0.3270749511 0.07444443932) 166 332 2
(0.6589440893 0.1705279553 0.004153853238 0.1663741021) 369 739 1
(0.8979113331 0.02330597976 0.02773835369 0.05104433346) 494 945 2
(0.1560367951 0.4219816025 0.1207637091 0.3012178934) 65 91 1
(0.2716708726 0.3641645637 0.1745118584 0.1896527053) 54 108 2
(0.07421803864 0.4417393702 0.02115161047 0.4628909807) 16 32 1
(0.02979194291 0.2587971425 0.4851040285 0.2263068861) 353 704 1
(0.137992075 0.3967669018 0.03423706076 0.4310039625) 568 1104 1
(0.617621403 0.1911892985 0.1502545092 0.0409347893) 500 956 1
(0.3028468217 0.09571773699 0.3485765891 0.2528588521) 268 534 1
(0.2163237855 0.3918381072 0.1543690869 0.2374690203) 585 1118 1
(0.2127961032 0.2614262571 0.1321756913 0.3936019484) 213 426 1
(0.05403545701 0.05152901708 0.4729822715 0.4214532544) 336 673 2
(0.5509966741 0.1463670575 0.2245016629 0.07813460547) 115 228 1
(0.004673564829 0.4976632176 0.08799406455 0.409669153) 274 509 1
(0.7297175051 0.1351412474 0.06312510681 0.07201614062) 211 423 1
(0.03886177497 0.4805691125 0.1586059889 0.3219631237) 297 555 1
(0.4987074469 0.2506462765 0.07512175783 0.1755245187) 115 230 2
(0.4170277317 0.2179967707 0.07348936347 0.2914861342) 127 215 2
(0.04442258625 0.06639349757 0.4777887069 0.4113952093) 232 465 2
(0.1063600201 0.4468199899 0.2378179942 0.2090019957) 399 798 1
(0.2218624862 0.13028714 0.3890687569 0.2587816169) 208 414 1
(0.3769386162 0.288395103 0.02313558896 0.3115306919) 437 857 1
(0.25093505 0.3670830551 0.007449419901 0.374532475) 272 505 2
(0.1878518079 0.4060740961 0.09028027936 0.3157938167) 31 63 1
(0.07276286847 0.4280385672 0.4636185658 0.03557999853) 224 449 2
(0.5015664034 0.05905914591 0.2492167983 0.1901576524) 535 1042 2
(0.06530208932 0.4673489553 0.1181766005 0.3491723548) 472 922 1
(0.9135872677 0.04320636613 0.03997869274 0.003227673397) 588 1124 1
(0.6791243986 0.1213156735 0.1604378007 0.03912212719) 161 320 1
(0.2739952068 0.3630023966 0.2870883675 0.07591402911) 206 410 2
(0.2051985635 0.3974007183 0.01911845698 0.3782822613) 387 775 1
(0.09632941758 0.4518352912 0.0382464008 0.4135888904) 314 629 1
(0.1766887082 0.3951041535 0.4116556459 0.0165514924) 269 536 1
(0.7804577494 0.1089831194 0.0007880058953 0.1097711253) 114 228 1
(0.4138965549 0.07439415293 0.2930517225 0.2186575696) 480 937 2
(0.6228523795 0.110013865 0.1885738102 0.07855994522) 13 24 1
(0.1955305475 0.3996822595 0.002552466806 0.4022347263) 226 413 2
(0.01908724378 0.1511546854 0.4904563781 0.3393016927) 480 199 1
(0.09585121202 0.452074394 0.2031355063 0.2489388877) 228 457 1
(0.2198280073 0.0713143869 0.3187716095 0.3900859964) 325 650 1
(0.5746936524 0.1278295722 0.08482360158 0.2126531738) 186 333 2
(0.009024610842 0.4954876946 0.4424498161 0.05303787852) 369 739 1
(0.02970690738 0.4851465463 0.131027374 0.3541191723) 382 764 2
(0.5034803837 0.2482598081 0.09039866375 0.1578611444) 228 454 2
(0.0499159216 0.4750420392 0.3374334574 0.1376085818) 193 386 2
(0.1606210438 0.4196894781 0.1987047983 0.2209846798) 338 677 1
(0.954203454 0.01798207262 0.004916200376 0.02289827299) 526 1024 1
(0.1643559062 0.3269425841 0.4178220469 0.09087946282) 244 486 1
(0.1715844697 0.4142077651 0.3992271099 0.01498065526) 228 417 1
(0.5964716685 0.2017641658 0.1243990047 0.07736516106) 213 426 2
(0.6211681196 0.1894159402 0.1286491007 0.0607668395) 445 871 1
(0.02652714 0.48673643 0.09527451396 0.391461916) 440 860 2
(0.2855827766 0.3572086117 0.1638653524 0.1933432593) 191 343 1
(0.1631734222 0.08051968126 0.4184132889 0.3378936077) 259 516 1
(0.1686613718 0.4156693141 0.149892388 0.2657769261) 289 576 2
(0.6922002839 0.1538998581 0.06027977256 0.09362008552) 116 232 2
(0.08058625549 0.4597068723 0.180613388 0.2790934843) 410 820 2
(0.285737999 0.3571310005 0.2780112069 0.07911979359) 455 871 1
(0.5419956961 0.229002152 0.05008542356 0.1789167284) 563 1092 2
(0.1284941734 0.2823938548 0.1533590585 0.4357529133) 315 630 1
(0.08335249085 0.3848516844 0.07347207015 0.4583237546) 290 541 2
(0.07258816513 0.1806757383 0.4637059174 0.2830301791) 524 1021 2
(0.408439844 0.295780078 0.24166228 0.05411779802) 177 354 2
(0.5578302666 0.142944393 0.07814047373 0.2210848667) 581 1128 1
(0.2495691481 0.1823907024 0.1928247236 0.375215426) 284 568 1
(0.2985229053 0.3507385473 0.2140864833 0.136652064) 431 851 2
(0.7349011496 0.08103426101 0.1325494252 0.0515151642) 313 627 2
(0.3912410575 0.3043794713 0.002585243319 0.3017942279) 600 1146 1
(0.1881602203 0.3294556675 0.4059198899 0.07646422237) 356 710 1
(0.837969494 0.06904107232 0.01197418067 0.08101525299) 206 373 2
(0.06017094526 0.2050762443 0.264838283 0.4699145274) 192 345 2
(0.3622492052 0.3170119528 0.001863444551 0.3188753974) 536 1025 2
(0.08034161689 0.4291702456 0.03065894593 0.4598291916) 526 1006 2
(0.05825681149 0.4708715943 0.4071649984 0.06370659581) 150 301 1