/*--------------------------------*- C++ -*----------------------------------*\
  =========                 |
  \\      /  F ield         | OpenFOAM: The Open Source CFD Toolbox
   \\    /   O peration     | Website:  https://openfoam.org
    \\  /    A nd           | Version:  7
     \\/     M anipulation  |
\*---------------------------------------------------------------------------*/
FoamFile
{
    version     2.0;
    format      ascii;
    class       volScalarField;
    location    "0.01";
    object      iDof;
}
// * * * * * * * * * * * * * * * * * * * * * * * * * * * * * * * * * * * * * //

dimensions      [0 -3 0 0 0 0 0];

internalField   nonuniform List<scalar> 
546
(
8.07620476e+20
5.875883043e+20
5.691915658e+20
5.963956684e+20
6.471221167e+20
6.054710775e+20
5.866472621e+20
6.621213391e+20
4.527949695e+20
5.764398594e+20
6.536240755e+20
5.368285957e+20
6.395324694e+20
7.934938573e+20
6.249804699e+20
5.797170784e+20
4.828732361e+20
3.331532898e+20
4.910277345e+20
4.170182266e+20
4.731748872e+20
6.628806715e+20
7.756612673e+20
7.824994368e+20
4.083409901e+20
7.141428743e+20
3.325891089e+20
5.593806061e+20
3.951776238e+20
2.279177435e+20
6.95450966e+20
7.231856053e+20
5.919592285e+20
6.881488482e+20
5.084530917e+20
4.191722847e+20
4.927837002e+20
4.729438136e+20
3.336383986e+20
5.76439859e+20
4.599576827e+20
4.636246963e+20
5.65740261e+20
5.455270264e+20
5.499828131e+20
4.284865362e+20
4.320444744e+20
3.844076417e+20
3.876534743e+20
5.212727837e+20
5.783248626e+20
5.037893108e+20
4.814449249e+20
6.475857408e+20
5.172319208e+20
5.768077067e+20
6.374624592e+20
3.635973943e+20
3.387236775e+20
4.27345769e+20
5.608475528e+20
5.197896538e+20
5.236562406e+20
5.046424887e+20
6.471221171e+20
5.356090301e+20
3.51988357e+20
5.675325763e+20
5.242889124e+20
4.56348222e+20
4.841659815e+20
5.368285957e+20
6.641298716e+20
5.207303434e+20
5.499828135e+20
4.78896717e+20
5.337019978e+20
4.100348178e+20
4.651841695e+20
7.037182581e+20
4.731748868e+20
5.303045372e+20
6.954204471e+20
4.04741088e+20
6.261228516e+20
5.768077062e+20
4.711679042e+20
4.475044849e+20
4.798585431e+20
5.413046412e+20
5.384136507e+20
5.423892036e+20
5.236562406e+20
3.670127193e+20
5.084530917e+20
4.191722844e+20
4.693178097e+20
5.438853857e+20
4.051323411e+20
4.803665495e+20
4.599576827e+20
5.856311949e+20
3.689610398e+20
4.463402947e+20
4.499859384e+20
4.536916266e+20
4.828732361e+20
6.919337551e+20
3.101227794e+20
3.909545878e+20
5.520373688e+20
6.098502183e+20
4.814449245e+20
5.666375227e+20
6.261228516e+20
4.944066053e+20
3.603048683e+20
4.754735161e+20
3.951776241e+20
3.988560499e+20
4.03810238e+20
3.615928024e+20
4.325855897e+20
5.275807832e+20
4.391185792e+20
5.356090305e+20
5.631813716e+20
4.965910043e+20
5.957828546e+20
5.76439859e+20
5.567908791e+20
4.636246967e+20
5.903376641e+20
4.711369778e+20
4.749851571e+20
5.545119881e+20
6.607739026e+20
3.587804662e+20
3.876534746e+20
2.867000308e+20
3.943124057e+20
3.18182722e+20
6.41926566e+20
3.237928704e+20
5.444546545e+20
5.768077052e+20
3.325891077e+20
4.195354561e+20
5.64539463e+20
2.564074621e+20
4.935458472e+20
4.97190104e+20
4.781209156e+20
4.587658991e+20
4.391185795e+20
4.424596339e+20
7.039767146e+20
7.094157204e+20
5.24288912e+20
7.205498237e+20
7.988738694e+20
3.41618197e+20
6.64129871e+20
5.70323709e+20
6.999781258e+20
4.536916266e+20
4.574588552e+20
4.869163462e+20
4.393406046e+20
3.648909489e+20
4.205999001e+20
5.833349924e+20
6.151796295e+20
3.507756096e+20
5.716773822e+20
4.120055044e+20
4.157363883e+20
5.314115768e+20
5.92766434e+20
3.988560485e+20
3.589424338e+20
2.711946018e+20
5.236562402e+20
5.046424883e+20
5.084530917e+20
4.191722847e+20
4.223860287e+20
5.20238195e+20
5.004575978e+20
5.284032045e+20
6.294157769e+20
3.660194974e+20
5.657402614e+20
5.95120393e+20
3.749882817e+20
5.545119876e+20
5.845307595e+20
4.100348178e+20
5.168713012e+20
5.734000664e+20
4.994623847e+20
5.833349944e+20
3.744571645e+20
3.237928726e+20
4.083409951e+20
2.746703387e+20
4.98883666e+20
2.796903036e+20
4.516315729e+20
3.988560558e+20
3.140746296e+20
2.71194602e+20
5.008885783e+20
2.752595395e+20
2.542265458e+20
3.260228879e+20
5.162495907e+20
5.91179767e+20
5.004575982e+20
4.323298946e+20
3.38916187e+20
1.952103983e+20
3.197662345e+20
6.44713759e+20
4.499859394e+20
4.788967181e+20
4.066300929e+20
4.356619918e+20
5.427148618e+20
3.648909471e+20
3.94312403e+20
3.712131719e+20
4.814449216e+20
3.777583482e+20
4.355637205e+20
5.218736343e+20
3.880206222e+20
5.873496322e+20
4.234045957e+20
2.564074597e+20
3.140746298e+20
2.485950518e+20
1.821413009e+20
3.67012719e+20
4.160070753e+20
5.123216813e+20
5.397154812e+20
3.310606695e+20
5.719515404e+20
4.803665491e+20
5.083742797e+20
8.052428942e+20
6.395324699e+20
3.719502462e+20
6.249804704e+20
6.301272551e+20
4.574588545e+20
6.40679405e+20
5.42714864e+20
4.691455034e+20
4.994623813e+20
5.833349944e+20
4.012041048e+20
3.50775609e+20
5.716773832e+20
3.570714372e+20
3.880206291e+20
4.475044857e+20
5.64539461e+20
4.558354881e+20
2.467729232e+20
3.389932522e+20
3.415149395e+20
2.523212443e+20
2.542265458e+20
3.260228879e+20
3.754542472e+20
3.783550515e+20
4.28963655e+20
3.362565834e+20
4.115410862e+20
4.392233962e+20
8.855064919e+20
2.479668304e+20
6.749789054e+20
6.553323506e+20
5.082876202e+20
4.356619954e+20
5.42714864e+20
4.691455073e+20
3.943124063e+20
5.03789309e+20
6.151796274e+20
4.587065656e+20
4.900091899e+20
4.39472538e+20
3.880206256e+20
4.475044857e+20
5.64539461e+20
2.27917742e+20
3.365085317e+20
2.937941513e+20
1.366059752e+20
1.835063591e+20
2.542265458e+20
2.794481902e+20
3.050565777e+20
4.729438158e+20
5.957828555e+20
4.56348221e+20
5.083742782e+20
4.880259958e+20
6.887272769e+20
6.19917076e+20
2.499921892e+20
4.032814465e+20
6.861882762e+20
4.612891678e+20
5.42714864e+20
5.473364207e+20
5.783248626e+20
3.446979512e+20
4.814449258e+20
5.666375222e+20
4.08340988e+20
4.39472538e+20
4.434521475e+20
6.712567286e+20
6.49220386e+20
3.703663375e+20
2.467729241e+20
2.937941534e+20
2.73211953e+20
3.440744248e+20
3.235610581e+20
1.862987924e+20
2.346589031e+20
2.128247139e+20
2.383131404e+20
3.602749141e+20
3.873327894e+20
2.684142998e+20
4.919480549e+20
5.207303438e+20
6.749789054e+20
4.032814465e+20
5.337020013e+20
4.869163478e+20
5.944019939e+20
7.297818942e+20
4.731748836e+20
3.977283985e+20
4.279510378e+20
3.777583482e+20
4.900091941e+20
2.472033048e+20
4.157363883e+20
4.754735161e+20
5.64539461e+20
5.413046372e+20
2.467729225e+20
2.259955002e+20
3.870502639e+20
1.146914749e+20
2.080035373e+20
2.09586143e+20
3.754542506e+20
3.31060671e+20
2.383131422e+20
2.642016016e+20
3.147078865e+20
3.66019494e+20
2.705714281e+20
1.983734643e+20
2.999906246e+20
6.301272551e+20
4.066300929e+20
5.12543524e+20
3.876534743e+20
6.515909824e+20
5.257498795e+20
6.363654484e+20
6.151796274e+20
4.587065656e+20
4.900091856e+20
3.57071434e+20
4.157363846e+20
4.754735161e+20
4.234045957e+20
3.41876613e+20
2.467729225e+20
2.48595052e+20
1.821413007e+20
1.835063586e+20
2.080035373e+20
3.027355376e+20
2.346589031e+20
3.547078591e+20
3.813010275e+20
3.842932387e+20
3.873327834e+20
3.660194968e+20
4.42753246e+20
2.975601941e+20
3.249898433e+20
4.032814465e+20
5.845307585e+20
4.612891678e+20
4.393406042e+20
2.867000299e+20
3.94312403e+20
5.03789309e+20
3.477102242e+20
3.777583482e+20
4.08340988e+20
4.39472538e+20
4.157363846e+20
5.593806021e+20
4.798585418e+20
5.413046422e+20
2.019051199e+20
2.033959531e+20
2.276766275e+20
4.817041948e+20
3.235610605e+20
2.794481907e+20
3.754542478e+20
4.49296625e+20
2.621444564e+20
2.642016016e+20
2.420829915e+20
2.196116998e+20
4.181558467e+20
3.967469286e+20
4.499859405e+20
4.032814465e+20
3.049725697e+20
3.075261144e+20
4.393406078e+20
5.734000645e+20
4.468873938e+20
6.363654484e+20
6.419265677e+20
4.856893048e+20
3.53895526e+20
4.669395758e+20
3.880206291e+20
3.356283643e+20
5.927664394e+20
4.558354881e+20
2.243390205e+20
2.711946002e+20
1.366059755e+20
3.440744248e+20
2.773380498e+20
1.862987938e+20
1.40795344e+20
1.891775263e+20
2.38313144e+20
2.642016037e+20
2.420829896e+20
5.124272915e+20
4.42753246e+20
4.215436117e+20
3.249898433e+20
3.276661753e+20
4.066300962e+20
3.331532906e+20
2.584356495e+20
4.170182287e+20
3.680249157e+20
3.446979512e+20
4.012041048e+20
4.856893048e+20
6.805683133e+20
4.669395676e+20
4.711679026e+20
5.034425464e+20
5.64539461e+20
1.346034123e+20
1.581968513e+20
3.415149412e+20
1.605680649e+20
1.386690249e+20
3.958849338e+20
2.346589031e+20
2.128247139e+20
3.098070825e+20
2.642016037e+20
2.420829934e+20
1.464077999e+20
4.427532494e+20
2.975601965e+20
2.749914059e+20
3.024610825e+20
5.337019969e+20
4.869163478e+20
2.325920846e+20
5.212727816e+20
4.731748836e+20
4.242436251e+20
6.686735023e+20
4.587065696e+20
2.467729243e+20
1.807964015e+20
2.276766242e+20
1.605680637e+20
1.155575207e+20
2.794481907e+20
1.40795344e+20
3.31060671e+20
2.859757706e+20
2.401832742e+20
1.452497938e+20
1.952103983e+20
4.427532494e+20
3.223568795e+20
3.499890648e+20
4.284865404e+20
3.558013313e+20
4.356619918e+20
4.651841692e+20
1.12169511e+20
2.033959516e+20
1.366059765e+20
1.605680649e+20
1.61780529e+20
2.328734905e+20
2.111930128e+20
2.364719061e+20
2.383131422e+20
2.88219929e+20
3.147078889e+20
1.952103983e+20
1.475844153e+20
1.735767813e+20
3.365085307e+20
2.033959502e+20
2.276766258e+20
2.064446549e+20
1.617805302e+20
1.630114445e+20
3.519883573e+20
1.891775263e+20
2.243390221e+20
2.033959531e+20
)
;

boundaryField
{
    flow
    {
        type            zeroGradient;
    }
    obstacle
    {
        type            calculated;
        value           nonuniform List<scalar> 
30
(
510.8107309
2.225073859e-308
2.225073859e-308
406.9729801
84.44377907
2.225073859e-308
354.7003609
154.3559781
2.225073859e-308
456.3376302
363.2500994
297.0678729
2.225073859e-308
904.6935807
164.5267028
84.24235026
96.75427006
2.225073859e-308
66.55352725
2.225073859e-308
361.0098541
124.2008235
70.36680774
478.798685
99.04979025
185.2209954
292.4806341
82.27258336
108.0976023
2.225073859e-308
)
;
    }
    frontAndBack
    {
        type            empty;
    }
    procBoundary1to0
    {
        type            processor;
        value           nonuniform List<scalar> 
21
(
8.240145942e+20
6.013079471e+20
6.013079471e+20
3.786013e+20
2.895186414e+20
4.676839592e+20
3.340599706e+20
3.117893059e+20
2.672479765e+20
3.117893059e+20
2.672479765e+20
1.558946536e+20
2.449773118e+20
2.004359809e+20
2.004359824e+20
4.454132941e+20
1.55894653e+20
1.113533235e+20
2.227066487e+20
2.895186412e+20
2.449773118e+20
)
;
    }
    procBoundary1to3
    {
        type            processor;
        value           nonuniform List<scalar> 
36
(
5.128149242e+20
5.444546602e+20
5.218736435e+20
7.760412582e+20
5.593806071e+20
5.128149242e+20
4.798585418e+20
3.648909471e+20
3.417374188e+20
2.386370432e+20
4.279510451e+20
5.444546602e+20
4.587065656e+20
2.999906246e+20
1.764356314e+20
3.558013313e+20
4.869163478e+20
3.648909471e+20
3.101227794e+20
2.621444564e+20
7.205498226e+19
1.936663917e+20
3.41618197e+20
2.213766247e+20
2.999906246e+20
2.727635134e+20
1.593736392e+20
9.175317996e+19
2.080035373e+20
1.862987938e+20
1.642612346e+20
2.621444564e+20
1.891775263e+20
3.140746287e+20
1.593736392e+20
2.259955002e+20
)
;
    }
}


// ************************************************************************* //
