/*--------------------------------*- C++ -*----------------------------------*\
  =========                 |
  \\      /  F ield         | OpenFOAM: The Open Source CFD Toolbox
   \\    /   O peration     | Website:  https://openfoam.org
    \\  /    A nd           | Version:  7
     \\/     M anipulation  |
\*---------------------------------------------------------------------------*/
FoamFile
{
    version     2.0;
    format      ascii;
    class       volVectorField;
    location    "0.01";
    object      momentumMean;
}
// * * * * * * * * * * * * * * * * * * * * * * * * * * * * * * * * * * * * * //

dimensions      [1 -2 -1 0 0 0 0];

internalField   nonuniform List<vector> 
546
(
(0.0001106277861 3.212497887e-05 3.861787917e-05)
(9.131005845e-05 5.268039389e-05 3.853681347e-06)
(8.449374992e-05 1.433017737e-05 -2.203030324e-05)
(7.090149128e-05 2.435305672e-05 -1.935889051e-05)
(8.932562163e-05 1.387923466e-05 1.615954788e-05)
(8.125989266e-05 2.737780868e-05 -1.410654393e-05)
(7.841077583e-05 2.973593641e-05 -2.634366364e-06)
(7.939116373e-05 1.590906443e-05 2.55973276e-05)
(7.907103356e-05 2.360395071e-05 -2.899867115e-05)
(9.820944491e-05 1.535019817e-05 -6.357718943e-06)
(0.000127561111 3.096044403e-05 9.703720825e-06)
(9.109920443e-05 4.163438045e-05 3.781297485e-05)
(8.121400653e-05 -3.027045602e-07 3.045694555e-05)
(0.0001315083341 3.356580295e-05 7.222072154e-06)
(0.0001212894656 3.857016281e-05 1.4411828e-05)
(0.0001399306711 2.817076002e-05 -5.67028673e-06)
(0.0001299173489 4.865438524e-05 1.342761978e-05)
(0.0001239623983 3.737920118e-05 -4.60552654e-05)
(9.030423605e-05 2.618958618e-05 -2.494447325e-05)
(9.015232079e-05 1.675591447e-05 -1.501320394e-05)
(0.0001279715068 3.550199981e-05 -1.980228265e-07)
(0.0001065764896 3.230727124e-05 -9.27135091e-06)
(8.779137849e-05 2.670780593e-05 -1.845196189e-06)
(9.783453358e-05 3.558115993e-05 3.709843477e-06)
(0.0001134047652 1.217874256e-05 -2.31109475e-05)
(0.000107810309 3.539124498e-05 -2.027513747e-05)
(0.0001065083909 3.222239351e-05 1.491450655e-06)
(0.0001228357375 3.56764372e-05 2.746993856e-06)
(0.0001274252106 2.448167445e-05 4.279265467e-05)
(0.0001400533676 4.01988711e-05 2.133986531e-05)
(0.0001101878872 5.657499861e-05 -1.128326173e-05)
(0.0001095969528 3.027986954e-05 -3.929007188e-05)
(0.0001114069699 5.216038614e-05 -1.318321065e-05)
(0.0001171589841 1.068069741e-05 -4.743905739e-05)
(0.0001212799757 3.762098793e-05 3.934185715e-06)
(0.0001203516361 3.631138411e-05 7.353408511e-07)
(0.0001319423912 4.080912175e-05 1.045904201e-05)
(0.0001340761171 2.747274402e-05 -3.967051457e-07)
(0.000148968105 4.395776051e-05 -2.887746618e-05)
(0.0001632825181 -1.351008265e-06 2.688007713e-05)
(0.0001402018706 5.20221233e-05 3.145490228e-05)
(0.0001496880129 6.485940804e-05 1.94128537e-05)
(0.0001614556402 2.916242321e-05 1.673102071e-05)
(0.0001416929721 2.297811066e-05 -5.698386848e-05)
(0.0001757714253 3.474754996e-05 -2.923816813e-05)
(0.0001503467209 4.242542528e-05 1.146684959e-05)
(0.0001582402594 5.139515286e-05 2.791401443e-05)
(0.0001403716318 6.518196851e-05 -1.678162549e-05)
(0.0001768341852 4.341995945e-05 1.260474513e-05)
(0.0001908554335 3.549011935e-05 -8.363057707e-06)
(0.0001349957806 3.738311923e-05 1.160644871e-05)
(0.0001574423432 5.34631022e-05 9.481405809e-06)
(0.0001666576707 4.939412612e-05 1.218257875e-05)
(0.0001646648609 3.24187343e-05 1.15517699e-05)
(0.0001418758565 4.294506117e-05 4.310959748e-06)
(0.0001293555046 5.248732035e-05 1.572381769e-05)
(0.0001428015658 7.394565663e-06 -9.099100494e-06)
(0.0001379327386 4.732879611e-05 1.06593725e-05)
(0.0001291854486 4.007053906e-05 4.117389465e-05)
(0.0001496815877 3.986386792e-05 -2.677632401e-05)
(0.0001258280153 6.122589139e-05 -1.28990502e-05)
(0.0001057598139 3.056896108e-05 -6.611826854e-06)
(0.0001313456622 5.008427227e-05 -2.66605523e-05)
(0.0001304598374 2.162204739e-05 -1.633981865e-05)
(0.0001231094666 4.485919784e-05 -2.91937253e-05)
(0.0001376028685 1.388337413e-05 -5.645564982e-06)
(0.0001587369662 4.600731722e-05 9.53462638e-06)
(0.0001710024381 2.61904344e-05 -1.020300899e-05)
(0.0001704777579 2.703649549e-05 -3.518117228e-05)
(0.0001597042496 3.833094792e-05 4.024961113e-07)
(0.0001321446266 4.705415847e-05 -1.63429696e-05)
(0.0001666364921 5.645398283e-05 -2.63261384e-05)
(0.0001713933326 2.994973395e-05 -3.59532679e-05)
(0.0001549298367 2.199293953e-05 -2.279779326e-05)
(0.0001526953988 4.170832342e-05 -2.496587532e-05)
(0.0001638242813 4.950833886e-05 2.213152652e-05)
(0.0001500732011 5.033645635e-05 -6.585976743e-06)
(0.0001389191481 5.975471949e-05 1.944710325e-06)
(0.0001594293049 2.971170238e-05 6.561988257e-05)
(0.0001662518611 5.400024031e-05 1.109105942e-05)
(0.0001880698138 3.96587149e-05 4.410932201e-06)
(0.0001901094928 5.491868628e-05 1.390408205e-05)
(0.0001749150514 5.960562784e-05 4.653576132e-05)
(0.0001582532248 5.096892031e-05 -2.039184621e-05)
(0.0001626642865 3.998420296e-05 1.287073552e-05)
(0.0001516737851 6.096477693e-05 -4.952907857e-06)
(0.000150051233 1.341903233e-05 -3.593244635e-05)
(0.0001467534787 5.373643594e-05 7.024150974e-06)
(0.0001181183738 3.895231044e-05 1.277453607e-05)
(0.0001424124962 4.447606556e-05 -5.558278031e-05)
(0.0001450023971 4.727617454e-05 -4.91866928e-05)
(0.0001732262591 6.258839821e-05 7.217222121e-06)
(0.0001599672131 4.623202524e-05 3.221682743e-06)
(0.0001668938739 4.294665345e-05 -1.932043502e-05)
(0.0001560892361 2.311496818e-05 -1.859294968e-05)
(0.0001728719678 3.973632652e-05 -2.806172154e-05)
(0.0001593197812 3.674535017e-05 -2.118859266e-05)
(0.0001375607072 3.861821805e-05 1.347494077e-05)
(0.0001547615619 8.445139794e-06 -2.496905204e-05)
(0.0001561201711 5.338422535e-05 -2.189291985e-05)
(0.0001465803894 4.959896704e-05 1.913726326e-06)
(0.0001776300547 3.743637862e-05 -2.393767147e-06)
(0.0001726433793 5.042794958e-05 -8.372258037e-06)
(0.0001757346549 2.593655522e-05 -4.522305513e-05)
(0.0001996215506 3.776339227e-05 6.449039586e-07)
(0.0002051651779 6.551308266e-05 2.840444004e-05)
(0.0001924057403 7.572225467e-05 1.034285642e-06)
(0.0002178216459 7.091465873e-05 5.824400144e-05)
(0.0001984414302 1.164753333e-05 7.629682775e-05)
(0.0001810076539 6.73521223e-05 7.337112825e-05)
(0.0001767833739 4.450576038e-05 1.313205453e-05)
(0.000171414159 5.315460045e-05 -6.300921471e-06)
(0.0001818675504 6.613468727e-05 1.338969374e-05)
(0.0001817348637 5.314018452e-05 9.371407077e-06)
(0.0001834503692 5.59157588e-05 2.685070821e-05)
(0.0001926069716 6.616010608e-05 -3.949797039e-05)
(0.0002062191287 2.754679922e-05 -3.950839469e-05)
(0.0001894343572 8.164591373e-05 -4.676367605e-05)
(0.000150435192 7.174119054e-05 -8.643297901e-06)
(0.0001929330527 4.006694831e-05 -8.11463003e-06)
(0.0001616559314 2.742395354e-05 2.219180494e-05)
(0.0001532886704 7.302800657e-05 2.266134813e-06)
(0.0001396235582 3.329745154e-05 -3.309603932e-05)
(0.0001469235864 4.567707761e-05 -3.478022852e-05)
(0.0001373066728 2.048173396e-05 -1.486190731e-05)
(0.0001556204313 4.360615664e-05 -2.114420748e-05)
(0.0001676000423 3.022557436e-05 -1.166410436e-05)
(0.0001724901554 4.078299153e-05 4.240111477e-05)
(0.0001687599203 1.97008091e-05 8.373668014e-06)
(0.0001510590859 4.991262058e-05 -2.034162616e-05)
(0.0001935261607 4.538919534e-05 4.518719822e-05)
(0.0001825465945 4.071530727e-05 8.297160069e-06)
(0.0001826723005 5.12628942e-05 -2.656530841e-07)
(0.0001927098416 1.497634512e-05 -1.589562986e-05)
(0.000171073244 4.607568338e-05 8.498128576e-06)
(0.0001802929546 4.421745694e-05 4.348336819e-05)
(0.0001993379315 6.704527272e-05 1.485581022e-05)
(0.0001883406984 7.455195602e-05 5.669456689e-05)
(0.0001804113984 2.519871992e-05 4.201900699e-05)
(0.0002030107499 6.238786791e-05 -7.947335456e-06)
(0.0002072885738 6.228880255e-05 -7.48087453e-06)
(0.0001839790684 7.449993893e-05 -1.84725306e-05)
(0.0001891667508 5.146424381e-05 -1.781373218e-05)
(0.0002052723081 6.284104327e-05 6.645961753e-06)
(0.000206998782 5.622546742e-05 -1.397946051e-05)
(0.0002161940273 5.681128402e-05 -9.917999601e-06)
(0.0002076634285 6.572745218e-05 -3.683176317e-05)
(0.0001590691026 7.215981628e-05 -4.474352494e-06)
(0.0001937954206 8.957362087e-05 -2.034803074e-05)
(0.000215129702 4.880875181e-05 -2.831094753e-05)
(0.0001279802564 2.85917722e-05 1.039787366e-05)
(0.0001352896181 6.826499519e-05 -5.195618079e-05)
(0.0001714242972 2.469067228e-05 -3.858679335e-05)
(0.0001828023029 6.290729331e-05 -8.025125896e-06)
(0.0001790011962 3.993635363e-05 -2.232377299e-05)
(0.0001598496292 1.590073059e-05 2.634842145e-05)
(0.0001668407744 3.128937584e-05 1.257548693e-05)
(0.0001936132556 3.819277139e-05 6.111473913e-05)
(0.0001694697859 3.715872488e-05 7.147320482e-06)
(0.000192860821 4.95441542e-05 -1.218329016e-05)
(0.0001859969652 2.995139211e-05 4.272135789e-05)
(0.0001844560724 5.562913984e-05 -1.248110584e-06)
(0.0001913946527 5.34354341e-05 -4.737866665e-05)
(0.0001920754565 1.010855971e-05 -3.303331848e-06)
(0.0002129159013 6.448285413e-05 1.765157249e-05)
(0.0001918421622 5.663896186e-05 2.593711362e-05)
(0.0001971615683 6.678705077e-05 3.779764334e-05)
(0.0002077285918 8.729470745e-05 3.668142155e-05)
(0.0002029502605 2.929648761e-05 5.226596443e-05)
(0.0001928395362 5.410183819e-05 3.545328821e-05)
(0.0001758053165 4.765619971e-05 3.308277313e-06)
(0.0002076804658 7.09850435e-05 -3.625869421e-06)
(0.0002280070525 5.754983996e-05 -2.978944833e-05)
(0.0002322074688 6.835156282e-05 -2.805021661e-06)
(0.0002215613255 7.870633662e-05 -3.75135299e-05)
(0.000211094846 4.382234841e-05 -2.225364512e-06)
(0.0001975295314 7.906557884e-05 -1.941464137e-05)
(0.0002064664125 7.906887239e-05 -3.479156916e-08)
(0.0002199348841 9.0505612e-05 -2.373244178e-05)
(0.0002245906339 5.572620088e-05 -1.08037042e-05)
(0.0001572057503 5.118900483e-05 -5.83776701e-07)
(0.0001623150769 4.222408351e-05 -9.662465078e-06)
(0.0001555424472 2.24761248e-05 -6.18672544e-05)
(0.0001597828711 5.782690776e-05 -4.499802603e-05)
(0.0001771608854 3.320322096e-05 -4.342705507e-05)
(0.0001764095728 2.42133866e-05 3.890986206e-06)
(0.0001767071455 1.902782507e-05 4.240799742e-05)
(0.0001565717083 4.522826628e-05 7.509354695e-05)
(0.0001733851496 4.420805657e-05 -3.903208799e-06)
(0.0001583212533 3.207616406e-05 -3.714671886e-05)
(0.00018927434 1.629476615e-05 -3.231977242e-05)
(0.0001841323435 5.880841603e-05 -1.467986678e-05)
(0.0001709832396 5.067781074e-05 -2.210140597e-05)
(0.0002025468117 1.182860026e-05 3.79857463e-05)
(0.0001897047391 4.696301126e-05 1.776365541e-05)
(0.0002083728763 5.870252928e-05 5.083387509e-06)
(0.0002187466675 5.735166408e-05 1.062176039e-05)
(0.0002294922764 7.853508324e-05 2.678265309e-05)
(0.0002290495445 6.002922111e-05 3.783071564e-05)
(0.0002193726043 7.15482418e-05 1.388560876e-05)
(0.000236046897 3.52408271e-05 7.194020019e-06)
(0.0002185852745 8.156081027e-05 1.910961842e-05)
(0.0002156788696 5.909470682e-05 3.146842507e-05)
(0.0002021622123 4.584205606e-05 1.670169209e-05)
(0.0002241269578 7.926413321e-05 1.919298866e-06)
(0.0001903571161 7.046595031e-05 -5.686943966e-06)
(0.0001922814307 6.539419416e-05 -7.006174802e-05)
(0.000245041538 7.285191731e-05 1.367069248e-05)
(0.0002354042952 0.0001040222024 -3.870255864e-05)
(0.0002223827941 7.363557151e-05 1.861758578e-05)
(0.00011922162 5.100258455e-05 -9.688991258e-08)
(0.0001379256946 2.593831436e-06 -2.894020544e-05)
(0.0001688858006 3.182863702e-05 -3.737449737e-05)
(0.0001608688287 3.411626266e-05 -1.960814379e-05)
(0.0001882292108 3.723811624e-05 -5.412413335e-06)
(0.0001919044632 3.355321124e-05 1.212638588e-05)
(0.0001844834734 3.199734875e-05 2.39378967e-06)
(0.0001813819673 4.29098454e-05 -3.365025063e-06)
(0.0001481387815 6.53256923e-05 -1.553242372e-05)
(0.0001783618151 1.697052772e-05 -2.001046769e-05)
(0.0001805742856 3.800263026e-05 -1.825431505e-05)
(0.0001707750445 4.105256241e-05 -2.027122681e-05)
(0.0002145590749 1.657089431e-05 1.300702361e-05)
(0.000208126161 4.222917312e-05 1.458412017e-05)
(0.0001968028277 3.664223745e-05 1.912483953e-05)
(0.0002255546623 6.004041002e-05 3.172856214e-05)
(0.0002009822387 6.279118529e-05 8.376547298e-06)
(0.0002074808271 5.58152833e-05 1.264697746e-05)
(0.0002155085078 7.338739904e-05 1.675120844e-06)
(0.0002163151915 5.272761855e-05 5.663546868e-06)
(0.0002062419924 7.43893071e-05 9.248949537e-06)
(0.0002147527197 6.215937427e-05 9.284660937e-06)
(0.0002122353661 4.471741383e-05 2.553668431e-05)
(0.0002197288157 7.371607682e-05 2.796880831e-06)
(0.0001971471783 7.287376861e-05 1.027011573e-05)
(0.0002487341371 7.636463349e-05 -5.570388467e-05)
(0.0002520458163 6.651763898e-05 -2.137080769e-05)
(0.0002319685539 5.964005675e-05 -3.022341847e-07)
(0.0002164634574 0.0001102588149 -3.401356675e-05)
(0.0002873475438 9.449906799e-05 -2.864131396e-05)
(0.0001739950078 4.938251927e-05 7.745874121e-06)
(0.0001659667632 1.621786312e-05 -1.808511539e-05)
(0.0001540869524 3.191924616e-05 -9.856274984e-06)
(0.0001753365716 1.795327928e-05 7.895015565e-06)
(0.0001857289615 2.356276923e-05 2.139052382e-05)
(0.0001912906149 4.395337634e-05 1.912298996e-05)
(0.0001620463683 3.897893714e-05 -3.374524229e-06)
(0.0001780069855 4.265324494e-05 -3.369680867e-06)
(0.0001873464346 7.209286943e-05 -1.468120119e-05)
(0.0001977112755 7.332480967e-06 -2.092226596e-05)
(0.0001968926854 4.710982311e-05 -1.132437572e-05)
(0.0002318280329 2.685846269e-05 -9.271038067e-07)
(0.0002228609538 3.986796971e-05 3.2312279e-05)
(0.0002000249689 4.237920912e-05 -3.128571901e-05)
(0.0001877092841 4.110192436e-05 2.5680185e-05)
(0.0001721249199 3.90353904e-05 3.756820169e-05)
(0.0002276297487 5.876723068e-05 -9.717030125e-06)
(0.0002347150035 6.416047665e-05 -4.931543598e-06)
(0.0002198762271 7.53689281e-05 -2.208288303e-07)
(0.0002330773414 4.796075658e-05 2.161085173e-05)
(0.0002143369595 7.968298037e-05 4.204328574e-05)
(0.0002452321589 5.462210499e-05 3.042331379e-05)
(0.0002479864817 6.300737904e-05 2.683993543e-05)
(0.0002416869462 9.11512968e-05 1.638015414e-05)
(0.0002557672873 7.850318071e-05 -3.992831275e-06)
(0.0002441273951 5.090236544e-05 7.727206328e-06)
(0.0002233662871 7.547342036e-05 3.07309245e-05)
(0.0002231522413 7.586896008e-05 -1.041554499e-05)
(0.0002595638717 8.309066276e-05 8.259542264e-06)
(0.0002993557858 9.344198606e-05 1.69356492e-05)
(0.0001687091599 3.222844445e-05 1.172318185e-05)
(0.0001762124193 2.594832284e-05 -2.627145706e-05)
(0.000177346236 2.960950807e-05 -7.289751e-08)
(0.000177855114 2.285546044e-05 5.917043217e-05)
(0.0001504300746 2.712481574e-06 2.306687044e-05)
(0.0001521369287 5.681871488e-05 3.360360245e-06)
(0.0001582618567 3.280308056e-05 8.34961992e-06)
(0.0001612508928 3.416766556e-05 -1.55242235e-06)
(0.0001783116266 5.428121579e-05 -1.736863651e-05)
(0.0002036428724 4.20212935e-06 -2.799312151e-05)
(0.0001992918278 4.58492182e-05 -2.643505278e-05)
(0.0001990707633 2.079894175e-05 1.51803146e-06)
(0.0001744543666 2.816002151e-05 1.064669992e-05)
(0.0001880607589 4.541604176e-05 -7.276282821e-06)
(0.0002033529192 5.192026224e-05 2.269416379e-05)
(0.0002224884027 3.938455329e-05 1.66223122e-05)
(0.0001883949127 2.886658597e-05 1.874805561e-05)
(0.0001976423429 6.724053686e-05 7.230817598e-06)
(0.0002261328656 7.671939041e-05 -2.124350719e-05)
(0.0002260116445 5.349140603e-05 -6.401497145e-07)
(0.0002324297942 7.494633945e-05 -1.475880717e-05)
(0.0002297587362 3.465302186e-05 5.383348125e-06)
(0.0002288730689 7.12518415e-05 5.495262907e-06)
(0.0002366869188 7.221179563e-05 -9.890399885e-06)
(0.0002568259177 7.176916263e-05 -3.586559561e-06)
(0.0002593666913 7.314861405e-05 -5.72655131e-06)
(0.0002316323526 7.80292066e-05 -1.339387078e-06)
(0.000258292675 8.667166109e-05 5.225472008e-05)
(0.0002218929639 7.248708118e-05 1.952396654e-06)
(0.0002466721689 6.960052652e-05 -4.003964237e-09)
(0.0001241270447 5.027191873e-06 9.925507052e-06)
(0.0001351220191 2.3718683e-05 1.155696016e-05)
(0.0001372134843 2.803778761e-05 2.055442759e-05)
(0.0001253443486 1.826079263e-05 5.15425877e-05)
(0.0001702863623 1.42244456e-05 2.467331198e-05)
(0.0001664525525 4.289448974e-05 1.2945911e-05)
(0.000185944888 3.84373898e-05 3.283262677e-05)
(0.0001735724573 3.536589598e-05 1.404194067e-05)
(0.0002013069059 2.936082595e-05 -2.831576654e-05)
(0.0001785996509 1.508791555e-05 -6.49990539e-05)
(0.0001849944336 2.960140504e-05 -2.062517346e-05)
(0.0001743698944 3.239677629e-05 -2.806047688e-05)
(0.0001948470773 3.213733627e-05 -2.509596185e-05)
(0.0002334392915 2.73841117e-05 -4.451940132e-05)
(0.0002544168814 5.209479095e-05 -1.234312485e-05)
(0.0002110628145 6.193637978e-05 2.496854202e-05)
(0.0002243368468 4.067587443e-05 -6.959138524e-06)
(0.0002145929782 5.793711257e-05 8.487029112e-06)
(0.000211769178 5.899593274e-05 4.782446433e-06)
(0.000193602492 7.089927675e-05 3.199331376e-06)
(0.0002151865167 6.075199862e-05 1.196153459e-05)
(0.0001839963208 4.55630185e-05 -1.784521447e-06)
(0.000189414849 6.403596764e-05 -1.286095892e-05)
(0.000224040714 4.296390262e-05 1.178581287e-05)
(0.0002355760662 5.826935904e-05 -1.222060323e-05)
(0.0002083576378 8.146697423e-05 1.992026287e-05)
(0.0002485500641 7.723693069e-05 -2.713965328e-05)
(0.0002489048056 7.807218471e-05 1.271921283e-05)
(0.000255989915 7.821322988e-05 6.435954742e-05)
(0.0003011907592 8.063087502e-05 -8.185790211e-07)
(0.000143136942 1.900232601e-05 8.534087009e-06)
(0.0001444061541 1.369091816e-05 1.565273856e-05)
(0.0001674539985 2.220501676e-05 2.061650172e-05)
(0.0001708659557 -3.740037478e-06 7.575471133e-06)
(0.0001530149838 2.007681365e-05 -1.302657852e-06)
(0.0001425698666 4.381340082e-05 1.307465332e-05)
(0.0001426353238 1.921978706e-05 2.623007582e-05)
(0.0001828647204 2.262690493e-05 -5.239120595e-06)
(0.0001926037967 3.084971195e-05 -4.288854487e-06)
(0.0001834655384 2.423967824e-05 7.556475866e-07)
(0.0001941843923 2.501412739e-05 -6.409091193e-06)
(0.0001990428039 4.577335122e-05 -4.549057747e-05)
(0.000208038914 2.70691742e-05 -4.213883623e-05)
(0.0001915972134 1.230611054e-05 -4.980853736e-05)
(0.0001808052978 5.243858436e-05 -2.994578285e-05)
(0.0002147882531 4.541613316e-05 2.996923784e-06)
(0.0002134834801 4.785696851e-05 8.516583614e-06)
(0.0002113200589 5.617487549e-05 4.348069994e-06)
(0.0001832111006 8.656264368e-05 -7.353007265e-06)
(0.0001651347288 5.624261242e-05 3.011330244e-05)
(0.0001663611118 5.935088107e-05 1.245292992e-05)
(0.0001722648077 3.861953339e-05 -2.826917179e-05)
(0.0001963356936 3.029183775e-05 2.578064063e-05)
(0.0002202941559 5.624766233e-05 5.413328803e-05)
(0.0001989327392 3.94844066e-05 1.589109596e-05)
(0.000226013009 6.444715037e-05 5.641260743e-05)
(0.0002552216452 7.039549051e-05 3.546611784e-05)
(0.0002430211923 7.988407074e-05 3.930739207e-05)
(0.0002627377745 8.187070068e-05 6.562765075e-05)
(0.0002992316777 6.102332878e-05 2.611336455e-05)
(0.000111443531 -2.13174823e-05 -2.583447538e-06)
(0.0001203505521 1.462852598e-05 1.552149821e-05)
(0.000124690517 8.412567781e-06 -1.089586935e-05)
(0.0001322881304 7.592595463e-06 6.220665762e-06)
(0.0001334038247 2.377066798e-05 -2.625598567e-05)
(0.0001489505793 2.364413833e-05 6.897599567e-06)
(0.0001566251219 2.36904744e-05 9.419135115e-06)
(0.000150907896 -1.766452969e-06 -2.601600086e-05)
(0.0001552078859 9.804430682e-06 -1.429234193e-05)
(0.000186993345 3.897743149e-05 1.799301786e-05)
(0.000183893479 1.798638614e-05 3.001658275e-05)
(0.0001752895732 3.57739819e-05 1.490685571e-05)
(0.0001734059521 1.616331309e-05 -1.740056896e-05)
(0.0002042356632 1.761422295e-05 1.986094861e-05)
(0.0002201186527 4.682216021e-05 -1.725415763e-05)
(0.0002066879793 4.300622501e-05 1.586407586e-05)
(0.0002005149145 6.819406508e-05 2.345761266e-06)
(0.0001884519481 5.783652969e-05 -8.656729138e-06)
(0.0001910652371 0.0001037605996 7.58655003e-06)
(0.000215252136 6.381169017e-05 -9.607908686e-06)
(0.0001939346423 5.765331484e-05 8.255553329e-06)
(0.0002255706739 4.885934786e-05 -1.001040417e-05)
(0.0001954187535 1.042799727e-05 3.387106444e-05)
(0.0002161402886 4.760931416e-05 2.95761236e-05)
(0.0002207619075 6.538545223e-05 3.94346514e-05)
(0.0002302487009 3.371412751e-05 2.722915675e-05)
(0.0002413592296 6.063041959e-05 8.618886633e-06)
(0.0002688406621 7.46425659e-05 4.807901828e-05)
(0.0002858561988 8.644904265e-05 8.818430774e-06)
(0.0002813137397 7.375085453e-05 2.41628344e-06)
(0.0001608790843 -1.121965193e-05 -1.467769723e-05)
(0.0001451417937 1.398476923e-05 4.684449837e-05)
(0.0001244331671 1.820960726e-05 -1.010515854e-06)
(0.0001235915788 1.479220506e-06 3.733602574e-05)
(0.0001263428431 2.015580729e-05 3.239479417e-05)
(0.0001312915045 4.529422933e-06 2.086939371e-05)
(0.0001527134319 1.492111033e-05 -1.789971906e-06)
(0.0001523036833 1.228018054e-05 -1.24834407e-05)
(0.0001494580301 8.722705369e-08 -2.141940515e-05)
(0.0001715229731 5.60747739e-06 -2.577337342e-05)
(0.0001734041813 1.874184402e-05 -2.618113175e-05)
(0.0001787139274 4.087397935e-05 -1.834968035e-05)
(0.0001982535389 1.016552766e-05 5.005598221e-07)
(0.0001815714648 1.788289773e-05 2.936077019e-05)
(0.000158584706 3.110657581e-05 -2.802579768e-05)
(0.0001765900202 2.927493043e-05 -3.161311345e-05)
(0.0001815803757 6.819485514e-05 1.3481215e-05)
(0.0001877291854 7.62614071e-05 -1.357890082e-05)
(0.0001770981974 7.813864399e-05 -1.747050811e-06)
(0.0002068688083 6.078904524e-05 -2.81162874e-05)
(0.0002134313283 5.792030161e-05 -1.75904814e-05)
(0.0001797837011 5.183583838e-05 6.333842119e-06)
(0.0001932559866 1.670178591e-05 6.551617839e-06)
(0.0002045896259 2.84906739e-05 7.817309228e-06)
(0.0002058184672 6.197638458e-05 1.602383379e-05)
(0.0002266531408 3.94900734e-05 8.687145364e-06)
(0.0002063790758 3.398623758e-05 2.439607585e-05)
(0.0002277308121 6.345170518e-05 3.004072892e-05)
(0.000232913942 7.665240141e-05 4.505220973e-05)
(0.0002924424572 5.212972019e-05 1.623139807e-05)
(0.0001605905566 -1.198908148e-05 2.0665074e-05)
(0.0001528320207 4.858023413e-05 3.65805484e-05)
(0.0001479855158 9.50399731e-06 8.458387665e-06)
(0.0001642609063 2.72732045e-06 2.817755872e-05)
(0.000154350145 4.041416993e-05 1.078603909e-05)
(0.0001551484604 8.201914381e-06 3.91638852e-05)
(0.0001474690471 1.898991338e-05 2.681723832e-06)
(0.0001419266959 -3.243353155e-06 2.172894867e-05)
(0.0001395098162 -4.982567502e-06 1.400346833e-05)
(0.0001404703812 -1.080730155e-05 8.070054958e-06)
(0.000151003483 2.443930762e-05 -2.080058916e-05)
(0.0001641042158 3.362280303e-05 6.274023572e-06)
(0.0001925551219 -2.092301328e-05 -6.785470637e-06)
(0.0001824714357 4.468541882e-05 -1.307512077e-05)
(0.000183015201 4.644235657e-05 -2.066550782e-05)
(0.0001948815831 3.134035733e-05 -7.478343075e-06)
(0.000183691791 4.639084276e-05 3.123226371e-05)
(0.000196065703 7.502952055e-05 -4.735615237e-07)
(0.0002356013429 7.618848427e-05 -2.713980143e-05)
(0.0002200857898 5.948195577e-05 5.221365028e-05)
(0.0002037888722 8.016192367e-05 3.641594113e-05)
(0.0002222757056 5.33234938e-05 -1.743313158e-07)
(0.0002108472028 1.396121137e-05 -9.870433309e-06)
(0.0002004179029 2.670809486e-05 -2.748932834e-05)
(0.0002063019129 6.673532368e-05 -2.33434657e-05)
(0.0001920954838 4.20805988e-05 -1.307457784e-05)
(0.0002331145559 1.38294941e-05 3.549498122e-05)
(0.000202525507 5.253869856e-05 -3.550813139e-05)
(0.0002238258583 5.94478844e-05 1.401554799e-05)
(0.0002391073665 4.249270809e-05 -1.455564373e-05)
(9.166583646e-05 -1.165906007e-05 8.570856947e-06)
(0.000117274747 2.63059829e-05 7.34893228e-06)
(0.0001420094829 3.679317379e-06 4.302500167e-05)
(0.0001451881992 1.384077777e-05 2.189289008e-05)
(0.0001522194805 2.945418846e-05 1.155638012e-05)
(0.0001400422104 -3.992067666e-06 6.033498794e-05)
(0.0001571884639 2.922949289e-05 4.838943696e-05)
(0.0001675306097 6.567626381e-06 6.096053765e-05)
(0.00016532482 2.795790223e-06 1.603510213e-05)
(0.0001574611793 -2.615122479e-06 2.943013054e-05)
(0.0001452054065 1.664245448e-05 -3.289761441e-05)
(0.000177280491 3.171909489e-07 1.717859943e-07)
(0.000174662804 -6.851750125e-06 -2.86679645e-05)
(0.0001648747351 3.734534644e-05 2.363279842e-05)
(0.0001873526279 2.666882088e-05 -1.637818949e-05)
(0.000167896441 4.086094153e-05 1.113585152e-05)
(0.0001808250766 4.694737963e-05 5.266045242e-05)
(0.000178984772 4.898703926e-05 2.145617293e-05)
(0.0001802068618 6.823794234e-05 5.916663837e-06)
(0.0001632340195 7.094536231e-05 2.712743746e-05)
(0.0001869636475 5.747156477e-05 2.675714807e-05)
(0.0002264352544 3.427920749e-05 7.570805198e-06)
(0.0002182853605 3.677668243e-05 -5.926120119e-06)
(0.0001859159863 4.656703929e-05 -1.31972714e-05)
(0.000193553596 3.598428012e-05 3.090966209e-05)
(0.0002323512307 2.544289435e-05 1.071533298e-05)
(0.0002112726236 3.817990504e-05 1.089771631e-05)
(0.0002200694471 5.610606986e-05 1.564978328e-05)
(0.0002344309482 4.723068512e-05 -8.299773357e-07)
(0.0001324653558 5.562210635e-06 -5.423216991e-06)
(0.000124358472 -3.711682157e-07 1.018399801e-06)
(0.0001187546894 2.911571751e-06 3.084969214e-05)
(0.0001344650239 -5.448050554e-06 3.284481605e-05)
(0.0001421840578 2.190541511e-05 2.371629826e-05)
(0.0001620987053 7.503847782e-06 6.629707087e-05)
(0.0001645637759 -4.201497219e-06 5.722526253e-05)
(0.0001582501845 1.973976801e-05 3.712090769e-05)
(0.0001593418704 6.554258219e-06 3.106771617e-05)
(0.0001693179324 -1.298795727e-06 -1.191181884e-05)
(0.000176179263 1.006391434e-05 -1.671299158e-05)
(0.0001803343024 -6.081964963e-06 -4.439001e-05)
(0.000169616248 2.108780591e-05 -1.508370156e-05)
(0.0001471409161 3.564591257e-05 2.354446936e-05)
(0.0001410019711 1.603702885e-05 3.897633086e-06)
(0.0001641201792 4.729183333e-05 2.10550655e-05)
(0.0001605557128 3.231939866e-05 2.32576712e-05)
(0.0001716845312 5.786027771e-05 -2.878763031e-05)
(0.0001840851943 4.786434417e-05 -1.726579792e-05)
(0.0001990157287 7.135230204e-05 2.13279099e-05)
(0.0002161222738 3.361902783e-05 2.594729709e-05)
(0.0002026029006 1.66405148e-05 2.524640075e-05)
(0.0002079285794 6.541343151e-05 3.349808911e-05)
(0.0001783814382 5.3804332e-05 1.740743317e-05)
(0.0001361424743 -2.2630052e-06 1.611670014e-05)
(0.0001581720861 1.126067206e-05 1.002730328e-05)
(0.0001355800064 4.158756573e-06 3.31159142e-06)
(0.0001496969972 -2.294974668e-05 3.441553607e-05)
(0.0001536012956 2.656833439e-05 3.442635315e-06)
(0.000135675312 -2.198348115e-07 1.381540094e-05)
(0.0001249841245 -5.388335834e-06 -3.575632308e-06)
(0.0001410226529 1.567134534e-05 7.975979801e-06)
(0.0001566757308 -8.80758238e-06 5.026015857e-05)
(0.0001804679705 -7.548685856e-06 1.666508303e-05)
(0.0001513452302 2.058369286e-05 -3.081602589e-05)
(0.0001259735523 -1.463829493e-05 -1.229111769e-05)
(0.000134446227 1.693777024e-05 2.898084675e-05)
(0.0001679209012 2.28472655e-05 2.325255873e-05)
(0.0001956652124 2.025489322e-05 2.464904944e-05)
(0.0001849950182 4.401720189e-05 1.599535587e-05)
(0.0001818883118 3.901872361e-05 -1.447610631e-05)
(0.0001752637521 5.936061497e-05 -2.118164998e-05)
(0.0001660554687 4.348079473e-05 -4.61112416e-05)
(0.0001454312425 5.411852465e-06 -1.251699162e-05)
(0.0001314052978 4.066027625e-06 5.800954592e-06)
(0.0001438224514 2.037348339e-05 4.004464355e-05)
(0.0001428449945 -3.014528795e-05 1.282895506e-05)
(0.0001250656358 2.238032563e-05 5.635083338e-06)
(0.0001316228619 1.401874177e-05 7.053626917e-06)
(0.000134153725 -7.859191402e-06 -4.313185363e-06)
(0.0001571734389 -7.534270879e-06 -2.237666658e-06)
(0.0001742549378 -8.369935943e-06 3.062189851e-05)
(0.0001702393975 -8.409116267e-06 -8.610371125e-06)
(0.0001650744313 4.153164876e-05 -1.339959467e-05)
(0.00017317994 3.398928195e-06 -9.15580318e-06)
(0.0001637076096 -4.245728986e-06 4.447992947e-06)
(0.0001757169069 1.529917176e-05 3.642869843e-05)
(0.000115953366 2.311052611e-06 9.398269795e-06)
(0.0001192801555 2.813009832e-06 1.593712912e-05)
(0.0001431015638 -1.007732452e-05 3.790734276e-05)
(0.0001309349473 3.01441508e-06 8.736794308e-06)
(0.0001232043463 2.58137664e-05 -1.317774587e-05)
(0.0001324745424 -9.644830007e-06 -9.107334634e-06)
(0.0001507644498 2.439477851e-06 -6.157847059e-05)
(0.0001507090739 -2.179043316e-05 -6.010351128e-05)
(0.00011169897 3.993130425e-06 -3.061244353e-05)
(0.0001264893051 5.212038597e-07 -1.348715834e-05)
)
;

boundaryField
{
    flow
    {
        type            calculated;
        value           nonuniform List<vector> 
15
(
(0.0001400533676 4.01988711e-05 2.133986531e-05)
(0.0001496815877 3.986386792e-05 -2.677632401e-05)
(0.0001424124962 4.447606556e-05 -5.558278031e-05)
(0.0001929330527 4.006694831e-05 -8.11463003e-06)
(0.000215129702 4.880875181e-05 -2.831094753e-05)
(0.0002245906339 5.572620088e-05 -1.08037042e-05)
(0.0002223827941 7.363557151e-05 1.861758578e-05)
(0.0002873475438 9.449906799e-05 -2.864131396e-05)
(0.0002993557858 9.344198606e-05 1.69356492e-05)
(0.0002466721689 6.960052652e-05 -4.003964237e-09)
(0.0003011907592 8.063087502e-05 -8.185790211e-07)
(0.0002992316777 6.102332878e-05 2.611336455e-05)
(0.0002813137397 7.375085453e-05 2.41628344e-06)
(0.0002924424572 5.212972019e-05 1.623139807e-05)
(0.0002391073665 4.249270809e-05 -1.455564373e-05)
)
;
    }
    obstacle
    {
        type            calculated;
        value           nonuniform List<vector> 
30
(
(1.3835689e-23 3.707261701e-24 8.880505399e-24)
(1.865339311e-23 4.99816163e-24 1.542912107e-23)
(1.665500343e-23 4.462694705e-24 -1.25509713e-23)
(5.767524968e-23 1.54540366e-23 -6.575468982e-24)
(1.184989529e-23 3.175169864e-24 4.597942781e-24)
(1.131193329e-23 3.031023395e-24 -9.600650106e-24)
(5.011126061e-23 1.342727184e-23 -2.713067176e-23)
(1.751708331e-23 4.693688312e-24 -5.267555508e-24)
(5.335673983e-23 1.429689538e-23 -5.002558452e-24)
(3.544020868e-23 9.496175313e-24 3.673002571e-24)
(1.862940668e-23 4.991734461e-24 -6.514123876e-24)
(3.515397702e-24 9.419479771e-25 3.585888493e-24)
(1.311610524e-23 3.514449814e-24 3.163731232e-24)
(4.244997335e-23 1.137443604e-23 1.121682792e-23)
(3.556379776e-24 9.529290907e-25 6.398851248e-25)
(2.716513914e-23 7.278877073e-24 5.700783407e-24)
(3.950219163e-23 1.058458036e-23 1.474715449e-23)
(3.233966374e-23 8.665386798e-24 -7.196347292e-24)