/*--------------------------------*- C++ -*----------------------------------*\
  =========                 |
  \\      /  F ield         | OpenFOAM: The Open Source CFD Toolbox
   \\    /   O peration     | Website:  https://openfoam.org
    \\  /    A nd           | Version:  7
     \\/     M anipulation  |
\*---------------------------------------------------------------------------*/
FoamFile
{
    version     2.0;
    format      ascii;
    class       volVectorField;
    location    "0.01";
    object      momentumMean;
}
// * * * * * * * * * * * * * * * * * * * * * * * * * * * * * * * * * * * * * //

dimensions      [1 -2 -1 0 0 0 0];

internalField   nonuniform List<vector> 
546
(
(0.005436425557 0.001570485684 -4.639059053e-05)
(0.005252054157 0.001474612971 1.826653941e-05)
(0.005025158003 0.001399451685 8.997391161e-05)
(0.004808935004 0.00134757772 2.00098609e-05)
(0.004616006179 0.001308196119 -6.631044222e-05)
(0.0044645087 0.001274109848 2.854496873e-05)
(0.004361503643 0.001185000462 0.0001076090318)
(0.00420848371 0.001187755371 4.822149312e-05)
(0.004101137971 0.001145421299 2.769709927e-05)
(0.00397539348 0.001102245911 1.335274229e-05)
(0.003842248916 0.001081294864 -8.953459127e-06)
(0.00370092096 0.001026195085 -1.762935956e-06)
(0.003619135923 0.0009761545418 -2.41279768e-05)
(0.003574723193 0.0009918969865 -4.541125459e-05)
(0.003539662538 0.0009542346724 -1.679627848e-05)
(0.00350412377 0.0009438608906 1.933839727e-05)
(0.003386911567 0.0009313553785 7.159571225e-05)
(0.00330950819 0.0009027399388 4.536362033e-05)
(0.00328565732 0.0008844983316 2.571649878e-05)
(0.003196362065 0.0009137478801 4.780004153e-05)
(0.003182805325 0.0008232391202 -5.270305875e-05)
(0.003178389529 0.0008657205207 3.379665744e-05)
(0.003119603006 0.0008497632243 6.551632336e-06)
(0.003120052364 0.0007979091612 3.420194231e-05)
(0.003122741512 0.0008241116316 -7.851637423e-05)
(0.00305051986 0.0008885789724 -2.849554254e-05)
(0.003046144587 0.0007838302842 4.178359175e-05)
(0.003154557706 0.0008162023881 -2.041450442e-05)
(0.003219404852 0.0008354905766 -1.726202089e-05)
(0.00358766043 0.0006334394912 1.093729043e-05)
(0.008467735101 0.002559682738 2.107938037e-05)
(0.008207607829 0.002500106057 -4.865207585e-05)
(0.007887128334 0.0024123276 2.900764843e-05)
(0.007659527131 0.00230940517 8.354071875e-05)
(0.007425148036 0.002185064026 4.399843394e-05)
(0.007111681573 0.002136782615 0.0001005816175)
(0.006826758338 0.00203357927 3.332653973e-05)
(0.006621413016 0.001936517225 3.813120331e-05)
(0.006445094007 0.001827356829 -6.397765731e-06)
(0.006347963316 0.001849973461 -3.137730938e-05)
(0.006150103551 0.001824506015 3.938483867e-05)
(0.006015673658 0.001725629698 1.804248469e-05)
(0.005879558541 0.001659251633 6.390378927e-05)
(0.005720649077 0.001601058686 5.64677465e-05)
(0.005519869977 0.001544494083 -1.201207082e-05)
(0.005364208089 0.001520271915 1.876967703e-05)
(0.005307032534 0.001514042768 -5.23252765e-05)
(0.005222694628 0.001486388715 8.244869474e-05)
(0.005117221608 0.001403337458 1.243542439e-05)
(0.005052528633 0.001428553012 -2.103672386e-05)
(0.004918793405 0.001328864936 -7.142016707e-05)
(0.004842582714 0.001310001505 2.672314897e-05)
(0.004819965312 0.001307766222 -6.291342127e-05)
(0.004750911358 0.001274398309 -3.353908948e-05)
(0.004627104924 0.001287022711 -7.742633772e-05)
(0.004674103328 0.001242598096 8.34320675e-06)
(0.004723203249 0.0011845337 -6.112223402e-05)
(0.004635952141 0.001187984554 -6.398193344e-05)
(0.004749362507 0.001091043368 1.044035341e-05)
(0.004984237106 0.0007016357915 1.280354755e-05)
(0.01044806669 0.00330393522 5.813262442e-05)
(0.01015302357 0.003247989002 3.255439401e-05)
(0.009896007736 0.003156873877 -1.577827515e-05)
(0.009627480432 0.003034768117 -1.192437885e-05)
(0.009411504544 0.00292862731 5.900058219e-05)
(0.00917592058 0.002890563855 7.693526499e-05)
(0.008870057874 0.002800839739 3.916277467e-05)
(0.008631853151 0.00259125382 -2.087536577e-05)
(0.008360516485 0.002534293597 2.211100618e-06)
(0.008066113585 0.002435157016 -2.802181068e-05)
(0.00792198858 0.002423975877 3.927012197e-05)
(0.007742436448 0.002277748043 5.896176996e-06)
(0.007524684773 0.002236154585 3.208072341e-05)
(0.007286993462 0.002160961388 5.096165076e-05)
(0.007130614205 0.002114559669 9.89633214e-06)
(0.006983287148 0.002029880418 7.078158496e-05)
(0.006828104341 0.001956407484 -1.190988002e-05)
(0.006708534262 0.001917322482 -6.810646982e-05)
(0.006557312946 0.001855946526 -2.066223827e-05)
(0.006481286276 0.001859919676 -8.520249507e-06)
(0.006373702859 0.001795737911 3.022150037e-05)
(0.00620016857 0.001739842201 2.382716149e-05)
(0.006032466217 0.001695338424 -5.638162178e-05)
(0.005966663684 0.001614035043 -7.346315368e-05)
(0.006008484507 0.001621513431 -3.717680833e-05)
(0.005874272045 0.001548759101 -4.024489428e-05)
(0.005804438225 0.001519766374 8.169704475e-06)
(0.005831289623 0.001466043547 -7.651846819e-05)
(0.005971968647 0.001243785519 -1.60154712e-05)
(0.006083109527 0.0008867474847 1.482212298e-05)
(0.01152958765 0.003710113238 7.35124694e-06)
(0.01144693421 0.003711916771 -3.908364837e-05)
(0.01129483293 0.003686830144 2.708863897e-05)
(0.0111401155 0.0035992727 2.41116128e-05)
(0.01086556316 0.003532493226 4.01156999e-05)
(0.01064120224 0.003468595812 -5.372376552e-05)
(0.01041535723 0.003401564347 -3.611690271e-05)
(0.0101628094 0.003181210961 4.840398109e-06)
(0.009938858772 0.00315535957 5.995982711e-05)
(0.009747946273 0.003057239069 6.43746564e-05)
(0.009440871869 0.002934570439 8.019538363e-06)
(0.009202727724 0.002848056706 3.784355478e-05)
(0.009032995306 0.002799901776 1.611307089e-05)
(0.008859839073 0.002652308804 -2.207070234e-05)
(0.008697148974 0.002637980729 -2.950684419e-05)
(0.008485904088 0.002520505037 -3.72861811e-05)
(0.008346618687 0.00245417134 -7.654934484e-05)
(0.008131971673 0.002405979165 -6.959990255e-06)
(0.007975698465 0.002344215076 -1.611905631e-05)
(0.007763039075 0.002249848769 -2.094301659e-05)
(0.007578269742 0.002224339332 -4.995256084e-05)
(0.007468373958 0.002167060212 -1.332504044e-05)
(0.007363790119 0.002102870054 -2.230848713e-06)
(0.007239885083 0.001979176197 -1.068564906e-05)
(0.007075804787 0.001948424244 4.651161878e-05)
(0.007023165125 0.001936938216 1.117864967e-05)
(0.006985594634 0.001778852833 -4.072195756e-05)
(0.006960386076 0.001716406861 -5.506857719e-06)
(0.00696071368 0.001466942672 -3.768459247e-05)
(0.006813449735 0.001128621198 -2.281778115e-05)
(0.01198511416 0.00374094547 5.159457199e-05)
(0.01209893481 0.003919691821 -2.098151989e-05)
(0.0121363693 0.003958497577 -4.579386369e-05)
(0.01213304874 0.003968511584 -4.918606705e-06)
(0.01195010848 0.003959842092 -4.923810824e-05)
(0.01192221506 0.003942850134 4.290445134e-06)
(0.01174191738 0.003881809718 -2.466394105e-07)
(0.01151737949 0.003753828081 1.585202425e-05)
(0.01121910699 0.003626059209 -3.369940806e-05)
(0.01105580899 0.003577249208 -2.006599719e-05)
(0.01084284505 0.003481758726 -2.199420556e-05)
(0.01066763205 0.00333883122 -1.200586657e-06)
(0.01042844496 0.003261313132 1.512570338e-06)
(0.01017057752 0.003196300038 -1.768941831e-05)
(0.009933975102 0.00311936586 -2.724924474e-05)
(0.009719894215 0.002998855507 -6.754432612e-05)
(0.009451048082 0.002859193362 -4.04615444e-05)
(0.00935683413 0.002813798687 -1.115060295e-05)
(0.009145737788 0.002766802943 -2.062151975e-05)
(0.008877353342 0.002745792369 -1.534469512e-05)
(0.00872380982 0.00260208572 -8.436753579e-05)
(0.00857579107 0.002490145939 -1.982914149e-05)
(0.008434912525 0.002471345694 1.455240151e-05)
(0.008260431397 0.002397654349 -3.034711194e-05)
(0.008053921317 0.002261686987 -1.065966015e-05)
(0.00801410599 0.002148279752 -1.041292988e-05)
(0.00793878432 0.002092319137 -1.718217807e-05)
(0.007774162521 0.001959821895 7.745808974e-06)
(0.007690228174 0.001688656455 4.777793822e-05)
(0.007585213326 0.00144604729 2.012867927e-05)
(0.01189661878 0.003461163694 -9.997211239e-06)
(0.01217032571 0.003716057244 1.595095487e-05)
(0.01245363057 0.003958147612 -2.971007435e-07)
(0.01255695126 0.004084679327 -2.050026129e-05)
(0.01270119995 0.004154588847 8.506434248e-06)
(0.01269599297 0.004105635486 4.169776688e-06)
(0.01270902663 0.004222600564 -2.01257848e-05)
(0.01266974902 0.004212520642 -2.70605084e-05)
(0.01247969561 0.004085956772 -1.551272314e-05)
(0.01231661787 0.004004424579 -4.40786394e-05)
(0.01216884952 0.003913126478 -6.357278231e-05)
(0.01188880656 0.003851467348 -7.444487111e-05)
(0.01163551721 0.003770655848 -1.54585428e-05)
(0.01143247101 0.003658819978 -4.515897976e-05)
(0.01128177186 0.00355921729 -5.187997427e-05)
(0.01103373488 0.003509653126 -1.709939655e-05)
(0.01075899031 0.003375065791 2.969053534e-05)
(0.01037805058 0.003269269514 -4.768753453e-05)
(0.0101734265 0.00318661288 -8.868780497e-05)
(0.01005405594 0.003104550059 -4.314250797e-05)
(0.009817522001 0.002987369633 -3.070127833e-05)
(0.009604892386 0.002934355169 -1.222956503e-05)
(0.009451435347 0.002766352701 -1.091623305e-05)
(0.009282610204 0.002755559098 -2.280737188e-05)
(0.009126619 0.002614182642 -4.091394596e-05)
(0.008944447171 0.002490357559 -6.121692725e-05)
(0.008743890568 0.002351849785 -0.0001042746947)
(0.008746148822 0.002236407548 -7.187061263e-05)
(0.008576210987 0.001987225251 -4.182633701e-05)
(0.008439510454 0.00171963994 3.679526894e-05)
(0.01150275019 0.003074661754 -6.672122782e-06)
(0.01189500759 0.003380570952 5.764256522e-06)
(0.01225709917 0.00363173809 -1.970179218e-06)
(0.01264191143 0.003859840452 -2.117612388e-05)
(0.01288894153 0.004103113057 -6.555490354e-07)
(0.01301227971 0.004197548301 -5.059696084e-05)
(0.01307687934 0.004235711833 -2.511623307e-05)
(0.01312136843 0.004295408867 -6.924271871e-05)
(0.01321644301 0.004371043819 -7.187595602e-05)
(0.01305331854 0.004299403452 -4.19707595e-05)
(0.01286522376 0.004271056558 -7.481926273e-06)
(0.01265835639 0.00417619581 3.637241599e-05)
(0.01253179372 0.004123161387 1.126930916e-05)
(0.01235873805 0.004019957443 3.222601085e-05)
(0.0121220223 0.003968610945 2.08982117e-05)
(0.01190667995 0.003898706651 -1.259362066e-05)
(0.01170316913 0.003802920617 -3.735523747e-05)
(0.01145845101 0.003735657195 -1.595813727e-05)
(0.01122020496 0.003541741544 3.022825412e-06)
(0.01103884107 0.003466987166 -1.494041399e-05)
(0.01087144182 0.003419943671 -4.785967859e-05)
(0.01064224384 0.003280721949 -1.679687959e-05)
(0.01038003169 0.003149349183 2.147349358e-05)
(0.0102123694 0.00309430267 9.550242955e-06)
(0.01002537228 0.002965206119 -2.495723553e-05)
(0.009859358838 0.002789004423 2.912564118e-05)
(0.009727072444 0.00268313358 2.107684138e-05)
(0.009609320164 0.002506363277 -6.045225419e-05)
(0.009412825473 0.002318427238 -5.390431723e-05)
(0.00916194046 0.002015876525 -2.962210862e-05)
(0.01119357717 0.002606462746 -1.579288693e-05)
(0.01158462457 0.00293884228 -2.929163968e-05)
(0.0119624303 0.003206253012 -1.939141494e-05)
(0.0123793972 0.003506701608 -1.678146494e-05)
(0.01275911262 0.003828835497 -3.247258479e-05)
(0.01302175145 0.004024968042 -1.941070248e-05)
(0.01326404475 0.004198599674 -1.619086942e-05)
(0.01338728312 0.004255008465 1.207383199e-05)
(0.01339576744 0.00439914747 -3.039172562e-06)
(0.01344616063 0.004484388806 -5.052452737e-06)
(0.01343648553 0.004493858695 -5.570110916e-06)
(0.01342413559 0.004482232199 -8.238147871e-06)
(0.01334190248 0.004431441674 3.67750307e-05)
(0.01316017535 0.00436771886 1.140032836e-05)
(0.0129136256 0.004200954116 7.755813568e-06)
(0.01285096033 0.004247992924 1.693903673e-05)
(0.01276669236 0.004220437816 4.924851638e-05)
(0.01258136569 0.004097741296 4.869649492e-05)
(0.01226622934 0.003997190416 3.915461552e-05)
(0.01197517452 0.003886823691 5.073316699e-05)
(0.0118277547 0.003723702589 1.422601662e-05)
(0.01164135176 0.003705596096 4.110566737e-05)
(0.0114258034 0.003550311036 4.466788721e-06)
(0.01115562842 0.003421911189 3.842640606e-05)
(0.01094299882 0.003325341821 -7.57052885e-06)
(0.01072194531 0.003131577091 3.079398067e-05)
(0.01053971427 0.002962789141 5.060806371e-05)
(0.01030151232 0.002808543542 3.335237858e-05)
(0.01011065693 0.002588052127 3.675929033e-05)
(0.009957150284 0.00237983582 1.012496629e-05)
(0.01048046582 0.002092926139 -2.452599664e-06)
(0.01099116296 0.002407449532 -1.3881771e-05)
(0.01142499348 0.002751925372 -7.704312171e-06)
(0.0118616268 0.003052340497 7.414305757e-06)
(0.01225042144 0.003258406421 1.518415003e-05)
(0.01272541726 0.003683041154 -3.595589691e-07)
(0.01301832451 0.003983474044 -7.354733275e-06)
(0.01324831016 0.004123633991 1.458146967e-05)
(0.01354336208 0.004275283857 2.594533377e-05)
(0.01379599009 0.00445900057 3.049994935e-05)
(0.01386779416 0.004554826979 4.606370878e-05)
(0.01388954848 0.00459224043 1.64414728e-05)
(0.01388349916 0.004612246346 -1.358708881e-05)
(0.01383031872 0.004655364474 -7.242190166e-06)
(0.01365251678 0.00452444523 -1.117381053e-05)
(0.01345271785 0.004446043103 -2.140796165e-05)
(0.01331696391 0.004400871883 -7.059583529e-06)
(0.01329095672 0.004412483379 6.901426954e-06)
(0.01327500714 0.004357955613 -1.479891576e-05)
(0.01304888653 0.004236863914 3.300245243e-05)
(0.01281291641 0.004146730801 5.392015179e-05)
(0.01262894226 0.004088441661 3.205602625e-05)
(0.01227249411 0.003947903268 2.070063002e-05)
(0.01205740705 0.003775412721 1.442398513e-05)
(0.01186369012 0.003643893352 8.291616673e-05)
(0.01166557547 0.003528449444 5.861906361e-05)
(0.01137065469 0.003299494944 3.264469567e-05)
(0.01123464093 0.003158124153 -1.921815752e-06)
(0.01096643802 0.002931858058 4.073332547e-05)
(0.01070547145 0.002674551952 -1.296538273e-06)
(0.0100036355 0.001570061458 -4.996929776e-05)
(0.01043160881 0.001880417104 -1.526503499e-05)
(0.01086579772 0.002242636932 8.470419704e-06)
(0.01124860164 0.002550416212 -6.303054802e-06)
(0.01164405731 0.002845627924 -2.272263311e-06)
(0.01210080235 0.003200722654 -7.769806556e-06)
(0.01252539285 0.003460914243 -6.072423666e-06)
(0.01302949659 0.003794203437 -7.279765818e-06)
(0.01332806834 0.003993181394 -9.073937183e-06)
(0.01358157296 0.004201856762 -7.458156539e-06)
(0.01384986416 0.00443637196 -2.988843478e-05)
(0.0140402485 0.004586529569 -2.354989143e-06)
(0.01411488162 0.004648772482 2.392638472e-05)
(0.01419874269 0.004748929109 3.576823199e-05)
(0.01423618925 0.00476022891 1.980005728e-05)
(0.01415750761 0.004707723283 3.166022601e-06)
(0.01404072477 0.004588237058 3.775289811e-05)
(0.01390266498 0.004590827769 3.606399279e-05)
(0.01376528015 0.004559608008 4.30894792e-05)
(0.01361898343 0.004529839185 -1.107780591e-06)
(0.01342231946 0.004420771563 -6.038825463e-06)
(0.01318955604 0.004344631896 3.546046434e-05)
(0.0131139664 0.00427550338 -1.356294753e-05)
(0.01294815132 0.00413611897 -3.052587827e-05)
(0.01274625282 0.003970657387 -4.88663835e-05)
(0.01256356566 0.003854628893 -6.77472811e-05)
(0.01231459444 0.003673695388 -2.787376988e-05)
(0.01205553168 0.003501847518 -2.833253393e-05)
(0.01174907464 0.003251635089 -4.093734172e-05)
(0.01145308276 0.003053077926 -4.452466888e-05)
(0.009669672257 0.001222721963 3.62584928e-05)
(0.009868733095 0.001433332229 3.202814517e-05)
(0.01026221968 0.001730066493 1.002286519e-05)
(0.01067931982 0.002048612924 6.690376739e-06)
(0.01108978971 0.002358434992 -5.098829744e-06)
(0.011616979 0.002646390291 -3.592309602e-05)
(0.0120836652 0.003016889764 -2.653636529e-05)
(0.01250638096 0.003321859627 -2.249473994e-05)
(0.01292946122 0.003647513266 -7.461391001e-06)
(0.01325176143 0.003900710491 5.791805645e-06)
(0.01352946918 0.004102597597 -3.376422863e-05)
(0.01388768375 0.004358076784 -2.671492676e-05)
(0.01412622254 0.004492005361 -2.760232313e-05)
(0.01440366568 0.004657398088 2.232972641e-05)
(0.01458198638 0.00479036927 1.239904522e-05)
(0.01460630939 0.004831561237 3.090880957e-05)
(0.01449500888 0.004860433675 2.451378475e-05)
(0.01429542155 0.004726561482 1.569652807e-07)
(0.01421682204 0.004765403554 -3.393946831e-06)
(0.0141454267 0.004745828161 3.526618298e-05)
(0.01405269915 0.004659130496 4.456087425e-06)
(0.01398840385 0.004574262425 2.530751464e-05)
(0.01387488916 0.004524279746 1.966213015e-05)
(0.01369029546 0.004405302565 4.75604873e-05)
(0.01352093561 0.004334375666 -9.206721437e-06)
(0.01327326154 0.004147386125 1.920773513e-05)
(0.0129841031 0.003998542533 5.247998183e-06)
(0.01275348851 0.00381224127 3.834552534e-06)
(0.01253383584 0.003684942018 -1.438537093e-05)
(0.01220760366 0.003375270488 -2.241013534e-05)
(0.009231512631 0.0008904868216 3.903581524e-06)
(0.009553484607 0.001108138777 1.261749953e-05)
(0.009862054063 0.001320357243 2.90949547e-05)
(0.01023952045 0.001593649314 3.550076168e-05)
(0.01064047282 0.001859877332 2.436410855e-05)
(0.01098328173 0.002150092643 2.668589627e-05)
(0.0113192862 0.002465705351 1.939960753e-06)
(0.01176646813 0.002841520896 1.168686962e-05)
(0.01220084005 0.003111824011 -5.154539521e-06)
(0.01274834528 0.003479254495 -8.95986527e-06)
(0.01316474663 0.003741209398 -2.596054433e-06)
(0.01358544371 0.003992727233 -7.62474943e-06)
(0.01388147287 0.004204453677 -1.311141131e-06)
(0.01413610121 0.004384752137 -1.794701099e-05)
(0.01442231572 0.004618132542 1.699156978e-05)
(0.01463512423 0.004810869612 2.494950122e-05)
(0.01473614463 0.00486451296 3.503678362e-05)
(0.01483393036 0.004934044588 2.689779949e-05)
(0.01478860708 0.004910450314 -1.351816495e-05)
(0.01477625944 0.004942833326 2.380845802e-06)
(0.01466438509 0.004863642497 2.851261818e-05)
(0.01443702472 0.00477527064 -3.95649935e-05)
(0.01434181317 0.004742745068 -0.0001039063426)
(0.0141758628 0.004630712203 -4.654865248e-05)
(0.0139672322 0.004488444009 -9.696805466e-06)
(0.0138523943 0.004465342837 -1.031665996e-06)
(0.01370744206 0.004286219972 1.323626977e-05)
(0.01347886259 0.004124266868 3.427147647e-05)
(0.0132920755 0.003920572854 6.752345445e-06)
(0.01307000541 0.003770247601 -1.835682366e-05)
(0.009160308356 0.0006705127028 -2.200261126e-05)
(0.009297905005 0.0008321275291 -6.19538259e-06)
(0.009490121939 0.001007070127 -1.275951532e-05)
(0.009689162013 0.001222690385 1.915344156e-06)
(0.009954594011 0.00143340812 -8.115104586e-06)
(0.01029643762 0.001708390319 -4.989889713e-06)
(0.01076799703 0.002020755484 1.741423389e-07)
(0.01118733737 0.00229629593 -3.905179351e-06)
(0.01168940612 0.002623135579 -1.949683984e-05)
(0.01213113145 0.00291346733 -2.682218912e-05)
(0.0126070217 0.003229476546 -2.73988928e-05)
(0.01297469491 0.003604594038 -2.911442115e-05)
(0.01342523414 0.0038169287 -6.114450907e-05)
(0.01386983671 0.004104412494 -3.860367109e-05)
(0.01412717903 0.004290409743 -4.150644101e-05)
(0.014473399 0.004583610314 -2.224733712e-06)
(0.01482526032 0.004771588718 -1.174529327e-05)
(0.01505316666 0.004874485457 8.997472315e-06)
(0.01510113223 0.004955897981 2.090432277e-05)
(0.01514538358 0.004985287618 -1.304793147e-07)
(0.01510487359 0.004994198578 -1.633669639e-05)
(0.01512644703 0.005002553933 3.707836678e-05)
(0.01495289647 0.004938142857 4.876927621e-05)
(0.01475950041 0.004891564956 3.675449752e-05)
(0.01463058648 0.004785099896 6.493991954e-05)
(0.01442379874 0.004620975618 4.836514584e-05)
(0.01427145765 0.004522507992 6.285966428e-06)
(0.01410903343 0.004432464027 3.203041014e-05)
(0.01381983131 0.004247499904 6.117705051e-05)
(0.01359956637 0.00397028216 2.341371977e-05)
(0.008669131099 0.000499924588 -1.062715212e-05)
(0.008875318966 0.0006044466627 -2.448642505e-05)
(0.00911060151 0.0007487778998 -8.67103196e-06)
(0.009344274899 0.0009366925781 -9.110034095e-06)
(0.009586559405 0.001112215668 -9.828356863e-06)
(0.009889421701 0.001314311738 -5.148090899e-06)
(0.010248725 0.001536035894 -1.336340285e-05)
(0.01072095052 0.001820211884 1.99178709e-05)
(0.01104161695 0.00210949697 2.310894199e-06)
(0.01153147366 0.002462084023 -5.450490244e-06)
(0.0119877644 0.002752820373 -3.012469299e-05)
(0.01251452101 0.003034028985 -1.098270274e-05)
(0.0129749853 0.003410256522 -3.623666177e-05)
(0.01336270514 0.003712012925 -4.698151337e-05)
(0.0137948333 0.00399364262 -3.604747301e-06)
(0.01414310251 0.004181894828 -3.826446868e-05)
(0.01441239572 0.004405510817 -2.676566236e-05)
(0.01475671623 0.004667589934 -4.23726257e-05)
(0.01494137731 0.004800461732 8.082429923e-06)
(0.01513109366 0.004933025875 3.207678914e-05)
(0.01531385085 0.005071920243 -7.197175002e-07)
(0.01520871015 0.005040071434 3.272869101e-05)
(0.01524178474 0.00507487649 2.762266681e-05)
(0.01521132385 0.005117661052 -4.764066759e-06)
(0.01497864744 0.004928496878 -2.811624743e-05)
(0.01492145534 0.004856610765 1.872120275e-05)
(0.01471478812 0.004731723561 1.695177687e-05)
(0.01461798989 0.004608115779 -1.467107141e-05)
(0.01447933493 0.004484829336 1.516264342e-05)
(0.01427087367 0.004265264747 2.69283521e-05)
(0.008781310538 0.0003722405683 -1.154494236e-05)
(0.008844245647 0.000442180852 -1.807438232e-05)
(0.00895907934 0.000565930042 -1.104337103e-05)
(0.009153842988 0.0006974080131 8.454003029e-06)
(0.009335915189 0.0008246293841 -7.773000863e-06)
(0.009571061245 0.00102031915 5.82070456e-06)
(0.0097863773 0.001170555274 -3.074299658e-06)
(0.01008295571 0.001425316453 -3.193535051e-07)
(0.01041779048 0.001638757768 1.502262607e-05)
(0.01081807387 0.001921558772 4.043563995e-05)
(0.01122011964 0.002264490621 3.208015799e-05)
(0.01166267727 0.002531877131 -6.073233671e-06)
(0.01206168325 0.002852339893 -1.219122811e-05)
(0.01258832846 0.003172404801 -6.247241262e-07)
(0.01305098831 0.003481785025 6.679586282e-06)
(0.01346864818 0.003793002721 1.872534919e-05)
(0.01390394289 0.004081651882 1.315027947e-05)
(0.01425242613 0.004311090061 2.198947229e-05)
(0.01460752929 0.004559193933 -3.604862669e-05)
(0.0149829383 0.004758649041 -1.992072889e-05)
(0.01511470566 0.004889270654 2.147537617e-05)
(0.0153762329 0.005076761269 -1.481612857e-05)
(0.01535139637 0.005073919964 2.508849908e-05)
(0.01543681711 0.005105727197 -3.057387483e-06)
(0.01547326415 0.005087974717 -1.996001937e-05)
(0.01538409527 0.004990501392 -8.990369092e-05)
(0.01528723541 0.004929986253 -6.754454997e-05)
(0.01510986707 0.004815466588 -3.394948681e-05)
(0.01487061032 0.004719387101 -2.968510816e-05)
(0.01463726491 0.00456314544 2.8461772e-06)
(0.008626113559 0.0002664584152 1.220753214e-06)
(0.008694482892 0.0003398015879 8.943156553e-07)
(0.008810264885 0.0004139779639 -4.06766038e-06)
(0.008921766993 0.0005282166301 -8.827621974e-06)
(0.009054814696 0.0006457346581 1.00542243e-05)
(0.009183520921 0.0007620012024 -1.152718271e-06)
(0.009397838741 0.0009188207204 -6.754327566e-06)
(0.009629840238 0.001089035595 -2.843149209e-06)
(0.009969605304 0.001322398113 1.769527864e-05)
(0.01024638469 0.001489388976 3.605833926e-05)
(0.01059441677 0.001748414392 1.246158097e-05)
(0.01105135981 0.002081986107 5.509135017e-06)
(0.01157365445 0.002365778517 8.982497413e-06)
(0.01196580838 0.002675247463 -1.586163777e-05)
(0.01244236068 0.002993838959 -4.872070728e-05)
(0.01299083561 0.003338576791 -8.351228841e-06)
(0.01347779315 0.003636436177 -1.24466793e-05)
(0.01391328923 0.003946543372 -2.201606274e-06)
(0.01431656035 0.004192809178 6.624199134e-06)
(0.01466852401 0.00444867573 1.746592279e-05)
(0.01497443095 0.004674098327 -4.684920791e-05)
(0.01527772736 0.00485591385 -2.391858297e-05)
(0.01553996105 0.004988287024 1.20328604e-05)
(0.01575040871 0.005128135913 1.150276669e-05)
(0.01572772253 0.005176441444 2.218713637e-05)
(0.01569133266 0.005128713259 5.068662945e-06)
(0.01563240256 0.005075227177 -2.194142751e-05)
(0.01550851753 0.005007121582 -3.928646172e-05)
(0.01536301471 0.00487656915 2.132002267e-06)
(0.008485554083 0.0002048252584 6.888062694e-06)
(0.008526705442 0.000258135378 3.682984505e-06)
(0.008594262112 0.0003097818926 8.959782882e-07)
(0.008707733442 0.0003829460125 9.245069403e-06)
(0.008899259057 0.0004677048427 1.658106255e-06)
(0.00900648687 0.0005833528148 -6.337971459e-07)
(0.009162625316 0.0007040790638 -3.209168852e-06)
(0.009365361172 0.0008223116144 -5.88482228e-07)
(0.009531549072 0.0009971025976 3.085491563e-07)
(0.009870468989 0.001189637597 -2.053431937e-05)
(0.01020736804 0.00139273013 -1.031650647e-05)
(0.0105127809 0.001621432261 -1.428644155e-05)
(0.01092911641 0.001895878581 6.865599121e-06)
(0.0113551636 0.002169965014 -1.606315762e-05)
(0.01188293482 0.002519311212 -2.378068625e-05)
(0.0123119299 0.002836799618 -2.399974547e-05)
(0.01271998704 0.003151675587 -5.003678664e-05)
(0.01322406529 0.003457847488 -6.642261069e-06)
(0.01370309621 0.003755264136 -2.142230373e-05)
(0.01415764749 0.004034556785 -2.464810014e-05)
(0.01469834174 0.004356173669 1.370028681e-05)
(0.01499624707 0.004564918183 -2.385516654e-05)
(0.01533851859 0.004786704724 -2.84922321e-05)
(0.01562895427 0.004999099504 -1.965735295e-05)
(0.008406293678 0.0001526314844 4.837262535e-06)
(0.008490904605 0.0001840229349 4.493697162e-06)
(0.008538109226 0.0002288299614 -2.693214714e-06)
(0.00857746706 0.0002787843518 -1.115257082e-05)
(0.008632632929 0.0003443256599 7.896604058e-08)
(0.008748899343 0.0004146472225 -4.618884172e-06)
(0.008894848168 0.000507312989 -1.934041539e-05)
(0.009070600903 0.0006182732093 -1.799211098e-05)
(0.009296008965 0.0007390292371 -1.10015772e-05)
(0.009492995768 0.0009016078784 4.586753025e-06)
(0.009699069594 0.001063667975 -4.082126586e-06)
(0.01002548511 0.001274814795 -2.101293306e-05)
(0.0103166789 0.001492291251 -1.098678109e-05)
(0.01071030693 0.001731131425 5.608330192e-06)
(0.01111785326 0.001996188582 1.046682048e-05)
(0.01158985846 0.002309081553 -1.275408e-06)
(0.01217072135 0.002675554609 -1.101224497e-06)
(0.0126284076 0.002931786559 -1.715861037e-05)
(0.01316296681 0.003303653347 4.56002357e-06)
(0.008436936599 0.0001071758016 -6.027043751e-06)
(0.008457132574 0.0001404874702 -1.704325867e-05)
(0.008488759373 0.0001879909132 -1.310950629e-05)
(0.008577641229 0.0002267324893 -7.693561082e-06)
(0.008628736541 0.0002640368622 -3.593717676e-06)
(0.008731615735 0.0003167912457 -3.991222579e-06)
(0.008832828346 0.0003857151556 -3.518348431e-06)
(0.008861742786 0.0004771644131 -6.023452784e-06)
(0.008925069171 0.0005622098484 -1.348216464e-05)
(0.009175290965 0.0006823738266 -1.546387665e-05)
(0.00940624846 0.0007893434882 -1.288844481e-05)
(0.009663560936 0.0009582915834 -1.093802425e-05)
(0.009958529382 0.001151368116 6.071837783e-06)
(0.01032044156 0.001379564956 -1.327200851e-05)
(0.008330020259 9.034152369e-05 -7.299015154e-06)
(0.008420715928 0.0001010225077 -1.914231746e-05)
(0.008404363736 0.0001117929032 -1.157065099e-05)
(0.008447685562 0.0001630222127 -2.20127639e-05)
(0.008508186812 0.0002001865886 -2.284332101e-05)
(0.008564847243 0.0002595898715 -2.779319347e-05)
(0.008674387817 0.0002970039029 -2.534594487e-05)
(0.008855918797 0.0003474496275 -2.978153413e-05)
(0.008464254626 6.493943942e-05 -1.111623452e-05)
(0.008448658962 9.768354975e-05 -2.886045032e-06)
)
;

boundaryField
{
    flow
    {
        type            calculated;
        value           nonuniform List<vector> 
15
(
(0.00358766043 0.0006334394912 1.093729043e-05)
(0.004984237106 0.0007016357915 1.280354755e-05)
(0.006083109527 0.0008867474847 1.482212298e-05)
(0.006813449735 0.001128621198 -2.281778115e-05)
(0.007585213326 0.00144604729 2.012867927e-05)
(0.008439510454 0.00171963994 3.679526894e-05)
(0.00916194046 0.002015876525 -2.962210862e-05)
(0.009957150284 0.00237983582 1.012496629e-05)
(0.01070547145 0.002674551952 -1.296538273e-06)
(0.01145308276 0.003053077926 -4.452466888e-05)
(0.01220760366 0.003375270488 -2.241013534e-05)
(0.01307000541 0.003770247601 -1.835682366e-05)
(0.01359956637 0.00397028216 2.341371977e-05)
(0.01427087367 0.004265264747 2.69283521e-05)
(0.01463726491 0.00456314544 2.8461772e-06)
)
;
    }
    obstacle
    {
        type            calculated;
        value           nonuniform List<vector> 
30
(
(1.261719521e-21 3.380767274e-22 -3.592943663e-23)
(1.137308102e-21 3.047407881e-22 2.203847071e-23)
(1.262428315e-21 3.382666464e-22 1.399380788e-22)
(1.135287429e-21 3.041993502e-22 4.011595119e-23)
(1.100748916e-21 2.949447823e-22 -7.255853042e-23)
(1.023506673e-21 2.742477869e-22 2.992145688e-23)
(1.068459581e-21 2.862928825e-22 4.281262411e-23)
(9.216988214e-22 2.469684541e-22 -5.263762265e-23)
(9.696813167e-22 2.598253262e-22 -6.319371411e-23)
(9.418521866e-22 2.523685332e-22 1.860728869e-23)
(9.336341066e-22 2.501665041e-22 2.732352252e-23)
(9.232701445e-22 2.473894901e-22 4.409553478e-23)
(8.895550217e-22 2.383555501e-22 -1.584305162e-23)
(8.442032351e-22 2.262035744e-22 -9.528927407e-23)
(8.817376838e-22 2.362609007e-22 2.47952564e-23)
(8.222636251e-22 2.203248736e-22 7.408595353e-23)
(8.356135108e-22 2.239019658e-22 -2.957758572e-25)
(8.086751017e-22 2.166838408e-22 6.271188792e-23)
(8.18747522e-22 2.193827366e-22 -1.019090428e-24)
(8.714170958e-22 2.334955075e-22 -4.871499657e-24)
(7.665072548e-22 2.053850003e-22 3.892968312e-23)
(8.124513061e-22 2.176956707e-22 3.149805607e-23)
(7.677433698e-22 2.057162163e-22 6.347134096e-23)
(7.555275e-22 2.024429838e-22 5.264375115e-23)
(7.776514047e-22 2.083710652e-22 3.675681629e-23)
(7.5029381e-22 2.010406208e-22 -4.651183352e-24)
(8.305012728e-22 2.225321447e-22 -5.58073445e-24)
(7.444177299e-22 1.994661299e-22 -3.572999281e-23)
(8.421735054e-22 2.256597111e-22 -3.469439674e-23)
(7.97495484e-22 2.136882702e-22 2.110564602e-23)
)
;
    }
    frontAndBack
    {
        type            empty;
    }
    procBoundary1to0
    {
        type            processor;
        value           nonuniform List<vector> 
21
(
(0.005699587401 0.001637324635 1.646235352e-05)
(0.008770669922 0.002691675461 6.690328312e-05)
(0.01065555511 0.003433383393 5.809446219e-05)
(0.01147566152 0.003663827338 5.084774533e-06)
(0.01180748835 0.00356957557 2.456106824e-05)
(0.01155172289 0.003278554151 -1.57298134e-05)
(0.01110441243 0.002826156111 -4.759379911e-05)
(0.01069155573 0.002244732769 -3.025677446e-05)
(0.01005152832 0.001718505676 -1.891501704e-06)
(0.009724491195 0.001290339636 -2.240626712e-05)
(0.009407133435 0.0009829131407 1.675367149e-05)