/*--------------------------------*- C++ -*----------------------------------*\
  =========                 |
  \\      /  F ield         | OpenFOAM: The Open Source CFD Toolbox
   \\    /   O peration     | Website:  https://openfoam.org
    \\  /    A nd           | Version:  7
     \\/     M anipulation  |
\*---------------------------------------------------------------------------*/
FoamFile
{
    version     2.0;
    format      ascii;
    class       volScalarField;
    location    "0.01";
    object      overallT;
}
// * * * * * * * * * * * * * * * * * * * * * * * * * * * * * * * * * * * * * //

dimensions      [1 2 -2 0 0 0 0];

internalField   nonuniform List<scalar> 
546
(
835.5211608
825.9229055
813.3070547
805.2818156
801.2237088
792.0556763
786.6518773
785.3526857
776.3341235
772.5850774
766.3893897
764.0571162
761.1990331
751.207133
755.1468046
751.9758774
747.3126923
752.5429156
744.0053489
737.5050179
737.3113953
733.3087401
731.0840302
729.1229176
725.9664004
712.922069
716.0254829
721.5500101
714.6381923
706.2684517
922.336312
915.638685
903.9565788
891.1319655
887.8860441
883.8065229
880.490676
872.4601255
877.6169627
862.7382716
859.0697514
853.6762808
849.3876421
847.5363021
836.4464667
826.334738
830.859471
829.8743746
817.5615628
811.6733255
806.5559346
803.7807681
792.7143558
790.9896852
789.6983971
777.4219578
775.7463975
766.9548988
749.7833977
724.0360969
927.9313347
924.7308217
919.1394002
919.4452632
914.4214793
915.7672461
911.1058583
903.6586718
903.4269517
905.5016961
900.6849109
896.1745218
889.6257238
881.3197249
880.3999521
872.757208
870.9060949
872.4404089
864.0664447
856.7447592
852.8269454
848.4714991
841.496638
838.7244788
830.7916357
818.9061633
807.3904237
791.9821577
775.0789345
737.8423994
912.9426616
913.8124468
915.3173471
909.4445075
913.1377777
916.7349233
912.9731082
909.5195303
909.136228
909.0854971
909.4057477
909.3989957
905.0594453
899.1053828
896.3891446
895.1844089
885.9983732
881.7702716
879.6816983
877.4412133
876.6485479
871.4495483
863.2218659
857.3625389
850.4709477
836.9992567
824.5092701
812.0344628
787.6340393
754.4593861
880.0063398
881.6109666
880.9968418
883.3500477
890.5931517
890.1328473
891.9996295
893.925185
895.3621553
897.6530441
898.6451983
897.6283978
898.4651759
893.247423
891.8371814
890.2928431
892.0848686
881.7609818
885.1814813
886.6097285
886.4109404
887.8366678
877.3765837
868.0932919
862.4771046
854.9526484
834.2834886
820.9416384
800.7089795
771.330741
840.1266897
851.1842196
854.3256126
851.8039332
859.020958
863.1115029
870.66214
866.8227908
870.2997515
870.6397608
876.7188152
875.0232071
873.4389359
877.7815058
877.2978145
881.1924971
883.4204921
888.0418765
887.8115897
888.6914977
881.9803104
887.0633456
879.7718705
873.8207886
860.5672314
853.2303439
840.0852978
828.8080879
806.9567988
785.1833977
803.2409608
815.8279768
823.5436627
826.9924729
832.1100131
835.5165677
842.9851088
844.5460402
854.332489
859.4000033
858.9886573
861.5980161
867.2398073
865.6717594
868.5281206
874.2315867
868.8562476
872.8146728
878.1375415
872.668438
874.9817797
876.8978117
867.7786314
868.7792875
862.9675256
856.3730212
846.9472322
832.6773993
814.2042614
786.4846433
756.5468672
773.9686797
792.2323553
796.0199138
800.6832548
811.0645074
816.9236472
822.3567294
829.010501
834.4787021
838.4096294
835.8748225
843.1116955
851.2485559
852.3625555
851.1917308
854.8347689
858.6364846
859.851704
860.9045515
857.7469611
867.9762682
863.8014639
861.855101
854.7296571
849.727044
844.9600896
836.2698353
818.3910522
795.901286
716.1824034
730.4274157
752.6197511
761.9294493
773.3511792
783.779672
789.8415868
796.5480847
803.6055658
807.0985197
813.1126663
818.6949383
820.7042565
826.1936725
823.6944312
834.9368629
836.0560978
837.9242496
837.3028662
844.3859733
841.8593576
842.805705
843.9687934
842.2581739
842.0028287
838.1637786
826.5903559
821.8661306
815.5871788
792.979166
662.7465033
683.1898446
708.3950042
723.2633604
735.3507941
750.2746754
764.5637411
770.3091486
773.3870535
776.7445568
785.8885215
787.2200964
791.3009076
799.0720058
809.2003006
810.4831779
819.4498787
823.7344323
828.3078732
827.7098557
824.9554188
830.0150881
834.8766211
828.5147938
829.0704434
827.657871
821.3300888
810.4229711
798.5562358
785.7080421
610.3957946
631.73518
664.2066751
682.0770934
692.5436584
712.6616076
729.1042429
733.1869358
743.4461386
750.3593641
757.0506837
771.0913168
771.5098658
780.6312831
786.7403666
791.6199425
797.2687348
796.3416659
805.3771416
809.9183136
817.1669642
817.034441
819.948767
812.1781151
812.6490269
815.20059
806.5344234
801.5318675
794.5676992
780.8665993
555.3564817
585.1728163
601.4396643
633.0826116
653.0566726
671.8154013
686.0628557
705.4889988
720.2695805
731.1410312
738.501989
746.2243292
751.262215
760.8568647
770.4486787
775.7218681
773.0725024
774.2856881
780.479825
792.0014016
794.8188265
798.8521179
801.6595874
805.796023
796.8988857
795.4163757
795.7597913
791.384729
785.8657274
771.1767877
503.9844268
528.5727201
556.3291713
588.4361271
608.2297706
633.6900751
654.482061
667.8162583
686.5583052
694.7046304
706.8519566
722.5096978
728.6592923
733.1550433
741.7405491
753.2226075
764.1581915
764.1321554
767.2669055
771.6256957
775.1438973
782.1062807
786.7234934
782.9352718
782.709464
783.3099454
783.2078916
781.6867373
778.4268581
771.6220126
461.9162299
485.0344313
510.7613704
542.2091103
562.279049
587.9526971
605.7415706
623.696364
644.7433187
663.5652707
675.8120831
690.8254883
700.5504269
711.0369392
717.8940327
724.4538891
733.6434931
739.5213776
745.3361646
751.4158985
761.0266919
759.7516801
764.8531301
771.4062729
772.4846748
770.6005658
773.9040662
765.7346555
768.0651245
756.5800573
425.9121671
436.7979724
465.045383
492.5973405
511.9413724
541.4545687
563.036806
591.0823756
605.3364022
628.3387608
652.7296254
663.6423864
676.8318309
687.8111852
699.8295142
712.7595055
717.3543461
722.9713759
725.2735661
731.222136
740.7743912
743.5421
747.8219532
753.8174394
760.1845582
755.5012921
760.4731695
754.5808396
748.8255805
744.2468557
392.719024
408.375313
425.6121658
452.106916
473.8352139
501.6882337
525.1465388
543.6094873
571.0751862
586.7407937
608.0487532
625.9834235
643.1126082
656.0615602
671.7955369
683.2184854
690.7511899
701.1700179
710.8872387
718.9657784
723.1945547
728.8495819
734.0608592
738.7127398
741.7757325
743.1926361
744.4597654
743.6855796
743.8778032
373.8495999
389.1878869
403.7305579
423.5834118
435.9426767
456.1326871
479.3919282
500.8477839
527.0693068
549.0519826
565.7441957
591.3143331
608.3846465
621.5481813
643.5592695
658.4611169
671.2440806
681.9465814
689.8487107
697.6468803
704.5469285
712.6273144
717.4452821
724.1854825
357.4976872
367.2404684
380.8016416
392.9379685
408.9068281
427.0388041
447.461616
465.1834725
481.868933
506.6271538
526.3919936
550.7731342
567.1982626
589.5914456
607.9351868
622.9628419
644.8605999
653.042434
665.9894776
338.0045506
347.2794655
358.8321282
373.8909819
380.8388264
397.7835463
412.8819361
430.8675665
449.4911994
469.3645898
488.3072193
510.5979034
529.4824823
550.3233652
329.3282257
337.2124092
346.8735747
357.6420231
365.2412728
379.5694201
387.3779353
404.2345865
323.4148976
329.4318894
)
;

boundaryField
{
    flow
    {
        type            calculated;
        value           nonuniform List<scalar> 
15
(
706.2684517
724.0360969
737.8423994
754.4593861
771.330741
785.1833977
786.4846433
795.901286
792.979166
785.7080421
780.8665993
771.1767877
771.6220126
756.5800573
744.2468557
)
;
    }
    obstacle
    {
        type            calculated;
        value           nonuniform List<scalar> 
30
(
737.1795687
731.5219137
741.2849391
704.6806136
715.2818917
700.3579114
686.9234488
700.5962013
695.8143744
698.6272946
686.7689037
694.931488
687.7976884
667.2204222
677.8031326
682.1560516
679.6218315
674.6342965
669.5520811
672.6892674
672.8852924
659.9822557
671.9266138
668.2943991
666.4142142
660.257921
656.3330236
683.0951066
665.665267
688.9743279
)
;
    }
    frontAndBack
    {
        type            empty;
    }
    procBoundary1to0
    {
        type            processor;
        value           nonuniform List<scalar> 
21
(
845.9576278
926.6183551
932.1549718
913.606519
874.8607795
840.0653958
797.6206072
749.0019382
685.6184412
630.2807529
574.8038609
522.250203
474.0958284
438.1928226
403.7238232
377.0281501
364.3219165
345.3439719
331.6684133
325.7289168
317.341346
)
;
    }
    procBoundary1to3
    {
        type            processor;
        value           nonuniform List<scalar> 
36
(
744.7819054
726.6607921
729.7462294
730.4335006
729.8324564
744.7819054
728.6708167
674.1406846
684.1658751
689.4484463
699.2363555
726.6607921
703.5842022
571.5396836
586.6229486
610.7011759
626.3033614
674.1406846
639.0126389
414.7840154
433.5250347
450.5160248
472.1853882
492.4849898
571.5396836
510.9877498
333.1963466
341.2461238
352.1040586
357.9565979
368.7810669
414.7840154
381.6380075
319.4652096
333.1963466
323.7783987
)
;
    }
}


// ************************************************************************* //
