/*--------------------------------*- C++ -*----------------------------------*\
  =========                 |
  \\      /  F ield         | OpenFOAM: The Open Source CFD Toolbox
   \\    /   O peration     | Website:  https://openfoam.org
    \\  /    A nd           | Version:  7
     \\/     M anipulation  |
\*---------------------------------------------------------------------------*/
FoamFile
{
    version     2.0;
    format      ascii;
    class       volScalarField;
    location    "0.01";
    object      rhoNMean;
}
// * * * * * * * * * * * * * * * * * * * * * * * * * * * * * * * * * * * * * //

dimensions      [0 -3 0 0 0 0 0];

internalField   nonuniform List<scalar> 
546
(
6.015202173e+19
6.188886813e+19
6.211701396e+19
6.445660878e+19
6.236870514e+19
6.197462225e+19
6.254833109e+19
6.383795596e+19
6.219258062e+19
5.989690506e+19
5.970734888e+19
6.096420744e+19
6.084905472e+19
6.355141896e+19
6.305802949e+19
6.121308247e+19
6.410523425e+19
6.267125924e+19
6.53118574e+19
6.588366708e+19
6.469615083e+19
6.63410976e+19
6.658115837e+19
6.749462384e+19
6.926279875e+19
6.922241815e+19
7.173669921e+19
7.499895477e+19
7.594749389e+19
8.053473465e+19
6.169098746e+19
6.288324834e+19
6.499029299e+19
6.441531985e+19
6.186487435e+19
5.978794021e+19
6.060300877e+19
6.266742002e+19
6.313391753e+19
5.99473435e+19
6.171179605e+19
6.278698453e+19
6.248478195e+19
6.193715485e+19
6.185056718e+19
6.230194237e+19
6.39019192e+19
6.365534275e+19
6.327538443e+19
6.369171508e+19
6.532179323e+19
6.746004023e+19
6.8070963e+19
7.008766507e+19
6.956224881e+19
7.371877162e+19
7.321672081e+19
7.482274994e+19
7.795443168e+19
8.38224481e+19
6.321200598e+19
6.359287421e+19
6.449168117e+19
6.547277524e+19
6.345032358e+19
6.065190082e+19
6.359256317e+19
6.333663552e+19
6.429926885e+19
6.370861363e+19
6.312313983e+19
6.512218892e+19
6.55545378e+19
6.34274355e+19
6.400050004e+19
6.449226472e+19
6.556401971e+19
6.457023294e+19
6.654717981e+19
6.406181876e+19
6.705676771e+19
6.65744316e+19
6.902047938e+19
7.035749247e+19
7.065388039e+19
7.560575676e+19
7.431703638e+19
7.572335265e+19
8.192032141e+19
8.271419815e+19
6.556980909e+19
6.396576674e+19
6.493337383e+19
6.591319056e+19
6.446722972e+19
6.308310007e+19
6.46250624e+19
6.266269059e+19
6.244995882e+19
6.465733756e+19
6.338216868e+19
6.492453834e+19
6.390897157e+19
6.444657922e+19
6.482547426e+19
6.511483045e+19
6.612567752e+19
6.480087752e+19
6.80590283e+19
6.762471824e+19
6.7359074e+19
6.765625291e+19
6.981486344e+19
7.134236239e+19
7.503946262e+19
7.532284632e+19
7.665624651e+19
7.904607359e+19
8.357159941e+19
8.560875318e+19
6.633480515e+19
6.212616336e+19
6.274312464e+19
6.453689276e+19
6.40905122e+19
6.490184209e+19
6.482921564e+19
6.415955776e+19
6.350568603e+19
6.432348276e+19
6.371624321e+19
6.65569854e+19
6.593825734e+19
6.301829028e+19
6.458298184e+19
6.437128029e+19
6.51929698e+19
6.511352918e+19
6.798666638e+19
6.737711361e+19
6.955670836e+19
6.81706482e+19
7.206963051e+19
7.28992665e+19
7.588064519e+19
7.642427423e+19
7.785356696e+19
8.009770928e+19
8.28433435e+19
8.899333215e+19
6.569543904e+19
6.436125896e+19
6.32986557e+19
6.51470515e+19
6.529924392e+19
6.525348106e+19
6.385538119e+19
6.369843754e+19
6.595554513e+19
6.482546581e+19
6.501864965e+19
6.383136011e+19
6.641544684e+19
6.611043655e+19
6.70179057e+19
6.736060401e+19
6.649926892e+19
6.571833043e+19
6.655751724e+19
6.853955203e+19
6.845000499e+19
7.022557852e+19
7.162028234e+19
7.103206095e+19
7.689060791e+19
7.600677545e+19
8.043944798e+19
8.367215122e+19
8.453978428e+19
8.670845597e+19
6.561019012e+19
6.524490128e+19
6.548662798e+19
6.633984274e+19
6.557427077e+19
6.591949924e+19
6.529618686e+19
6.383559124e+19
6.775957562e+19
6.658841109e+19
6.819719942e+19
6.658870709e+19
6.504783136e+19
6.848843856e+19
6.858035687e+19
6.924090369e+19
6.963540352e+19
6.837586859e+19
6.642829963e+19
7.004342448e+19
6.829228049e+19
6.995512344e+19
7.076170531e+19
7.335257702e+19
7.620731878e+19
7.791298827e+19
7.828039034e+19
8.108781281e+19
8.592008404e+19
9.136082855e+19
6.597137594e+19
6.72607812e+19
6.684130401e+19
6.675273215e+19
6.529693272e+19
6.788029399e+19
6.711244679e+19
6.436765303e+19
6.77619588e+19
6.760198451e+19
6.831339915e+19
6.696448701e+19
6.528642611e+19
6.771974138e+19
6.938283202e+19
6.66725052e+19
6.849175627e+19
6.632569418e+19
6.980605301e+19
6.932406722e+19
6.997467904e+19
7.208164342e+19
7.21017264e+19
7.559484202e+19
7.799040644e+19
7.803384185e+19
7.879590206e+19
8.326100572e+19
8.571967176e+19
8.941213019e+19
6.688219241e+19
6.703026579e+19
6.784308106e+19
6.768861453e+19
6.790159929e+19
6.631771291e+19
6.754187258e+19
6.604423885e+19
6.693262901e+19
6.950423599e+19
6.600150649e+19
6.989752335e+19
6.550780284e+19
6.640799695e+19
6.840786237e+19
6.879729371e+19
6.715750128e+19
6.888841234e+19
6.959672042e+19
7.101299103e+19
7.053460324e+19
7.309717784e+19
7.548521497e+19
7.814740914e+19
7.772362366e+19
7.699833537e+19
8.116560088e+19
8.788988099e+19
8.736812698e+19
9.410438756e+19
6.875542319e+19
6.805402536e+19
6.634269215e+19
6.899839118e+19
6.636930651e+19
6.580073371e+19
6.547452753e+19
6.621922816e+19
6.838872226e+19
6.858913751e+19
6.96666434e+19
6.846028668e+19
6.708941546e+19
6.832726012e+19
6.845786054e+19
6.849735369e+19
7.033429945e+19
6.820160402e+19
7.023764083e+19
7.041352792e+19
7.297408266e+19
7.511233446e+19
7.61431897e+19
7.674160843e+19
7.841508175e+19
8.11898047e+19
8.231580415e+19
8.710954505e+19
8.883028419e+19
9.093063214e+19
6.8616333e+19
6.816702297e+19
6.890860742e+19
6.812214816e+19
6.737234579e+19
6.506252489e+19
6.635215224e+19
6.767589532e+19
6.669431597e+19
6.823847003e+19
6.666481368e+19
6.96339892e+19
6.699594586e+19
6.570129138e+19
6.881784984e+19
6.812179785e+19
7.019960209e+19
6.943683334e+19
6.940030933e+19
6.800785345e+19
7.145203677e+19
7.27418738e+19
7.546381742e+19
7.648797068e+19
7.827352285e+19
7.944564806e+19
8.27287697e+19
8.505382131e+19
8.951620044e+19
9.549753564e+19
6.891694753e+19
6.953655621e+19
6.818004287e+19
6.750740215e+19
7.038377474e+19
6.795015579e+19
6.873159272e+19
6.836402753e+19
6.742593681e+19
6.644910515e+19
6.673986044e+19
7.082721332e+19
6.775846535e+19
6.713701933e+19
6.98253178e+19
7.020625882e+19
6.95972824e+19
6.991606211e+19
7.010842301e+19
7.333526128e+19
7.286630333e+19
7.234149264e+19
7.750995703e+19
7.853596058e+19
7.982794227e+19
8.113761805e+19
8.570267066e+19
8.432662653e+19
8.718465166e+19
9.17625319e+19
7.035047343e+19
6.964051338e+19
6.886534901e+19
6.950303382e+19
6.884917086e+19
6.948246387e+19
6.893105382e+19
6.897649081e+19
6.594362958e+19
6.818803155e+19
6.853369436e+19
7.076620896e+19
6.893176092e+19
6.735770981e+19
7.148526592e+19
6.989371514e+19
7.289352703e+19
7.330141208e+19
7.134374541e+19
7.507891936e+19
7.369173186e+19
7.483922826e+19
7.688140526e+19
7.83578745e+19
8.197853675e+19
8.210170949e+19
8.308907383e+19
8.53139333e+19
9.037429961e+19
9.362291047e+19
7.249964125e+19
6.934897969e+19
6.902244589e+19
6.918189718e+19
7.115107667e+19
7.075861008e+19
7.025922217e+19
7.053011071e+19
7.280704807e+19
7.02752242e+19
6.943908474e+19
6.876774306e+19
6.963524663e+19
6.989936927e+19
7.149276569e+19
7.294353164e+19
7.217175861e+19
7.306564146e+19
7.479386133e+19
7.509716328e+19
7.597874256e+19
7.624718616e+19
7.821875227e+19
7.839295207e+19
8.242498957e+19
8.214016406e+19
8.464947106e+19
8.55628569e+19
9.078076802e+19
9.491634452e+19
7.250188516e+19
7.201346718e+19
6.942771079e+19
7.068664984e+19
7.156477313e+19
7.31455639e+19
7.285689678e+19
7.234858022e+19
7.040246847e+19
7.147614057e+19
7.116755784e+19
6.994388626e+19
7.042236406e+19
7.133013843e+19
7.07552893e+19
7.300402386e+19
7.398380396e+19
7.498511756e+19
7.418653817e+19
7.626742131e+19
7.649923558e+19
7.758090273e+19
7.691885097e+19
7.894609822e+19
8.075623677e+19
8.32086324e+19
8.436399949e+19
8.515450982e+19
9.112796062e+19
9.449184772e+19
7.166734348e+19
6.943259752e+19
7.095086691e+19
7.171657928e+19
7.141454782e+19
7.129654838e+19
7.332152196e+19
7.241242763e+19
7.102923257e+19
7.220149461e+19
7.123776135e+19
7.22107659e+19
7.063144143e+19
7.057879894e+19
7.045279819e+19
7.183198715e+19
7.322391457e+19
7.415479705e+19
7.524095501e+19
7.568620215e+19
7.490884283e+19
7.815098011e+19
7.823480044e+19
8.139343266e+19
8.204114904e+19
8.131340564e+19
8.485733925e+19
8.719624904e+19
9.102069729e+19
7.293261556e+19
7.395476801e+19
7.218942828e+19
7.309058315e+19
7.151161614e+19
7.097751116e+19
7.231718075e+19
7.236276744e+19
7.05597546e+19
7.106062405e+19
7.200516554e+19
7.369436606e+19
7.23729381e+19
7.078957074e+19
7.179025639e+19
7.265871353e+19
7.25580572e+19
7.531570813e+19
7.922086401e+19
7.88216573e+19
7.758227967e+19
7.770287145e+19
8.028361538e+19
8.049220987e+19
7.409244882e+19
7.28654697e+19
7.215527573e+19
7.209964828e+19
7.355236195e+19
7.216283777e+19
7.222097169e+19
7.341506852e+19
7.174417146e+19
7.288841822e+19
7.324220851e+19
7.45581715e+19
7.348228097e+19
7.305598757e+19
7.202024978e+19
7.603367634e+19
7.732071216e+19
7.788867598e+19
7.873242063e+19
7.32938019e+19
7.538305959e+19
7.435007947e+19
7.234967623e+19
7.357778461e+19
7.389774473e+19
7.516828643e+19
7.455486255e+19
7.222318087e+19
7.422383723e+19
7.511593143e+19
7.516332374e+19
7.337405182e+19
7.735821208e+19
7.62214256e+19
7.585764959e+19
7.421574972e+19
7.364798372e+19
7.343218268e+19
7.545334021e+19
7.372044155e+19
7.256613437e+19
7.489333913e+19
7.558419613e+19
)
;

boundaryField
{
    flow
    {
        type            calculated;
        value           nonuniform List<scalar> 
15
(
8.053473465e+19
8.38224481e+19
8.271419815e+19
8.560875318e+19
8.899333215e+19
8.670845597e+19
9.136082855e+19
8.941213019e+19
9.410438756e+19
9.093063214e+19
9.549753564e+19
9.17625319e+19
9.362291047e+19
9.491634452e+19
9.449184772e+19
)
;
    }
    obstacle
    {
        type            calculated;
        value           nonuniform List<scalar> 
30
(
23.59096819
23.78991703
24.58238341
26.16237515
23.05738089
25.31955866
25.38368547
24.78153459
24.76712447
26.02823001
22.71882293
23.85302892
25.59675245
25.5724631
26.07587629
24.01611802
25.98230852
25.75246026
27.12194744
25.53426121
26.12846261
25.15713107
25.86695086
27.22564821
27.29953613
28.43048005
28.72393008
30.20370181
30.4606358
30.42580143
)
;
    }
    frontAndBack
    {
        type            empty;
    }
    procBoundary1to0
    {
        type            processor;
        value           nonuniform List<scalar> 
21
(
6.25226641e+19
6.145144513e+19
6.246698744e+19
6.376091306e+19
6.471409755e+19
6.345357793e+19
6.333331629e+19
6.489003576e+19
6.801906415e+19
6.723290969e+19
6.589444274e+19
6.809255763e+19
6.86203721e+19
6.951119819e+19
7.030848848e+19
7.137970745e+19
7.303887197e+19
7.421476307e+19
7.240415855e+19
7.30767321e+19
7.553541349e+19
)
;
    }
    procBoundary1to3
    {
        type            processor;
        value           nonuniform List<scalar> 
36
(
9.294485603e+19
8.43523605e+19
8.423864617e+19
8.322488179e+19
8.820033723e+19
9.294485603e+19
9.138764794e+19
7.960356647e+19
7.660964305e+19
7.905249783e+19
7.925118417e+19
8.43523605e+19
8.067299352e+19
7.656010732e+19
7.715026061e+19
7.569165035e+19
7.897783161e+19
7.960356647e+19
7.745316417e+19
7.310732263e+19
7.44640205e+19
7.417906968e+19
7.582459896e+19
7.579197708e+19
7.656010732e+19
7.639114144e+19
7.717554642e+19
7.670565844e+19
7.820470774e+19
7.574210334e+19
7.444084495e+19
7.310732263e+19
7.669256917e+19
7.373799264e+19
7.717554642e+19
7.564295387e+19
)
;
    }
}


// ************************************************************************* //
