/*--------------------------------*- C++ -*----------------------------------*\
  =========                 |
  \\      /  F ield         | OpenFOAM: The Open Source CFD Toolbox
   \\    /   O peration     | Website:  https://openfoam.org
    \\  /    A nd           | Version:  7
     \\/     M anipulation  |
\*---------------------------------------------------------------------------*/
FoamFile
{
    version     2.0;
    format      ascii;
    class       volVectorField;
    location    "0.01";
    object      UMean;
}
// * * * * * * * * * * * * * * * * * * * * * * * * * * * * * * * * * * * * * //

dimensions      [0 1 -1 0 0 0 0];

internalField   nonuniform List<vector> 
546
(
(38.31366198 11.12582674 13.37450943)
(30.76420631 17.74909067 1.298383223)
(28.31718408 4.802606949 -7.383222459)
(22.87846919 7.858236091 -6.246720232)
(29.79002969 4.628714639 5.389197436)
(27.29576077 9.19639556 -4.738485811)
(26.13020243 9.90942928 -0.8778962541)
(25.8987469 5.1898072 8.350283302)
(26.50693661 7.912738673 -9.721207672)
(34.18937372 5.343820674 -2.213294548)
(44.49285537 10.7988912 3.38462282)
(31.05561421 14.1931125 12.89039972)
(27.73536432 -0.1033765186 10.40133983)
(43.10163298 11.00113486 2.367021872)
(40.07256735 12.74311367 4.761493056)
(47.61791643 9.586410801 -1.929578681)
(42.2762572 15.83256834 4.369466529)
(41.24676852 12.43741069 -15.32425071)
(28.82406861 8.359413266 -7.961987606)
(28.58049768 5.31203601 -4.759554015)
(41.19702714 11.42892575 -0.06374818863)
(33.45295798 10.14082741 -2.910155077)
(27.45747521 8.353085825 -0.5771002742)
(30.24374277 10.99925976 1.146829731)
(34.19499614 3.672262397 -6.968655677)
(32.50543018 10.67066456 -6.113070928)
(30.99505549 9.377053458 0.4340277365)
(34.16085371 9.921685468 0.763944249)
(35.04367549 6.732795268 11.76856524)
(36.23220807 10.3995633 5.52068439)
(37.18595062 19.09279829 -3.807848794)
(36.26612336 10.01974467 -13.00126105)
(35.70819257 16.71846128 -4.225486294)
(37.8789583 3.453202457 -15.33763791)
(40.85248102 12.67241922 1.325208438)
(41.96343967 12.66082146 0.2563939507)
(45.44844988 14.05697825 3.602687825)
(44.600903 9.138907193 -0.1319653948)
(49.18426024 14.51337474 -9.534368526)
(56.85707962 -0.4704385098 9.359989687)
(47.30709035 17.55336984 10.61355243)
(49.52652779 21.45970951 6.423034279)
(53.87932499 9.731785621 5.583305119)
(47.63354425 7.724651653 -19.15651554)
(59.14368388 11.69187828 -9.83807789)
(50.33351792 14.20330879 3.83890567)
(51.55683823 16.74524291 9.094767233)
(45.94287133 21.33370363 -5.492534715)
(58.19478942 14.2891794 4.148126039)
(62.44930983 11.61262962 -2.736454354)
(43.06463327 11.92548621 3.702541332)
(48.69014483 16.53383795 2.932191001)
(51.088226 15.14156694 3.73451959)
(49.04181439 9.65520841 3.4404411)
(42.52233779 12.87128368 1.29205977)
(36.60932162 14.85460706 4.450048729)
(40.65037238 2.104961847 -2.590180445)
(38.39128905 13.17318507 2.966859464)
(34.53942741 10.71338521 11.00838183)
(37.1883801 9.904175227 -6.652575847)
(41.3822335 20.13593019 -4.242230999)
(34.60534767 10.00237696 -2.163435795)
(42.41063532 16.17187634 -8.60851392)
(41.54713401 6.885905414 -5.203690643)
(40.4750773 14.7484962 -9.598110695)
(47.27761241 4.770051587 -1.93970399)
(52.05954805 15.08860978 3.126986435)
(56.17205372 8.603213525 -3.351554374)
(55.2856595 8.767891495 -11.40919692)
(52.38258722 12.57245332 0.1320176997)
(43.64620827 15.54157482 -5.397939161)
(53.25501537 18.04201279 -8.413516673)
(54.45603116 9.515793998 -11.42326979)
(50.94084413 7.231266284 -7.495901743)
(49.70670646 13.5772486 -8.127104329)
(53.0282541 16.02534589 7.163750106)
(47.72651999 16.00808054 -2.094482881)
(44.7898639 19.26592403 0.627007234)
(49.95461617 9.309685499 20.56093795)
(54.08997327 17.56895553 3.608471529)
(58.3633282 12.30720947 1.368835745)
(59.48503011 17.18399044 4.350570438)
(52.87202648 18.0171478 14.06648533)
(46.86983298 15.0954572 -6.039449921)
(47.8923917 11.77233891 3.789463073)
(41.88786291 16.83668813 -1.367848275)
(42.08530054 3.763674562 -10.07807649)
(40.40829687 14.7962275 1.934086881)
(30.06622529 9.915044569 3.251670905)
(35.86493221 11.20078026 -13.99787731)
(45.99370001 14.99565685 -15.60165927)
(56.38631931 20.37294706 2.349254628)
(51.24169385 14.80933022 1.031989478)
(52.73381261 13.56994551 -6.104718983)
(50.39281245 7.462579002 -6.002662638)
(57.02428215 13.10759358 -9.256558755)
(51.34388322 11.84190032 -6.828434103)
(45.72079088 12.83546376 4.478640461)
(51.62490749 2.81710494 -8.329103075)
(50.24930682 17.18240699 -7.046520889)
(48.12873816 16.28550523 0.6283598622)
(56.93978745 12.00033094 -0.7673284388)
(56.31229091 16.44843479 -2.730837591)
(56.77513878 8.379403159 -14.61035237)
(64.12371295 12.13059872 0.2071601798)
(65.76133787 20.99882645 9.10443964)
(60.63302081 23.86243277 0.3259355088)
(70.01749451 22.79510242 18.72219372)
(60.80259466 3.568812455 23.37740202)
(55.81336954 20.7679002 22.62384936)
(54.6851776 13.76716235 4.062196111)
(52.77873173 16.36639828 -1.940065196)
(54.30991013 19.74936658 3.998476155)
(53.18683561 15.55209717 2.742652002)
(50.93210768 15.52413037 7.454676529)
(53.27306593 18.29919064 -10.92472387)
(56.16555114 7.502607398 -10.76045068)
(50.0509776 21.57189361 -12.35556072)
(37.56676555 17.91525274 -2.158409489)
(47.00058936 9.760744249 -1.976812104)
(50.79127515 8.61643342 6.972525293)
(51.33540032 24.45661471 0.7589141289)
(46.31732457 11.04576398 -10.9789495)
(47.40046306 14.7363312 -11.22079155)
(44.59146916 6.65161124 -4.826526401)
(49.90857184 13.98480253 -6.78109673)
(53.87181795 9.715430956 -3.749202554)
(55.97442984 13.23440571 13.7594996)
(55.32011584 6.457996894 2.744918839)
(48.80725542 16.1267891 -6.572388131)
(63.1815863 14.81846874 14.75252159)
(57.10671662 12.737118 2.595630831)
(57.7534671 16.20721842 -0.08398857743)
(63.60249856 4.942835099 -5.246238422)
(55.18275063 14.86254008 2.741224162)
(58.42057513 14.32784366 14.08997587)
(63.75005143 21.44167722 4.751020833)
(60.27838594 23.86033192 18.14507971)
(55.32390794 7.727292587 12.88530378)
(62.71218868 19.27227866 -2.455016795)
(62.0320359 18.64020368 -2.238685273)
(56.21132639 22.76204798 -5.643932518)
(54.69752614 14.88087525 -5.150836907)
(58.79790102 18.00009693 1.903659607)
(56.8792998 15.44968133 -3.841287943)
(58.8907846 15.47527067 -2.701641601)
(55.58084551 17.59186676 -9.857973327)
(41.36315004 18.76390361 -1.163477448)
(48.74298949 22.52935619 -5.117891047)
(50.35403926 11.42435369 -6.626563186)
(40.56356948 9.062212961 3.295624517)
(43.85184578 22.12694576 -16.84071889)
(56.55022097 8.145070428 -12.72918557)
(58.60315835 20.1669564 -2.572712249)
(57.14244394 12.74885809 -7.126404594)
(51.00901767 5.074022703 8.40794628)
(54.50272097 10.22145891 4.10809802)
(63.25083677 12.4770628 19.96536021)
(53.55112062 11.74186506 2.258497107)
(61.91231814 15.90469967 -3.911088484)
(59.58160157 9.594521656 13.68520675)
(60.06336228 18.11419453 -0.4064150189)
(59.88444813 16.71912687 -14.82405733)
(60.35251942 3.176236347 -1.037948331)
(66.0896919 20.01565847 5.479097522)
(59.21863005 17.4835484 8.006375232)
(61.83093827 20.94478172 11.85354616)
(65.79056822 27.64746228 11.61752239)
(63.48465685 9.164203378 16.34926119)
(58.67335681 16.46102516 10.78701738)
(53.5449966 14.51464098 1.007601482)
(61.65353901 21.07313816 -1.076402063)
(66.39459336 16.75824577 -8.674548822)
(68.26362885 20.09377967 -0.8246115363)
(59.96621335 21.30209757 -10.15314533)
(57.92544819 12.02506466 -0.6106508009)
(51.12548479 20.46410995 -5.024985099)
(51.48557243 19.71703826 -0.008675812359)
(54.20511292 22.30599724 -5.849093432)
(53.97070958 13.39139817 -2.596206136)
(49.88086037 16.24210054 -0.1852304006)
(51.80219449 13.47564397 -3.083736304)
(49.45782325 7.146732149 -19.67192743)
(50.19994614 18.16782759 -14.13730062)
(56.343376 10.55978897 -13.81132685)
(55.76968135 7.654759511 1.230086652)
(56.38194962 6.071208223 13.53111991)
(50.98548948 14.72798196 24.45321246)
(53.23212142 13.5726078 -1.198349946)
(49.51995563 10.03283001 -11.61880563)
(57.85254832 4.980568131 -9.878682951)
(57.51289439 18.36853947 -4.585189171)
(54.60995764 16.18587356 -7.058919029)
(61.52445878 3.592987828 11.53833261)
(57.59458911 14.25802724 5.393067349)
(62.68289248 17.65894101 1.529188627)
(65.34880281 17.13334712 3.173165257)
(69.79106994 23.88336363 8.144892912)
(71.69794019 18.79057003 11.84191129)
(65.31310088 21.30182823 4.134117697)
(71.96273573 10.74373932 2.19321401)
(65.17490208 24.31873709 5.697856417)
(63.68028289 17.44801266 9.291212504)
(57.4312902 13.02304914 4.744703346)
(61.31105767 21.68310269 0.5250338674)
(50.7845549 18.7993073 -1.51719528)
(51.12051873 17.38589689 -18.62682678)
(63.09104735 18.75724337 3.519804492)
(57.03897309 25.20480604 -9.377714196)
(50.79947318 16.82076285 4.252862968)
(37.6658825 16.11333042 -0.03061058944)
(42.73525179 0.8036794004 -8.966907652)
(52.61769235 9.916460854 -11.64431703)
(50.15460984 10.6365407 -6.113296216)
(60.015024 11.87300542 -1.725694513)
(58.86167013 10.29156914 3.719451404)
(57.26769819 9.932675688 0.74308458)
(58.70478154 13.8878916 -1.089099783)
(45.50795313 20.06792896 -4.771531151)
(54.96460311 5.229697403 -6.166495977)
(55.01758244 11.5786854 -5.561745849)
(53.11922999 12.76931598 -6.305323839)
(68.42316006 5.284479131 4.147956264)
(64.04357659 12.9945571 4.48775499)
(59.01780888 10.98838158 5.73521294)
(70.37642526 18.73350515 9.89978553)
(60.94356253 19.0400831 2.540008696)
(65.09902084 17.51255932 3.968105685)
(64.36178024 21.9172027 0.5002761179)
(64.94687378 15.83103786 1.700433802)
(61.32416429 22.11897799 2.750090292)
(62.12158095 17.98086006 2.685776538)
(61.32219667 12.92041989 7.378438412)
(60.56445788 20.31856503 0.7709119568)
(52.63175575 19.45487844 2.741780163)
(66.36287463 20.37427053 -14.86193234)
(66.54498541 17.56194719 -5.642307842)
(58.07594384 14.93156089 -0.07566773702)
(52.62462784 26.80512069 -8.269069123)
(66.98745874 22.02995138 -6.676962721)
(54.32367734 15.41791386 2.418370341)
(51.57189873 5.03947886 -5.61970193)
(47.30577665 9.799432764 -3.025945648)
(53.891966 5.518172893 2.42663528)
(56.92248345 7.221551939 6.55579899)
(60.05700517 13.79946503 6.00379432)
(49.91629351 12.0069588 -1.039478661)
(56.11384063 13.44574979 -1.062237724)
(58.32626991 22.4445593 -4.570675203)
(59.15014485 2.193690321 -6.259405588)
(62.09302824 14.85678135 -3.571309823)
(69.11574953 8.007412896 -0.2764008895)
(70.99868172 12.70107322 10.29399351)
(62.81151084 13.30784935 -9.824289887)
(57.091939 12.50118538 7.81065019)
(52.05605064 11.80554367 11.36181914)
(70.43263224 18.18361075 -3.006619359)
(71.04950915 19.42172552 -1.492805091)
(65.88736624 22.58479798 -0.0661728201)
(68.4523809 14.0855733 6.346881448)
(63.33388747 23.54532286 12.42326444)
(69.96559317 15.58387771 8.679877896)
(68.49982444 17.40415192 7.41383503)
(64.3989829 24.28782727 4.364593467)
(68.54896765 21.03987594 -1.070130839)
(66.05805091 13.77359164 2.090892703)
(57.28024407 19.35446927 7.880664888)
(52.89724294 17.98439841 -2.468958459)
(61.96469122 19.8359164 1.971768962)
(66.25787251 20.68196939 3.748449632)
(51.11084987 9.763685544 3.551566422)
(54.04557024 7.958530453 -8.057637958)
(55.68909494 9.297782368 -0.02289079513)
(53.62885939 6.891633571 17.84172924)
(47.20842689 0.8512392783 7.238915955)
(48.19371783 17.99895092 1.064490094)
(50.36160725 10.43849664 2.656990686)
(50.73541233 10.75039381 -0.488448694)
(54.2961362 16.52870507 -5.288773771)
(61.73829164 1.27395712 -8.486658428)
(59.48388263 13.68490391 -7.890236115)
(60.55716318 6.327021049 0.4617839271)
(54.09991329 8.732683235 3.301640158)
(57.30500738 13.83896685 -2.217195353)
(61.78574768 15.77519632 6.89528276)
(67.61645672 11.9693607 5.051687367)
(55.77555454 8.546142872 5.550485325)
(60.4039157 20.55021034 2.209899408)
(67.16274964 22.78609611 -6.309442685)
(66.93062074 15.8408343 -0.1895726119)
(66.30126315 21.37865755 -4.20999193)
(63.6318512 9.597179925 1.490922228)
(62.64120806 19.50120846 1.504021022)
(64.12379396 19.56379477 -2.679531119)
(68.05590898 19.01800115 -0.9503969584)
(66.5255455 18.7620524 -1.468816014)
(58.56831763 19.72971092 -0.3386644694)
(61.68432528 20.69854647 12.47924337)
(52.0214748 16.99416151 0.457727688)
(56.47390554 15.93456439 -0.0009166802199)
(37.69847069 1.526802205 3.014463428)
(41.36007386 7.260152615 3.537519117)
(41.54089997 8.488341626 6.22278069)
(38.34926556 5.586913123 15.76952137)
(52.59221362 4.393159097 7.620246725)
(53.3562174 13.74979047 4.149800238)
(58.36213332 12.06426319 10.30510793)
(53.47778041 10.89625421 4.326330521)
(62.74202693 9.150991239 -8.825273921)
(54.42207088 4.597520797 -19.80621519)
(57.82879697 9.253325136 -6.447377607)
(52.31093344 9.719026407 -8.418137452)
(60.63727578 10.00128177 -7.809974781)
(73.96491936 8.676618236 -14.10591125)
(76.9889482 15.76437515 -3.735146011)
(64.49424446 18.92583508 7.629611387)
(66.49366495 12.05636972 -2.062695594)
(64.45823128 17.40282386 2.549286049)
(63.73014195 17.75432669 1.439236781)
(59.35259798 21.73554807 0.9808170703)
(62.74493569 17.71430806 3.487791569)
(52.67238178 13.04326464 -0.5108525786)
(52.33557206 17.69322214 -3.553499875)
(61.01248316 11.70025902 3.209602828)
(62.58431813 15.48012989 -3.246586687)
(54.60138461 21.34891545 5.220225887)
(62.5062224 19.42380818 -6.825173069)
(60.94660233 19.11668352 3.114414784)
(59.60147856 18.21018669 14.98466917)
(65.61258463 17.56494829 -0.1783224872)
(43.33078749 5.752433567 2.583461022)
(43.3240435 4.107483765 4.696059739)
(51.17545579 6.786053862 6.300589306)
(52.72479958 -1.154078504 2.337593792)
(45.22232284 5.933537527 -0.3849898389)
(43.68398121 13.42460243 4.006126423)
(43.23027027 5.825181079 7.949876911)
(55.69229519 6.891128403 -1.595598375)
(59.5041844 9.530897002 -1.325024702)
(57.44558924 7.589777413 0.2366036763)
(60.63146574 7.810324968 -2.001152556)
(58.59101483 13.47402191 -13.39078353)
(63.93572993 8.31905617 -12.95035242)
(59.42675492 3.81692511 -15.44886635)
(53.82818096 15.61167534 -8.915264308)
(63.73453373 13.47641702 0.8892829903)
(63.92276837 14.3296798 2.550097091)
(63.08117916 16.76876962 1.297942957)
(54.46378277 25.7327695 -2.185853308)
(46.92893814 15.98334947 8.557771693)
(47.59721878 16.98075253 3.562880913)
(49.67210247 11.13584049 -8.151341049)
(52.8179445 8.149066406 6.935470679)
(58.39593037 14.91022111 14.34973936)
(51.90934781 10.30302907 4.146609707)
(58.05627026 16.55462752 14.49078351)
(61.92006684 17.07885502 8.604538165)
(59.95260125 19.70716131 9.697016054)
(62.77435035 19.56087227 15.68001841)
(67.96353963 13.86003466 5.931045468)
(32.95921502 -6.304605361 -0.7640497583)
(36.01693347 4.377833238 4.645070246)
(37.732305 2.545707412 -3.297173478)
(39.7366472 2.280660302 1.868560694)
(40.40552022 7.199690169 -7.952446357)
(44.73944157 7.101855866 2.071792901)
(47.36305969 7.163942408 2.848323776)
(45.51565377 -0.5327836641 -7.846741749)
(49.01420289 3.096210943 -4.513480375)
(57.11771415 11.90578087 5.496024743)
(55.90680143 5.468172792 9.125560845)
(51.49622582 10.50960999 4.379306732)
(52.39447949 4.883733031 -5.257568972)
(63.16789167 5.44788951 6.142777567)
(64.13712551 13.64281822 -5.027434339)
(61.48099492 12.79254609 4.718896428)
(57.35834284 19.50726994 0.6710173119)
(53.69699933 16.4797877 -2.466625489)
(55.82991688 30.3192027 2.216815911)
(59.71626871 17.7029418 -2.665471607)
(54.91786676 16.3261036 2.337784381)
(62.83991854 13.61133247 -2.78871793)
(52.92234857 2.824059087 9.172795584)
(57.42822156 12.64973902 7.858341405)
(56.18140818 16.63985795 10.03567269)
(58.45072699 8.55863792 6.912369108)
(60.64575907 15.2344612 2.165647127)
(65.70943744 18.24397015 11.75136685)
(65.97326407 19.95172938 2.035221431)
(62.71986455 16.44300634 0.5387186926)
(46.23410924 -3.224350855 -4.218138487)
(43.65663692 4.206424471 14.09017489)
(37.63423149 5.507410854 -0.3056258106)
(37.2297326 0.4455884814 11.24680394)
(36.94748091 5.894329166 9.473477167)
(38.69840285 1.33505541 6.151290659)
(45.3065723 4.426751173 -0.5310436059)
(45.00009376 3.628338224 -3.688394069)
(42.77362186 0.02496364369 -6.130052267)
(50.80563589 1.660952171 -7.634153033)
(51.95467365 5.615357036 -7.844286947)
(54.03431044 12.35828299 -5.548041714)
(59.26593367 3.038883903 0.1496374056)
(54.00653773 5.319081344 8.73305475)
(46.07101277 9.036883109 -8.141875185)
(50.29152445 8.337282465 -9.003179602)
(52.46337563 19.70329826 3.895079761)
(53.63475192 21.78809673 -3.879529842)
(49.32638355 21.76361352 -0.4865983937)
(57.34463989 16.85090148 -7.793917263)
(58.6142275 15.90653895 -4.830839441)
(49.10201495 14.15725728 1.72988101)
(51.43466084 4.445144022 1.74369885)
(54.39657751 7.57514045 2.078477173)
(52.03791373 15.66973944 4.051370569)
(57.4628064 10.01181998 2.202430332)
(50.83696426 8.371765107 6.009438851)
(55.37598283 15.42918371 7.304830092)
(53.432368 17.58468937 10.3353463)
(64.30682233 11.46309837 3.569213723)
(46.12382272 -3.443429553 5.935294263)
(44.24846264 14.06511976 10.59092866)
(44.49218172 2.857398396 2.543033479)
(48.40740522 0.8037366233 8.303877858)
(44.89616689 11.75535868 3.137358964)
(44.16538076 2.334800298 11.14859856)
(42.22110107 5.436904001 0.7677904968)
(40.97517164 -0.9363774118 6.273290555)
(41.24506242 -1.473059841 4.140023556)
(40.92846125 -3.148893162 2.351349294)
(44.08739111 7.135367292 -6.07299707)
(48.79025044 9.996482856 1.865346236)
(56.90409974 -6.183191717 -2.005249687)
(53.21543446 13.03192452 -3.813189884)
(53.88502759 13.67398801 -6.084529879)
(55.65804132 8.950783729 -2.135809455)
(51.77176448 13.07481283 8.802513121)
(54.47168406 20.84497327 -0.1315665785)
(66.2172664 21.41326147 -7.627815017)
(60.04890723 16.22924609 14.24613849)
(55.47203004 21.82035059 9.912544087)
(59.57176019 14.29114521 -0.04672226011)
(57.05291023 3.777748666 -2.670829578)
(53.0473075 7.069191427 -7.275971022)
(53.20915572 17.2122991 -6.020720234)
(48.02788492 10.521029 -3.268917662)
(57.60033587 3.417133271 8.770464084)
(49.53521758 12.85031157 -8.684846863)
(51.22364691 13.6049403 3.20752699)
(52.70426402 9.366281511 -3.208368279)
(26.62891952 -3.386956192 2.489833385)
(35.24576662 7.906003277 2.208648994)
(41.75672111 1.081873031 12.65114807)
(42.20446371 4.023347672 6.363999898)
(44.43175041 8.597461677 3.373222634)
(40.96264369 -1.167688262 17.64811199)
(44.69396146 8.310926871 13.7587427)
(48.27105606 1.892348281 17.56472764)
(48.4709667 0.8196872967 4.701271723)
(45.41982292 -0.7543344997 8.489148397)
(42.46795106 4.867387238 -9.62150317)
(51.06113422 0.09135878138 0.04947858428)
(51.5562424 -2.022471197 -8.462090915)
(48.67295198 11.02478347 6.976678763)
(55.43868958 7.891453133 -4.846397797)
(48.76285099 11.8674106 3.234230966)
(51.50309235 13.37168093 14.99889393)
(50.34549768 13.77925532 6.035271562)
(49.92573168 18.90510253 1.639192693)
(44.93912159 19.53160421 7.468315821)
(51.89652389 15.95269708 7.427128174)
(60.32607713 9.132544843 2.016987061)
(58.10763565 9.789965108 -1.577535149)
(47.57587703 11.91649938 -3.377180058)
(49.12684728 9.133357737 7.84534248)
(59.59015126 6.52523302 2.748116767)
(51.92953582 9.384390236 2.678592901)
(52.64243888 13.42103773 3.743558093)
(53.67728312 10.81433521 -0.1900385968)
(37.79556645 1.587033081 -1.547374836)
(34.99961621 -0.1044620836 0.2866198146)
(34.35875733 0.8423918897 8.925601937)
(38.34989313 -1.553802992 9.367455927)
(41.39913084 6.378107083 6.905374273)
(47.57022922 2.202113573 19.45584237)
(47.5422248 -1.213806162 16.53229139)
(45.61444942 5.689842652 10.69982807)
(47.07914952 1.936521153 9.179267515)
(49.5340689 -0.3799635167 -3.484810183)
(50.93625012 2.909639021 -4.831993874)
(51.0164912 -1.720585091 -12.55791341)
(48.77348246 6.063839661 -4.337347763)
(43.25868353 10.47971762 6.921954652)
(40.92975711 4.655195176 1.131396776)
(47.14497262 13.58499728 6.048253734)
(46.11382431 9.282578899 6.679925273)
(47.51814527 16.014332 -7.967723065)
(48.36088938 12.57440753 -4.535885392)
(52.50564103 18.82463452 5.626869736)
(58.06106749 9.031723614 6.970719589)
(54.27831689 4.458076032 6.763635349)
(54.00745511 16.99051172 8.700807504)
(46.21907284 13.9408358 4.510309087)
(38.2892826 -0.6364571094 4.532728596)
(45.193927 3.217470309 2.865064397)
(39.19314303 1.202203374 0.9573069043)
(43.32082663 -6.641429127 9.959514884)
(43.46913148 7.518832544 0.9742650055)
(39.21372433 -0.06353802746 3.993013291)
(36.11647429 -1.557059293 -1.033245085)
(40.07786449 4.453710394 2.266729714)
(45.45013066 -2.55499539 14.57999118)
(51.55958039 -2.15665458 4.761203251)
(43.06625196 5.857221281 -8.768897002)
(35.25481304 -4.096656334 -3.439778019)
(38.05569372 4.794322688 8.203177225)
(47.8296351 6.507685249 6.623126669)
(56.51163138 5.849977343 7.119088663)
(50.66276463 12.0545578 4.380490663)
(49.10171425 10.53331134 -3.907901658)
(46.86001577 15.87116172 -5.663307103)
(43.95872136 11.51037154 -12.20671163)
(41.28304647 1.536243196 -3.553153625)
(36.26755454 1.122214105 1.601049886)
(40.3323354 5.713365036 11.22977656)
(41.20363947 -8.695408479 3.700512159)
(35.47660746 6.348490714 1.598469782)
(37.10730316 3.952183484 1.988568465)
(37.16873004 -2.177473368 -1.195014319)
(43.94895358 -2.106738413 -0.625698011)
(50.28690194 -2.415415903 8.83693987)
(47.8586595 -2.364018188 -2.420596089)
(45.80334117 11.52382149 -3.717996795)
(47.96740509 0.9414356281 -2.535975703)
(46.42023735 -1.203900953 1.261254067)
(47.27085622 4.115739125 9.799943534)
(31.7028391 0.6318654785 2.56958332)
(32.80076288 0.7735475201 4.382539504)
(40.18681128 -2.829986815 10.64541288)
(37.12190428 0.8546291909 2.477004411)
(34.99366024 7.331869354 -3.742867646)
(36.60927588 -2.665344119 -2.516807533)
(42.60804154 0.6894289323 -17.40289595)
(43.27692607 -6.257240789 -17.25904848)
(31.06158762 1.110421793 -8.512800939)
(34.82846915 0.1435119952 -3.713650556)
)
;

boundaryField
{
    flow
    {
        type            calculated;
        value           nonuniform List<vector> 
15
(
(36.23220807 10.3995633 5.52068439)
(37.1883801 9.904175227 -6.652575847)
(35.86493221 11.20078026 -13.99787731)
(47.00058936 9.760744249 -1.976812104)
(50.35403926 11.42435369 -6.626563186)
(53.97070958 13.39139817 -2.596206136)
(50.79947318 16.82076285 4.252862968)
(66.98745874 22.02995138 -6.676962721)
(66.25787251 20.68196939 3.748449632)
(56.47390554 15.93456439 -0.0009166802199)
(65.61258463 17.56494829 -0.1783224872)
(67.96353963 13.86003466 5.931045468)
(62.71986455 16.44300634 0.5387186926)
(64.30682233 11.46309837 3.569213723)
(52.70426402 9.366281511 -3.208368279)
)
;
    }
    obstacle
    {
        type            calculated;
        value           nonuniform List<vector> 
30
(
(12.19606906 3.267926862 7.828107234)
(16.37514508 4.387706909 13.54467225)
(14.08550441 3.774199519 -10.61463375)
(45.85222054 12.28606549 -5.227543107)
(10.68421834 2.862827666 4.145642081)
(9.29169732 2.489702798 -7.88603792)
(41.16980434 11.03141584 -22.28968967)
(14.75236518 3.952884325 -4.436178163)
(44.8180094 12.00894945 -4.201994208)
(28.20874681 7.55851094 2.923538078)
(17.06721392 4.573146172 -5.967873672)
(3.060406972 0.820033578 3.121774283)
(10.61557355 2.844434364 2.560578842)
(34.52686443 9.251445411 9.123254183)
(2.834841739 0.7595935561 0.5100616848)
(23.54087824 6.307759295 4.940208382)
(31.79825227 8.520316031 11.87108156)
(26.16594988 7.011145152 -5.822548561)
(17.70305898 4.743520342 -26.40859626)
(38.50886069 10.31841814 -13.69293853)
(0.7910649879 0.2119652251 25.76346577)
(10.90676033 2.922457613 1.682799424)
(30.87277315 8.272334648 -5.465588933)
(37.22216165 9.973648172 4.903592029)
(20.43222984 5.474799469 -6.385992343)
(67.71768534 18.14489913 28.88150214)
(16.23962954 4.351395606 11.15403619)
(9.061358041 2.427983574 0.549619718)
(5.182079887 1.388534123 36.07334815)
(26.61212794 7.130698169 0.8456295163)
)
;
    }
    frontAndBack
    {
        type            empty;
    }
    procBoundary1to0
    {
        type            processor;
        value           nonuniform List<vector> 
21
(
(38.92988097 8.7379043 3.29804706)
(39.98204491 12.09673002 3.333913426)
(41.85862295 14.62702942 -5.946153761)
(43.16429688 12.87918637 -13.42670992)
(46.87351418 15.97158837 2.029241317)
(49.16201022 17.35069745 1.325916226)
(44.27744768 14.28625395 -0.7644454754)
(45.47493687 16.24619192 6.993696222)
(46.45873049 19.12273719 -8.153192993)
(42.66069602 12.17706885 -10.07866483)
(47.12338543 13.15488869 -4.182703636)
(33.70594181 9.209426668 -2.140595929)
(37.18576035 5.757309792 13.58684276)
(37.82508487 4.320797145 12.14728277)
(46.79571752 -0.4651391602 12.26027816)
(33.34410173 -5.664673409 3.986922847)
(35.42352735 -3.170386459 -12.97466415)
(37.75678594 -3.114102583 4.179930319)
(40.81162965 -0.5342261132 -4.651977743)
(40.60104803 -1.170690903 -15.1965424)
(27.20281595 -0.5676944869 -8.913708828)
)
;
    }
    procBoundary1to3
    {
        type            processor;
        value           nonuniform List<vector> 
36
(
(60.42838012 10.37025235 -1.933362662)
(50.40279154 4.281200713 -1.226032987)
(55.71295225 8.015865714 -4.537804439)
(51.91707712 8.069476246 -9.149162408)
(50.2317963 12.82074424 1.151488449)
(60.42838012 10.37025235 -1.933362662)
(50.21708758 7.240909958 3.678967134)
(45.53512267 16.83881394 1.966476307)
(52.343679 8.725080665 7.585228195)
(47.44227099 6.459761814 -1.173047786)
(48.91135786 14.29971079 -2.595765237)
(50.40279154 4.281200713 -1.226032987)
(54.94342292 9.39200597 0.5769579395)
(52.83746372 -0.374460949 -2.997744642)
(54.7754941 16.7234106 1.774564599)
(52.16394654 16.21549611 -10.34056433)
(51.70198734 14.91979754 5.250456568)
(45.53512267 16.83881394 1.966476307)
(49.25992777 14.95450058 3.771388127)
(34.56109823 -7.431457139 -2.327549955)
(39.85237261 -6.02961606 -3.871847644)
(48.75209722 13.31961778 -7.353117256)
(45.8955271 1.341884852 5.207374551)
(39.56529869 1.484112784 8.822222859)
(52.83746372 -0.374460949 -2.997744642)
(48.49175823 -2.875171693 0.7499989688)
(39.64474014 -3.692269204 1.128492099)
(36.60129906 2.893887089 7.780615666)
(39.72124842 2.806343131 12.63944027)
(43.96616935 -0.8417167774 13.07105289)
(44.77375923 -4.347534724 -0.0964522705)
(34.56109823 -7.431457139 -2.327549955)
(39.24122587 5.480315749 -7.760643514)
(41.98952854 -4.418411174 -3.603048508)
(39.64474014 -3.692269204 1.128492099)
(44.12924238 -2.885499351 3.817196865)
)
;
    }
}


// ************************************************************************* //
