/*--------------------------------*- C++ -*----------------------------------*\
  =========                 |
  \\      /  F ield         | OpenFOAM: The Open Source CFD Toolbox
   \\    /   O peration     | Website:  https://openfoam.org
    \\  /    A nd           | Version:  7
     \\/     M anipulation  |
\*---------------------------------------------------------------------------*/
FoamFile
{
    version     2.0;
    format      ascii;
    class       vectorField;
    location    "0.005/lagrangian/dsmc";
    object      U;
}
// * * * * * * * * * * * * * * * * * * * * * * * * * * * * * * * * * * * * * //


5141
(
(1347.792141 57.27850857 371.5278907)
(1589.914836 -556.6347366 -284.6023546)
(1679.986059 -298.0157086 265.7403213)
(727.260263 -555.8830066 247.7118075)
(1197.758045 -36.76672424 123.9489764)
(1310.795689 -21.50779833 -249.677596)
(1258.607742 71.37181655 -418.1194162)
(1391.476834 -571.3496077 437.3374432)
(2502.139261 260.3594671 254.5400781)
(1323.935893 181.6074458 -173.114301)
(1556.483806 438.2402324 -491.1967115)
(1385.194958 445.1284368 71.83889655)
(1542.524353 393.5102767 311.544825)
(1358.794856 -273.0981333 233.2410733)
(1189.963577 -352.6756964 -274.4992981)
(1550.418275 -298.9585618 158.1168198)
(1480.776566 140.6446404 -668.7938862)
(1289.684266 -69.83167307 -6.066704952)
(808.9914499 -191.4497422 -538.4603233)
(1616.463052 101.7363333 -276.2508468)
(1219.755049 208.7153699 -12.36319594)
(565.8378362 289.7578713 465.9699265)
(1137.243932 -3.580662487 -66.28836441)
(1350.774348 405.6350581 898.2098707)
(1697.284066 281.3251738 -59.21319761)
(1145.709824 89.76999454 179.5689309)
(1054.047138 95.2790246 -49.41903785)
(1792.77929 -150.3263617 148.1815423)
(1386.654881 398.0792537 14.59409199)
(1514.283363 -766.3005847 -428.5671134)
(1492.575674 59.89781273 -267.4747427)
(1791.706599 166.0229665 -68.03071095)
(1448.603041 -169.0494954 -71.18126549)
(1726.133136 304.7414983 417.0005423)
(1581.046588 384.6346105 -645.8035068)
(1434.367887 218.387815 -212.1953121)
(1582.615655 -24.33194537 -360.3113501)
(1223.805457 -204.336842 96.92750611)
(1204.574144 -127.4567339 -313.5017641)
(1550.766492 -38.92457895 90.24961861)
(1757.313408 270.3474762 109.6196341)
(1361.531533 283.6397535 113.6854996)
(1329.540679 48.15123089 150.7037737)
(1588.746142 49.13889062 -134.410308)
(1520.281881 -672.9125678 270.0449429)
(1731.138316 -135.278959 -482.2167783)
(1248.962836 581.6396418 -63.46378163)
(1021.662085 -199.7306313 -235.9872275)
(1668.529756 -200.6449584 -86.31412039)
(1977.801948 533.5268521 -68.58674846)
(1582.75053 10.880146 81.52181557)
(1638.248103 -297.5768147 -845.7228391)
(1657.266764 211.4838683 -79.94394954)
(1335.813576 90.02733683 -34.50896295)
(1512.776498 162.551875 -538.8307507)
(1503.02844 73.89524772 -145.0813643)
(1612.805879 216.1002735 153.9498582)
(1731.658508 158.3618099 -55.66507956)
(2000.97372 -221.2822118 389.2110739)
(1999.395409 -144.786406 89.10114719)
(1437.302234 -553.9853485 539.8541641)
(1401.464062 70.57839756 -44.48963426)
(1457.470125 -52.60675312 53.91339669)
(1366.739602 218.6598357 -234.4790581)
(1636.133803 19.98552291 401.9583472)
(1875.795803 -270.6403609 141.9508007)
(1337.058047 403.8264884 -378.3683747)
(1898.378563 -21.43958612 -223.3440765)
(1717.397599 81.40579441 191.145978)
(1296.359327 155.6157694 -135.7476568)
(1422.946248 -489.1739507 -159.5058374)
(1911.957908 -28.36262027 -197.5442374)
(2039.921699 -36.55803821 -343.3412328)
(1042.192587 -588.7766686 -26.87563289)
(1595.08414 573.0501377 218.2144997)
(1199.743808 178.4736754 52.01341731)
(1662.49542 -45.95380724 -120.6642833)
(1783.440871 785.1692311 283.1910586)
(1814.856122 -474.8673203 -235.362771)
(1498.630503 -21.95761824 -93.59594295)
(1432.976333 44.94156013 -321.0027251)
(1521.290513 71.46368449 136.2873828)
(1776.880586 -322.8869415 54.80499774)
(1563.554196 134.1541048 158.097216)
(1542.46078 93.92299971 -305.5458693)
(2341.64722 168.9370167 324.6950963)
(1340.232263 -63.16875577 50.61597608)
(1788.84678 44.12109336 123.8490645)
(1492.914577 -300.4507856 5.935647862)
(1309.811948 -173.5152283 343.5373448)
(1542.19507 482.4041324 24.9789881)
(1546.526815 -231.3284071 -193.9356659)
(1832.317096 281.7105016 -248.9804261)
(1245.138728 544.6069398 -80.4918139)
(1800.635591 488.7276269 666.5602884)
(1485.451426 -268.1064643 -123.3374574)
(1465.101772 267.1031368 343.1753904)
(1386.461826 58.95367883 265.71241)
(1541.714412 632.0058062 46.29313373)
(2222.581433 -17.27494584 206.6329029)
(1298.294925 -613.4039496 -97.90063318)
(1581.077104 169.9371342 -290.1404254)
(1705.484446 27.85106337 -82.03017401)
(1392.359351 -394.4301951 159.2528823)
(1283.783381 -90.66609866 -33.27159433)
(1643.362723 -115.7662611 -27.1674424)
(1973.027993 -140.1946345 244.2373614)
(1320.775103 385.5594552 31.33270912)
(1367.734115 239.6039942 489.0760595)
(1819.123223 -247.8478076 -219.103352)
(1480.217182 269.5651852 -317.1706621)
(1396.665001 312.1276809 423.2073025)
(1774.787309 -77.81513237 -35.98144298)
(1787.220691 36.00906536 -203.8188527)
(1702.160579 -592.9754749 17.50701176)
(1333.634686 -173.6187354 -53.77968414)
(1742.658907 -133.3577178 328.0221506)
(1743.833776 -416.5172304 -91.94494474)
(1596.29247 145.1922822 496.2162616)
(1118.482352 85.27795093 52.17223993)
(1805.303711 354.5294538 175.7824551)
(1550.920934 -457.3223644 472.0561609)
(1459.81628 -125.0650565 129.0522404)
(1273.260303 -390.5729875 250.6485635)
(991.0155561 -243.4251785 387.002359)
(1732.78696 -165.1431573 -501.405677)
(1530.107177 239.9719723 385.1147978)
(1861.461862 -498.5144138 478.1021023)
(1409.49575 128.0348471 252.0237151)
(1509.867853 -0.971378642 51.74540413)
(1445.945876 477.226876 222.3773498)
(1055.058745 -352.3313309 334.5730448)
(1322.481192 -328.1419957 627.6510424)
(1386.342591 -85.87134766 -195.5279565)
(1703.803884 418.8849555 -290.6706664)
(1227.092259 -89.57091087 -59.10945454)
(1555.332398 -32.5030309 -77.00388664)
(1934.151629 -487.7312559 -655.5192391)
(1102.921149 64.10169715 138.6183734)
(1324.271696 -243.7317458 500.8316298)
(1248.907819 -134.5604971 -193.2089957)
(1640.896387 493.9707688 213.5052389)
(1562.593999 -301.1451769 -47.75274336)
(1846.144195 -207.6367775 296.2521323)
(2273.889091 157.2676715 -228.6553465)
(1260.926059 13.5618542 -273.1935634)
(1529.496582 -617.0930129 -696.3614017)
(1325.150573 -215.5133114 112.4832579)
(1266.979053 -273.667452 -190.1363659)
(1520.066658 151.7510469 -128.7613145)
(1760.533274 -294.4082353 -470.7705765)
(1658.579242 185.5494548 197.3206712)
(1488.468514 109.5834116 -330.1598968)
(1300.26329 211.5733486 -103.627818)
(1595.993145 -486.9609482 -354.61517)
(1480.923572 185.2444686 -373.7732627)
(1436.945617 237.3792071 -268.3472886)
(1654.774507 246.6658905 -57.19993996)
(1613.103819 330.1943045 -382.7012036)
(1250.290725 -3.810309093 264.0977435)
(2045.480633 706.2522331 41.75498001)
(1941.741681 161.3659436 -414.7666807)
(1591.358252 250.6491408 -251.5628905)
(1685.964834 184.5741843 287.6948271)
(1658.212192 -9.052182368 -219.2976448)
(2218.013694 119.9264743 169.8824856)
(1660.455222 152.2116838 201.8211139)
(1253.937447 -468.6097199 344.9997703)
(1648.967307 -178.7389846 255.2379575)
(1687.936049 55.06788321 100.2783526)
(1489.330746 185.3331863 126.0478523)
(1843.580815 -557.9053312 -48.3839184)
(1812.896812 388.482811 -150.7818476)
(1531.251163 -5.33416173 -759.9153985)
(1822.595632 764.9381311 -128.7615058)
(1767.886722 -150.8697852 -320.3532441)
(2045.448412 -53.9939378 -61.86598185)
(2315.095236 -493.2225904 246.6842412)
(1609.017335 -459.4913082 -0.9656726683)
(2162.783548 257.636635 -234.4339423)
(1455.994141 -68.46131238 186.4529657)
(1924.909564 81.18407881 446.8154959)
(1692.93488 -282.9687234 -8.711453237)
(1830.877367 477.187626 -107.9635673)
(1491.088456 -56.30034716 -62.3002774)
(1640.496262 247.5076104 25.21040322)
(1323.866552 43.54446182 131.6367934)
(1957.960516 350.8522579 -329.4385633)
(1499.372707 256.3788603 -98.85460676)
(1999.558656 -86.20053162 -450.9461623)
(1350.583989 68.50692471 -84.64827735)
(1874.723244 -170.6098368 72.6112926)
(1601.885414 373.7842281 10.35008608)
(1955.707358 145.1302956 -646.0569128)
(1520.725097 110.3152555 -219.4055177)
(1630.258035 -567.4442104 -62.07590461)
(1998.663633 -105.2018046 -110.258181)
(1333.225585 -3.948501786 0.3539632675)
(1621.935067 -288.9661263 -422.2531829)
(1704.504026 -44.506456 -198.4447562)
(2184.172277 68.14910805 -16.73201514)
(1711.742415 368.8954317 169.0704984)
(1869.430731 404.065554 123.7318674)
(1558.451853 -205.8737181 -213.8456779)
(1361.374949 80.08326523 -335.3332079)
(1551.513839 -437.1648741 133.2565907)
(1122.051179 51.58821032 -202.1572437)
(1643.451126 -296.3037074 -418.7290724)
(1920.341423 -11.52733388 -346.4665521)
(1295.330049 347.8965184 232.5033147)
(1608.136106 12.47819514 12.00494294)
(1611.788517 -203.0654287 -239.5580798)
(1617.259169 627.1848262 -458.2996639)
(1605.940866 193.7831628 114.4623121)
(1777.85607 131.0816417 343.8796395)
(1773.325765 -96.85333576 -274.4135053)
(1619.414088 -661.8899108 386.9621123)
(1611.086942 376.7464232 -22.39266477)
(2031.428403 353.6249937 15.22232087)
(1069.037734 346.4061279 139.378851)
(1657.314109 502.4487833 6.581321756)
(1611.485194 -303.7940995 537.9354962)
(2126.794903 -216.0451126 44.37932406)
(1550.861437 315.9252771 -174.8761716)
(1930.781315 -256.775271 -608.8211958)
(1947.050481 -327.8487921 -210.9021577)
(1814.980852 -109.9051498 -162.6684622)
(1685.396388 46.13218946 138.4639177)
(1765.09074 -217.8299991 -268.024975)
(1268.85327 -65.67957777 248.9118157)
(1598.771875 -178.423751 21.4398985)
(1256.583734 -197.7994503 286.9731061)
(1698.80088 -77.83762936 -32.96447265)
(2031.447743 221.7248142 74.79172864)
(1547.119405 -0.64830434 -126.3206967)
(1741.013695 39.03835132 74.35566447)
(1402.29226 251.8923013 94.97225076)
(1683.815195 55.31959989 385.2272333)
(1604.433641 79.60380784 -186.2010232)
(1274.474643 174.6790773 293.6168625)
(1540.451218 11.25156766 173.4960647)
(1619.187762 15.01277985 467.8526639)
(1449.904614 24.82099572 48.33809247)
(1723.788285 115.4505934 -236.1165576)
(1732.174375 -628.9775535 -49.54218937)
(1701.223525 266.6247923 -230.2081488)
(1797.096765 326.5543726 -689.2720131)
(1709.847342 -470.1039966 -157.6607011)
(1229.510495 -409.3591817 -243.1469476)
(1727.604132 -114.622401 66.26527239)
(1481.409518 -302.9325639 -398.3268204)
(1531.928048 -604.4006131 -7.79172448)
(2321.635694 38.66434181 55.20894818)
(1368.648506 -255.7237272 -290.1508475)
(1595.065367 500.9907169 -109.2796694)
(1030.371755 149.1232102 -191.2264018)
(1340.276636 265.6501676 313.5688651)
(1301.063717 -209.9035125 592.5171236)
(1659.006949 411.3836417 -28.72765463)
(1500.969964 325.7296293 65.08205998)
(1693.613221 -78.49844284 563.8351941)
(1354.324245 -214.2552139 -167.4704064)
(1335.73237 91.19432695 -440.5986396)
(1969.289612 -154.7864639 -396.4814739)
(1593.781393 223.7184922 690.3474038)
(1463.319265 -14.46087537 493.6357768)
(1097.842278 198.229502 -109.8834694)
(1888.397266 429.8039567 -574.533389)
(1395.02777 -314.5683949 -13.29426212)
(1510.714612 -637.0757166 363.4876493)
(1818.8576 -383.0181108 36.36360543)
(1221.547512 -612.6221837 185.0542195)
(1445.504183 -340.1911818 -169.935632)
(1518.232129 36.09655257 -15.88999942)
(1985.281363 -458.8798634 -211.5280857)
(1496.917232 -98.02801275 280.45472)
(1828.090945 -267.7826468 -347.2808676)
(1488.454271 -242.4704782 -224.2598807)
(1636.4541 31.68852582 -165.9490242)
(1334.108864 297.0898974 -143.0507763)
(2070.083362 -71.8852758 -13.76912812)
(2070.389624 409.9343517 -186.1195104)
(1704.757986 -81.31132177 217.7892705)
(1402.298324 64.39239415 -149.0409322)
(1362.89966 131.6059992 -63.05613222)
(1501.487875 34.30082224 158.9020383)
(1995.718664 382.0468817 235.9818477)
(1661.175136 -518.1756588 255.6138543)
(1301.394372 -67.51683555 -307.8193551)
(1189.538408 112.5154507 436.7832027)
(1497.893692 245.7255175 683.0579647)
(1205.687027 239.8886535 -871.9741145)
(1731.483792 520.8508898 516.1257759)
(2077.623233 -14.96730681 182.7465192)
(1069.674724 249.7502927 -68.21327276)
(1794.074258 264.8434197 48.42921258)
(1256.570414 -334.3349341 -99.14568054)
(2398.24376 278.7379297 -333.0851125)
(1200.619346 89.86100616 -32.03906458)
(1978.636263 -78.03925107 -252.7758985)
(1863.600112 93.18906876 -277.781872)
(1811.530215 -439.149857 -256.4113513)
(1829.79112 107.3727459 -143.3848367)
(1759.171783 441.2778126 -7.017338314)
(1855.542453 -245.491256 40.75963912)
(1498.994584 -623.7939395 274.3969169)
(1310.019179 328.9675763 16.85698529)
(1844.2374 26.37241758 84.44882187)
(1855.100871 147.4476053 241.6433396)
(1777.958046 -231.5025899 31.69084736)
(1239.171059 -112.9444564 210.2229821)
(2177.238249 -307.7567474 -721.3373603)
(1773.111058 -83.49163601 -214.2349888)
(1747.614315 -275.0403372 -101.4718159)
(1473.944171 615.85925 36.05173151)
(1446.199713 -314.5809556 438.1469249)
(1152.049574 -115.5805276 -221.2490511)
(2186.166255 414.7409196 -598.9571834)
(1573.569669 737.4136443 99.90335418)
(1294.030107 -37.47539728 267.2974872)
(1707.833848 236.0799818 407.0381142)
(1165.776173 28.18494447 -427.4312951)
(1630.098129 -15.70697909 -241.3930982)
(1765.133658 205.7792844 -372.1144519)
(2317.739897 87.33717258 351.3279754)
(1991.721541 -440.7588013 -224.3823739)
(1707.255878 -446.0395409 164.0054921)
(1797.557167 491.7867825 -276.8163952)
(1670.177204 203.3872117 423.944833)
(1784.855247 -56.6145118 -284.9157967)
(1518.028136 333.11938 96.3201518)
(1529.358096 -327.4504928 212.8196587)
(1563.329884 2.138632919 42.73783538)
(2541.226398 344.9281827 342.0455414)
(1993.811139 30.38711666 122.021594)
(1468.327549 513.2525589 522.9596091)
(1552.165739 317.205161 59.6454444)
(1510.706057 183.9855501 188.1089157)
(2281.303034 -718.8959941 661.1872261)
(1759.050414 -114.9985833 -208.2479011)
(1873.155291 89.37985437 437.803294)
(1886.627463 -142.6315084 249.2778177)
(1533.979158 540.1202451 65.07144625)
(1864.51401 -294.8568351 -481.6684951)
(1950.592248 -192.5154306 -74.64900749)
(1619.671815 42.0871593 -483.233889)
(1590.473873 351.2577614 -13.95324499)
(1836.558572 -153.6222166 12.25099207)
(1492.357246 247.4720291 -192.2693902)
(1605.890373 403.4109451 203.6556912)
(1955.727008 -360.1543828 -72.73847625)
(1243.679946 -209.3746454 255.6068578)
(1558.50589 -573.7994009 -58.4081089)
(1266.792136 43.33886488 -119.8678701)
(1126.625595 -176.2646114 395.7867759)
(1565.909568 -145.8241534 624.6685512)
(1732.878392 201.2531083 -93.40208301)
(1564.317459 -294.5256697 83.18387726)
(1584.801649 -73.14497226 -106.831739)
(1946.62333 155.9249456 -260.9322142)
(2206.287978 -111.6781642 80.3232036)
(1410.359446 -826.5615993 -230.6511044)
(1309.366204 -46.10731664 -380.4735133)
(1403.936394 -152.6528201 -38.18940428)
(1497.037083 -33.91082182 -360.3322593)
(1933.142455 1.507640515 -110.694291)
(1425.766286 -32.81017334 -65.4940396)
(1537.311329 -159.2050618 297.3206692)
(1770.491451 437.1351953 -12.17460356)
(1226.736396 -465.3737565 136.8809822)
(1998.740786 -197.1673819 684.8687522)
(1712.315222 256.3183336 -181.3670788)
(1743.745517 -90.91016922 -13.74650726)
(1644.961952 -157.3842924 -365.2473253)
(1501.361806 227.129552 -34.76943888)
(1982.678567 311.7145305 -358.0805376)
(2008.069984 -24.95218667 114.840071)
(2302.299618 502.1011746 351.2731568)
(1930.123671 -142.5220052 39.45117616)
(1749.201049 79.8482521 -240.7708947)
(1301.200707 176.9185824 435.0353759)
(1535.516518 55.79257018 -42.90798388)
(1655.101258 91.63608716 539.4062314)
(1388.292197 -302.1663292 763.7205731)
(1929.129342 -341.8482911 -219.8183662)
(1309.988553 102.2257368 106.7496381)
(1516.96564 -67.50986222 119.4974529)
(1877.271146 249.6831363 -142.4759173)
(1563.130351 -411.7045269 -466.5920836)
(1100.033544 187.1818808 -14.26102372)
(1115.378574 169.8767015 -109.9580884)
(1583.697597 -329.263025 -399.5767578)
(1852.496469 365.562528 192.92072)
(1934.776577 168.1745038 -147.518132)
(1540.937653 323.5649778 -124.7779656)
(1374.32864 294.0208225 -450.7171871)
(1775.446266 206.6977827 -47.63937752)
(2491.478394 -75.18565499 -18.41235078)
(1635.324568 21.68825343 -4.070165639)
(1605.729828 274.6940988 -41.687237)
(1511.984533 457.981652 -381.1357673)
(1270.700658 88.8381111 -49.04359453)
(1688.795761 182.7600856 36.09989509)
(2121.525 258.2244697 -521.386634)
(2069.800271 51.79920199 308.7670746)
(1646.3057 40.52389146 179.787419)
(1661.215179 156.4789886 816.213758)
(1759.398116 -189.4625171 -172.2703331)
(1099.666788 -164.5486967 -234.6965773)
(1365.278821 -273.9367836 59.15431004)
(1669.356922 -293.7270333 -33.91756637)
(2060.853589 156.7858801 800.6396647)
(2308.599582 -221.952803 -16.7946503)
(1769.94051 153.3990293 -67.6415571)
(1804.422718 252.4494189 186.0040332)
(1247.341815 246.7860621 -30.43651643)
(2180.588329 -360.7072657 48.43344315)
(1886.57297 -46.03907031 190.6703015)
(1509.65516 210.2485187 432.1341492)
(1775.152208 268.5024022 -359.5128607)
(1589.187033 -38.26644633 -164.533726)
(2215.256923 348.524386 -366.1291331)
(2164.83591 -148.9634743 299.4430687)
(1782.239897 453.4435338 -184.2250754)
(1330.012383 388.1361113 61.16737765)
(1633.532353 -258.2542247 -8.512417181)
(1443.994551 -66.40922625 -522.7954363)
(1513.021337 207.6607702 426.0713074)
(1973.922021 142.851581 343.3277584)
(1874.714654 -30.55445352 28.41871761)
(1769.696739 223.6743255 72.52568358)
(1145.28404 -83.03242625 -110.7173121)
(1631.009327 -130.9248157 -185.6730295)
(1440.328469 102.1795622 231.588905)
(1763.228215 -254.6362363 35.72712144)
(1688.983472 517.8821796 362.0054654)
(1387.497196 -268.8420235 -14.23225428)
(1587.975233 272.3239521 -444.4941706)
(1662.840722 -35.33896224 -40.42594123)
(1899.34526 -124.5335509 -172.5551395)
(1597.585932 -658.7577861 -242.905348)
(1693.508602 -98.13465031 320.6725389)
(1932.187664 443.3185177 358.7568894)
(1608.635881 -132.2779241 157.3970427)
(1832.754296 -397.7504321 139.2249975)
(1459.111439 490.2588427 -240.3174743)
(1764.981127 331.8023788 134.1437986)
(1517.188098 -236.7569185 -448.588498)
(2062.408495 -526.9966341 -195.208196)
(1551.347985 -98.09139434 -252.815227)
(1827.875777 500.8142929 -350.8424165)
(1727.245489 -113.3236125 72.65864522)
(1942.842373 -32.38553833 -227.7005622)
(1217.520208 -291.8715859 264.0954422)
(1797.742474 -124.6268107 135.4356746)
(1986.046553 431.4503272 -50.26854858)
(1919.621014 -304.6117492 -156.4461679)
(1917.019869 2.913897721 354.3316316)
(1570.796502 -175.4297882 357.6031904)
(1393.812931 -117.9887775 -7.546134703)
(1727.541796 -312.4970857 86.85721296)
(2073.45712 362.0857914 -48.33890544)
(1365.729308 284.4247375 198.3732279)
(1878.851901 -666.208407 660.632997)
(1360.883914 254.1258772 -34.55299303)
(1536.399865 327.309963 417.1887475)
(1798.899745 -640.8436862 -99.43651263)
(1705.635335 191.0889611 -339.5137267)
(1694.949372 300.4490617 -527.9386595)
(1870.318749 -138.5074975 305.9579231)
(1594.75911 51.77200743 360.2529825)
(1508.510586 -160.7322423 -641.4137645)
(1539.308097 -370.8014998 -208.7423735)
(1512.530923 401.9229557 -293.1748508)
(1848.964485 -309.7131048 324.8618619)
(1651.668248 194.9460148 -164.3413168)
(1873.779763 -23.53322947 -109.5097195)
(1553.835106 94.6544933 109.0849866)
(1695.983721 288.6015388 -203.1798431)
(1559.507452 215.2580345 29.23840972)
(1541.11501 203.6275292 35.27766684)
(2170.217525 -221.0533132 -200.1838822)
(1330.343066 315.4966808 -233.3544317)
(1117.499609 -76.37696677 -212.5704215)
(1405.967255 -216.6509813 -287.7171685)
(1712.052296 510.4255356 -35.36872336)
(1523.118969 169.5387582 468.8531727)
(1286.412916 -318.4412591 179.0625499)
(1158.647314 -95.03394423 565.5035983)
(1539.873538 277.049379 227.1635243)
(1697.635072 147.4447481 -287.9754652)
(1567.747599 733.3781863 320.4593169)
(1729.152192 -13.28203287 -261.6991288)
(2244.516338 62.80095905 -203.6778107)
(1775.382394 129.2047826 -393.6842559)
(2075.155012 -194.3432857 -126.4113469)
(1618.694168 84.16664519 45.9184736)
(1247.348072 -339.6215892 147.0912636)
(1567.082094 -63.37567399 -355.0364765)
(1377.597069 225.7413115 493.3609539)
(2287.741871 -122.4699968 395.0212164)
(1766.942094 -147.6899978 142.219814)
(1801.33787 -197.4928886 -104.7692648)
(1087.005138 -304.6014639 228.617494)
(1201.865017 92.38050717 -391.098715)
(1863.501623 -222.3190753 349.2025749)
(1841.619751 218.6562214 -69.60952789)
(1364.173169 -609.1431405 181.7416801)
(1460.430896 -286.3593556 58.55971672)
(1848.712059 474.2619962 57.85831355)
(1676.835707 -171.6243049 -439.3313376)
(1865.385888 -293.3892211 -210.5015487)
(1824.423796 -352.4159743 -205.712389)
(1768.747327 264.9554798 210.8139319)
(1370.673636 -182.9411079 444.691106)
(1318.019779 -356.3305051 -293.8090519)
(1593.595796 -185.0691588 -415.9253722)
(1317.443101 453.5232372 222.5977254)
(1156.356514 -369.3902569 9.592776629)
(1433.143552 423.2438627 -292.2044361)
(1715.878347 -62.54809842 192.7494417)
(1892.165574 324.7248697 -212.0396398)
(1683.531217 -139.4956746 -84.78567373)
(1605.152526 473.0468808 129.3225174)
(1910.02062 18.25143262 -119.0095626)
(1524.931847 31.26682886 309.1273595)
(1534.060216 -132.2334818 -390.3799508)
(1591.885034 69.81206628 134.5010182)
(1713.411167 -48.68734811 -414.4089284)
(2196.2564 -196.8225813 -357.1341171)
(1646.992963 183.4312557 349.9858426)
(1707.393114 -368.8260467 -379.5705627)
(2085.227831 -20.43516366 -152.692324)
(1734.173317 163.1157787 -15.51054067)
(2089.05148 94.22524292 546.8643531)
(1658.307488 -256.90145 468.1527183)
(1736.409421 -339.8493111 251.3701295)
(1745.556621 -21.53554902 -134.9128292)
(1680.814422 -283.7919159 -85.91863821)
(1242.551557 287.8008341 19.95352378)
(1706.112577 69.36892711 -110.7840499)
(1758.256562 -267.1941748 -360.9518676)
(1227.375526 14.55825869 -206.2534626)
(2297.249743 198.8926197 403.3097459)
(1899.717436 -111.8460984 24.14300644)
(1841.105077 -378.9113563 -14.17839673)
(1463.383611 609.6495207 90.78887276)
(1839.936633 323.2095012 -137.6150965)
(1907.261647 230.3296232 130.4739539)
(1254.389893 440.3268643 256.7519209)
(1530.177839 429.628341 434.5690517)
(1936.160448 355.3501031 -592.6392468)
(1471.996136 136.0614407 423.8937154)
(2063.580496 218.3745771 -94.65663584)
(1974.666336 -177.0088505 -113.3739924)
(1996.627935 496.7472815 -139.5688187)
(1287.932549 -360.9817901 -148.1086109)
(1914.145187 -520.1426825 -145.7383073)
(1666.313216 -713.5005103 303.9168429)
(1427.310002 -184.1875923 -35.41659075)
(1947.756223 -786.6251255 -121.0992465)
(1659.73144 507.5224421 -137.8486323)
(1405.727045 -56.4680366 -416.7522778)
(1752.015543 -103.6368989 231.4370667)
(1450.533624 342.8825552 -591.4466034)
(1645.73384 -52.20381589 -168.7075181)
(987.7593344 -217.6458926 -673.2404248)
(1572.545349 -129.5013695 -465.8021692)
(1587.969093 415.3011386 220.9370128)
(2082.299263 674.501675 -46.98781152)
(1436.32541 235.9749761 -290.9975642)
(1921.884707 111.8262381 -49.49620894)
(1959.360561 75.50645318 -249.4928319)
(2170.001156 -83.52898328 -654.2272541)
(1561.999911 -159.7425884 391.2097471)
(1638.408343 -482.5702627 482.7313957)
(2053.725275 8.833317821 483.8462224)
(1791.039501 -579.2934043 40.7315454)
(1601.486039 -123.1049316 165.2617703)
(1919.974077 -229.3443929 -196.8149855)
(1838.508692 -49.95912168 -16.68542948)
(1914.971883 -476.8435118 428.5584321)
(1368.149984 -38.57117144 243.9321237)
(1393.154895 -346.1058919 320.3027375)
(917.9954193 -373.664363 -147.1469324)
(1553.219045 276.1214157 -118.6487384)
(2199.86804 -16.07856294 -619.4192656)
(1378.158094 238.9969292 -220.1406223)
(1784.470723 -250.9981872 97.9461813)
(2023.909225 -219.513554 106.6893272)
(1348.259785 352.2179752 -198.015684)
(1689.287828 189.2092644 -402.0258675)
(1650.740831 -144.0886623 -354.9975244)
(1874.47032 -657.8767034 -49.92375145)
(1698.967905 222.9148841 -263.8760325)
(1619.79195 38.70336896 14.28143843)
(1613.069437 -242.5190371 406.7938163)
(1708.721667 110.4706128 101.2393015)
(1769.742457 63.33261766 450.5141803)
(1616.899276 -2.626942107 -189.1565059)
(1849.105779 332.5863996 -750.4807876)
(1675.099682 410.2592522 -108.1516169)
(1572.063373 379.3812024 3.17492486)
(1196.934904 562.8827267 -288.1945705)
(1195.209026 37.61901469 339.1595468)
(1471.707866 -153.4702646 -202.5733472)
(1449.088125 423.0762922 103.5152608)
(2075.737696 -234.6371283 113.2827514)
(1561.414853 102.9204756 184.2650352)
(1338.012196 0.9569819822 11.78399864)
(1604.248772 -223.5832921 58.88488228)
(1769.108106 124.6184216 -205.2952906)
(1926.226344 132.3353843 -247.7135935)
(1740.488645 -111.4922008 -179.4062448)
(2274.025421 -112.6730706 207.9482143)
(1639.905126 20.99073395 262.5210039)
(1392.655614 -276.4624285 316.7080208)
(2026.107606 -250.2857233 57.35546836)
(1985.989512 -604.8936506 186.4092623)
(1907.418658 -11.69338631 322.0551259)
(1443.885786 -173.3456154 -270.0583668)
(2176.120026 -316.0630877 -195.3791637)
(1771.514854 -126.6494348 -450.5839981)
(1694.797982 -46.2276083 -26.85180747)
(937.6586736 -174.1756655 519.3263776)
(1400.551832 23.12960562 -181.1907686)
(1425.064614 -551.8866579 -528.4358095)
(1697.305583 -146.5389964 461.6983485)
(1446.158955 -216.4691855 25.96887901)
(1458.83068 -144.0011735 -322.141744)
(1409.395011 -679.1622522 229.3345839)
(2004.954872 259.8299839 -273.2252394)
(1367.448192 -253.774945 -25.73023745)
(1388.830641 -442.984912 294.2578719)
(1769.077567 -213.7395961 222.7743093)
(1558.630873 -20.3507102 54.93641244)
(1484.111574 -463.7899401 205.345631)
(1850.015024 -181.8990434 102.6827156)
(1598.622912 -114.6337366 -54.68039169)
(1273.388686 55.75568092 389.9596494)
(1631.832901 -213.3929242 -580.3426234)
(2368.153929 -23.56111241 289.775499)
(1470.220957 325.9766288 -64.80718546)
(1792.25756 -16.55076383 265.5503679)
(1593.328669 29.34687007 -150.7072692)
(1948.378195 -214.1541755 73.92112326)
(1017.008916 329.0008859 -599.574523)
(2142.998887 334.544254 3.739972995)
(1495.603361 461.9228342 -113.7607697)
(1702.950909 412.1637548 301.1776209)
(1732.554845 80.45268343 -222.7014986)
(1745.736078 428.4374264 523.6606901)
(1351.795428 -263.3609978 -448.3338512)
(1915.45592 -123.7132708 234.8307355)
(1838.159752 -150.2519294 -569.5993371)
(1368.444561 -156.7544278 -396.7757174)
(1608.751806 183.3354305 527.3376884)
(2125.474832 58.9173823 -396.5509127)
(1854.692798 302.2911615 232.3729229)
(1644.048575 162.376899 -208.7960074)
(1133.407389 11.58942218 178.8632406)
(1882.461048 -485.8415211 48.09843338)
(2347.179365 -57.17180779 -332.0497299)
(1275.075985 34.17176827 417.6666355)
(1889.571711 17.39554309 274.1211469)
(1485.763372 337.527039 270.4499732)
(1143.64174 -167.2583852 345.8066178)
(1840.127187 -343.8712507 229.3924697)
(1564.054175 -164.8826893 164.8728752)
(1943.005073 -117.5749705 -32.98014573)
(1775.293897 -401.2796824 -213.8730374)
(1807.495168 248.5509935 28.45142704)
(1654.014359 241.0206086 -391.0154374)
(1310.585633 400.1922408 -162.3155475)
(1506.408521 -329.6042746 188.0486372)
(1661.116821 -43.90847832 273.3878503)
(1767.499948 199.185096 35.26772157)
(979.5607726 208.552642 -67.1947926)
(1632.869295 225.2997262 112.0967744)
(1919.322946 97.83953172 364.5116807)
(1439.863147 -53.82793863 -452.6088738)
(1373.693206 87.20743371 82.18341463)
(1583.980068 640.5775344 262.2439599)
(1941.94935 499.0296477 164.9249917)
(941.4124428 249.6784501 -169.0346589)
(1634.793894 -444.2643424 203.0971318)
(1461.391196 -37.43109512 353.9385197)
(1515.822618 257.4650722 -309.1602754)
(2076.855772 -273.6058093 -86.53753834)
(1955.882195 -329.8386296 451.6169594)
(2281.728936 125.4541772 -331.2500165)
(1142.061893 177.7046617 -283.8245513)
(1337.69841 248.8205811 -248.5356508)
(1197.121245 -421.124835 -8.159273451)
(1769.722803 -278.2416015 -124.9548461)
(1469.839965 -106.0272264 -93.93802858)
(1608.173774 51.92336804 260.9479702)
(1247.374707 47.91981102 221.5466457)
(1786.602054 -160.4193607 366.7017852)
(2073.959859 125.7358305 -24.35178956)
(1901.252902 -224.5016641 172.2926784)
(1569.882399 -471.5829891 -232.3879601)
(1605.784693 55.67874712 -191.0234806)
(1590.22887 55.6166628 -226.0027849)
(1084.092017 349.3546103 -68.2992248)
(1479.503563 157.9750377 673.6018011)
(1707.0052 548.4607202 293.3961741)
(1754.069293 -492.6509028 -578.4225183)
(2163.342466 108.1757284 -37.20174674)
(1793.462791 29.45043714 -136.5927145)
(1763.179573 122.8954307 174.4723691)
(1857.800695 -33.89387749 390.0892511)
(2086.517523 -530.4001484 -103.9990408)
(1584.357263 80.80365749 62.88084551)
(2086.673593 -507.4892046 -390.6331037)
(1595.962172 -83.6123908 26.66119851)
(1700.847292 -294.6578369 -145.9304036)
(1516.427819 568.2022575 -438.3093066)
(1324.329174 493.8993125 -90.557187)
(1936.367056 -380.4014926 -155.1901288)
(1700.856028 411.0320313 89.93367649)
(1405.385473 -170.166334 317.9224909)
(1624.349569 -47.5889346 378.5902413)
(1152.908784 113.0278842 356.7376329)
(2233.986012 326.7074748 -349.1568382)
(1615.506836 232.6216145 199.4773037)
(2115.934719 -297.8952005 250.7717955)
(1409.707282 600.4985919 -18.95372992)
(1832.131204 -133.6418875 -351.2717958)
(1501.151765 199.0976515 128.537672)
(1331.036321 -160.8078121 -543.9421716)
(1832.927755 -333.157298 -866.3166198)
(1063.149558 484.5883458 -89.34537298)
(2176.857516 501.85437 -163.6520182)
(1847.244345 -359.3108837 27.7604439)
(1847.792702 -161.3195676 89.36667502)
(1551.225964 169.699053 -56.25933945)
(2119.719329 -265.5308457 -8.253943406)
(1534.021649 -76.05734228 48.57766403)
(1852.018957 -54.96472463 386.4845219)
(1567.735585 -108.2119 -116.0482185)
(1787.308806 96.02626014 -233.8161775)
(1562.687372 417.5142393 370.3529042)
(1313.864947 118.4160822 -65.56459335)
(1522.203877 168.7446325 206.0910294)
(1620.754157 -687.9146435 286.0418787)
(1635.726014 -108.8487956 3.176571107)
(1739.672376 -108.3153027 -45.3466113)
(2275.665389 56.32289188 -182.4728671)
(1831.233305 247.9529202 -307.9970086)
(1972.902455 -360.9417338 -82.79702984)
(1741.840829 371.1398012 84.59948124)
(1465.310411 -15.65092087 523.6418465)
(1632.245372 150.7589656 -795.9927988)
(1787.683977 -256.4523082 746.8549743)
(1489.934962 -66.21783885 -27.39404121)
(1814.137931 -144.6412599 69.22080811)
(1753.5961 456.1345173 -94.0106524)