/*--------------------------------*- C++ -*----------------------------------*\
  =========                 |
  \\      /  F ield         | OpenFOAM: The Open Source CFD Toolbox
   \\    /   O peration     | Website:  https://openfoam.org
    \\  /    A nd           | Version:  7
     \\/     M anipulation  |
\*---------------------------------------------------------------------------*/
FoamFile
{
    version     2.0;
    format      ascii;
    class       surfaceScalarField;
    location    "0.05";
    object      alphaPhi0.water;
}
// * * * * * * * * * * * * * * * * * * * * * * * * * * * * * * * * * * * * * //

dimensions      [0 3 -1 0 0 0 0];

internalField   nonuniform List<scalar> 
3742
(
2.59931e-06
-2.40444e-05
2.7036e-06
-2.41281e-05
2.81068e-06
-2.40423e-05
1.22876e-08
-2.59214e-06
7.44165e-11
-3.92556e-08
-1.21749e-12
-9.462e-11
-7.87713e-14
2.51776e-12
-2.14019e-15
7.58238e-14
-2.05565e-17
1.13392e-15
5.99744e-20
1.54321e-17
6.13649e-22
1.85086e-19
5.29594e-24
2.26932e-21
5.82228e-26
3.11014e-23
7.61627e-28
4.82404e-25
1.32829e-29
8.46539e-27
3.27396e-31
1.65888e-28
1.03737e-32
3.57656e-30
3.70083e-34
8.36578e-32
1.38004e-35
2.09645e-33
5.22481e-37
5.56679e-35
1.98708e-38
1.55104e-36
7.55829e-40
4.49412e-38
2.86777e-41
1.34915e-39
1.08212e-42
4.1655e-41
1.30567e-42
1.12066e-07
-3.2506e-05
2.30864e-07
-3.08979e-05
3.57152e-07
-2.86417e-05
4.87441e-07
-2.6628e-05
6.16866e-07
-2.50066e-05
7.43115e-07
-2.37927e-05
8.6544e-07
-2.29454e-05
9.84137e-07
-2.2404e-05
1.09972e-06
-2.2104e-05
1.21257e-06
-2.19852e-05
1.32272e-06
-2.19963e-05
1.42998e-06
-2.20971e-05
1.534e-06
-2.22582e-05
1.63436e-06
-2.24595e-05
1.73068e-06
-2.2688e-05
1.82275e-06
-2.2935e-05
1.91069e-06
-2.31937e-05
1.99516e-06
-2.34567e-05
2.0779e-06
-2.37138e-05
2.16166e-06
-2.39479e-05
2.25015e-06
-2.41328e-05
2.34736e-06
-2.42252e-05
2.4517e-06
-2.41466e-05
1.06341e-08
-2.23118e-06
4.8879e-11
-2.88168e-08
-9.72186e-13
-5.47214e-11
-4.63273e-14
1.4311e-12
-9.00888e-16
2.90362e-14
-1.08605e-18
2.15474e-16
2.5124e-21
2.81735e-18
-2.83685e-23
2.02913e-20
-7.77396e-25
2.41322e-22
-1.63688e-26
3.32482e-24
-3.31153e-28
5.11846e-26
-6.7728e-30
8.7913e-28
-1.41453e-31
1.67004e-29
-2.99633e-33
3.47046e-31
-6.31479e-35
7.7989e-33
-1.27462e-36
1.87444e-34
-2.24993e-38
4.76964e-36
-2.35855e-40
1.273e-37
6.15019e-42
3.53124e-39
6.22454e-43
1.02712e-40
3.40888e-44
3.11347e-42
9.56957e-44
1.22195e-07
-3.26242e-05
2.23062e-07
-3.09959e-05
3.24226e-07
-2.8741e-05
4.28988e-07
-2.67316e-05
5.33362e-07
-2.51102e-05
6.35409e-07
-2.38942e-05
7.34979e-07
-2.30445e-05
8.32615e-07
-2.25013e-05
9.28933e-07
-2.22e-05
1.02416e-06
-2.20801e-05
1.11807e-06
-2.20898e-05
1.21015e-06
-2.21888e-05
1.29969e-06
-2.23473e-05
1.38597e-06
-2.25454e-05
1.46834e-06
-2.277e-05
1.54632e-06
-2.30125e-05
1.6197e-06
-2.32666e-05
1.68905e-06
-2.35256e-05
1.75597e-06
-2.37801e-05
1.8239e-06
-2.40153e-05
1.89839e-06
-2.42066e-05
1.98647e-06
-2.43126e-05
2.07802e-06
-2.42374e-05
8.91372e-09
-1.83564e-06
2.99352e-11
-1.99818e-08
-6.88394e-13
-2.86616e-11
-2.38629e-14
7.1993e-13
-9.29568e-17
5.1583e-15
-1.18455e-19
5.04354e-17
-9.69097e-22
2.56737e-19
-1.67798e-23
2.26125e-21
-2.81767e-25
2.80418e-23
-4.81188e-27
3.82078e-25
-8.64442e-29
5.69399e-27
-1.64763e-30
9.38535e-29
-3.32478e-32
1.70622e-30
-7.05221e-34
3.39233e-32
-1.55702e-35
7.29922e-34
-3.5371e-37
1.68165e-35
-8.15463e-39
4.10663e-37
-1.87335e-40
1.05305e-38
-4.2334e-42
2.80947e-40
-8.99461e-44
7.83828e-42
-1.577e-45
2.27045e-43
6.66456e-45
1.0314e-07
-3.27074e-05
1.79734e-07
-3.10578e-05
2.64142e-07
-2.88156e-05
3.5177e-07
-2.68126e-05
4.37553e-07
-2.51913e-05
5.19801e-07
-2.39728e-05
5.99941e-07
-2.31217e-05
6.79505e-07
-2.25783e-05
7.5941e-07
-2.22775e-05
8.39742e-07
-2.21581e-05
9.19908e-07
-2.21677e-05
9.98971e-07
-2.22655e-05
1.07593e-06
-2.24218e-05
1.14983e-06
-2.26167e-05
1.21981e-06
-2.28372e-05
1.28514e-06
-2.30749e-05
1.34534e-06
-2.33237e-05
1.40048e-06
-2.35774e-05
1.45197e-06
-2.38281e-05
1.50357e-06
-2.40631e-05
1.56211e-06
-2.42612e-05
1.63613e-06
-2.43825e-05
1.65693e-06
-2.42539e-05
6.77829e-09
-1.42174e-06
1.6697e-11
-1.32171e-08
-4.72835e-13
-1.30482e-11
-2.34668e-15
2.47429e-13
-3.43827e-17
1.69121e-15
-2.54944e-20
4.13563e-18
-2.74745e-22
2.97493e-20
-3.96102e-24
2.82961e-22
-5.86658e-26
3.39351e-24
-9.12302e-28
4.3956e-26
-1.52297e-29
6.22001e-28
-2.73881e-31
9.75256e-30
-5.28145e-33
1.69099e-31
-1.08324e-34
3.2151e-33
-2.34078e-36
6.63131e-35
-5.2768e-38
1.46748e-36
-1.2285e-39
3.44806e-38
-2.92109e-41
8.51903e-40
-7.09885e-43
2.19229e-41
-1.74206e-44
5.89487e-43
-4.18795e-46
1.6435e-44
4.64173e-46
-1.16087e-07
-3.24953e-05
-2.44424e-08
-3.10753e-05
9.18016e-08
-2.88787e-05
1.96564e-07
-2.68792e-05
2.87292e-07
-2.52534e-05
3.67804e-07
-2.40307e-05
4.43005e-07
-2.31777e-05
5.16624e-07
-2.26347e-05
5.90291e-07
-2.23351e-05
6.64076e-07
-2.22161e-05
7.37185e-07
-2.2225e-05
8.08546e-07
-2.23207e-05
8.77171e-07
-2.24737e-05
9.42234e-07
-2.26643e-05
1.003e-06
-2.28797e-05
1.05877e-06
-2.31115e-05
1.10889e-06
-2.33535e-05
1.15309e-06
-2.36002e-05
1.1923e-06
-2.38447e-05
1.23009e-06
-2.40772e-05
1.27603e-06
-2.42823e-05
1.33433e-06
-2.4415e-05
1.18706e-06
-2.40801e-05
4.13631e-09
-1.2247e-06
1.03279e-11
-9.05925e-09
-1.7368e-13
-2.58324e-12
-1.47572e-15
7.8508e-14
-3.75622e-18
1.89193e-16
-5.3596e-21
3.0736e-19
-5.78955e-23
3.77638e-21
-7.49248e-25
3.45986e-23
-1.01326e-26
3.95666e-25
-1.45807e-28
4.86692e-27
-2.27714e-30
6.5386e-29
-3.86721e-32
9.75158e-31
-7.10087e-34
1.61245e-32
-1.39715e-35
2.93148e-34
-2.9167e-37
5.79566e-36
-6.39672e-39
1.23199e-37
-1.45966e-40
2.78561e-39
-3.43087e-42
6.63256e-41
-8.32818e-44
1.64674e-42
-2.0697e-45
4.27667e-44
-5.13865e-47
1.15235e-45
3.14358e-47
-4.78804e-07
-3.15612e-05
-3.66648e-07
-3.08184e-05
-2.19601e-07
-2.87431e-05
-8.43359e-08
-2.67978e-05
3.34283e-08
-2.52e-05
1.38708e-07
-2.3994e-05
2.36577e-07
-2.31517e-05
3.29787e-07
-2.26146e-05
4.18884e-07
-2.23163e-05
5.03353e-07
-2.21948e-05
5.82421e-07
-2.21981e-05
6.55616e-07
-2.22859e-05
7.2288e-07
-2.24299e-05
7.84368e-07
-2.26108e-05
8.40225e-07
-2.2816e-05
8.90382e-07
-2.30369e-05
9.34497e-07
-2.32673e-05
9.72165e-07
-2.35017e-05
1.00367e-06
-2.3734e-05
1.03177e-06
-2.39568e-05
1.06897e-06
-2.41653e-05
1.12779e-06
-2.4316e-05
9.3981e-07
-2.37307e-05
2.52584e-09
-1.15475e-06
2.70432e-12
-6.46807e-09
-6.98276e-14
1.36729e-13
-1.88413e-16
2.56062e-15
-1.82487e-19
9.00774e-18
-1.1138e-21
5.60295e-20
-1.06648e-23
4.57522e-22
-1.25756e-25
4.04509e-24
-1.56446e-27
4.40857e-26
-2.09069e-29
5.14606e-28
-3.05896e-31
6.56279e-30
-4.90533e-33
9.31203e-32
-8.56393e-35
1.4692e-33
-1.61192e-36
2.55597e-35
-3.23666e-38
4.84813e-37
-6.86205e-40
9.90942e-39
-1.52102e-41
2.15842e-40
-3.48966e-43
4.95818e-42
-8.31085e-45
1.18904e-43
-2.03781e-46
2.98501e-45
-5.02312e-48
7.77746e-47
2.05035e-48
1.48977e-08
-9.77387e-06
-3.25367e-07
-1.16623e-05
-4.34081e-07
-1.24765e-05
-4.01451e-07
-1.30145e-05
-3.00901e-07
-1.32864e-05
-1.67609e-07
-1.33652e-05
-2.46136e-08
-1.33357e-05
1.13947e-07
-1.3261e-05
2.39368e-07
-1.31773e-05
3.48902e-07
-1.31003e-05
4.41792e-07
-1.30335e-05
5.20014e-07
-1.29747e-05
5.85868e-07
-1.29202e-05
6.41678e-07
-1.28658e-05
6.89301e-07
-1.28085e-05
7.29929e-07
-1.27457e-05
7.64029e-07
-1.26754e-05
7.91436e-07
-1.2596e-05
8.11778e-07
-1.25048e-05
8.24432e-07
-1.23969e-05
8.27894e-07
-1.2282e-05
8.04901e-07
-1.21305e-05
7.46888e-07
-1.19281e-05
6.42351e-09
-6.74444e-07
-1.1892e-13
1.9533e-12
-2.17185e-15
5.99903e-16
-6.70205e-18
6.97692e-17
-2.74043e-20
5.8056e-19
-2.0036e-22
5.75283e-21
-1.77092e-24
5.17938e-23
-1.91396e-26
4.42349e-25
-2.19804e-28
4.60419e-27
-2.73406e-30
5.11227e-29
-3.75333e-32
6.20381e-31
-5.68822e-34
8.39465e-33
-9.44465e-36
1.26661e-34
-1.69989e-37
2.11312e-36
-3.27934e-39
3.8532e-38
-6.70745e-41
7.5874e-40
-1.43971e-42
1.59492e-41
-3.20975e-44
3.54076e-43
-7.45261e-46
8.21504e-45
-1.78719e-47
1.99667e-46
-4.32004e-49
5.038e-48
1.2853e-49
1.5612e-07
-3.72229e-49
-3.42552e-08
-3.05765e-47
-1.31655e-07
-4.61209e-44
-1.72204e-07
-3.81453e-42
-1.65341e-07
-2.14289e-40
-1.26749e-07
-9.88939e-39
-7.35365e-08
-3.86785e-37
-1.87278e-08
-1.33612e-35
3.00475e-08
-4.22725e-34
6.95175e-08
-1.30151e-32
9.92457e-08
-3.62101e-31
1.21161e-07
-9.24806e-30
1.36995e-07
-2.20971e-28
1.48269e-07
-4.94884e-27
1.56127e-07
-1.05006e-25
1.61319e-07
-2.14566e-24
1.64265e-07
-4.3081e-23
1.65111e-07
-8.71091e-22
1.63649e-07
-1.72297e-20
1.58668e-07
-2.83728e-19
1.4686e-07
-4.21411e-18
1.09989e-07
-5.27754e-17
1.11477e-07
-5.1664e-16
1.76607e-14
-2.74867e-15
-1.05633e-16
-1.16729e-16
-8.61453e-18
7.27479e-17
-4.39502e-19
7.81234e-18
-4.42009e-21
5.35804e-20
-3.50773e-23
5.48591e-22
-2.61781e-25
5.2507e-24
-2.61915e-27
4.38442e-26
-2.79646e-29
4.39832e-28
-3.25457e-31
4.6791e-30
-4.20867e-33
5.43572e-32
-6.04616e-35
7.0505e-34
-9.56908e-37
1.02182e-35
-1.6495e-38
1.641e-37
-3.06005e-40
2.88623e-39
-6.03993e-42
5.49137e-41
-1.2549e-43
1.11695e-42
-2.71542e-45
2.40219e-44
-6.13391e-47
5.40402e-46
-1.434e-48
1.27423e-47
-3.38334e-50
3.11948e-49
7.71519e-51
2.97184e-50
-7.84183e-49
-2.05589e-47
-1.03729e-47
-4.17948e-44
-4.35575e-45
-2.81333e-42
-1.05706e-42
-1.14465e-40
-1.03705e-40
-3.344e-39
-6.72056e-39
-7.25218e-38
-3.2047e-37
-1.03233e-36
-1.25159e-35
9.12956e-39
-4.27764e-34
2.48803e-35
-1.3164e-32
1.20584e-33
-3.67005e-31
4.05037e-32
-9.38822e-30
1.12624e-30
-2.24552e-28
2.7544e-29
-5.03218e-27
6.11147e-28
-1.06795e-25
1.25627e-26
-2.18149e-24
2.42937e-25
-4.37582e-23
4.46823e-24
-8.83283e-22
7.86111e-23
-1.74399e-20
1.31031e-21
-2.87192e-19
1.75558e-20
-4.26566e-18
3.34321e-20
-5.32964e-17
-4.67906e-17
-4.75907e-16
-1.38547e-16
-2.6963e-15
-1.93147e-17
-8.85579e-16
-5.53766e-18
4.38139e-18
-4.31085e-20
1.06938e-18
-4.70711e-22
8.24482e-21
-4.38601e-24
6.79575e-23
-3.34631e-26
5.90632e-25
-3.15873e-28
4.40278e-27
-3.17581e-30
3.80051e-29
-3.49113e-32
3.86484e-31
-4.28368e-34
4.34165e-33
-5.86645e-36
5.44215e-35
-8.88905e-38
7.62586e-37
-1.47253e-39
1.18542e-38
-2.63382e-41
2.02045e-40
-5.02632e-43
3.72931e-42
-1.01213e-44
7.36582e-44
-2.12707e-46
1.53944e-45
-4.67471e-48
3.36734e-47
-1.0647e-49
7.72239e-49
-2.44833e-51
1.83858e-50
4.41756e-52
-9.23643e-49
-3.47028e-49
-1.61627e-49
-8.76575e-48
-8.70876e-46
-2.99439e-45
-4.76238e-44
-1.01814e-42
-9.36504e-42
-1.22641e-40
-8.71093e-40
-8.93738e-39
-5.26544e-38
-4.60514e-37
-2.44198e-36
-1.88064e-35
-9.47422e-35
-6.51476e-34
-3.21951e-33
-1.98354e-32
-9.81801e-32
-5.4046e-31
-2.72305e-30
-1.33461e-29
-6.96206e-29
-3.01967e-28
-1.66289e-27
-6.28101e-27
-3.74361e-26
-1.21501e-25
-8.11834e-25
-2.19962e-24
-1.71574e-23
-3.79709e-23
-3.7228e-22
-6.26737e-22
-9.14837e-21
-9.60063e-21
-1.76375e-19
-1.34765e-19
-3.09927e-18
-1.50483e-18
-4.2464e-17
-1.22953e-17
-9.88506e-16
-3.62134e-17
-9.7157e-15
-3.02256e-17
-5.5052e-18
-2.76497e-19
-1.02643e-18
4.41838e-19
-7.76935e-21
4.23674e-20
-7.84476e-23
4.32239e-22
-5.35297e-25
5.07102e-24
-3.91984e-27
4.97181e-26
-3.46606e-29
3.74914e-28
-3.16144e-31
3.32868e-30
-3.33068e-33
3.13004e-32
-3.92024e-35
3.22623e-34
-5.15957e-37
3.80916e-36
-7.53273e-39
5.20578e-38
-1.20529e-40
7.88954e-40
-2.08694e-42
1.31084e-41
-3.86306e-44
2.35912e-43
-7.55828e-46
4.54439e-45
-1.54566e-47
9.26507e-47
-3.30936e-49
1.97724e-48
-7.34905e-51
4.42364e-50
-1.64747e-52
1.02707e-51
2.40338e-53
-5.17392e-49
-1.70579e-49
-7.97226e-49
-1.85568e-47
-1.5681e-46
-3.70721e-45
-3.81389e-43
-6.3893e-43
-7.85422e-41
-4.60661e-41
-6.86102e-39
-2.44256e-39
-3.92565e-37
-9.99204e-38
-1.7291e-35
-3.34786e-36
-6.35438e-34
-9.60939e-35
-2.02741e-32
-2.4227e-33
-5.73697e-31
-5.4441e-32
-1.46196e-29
-1.10201e-30
-3.37712e-28
-2.05627e-29
-6.92973e-27
-3.57306e-28
-1.32266e-25
-5.76337e-27
-2.36808e-24
-8.66406e-26
-4.06683e-23
-1.20459e-24
-6.97485e-22
-1.53611e-23
-1.06873e-20
-1.80588e-22
-1.4769e-19
-1.79593e-21
-2.87553e-18
-1.34965e-20
-2.713e-17
-1.10138e-19
-4.39688e-17
-2.42608e-19
-2.33465e-17
-1.64876e-19
-3.64226e-19
-1.1533e-21
-4.01632e-20
2.7409e-21
-3.99896e-22
1.93018e-21
-4.63451e-24
2.63598e-23
-4.52364e-26
3.49999e-25
-3.37578e-28
3.64183e-27
-2.97491e-30
2.80928e-29
-2.77503e-32
2.49781e-31
-2.80984e-34
2.32589e-33
-3.19272e-36
2.35539e-35
-4.08047e-38
2.66617e-37
-5.78818e-40
3.37675e-39
-9.00272e-42
4.79291e-41
-1.51686e-43
7.81819e-43
-2.73509e-45
1.38027e-44
-5.21775e-47
2.60643e-46
-1.04126e-48
5.20701e-48
-2.17693e-50
1.08842e-49
-4.72196e-52
2.38397e-51
-1.03328e-53
5.41488e-53
1.23758e-54
-1.92915e-49
-1.75182e-50
-1.79843e-47
-2.33961e-48
-2.97934e-45
-2.12387e-46
-4.32649e-43
-1.31179e-44
-3.70578e-41
-6.86971e-43
-2.14517e-39
-2.93626e-41
-9.21664e-38
-1.03756e-39
-3.21197e-36
-3.11417e-38
-9.47445e-35
-8.10999e-37
-2.43904e-33
-1.86811e-35
-5.58356e-32
-3.85303e-34
-1.1498e-30
-7.17607e-33
-2.1574e-29
-1.21724e-31
-3.71216e-28
-1.88857e-30
-5.89759e-27
-2.69014e-29
-8.66414e-26
-3.51794e-28
-1.17155e-24
-4.20694e-27
-1.46629e-23
-4.60394e-26
-1.71438e-22
-4.62913e-25
-1.75426e-21
-3.96887e-24
-3.44197e-20
-3.62996e-23
-2.56542e-19
-2.58728e-22
-3.31066e-19
-5.4822e-22
-3.60994e-21
-3.44692e-22
-4.66906e-21
-3.56538e-24
-1.85235e-21
2.85919e-23
-2.4722e-23
5.89026e-23
-3.24778e-25
1.19996e-24
-3.36586e-27
1.86987e-26
-2.57064e-29
2.13095e-28
-2.26623e-31
1.72888e-30
-2.08962e-33
1.57737e-32
-2.09097e-35
1.48447e-34
-2.33315e-37
1.50175e-36
-2.90756e-39
1.68609e-38
-4.00561e-41
2.11411e-40
-6.10249e-43
2.94328e-42
-1.007e-44
4.49496e-44
-1.77775e-46
7.45014e-46
-3.32088e-48
1.38117e-47
-6.49035e-50
2.71765e-49
-1.32898e-51
5.58896e-51
-2.82282e-53
1.20319e-52
-6.04204e-55
2.68305e-54
6.00861e-56
-1.73276e-50
-1.83819e-53
-2.36118e-48
-2.51614e-51
-2.14763e-46
-1.94626e-49
-1.33386e-44
-9.85856e-48
-7.01665e-43
-4.31789e-46
-3.01304e-41
-1.60605e-44
-1.06855e-39
-5.11459e-43
-3.22331e-38
-1.4203e-41
-8.43752e-37
-3.47815e-40
-1.95361e-35
-7.60554e-39
-4.05047e-34
-1.4971e-37
-7.58457e-33
-2.66915e-36
-1.29361e-31
-4.3416e-35
-2.01866e-30
-6.46841e-34
-2.8929e-29
-8.85949e-33
-3.80815e-28
-1.11598e-31
-4.58843e-27
-1.28888e-30
-5.06293e-26
-1.36674e-29
-5.08099e-25
-1.33432e-28
-5.62522e-24
-1.09616e-27
-1.01759e-22
-9.32758e-27
-7.00943e-22
-6.52354e-26
-9.23064e-22
-2.06061e-25
-9.43851e-23
-2.49271e-25
-8.63299e-23
-9.37333e-26
-5.66799e-23
1.99059e-25
-1.1335e-24
9.53263e-25
-1.75222e-26
4.01778e-26
-1.99109e-28
7.67235e-28
-1.60169e-30
9.89201e-30
-1.44824e-32
8.66416e-32
-1.34918e-34
8.29504e-34
-1.34837e-36
8.04285e-36
-1.49224e-38
8.2737e-38
-1.84075e-40
9.36361e-40
-2.51699e-42
1.1749e-41
-3.77085e-44
1.62751e-43
-6.09033e-46
2.46567e-45
-1.05642e-47
4.04514e-47
-1.94232e-49
7.09893e-49
-3.73335e-51
1.31661e-50
-7.51399e-53
2.66408e-52
-1.56768e-54
5.66203e-54
-3.29082e-56
1.24443e-55
2.74035e-57
-1.85245e-53
-8.64759e-57
-2.3714e-51
-1.13538e-54
-1.90997e-49
-8.8606e-53
-1.00158e-47
-4.36601e-51
-4.40927e-46
-1.792e-49
-1.64775e-44
-6.2849e-48
-5.27199e-43
-1.90907e-46
-1.47096e-41
-5.11499e-45
-3.62246e-40
-1.22039e-43
-7.96325e-39
-2.61472e-42
-1.57624e-37
-5.0646e-41
-2.82678e-36
-8.91185e-40
-4.62616e-35
-1.43382e-38
-6.93537e-34
-2.11671e-37
-9.55808e-33
-2.87742e-36
-1.21164e-31
-3.60472e-35
-1.40909e-30
-4.15428e-34
-1.49818e-29
-4.41478e-33
-1.55618e-28
-4.10261e-32
-1.70356e-27
-3.54665e-31
-2.24439e-26
-2.74953e-30
-1.83876e-25
-1.91773e-29
-5.51779e-25
-1.29763e-28
-8.74734e-25
-5.62505e-28
-1.00338e-24
-6.15165e-28
-9.32142e-25
6.67647e-28
-3.79725e-26
1.32557e-26
-7.22244e-28
9.33468e-28
-9.30824e-30
2.41022e-29
-8.10721e-32
3.61723e-31
-7.68344e-34
3.54335e-33
-7.37142e-36
3.61031e-35
-7.49424e-38
3.6764e-37
-8.36111e-40
3.90947e-39
-1.03242e-41
4.52195e-41
-1.40506e-43
5.75074e-43
-2.08813e-45
8.02321e-45
-3.35678e-47
1.21818e-46
-5.76668e-49
1.99254e-48
-1.04335e-50
3.47421e-50
-1.97542e-52
6.3977e-52
-3.92461e-54
1.23271e-53
-8.07133e-56
2.48004e-55
-1.66679e-57
5.38167e-57
1.16984e-58
-8.08732e-57
-3.00161e-60
-1.10664e-54
-4.2736e-58
-8.04368e-53
-3.1425e-56
-4.20567e-51
-1.63003e-54
-1.77111e-49
-6.73647e-53
-6.29882e-48
-2.3447e-51
-1.93705e-46
-7.07539e-50
-5.23936e-45
-1.88634e-48
-1.26069e-43
-4.49389e-47
-2.72374e-42
-9.65004e-46
-5.31965e-41
-1.87914e-44
-9.44151e-40
-3.33383e-43
-1.52993e-38
-5.41041e-42
-2.27067e-37
-8.05563e-41
-3.09678e-36
-1.1034e-39
-3.88775e-35
-1.3931e-38
-4.49498e-34
-1.62024e-37
-5.00148e-33
-1.73602e-36
-5.49213e-32
-1.71668e-35
-5.48737e-31
-1.54806e-34
-5.02148e-30
-1.26437e-33
-5.07592e-29
-9.32322e-33
-6.62019e-28
-6.19074e-32
-3.13459e-27
-3.36025e-31
-5.27296e-27
-1.19613e-30
-1.3633e-26
-6.30919e-31
-9.00832e-28
1.01951e-28
-2.21945e-29
1.45778e-29
-3.41873e-31
5.38457e-31
-3.31616e-33
1.00983e-32
-3.39475e-35
1.13977e-34
-3.38927e-37
1.29177e-36
-3.56264e-39
1.40931e-38
-4.06317e-41
1.57553e-40
-5.08683e-43
1.889e-42
-6.97654e-45
2.46441e-44
-1.03984e-46
3.49922e-46
-1.66756e-48
5.37384e-48
-2.84778e-50
8.84737e-50
-5.13386e-52
1.54674e-51
-9.66105e-54
2.84309e-53
-1.89406e-55
5.44951e-55
-3.84296e-57
1.08987e-56
-7.83519e-59
2.23859e-58
4.6749e-60
-2.96826e-60
-2.29893e-63
-4.30717e-58
-3.47787e-61
-3.19065e-56
-2.65167e-59
-1.66541e-54
-1.40562e-57
-6.91685e-53
-5.87507e-56
-2.41857e-51
-2.05886e-54
-7.33635e-50
-6.25579e-53
-1.96495e-48
-1.68073e-51
-4.70332e-47
-4.0445e-50
-1.0149e-45
-8.79519e-49
-1.98629e-44
-1.73882e-47
-3.5427e-43
-3.14003e-46
-5.78173e-42
-5.20067e-45
-8.6599e-41
-7.92502e-44
-1.1937e-39
-1.1148e-42
-1.51732e-38
-1.45056e-41
-1.783e-37
-1.73842e-40
-2.16339e-36
-1.94869e-39
-2.43051e-35
-2.01498e-38
-2.52794e-34
-1.92006e-37
-2.44516e-33
-1.68005e-36
-2.29e-32
-1.3408e-35
-2.06263e-31
-9.65256e-35
-1.62904e-30
-6.32494e-34
-2.70797e-29
-3.77421e-33
-1.14376e-28
-1.09207e-32
-1.44655e-29
2.68057e-31
-5.07432e-31
1.3788e-31
-9.53423e-33
8.53374e-33
-1.06617e-34
2.17213e-34
-1.20621e-36
2.92999e-36
-1.30363e-38
3.77198e-38
-1.44065e-40
4.50379e-40
-1.70381e-42
5.38499e-42
-2.18885e-44
6.79127e-44
-3.05667e-46
9.20242e-46
-4.61113e-48
1.34412e-47
-7.44914e-50
2.1074e-49
-1.2767e-51
3.521e-51
-2.29914e-53
6.21654e-53
-4.30738e-55
1.14939e-54
-8.42117e-57
2.20853e-56
-1.69921e-58
4.40964e-58
-3.4188e-60
9.00571e-60
1.82054e-61
-2.2889e-63
-7.81192e-68
-3.49546e-61
-1.24073e-65
-2.6857e-59
-9.85268e-64
-1.43177e-57
-5.3886e-62
-6.01544e-56
-2.30836e-60
-2.11821e-54
-8.25946e-59
-6.46424e-53
-2.55819e-57
-1.74458e-51
-7.00943e-56
-4.21789e-50
-1.72266e-54
-9.21524e-49
-3.83224e-53
-1.83078e-47
-7.76726e-52
-3.32312e-46
-1.44142e-50
-5.53357e-45
-2.4597e-49
-8.47964e-44
-3.87282e-48
-1.1997e-42
-5.64674e-47
-1.56991e-41
-7.62726e-46
-2.00115e-40
-9.61062e-45
-2.51555e-39
-1.13014e-43
-2.95108e-38
-1.23439e-42
-3.24106e-37
-1.25217e-41
-3.34126e-36
-1.17768e-40
-3.21633e-35
-1.02294e-39
-2.95953e-34
-8.16396e-39
-3.19098e-33
-5.98567e-38
-8.58152e-32
-3.86758e-37
-4.08996e-31
-1.69478e-36
-1.42103e-31
-5.10452e-37
-8.26119e-33
4.33151e-34
-2.04006e-34
9.14946e-35
-2.73194e-36
3.4204e-36
-3.50763e-38
5.90256e-38
-4.16953e-40
8.88819e-40
-4.92945e-42
1.19168e-41
-6.13331e-44
1.55226e-43
-8.1871e-46
2.09067e-45
-1.17658e-47
2.98042e-47
-1.81309e-49
4.52778e-49
-2.97449e-51
7.31747e-51
-5.15275e-53
1.2512e-52
-9.34285e-55
2.24766e-54
-1.75663e-56
4.20797e-56
-3.43193e-58
8.15388e-58
-6.89614e-60
1.6358e-59
-1.38044e-61
3.34509e-61
6.74031e-63
-7.78937e-68
-3.03569e-71
-1.24738e-65
-5.03799e-69
-9.95551e-64
-4.15861e-67
-5.47974e-62
-2.35982e-65
-2.36143e-60
-1.04484e-63
-8.4932e-59
-3.85278e-62
-2.64352e-57
-1.22838e-60
-7.27806e-56
-3.46468e-59
-1.79717e-54
-8.77209e-58
-4.0174e-53
-2.01327e-56
-8.18344e-52
-4.21764e-55
-1.5266e-50
-8.1076e-54
-2.61875e-49
-1.43635e-52
-4.14466e-48
-2.3537e-51
-6.07049e-47
-3.58029e-50
-8.26392e-46
-5.06207e-49
-1.13539e-44
-6.74029e-48
-1.49589e-43
-8.37441e-47
-1.84946e-42
-9.73361e-46
-2.15346e-41
-1.05947e-44
-2.36812e-40
-1.08024e-43
-2.46345e-39
-1.03069e-42
-2.48294e-38
-9.16884e-42
-2.56034e-37
-7.53288e-41
-2.32065e-36
-5.65041e-40
-8.01227e-35
-3.88276e-39
-5.14389e-34
-1.93611e-38
-9.10849e-35
5.98653e-37
-3.24268e-36
5.64876e-37
-5.46104e-38
3.7927e-38
-8.21788e-40
8.79095e-40
-1.09832e-41
1.65716e-41
-1.41883e-43
2.57504e-43
-1.8859e-45
3.74493e-45
-2.64956e-47
5.47996e-47
-3.96189e-49
8.33244e-49
-6.2964e-51
1.33193e-50
-1.05781e-52
2.24105e-52
-1.86587e-54
3.95597e-54
-3.42869e-56
7.28649e-56
-6.50752e-58
1.3908e-57
-1.27894e-59
2.73455e-59
-2.57686e-61
5.54284e-61
-5.14535e-63
1.14057e-62
2.30351e-64
-3.03144e-71
-5.95153e-76
-5.0649e-69
-1.02926e-73
-4.20682e-67
-8.8557e-72
-2.40063e-65
-5.22968e-70
-1.06832e-63
-2.40503e-68
-3.95816e-62
-9.19826e-67
-1.26765e-60
-3.0396e-65
-3.59082e-59
-8.88608e-64
-9.13024e-58
-2.33357e-62
-2.10451e-56
-5.56183e-61
-4.42827e-55
-1.21198e-59
-8.5513e-54
-2.4283e-58
-1.52203e-52
-4.49423e-57
-2.50619e-51
-7.71462e-56
-3.83141e-50
-1.23307e-54
-5.47646e-49
-1.84033e-53
-8.09562e-48
-2.59095e-52
-1.1248e-46
-3.42096e-51
-1.47508e-45
-4.24895e-50
-1.83365e-44
-4.97381e-49
-2.1711e-43
-5.49497e-48
-2.46202e-42
-5.73203e-47
-2.67854e-41
-5.63802e-46
-2.80125e-40
-5.20165e-45
-3.12072e-39
-4.43746e-44
-1.64471e-37
-3.39022e-43
-1.17736e-36
-2.15144e-42
-5.86918e-37
-3.37587e-42
-3.68573e-38
1.16764e-39
-8.31236e-40
2.8086e-40
-1.5218e-41
9.74291e-42
-2.35271e-43
2.35141e-43
-3.395e-45
4.43986e-45
-4.91999e-47
7.47331e-47
-7.38103e-49
1.21288e-48
-1.16194e-50
1.99994e-50
-1.92363e-52
3.40655e-52
-3.33844e-54
6.03052e-54
-6.04216e-56
1.10903e-55
-1.13292e-57
2.11129e-57
-2.18379e-59
4.13789e-59
-4.341e-61
8.30801e-61
-8.81341e-63
1.71124e-62
-1.7659e-64
3.5616e-64
7.24246e-66
-5.95442e-76
-1.19852e-79
-1.03587e-73
-2.16454e-77
-8.96601e-72
-1.94694e-75
-5.32381e-70
-1.20105e-73
-2.46057e-68
-5.76448e-72
-9.45396e-67
-2.29908e-70
-3.13761e-65
-7.92026e-69
-9.2109e-64
-2.41439e-67
-2.42883e-62
-6.61593e-66
-5.81281e-61
-1.64722e-64
-1.27201e-59
-3.75532e-63
-2.55963e-58
-7.88645e-62
-4.75848e-57
-1.53326e-60
-8.20587e-56
-2.77202e-59
-1.31774e-54
-4.67814e-58
-2.01301e-53
-7.40562e-57
-3.14168e-52
-1.10777e-55
-4.6274e-51
-1.56064e-54
-6.46176e-50
-2.0776e-53
-8.594e-49
-2.62e-52
-1.09411e-47
-3.13628e-51
-1.34084e-46
-3.56856e-50
-1.59166e-45
-3.85973e-49
-1.83775e-44
-3.95794e-48
-2.06176e-43
-3.81599e-47
-2.3803e-42
-3.40571e-46
-1.65287e-40
-2.79768e-45
-1.42527e-39
-2.19902e-44
-2.8073e-40
4.69126e-43
-9.43683e-42
1.04455e-42
-2.20871e-43
7.62486e-44
-4.06708e-45
2.54397e-45
-6.71253e-47
5.9905e-47
-1.078e-48
1.1855e-48
-1.75718e-50
2.20096e-50
-2.95367e-52
4.03795e-52
-5.14912e-54
7.50248e-54
-9.31655e-56
1.41699e-55
-1.74408e-57
2.74429e-57
-3.3606e-59
5.44814e-59
-6.62067e-61
1.10489e-60
-1.33873e-62
2.28069e-62
-2.7529e-64
4.80226e-64
-5.56082e-66
1.01633e-65
2.09076e-67
-1.19801e-79
-1.5218e-84
-2.17573e-77
-2.8849e-82
-1.96802e-75
-2.72298e-80
-1.22036e-73
-1.76195e-78
-5.88489e-72
-8.86506e-77
-2.35737e-70
-3.70531e-75
-8.15437e-69
-1.33772e-73
-2.49554e-67
-4.27512e-72
-6.86468e-66
-1.22902e-70
-1.71574e-64
-3.21377e-69
-3.92679e-63
-7.70578e-68
-8.27929e-62
-1.70489e-66
-1.61612e-60
-3.49894e-65
-2.9337e-59
-6.69264e-64
-4.97191e-58
-1.19765e-62
-8.14156e-57
-2.01787e-61
-1.34756e-55
-3.21883e-60
-2.11208e-54
-4.85394e-59
-3.14939e-53
-6.94455e-58
-4.48897e-52
-9.4538e-57
-6.14692e-51
-1.22771e-55
-8.13056e-50
-1.524e-54
-1.04491e-48
-1.81018e-53
-1.30969e-47
-2.05562e-52
-1.59755e-46
-2.22155e-51
-2.00949e-45
-2.25593e-50
-1.62793e-43
-2.0896e-49
-1.54385e-42
-1.66413e-48
-1.09562e-42
-6.87431e-48
-7.57298e-44
1.34375e-45
-2.44769e-45
3.85355e-46
-5.5942e-47
2.02314e-47
-1.08419e-48
6.28996e-49
-1.96969e-50
1.52043e-50
-3.53907e-52
3.27616e-52
-6.43984e-54
6.75089e-54
-1.19839e-55
1.3754e-55
-2.28646e-57
2.81637e-57
-4.46967e-59
5.8389e-59
-8.92053e-61
1.22805e-60
-1.80847e-62
2.61617e-62
-3.7421e-64
5.62178e-64
-7.83585e-66
1.2202e-65
-1.60354e-67
2.64312e-67
5.53107e-69
-1.52187e-84
-3.43869e-89
-2.9003e-82
-6.86592e-87
-2.75219e-80
-6.82229e-85
-1.78962e-78
-4.64721e-83
-9.0449e-77
-2.46114e-81
-3.79618e-75
-1.08282e-79
-1.37585e-73
-4.11613e-78
-4.41332e-72
-1.3857e-76
-1.27335e-70
-4.19962e-75
-3.34167e-69
-1.15887e-73
-8.04144e-68
-2.93608e-72
-1.78567e-66
-6.87469e-71
-3.67835e-65
-1.49583e-69
-7.06225e-64
-3.03967e-68
-1.26921e-62
-5.79213e-67
-2.21632e-61
-1.04155e-65
-3.90373e-60
-1.77769e-64
-6.53043e-59
-2.877e-63
-1.04255e-57
-4.43175e-62
-1.59599e-56
-6.51829e-61
-2.35457e-55
-9.18028e-60
-3.36539e-54
-1.24104e-58
-4.68612e-53
-1.613e-57
-6.3942e-52
-2.01613e-56
-8.58931e-51
-2.41791e-55
-1.13351e-49
-2.76162e-54
-1.51115e-48
-2.95516e-53
-1.52064e-46
-2.90195e-52
-1.71928e-45
-2.46925e-51
-3.94739e-46
2.35924e-50
-2.02133e-47
6.01051e-49
-6.00727e-49
1.13806e-49
-1.41393e-50
5.01313e-51
-2.9871e-52
1.54654e-52
-6.02501e-54
3.99621e-54
-1.20255e-55
9.45913e-56
-2.41204e-57
2.1529e-57
-4.89748e-59
4.8234e-59
-1.00859e-60
1.07648e-60
-2.10364e-62
2.40625e-62
-4.42463e-64
5.39339e-64
-9.43795e-66
1.20922e-65
-2.02581e-67
2.73195e-67
-4.22436e-69
6.18051e-69
1.3368e-70
-3.43834e-89
-8.49619e-94
-6.89973e-87
-1.78875e-91
-6.89089e-85
-1.87604e-89
-4.71599e-83
-1.34977e-87
-2.5083e-81
-7.55356e-86
-1.10794e-79
-3.51309e-84
-4.22718e-78
-1.41228e-82
-1.42811e-76
-5.03093e-81
-4.34298e-75
-1.61461e-79
-1.2025e-73
-4.72266e-78
-3.05694e-72
-1.26978e-76
-7.18215e-71
-3.1596e-75
-1.56812e-69
-7.31786e-74
-3.19729e-68
-1.58563e-72
-6.11653e-67
-3.22876e-71
-1.13732e-65
-6.2141e-70
-2.13865e-64
-1.13792e-68
-3.82857e-63
-1.98123e-67
-6.55636e-62
-3.29279e-66
-1.07916e-60
-5.24156e-65
-1.71564e-59
-8.01614e-64
-2.64776e-58
-1.181e-62
-3.98764e-57
-1.67967e-61
-5.89226e-56
-2.3086e-60
-8.58056e-55
-3.06403e-59
-1.22977e-53
-3.91079e-58
-1.78583e-52
-4.74762e-57
-3.87807e-51
-5.34547e-56
-1.42655e-49
-5.31712e-55
-6.98509e-49
-5.41433e-54
-1.14804e-49
4.07389e-52
-5.04745e-51
3.50165e-52
-1.47024e-52
2.8702e-53
-3.70548e-54
1.21755e-54
-8.59465e-56
3.93e-56
-1.91502e-57
1.09925e-57
-4.20327e-59
2.85128e-59
-9.18936e-61
7.09789e-61
-2.01169e-62
1.72738e-62
-4.41419e-64
4.15007e-64
-9.68661e-66
9.88295e-66
-2.14113e-67
2.33197e-67
-4.73664e-69
5.50046e-69
-1.01274e-70
1.28978e-70
2.94495e-72
-8.4962e-94
-3.14145e-99
-1.79725e-91
-6.99311e-97
-1.89402e-89
-7.76942e-95
-1.36872e-87
-5.92724e-93
-7.69051e-86
-3.51954e-91
-3.59003e-84
-1.73768e-89
-1.4482e-82
-7.41912e-88
-5.17584e-81
-2.80854e-86
-1.66639e-79
-9.58531e-85
-4.8894e-78
-2.98413e-83
-1.3187e-76
-8.54894e-82
-3.29156e-75
-2.26942e-80
-7.64723e-74
-5.61546e-79
-1.66214e-72
-1.30203e-77
-3.39588e-71
-2.84217e-76
-6.71171e-70
-5.87051e-75
-1.35101e-68
-1.1565e-73
-2.59449e-67
-2.17107e-72
-4.77648e-66
-3.89966e-71
-8.46995e-65
-6.72542e-70
-1.45362e-63
-1.11726e-68
-2.42629e-62
-1.79299e-67
-3.95834e-61
-2.78633e-66
-6.34407e-60
-4.19952e-65
-1.004e-58
-6.14029e-64
-1.57578e-57
-8.69156e-63
-2.44798e-56
-1.18336e-61
-3.81072e-55
-1.52555e-60
-5.38183e-53
-1.79341e-59
-7.64195e-52
-1.78115e-58
-3.70748e-52
-7.46638e-58
-2.9406e-53
3.13869e-55
-1.18564e-54
1.08956e-55
-3.71095e-56
7.16284e-57
-1.01596e-57
3.05087e-58
-2.57876e-59
1.04609e-59
-6.28707e-61
3.16794e-61
-1.4987e-62
8.92344e-63
-3.52632e-64
2.40214e-64
-8.22216e-66
6.27493e-66
-1.8993e-67
1.60304e-67
-4.38409e-69
4.01384e-69
-1.00542e-70
9.95595e-71
-2.21416e-72
2.43613e-72
5.76582e-74
-3.14188e-99
-1.04815e-103
-7.0256e-97
-2.48388e-101
-7.84107e-95
-2.93963e-99
-6.00689e-93
-2.38977e-97
-3.58045e-91
-1.51254e-95
-1.77396e-89
-7.962e-94
-7.5988e-88
-3.62574e-92
-2.88549e-86
-1.46464e-90
-9.87754e-85
-5.33739e-89
-3.08418e-83
-1.77565e-87
-8.8614e-82
-5.44103e-86
-2.35923e-80
-1.54665e-84
-5.8547e-79
-4.1032e-83
-1.36142e-77
-1.02149e-81
-2.98046e-76
-2.39769e-80
-6.24294e-75
-5.33168e-79
-1.34885e-73
-1.13252e-77
-2.78517e-72
-2.29752e-76
-5.52255e-71
-4.46814e-75
-1.05646e-69
-8.35998e-74
-1.95893e-68
-1.50985e-72
-3.5374e-67
-2.64005e-71
-6.25039e-66
-4.48085e-70
-1.08583e-64
-7.39626e-69
-1.86348e-63
-1.18842e-67
-3.1745e-62
-1.8574e-66
-5.39048e-61
-2.81331e-65
-9.11226e-60
-4.09097e-64
-1.53739e-58
-5.59402e-63
-2.61863e-56
-6.94203e-62
-4.18632e-55
-9.88977e-61
-1.12858e-55
1.67668e-59
-7.28806e-57
1.29155e-58
-2.94924e-58
3.01511e-59
-9.82777e-60
1.82356e-60
-2.91393e-61
8.00505e-62
-8.03099e-63
2.92016e-63
-2.11669e-64
9.51106e-65
-5.41391e-66
2.87898e-66
-1.35399e-67
8.28484e-68
-3.31872e-69
2.29515e-69
-8.05538e-71
6.15417e-71
-1.92777e-72
1.61793e-72
-4.39848e-74
4.15967e-74
1.0267e-75
-1.04815e-103
-5.50671e-109
-2.49437e-101
-1.40055e-106
-2.9646e-99
-1.77645e-104
-2.41945e-97
-1.54682e-102
-1.53676e-95
-1.04823e-100
-8.11589e-94
-5.90789e-99
-3.70702e-92
-2.88112e-97
-1.50176e-90
-1.24687e-95
-5.48782e-89
-4.87061e-94
-1.83063e-87
-1.73814e-92
-5.62443e-86
-5.71812e-91
-1.60301e-84
-1.74679e-89
-4.26386e-83
-4.98577e-88
-1.06421e-81
-1.33699e-86
-2.5044e-80
-3.38512e-85
-5.5941e-79
-8.13074e-84
-1.29171e-77
-1.86577e-82
-2.87454e-76
-4.10002e-81
-6.15116e-75
-8.65058e-80
-1.27153e-73
-1.75893e-78
-2.5507e-72
-3.45828e-77
-4.98795e-71
-6.59497e-76
-9.55174e-70
-1.22315e-74
-1.79929e-68
-2.21108e-73
-3.34912e-67
-3.90108e-72
-6.18744e-66
-6.71874e-71
-1.13901e-64
-1.1274e-69
-2.08561e-63
-1.83276e-68
-3.82475e-62
-2.84896e-67
-6.47864e-60
-4.10989e-66
-1.08663e-58
-5.12836e-65
-1.55083e-58
-6.46361e-64
-3.08052e-59
7.65333e-62
-1.85173e-60
7.17528e-62
-7.69261e-62
7.96387e-63
-2.73143e-63
4.8115e-64
-8.69739e-65
2.20141e-65
-2.57553e-66
8.51483e-67
-7.25327e-68
2.95481e-68
-1.96642e-69
9.50776e-70
-5.16018e-71
2.89066e-71
-1.32727e-72
8.38324e-73
-3.33682e-74
2.35581e-74
-7.93289e-76
6.41085e-76
1.66109e-77
-5.50674e-109
-9.56499e-115
-1.40606e-106
-2.62525e-112
-1.79053e-104
-3.58532e-110
-1.56474e-102
-3.35729e-108
-1.06389e-100
-2.44535e-106
-6.01435e-99
-1.48124e-104
-2.9413e-97
-7.76506e-103
-1.2763e-95
-3.61376e-101
-4.99832e-94
-1.51887e-99
-1.78816e-92
-5.83595e-98
-5.89704e-91
-2.0688e-96
-1.8058e-89
-6.81612e-95
-5.16647e-88
-2.10037e-93
-1.38869e-86
-6.08737e-92
-3.52411e-85
-1.6677e-90
-8.49283e-84
-4.33955e-89
-2.07156e-82
-1.07862e-87
-4.98051e-81
-2.57396e-86
-1.15271e-79
-5.90507e-85
-2.57996e-78
-1.30736e-83
-5.60895e-77
-2.80276e-82
-1.18969e-75
-5.83648e-81
-2.4726e-74
-1.18386e-79
-5.05723e-73
-2.34448e-78
-1.02226e-71
-4.54077e-77