/*--------------------------------*- C++ -*----------------------------------*\
  =========                 |
  \\      /  F ield         | OpenFOAM: The Open Source CFD Toolbox
   \\    /   O peration     | Website:  https://openfoam.org
    \\  /    A nd           | Version:  7
     \\/     M anipulation  |
\*---------------------------------------------------------------------------*/
FoamFile
{
    version     2.0;
    format      ascii;
    class       volScalarField;
    location    "0.005";
    object      internalT;
}
// * * * * * * * * * * * * * * * * * * * * * * * * * * * * * * * * * * * * * //

dimensions      [1 2 -2 0 0 0 0];

internalField   nonuniform List<scalar> 
654
(
709.9657306
646.0835563
658.9473799
668.2873178
672.0407467
679.1134979
691.2410786
547.4458487
557.5650814
571.6158302
595.0482583
607.6906913
619.6528899
631.4739563
644.0148634
658.6232728
659.7416148
666.2936867
432.859413
446.9133683
466.7566831
483.2976554
494.2665597
509.5739875
536.8388149
559.2696987
568.1572844
579.7105988
588.8628482
605.1382152
623.3457471
629.9629368
635.6979809
650.5509753
344.3897522
351.1247338
359.6422853
374.1138448
380.7938391
390.3441035
403.9860923
421.7744621
434.0527471
455.9002172
469.8527104
492.2081852
498.5992767
520.0271354
542.9240824
557.5232225
571.4682739
587.8943361
600.3150199
613.7879866
620.3985064
624.8229336
309.7227002
311.0914134
318.2822538
323.1689719
326.5488099
331.4113401
334.3943461
340.0805948
349.491656
360.9078806
368.7514349
379.3031358
385.8714282
395.9466604
414.1588726
420.6801529
434.2819248
450.3717352
475.8643918
486.4838201
501.6542631
524.1019032
536.6488316
556.1919955
562.0205566
577.4912789
595.1935109
611.0947511
308.5951659
308.2074078
311.2662779
314.5874186
316.7674815
316.3836043
318.37828
319.8987497
325.8208806
329.4669819
333.1421658
340.6497735
350.6577766
362.1501356
368.4979745
375.3224707
387.5417866
401.1969491
410.9726333
430.513994
444.2247962
461.0419502
480.7485019
496.391922
514.0258837
532.8199176
545.7625718
551.3506037
573.9514768
584.1036384
302.5139519
301.7636391
301.2860737
303.4187469
305.8102546
310.5415771
310.3797117
315.9303935
312.4601398
322.5278631
327.1052402
331.3851349
333.828297
341.2333985
351.5643073
364.0516609
375.274715
384.598481
392.6927683
399.732533
422.0304316
435.6229243
440.6749389
462.6145277
479.3690009
497.6305029
518.4417355
532.1446149
540.4884194
552.9421968
297.9214502
298.6685326
301.0372362
304.9322451
303.6720816
304.1629838
307.8565313
312.8900867
320.3095628
316.9655456
319.3692264
323.1457494
332.5412496
336.2211107
345.1834852
348.5156526
353.3500051
354.7467703
373.7934167
380.3517405
390.8830294
415.4716549
427.9558286
437.544164
458.6344066
474.789094
488.3415026
502.2086572
515.5614097
532.6829851
301.1670223
300.9894934
303.8365622
302.4217845
303.8940498
304.9625376
303.7983001
309.4816561
311.4721072
313.7370036
318.3521132
320.6072703
320.1202126
325.2348547
327.5309682
334.0946414
339.4190508
346.9258943
357.0646846
372.9084977
380.3288091
393.1271072
404.98459
415.539335
432.5326318
443.8644238
465.0082058
487.7356656
500.2524754
507.8441888
306.27958
306.1790528
303.2334754
304.1280527
307.6193395
307.5229256
310.639837
310.1558729
311.0824022
313.5579586
312.5125982
312.9809174
321.0451142
323.5594673
325.1759895
328.65149
331.9084177
335.0252588
337.8356388
351.4867233
362.3523151
369.1307164
383.5025362
396.7941185
406.3606652
424.9673097
444.2481299
456.5741742
475.0784369
487.4507614
308.4084339
308.762516
308.7615245
304.0658025
308.9353569
309.452388
309.2391797
306.9643889
307.938677
312.9861755
311.9178434
313.8864475
312.0808436
311.058083
315.1402944
319.4879288
329.5183065
331.5217728
334.1176349
336.4212807
346.9694785
352.2580542
360.8345593
370.7123889
385.8664295
397.7715687
412.7405161
428.2887075
451.5983428
467.6898022
298.7116159
299.516962
298.4317045
301.7993766
299.87578
299.1185987
302.5450945
303.2240029
306.6525133
305.5111394
307.3943266
311.3673431
315.176305
314.9000404
318.1086799
318.9370588
315.5404207
320.1494036
326.5300879
327.848951
332.6234442
336.7330507
348.5511408
355.4241402
364.467505
380.4948487
392.8400408
408.7132402
417.3770524
438.9155749
299.6468613
303.081986
304.0496083
302.0251003
301.9016947
300.8184015
302.5100013
301.3492159
302.3988285
300.4462123
297.2822106
299.2955045
300.4901028
302.6337699
305.8826158
305.5908836
309.7275271
308.4950204
313.7210969
321.8627175
324.5169808
332.4831959
339.097956
347.2614944
358.5239631
363.027705
372.13631
380.402321
398.6690309
415.0143593
298.3374658
294.6404714
293.6321606
294.1354262
292.1625105
293.5606037
297.2085609
297.2147005
295.1440194
295.3538622
298.4219699
300.0356213
297.2633891
300.5650364
301.0872321
306.7318275
312.1705455
322.2170822
321.3645912
325.4725083
324.9349579
327.8257502
328.9633626
333.3817647
337.3205387
345.7637342
356.9663556
367.733
374.9475031
391.0148372
295.7883145
297.0714248
298.3548781
298.0483556
299.8857076
300.1353396
296.5017276
293.7956882
296.2396894
298.1830435
302.0179328
303.7223877
306.1908437
304.7779012
307.9508206
312.4052925
312.1006586
309.5555699
315.8036078
317.595674
319.4397016
326.6323984
327.1787786
329.8820689
335.9887381
338.3529308
344.4894983
352.2064193
362.9051682
373.2655808
299.7571123
300.1578283
301.0089015
300.2820031
297.3465016
298.6997124
301.7313719
303.3333997
303.7308824
304.3909227
304.3907363
306.962157
310.3455144
310.7347159
306.9761374
307.4011472
308.721115
310.4642261
313.6477198
313.6366195
317.0031387
313.8757153
317.8654092
321.7581183
329.4470818
338.2279289
339.3989429
341.9786169
353.2567556
356.5670971
298.6319225
300.2835077
302.7143529
305.4586832
305.5141221
303.9999171
301.9287812
301.6613519
301.8719419
299.5317855
300.9320496
301.2968214
299.3883139
300.3860961
299.2523294
302.7402488
304.8394904
303.911071
307.1437455
305.8296677
307.5617926
314.2656178
314.2970432
317.2105957
319.0935001
324.3585279
331.2829348
338.0265493
345.2103583
356.4988713
303.5485476
303.5917601
300.9367777
300.3690173
301.1514701
300.792927
299.9261739
299.8067089
300.2236552
299.9541714
298.3658955
296.9570675
298.8214682
297.7157718
304.2762583
300.7088117
301.2955886
304.6497042
304.7443196
305.9830746
308.5111669
310.4966458
315.5175896
319.3161381
318.4532536
321.2090272
328.8226438
335.1882015
339.5732767
338.9768079
298.8865377
298.8335885
297.3143732
299.8584541
297.1915894
298.6867911
300.2271897
301.8397759
303.6402855
303.6263124
305.9623273
304.5852515
304.5154767
304.2552108
304.019856
303.074548
299.5457879
303.2065442
304.8084476
305.8701682
307.2626422
310.5730734
310.4189474
313.7012794
314.2263513
320.1073883
320.5589059
326.1171565
330.9335316
334.2342003
302.7619501
299.8018331
301.3685645
300.8400614
304.6847618
301.4524556
302.6052809
301.2662479
300.1080847
300.0738306
301.4691303
302.9145595
304.6709484
303.5098815
302.7791209
304.1832248
305.0662162
300.7608552
302.3183871
306.1185188
307.260611
311.1722723
313.7841903
313.7144685
314.7804526
308.6327747
310.5917023
314.1438018
317.1074834
327.1360223
305.7136392
306.5429959
305.2381782
302.7889778
301.5666112
299.3161766
296.9002529
300.1354349
299.5600576
299.7797021
298.8749682
300.2026734
295.6333847
295.5241369
296.9292115
296.5695015
294.9135282
296.0524085
303.5649387
303.2745042
302.6708155
305.4203563
305.5734003
305.4687647
308.5254728
310.1122421
310.4825666
307.0126909
313.1691333
315.0920217
299.4277679
297.701525
295.3887287
297.8776045
296.1368426
297.7628857
299.1631034
298.8450025
295.5756394
296.2737328
294.0686309
296.7470709
298.863537
297.5858419
297.0006496
299.5933984
301.2864488
301.5169563
302.6079581
302.3963407
302.5634392
299.8109434
302.6394908
302.8845034
300.8721598
306.1039621
309.512413
308.7756327
308.6736007
310.8441532
296.186955
298.3678813
300.8077788
299.7069176
299.1082163
300.5852308
297.0473505
296.1387156
296.9371044
300.3971864
298.6828842
302.5880107
301.9028851
304.0333179
306.0997778
304.1912962
305.225188
302.2625577
300.4102207
300.2814605
303.2726006
305.4725645
307.1823413
306.2991067
315.7674687
308.8217611
306.9084272
309.0432673
306.5494041
310.4740008
300.7964791
297.7768488
295.5806427
296.8021341
298.6726874
300.724526
300.802704
299.320523
299.9683061
299.4303506
301.0005249
297.8439691
298.3383783
298.1003618
299.0956251
302.5951325
303.8435949
301.5007272
304.7509841
301.9129885
301.8962891
299.3386745
299.8492057
301.0580946
300.4587283
306.0950295
308.1935692
308.82123
311.3979794
308.4602692
)
;

boundaryField
{
    flow
    {
        type            calculated;
        value           nonuniform List<scalar> 
55
(
709.9657306
691.2410786
666.2936867
650.5509753
624.8229336
611.0947511
584.1036384
552.9421968
532.6829851
507.8441888
487.4507614
467.6898022
438.9155749
415.0143593
391.0148372
373.2655808
356.5670971
356.4988713
338.9768079
334.2342003
327.1360223
315.0920217
310.8441532
310.4740008
308.4602692
300.7964791
297.7768488
295.5806427
296.8021341
298.6726874
300.724526
300.802704
299.320523
299.9683061
299.4303506
301.0005249
297.8439691
298.3383783
298.1003618
299.0956251
302.5951325
303.8435949
301.5007272
304.7509841
301.9129885
301.8962891
299.3386745
299.8492057
301.0580946
300.4587283
306.0950295
308.1935692
308.82123
311.3979794
308.4602692
)
;
    }
    obstacle
    {
        type            calculated;
        value           nonuniform 0();
    }
    frontAndBack
    {
        type            empty;
    }
    procBoundary3to1
    {
        type            processor;
        value           nonuniform List<scalar> 
36
(
713.4643977
664.3992242
669.2016039
682.5629073
692.9992411
698.5669635
698.5669635
566.3069023
585.9715937
602.1673523
617.4999428
633.0431771
633.0431771
456.5125239
467.8804658
489.9665751
507.0638487
526.8754774
526.8754774
351.9431796
363.4346324
379.9153147
397.9133083
408.062734
419.2177774
419.2177774
318.2105489
318.585481
321.0134643
324.0659283
330.5484643
338.063073
338.063073
308.2822563
309.5874764
309.5874764
)
;
    }
    procBoundary3to2
    {
        type            processor;
        value           nonuniform List<scalar> 
19
(
305.6629277
302.4193441
297.3392329
299.9181374
304.6290996
307.3181679
299.9787569
298.2512649
299.2364801
297.3796286
298.5354667
298.3284013
300.6184497
300.0854133
302.633702
305.8334085
295.4313817
296.427913
300.732776
)
;
    }
}


// ************************************************************************* //
