/*--------------------------------*- C++ -*----------------------------------*\
  =========                 |
  \\      /  F ield         | OpenFOAM: The Open Source CFD Toolbox
   \\    /   O peration     | Website:  https://openfoam.org
    \\  /    A nd           | Version:  7
     \\/     M anipulation  |
\*---------------------------------------------------------------------------*/
FoamFile
{
    version     2.0;
    format      ascii;
    class       volScalarField;
    location    "0.005";
    object      internalT;
}
// * * * * * * * * * * * * * * * * * * * * * * * * * * * * * * * * * * * * * //

dimensions      [1 2 -2 0 0 0 0];

internalField   nonuniform List<scalar> 
654
(
334.5364671
379.0189588
377.2708917
361.2165587
352.9988991
346.4478459
325.554588
384.4338942
391.1663579
379.4667838
376.1893054
397.0446985
368.7800415
343.1851726
335.4528406
346.8499913
356.2855435
328.4651631
402.8284225
401.6461579
409.4487053
400.274141
382.1448324
365.5218957
380.5083181
374.2516657
377.7298247
374.5507992
360.8513762
347.1395561
333.6066037
335.6294886
336.2924232
328.0416246
396.2442769
405.1761118
392.2452592
397.6854629
402.8128814
393.1864406
403.2157967
393.1898513
385.9476412
387.3040302
377.6975657
379.5327656
390.8593315
380.8024147
369.0584438
362.3478501
351.2342585
344.872314
351.6437637
356.7760735
335.3433937
333.6652325
403.6897764
403.7971638
402.5111643
412.3346852
406.8787491
395.7084969
389.0537832
391.3537434
406.1710873
406.3920133
412.9537133
386.6544752
398.952979
385.9948152
396.4048486
399.9329019
374.7149213
374.1014483
395.9632507
377.9259942
373.4344472
351.0787407
369.2777723
360.3145755
354.3743154
350.9339934
337.7549372
342.0695763
377.9492181
373.418139
387.1146611
407.3198172
391.8545677
391.7826874
394.1057734
399.4459548
399.3641432
407.0989869
407.83075
399.2753126
413.3474324
380.2881941
379.856437
392.623872
396.8944794
395.9410599
373.5513812
374.7404997
382.7707724
369.9000504
374.5811352
349.5617923
339.560455
347.6985545
351.0449523
345.9665384
340.5288445
327.1984748
364.9994003
369.2547751
377.2245546
388.2483887
372.9544837
384.9662853
395.4298207
398.9029088
389.8742811
400.9755332
395.7811077
404.0834067
403.5764325
371.7272398
368.0316462
379.4561722
373.8040946
391.4172753
392.8058045
366.5145855
379.8906084
380.6330314
354.4385685
344.463269
348.9508483
352.7479802
342.3477495
337.2782029
344.6947178
357.5317322
365.5360926
384.7235902
376.2925817
374.8149393
364.7624943
367.9037312
371.7171277
392.4155429
368.0929133
395.6751256
389.0399431
379.3058043
370.3758376
355.971708
372.4333413
371.3381258
393.0066278
371.1495142
375.8296732
369.5224814
371.1637879
360.9869659
356.7045792
354.2633598
331.2971355
338.9923724
340.6725488
346.845111
340.4909754
352.0963446
366.0449076
367.5784773
392.8512554
393.8170948
361.5974089
361.7954783
374.0625499
370.513077
383.1274923
376.5099597
384.4717414
364.3586224
374.0736102
366.6398768
370.5541024
370.7965373
376.4144508
375.0717115
385.9326289
383.391379
368.3837431
368.6048629
365.5135994
359.2711616
347.1285238
344.3965702
346.4182226
336.0161955
336.9336153
325.5484526
360.1255554
365.2788438
370.6939462
374.2446513
359.551924
385.2157102
369.8464322
380.7830917
378.1640667
372.0549473
386.8377986
358.847215
368.1346799
373.5037403
372.6651614
383.3790153
376.9532896
365.2253992
363.5785044
368.8430559
360.6866417
372.8896943
378.5358261
351.9025261
326.6485541
346.5247643
362.102416
335.2130033
351.9392531
313.2650404
372.6302959
374.5570479
369.961539
373.0007208
373.3321428
366.0488235
366.3017204
377.8412832
367.0609851
367.3215881
356.2439806
365.6115515
361.1620405
362.3828889
355.9868617
366.4356259
371.8699785
369.3559776
370.6717949
358.9879749
366.4521486
373.0846558
364.7383089
348.1353495
338.0422971
331.2742358
342.9352429
338.3262169
328.5955526
330.7509519
370.3518757
362.6823839
358.8796309
371.5636613
362.0512793
374.2518564
369.8530539
367.0048726
378.660367
373.3183233
368.706349
369.5368657
375.2685607
350.2234291
353.8854167
366.1585872
372.9500069
360.5031277
360.4503873
362.90995
355.8325945
364.1052508
363.2979968
342.3899693
332.7729558
334.693873
325.5963468
334.3826086
338.7018854
322.154294
370.639889
368.1378372
352.1146646
369.2224765
391.2359706
368.4138176
352.3414452
353.8888247
352.5855755
366.0151054
352.1987946
344.5613554
358.2953372
344.9057092
358.0678811
377.4215647
360.5787934
352.1730511
358.2510366
346.3350339
355.6204186
349.1214481
353.9751605
340.9549109
360.7273303
343.87445
337.5299947
334.8547793
352.0437899
346.2382856
355.0379865
359.8234925
355.2654138
339.2188817
369.5212048
354.6593171
352.0945475
345.5812405
357.4889173
360.7389017
351.065179
361.9659852
343.7438641
337.2575878
359.1837263
362.3761595
357.8376802
359.1292455
352.4293426
348.3742718
363.6937355
344.2835475
329.1681488
340.0487282
352.3473006
360.0498101
349.7649965
329.6375728
341.7184812
336.160979
343.5249348
355.3954031
338.0510599
342.8183591
346.2612969
341.8609999
349.5397241
345.6885961
334.9348146
341.6307851
343.7414621
359.5794544
355.2245719
348.8642819
363.1382956
357.3253332
352.074818
348.2291505
346.0229595
358.6853418
350.9647414
342.1104001
342.8913569
334.1913721
333.8913119
354.0373683
346.8114496
332.959878
343.1789026
337.7839028
344.8268426
353.6818848
344.0944785
340.6750526
334.625384
353.6587527
367.7586332
349.3324377
345.4286061
350.3217548
344.1996967
355.9067691
344.6289518
338.6488958
352.7787147
340.501833
337.7054332
347.2058893
351.7732236
347.8683255
353.4617898
338.7798729
350.7639908
340.9391216
344.0231579
345.4991136
344.3039445
325.3622545
345.5662132
340.9599678
346.704109
331.0130187
347.7319994
332.3653294
345.4067499
342.9294775
343.105378
347.6796469
352.9700356
335.3763519
335.2972585
338.1051646
334.0383678
345.9707935
365.3591081
346.860425
332.930885
339.3672313
341.0212052
342.279831
342.7310897
346.9213014
333.9332509
336.0551584
335.4693516
326.4114784
335.304203
333.9248709
343.6412618
339.5677301
320.3631026
324.8953475
346.3593968
336.3771104
324.7714583
337.8100717
339.0558058
344.8030507
344.5361572
342.8223434
322.563116
324.6085822
344.9328999
348.2041701
339.1981263
348.9987621
337.7032006
339.4257157
341.8089901
337.8263276
343.9516287
335.9096872
335.6100138
336.6670595
328.7997465
319.3230528
328.5052972
343.9831595
338.1473327
316.5099535
344.8363908
342.0808524
360.6937252
351.4098757
330.0693235
323.2577902
354.3433283
340.7003636
333.3975973
349.6853915
335.1267898
344.0197244
337.39125
343.6718026
334.6579727
328.377588
331.9339938
335.3862012
352.637629
327.5579704
345.2934624
334.7913811
337.8528522
337.3857134
340.5856979
324.9170436
328.0579512
324.4523339
333.374086
308.8537986
340.6112098
351.6772285
346.7474755
349.4824634
340.4986311
332.9389108
335.8491679
319.4387683
324.0316505
330.7780904
326.0411969
343.9373466
342.8479983
332.7761356
322.2662822
324.3256482
316.4417733
331.2977545
333.2114977
344.1711745
337.8370329
332.2753185
329.659822
323.8248099
334.5939189
342.6810101
336.4649656
336.3692732
325.3509958
315.9419616
322.1873689
339.0997604
343.9372629
328.6806554
339.7292656
339.5547888
330.696048
323.7723699
327.5290268
337.8753804
339.0933458
335.5499628
335.1638882
333.6583914
307.0298342
322.1687461
319.5319563
326.6717211
326.3483434
339.4479688
337.7141375
335.0411775
334.927398
318.9975343
338.8070613
324.3368816
338.579762
345.5276664
327.0276911
331.034205
316.2746827
320.8151691
341.8420954
348.8681987
326.0549173
331.5169154
334.194186
328.5212771
336.8102276
325.4738055
310.1367998
322.1860952
338.9180189
329.0292235
316.9194753
319.5942062
314.5092877
325.9590738
335.0008824
335.6724237
326.5375777
347.4348571
327.521681
321.6472002
332.0459137
328.1581419
340.316194
333.0588523
320.8287026
325.1374395
316.2884717
307.4696063
324.9921798
330.1148199
326.6323752
336.625265
334.638888
319.6657218
324.1390326
315.9305066
305.3338798
311.1614038
320.4803212
319.1537884
322.8120825
324.2694379
314.4953224
317.9795872
328.4748579
328.2878982
316.3136956
332.550809
319.9435882
344.8597492
334.589282
325.2740302
335.1417649
324.718509
312.439224
323.2240429
315.2557778
293.4045643
317.1626857
320.9863412
316.3665658
312.1713614
312.3592781
324.9551422
313.1740876
313.8870962
307.5397744
307.3666127
310.8091769
313.715165
309.0503886
313.8253139
315.1608085
313.7723818
312.2429787
322.5577354
318.8958477
316.120611
320.9940479
323.6875414
309.8011962
310.523645
315.3222069
304.0795567
304.8941958
315.1760209
)
;

boundaryField
{
    flow
    {
        type            calculated;
        value           nonuniform List<scalar> 
55
(
334.5364671
325.554588
328.4651631
328.0416246
333.6652325
342.0695763
327.1984748
357.5317322
352.0963446
325.5484526
313.2650404
330.7509519
322.154294
346.2382856
336.160979
337.7839028
340.9599678
339.5677301
316.5099535
308.8537986
315.9419616
331.034205
325.1374395
323.2240429
315.1760209
315.2557778
293.4045643
317.1626857
320.9863412
316.3665658
312.1713614
312.3592781
324.9551422
313.1740876
313.8870962
307.5397744
307.3666127
310.8091769
313.715165
309.0503886
313.8253139
315.1608085
313.7723818
312.2429787
322.5577354
318.8958477
316.120611
320.9940479
323.6875414
309.8011962
310.523645
315.3222069
304.0795567
304.8941958
315.1760209
)
;
    }
    obstacle
    {
        type            calculated;
        value           nonuniform 0();
    }
    frontAndBack
    {
        type            empty;
    }
    procBoundary3to1
    {
        type            processor;
        value           nonuniform List<scalar> 
36
(
341.6429772
364.5072572
371.9619839
359.1951193
348.3259958
332.7773039
332.7773039
384.7111715
384.4091973
381.8716324
377.872281
392.005489
392.005489
423.389078
398.2709701
396.8552383
402.4601283
390.0450351
390.0450351
420.8433726
391.5668437
408.6395737
413.5043999
402.1014265
398.5336169
398.5336169
394.8818201
404.6332281
420.1830169
424.7437399
395.1575579
397.054959
397.054959
397.143175
401.3550148
401.3550148
)
;
    }
    procBoundary3to2
    {
        type            processor;
        value           nonuniform List<scalar> 
19
(
397.0556328
366.312744
351.7170955
369.6717434
371.0342404
361.7897705
361.2768499
360.561434
364.0333923
354.9428664
354.0538662
339.6581694
328.5760139
329.3612858
344.4624682
332.6722622
325.7871936
312.5610437
322.69468
)
;
    }
}


// ************************************************************************* //
