/*--------------------------------*- C++ -*----------------------------------*\
  =========                 |
  \\      /  F ield         | OpenFOAM: The Open Source CFD Toolbox
   \\    /   O peration     | Website:  https://openfoam.org
    \\  /    A nd           | Version:  7
     \\/     M anipulation  |
\*---------------------------------------------------------------------------*/
FoamFile
{
    version     2.0;
    format      ascii;
    class       volScalarField;
    location    "0.005";
    object      linearKEMean;
}
// * * * * * * * * * * * * * * * * * * * * * * * * * * * * * * * * * * * * * //

dimensions      [1 -1 -2 0 0 0 0];

internalField   nonuniform List<scalar> 
654
(
14.79347848
15.56975488
15.66044861
15.66144476
15.5665617
15.53727511
15.26805751
13.4351604
13.81355838
14.26087462
14.65820206
14.90732206
15.40788061
15.60440649
15.83283376
15.70819614
15.649734
15.6546008
10.1786823
10.63740337
11.23539519
11.78470373
12.17134439
12.69444192
13.32727304
13.78713938
14.20971733
14.52299121
14.71899021
15.12876898
15.40412983
15.6678377
15.63107759
15.66425865
8.461630579
8.642978763
8.770831291
8.892774374
9.066103798
9.358297744
9.669302002
10.00584237
10.35300351
10.77822272
11.30211718
11.80784165
12.28175528
12.824831
13.44326181
13.84428445
14.31964343
14.75869787
15.00826609
15.33647013
15.53002562
15.51281585
7.924885616
7.965317644
7.969487777
8.056968581
8.139083348
8.13124608
8.269716647
8.269873974
8.45383184
8.630423114
8.853736069
9.03317081
9.263261106
9.578486476
9.844508672
10.25899638
10.71558626
11.16291707
11.70724116
12.27199823
12.80898638
13.21423974
13.70452132
14.19843102
14.62094208
15.00826383
15.28199517
15.47090969
7.853763937
7.931303136
7.940386063
7.949338626
8.000523993
8.026119556
8.087361518
8.161061339
8.263805972
8.358298228
8.493292811
8.63081854
8.705933284
8.764340604
9.031698683
9.249343018
9.501933057
9.750367621
10.09719939
10.48462679
10.918373
11.28890714
11.83581934
12.41938971
13.08738813
13.44654349
13.93873522
14.28416687
14.72144848
15.26261858
7.94817119
7.912666289
7.892119552
7.912634964
7.927629204
7.961552535
8.001144645
8.016987859
8.068420358
8.102940786
8.14599854
8.225231206
8.426085244
8.683117678
8.788008414
8.964703609
9.189185163
9.427707911
9.80176548
10.131108
10.47743114
10.86323522
11.20076631
11.66692293
12.25089273
12.75241702
13.16495052
13.7996548
14.34883936
14.81873032
7.728687502
7.723381927
7.822310486
7.820809334
7.834978007
7.824683336
7.925691185
7.949679739
7.997369236
8.063549493
8.229051512
8.378729844
8.404151775
8.489049226
8.570433024
8.676448945
8.845538847
9.060127176
9.104404689
9.418740881
9.772732476
10.16050581
10.58484289
11.00738747
11.50742702
12.0900966
12.77375814
13.23972756
13.68790947
14.16782711
7.78773149
7.815324721
7.856383848
7.9066305
7.967330562
7.980505723
8.135632856
8.128510163
8.203852109
8.191154165
8.116164722
8.180498497
8.209262502
8.216298497
8.331331871
8.369606852
8.581863573
8.728895844
8.886273633
8.986972929
9.289400716
9.585554443
9.95044098
10.43625685
10.90388698
11.45343079
12.02254069
12.584474
13.12063575
13.53881022
8.000058597
7.967263096
7.950738649
7.957602949
8.021841005
7.942717068
7.936537803
7.960910129
7.940348805
7.935078315
7.974883783
8.027554006
7.98594367
8.126904372
8.254744242
8.258815734
8.380872346
8.416591815
8.566398474
8.764243256
8.991929078
9.28144988
9.675443179
9.894404365
10.29021457
10.70987056
11.06076393
11.59498076
12.08990189
12.75532558
7.92615483
7.961337302
7.942823422
8.002104677
7.98250219
8.023143839
7.994344335
7.975520062
7.967676052
8.037683997
8.022158028
8.116965771
8.111012396
8.17736229
8.161828909
8.273152879
8.300970801
8.413331283
8.573517064
8.677492121
8.751195171
8.851896264
9.067074402
9.368456362
9.747048087
10.01339381
10.54684617
11.13388179
11.60785761
12.13553617
7.803886665
7.817235942
7.846591574
7.755685408
7.819271872
7.852506665
7.793807911
7.861449131
7.943695423
7.856534025
7.90726403
7.990593645
7.958307964
7.987891316
8.040711599
8.128248051
8.247340642
8.299815355
8.37609354
8.494689212
8.572967282
8.717578399
8.845062872
9.092899401
9.372050723
9.713443116
10.02024736
10.45259668
10.8997178
11.37617684
8.070878942
7.98045676
7.939477181
7.933729691
7.967291277
8.002212209
8.023262503
8.001068569
8.001281372
8.101228959
8.015830623
7.961110519
8.029281794
8.148158546
8.080051959
8.123899026
8.132242766
8.134704395
8.244037621
8.310855481
8.551397721
8.638546173
8.790202963
8.973521639
9.060829266
9.277678932
9.597877064
9.857983985
10.33576263
10.78431735
7.856442995
7.861658721
7.914394248
7.953505303
7.888022919
7.884834758
7.969685883
7.899376341
7.877463484
7.903016124
7.934457658
8.020533152
7.972736039
8.011260569
8.052590208
8.118203853
8.109382516
8.360579449
8.398896678
8.456755577
8.511633521
8.627909727
8.605624749
8.639135149
8.877780277
9.063423825
9.323978109
9.615823178
9.790973101
10.20872864
7.859698902
7.863207311
7.838449538
7.759787444
7.752916253
7.756306008
7.731866919
7.759890782
7.798242262
7.78056251
7.805549486
7.866339259
7.939778129
7.973058293
8.01353943
8.098274661
8.185158688
8.128310758
8.220896197
8.275743805
8.362039824
8.365731266
8.511407008
8.674583661
8.748567619
8.864017176
9.071711971
9.190393066
9.369935724
9.677052394
7.785308747
7.778305102
7.78497679
7.803606144
7.870790281
7.841666404
7.837339502
7.827588213
7.823424565
7.817526001
7.836789939
7.880075089
7.852212657
7.881283227
7.86659089
7.938450815
7.907065046
8.033718238
8.055232681
8.114530224
8.11426116
8.193445124
8.328720249
8.391016377
8.396834578
8.491030351
8.657209765
8.813212646
9.070850399
9.303626156
7.939237383
7.884132106
7.867723081
7.834492161
7.805015774
7.779080864
7.788798036
7.839087116
7.885688454
7.921124844
7.959046645
7.984836942
7.969355271
8.026444318
8.064975279
7.985556793
8.031503144
7.967991152
8.002467456
7.994574206
8.153965162
8.186465779
8.119643895
8.252794554
8.311781824
8.370591782
8.490525975
8.659739953
8.778000518
8.9823491
7.837775652
7.810245015
7.891779037
7.937478615
7.99646409
8.011108133
7.981386867
7.982245031
7.898404024
7.912473953
7.916460055
7.917748454
7.914533071
7.888445775
7.901573845
7.907698961
7.905341698
8.008621372
8.036297215
8.004643014
7.981589858
8.032324004
8.039990632
8.056502926
8.082707293
8.161013138
8.257633669
8.304389282
8.500582377
8.682565879
7.933440718
7.938794949
7.926573926
7.868022784
7.902658448
7.897811397
7.995542322
7.970719391
8.056777753
7.995856563
7.952874354
7.912810866
7.904825264
7.875157392
7.908455632
7.868081627
7.820623443
7.812592604
7.807105096
7.865111027
7.881225484
7.892695882
7.922127122
8.085134351
8.15237205
8.321102875
8.36252938
8.509028638
8.616193388
8.712842325
7.807552873
7.840562075
7.793466061
7.843557703
7.853126382
7.885112874
7.816155169
7.904016328
7.870447222
7.893400303
7.992561667
7.938747735
7.942459927
7.965352563
7.990270562
7.927947217
7.9725785
8.015420649
7.939565628
7.96401256
7.974529209
8.013114639
8.059165969
8.076148983
8.101434128
8.160170655
8.303640777
8.30599876
8.390410813
8.478203884
7.866361282
7.904363786
7.908306229
7.870056765
7.897425308
7.876838402
7.813628527
7.764518811
7.780260673
7.824188178
7.779905448
7.824959488
7.868585855
7.840984581
7.824034904
7.829561394
7.832788744
7.854424841
7.868148974
7.907831662
7.983154981
8.02341352
8.060588801
8.070019894
8.021541126
8.059975468
8.094524087
8.133026253
8.296851068
8.309452702
7.872670501
7.867924723
7.915671898
7.884808728
7.914778399
7.882394386
7.969648659
7.939115241
7.911598607
7.809091493
7.799661904
7.78549314
7.906268453
7.918583293
8.029342192
7.996283539
7.933922489
7.947696058
7.957364213
7.976831708
7.915105178
7.951763343
7.938208653
8.038725073
8.101389528
8.126685019
8.162706119
8.118641919
8.203790795
8.26636343
7.86020689
7.85884174
7.862068798
7.844233518
7.819212014
7.788631269
7.775077513
7.81120856
7.859096156
7.874351441
7.922808534
7.894362889
7.868888974
7.777901124
7.776644614
7.816977255
7.859536176
7.906739509
7.872786429
7.849779343
7.813622718
7.817525618
7.885127754
7.830348808
7.877773749
7.835169893
7.928736943
7.929814046
7.979712959
8.043215178
7.700450085
7.675212344
7.665383633
7.623625323
7.613180488
7.698203083
7.721985633
7.735514072
7.703294785
7.698561968
7.732261313
7.728662139
7.716215724
7.696654414
7.699367396
7.688109185
7.648541733
7.693167611
7.704835084
7.686538571
7.780890783
7.774850987
7.726698278
7.735692207
7.737613266
7.69781662
7.689069123
7.774541921
7.819892656
7.904630627
)
;

boundaryField
{
    flow
    {
        type            calculated;
        value           nonuniform List<scalar> 
55
(
14.79347848
15.26805751
15.6546008
15.66425865
15.51281585
15.47090969
15.26261858
14.81873032
14.16782711
13.53881022
12.75532558
12.13553617
11.37617684
10.78431735
10.20872864
9.677052394
9.303626156
8.9823491
8.682565879
8.712842325
8.478203884
8.309452702
8.26636343
8.043215178
7.904630627
7.700450085
7.675212344
7.665383633
7.623625323
7.613180488
7.698203083
7.721985633
7.735514072
7.703294785
7.698561968
7.732261313
7.728662139
7.716215724
7.696654414
7.699367396
7.688109185
7.648541733
7.693167611
7.704835084
7.686538571
7.780890783
7.774850987
7.726698278
7.735692207
7.737613266
7.69781662
7.689069123
7.774541921
7.819892656
7.904630627
)
;
    }
    obstacle
    {
        type            calculated;
        value           nonuniform 0();
    }
    frontAndBack
    {
        type            empty;
    }
    procBoundary3to1
    {
        type            processor;
        value           nonuniform List<scalar> 
36
(
13.93930629
15.4203959
15.42227085
15.28825948
15.07594998
14.91195093
14.91195093
13.8955861
14.47160945
14.67069068
14.9258531
15.34222843
15.34222843
10.73091603
11.22025855
11.83330619
12.36638427
12.9230915
12.9230915
8.520679189
8.717560714
8.957408642
9.246955825
9.539884672
9.856077845
9.856077845
8.004008922
7.997977424
8.046635444
8.065453729
8.174597306
8.383015688
8.383015688
7.893769174
7.855380719
7.855380719
)
;
    }
    procBoundary3to2
    {
        type            processor;
        value           nonuniform List<scalar> 
19
(
7.825753907
7.910872054
7.796249496
7.806979935
7.912527593
7.77368638
7.903179971
7.939934726
7.915896378
7.904422672
7.794994597
7.898228194
7.790485868
7.935499865
7.803892883
7.883126724
7.891878336
7.870641751
7.703983787
)
;
    }
}


// ************************************************************************* //
