/*--------------------------------*- C++ -*----------------------------------*\
  =========                 |
  \\      /  F ield         | OpenFOAM: The Open Source CFD Toolbox
   \\    /   O peration     | Website:  https://openfoam.org
    \\  /    A nd           | Version:  7
     \\/     M anipulation  |
\*---------------------------------------------------------------------------*/
FoamFile
{
    version     2.0;
    format      ascii;
    class       volScalarField;
    location    "0.005";
    object      linearKE;
}
// * * * * * * * * * * * * * * * * * * * * * * * * * * * * * * * * * * * * * //

dimensions      [1 -1 -2 0 0 0 0];

internalField   nonuniform List<scalar> 
654
(
0.3698162276
0.3841563996
0.5514509036
0.2514684409
0.2102822427
0.9959801274
0.5837643599
0.751737196
1.18257573
0.6120437951
0.3466618973
0.3950972098
1.065928667
0.8654844887
1.117905167
0.6709794968
0.4604152977
1.275429218
0.6438002305
0.7407561589
0.706904028
1.187840906
0.3724500716
0.6677094827
1.413597824
0.2912161651
0.2739713912
0.354254836
0.8197312335
0.7305131698
0.6039551956
0.7202610673
0.1736028692
0.4179280777
0.6066266731
0.3861298965
1.208290479
1.07180044
0.1062199357
1.734282764
1.563478576
0.7002964789
0.6794631593
0.6328880316
0.2287419554
0.7847540587
0.3448945348
0.2406480513
0.8765197383
0.5753526781
0.3752437542
0.8545651617
0.4205169259
0.7090344127
0.4414781927
0.8398823715
0.5485640806
0.416295768
0.4715205191
0.6414927848
0.567911018
0.7736989721
0.4679977198
0.6943568483
0.8744139526
0.4179191336
0.4362742788
0.2094207597
0.6105889275
0.4890116178
1.177150634
0.5088149765
0.8663196437
0.4434666087
1.649598155
0.6960288287
0.5836520904
0.7732200657
0.9218356899
0.1570633344
0.1657204073
0.681054744
0.911582363
0.6529830437
0.4154677857
0.8723568272
0.2612301753
0.8391340077
0.9742565765
1.307247509
1.259079301
0.5794874318
0.1092713654
1.302366137
0.8063347731
0.6429623507
0.2119552283
0.8620194564
0.4909252694
0.4835376131
0.6344417726
0.7871751457
1.156522178
0.6798404101
1.126186408
1.742028544
0.4445873613
0.26941106
1.243437401
0.6420288411
0.5187511486
0.4565582833
0.5616217979
0.6946274641
0.7921861558
1.29431056
0.3807380214
0.4699556052
0.293913336
0.5208308954
0.5538456472
0.6594184128
0.1584805586
0.6347533035
0.8564391586
0.4142773781
0.5103281915
0.5469341364
0.6410230523
0.4840463978
0.4281638351
0.2805349218
0.5454821598
0.6057898609
0.4596020302
0.2057565144
0.7914310682
0.7784349104
0.2570824122
0.243802884
0.617941744
0.7312690518
0.2796392637
0.3259100769
0.9585095936
0.7771825197
0.4161556276
0.01623358301
0.5555175256
0.007826057313
0.2496199965
0.8199169772
0.6231233436
1.145676682
0.4883013649
1.28251299
0.9202053664
0.3040684993
0.5494246766
0.9085303477
0.5343142595
0.2702160331
0.321346422
0.6118929903
0.2453279948
0.4748018811
0.8089132699
0.6050686729
0.7113536917
0.6189516706
0.8030832627
0.1185414968
0.1526452829
0.584827337
0.444573672
0.5128322539
1.229821206
0.7870533641
1.151168925
0.2156040979
0.2476255691
1.675579531
0.6215280093
1.094042934
0.4095271508
0.4264103248
0.5651108986
0.5997710506
0.6342924301
0.4792277716
0.8444610014
0.6681356921
1.011658087
0.5171831882
1.239555423
0.3494597041
0.3679201798
0.1041091979
1.034305456
0.8780031321
0.610106689
0.1962574222
0.8668749075
0.8891214299
1.397201939
0.4900116423
0.6939706175
0.8893442805
0.692351347
0.8469441941
0.6057160817
0.6093201642
0.6552941483
0.6403726645
0.8082006878
0.4759721092
0.5596904679
0.7171334299
0.2238116937
0.8031773034
0.6915607827
0.7695445775
1.026758544
1.26266478
0
0.6993759104
0.4074299865
0.761617462
0.2599035615
0.3385634549
1.676677171
0.9387501252
0.8182381729
0.6455590315
0.4672256073
0.7054084044
0.4584476941
1.382584523
0.7427921305
0.3242380834
0.4422727469
0.5860432623
0.1305331436
0.2961857408
1.063867436
0.1421293332
0.608229967
0.3411813018
1.256461266
0.8287739158
0.2322829019
1.087095334
0.5477622305
0.35505422
0.4248386617
0.7056485666
0.7094275024
0.9302335522
0.5049055193
0.6485274849
0.7254732653
0.7691748214
1.239354345
0.3833413179
0.7303926031
0.8869039541
0.8427964282
1.014942069
0.653915517
0.7712577893
0.348524309
0.2487212451
0.5098089538
0.832494272
0.4440423039
0.7062289704
0.2551429568
1.521253971
1.379997258
0.1810210017
0.6610458667
0.9601177085
0.6850304121
0.8289499192
0.3228652417
0.9846139308
0.7997181152
0.9741936858
0.5916799071
0.7827051275
0.621272188
0.402861549
0.5809785656
0.5914926776
0.3268168049
0.8882386193
0.8064240539
0.7542419077
1.084246193
1.051609942
0.4613649779
1.581908958
0.5739446849
1.034303527
1.331958603
0.2228095549
0.7243073479
0.9947484011
0.5682937793
0.7569053765
1.07076828
0.8967814717
1.142660261
1.539489932
1.051906829
1.382023199
0.5720368116
0.6584866872
0.2650749713
0.8241972788
0.6740028025
0.5515526329
0.5884284513
0.4838534469
0.6860029031
0.1406193073
0.9253216434
0.8648617092
0.5037644967
0.7822897244
0.3889875009
1.037060191
0.4922313256
0.2144684806
0.4320084647
0.688450802
1.581385224
0.6260317215
0.1633280015
0.2408894052
0.3057050021
0.7827248982
0.5328246155
0.8462950016
0.4783504553
0.5859347938
0.398812306
0.5723515202
1.089396206
0.8055459416
0.5029403735
0.4759809033
0.5327604285
0.3237574384
0.484720423
1.084060227
0.3405031398
0.5377640285
0.7284577879
0.3322986274
0.5018424347
0.3429091064
0.3203604151
0.5839782762
0.9394899651
0.5070121623
0.3878982262
0.3653643777
0.2628405528
0.6907606603
0.7609623321
0.5567931624
0.7527067565
1.597887708
0.3595225871
0.4699254725
0.4523805801
0.8790104974
0.677617697
0.8107844962
0.7536213027
0.8933269872
0.6267633485
0.7074085635
0.328745717
0.7253242248
0.4483540414
0.4131817248
1.342306666
0.3309185657
0.9020252894
0.6957003786
1.4968339
0.6948223279
1.042098421
0.4309198239
1.102881625
0.6150787781
0.6908605376
1.227558896
0.4685047619
0.7898035502
0.8163777942
0.4767031663
0.740789412
0.6591017113
0.9716813685
0.5742687806
0.4069053235
0.2358837296
0.6842576953
0.3364177821
0.7622916187
0.3350383162
1.164630096
0.9010300515
0.5712517516
0.4876716904
0.6561600493
0.2919066255
0.3802086291
0.2453532125
0.2856248484
0.5805776265
0.7647168475
0.7107989551
0.5549100528
0.4155326361
1.528104895
0.7588614484
0.5004268147
0.4502478419
0.3238035213
0.7122741628
1.144411375
0.5573326444
0.5387729163
0.3636338094
0.4404166658
1.119472444
0.9884319303
0.2440709035
0.5058073112
0.4240081474
0.9789337675
0.493205954
0.7106812461
0.7960774183
0.7313194594
1.122207568
0.1451572379
1.089086531
0.7941375596
0.5428523054
0.8057054384
0.4575823555
1.445452617
0.4068751626
0.4016194677
0.5674850935
1.574463961
0.5959991481
0.5946907729
0.4762287356
0.9917566831
0.7933354166
0.4061000379
0.5831864315
0.8212209553
0.3737909796
1.508102688
0.9244154198
0.7497202643
0.3987331257
1.177423155
0.5922295269
0.6110867282
0.5562606383
0.3571619715
0.6712954949
0.5762587894
0.3310906724
0.7286515556
0.5886456916
1.030734345
0.3502116287
0.1375771612
0.2692890008
0.2509616693
0.376874235
0.3919496746
0.3655304811
1.059242646
0.2963731732
0.6595517224
1.220768916
0.1277755212
0.2196782143
0.3837210533
0.8234010121
1.043978269
0.4913575943
0.3444880451
0.7478809913
0.5326898706
1.039473145
0.6460613032
0.754829825
0.7904825305
0.7046823497
0.2936303007
0.6640653344
0.8249942292
0.9963118013
0.6790065383
1.001113406
0.4419954147
0.3968523183
0.6797562145
0.5277931682
0.8735608638
0.7464552441
0.4646704
1.825175219
0.150840892
0.3122859559
0.6818949128
0.5745778584
0.4429817011
0.5180894817
0.2454675689
0.5851243639
0.7031983089
0.8457674777
0.7860709211
0.4339983372
0.944085283
0.8740112708
0.3645326471
0.5921041259
0.1303120114
0.4708554964
0.4586439591
0.2547076631
0.9003069986
0.6334496702
0.2854867123
0.3132430594
0.7915977182
0.8969646274
0.6620360278
0.4101152272
0.5347657031
0.8779473162
0.2782132583
0.2288959854
0.4838271618
0.5325563171
0.6096167359
0.5654527294
0.6423946557
0.4239397131
0.5222898362
0.7499584543
1.144410121
0.26267373
0.3623631159
0.8009851434
1.051747771
1.080446968
0.8869452953
0.8697835902
0.2160400181
0.3449765466
1.206419765
0.3762982304
0.4178950524
0.6134156731
0.6911288491
0.4218725856
0.5674213198
0.2859993195
0.3658532896
1.234649866
1.0208731
0.6382179634
0.0337858464
0.1844133797
0.3416204153
1.433345988
0.7266751983
0.8297324504
0.438799719
0.9513356741
0.2512172848
0.2083234812
0.3393054178
0.312383345
0.7895334635
0.7860478098
0.9221445788
0.7656596897
0.3916298784
0.7504579886
0.5272743597
0.7433216058
0.9295925298
0.1927652497
0.544696773
0.6348131615
0.7214038947
0.3117384141
0.6133171102
0.314644097
0.5111752835
0.6954679773
0.5194403404
0.8928801197
0.5104495835
1.307526142
0.6753251446
0.2110400684
0.3916657675
0.6077539045
0.6217512572
0.5557237819
0.8728167741
0.922095965
0.2667599449
0.6324219583
0.3783200953
0.7946100203
0.3783577228
0.6158868741
0.5083736493
0.5979559439
0.8737845493
0.4617966835
0.869238026
0.6688869783
0.5780763817
0.3600309444
0.5605331207
0.3425373813
0.7148539533
0.4573072272
1.411073096
0.3373586147
0.342384385
0.6790232218
0.4562444796
0.3588236139
0.4498181506
0.6225864217
)
;

boundaryField
{
    flow
    {
        type            zeroGradient;
    }
    obstacle
    {
        type            calculated;
        value           nonuniform 0();
    }
    frontAndBack
    {
        type            empty;
    }
    procBoundary3to1
    {
        type            processor;
        value           nonuniform List<scalar> 
36
(
1.499475933
0.2102876106
0.3836122054
0.9046626675
0.660797371
0.6096524364
0.6096524364
0.5518747079
0.7195639908
0.3034395164
0.7247296578
0.5836372487
0.5836372487
0.3577698714
0.6537792869
1.659269642
0.8096367507
0.5895233183
0.5895233183
1.101257227
0.4323743314
0.8921682138
0.2948934918
0.4643353235
0.6045962279
0.6045962279
0.5967913079
0.4720938896
0.3756909931
0.7518971259
0.3946149538
1.193122171
1.193122171
0.8154380061
0.3900648205
0.3900648205
)
;
    }
    procBoundary3to2
    {
        type            processor;
        value           nonuniform List<scalar> 
19
(
0.6775183856
0.610948627
0.5288200374
0.5370826078
0.2379611146
0.7848449914
1.232797448
0.8467669353
0.6556773533
0.6517085263
1.063820654
0.8103309822
0.9488070609
0.5967913752
0.2401769048
0.3020743948
0.7284252536
0.6542756426
0.09441054334
)
;
    }
}


// ************************************************************************* //
