/*--------------------------------*- C++ -*----------------------------------*\
  =========                 |
  \\      /  F ield         | OpenFOAM: The Open Source CFD Toolbox
   \\    /   O peration     | Website:  https://openfoam.org
    \\  /    A nd           | Version:  7
     \\/     M anipulation  |
\*---------------------------------------------------------------------------*/
FoamFile
{
    version     2.0;
    format      ascii;
    class       volScalarField;
    location    "0.005";
    object      p;
}
// * * * * * * * * * * * * * * * * * * * * * * * * * * * * * * * * * * * * * //

dimensions      [1 -1 -2 0 0 0 0];

internalField   nonuniform List<scalar> 
654
(
0.7411696559
0.6814771317
0.6711040311
0.6407357347
0.6903683297
0.7127439504
0.6946849013
0.6147876957
0.605775647
0.643734714
0.6280400215
0.6289550275
0.6565869274
0.6762938684
0.6575319472
0.6781387175
0.7041950788
0.7394482362
0.5904584336
0.591355916
0.5863973224
0.5888724089
0.6148906439
0.6301352373
0.6215672582
0.6532900745
0.6646705457
0.6507581722
0.6603734334
0.6727154967
0.7023383395
0.7110508554
0.7141084347
0.7230365583
0.562880059
0.5636531386
0.5699166414
0.5709050554
0.5629478184
0.5788985184
0.5802185888
0.5724278906
0.5862825228
0.6080806428
0.6198066945
0.6016368335
0.6112580307
0.5978782516
0.6442632899
0.6521063602
0.6544422427
0.6544434111
0.6665789617
0.6646882393
0.6842164892
0.7168491068
0.5250035079
0.5321458621
0.5489442499
0.5465948982
0.5439079822
0.5377077047
0.5497186217
0.5351776089
0.5471612217
0.5842586897
0.5602997965
0.5672532166
0.5880643197
0.5701533985
0.5957502637
0.6053883013
0.5907195232
0.595447285
0.6067051385
0.6341830812
0.6334111558
0.6531117246
0.6465380237
0.6517916844
0.6693267655
0.7039729136
0.6961156911
0.6927391777
0.5142733114
0.5302197341
0.530341045
0.5172487816
0.5151185048
0.5532084996
0.5353340535
0.5367710464
0.5498130822
0.5549675118
0.565754576
0.5753643862
0.5870906282
0.55071032
0.5791735201
0.5922275279
0.5824012564
0.5821932528
0.5862370422
0.5934597509
0.6053895985
0.6338560208
0.6249584674
0.6307384671
0.6439005605
0.6491076048
0.6443737932
0.6500302474
0.6475914295
0.6927844839
0.5148191304
0.5313934447
0.5212121952
0.5119490246
0.5226670045
0.5328284733
0.5251649619
0.5420881612
0.5238541896
0.5374391514
0.5419354341
0.5483996096
0.5550464712
0.583027121
0.582623185
0.5978129181
0.5804759546
0.6078337143
0.608253825
0.5970104478
0.6137500288
0.6234989561
0.631472019
0.6398328101
0.6580294116
0.6501728465
0.6565410992
0.6616452821
0.6651618704
0.7139053892
0.5074146591
0.5268774008
0.5186609072
0.5204279225
0.5249818522
0.5339191058
0.52783259
0.5507473183
0.5415164563
0.5495784289
0.5587681048
0.576624523
0.5709137752
0.5966733598
0.5892016759
0.5821075237
0.5769979182
0.5873330981
0.6099877216
0.6261408217
0.6580820557
0.6582684871
0.6628682132
0.6441209113
0.6691169617
0.6680205943
0.6837304682
0.6919351462
0.6859615885
0.7100799974
0.4992726363
0.5316529199
0.528243731
0.5308816081
0.5238283214
0.5158562395
0.5468242123
0.5495390147
0.5381380196
0.5514198773
0.5417702904
0.5639903387
0.5758369394
0.5764376451
0.5692439952
0.5575441475
0.5908895058
0.6197258465
0.6250028024
0.621487586
0.6112264826
0.6022800847
0.629051433
0.631535459
0.6387377658
0.6210765976
0.6526820913
0.6609952151
0.6749445221
0.7238823484
0.4978083006
0.5156714505
0.5166154348
0.5252423336
0.5229702385
0.5209713319
0.5436904975
0.5602228326
0.5557264058
0.57237523
0.5573432291
0.5528737254
0.5746079126
0.5771947229
0.5811470109
0.5835997796
0.5980159995
0.5978578033
0.6042186287
0.6070722435
0.6093113977
0.6061397182
0.626392259
0.6342350072
0.6418999263
0.6426106678
0.6524591163
0.6585637392
0.6705584553
0.6793749718
0.504380604
0.5038083019
0.5125162843
0.5111198083
0.5196670861
0.5255797986
0.5424344921
0.5394174622
0.5367406509
0.5641745819
0.5462073264
0.5385293488
0.5369686621
0.5720409393
0.5585328038
0.5842597946
0.5808145823
0.6082751637
0.6138920442
0.6141405356
0.6099702131
0.6203195202
0.6279389804
0.6150990449
0.6399330217
0.6265283798
0.6532083162
0.6487221457
0.657125284
0.6787384607
0.5308926283
0.5316487677
0.5095506478
0.5161705462
0.527875338
0.5480479948
0.5267881319
0.5380263114
0.5251084844
0.5362402435
0.554216287
0.579301228
0.5736749182
0.5693552454
0.559131125
0.5773910674
0.5788752122
0.5836908567
0.6065494217
0.6089018013
0.6217464837
0.6325623767
0.6081635721
0.6034558083
0.6082855229
0.6275163588
0.6289067815
0.6441413149
0.6610833608
0.6734423486
0.5034775669
0.5119634533
0.5269124611
0.5223880159
0.532363846
0.5258990585
0.5480940461
0.5507341411
0.5637566786
0.5733512494
0.5612842566
0.5768486333
0.566698648
0.5574181875
0.58760292
0.6051741047
0.5965447741
0.5995046909
0.6003906997
0.6186692971
0.6298258226
0.6288702224
0.6062687044
0.6299056873
0.6155254862
0.6255586077
0.6339929084
0.6657662052
0.6720812592
0.6789266241
0.516408241
0.5246880219
0.5337984283
0.5160112124
0.537224725
0.5323143028
0.5393934179
0.5409486005
0.5325879752
0.5361759081
0.5052474675
0.5318470769
0.5366986477
0.5590159788
0.5610174
0.5518137958
0.5545907442
0.5947455154
0.5862928497
0.5960714668
0.5976948925
0.5806017979
0.593056545
0.6076086281
0.6040865755
0.6423308366
0.6564185182
0.6527917315
0.669207475
0.6900688176
0.5196537031
0.5415798271
0.542402018
0.5416148493
0.5461801641
0.5207696499
0.5373699157
0.5344048892
0.5426405187
0.55347241
0.5555077646
0.5478278061
0.5401333267
0.5527715991
0.5781656117
0.5897603609
0.5991184339
0.5961157174
0.6118528424
0.6078059609
0.5959382417
0.6101971814
0.5950714258
0.6250102106
0.6195521557
0.6363889861
0.6394438917
0.6648624706
0.6776022659
0.6873411279
0.5043850902
0.5178168801
0.5132056776
0.5094186448
0.5276867796
0.516556188
0.5396085718
0.5313787425
0.5326355175
0.5615777831
0.5479072199
0.5532389838
0.5672690731
0.5418889848
0.570371642
0.5867168387
0.586809019
0.5616487007
0.5748800133
0.5558106465
0.5854589769
0.5740463078
0.6042054126
0.615799917
0.6351431704
0.6257559171
0.648873945
0.6462805681
0.6741696959
0.6615203506
0.5070487694
0.494265305
0.5145410844
0.5268949915
0.5298779029
0.5312532878
0.5336363125
0.538184082
0.5585541985
0.5477150122
0.5394997144
0.551049689
0.5583444405
0.5542526491
0.5488867647
0.5671035249
0.5611706007
0.5801370934
0.5765363332
0.5851905742
0.5957107202
0.5809314079
0.6082547859
0.6238930498
0.6149851381
0.6172273827
0.6205155802
0.6320947372
0.6286914454
0.6289998634
0.5151421521
0.4802979666
0.5202542425
0.5099950311
0.5195703718
0.5174702849
0.516163881
0.5280480095
0.5343873214
0.5332046637
0.552344995
0.5618733909
0.5695244605
0.5602413169
0.5494189601
0.5542921549
0.5445520604
0.559827679
0.584835398
0.6058421491
0.5935155651
0.5838789167
0.6205411457
0.6215221614
0.5979182246
0.6078131325
0.6124125245
0.611682547
0.6199853338
0.6214978428
0.5033098051
0.4862258866
0.4984195016
0.5011581219
0.4966454157
0.5222130622
0.5226081773
0.5325722494
0.5394656558
0.5428180267
0.5442208964
0.5374012359
0.5622317668
0.5555820139
0.5697060666
0.5733973246
0.5862057886
0.5737088635
0.5651348725
0.57351475
0.5930351953
0.5807587186
0.6038638768
0.6039117181
0.6162082531
0.6123439487
0.5896560553
0.5961673458
0.6147388404
0.6184846757
0.5012886918
0.4983637516
0.5096265667
0.5306520888
0.5240299894
0.5240309038
0.5280194796
0.520716559
0.5287753592
0.5114410116
0.5321105437
0.5419401418
0.5559222375
0.559254481
0.5536421557
0.5513700279
0.539393351
0.5589812562
0.5697084604
0.5919470565
0.5772284828
0.5611352613
0.5630594133
0.5801323289
0.5789687109
0.6149577087
0.5917950598
0.628348042
0.615675102
0.6099553794
0.5204482646
0.504636898
0.5019633013
0.4983343086
0.5298117713
0.5060135923
0.5113261777
0.5296414545
0.518928369
0.5162683626
0.5045151549
0.5303851145
0.5236916249
0.5420509112
0.5489858001
0.5880914936
0.5790433828
0.5641703012
0.5672786645
0.5616075105
0.5604114147
0.5597825663
0.5641913122
0.5601098547
0.5710296923
0.5599879319
0.5694679934
0.5719510006
0.5785256333
0.5860861681
0.490914605
0.493533263
0.479690236
0.4924639624
0.510163558
0.4991255106
0.4925283105
0.5082020771
0.4967906944
0.5163574559
0.4889650829
0.4940387569
0.5174023349
0.5113543335
0.51669057
0.5225603611
0.5193775134
0.5293824762
0.5376914491
0.5327978946
0.5317696961
0.5117207837
0.5337887419
0.5517749944
0.5435909789
0.5399097244
0.5504621486
0.5504660894
0.5704436397
0.5636893841
0.4710494579
0.483838843
0.4850163121
0.4808053664
0.4892876732
0.4887975656
0.4857790583
0.4835834127
0.4832385083
0.4750372131
0.4856917226
0.4675658952
0.4915427199
0.5182204497
0.5152278435
0.5027755565
0.5034317074
0.5063185289
0.5305541983
0.5196448528
0.519635527
0.4997280036
0.498983687
0.4876779262
0.5159340646
0.528296437
0.5226220118
0.5564486452
0.5546955696
0.5130174595
0.4487843259
0.4536569562
0.4517194727
0.4425926704
0.4554919905
0.4418635942
0.4575334652
0.436889746
0.4495038431
0.455843757
0.4488896677
0.4476728887
0.462673034
0.4720919055
0.4700470504
0.4571746756
0.4691371325
0.4666118767
0.4719425641
0.4643756178
0.4725809005
0.4743558737
0.4857153799
0.4858745551
0.501316547
0.4980543966
0.4910258027
0.4720280857
0.4881390674
0.4863100702
)
;

boundaryField
{
    flow
    {
        type            calculated;
        value           nonuniform List<scalar> 
55
(
0.7411696559
0.6946849013
0.7394482362
0.7230365583
0.7168491068
0.6927391777
0.6927844839
0.7139053892
0.7100799974
0.7238823484
0.6793749718
0.6787384607
0.6734423486
0.6789266241
0.6900688176
0.6873411279
0.6615203506
0.6289998634
0.6214978428
0.6184846757
0.6099553794
0.5860861681
0.5636893841
0.5130174595
0.4863100702
0.4487843259
0.4536569562
0.4517194727
0.4425926704
0.4554919905
0.4418635942
0.4575334652
0.436889746
0.4495038431
0.455843757
0.4488896677
0.4476728887
0.462673034
0.4720919055
0.4700470504
0.4571746756
0.4691371325
0.4666118767
0.4719425641
0.4643756178
0.4725809005
0.4743558737
0.4857153799
0.4858745551
0.501316547
0.4980543966
0.4910258027
0.4720280857
0.4881390674
0.4863100702
)
;
    }
    obstacle
    {
        type            calculated;
        value           nonuniform 0();
    }
    frontAndBack
    {
        type            empty;
    }
    procBoundary3to1
    {
        type            processor;
        value           nonuniform List<scalar> 
36
(
0.7311956512
0.678609823
0.6904163801
0.7119368345
0.7182336288
0.7323808852
0.7323808852
0.6536876542
0.6318707098
0.6424040598
0.6587538647
0.6460562449
0.6460562449
0.5790633169
0.5892037865
0.6096522976
0.6068093506
0.6094557614
0.6094557614
0.5484445893
0.5767284263
0.5680795878
0.5787218241
0.5787647555
0.6044798993
0.6044798993
0.5180726098
0.52431039
0.5298860238
0.5348503884
0.545502946
0.5413976439
0.5413976439
0.4971729282
0.4975797761
0.4975797761
)
;
    }
    procBoundary3to2
    {
        type            processor;
        value           nonuniform List<scalar> 
19
(
0.5067278015
0.5056598137
0.5012413945
0.5033261542
0.4961269117
0.5015443918
0.5164061466
0.4997441706
0.5098110498
0.5277889251
0.5169285732
0.5245535738
0.5194225779
0.5008712225
0.5091610262
0.5115227954
0.5084470279
0.471574564
0.4433578912
)
;
    }
}


// ************************************************************************* //
