/*--------------------------------*- C++ -*----------------------------------*\
  =========                 |
  \\      /  F ield         | OpenFOAM: The Open Source CFD Toolbox
   \\    /   O peration     | Website:  https://openfoam.org
    \\  /    A nd           | Version:  7
     \\/     M anipulation  |
\*---------------------------------------------------------------------------*/
FoamFile
{
    version     2.0;
    format      ascii;
    class       volScalarField;
    location    "0.005";
    object      p;
}
// * * * * * * * * * * * * * * * * * * * * * * * * * * * * * * * * * * * * * //

dimensions      [1 -1 -2 0 0 0 0];

internalField   nonuniform List<scalar> 
654
(
2.555491601
2.578791883
2.596281271
2.601970834
2.582574087
2.542042208
2.492514062
2.053298158
2.144933661
2.229598387
2.316845038
2.374439077
2.462274445
2.49458043
2.564025032
2.559218418
2.525166222
2.530507252
1.271581916
1.370870867
1.522684868
1.639086419
1.726922869
1.86446455
2.00816764
2.118533863
2.194186355
2.24181456
2.294690133
2.367786632
2.421614272
2.499126344
2.460534585
2.44866895
0.7099975049
0.7656518439
0.8140242979
0.8631385463
0.924580984
0.9966453324
1.103689566
1.191761368
1.297551886
1.416672922
1.523179361
1.652799402
1.771739422
1.892242515
2.003922732
2.086530194
2.205588645
2.272163202
2.297425438
2.364862662
2.400989729
2.384254554
0.4969219162
0.5126299731
0.5296964333
0.5575851865
0.5866142797
0.610767153
0.6336550465
0.6724765009
0.7182396801
0.7805737823
0.8307864684
0.8835345591
0.9583296994
1.050486864
1.130179971
1.244132535
1.375396361
1.461846178
1.587984983
1.711191767
1.825923931
1.939929758
2.000357387
2.120846867
2.199807343
2.271753044
2.325597023
2.338221117
0.4538570213
0.4715160968
0.4691138712
0.4909324466
0.5043070951
0.5239484935
0.5382766115
0.5579032832
0.5834253724
0.6093271
0.6590052584
0.6953589432
0.7393055367
0.7959089735
0.8690708763
0.9315654496
1.003025077
1.095224168
1.169103978
1.276139434
1.396564574
1.481593295
1.606461168
1.750654435
1.841386729
1.943440508
2.03949029
2.104335666
2.167568195
2.279527611
0.4574559734
0.4494481659
0.4605467222
0.4685647166
0.4805922924
0.4920942866
0.5177331261
0.5355268053
0.5462968266
0.5681277532
0.5887613663
0.6306046189
0.6651670723
0.7168375205
0.7553846475
0.8261676618
0.8813136339
0.9542684738
1.044914715
1.123312447
1.217200135
1.341073209
1.414831226
1.531764884
1.656385768
1.784401284
1.850152358
1.965333378
2.074476584
2.14278643
0.4287303199
0.4327316726
0.4545230266
0.4592725448
0.464793867
0.4765775381
0.4937518343
0.5067930737
0.5182105987
0.5230109472
0.5556928685
0.5864624636
0.6138476894
0.649314237
0.6883058479
0.725130285
0.7892660019
0.8585200461
0.8985079354
0.9750417355
1.051295298
1.155016258
1.241633861
1.341594196
1.49115508
1.611350008
1.758626661
1.822149667
1.912920539
2.000195411
0.4262925224
0.4274771483
0.4329049492
0.4441489407
0.4533376585
0.4651115223
0.4866041014
0.494375385
0.4999263078
0.5211405821
0.5305457386
0.5454594929
0.5689578687
0.5907549457
0.6318894901
0.6526347138
0.7128681452
0.7663332209
0.8042586005
0.8436048499
0.9257275367
1.014825823
1.10511376
1.216856192
1.310921629
1.42546154
1.581779744
1.674258846
1.762995153
1.86083987
0.4408985258
0.4387461613
0.4371488031
0.4426244043
0.4563454504
0.4562108674
0.463823983
0.4752856404
0.4737819398
0.4836420854
0.506750316
0.5215343205
0.5248460982
0.5511084956
0.5884816846
0.6031966112
0.6400510457
0.6731488611
0.7164743757
0.7600324121
0.8111524371
0.9039148954
1.002321774
1.070585722
1.172589839
1.23826875
1.361974261
1.480453528
1.578353573
1.715613968
0.4264681482
0.4318010426
0.4311947028
0.4377748585
0.442518409
0.4498390685
0.4570756614
0.4604203503
0.4671007074
0.4715981714
0.4793455015
0.5021830368
0.5014307035
0.5196230132
0.5276022835
0.5689346219
0.5816433196
0.6208285441
0.6751423444
0.7150168685
0.7380766993
0.7793158228
0.8510291593
0.9398251698
1.02081882
1.106955073
1.190465562
1.323007499
1.453387881
1.557770948
0.4184723199
0.4229783486
0.4300551616
0.4214796214
0.4275617817
0.4333839318
0.4370696483
0.4481666519
0.460894282
0.4538945896
0.4578357014
0.4754900883
0.4861374828
0.4894073773
0.5084034345
0.5343842301
0.5582864425
0.578315122
0.6094422879
0.6497340522
0.6915977885
0.7174380981
0.7697522237
0.8199899727
0.9155996243
0.9960816197
1.051286585
1.159284309
1.261203709
1.383419615
0.4368430745
0.4276355834
0.4238619459
0.4249836898
0.4220510403
0.4293487032
0.4360596069
0.4391907429
0.4475470223
0.4582787634
0.4567657155
0.4489488337
0.4648191098
0.4844194671
0.4929259948
0.5077876378
0.5290280878
0.5379417072
0.5584599848
0.5937403505
0.6362272586
0.6681640805
0.7041219117
0.7525248935
0.7794578104
0.8650967099
0.9462616594
1.011003814
1.127554853
1.225684976
0.4128144591
0.4168100365
0.4239707966
0.4268622266
0.4225434453
0.4237037996
0.4264034131
0.4232927058
0.4238571347
0.4354740784
0.4430233329
0.4564299351
0.4540207333
0.46188261
0.4741893574
0.493756138
0.4944411533
0.5380323907
0.5400390256
0.5727790632
0.583985726
0.6241279
0.6430788502
0.6719162763
0.7214909888
0.7578396445
0.8326366465
0.9024699379
0.9777751163
1.047623064
0.4140398157
0.4153713819
0.411711799
0.4061746281
0.4093896754
0.4072428687
0.4145850176
0.4190449016
0.4246471885
0.4223352262
0.4360404723
0.4386260745
0.4474406075
0.4546290943
0.4573036517
0.4703626733
0.4953657435
0.4986985282
0.5089082448
0.5378947985
0.552250905
0.565940226
0.5905577024
0.6286216097
0.6581172157
0.6885851536
0.7482871491
0.8028762105
0.8673062021
0.9545584014
0.4096422985
0.4138590229
0.4154667972
0.4146149214
0.4221750752
0.4227089906
0.4180194415
0.4175258549
0.4190751786
0.4223676005
0.4231704664
0.4395732684
0.4397406575
0.452928349
0.4483356424
0.4636184303
0.4663064368
0.4886659474
0.4902603013
0.5082004704
0.5190385693
0.5326126185
0.5679859139
0.5860821129
0.6148330966
0.6345071344
0.6725293868
0.7230123621
0.7919616611
0.8562818885
0.4230203732
0.4192791552
0.4169425361
0.4149555328
0.4160151523
0.4163652969
0.4226273886
0.4219241776
0.4270064027
0.4325992549
0.4362523212
0.4351457844
0.4434228317
0.4455442057
0.4564252256
0.4559095393
0.4581547598
0.4601919455
0.4701001695
0.4887109027
0.5052935516
0.5239265102
0.5215647388
0.540267008
0.5690027786
0.5992743525
0.6240077037
0.6641791778
0.7100617551
0.7761161788
0.4162406991
0.4125481021
0.4139770668
0.4217848559
0.4264845117
0.4281348427
0.4275900098
0.4339545311
0.4318705505
0.4324296923
0.4325508893
0.4363612284
0.4335351424
0.4368442346
0.4416259197
0.4392697655
0.4458353942
0.4578408406
0.4659741137
0.475551908
0.4768395974
0.4879528331
0.5032815796
0.510790472
0.5267922507
0.5599774097
0.5883454193
0.598594329
0.644853911
0.6865663994
0.4203852159
0.4223684528
0.4234319356
0.4145770582
0.4170218153
0.4183334662
0.4309596013
0.427779647
0.4404927729
0.438352875
0.4287635701
0.4271833476
0.4275670048
0.4283923026
0.4340724155
0.4354640993
0.4314207236
0.4394991802
0.4423957381
0.4493186031
0.4603196571
0.4639427611
0.4743270862
0.4979661493
0.5099064687
0.5421413776
0.55766333
0.5834770716
0.6074358618
0.6440323877
0.402614295
0.4031738187
0.4081023805
0.4147516665
0.4136806803
0.4139420188
0.4152583009
0.4189633556
0.4153017501
0.4169590692
0.4302323811
0.4257330492
0.4253708453
0.4295098598
0.4349497742
0.4365416237
0.4436026826
0.4408567657
0.4443631775
0.4466901898
0.4501394875
0.4654492343
0.4697476033
0.4749665218
0.4874303114
0.4981456455
0.5376726735
0.5398128334
0.564688451
0.5915781687
0.4145726233
0.4182266329
0.4175560978
0.4133131287
0.4161500925
0.4170098795
0.412343702
0.4080883686
0.4100791871
0.4128769663
0.4112109328
0.4188938877
0.4239776384
0.4270456965
0.4260569301
0.4271217269
0.4287189668
0.4279867449
0.4278049665
0.4313786237
0.4391837443
0.4507812872
0.456572276
0.4685703639
0.4681602422
0.4769178453
0.4935287128
0.5219137815
0.5417648156
0.5578964573
0.4174528128
0.4149227374
0.4178697865
0.4164720365
0.4175176868
0.4167648886
0.4220554225
0.4160815359
0.4170129683
0.4121028327
0.4078832623
0.4108777073
0.4231144524
0.4219994214
0.4326286021
0.4254557809
0.4225877138
0.4267123525
0.4316048703
0.4314041184
0.4285918444
0.4346787164
0.4440675791
0.4607121868
0.4670383469
0.4755841406
0.4839443874
0.4939995091
0.5044305305
0.5253213685
0.4208413505
0.4173858266
0.4164957939
0.4185918731
0.4179438497
0.4109268817
0.4127721746
0.415795099
0.4173332839
0.4172744712
0.4209541984
0.4153245673
0.41141802
0.4049530192
0.4104858334
0.4150896283
0.416432255
0.4267538945
0.4299132994
0.4352402095
0.4280252721
0.429276999
0.435532499
0.439436507
0.4490147668
0.4478945
0.4676234977
0.4718340163
0.4894508463
0.5002827715
0.4015897517
0.4040727253
0.4029593493
0.3981260005
0.3934094636
0.4004810515
0.4042301929
0.4075743337
0.404943438
0.4058785923
0.4064468767
0.4048137891
0.4086133398
0.4097371526
0.413112734
0.4095488483
0.4106108968
0.4144444971
0.4179286056
0.4170679247
0.4274699115
0.4291474674
0.4260360017
0.430216615
0.4304929278
0.4277651906
0.4328670584
0.4473227316
0.4575426063
0.4712438388
)
;

boundaryField
{
    flow
    {
        type            calculated;
        value           nonuniform List<scalar> 
55
(
2.555491601
2.492514062
2.530507252
2.44866895
2.384254554
2.338221117
2.279527611
2.14278643
2.000195411
1.86083987
1.715613968
1.557770948
1.383419615
1.225684976
1.047623064
0.9545584014
0.8562818885
0.7761161788
0.6865663994
0.6440323877
0.5915781687
0.5578964573
0.5253213685
0.5002827715
0.4712438388
0.4015897517
0.4040727253
0.4029593493
0.3981260005
0.3934094636
0.4004810515
0.4042301929
0.4075743337
0.404943438
0.4058785923
0.4064468767
0.4048137891
0.4086133398
0.4097371526
0.413112734
0.4095488483
0.4106108968
0.4144444971
0.4179286056
0.4170679247
0.4274699115
0.4291474674
0.4260360017
0.430216615
0.4304929278
0.4277651906
0.4328670584
0.4473227316
0.4575426063
0.4712438388
)
;
    }
    obstacle
    {
        type            calculated;
        value           nonuniform 0();
    }
    frontAndBack
    {
        type            empty;
    }
    procBoundary3to1
    {
        type            processor;
        value           nonuniform List<scalar> 
36
(
2.435975434
2.634927731
2.641819093
2.610218397
2.570146372
2.563202249
2.563202249
2.200918625
2.329267126
2.384158399
2.431868775
2.536836541
2.536836541
1.465382679
1.569493788
1.725993857
1.815152313
1.957832278
1.957832278
0.7834346343
0.8454852797
0.916645458
1.00056265
1.077196647
1.180534001
1.180534001
0.525552312
0.5421555744
0.5786574259
0.6022412295
0.6273449958
0.6754247727
0.6754247727
0.4750694482
0.4759759509
0.4759759509
)
;
    }
    procBoundary3to2
    {
        type            processor;
        value           nonuniform List<scalar> 
19
(
0.4471113369
0.4417798225
0.4298135292
0.421546492
0.429988758
0.4125496232
0.4253688066
0.4272950253
0.4188927639
0.4166042524
0.4126436455
0.4170467544
0.4191196256
0.419074492
0.4057361958
0.4165929287
0.421511939
0.4178072649
0.4007230634
)
;
    }
}


// ************************************************************************* //
