/*--------------------------------*- C++ -*----------------------------------*\
  =========                 |
  \\      /  F ield         | OpenFOAM: The Open Source CFD Toolbox
   \\    /   O peration     | Website:  https://openfoam.org
    \\  /    A nd           | Version:  7
     \\/     M anipulation  |
\*---------------------------------------------------------------------------*/
FoamFile
{
    version     2.0;
    format      ascii;
    class       volScalarField;
    location    "0.005";
    object      rhoM;
}
// * * * * * * * * * * * * * * * * * * * * * * * * * * * * * * * * * * * * * //

dimensions      [1 -3 0 0 0 0 0];

internalField   nonuniform List<scalar> 
654
(
3.974315662e-06
2.53171417e-06
4.652091526e-06
2.024913369e-06
1.950839867e-06
7.59277348e-06
4.825303495e-06
5.106648805e-06
4.976485443e-06
5.107363028e-06
3.286396557e-06
1.971358923e-06
4.610714209e-06
4.470259684e-06
6.535653124e-06
3.994257225e-06
4.780802425e-06
6.906762337e-06
3.071654004e-06
4.855004475e-06
4.304433677e-06
6.723802219e-06
1.802588655e-06
4.328127942e-06
7.421222362e-06
2.641446893e-06
1.95413146e-06
4.570066531e-06
3.977785678e-06
4.652091485e-06
4.694218139e-06
4.644537181e-06
2.625108517e-06
2.743844741e-06
4.036309689e-06
2.95113189e-06
4.100159595e-06
6.482937328e-06
1.225196631e-06
7.741028511e-06
8.468235348e-06
4.771575665e-06
3.713549353e-06
5.021132633e-06
3.260941026e-06
4.328127905e-06
3.055921149e-06
1.937202486e-06
6.395728369e-06
5.108102349e-06
3.887678467e-06
5.199784182e-06
3.866348377e-06
4.55195965e-06
6.843065076e-06
4.068616629e-06
2.797462722e-06
3.73320751e-06
2.763211436e-06
3.944178338e-06
2.805581888e-06
4.005124704e-06
4.194072989e-06
4.067984146e-06
5.868818008e-06
2.917419425e-06
4.737951717e-06
2.964691448e-06
3.487391039e-06
2.427502238e-06
5.40208074e-06
4.936306599e-06
5.063529639e-06
4.328127905e-06
7.071072886e-06
4.578649324e-06
4.3530645e-06
2.688020475e-06
6.419392559e-06
2.645349985e-06
2.669304747e-06
4.644537181e-06
5.343648268e-06
4.162917558e-06
2.160609106e-06
4.203516303e-06
2.192753567e-06
5.409079302e-06
4.298739772e-06
5.722633155e-06
3.896745745e-06
4.161669044e-06
1.187037752e-06
6.939615341e-06
3.054603163e-06
4.78094663e-06
1.715668815e-06
4.117737153e-06
1.826442934e-06
2.427502277e-06
4.979439672e-06
4.340474833e-06
5.921019215e-06
1.904209503e-06
5.674681325e-06
6.252555683e-06
3.731198175e-06
3.404682056e-06
3.887678501e-06
5.381615946e-06
3.866348411e-06
4.644537181e-06
3.93766274e-06
6.81246137e-06
6.63033975e-06
5.929443981e-06
2.192753599e-06
2.666576793e-06
2.686712357e-06
2.707154327e-06
3.896745774e-06
2.827258131e-06
6.329597057e-07
4.546909564e-06
6.351531398e-06
4.29438475e-06
4.737951717e-06
2.882614403e-06
2.98890659e-06
3.013520585e-06
4.220312077e-06
3.233637093e-06
5.063529681e-06
5.106648805e-06
3.754116952e-06
1.232958046e-06
5.151995644e-06
6.092702501e-06
3.797571188e-06
2.554434127e-06
6.074740106e-06
4.922269652e-06
2.625108517e-06
3.406230685e-06
8.12084826e-06
4.803760387e-06
2.11739262e-06
5.333153585e-07
3.377052986e-06
6.185119953e-07
1.636745861e-06
5.104719037e-06
4.590387745e-06
7.657042781e-06
2.331501291e-06
6.402169075e-06
5.800313542e-06
2.882614403e-06
2.98890659e-06
5.524451716e-06
3.713549353e-06
2.46815334e-06
1.888130855e-06
3.894689588e-06
2.531748524e-06
3.082395141e-06
4.530129282e-06
5.018789483e-06
4.700821495e-06
3.374874422e-06
3.866348377e-06
1.950839867e-06
2.718539774e-06
4.825303539e-06
3.725373774e-06
3.227441761e-06
5.293481589e-06
4.875763983e-06
3.914395458e-06
2.165723461e-06
2.805581866e-06
5.182991277e-06
4.669269395e-06
5.822763161e-06
4.020030157e-06
3.484749595e-06
3.512755059e-06
3.459137284e-06
3.487391039e-06
5.607880565e-06
2.447658995e-06
4.170822892e-06
3.690719511e-06
3.20243936e-06
4.452312855e-06
3.082395115e-06
3.109331786e-06
7.166615519e-07
7.775356866e-06
5.199784136e-06
4.602478976e-06
2.135994848e-06
3.281385617e-06
4.73100253e-06
4.768550219e-06
3.227441738e-06
3.780798021e-06
4.494300104e-06
5.449923834e-06
3.47982862e-06
4.519999859e-06
5.026446874e-06
3.957428039e-06
3.988483451e-06
4.502743642e-06
5.509813535e-06
4.0846447e-06
3.541214305e-06
3.071654004e-06
3.68296781e-06
4.388555313e-06
5.021132633e-06
4.377124596e-06
7.097128921e-06
2.924580733e-289
4.490883962e-06
3.819730547e-06
4.570066531e-06
3.164642657e-06
3.374874392e-06
8.65230556e-06
4.737114629e-06
6.093356672e-06
2.649543775e-06
2.682197348e-06
4.353125388e-06
2.722101758e-06
7.009025365e-06
3.761397272e-06
2.784235452e-06
5.688835788e-06
4.948174598e-06
1.819997453e-06
2.392705778e-06
6.994503819e-06
2.269320863e-06
4.656534277e-06
3.046768445e-06
6.724539843e-06
4.938433324e-06
2.954421769e-06
6.04314442e-06
2.488993741e-06
3.980960233e-06
3.316955962e-06
6.869034711e-06
6.039459124e-06
4.570066531e-06
4.067892958e-06
5.199784182e-06
7.455262073e-06
5.294817137e-06
8.718465244e-06
4.068616629e-06
3.203785574e-06
5.02817392e-06
4.914855358e-06
3.885059022e-06
3.7613973e-06
3.867097183e-06
2.182327815e-06
2.277460945e-06
4.511506095e-06
4.626410228e-06
3.457187201e-06
5.186740323e-06
3.103700279e-06
6.505905729e-06
5.895065813e-06
1.255465563e-06
5.402080784e-06
6.127970323e-06
5.493308166e-06
3.116168714e-06
3.142932753e-06
6.428086431e-06
6.661325487e-06
6.54142551e-06
4.610714249e-06
5.838392668e-06
4.694218139e-06
2.786274829e-06
2.718539799e-06
4.825303495e-06
2.682197329e-06
4.953369373e-06
4.914855322e-06
4.570225894e-06
6.216763501e-06
3.944178338e-06
3.273491723e-06
6.59756618e-06
2.928153578e-06
7.976966903e-06
5.225845497e-06
1.70199066e-06
3.594172461e-06
5.352859925e-06
4.15137026e-06
4.771575627e-06
3.038543369e-06
6.212796326e-06
6.094171102e-06
7.010858334e-06
7.158084549e-06
7.661044542e-06
3.731198175e-06
6.452112587e-06
4.067892958e-06
6.111140312e-06
5.522087818e-06
6.222829564e-06
3.374816898e-06
2.649543775e-06
5.587163345e-06
1.651123148e-06
2.646740775e-06
6.018320412e-06
3.300553908e-06
3.790016058e-06
3.896745774e-06
6.36085785e-06
2.928153578e-06
2.871631248e-06
2.41163078e-06
6.56370563e-06
7.10692752e-06
3.046768445e-06
1.743695506e-06
1.841483905e-06
4.304433712e-06
4.936306679e-06
4.977987481e-06
5.540087169e-06
2.792783337e-06
5.019597541e-06
2.487465428e-06
4.480753664e-06
9.041213929e-06
5.290700017e-06
4.602478976e-06
4.271989697e-06
4.031094021e-06
3.50053162e-06
3.651117558e-06
5.4040044e-06
4.611590056e-06
4.64615165e-06
5.526422872e-06
4.408528081e-06
3.428835943e-06
3.377055316e-06
2.849271928e-06
5.343837668e-06
6.191272459e-06
2.998187705e-06
2.368975859e-06
3.046768445e-06
2.324927341e-06
4.771575627e-06
5.654445585e-06
4.25564888e-06
5.493308166e-06
6.75204634e-06
3.055921149e-06
4.315353197e-06
6.307195997e-06
5.646138168e-06
3.977785678e-06
5.381615851e-06
6.166479214e-06
6.130252074e-06
5.343648316e-06
4.162917633e-06
2.160609106e-06
5.404004439e-06
1.66340544e-06
4.494300137e-06
7.138450339e-06
2.784235473e-06
7.403253734e-06
4.476649654e-06
5.698543856e-06
5.743262453e-06
5.788688447e-06
3.484749623e-06
7.188344979e-06
4.694260066e-06
2.988906614e-06
5.44102291e-06
4.979439631e-06
6.212796275e-06
4.892445281e-06
4.24185726e-06
6.984061341e-06
4.315353197e-06
6.307195997e-06
3.942717845e-06
4.700821495e-06
2.645350032e-06
4.510739773e-06
3.994257189e-06
5.343648268e-06
3.406230654e-06
4.768550253e-06
5.329199928e-06
4.310146204e-06
6.018320456e-06
5.526422872e-06
3.325666318e-06
3.974417872e-06
2.199188727e-06
2.295193855e-06
3.430057339e-06
5.386104477e-06
4.29438475e-06
4.73795168e-06
3.459137284e-06
6.393550187e-06
5.943612321e-06
4.388555277e-06
3.063985186e-06
3.690719511e-06
5.020378201e-06
5.674681277e-06
5.019597584e-06
5.773862007e-06
3.764092145e-06
3.797571222e-06
5.747476786e-06
5.338609541e-06
3.901679735e-06
4.967664987e-06
2.743844741e-06
7.151927973e-06
5.329199928e-06
6.427538824e-06
5.027615459e-06
5.526422872e-06
7.26984468e-06
2.259999913e-06
7.225635563e-06
4.669269395e-06
6.142687285e-06
5.868817962e-06
2.8366511e-06
7.597399786e-06
2.964691448e-06
3.652885868e-06
4.185557313e-06
5.992965186e-06
3.914294861e-06
6.86611828e-06
5.19291945e-06
4.539324422e-06
6.340321031e-06
2.487465428e-06
5.018789483e-06
2.621821393e-06
3.374874422e-06
6.074740052e-06
7.89593696e-06
4.124525302e-06
3.406230654e-06
6.929159325e-06
4.803760352e-06
2.722101738e-06
4.418374381e-06
2.763211436e-06
5.027040039e-06
4.987909682e-06
1.727663759e-06
5.1444658e-06
4.546909564e-06
4.180289097e-06
3.48474965e-06
1.143779228e-06
2.388168544e-06
1.826442934e-06
3.013520609e-06
4.220312042e-06
2.552979272e-06
6.436339852e-06
4.500669196e-06
4.976485401e-06
7.485513676e-06
6.218663624e-07
2.509394741e-06
3.887678433e-06
5.290700017e-06
6.810870671e-06
4.179412206e-06
4.031094058e-06
5.487689533e-06
3.651117611e-06
8.706250775e-06
3.780798076e-06
3.73320751e-06
4.37523885e-06
5.79971428e-06
2.883253964e-06
3.455327518e-06
4.748151045e-06
6.860114678e-06
4.582873076e-06
4.132848113e-06
2.287558437e-06
3.541214305e-06
7.057529436e-06
3.76639666e-06
6.836214348e-06
4.340474833e-06
5.063529681e-06
1.194496589e-05
1.92056431e-06
1.232958056e-06
4.44159691e-06
5.197415216e-06
4.700821454e-06
3.922567072e-06
3.958087574e-06
4.086834716e-06
3.281385617e-06
5.581990399e-06
4.768550219e-06
3.678076765e-06
3.780798049e-06
6.627561571e-06
5.065579479e-06
4.331446955e-06
1.714417959e-06
4.948174635e-06
5.06558415e-06
1.913780329e-06
3.134732657e-06
3.971311571e-06
1.715668828e-06
2.388168525e-06
4.815349509e-06
6.946774911e-06
7.174733845e-06
2.979159233e-06
3.690719542e-06
5.020378201e-06
3.22994433e-06
2.553681492e-06
5.685329634e-06
5.376040949e-06
4.067892958e-06
4.561175604e-06
7.271783682e-06
1.950839867e-06
5.343648268e-06
5.013905472e-06
7.003415541e-06
2.627197709e-06
3.780798049e-06
4.342448593e-06
5.91076723e-06
5.568470946e-06
6.312089882e-06
5.261263439e-06
1.741115804e-06
5.822763161e-06
8.200319253e-06
4.132848145e-06
3.757007296e-06
4.117737186e-06
3.652885839e-06
3.013520609e-06
3.545306151e-06
3.659817033e-06
3.004314426e-06
8.050276202e-06
6.897049736e-06
3.874404939e-06
1.243732714e-06
2.509394763e-06
3.344857176e-06
6.749748844e-06
3.313696143e-06
5.945097039e-06
2.718539774e-06
6.812461308e-06
3.651117584e-06
2.627197709e-06
2.268114547e-06
3.73320751e-06
5.526422872e-06
5.955739563e-06
7.247909594e-06
5.732788419e-06
3.007035228e-06
4.626410228e-06
4.180289097e-06
6.56370563e-06
6.862675312e-06
3.459137284e-06
5.313833973e-06
4.855004514e-06
4.220312042e-06
1.872321478e-06
4.462666796e-06
1.817938841e-06
4.365301213e-06
7.661044477e-06
5.240528017e-06
6.36279972e-06
5.243642786e-06
9.304182971e-06
5.430348656e-06
2.693697314e-06
3.281385647e-06
4.731002616e-06
3.79962999e-06
4.878564898e-06
5.51956448e-06
6.018320456e-06
3.300553908e-06
6.10990177e-06
4.052089969e-06
6.047769044e-06
2.770390278e-06
3.988483451e-06
5.145716027e-06
3.484749623e-06
6.862675366e-06
2.882614403e-06
8.30274052e-06
4.268986162e-06
4.979439672e-06
2.979159233e-06
6.179713252e-06
1.817938826e-06
4.365301213e-06
6.515851887e-06
6.307195997e-06
2.598707608e-06
1.898785594e-06
4.652091485e-06
4.049826737e-06
3.43655476e-06
2.625108494e-06
2.649543751e-06
)
;

boundaryField
{
    flow
    {
        type            zeroGradient;
    }
    obstacle
    {
        type            calculated;
        value           nonuniform 0();
    }
    frontAndBack
    {
        type            empty;
    }
    procBoundary3to1
    {
        type            processor;
        value           nonuniform List<scalar> 
36
(
6.906762337e-06
2.531714126e-06
3.283958512e-06
3.313696143e-06
6.037674583e-06
6.749633796e-06
6.749633796e-06
4.500669196e-06
3.928140159e-06
4.403118524e-06
5.773861958e-06
3.942717879e-06
3.942717879e-06
1.743695519e-06
3.51611014e-06
6.077086738e-06
3.063985161e-06
4.291582396e-06
4.291582396e-06
3.957428039e-06
3.988483451e-06
4.582873112e-06
3.40398132e-06
4.328896875e-06
3.541214305e-06
3.541214305e-06
4.46086813e-06
3.809133266e-06
2.686712377e-06
5.027040076e-06
3.273491723e-06
5.33953568e-06
5.33953568e-06
5.960239139e-06
2.627197728e-06
2.627197728e-06
)
;
    }
    procBoundary3to2
    {
        type            processor;
        value           nonuniform List<scalar> 
19
(
3.327905427e-06
3.698266581e-06
2.662680672e-06
3.698266555e-06
2.071171818e-06
5.769438399e-06
5.916870242e-06
4.955000191e-06
4.216059536e-06
3.106757727e-06
6.360947254e-06
5.325361345e-06
4.881284291e-06
3.401621303e-06
2.144887733e-06
3.254189527e-06
6.582094954e-06
4.66013659e-06
2.071171818e-06
)
;
    }
}


// ************************************************************************* //
