/*--------------------------------*- C++ -*----------------------------------*\
  =========                 |
  \\      /  F ield         | OpenFOAM: The Open Source CFD Toolbox
   \\    /   O peration     | Website:  https://openfoam.org
    \\  /    A nd           | Version:  7
     \\/     M anipulation  |
\*---------------------------------------------------------------------------*/
FoamFile
{
    version     2.0;
    format      ascii;
    class       volScalarField;
    location    "0.005";
    object      rhoM;
}
// * * * * * * * * * * * * * * * * * * * * * * * * * * * * * * * * * * * * * //

dimensions      [1 -3 0 0 0 0 0];

internalField   nonuniform List<scalar> 
654
(
1.381352467e-05
1.066750016e-05
1.176770132e-05
1.463530666e-05
1.086736675e-05
8.625033885e-06
1.296253668e-05
1.047419464e-05
6.372877111e-06
9.069533401e-06
9.593592554e-06
1.147090207e-05
1.383214263e-05
9.851875535e-06
1.04020015e-05
7.98851445e-06
1.012445069e-05
8.137233258e-06
6.724539843e-06
6.02704117e-06
9.031508507e-06
9.107129606e-06
8.583164792e-06
8.656255883e-06
8.467464613e-06
9.510481546e-06
1.554451931e-05
8.961507328e-06
6.419392559e-06
1.514257564e-05
1.472704582e-05
1.15176467e-05
9.468173655e-06
1.599156362e-05
5.223347451e-06
3.350556675e-06
5.305974966e-06
8.752258208e-06
1.160062708e-05
6.505905729e-06
5.313833931e-06
8.957132978e-06
4.472676914e-06
6.893454126e-06
7.466981222e-06
8.136546848e-06
8.81761403e-06
9.510481626e-06
1.350185547e-05
1.200677927e-05
1.392224999e-05
1.194953308e-05
1.242691485e-05
1.068221167e-05
1.546809896e-05
1.106967993e-05
8.166305275e-06
3.809133266e-06
7.291448444e-06
3.248585216e-06
4.519999859e-06
6.204313447e-06
4.590387745e-06
5.584261168e-06
5.225845578e-06
4.700178402e-06
4.575116911e-06
5.765228853e-06
7.804256162e-06
9.040561755e-06
7.765618136e-06
4.936306599e-06
7.552523359e-06
5.540087123e-06
8.206429731e-06
8.806237047e-06
4.974930857e-06
1.093286625e-05
9.131321174e-06
9.122351128e-06
1.10463929e-05
1.57896364e-05
1.4248976e-05
4.73100253e-06
3.725373774e-06
5.4040044e-06
3.856158984e-06
5.942394656e-06
2.225868965e-06
4.872877788e-06
6.312089834e-06
4.47664962e-06
3.403349958e-06
6.379267763e-07
5.225845497e-06
5.754070458e-06
2.287558419e-06
3.623291297e-06
5.396581388e-06
4.771575704e-06
4.220312111e-06
8.000291866e-06
5.149071924e-06
6.924587746e-06
6.810038189e-06
3.78663957e-06
8.794661447e-06
1.030551765e-05
1.301899983e-05
4.743007408e-06
9.021479626e-06
1.272562912e-05
8.811896446e-06
9.650607078e-06
4.842806435e-06
3.302246273e-06
4.385507199e-06
3.351743664e-06
3.914395458e-06
3.325666318e-06
6.312089882e-06
6.754110633e-06
2.770390278e-06
9.970247895e-06
4.663002546e-06
3.484749623e-06
5.309841331e-06
3.541214305e-06
5.97781318e-06
6.613059517e-06
5.317959184e-06
4.25564888e-06
8.754249192e-06
6.146066731e-06
6.19885385e-06
7.044565454e-06
8.349859829e-06
7.706809957e-06
7.775356866e-06
9.942791503e-06
9.113218789e-06
1.133249172e-05
9.937588221e-06
8.231534224e-06
5.364394696e-06
5.478808951e-06
4.23478524e-06
4.494300137e-06
6.140264422e-06
4.021259464e-06
4.519999825e-06
3.926852473e-06
3.957428039e-06
4.705910891e-06
3.939900686e-06
4.700178402e-06
5.391258734e-06
5.352859968e-06
2.407674755e-06
4.185557313e-06
7.511220308e-06
4.25564888e-06
5.578850366e-06
4.847836869e-06
5.063497047e-06
1.206416314e-05
7.017594732e-06
8.423471509e-06
8.588499962e-06
5.199784136e-06
7.455262006e-06
8.731371897e-06
1.08741591e-05
9.650607078e-06
5.290138442e-06
2.627197709e-06
5.293481589e-07
7.16087693e-06
7.675792758e-06
3.944178308e-06
6.156745687e-06
5.654516261e-06
3.957428039e-06
4.226985475e-06
1.12568591e-06
5.754070458e-06
4.003227266e-06
3.459137284e-06
7.223024322e-06
4.185557313e-06
3.797670893e-06
1.055327107e-05
6.866118337e-06
1.00407564e-05
4.278289645e-06
7.661044477e-06
9.5050601e-06
6.900835539e-06
7.865464111e-06
7.115609731e-06
9.296697115e-06
5.852519602e-06
1.284299047e-05
8.988221053e-06
6.034495312e-06
4.953369373e-06
3.931519946e-06
2.666576773e-06
4.451737962e-06
2.707154367e-06
6.389762027e-06
8.560046594e-06
4.590387745e-06
4.546909564e-06
4.582873112e-06
3.403981347e-06
4.003227297e-06
5.51701401e-06
4.898096923e-06
4.938433364e-06
4.979439672e-06
6.04314442e-06
4.291582396e-06
7.530567239e-06
1.833552674e-06
5.811607408e-06
8.261327457e-06
5.018789483e-06
6.509499803e-06
4.013482918e-06
3.405435275e-06
6.222829508e-06
9.655036131e-06
1.230015085e-05
4.39547446e-06
5.553613502e-06
5.444203517e-06
7.694192232e-06
6.830605001e-06
8.506868607e-06
4.597671888e-06
5.811060576e-06
6.410385163e-06
4.626410228e-06
2.974473693e-06
3.484749595e-06
2.859448047e-06
2.882614403e-06
3.570138425e-06
3.013520585e-06
3.545306122e-06
5.532138526e-06
3.175398826e-06
3.202439334e-06
4.278289609e-06
1.937202486e-06
5.151995644e-06
7.706809957e-06
7.232535643e-06
2.645350032e-06
1.067721908e-05
8.546216916e-06
9.655036219e-06
1.021869206e-05
4.246962027e-06
4.353125356e-06
3.251449917e-06
8.15158189e-06
4.528237008e-06
5.491389779e-06
4.597671923e-06
4.005124704e-06
3.878546389e-06
5.105335676e-06
4.582873112e-06
6.888730997e-06
7.760234593e-06
5.434936989e-06
4.649854719e-06
5.44102291e-06
5.738567186e-06
3.659817003e-06
4.291582396e-06
6.924587688e-06
4.452312817e-06
8.894002523e-06
5.151995644e-06
9.229446007e-06
3.797571222e-06
7.206525613e-06
8.56056655e-06
4.551959731e-06
5.999925446e-06
6.623859377e-06
4.694294003e-06
4.953369373e-06
6.502899787e-06
4.494300137e-06
8.442632466e-06
4.408528081e-06
3.35116382e-06
5.654516219e-06
3.561113284e-06
5.663761789e-06
5.225845497e-06
2.8366511e-06
3.512755059e-06
4.199814173e-06
3.570138425e-06
8.621401105e-06
3.545306122e-06
6.212796326e-06
7.466981284e-06
3.808418974e-06
4.278289609e-06
2.729212317e-06
5.063463272e-06
6.003389634e-06
6.689714351e-06
2.554434127e-06
4.78595726e-06
8.731371897e-06
5.343648268e-06
7.569148281e-06
4.172705811e-06
4.878564933e-06
4.914855322e-06
3.275817883e-06
6.063765344e-06
2.707154327e-06
6.234417784e-06
5.182991277e-06
4.036309689e-06
1.116852234e-06
8.120189846e-06
4.86171497e-06
4.819369082e-06
6.175613911e-06
4.15137026e-06
3.013520609e-06
3.881792556e-06
7.234808113e-06
8.839791392e-06
8.136546915e-06
1.833552689e-06
2.465916071e-06
6.484260686e-06
4.570066531e-06
6.419392559e-06
4.561175604e-06
7.180044583e-06
7.338234495e-06
8.249050604e-06
1.173206577e-05
7.003415541e-06
6.004248449e-06
6.653621713e-06
4.266522868e-06
3.990894536e-06
6.186982941e-06
3.896745803e-06
4.005124704e-06
5.777425506e-06
6.540190556e-06
3.377057705e-06
4.700178365e-06
3.594172489e-06
3.459137284e-06
3.154401418e-06
5.357593974e-06
3.545306122e-06
3.063985186e-06
7.295896822e-06
2.51018908e-06
6.285865507e-06
5.723842056e-06
3.731198175e-06
6.003389634e-06
4.520606965e-06
4.013482918e-06
4.510739773e-06
6.595377048e-06
7.405910986e-06
4.825303583e-06
3.129529336e-06
2.101758167e-06
7.636957116e-06
5.409079341e-06
4.912581358e-06
3.325666342e-06
5.688835788e-06
5.026446836e-06
2.216312222e-06
6.939615341e-06
1.205815371e-06
5.99637541e-06
8.250706803e-06
7.000351589e-06
2.407674774e-06
6.529630774e-06
4.72707483e-06
3.148811114e-06
6.350797652e-06
4.328127905e-06
3.667105379e-06
5.195128429e-06
4.530129282e-06
3.942717845e-06
4.520607004e-06
4.652091526e-06
5.338609494e-06
5.387394579e-06
5.343648268e-06
1.987157813e-06
3.278041791e-06
5.404004439e-06
5.444203477e-06
1.142556473e-06
6.140264422e-06
5.568470904e-06
2.727909769e-06
7.853704945e-06
3.403349958e-06
4.785411555e-06
5.225845537e-06
6.888730943e-06
5.472676094e-06
2.306091523e-06
4.234117674e-06
4.102128431e-06
3.12266497e-06
4.25564888e-06
4.377124596e-06
3.635877682e-06
1.833552689e-06
7.044565454e-06
9.416527809e-06
1.882046072e-06
5.876571323e-06
2.73626589e-06
5.799522617e-06
5.387394627e-06
4.687371145e-06
6.150075427e-06
5.438650873e-06
6.905518554e-06
5.444203477e-06
7.54234072e-06
4.37523885e-06
4.485609207e-06
3.896745774e-06
5.026446836e-06
4.036309689e-06
8.69439441e-06
5.868817962e-06
7.779134372e-06
6.535037962e-06
4.19981424e-06
2.988906614e-06
7.282506772e-06
6.836214348e-06
2.46815332e-06
4.206040161e-06
5.19291945e-06
5.063497047e-06
5.107362985e-06
8.706129e-06
4.391440797e-06
5.333750032e-06
3.922567072e-06
6.81087061e-06
5.852519602e-06
6.186787953e-06
5.487689433e-06
4.768550219e-06
1.028256926e-05
3.251449893e-06
5.485005098e-06
7.138450286e-06
4.485609174e-06
5.065581779e-06
3.377055316e-06
3.957428039e-06
4.705910891e-06
7.717605768e-06
7.69836613e-06
3.022282876e-06
5.270782947e-06
2.324927359e-06
7.785096274e-06
5.992965089e-06
5.532138481e-06
4.291582396e-06
3.029898043e-06
5.674681229e-06
2.641446893e-06
5.950926752e-06
7.706809957e-06
4.700821454e-06
3.831651191e-06
3.680652824e-06
2.043417358e-06
4.687371187e-06
6.150075483e-06
6.034495398e-06
4.278320876e-06
5.51956448e-06
7.16087693e-06
4.451737929e-06
2.784235452e-06
3.273491723e-06
4.633194091e-06
2.770390278e-06
2.95113189e-06
4.180289065e-06
4.700178328e-06
7.025510117e-06
6.58798275e-06
5.396581345e-06
5.021862213e-06
5.402080828e-06
2.979159233e-06
6.695033937e-06
4.414398588e-06
6.198853954e-06
2.024967887e-06
4.44159691e-06
4.121343578e-06
3.797571188e-06
7.754218263e-06
5.246870378e-06
2.693697314e-06
5.906494111e-06
6.150075371e-06
3.873886206e-06
5.4040044e-06
3.856159012e-06
4.570225894e-06
6.140264422e-06
2.707154347e-06
4.910237584e-06
9.031571509e-06
3.878546389e-06
3.988483451e-06
4.502743642e-06
3.646286256e-06
4.73795168e-06
7.082428554e-06
6.476297601e-06
9.71000895e-06
4.979439631e-06
6.638976266e-06
4.977987522e-06
2.510189101e-06
5.500658022e-06
2.465916092e-06
6.484260742e-06
4.659379397e-06
6.599607106e-06
4.013482954e-06
4.602478935e-06
2.693697314e-06
5.250216987e-06
4.919604506e-06
6.407571103e-06
2.101758167e-06
3.326810857e-06
1.599946064e-06
5.679421072e-06
8.429787545e-06
4.597671923e-06
3.377055291e-06
6.806699915e-06
4.546909599e-06
5.386104477e-06
3.97131154e-06
3.594172489e-06
3.623291326e-06
5.479328758e-06
5.441022866e-06
3.038543394e-06
9.191955559e-06
5.578850366e-06
5.712628413e-06
3.754116983e-06
5.723842008e-06
2.664530172e-06
2.59870763e-06
3.797571222e-06
3.193042659e-06
1.288782792e-06
6.965686948e-06
7.405910919e-06
6.150075371e-06
5.811726706e-06
7.655371629e-06
5.444203477e-06
6.627561571e-06
3.914395458e-06
6.72841381e-06
3.428835918e-06
3.377055291e-06
3.878546389e-06
4.546909564e-06
8.763162209e-06
4.213616447e-06
7.678817129e-06
3.459137284e-06
4.649854719e-06
7.282506772e-06
6.245329888e-06
5.021132592e-06
1.888130855e-06
5.192919493e-06
6.198853902e-06
3.082395115e-06
4.085327665e-06
6.452112587e-06
6.599607106e-06
6.202056193e-06
2.577565585e-06
6.87310952e-06
6.843065138e-06
6.9067624e-06
3.79962999e-06
4.427929867e-06
4.234785271e-06
4.266522868e-06
2.763211436e-06
3.325666318e-06
3.273491723e-06
7.460452222e-06
3.957428039e-06
5.822763116e-06
2.331501273e-06
4.052079843e-06
4.0846447e-06
5.434936989e-06
4.068622846e-06
3.013520609e-06
4.811196469e-06
3.659817033e-06
4.892445281e-06
2.51018908e-06
1.22236846e-06
8.27752357e-06
5.063463272e-06
4.570066531e-06
4.43049972e-06
1.915825595e-06
3.958087574e-06
1.393137402e-06
4.031094021e-06
6.150075371e-06
)
;

boundaryField
{
    flow
    {
        type            zeroGradient;
    }
    obstacle
    {
        type            calculated;
        value           nonuniform 0();
    }
    frontAndBack
    {
        type            empty;
    }
    procBoundary3to1
    {
        type            processor;
        value           nonuniform List<scalar> 
36
(
1.069247607e-05
8.588499887e-06
9.213267009e-06
1.113813206e-05
9.381651853e-06
9.374742289e-06
9.374742289e-06
8.656255811e-06
8.206429731e-06
1.08312049e-05
1.46570557e-05
1.012689192e-05
1.012689192e-05
9.547951681e-06
5.44102291e-06
3.038543369e-06
9.361607389e-06
9.526196477e-06
9.526196477e-06
5.223347451e-06
5.822763116e-06
4.502743642e-06
8.26569629e-06
7.841651934e-06
4.117737186e-06
4.117737186e-06
3.251449893e-06
3.885059022e-06
2.686712377e-06
3.867097212e-06
6.001401492e-06
5.57624406e-06
5.57624406e-06
3.799630017e-06
4.203516364e-06
4.203516364e-06
)
;
    }
    procBoundary3to2
    {
        type            processor;
        value           nonuniform List<scalar> 
19
(
3.771982481e-06
5.695722499e-06
7.840610217e-06
8.284687212e-06
5.916870199e-06
1.700810664e-06
3.624550707e-06
3.180473627e-06
5.251645445e-06
6.805024308e-06
3.771982481e-06
4.73385249e-06
7.766894317e-06
4.807568356e-06
4.289775467e-06
6.287231354e-06
5.251645445e-06
8.432119072e-06
4.80756839e-06
)
;
    }
}


// ************************************************************************* //
