/*--------------------------------*- C++ -*----------------------------------*\
  =========                 |
  \\      /  F ield         | OpenFOAM: The Open Source CFD Toolbox
   \\    /   O peration     | Website:  https://openfoam.org
    \\  /    A nd           | Version:  7
     \\/     M anipulation  |
\*---------------------------------------------------------------------------*/
FoamFile
{
    version     2.0;
    format      ascii;
    class       volScalarField;
    location    "0.005";
    object      rhoNMean;
}
// * * * * * * * * * * * * * * * * * * * * * * * * * * * * * * * * * * * * * //

dimensions      [0 -3 0 0 0 0 0];

internalField   nonuniform List<scalar> 
654
(
9.303032519e+19
8.497848336e+19
8.327455328e+19
8.019277773e+19
8.856113772e+19
9.261269857e+19
9.353174337e+19
7.546987332e+19
7.359972501e+19
7.532445691e+19
7.458116839e+19
7.652304824e+19
8.251210231e+19
8.403813535e+19
8.302532758e+19
8.644108522e+19
8.83955888e+19
9.575394223e+19
7.401268693e+19
7.173368672e+19
7.267496335e+19
7.31143337e+19
7.398495775e+19
7.654369588e+19
7.388888745e+19
7.863885962e+19
7.842202902e+19
7.721380636e+19
7.959926993e+19
8.292297452e+19
8.604634607e+19
8.650821089e+19
8.905610077e+19
9.406165298e+19
6.958267126e+19
7.25785818e+19
7.215525588e+19
7.258898661e+19
7.278371473e+19
7.496533217e+19
7.416768209e+19
6.864858424e+19
7.051982443e+19
7.391902703e+19
7.600075581e+19
7.387999133e+19
7.590250947e+19
7.313429916e+19
8.133209613e+19
8.214085453e+19
8.1455861e+19
8.295044228e+19
8.714388937e+19
8.699487124e+19
8.772378684e+19
9.185085086e+19
7.216893738e+19
7.180603863e+19
7.287981718e+19
7.236776644e+19
7.082005802e+19
7.193002494e+19
6.754747702e+19
7.05658465e+19
7.147742462e+19
7.318437889e+19
7.071261342e+19
7.395362809e+19
7.381269378e+19
7.290320291e+19
7.291894081e+19
7.331422447e+19
7.150914363e+19
7.330659127e+19
7.609177878e+19
8.033583345e+19
8.071156642e+19
8.023587315e+19
8.237598865e+19
8.423589799e+19
8.613503574e+19
9.314246489e+19
9.297964922e+19
9.50929799e+19
6.927588952e+19
7.071851192e+19
7.030654154e+19
7.120505478e+19
6.996776766e+19
7.238639578e+19
7.094207958e+19
6.975448233e+19
7.053115702e+19
7.165627802e+19
7.158878169e+19
7.223272707e+19
7.228684606e+19
6.872648617e+19
7.326271096e+19
7.376521818e+19
7.305617966e+19
7.324246958e+19
7.347325577e+19
7.399467258e+19
7.428320048e+19
7.865476942e+19
7.986101441e+19
7.990668442e+19
8.341589848e+19
8.237912798e+19
8.605743238e+19
9.202370368e+19
9.08061723e+19
1.000387958e+20
6.990852556e+19
7.147785731e+19
6.99468135e+19
7.014530608e+19
7.189064481e+19
7.083080086e+19
7.102655732e+19
7.18259773e+19
6.99878036e+19
7.088288788e+19
7.175339812e+19
6.998292779e+19
7.382664461e+19
7.235176177e+19
7.244773584e+19
7.641679248e+19
7.252247707e+19
7.633310703e+19
7.518926788e+19
7.478179324e+19
7.84734257e+19
8.22025061e+19
8.033710995e+19
8.394869806e+19
8.373168073e+19
8.693865484e+19
8.470490333e+19
8.79849757e+19
8.901093762e+19
9.677387413e+19
7.197693184e+19
7.242251851e+19
7.401767106e+19
7.172804843e+19
7.24268317e+19
7.422143944e+19
7.304931708e+19
7.40771893e+19
7.287615888e+19
7.130561044e+19
7.521034379e+19
7.383345347e+19
7.73194758e+19
7.610597959e+19
7.384269225e+19
7.64722443e+19
7.448446787e+19
7.689177947e+19
7.525129243e+19
7.517796056e+19
7.879413378e+19
7.771613039e+19
7.886602823e+19
8.102376913e+19
8.545215817e+19
8.638382076e+19
8.552528904e+19
9.174960718e+19
8.726086448e+19
9.489355275e+19
6.955406991e+19
7.539209941e+19
7.528355365e+19
7.562755858e+19
7.325422355e+19
7.092860773e+19
7.419914571e+19
7.625746085e+19
7.27713011e+19
7.25161347e+19
7.321073828e+19
7.527800926e+19
7.862313752e+19
7.535216042e+19
7.451767175e+19
7.51615796e+19
7.601949525e+19
7.556941656e+19
8.065259751e+19
7.80814506e+19
7.793190464e+19
7.82623434e+19
8.02729166e+19
8.173611345e+19
8.168997579e+19
8.379093278e+19
8.914496795e+19
9.182232666e+19
9.068197362e+19
9.834650567e+19
7.226857205e+19
7.508474498e+19
7.465061153e+19
7.603585967e+19
7.445602232e+19
7.249817614e+19
7.729195066e+19
7.526900828e+19
7.750896637e+19
7.600359529e+19
7.209231486e+19
7.452157013e+19
7.545007319e+19
7.503476288e+19
7.968750958e+19
7.753085809e+19
7.590767321e+19
7.53695252e+19
7.877118598e+19
8.193886854e+19
8.103382757e+19
8.000704532e+19
8.269619008e+19
8.366268102e+19
8.673162585e+19
8.853723542e+19
8.907844855e+19
9.027843538e+19
9.274818804e+19
9.446050903e+19
7.544072635e+19
7.569493393e+19
7.420891996e+19
7.115917819e+19
7.298612956e+19
7.393267576e+19
7.765801739e+19
7.505145299e+19
7.458248041e+19
7.943821611e+19
7.591238388e+19
7.567819057e+19
7.376761026e+19
7.720199298e+19
7.612262099e+19
7.629580805e+19
7.500800351e+19
7.699428817e+19
8.185690763e+19
8.078685569e+19
7.917267369e+19
8.244114384e+19
8.187238432e+19
8.039776958e+19
8.495670443e+19
8.513681818e+19
8.844653082e+19
9.120700799e+19
9.277077046e+19
9.958865827e+19
7.688995643e+19
7.58847696e+19
7.428177648e+19
7.354476139e+19
7.865769322e+19
8.102134481e+19
7.460745221e+19
7.458796918e+19
7.637936207e+19
7.86600223e+19
7.661442514e+19
7.917733817e+19
7.597645761e+19
7.744995981e+19
7.658760708e+19
7.683519822e+19
7.627363967e+19
7.65945036e+19
7.989796541e+19
8.271556567e+19
8.281612032e+19
8.570251604e+19
7.918164212e+19
8.14824764e+19
8.131974733e+19
8.567517129e+19
8.95884201e+19
9.259986653e+19
9.486521188e+19
9.502460458e+19
7.530163561e+19
7.32406217e+19
7.592560118e+19
7.868752713e+19
7.628183059e+19
7.767262459e+19
7.838546058e+19
7.963900853e+19
7.976340869e+19
8.078324244e+19
7.755370655e+19
7.782550554e+19
7.64831635e+19
7.592248353e+19
7.794756396e+19
7.912381917e+19
7.802723195e+19
7.839353199e+19
7.924153952e+19
8.147493644e+19
8.273200034e+19
8.188962712e+19
8.207566107e+19
8.530323156e+19
8.136874825e+19
8.484017347e+19
9.18888273e+19
9.159298061e+19
9.484262945e+19
9.303032519e+19
7.811933427e+19
7.795036905e+19
7.729166094e+19
7.506786363e+19
7.904596649e+19
7.859014557e+19
7.905189187e+19
8.051868463e+19
7.719915928e+19
7.827572966e+19
7.228598182e+19
7.541465712e+19
7.639461285e+19
7.94138571e+19
7.588762834e+19
7.655290059e+19
7.507408151e+19
8.104850745e+19
7.955166164e+19
7.988505444e+19
8.45931549e+19
8.315175051e+19
8.504457071e+19
8.570797265e+19
8.261010415e+19
8.863611751e+19
9.397859636e+19
9.402069245e+19
9.402969262e+19
9.671119587e+19
7.724441153e+19
8.052671663e+19
7.93589647e+19
7.868752713e+19
7.912916791e+19
8.026217783e+19
8.192881066e+19
8.134160687e+19
7.958705697e+19
7.931812447e+19
7.607215865e+19
7.672744705e+19
7.648808358e+19
7.81393076e+19
8.188244099e+19
7.994550511e+19
8.179872606e+19
8.16379325e+19
8.198612546e+19
8.076079205e+19
8.075518081e+19
8.500251477e+19
8.342905625e+19
8.462866308e+19
8.233787682e+19
8.891628048e+19
9.385664619e+19
9.53632059e+19
9.779517171e+19
9.445481195e+19
8.014735845e+19
8.16024558e+19
7.869870306e+19
7.721947625e+19
7.936490583e+19
8.127284878e+19
8.164721874e+19
7.935997169e+19
7.927724988e+19
8.031248323e+19
7.581070902e+19
7.881131805e+19
8.233734596e+19
7.638866177e+19
8.302740587e+19
8.414971551e+19
8.371497037e+19
7.958775775e+19
7.980492858e+19
7.856623364e+19
8.365206263e+19
8.302978188e+19
8.776206058e+19
8.598319659e+19
8.679696117e+19
8.605421711e+19
9.162829917e+19
9.485976251e+19
9.696529782e+19
9.626105833e+19
8.061847098e+19
7.89447487e+19
8.125323423e+19
8.279806959e+19
7.764078704e+19
8.018765771e+19
7.832914244e+19
8.196589209e+19
8.316651973e+19
7.915960351e+19
7.632392555e+19
8.066581684e+19
8.123538167e+19
8.042060244e+19
7.877253818e+19
8.522849202e+19
8.163099115e+19
8.412889403e+19
8.345403995e+19
8.365385668e+19
8.571825964e+19
8.397372325e+19
9.006229745e+19
8.962586715e+19
8.456469708e+19
9.060275712e+19
9.084671557e+19
9.474788724e+19
9.694271624e+19
9.479098976e+19
8.410469877e+19
7.987585016e+19
8.197269236e+19
7.927933456e+19
7.694744191e+19
7.995012735e+19
7.745151814e+19
8.298272129e+19
8.436285234e+19
8.135968293e+19
8.094286903e+19
8.146129921e+19
8.226847323e+19
8.066361057e+19
8.261241883e+19
8.085793003e+19
8.266281568e+19
8.14739179e+19
8.449811927e+19
8.829839647e+19
8.475613736e+19
8.203811169e+19
8.823280597e+19
8.853576371e+19
8.71399676e+19
9.106420329e+19
9.056955717e+19
9.243205152e+19
9.602816231e+19
9.561719071e+19
8.429763033e+19
8.338781966e+19
8.268759697e+19
7.958212064e+19
7.816310703e+19
8.155695383e+19
8.126707193e+19
8.179563294e+19
8.384809595e+19
8.236845205e+19
8.138346008e+19
7.848922151e+19
8.391649921e+19
8.489888339e+19
8.324239915e+19
8.409426364e+19
8.608358996e+19
8.468244034e+19
8.458081938e+19
8.701606543e+19
8.899893811e+19
8.498130187e+19
8.894427534e+19
9.026265902e+19
9.5470123e+19
9.342087477e+19
8.835229724e+19
8.886879706e+19
9.05126126e+19
9.406735178e+19
8.596671388e+19
8.449971874e+19
8.292438126e+19
8.572499603e+19
8.492091085e+19
8.27958408e+19
8.356203602e+19
8.210304642e+19
8.188916192e+19
7.970722138e+19
8.399311407e+19
8.278384901e+19
8.596792192e+19
8.583619801e+19
8.391737739e+19
8.583341488e+19
8.453331412e+19
8.402125989e+19
8.863825908e+19
8.917934822e+19
8.995580439e+19
8.643433703e+19
8.840933653e+19
8.85573499e+19
8.7978427e+19
9.315169784e+19
9.100746697e+19
9.67392822e+19
9.340869921e+19
9.6597237e+19
8.956062375e+19
8.626248242e+19
8.397169314e+19
8.629386575e+19
8.724130586e+19
8.169667854e+19
8.504977348e+19
8.399009161e+19
8.404351272e+19
8.185926351e+19
8.093318571e+19
8.339876307e+19
8.196838427e+19
8.417481958e+19
8.333239567e+19
9.270936279e+19
9.273199268e+19
8.824974396e+19
9.174982506e+19
9.052944473e+19
9.076020017e+19
8.561236427e+19
8.758553077e+19
8.809864334e+19
8.851743788e+19
9.002045601e+19
9.330233101e+19
9.419969424e+19
9.234736503e+19
9.757728418e+19
8.842546831e+19
8.979253278e+19
8.541060941e+19
8.634891702e+19
8.971885977e+19
8.652647477e+19
8.339777478e+19
8.651088213e+19
8.388145915e+19
8.487116242e+19
8.447243905e+19
8.272040628e+19
8.526443688e+19
8.63767657e+19
8.630230286e+19
8.935708651e+19
8.797950419e+19
9.061256961e+19
9.104171062e+19
9.499675171e+19
9.010827109e+19
8.488584705e+19
8.636586955e+19
9.17736932e+19
9.101648475e+19
8.942167468e+19
9.122919224e+19
9.208523472e+19
9.497811892e+19
9.206167394e+19
8.671151882e+19
8.935410151e+19
8.768282214e+19
8.328436145e+19
8.651098233e+19
8.743002392e+19
8.657974953e+19
8.626022191e+19
8.597384918e+19
8.653803369e+19
8.773087611e+19
8.581937135e+19
8.626309076e+19
9.141049236e+19
8.970219732e+19
8.759273019e+19
8.565154549e+19
8.928508115e+19
9.176016172e+19
9.324527595e+19
9.190107817e+19
9.05972269e+19
8.937757577e+19
8.832529835e+19
9.334130613e+19
9.329452642e+19
9.270921377e+19
9.721475571e+19
9.44248711e+19
9.398188263e+19
9.034581032e+19
8.94851789e+19
8.752344914e+19
8.571582072e+19
8.721819436e+19
8.573936172e+19
9.071913262e+19
8.435425898e+19
8.574983482e+19
8.979011523e+19
8.713535128e+19
8.691254958e+19
8.951978756e+19
8.807781816e+19
8.888222223e+19
8.875216434e+19
9.047011353e+19
8.998726651e+19
9.036977793e+19
8.976317299e+19
8.781600164e+19
9.035859063e+19
9.246952208e+19
9.527605195e+19
9.412532001e+19
9.456350337e+19
9.711047715e+19
9.201251607e+19
9.653060243e+19
9.227249785e+19
)
;

boundaryField
{
    flow
    {
        type            calculated;
        value           nonuniform List<scalar> 
55
(
9.303032519e+19
9.353174337e+19
9.575394223e+19
9.406165298e+19
9.185085086e+19
9.50929799e+19
1.000387958e+20
9.677387413e+19
9.489355275e+19
9.834650567e+19
9.446050903e+19
9.958865827e+19
9.502460458e+19
9.303032519e+19
9.671119587e+19
9.445481195e+19
9.626105833e+19
9.479098976e+19
9.561719071e+19
9.406735178e+19
9.6597237e+19
9.757728418e+19
9.206167394e+19
9.398188263e+19
9.227249785e+19
9.034581032e+19
8.94851789e+19
8.752344914e+19
8.571582072e+19
8.721819436e+19
8.573936172e+19
9.071913262e+19
8.435425898e+19
8.574983482e+19
8.979011523e+19
8.713535128e+19
8.691254958e+19
8.951978756e+19
8.807781816e+19
8.888222223e+19
8.875216434e+19
9.047011353e+19
8.998726651e+19
9.036977793e+19
8.976317299e+19
8.781600164e+19
9.035859063e+19
9.246952208e+19
9.527605195e+19
9.412532001e+19
9.456350337e+19
9.711047715e+19
9.201251607e+19
9.653060243e+19
9.227249785e+19
)
;
    }
    obstacle
    {
        type            calculated;
        value           nonuniform 0();
    }
    frontAndBack
    {
        type            empty;
    }
    procBoundary3to1
    {
        type            processor;
        value           nonuniform List<scalar> 
36
(
9.382803729e+19
7.797679507e+19
8.182429246e+19
8.499868962e+19
8.698368441e+19
8.979000127e+19
8.979000127e+19
7.508413146e+19
7.364178439e+19
7.472521151e+19
7.814386017e+19
7.821756494e+19
7.821756494e+19
6.950782828e+19
6.997941357e+19
7.309684207e+19
7.274017633e+19
7.40056326e+19
7.40056326e+19
6.999733612e+19
7.252574148e+19
7.226177296e+19
7.254506427e+19
6.872022325e+19
7.439004912e+19
7.439004912e+19
6.930931844e+19
6.868643052e+19
7.018963862e+19
7.028587742e+19
7.078251206e+19
6.917276249e+19
6.917276249e+19
7.002518235e+19
6.954333632e+19
6.954333632e+19
)
;
    }
    procBoundary3to2
    {
        type            processor;
        value           nonuniform List<scalar> 
19
(
7.120822334e+19
7.105678282e+19
7.345756047e+19
7.105678231e+19
7.470471769e+19
7.524366778e+19
7.542183364e+19
7.827693231e+19
7.99249615e+19
8.114539393e+19
8.094941208e+19
8.387132329e+19
8.481559947e+19
8.451271783e+19
8.631664289e+19
8.832991036e+19
8.812056611e+19
8.918955802e+19
8.843680955e+19
)
;
    }
}


// ************************************************************************* //
