/*--------------------------------*- C++ -*----------------------------------*\
  =========                 |
  \\      /  F ield         | OpenFOAM: The Open Source CFD Toolbox
   \\    /   O peration     | Website:  https://openfoam.org
    \\  /    A nd           | Version:  7
     \\/     M anipulation  |
\*---------------------------------------------------------------------------*/
FoamFile
{
    version     2.0;
    format      ascii;
    class       volVectorField;
    location    "0.005";
    object      UMean;
}
// * * * * * * * * * * * * * * * * * * * * * * * * * * * * * * * * * * * * * //

dimensions      [0 1 -1 0 0 0 0];

internalField   nonuniform List<vector> 
654
(
(1317.356426 400.8204955 -2.452884684)
(1354.527535 430.6041679 -4.440578309)
(1349.070607 431.8234685 -2.271087711)
(1348.074509 428.978076 -1.391207239)
(1346.645657 422.2027393 -1.032802106)
(1348.411448 417.876005 -1.107322309)
(1346.096887 414.6008647 -0.4702361433)
(1437.850324 375.7838086 -0.7331238885)
(1424.216651 390.9767333 -4.459175526)
(1416.363433 402.6312439 -2.945816156)
(1405.292044 409.7445122 1.832406876)
(1392.052 413.072923 2.728513128)
(1380.531912 421.0777149 2.846606073)
(1374.108256 431.1281723 -3.815520343)
(1365.597422 429.6205849 -2.635194545)
(1358.277411 425.7868397 -2.539786895)
(1360.177698 422.5673596 -0.4164226796)
(1357.5532 420.1769149 -3.464380575)
(1554.508653 228.5423648 -0.1818039456)
(1538.712793 253.1489494 0.7367587376)
(1518.193712 282.3637023 0.4325348846)
(1503.793333 304.6875529 2.44522419)
(1492.139122 319.3991154 -0.4845662948)
(1473.059459 344.9628767 -1.13748002)
(1447.162826 367.4257278 4.137662951)
(1429.279951 378.8421533 2.59207097)
(1425.55621 391.1535007 -1.879797481)
(1416.281931 405.5837621 0.6071929667)
(1407.346718 414.2665523 0.4069067909)
(1397.963339 421.3113185 1.295998758)
(1386.767253 428.8784172 -4.00522659)
(1379.490723 431.048175 -7.993413798)
(1378.102179 426.6640803 -1.006734054)
(1375.107775 429.1274535 -2.260706544)
(1665.170925 75.31237031 -3.108336033)
(1655.64895 97.62436707 -6.262394386)
(1646.941303 111.9240027 0.9241988488)
(1633.749132 128.5900155 0.235193363)
(1621.76734 148.0279222 0.716744412)
(1613.230072 165.7128188 -1.250935632)
(1586.542715 190.6650783 -7.304068382)
(1576.563504 214.3058841 -7.632968352)
(1554.49076 237.1270365 -5.947258325)
(1533.760131 262.812748 -3.985108431)
(1519.429066 296.2114801 0.3805746769)
(1498.192102 314.3264499 -2.247957822)
(1478.43387 332.5725542 1.197962874)
(1461.996811 357.8942992 0.06822187667)
(1449.924625 372.6935086 4.372262661)
(1438.886056 385.7997861 1.887529631)
(1421.142938 396.9972105 7.42737233)
(1416.391246 408.5220982 8.607146571)
(1411.141581 419.108885 3.071184511)
(1398.475245 429.3134654 3.347466586)
(1392.743942 435.0476085 -2.018377988)
(1396.767469 430.0597166 -3.039244318)
(1711.903644 26.63327967 -4.686675378)
(1706.412453 25.35888943 -2.619500595)
(1702.905708 30.52683291 -2.05953508)
(1696.505686 37.74012904 -0.491830856)
(1692.766611 45.52438408 1.11527465)
(1685.77693 52.4509881 2.633765509)
(1682.502267 64.05997279 2.188216237)
(1672.486771 73.90677977 4.293015285)
(1663.151918 87.83915462 5.403235514)
(1649.64151 104.2150897 0.1226706484)
(1642.969663 118.5587989 2.33835153)
(1629.749494 133.9641681 4.520301974)
(1614.816251 152.6600811 9.857279755)
(1593.943553 175.2291633 10.73214006)
(1579.903048 197.6870145 10.40322861)
(1562.970453 225.0818822 7.304890398)
(1541.07774 246.3068158 6.475710434)
(1531.334658 273.7760881 4.667377035)
(1513.128993 299.0738739 4.29469249)
(1494.811794 320.1382975 -1.953191658)
(1479.235704 345.0967462 0.3811339134)
(1456.882404 366.1961103 0.2574277827)
(1453.79341 379.5472779 -4.748311553)
(1440.046915 395.6292022 -0.09359488614)
(1429.271721 404.4553462 2.816004309)
(1422.458782 416.5586197 0.3177648955)
(1409.04203 421.9572758 0.41812868)
(1404.723148 426.9760498 2.282570084)
(1724.189807 9.196128542 0.7608045343)
(1723.613557 9.734287453 -0.6554409091)
(1724.953082 9.468663866 -1.140694909)
(1720.018086 19.44099576 -0.8394116412)
(1717.722265 26.49824443 1.225718703)
(1710.657191 33.66015778 1.695352644)
(1707.131037 37.55405985 0.5171465042)
(1701.540465 43.39595605 -0.3656437769)
(1697.379908 49.17690231 1.157860317)
(1693.078994 58.00246421 -0.5343825382)
(1681.383456 70.10991819 1.758274385)
(1674.738413 79.65559235 4.79459426)
(1665.848988 93.79206532 3.747465453)
(1651.071102 113.0427812 2.997272806)
(1636.589965 128.0637431 2.343121975)
(1623.975947 143.0064626 -0.8691940302)
(1610.270821 164.0755245 4.041108955)
(1590.97548 188.653461 1.366701927)
(1582.925741 213.5403507 -0.7848268982)
(1561.958364 236.0706608 3.290309434)
(1543.081335 262.0147323 5.217074243)
(1526.47985 286.1197889 7.214743466)
(1506.352362 314.8138068 3.772029678)
(1486.797757 337.3553134 1.055938144)
(1478.355779 362.013015 0.5203953346)
(1458.012175 371.2132924 2.953057963)
(1448.585039 386.868177 3.607100444)
(1438.229519 399.9010141 4.403239111)
(1430.776866 414.3554756 4.678915632)
(1421.449615 420.2572542 5.328133142)
(1727.204576 9.287798001 -1.947784716)
(1726.593142 10.70636994 -0.9639981334)
(1724.309795 16.36362182 1.18705583)
(1719.802783 18.66058037 -0.4152878759)
(1718.088839 18.76225881 2.27867091)
(1719.368164 22.72216422 2.667733016)
(1715.479332 27.33156081 1.412993873)
(1708.823951 31.87444432 1.064988888)
(1706.595548 33.62861599 0.2120238622)
(1698.45515 40.64891583 1.91961039)
(1693.880162 51.76778592 1.419779487)
(1684.046391 66.41415868 -3.005783107)
(1678.003376 74.71513721 -0.5689358786)
(1675.123675 81.79775336 -2.202249035)
(1668.066567 100.6034838 -0.1786541125)
(1649.120021 120.2758927 -1.73212345)
(1640.364229 135.7658997 -1.888483184)
(1624.454235 155.8632352 -2.398434103)
(1608.473577 173.0989726 -2.204996437)
(1598.921559 200.7125418 -0.4971869562)
(1577.850304 223.9904553 -1.514025914)
(1554.55103 251.5128797 -4.391649287)
(1541.033048 271.7047088 2.426671729)
(1519.432246 304.6668079 1.731842361)
(1504.493852 329.3747973 1.595417827)
(1483.260198 354.2966982 -0.01250065311)
(1474.257321 371.0691784 1.009526159)
(1463.594976 381.9693963 3.231219967)
(1456.192438 394.7903021 -0.246439642)
(1448.192654 407.5643214 4.146368586)
(1727.51688 8.566011312 4.448877076)
(1724.926107 9.356707487 4.162225943)
(1721.626442 12.49349861 5.696689591)
(1721.087376 12.53245224 5.457016612)
(1718.716548 14.1346607 5.926476495)
(1712.212127 14.47988013 4.90111212)
(1709.900508 18.39356798 6.664643727)
(1708.638976 24.9832995 6.575454924)
(1708.506268 28.46343863 3.892753445)
(1711.005069 33.71884584 3.956265282)
(1706.096937 37.58682991 2.578942516)
(1704.111422 40.32473116 2.521493831)
(1696.152935 54.81877052 -0.1362175493)
(1685.876658 69.43733727 -3.397351055)
(1678.530853 79.27347159 -4.52831402)
(1668.5369 89.20431741 -4.518395845)
(1654.493757 104.940956 -2.155859806)
(1641.620917 124.1352456 0.8651058828)
(1627.672427 146.5756994 1.886918806)
(1614.789457 172.5453928 1.421728942)
(1606.337178 193.4519203 1.98210221)
(1589.032665 219.3951103 2.662034505)
(1576.806913 245.6514184 3.138775952)
(1559.306325 267.4570703 -0.1872873503)
(1532.867501 294.5525601 -0.8782173036)
(1516.446789 313.7943931 0.3172716258)
(1496.242062 339.5168567 -2.385045847)
(1489.706251 350.8493562 -4.614453379)
(1476.190199 370.3936047 0.2940244533)
(1462.789367 387.7170154 -1.439864613)
(1728.964372 6.324329086 3.593267697)
(1728.070913 4.32508767 1.642899427)
(1727.566388 4.03827136 3.263102385)
(1727.445284 8.80251087 -0.7866150036)
(1727.482752 13.92597166 -2.792974256)
(1725.026897 17.1700518 -2.010823793)
(1723.736164 13.58024053 -1.662478234)
(1719.894754 14.44540287 -0.00068828068)
(1719.839595 20.09351317 -3.499252575)
(1713.333434 26.27052667 -4.812693753)
(1706.122295 31.85826839 -4.591800206)
(1704.258709 36.55690814 -2.233081853)
(1696.640224 42.36778429 2.047354661)
(1694.516384 52.23556786 2.109528109)
(1686.068215 64.97296522 2.501584385)
(1681.779259 70.44383149 1.066679164)
(1672.979591 92.13337331 1.325938455)
(1660.448987 105.8583483 -0.9784916123)
(1650.054645 116.3035027 1.947578278)
(1640.581933 131.4242669 -0.6891502632)
(1626.115349 156.5805276 -1.151870628)
(1611.082322 185.0166479 0.2146099333)
(1593.293457 202.6570929 -4.074875928)
(1578.302969 229.6250274 1.554347751)
(1564.347928 250.7340392 -1.300092511)
(1550.067976 277.1365407 2.11081901)
(1525.627446 302.4889796 2.893923136)
(1512.254686 329.8624556 1.676235342)
(1502.346326 348.2991079 -5.421098509)
(1491.724659 366.533256 -3.531029726)
(1734.245748 3.188394731 -4.556673432)
(1735.184873 4.276421408 -2.182493933)
(1736.751506 5.20512296 -3.246881115)
(1732.223185 2.703583679 -2.358110637)
(1728.189007 4.605985687 -2.835118793)
(1727.679434 5.594306383 -3.523614326)
(1727.122532 13.01231224 -2.457315932)
(1723.155123 17.50399497 -3.098656115)
(1718.530772 15.83824837 -0.6656141612)
(1717.210178 19.94814547 -0.3618955548)
(1713.894523 25.14214425 -0.1842024235)
(1709.889941 30.83881716 0.7505561472)
(1707.116079 33.63686091 -3.002984634)
(1702.685866 39.62072321 -0.9571261452)
(1696.389846 48.96223454 -2.027714941)
(1688.011871 61.51957223 -1.238380972)
(1684.878904 70.97354928 -1.312854929)
(1678.286736 85.01529708 -5.515603855)
(1673.338072 99.51293735 -4.437052694)
(1666.234313 112.4547796 -4.709197062)
(1654.594725 122.1891445 -8.518484402)
(1632.728456 142.8209887 -5.563321081)
(1614.957549 164.7431966 -6.621134959)
(1606.302018 191.0486242 -7.292166185)
(1590.892563 213.3275364 -3.153277149)
(1583.69533 238.9518626 -4.292761376)
(1558.460368 271.9507399 -1.65255639)
(1537.905323 302.7480923 1.709647476)
(1522.53586 320.4765166 5.434425562)
(1502.608517 344.1884317 0.1977494026)
(1736.63078 0.2093277291 1.431102988)
(1734.878991 2.710996361 1.489836504)
(1734.045925 2.560036047 2.068640722)
(1734.460747 3.94043939 2.401101763)
(1731.814821 8.201720158 3.110191411)
(1728.758933 8.008589499 2.845110521)
(1722.734586 11.1119245 3.229868776)
(1724.830896 11.02392746 2.369677402)
(1722.853929 15.45804704 3.1846961)
(1723.274055 14.63078367 -0.9212993596)
(1717.323497 22.72743257 -0.9359547611)
(1715.084074 27.33174242 -0.8938104278)
(1714.536669 31.25524508 -1.40323532)
(1710.765608 34.35873515 -1.437794413)
(1712.213112 42.1008803 -0.8213644687)
(1704.920891 51.40953352 -2.441076993)
(1700.489882 57.47482839 -0.9212819477)
(1688.507219 67.96013235 -1.422075448)
(1675.036803 82.17067043 -4.592269571)
(1667.459087 89.5738697 -2.957859537)
(1665.167462 98.29158084 -8.100153066)
(1655.011268 118.6040325 -7.558545842)
(1638.612271 136.0435695 -5.637463022)
(1618.158432 157.5474642 -3.571514984)
(1608.358313 183.5631092 -4.025843083)
(1594.19782 203.8090551 -5.453954345)
(1587.557953 229.6279982 -5.134738832)
(1565.925079 255.164698 0.8821360922)
(1542.582906 286.7420093 3.137340523)
(1528.323855 305.8367456 2.844010234)
(1730.29227 -0.1327936572 -2.328027621)
(1730.859566 -4.135444751 -2.350690377)
(1729.428208 -3.823579721 -0.8344510251)
(1728.918882 0.2175091733 0.3500889527)
(1728.827465 1.460505091 -0.05582746085)
(1729.625384 3.579776095 1.557104298)
(1727.246571 6.200762143 0.1132211727)
(1726.676787 10.17617704 -1.761806164)
(1724.740725 10.60776397 -0.2181261735)
(1723.328293 14.70953029 1.904851937)
(1724.995743 15.74008289 -2.435173057)
(1721.489709 19.04968609 -4.563761303)
(1718.233544 27.96966305 -5.959941572)
(1717.729896 33.2303882 -6.182142406)
(1708.374924 31.51814605 -3.134148477)
(1702.809685 37.6575446 -1.305074866)
(1699.890497 41.83957616 -3.230514109)
(1697.571921 51.88139432 -1.06822849)
(1690.244316 62.86746338 -2.229782847)
(1680.989409 77.86251482 -1.923068237)
(1669.406459 92.14090539 1.128407382)
(1670.013251 92.97690426 -1.872934346)
(1658.618554 106.5749454 -2.90256702)
(1652.433631 122.4198262 -5.011099182)
(1629.57249 144.422256 -4.852415874)
(1615.957668 170.2237633 -4.569947865)
(1610.033814 188.7103917 -7.750821482)
(1593.000522 218.0102954 -7.126814237)
(1573.768356 244.0205632 -5.655900436)
(1549.496067 271.8966965 -3.461725898)
(1734.659066 -1.760785011 2.056823937)
(1736.120064 3.291559189 2.130962874)
(1734.105585 6.872158744 -0.09449368052)
(1733.094347 2.638116991 -0.9280931933)
(1737.0543 2.649756735 -1.877784753)
(1734.967807 3.606057037 -2.814177026)
(1732.474307 5.842719708 -2.862341065)
(1731.704294 9.430589893 -4.794775771)
(1729.2584 12.1348501 -6.934738945)
(1729.017531 11.97839826 -6.118188328)
(1729.126913 13.65956087 -2.833941689)
(1729.708138 17.64934383 0.1855331632)
(1725.844225 19.45967625 1.122795157)
(1723.779913 20.40466161 3.581734822)
(1718.639639 27.76255936 1.659916277)
(1714.792089 31.37464933 -3.16128619)
(1708.59018 40.68048729 -2.398285591)
(1705.444386 47.47476462 -6.867669233)
(1700.925085 52.9152883 -4.599601127)
(1692.050114 56.52030476 -4.002962967)
(1687.622677 64.96051472 -1.888248307)
(1678.776621 77.96370439 -2.84061424)
(1670.791253 86.68671883 -3.724111933)
(1666.3422 99.48909222 0.2596118047)
(1661.667879 116.3445762 0.304856537)
(1639.338965 135.6478654 -0.8351400496)
(1625.823664 160.5682579 -0.7230719892)
(1615.38316 186.1061061 -4.635195351)
(1602.40466 208.8086956 -6.424234456)
(1584.72115 235.097777 -7.537169679)
(1735.332523 1.242841265 2.304476907)
(1732.092629 1.873707093 2.531907323)
(1731.857511 -0.8780208308 -1.066099887)
(1731.495225 -1.548863962 -1.132028036)
(1731.403765 2.319148525 -3.39049953)
(1731.045029 5.083456899 -4.096751539)
(1731.643087 3.288601355 -4.940594528)
(1731.080069 6.522705904 -0.1322612651)
(1731.584174 5.564771552 2.568462226)
(1728.24121 10.44615964 -0.7972075278)
(1725.292252 16.8379161 -1.87652558)
(1726.007784 16.03893109 -2.798595815)
(1727.942571 18.35042449 -5.659044415)
(1725.170507 20.07863825 -4.989970003)
(1724.292697 25.60993213 -5.109732432)
(1718.861505 28.82069888 -2.650613191)
(1716.961728 31.07201942 -0.1941082276)
(1713.916454 30.92774695 2.077364297)
(1711.613582 36.37179213 -0.6916699937)
(1704.553369 47.49119656 -1.183811112)
(1700.812489 48.31491251 -0.4432076271)
(1694.299237 61.4926808 3.044462857)
(1688.12501 72.13880104 -1.52274953)
(1676.092171 87.32284099 -0.3017839999)
(1665.103167 97.60217444 -1.630360362)
(1660.803373 114.9882926 -5.319017634)
(1647.40087 133.4802248 -4.323290821)
(1639.451514 147.3359235 -9.982491362)
(1624.34598 175.0108164 -6.142864978)
(1613.796191 198.758576 -4.937122499)
(1732.687761 0.6204550182 1.29564454)
(1732.671943 1.144587317 2.038446514)
(1734.437812 0.9753072084 4.30026206)
(1735.295905 5.05998763 3.903667102)
(1736.111122 3.925371834 5.406648787)
(1736.839638 2.37333365 4.753930824)
(1737.506019 2.450199762 3.511108925)
(1736.322977 2.786685145 1.064602148)
(1735.888257 5.843009538 1.381236544)
(1734.341348 9.293542339 2.20552894)
(1733.085563 4.976375738 4.94695627)
(1731.137146 8.98827002 2.231860469)
(1727.839353 9.71712683 1.919720846)
(1730.13037 12.41730863 0.570074204)
(1728.559028 10.38929025 -1.315404247)
(1728.855439 13.33473971 -0.08825019696)
(1724.206553 21.26436976 -0.597770078)
(1719.923351 24.17468431 2.046033411)
(1721.207661 26.24042012 2.957457963)
(1712.76482 34.60078706 6.212274847)
(1712.900074 43.40927838 3.240021916)
(1704.894299 53.87051232 1.225632636)
(1701.476891 61.1351212 4.26226515)
(1692.734557 69.19183283 -0.7156699101)
(1687.500452 79.10746052 2.746116205)
(1685.524743 86.52012195 6.356120261)
(1670.241439 106.4630291 4.494906874)
(1654.519608 131.4484461 0.03254998598)
(1639.145153 147.0092611 -0.5339035107)
(1622.645007 170.7767297 0.341241312)
(1737.647199 3.092682202 -2.935900427)
(1737.85632 3.768048069 -0.4847669751)
(1737.738734 4.673209012 -2.746254697)
(1738.32332 3.515471678 -0.6090726871)
(1738.524874 6.317323676 -0.6297746809)
(1734.943248 2.50623535 -1.000918725)
(1733.205096 5.959325924 1.109112675)
(1734.150069 3.974129635 -0.8203412179)
(1733.005702 1.349577979 1.410295862)
(1730.278922 3.000049414 4.263409847)
(1730.89477 2.505933139 3.442836762)
(1727.722656 4.328596249 3.506318285)
(1726.177237 5.029816426 1.580196875)
(1722.634454 4.816736721 2.335357944)
(1723.861473 5.45773372 6.640285668)
(1724.591875 10.40205022 3.423217649)
(1724.32408 9.436290448 3.985297578)
(1721.514723 14.87291781 3.884945432)
(1718.408079 19.92153356 2.102903468)
(1717.237452 27.55168527 -0.482896817)
(1713.031307 30.89106268 -0.5523666006)
(1713.101023 35.35399895 -2.594904323)
(1705.714798 40.67243655 -2.723396369)
(1698.703892 51.40631198 -2.831790988)
(1693.049577 64.60166845 -3.193772583)
(1688.299305 75.24224617 -2.619353755)
(1685.045011 92.68117575 1.336493884)
(1674.194937 107.0093437 5.763729964)
(1658.393417 125.5854371 4.650853871)
(1646.413974 140.9039951 3.191535763)
(1736.064757 4.272391362 -1.948724071)
(1735.558415 4.185567433 -4.018591727)
(1734.642607 4.434746885 -3.28343843)
(1732.827358 3.457572869 -0.6991939117)
(1729.913262 3.827592182 -0.244528014)
(1730.352726 6.431890415 -0.1668663484)
(1727.872774 3.319247169 -2.662040797)
(1733.009056 3.148929154 1.104443081)
(1735.066509 4.115336964 0.4106645687)
(1733.818826 2.666223033 0.690123651)
(1736.035482 1.432617959 -0.3441328726)
(1736.184278 1.512588736 -1.631672557)
(1732.671167 1.831772207 -0.7909119533)
(1735.923709 2.765130129 -1.647858834)
(1730.861437 4.605517819 -1.811875641)
(1724.3956 3.856542524 -0.7874290395)
(1725.287995 8.820211151 1.405264118)
(1723.004548 12.22616999 1.209841219)
(1720.205177 13.2687139 -2.211382598)
(1713.198472 16.95994521 -3.466245105)
(1714.163015 23.63914144 -1.031449472)
(1707.893938 31.81318965 1.578834105)
(1706.729295 35.77460409 4.383987892)
(1707.547924 45.5145935 3.161879599)
(1698.050658 58.25391944 0.4076289075)
(1691.096752 68.26084763 2.202349599)
(1688.619068 70.85110935 4.566146425)
(1683.367678 81.92648713 3.181372698)
(1672.767333 97.18173276 6.379654111)
(1662.409234 124.4644633 6.264582386)
(1735.910099 1.654247934 0.7913937439)
(1735.11574 -0.7525415973 0.01720110168)
(1736.124525 1.711936275 -1.120828612)
(1734.358254 3.481085459 -1.136190077)
(1736.419441 3.572793564 0.260416743)
(1738.884128 1.154920457 -1.104044106)
(1737.662896 1.096134822 -0.4041889881)
(1733.645493 4.776940502 -2.160936954)
(1730.57028 0.3835184835 -1.589362101)
(1729.941615 1.05485534 -3.337849444)
(1726.977493 -0.7445010703 -3.768485811)
(1723.631647 -3.382785728 -3.45386931)
(1725.481057 -0.3212934464 -2.628342044)
(1721.133543 2.268989047 0.5284816335)
(1723.759559 4.429290208 1.182386682)
(1726.703126 8.193238106 -3.102964563)
(1725.070905 8.111304011 -2.483279579)
(1724.701817 8.721703263 -0.7978476325)
(1724.595375 10.5759797 1.370727055)
(1720.819165 16.56650566 1.861130969)
(1720.647137 21.34420449 2.326517601)
(1718.577546 23.57278615 4.922593267)
(1716.977013 35.74534257 6.93661108)
(1716.532705 38.83467157 4.584952319)
(1714.695027 41.16234395 8.714628177)
(1706.026833 53.04068382 3.878651869)
(1696.788706 61.99725888 4.192324324)
(1695.62126 67.35910415 3.463626046)
(1690.776052 84.73912735 -0.2324100119)
(1678.678092 94.63121515 0.7941716572)
(1733.373803 2.426562174 0.2028723734)
(1730.931288 5.402458551 2.613790771)
(1731.977735 1.985900691 2.142012419)
(1735.571447 1.737563741 1.959491041)
(1732.605815 1.018443106 -0.2289347789)
(1730.674213 3.001639905 -0.00293460087)
(1727.004458 -0.1782722414 0.04351955069)
(1727.379172 -0.1628015971 0.8188477739)
(1727.582253 4.643092284 1.693935313)
(1729.341639 2.78214625 -0.708005879)
(1732.545117 1.814479533 1.042223922)
(1733.735195 5.073891799 2.499540949)
(1732.019517 0.4158824557 1.44399207)
(1733.265044 4.957414025 -1.807757534)
(1731.446513 2.606241723 -2.257149112)
(1729.018202 4.682703238 -0.1157598879)
(1729.9733 3.809814993 -1.812653472)
(1727.259135 6.757425823 -1.316891118)
(1727.246122 12.95945408 1.892473877)
(1727.574441 14.60498141 2.497654652)
(1722.561605 18.87379121 -0.5826661278)
(1723.021288 22.4957778 -1.840044954)
(1720.408584 26.17621231 -4.10486883)
(1717.730711 31.49688554 0.0256435974)
(1716.002895 34.31319329 -1.984587234)
(1715.300326 39.86300569 -2.28149811)
(1709.359474 43.51763477 -2.228856772)
(1704.981117 56.85671875 -3.513157786)
(1699.643824 60.69195306 -1.362249023)
(1693.84142 70.11866981 -2.471452887)
(1736.709901 -1.398921924 -6.780181045)
(1737.410481 -3.743669416 -7.313009466)
(1734.644641 -0.4623378967 -7.054902219)
(1733.685723 -0.5150062033 -6.373717213)
(1736.017614 -5.993121795 -4.500620469)
(1737.22334 -6.103599945 0.1538793226)
(1734.778319 -2.547923611 -1.348564538)
(1734.945654 -2.397441065 -3.906726574)
(1735.238496 -1.042011109 -3.187230851)
(1733.372257 5.662920613 -2.589030374)
(1730.038798 7.361288863 -2.856824188)
(1730.135805 6.944148499 -4.339856711)
(1732.635567 6.975635792 -3.94166928)
(1731.091792 6.849941101 -2.541726639)
(1732.280468 8.542031721 -1.180663969)
(1730.183197 5.919654451 -1.038981437)
(1731.180661 8.668651493 0.8063101223)
(1733.845058 8.089882758 0.3595245183)
(1731.105829 8.02114988 -2.517685763)
(1730.67087 11.41377182 -4.484679404)
(1732.89152 14.06994522 -4.154148245)
(1728.909939 18.68538245 -1.292306863)
(1726.103166 16.65318345 -1.043847969)
(1723.346034 18.72138436 -2.431105021)
(1718.905575 23.98381335 -3.936388178)
(1714.091292 25.99000892 -0.7879695328)
(1709.559831 40.36494263 -1.331208718)
(1708.806866 40.67021131 4.263832582)
(1703.393289 50.44714133 5.208972368)
(1699.714969 62.7835736 2.013274555)
(1733.616599 -0.1145358538 0.7770227317)
(1731.942272 -0.8650629308 1.032807747)
(1735.19309 -1.721261759 -0.0649072645)
(1735.529336 -0.9924974944 -2.58675632)
(1734.578522 -0.172810564 -2.867237403)
(1735.655274 -0.6960306668 -4.864717574)
(1737.268164 -0.2276255658 -5.218080765)
(1739.356631 -1.230052657 -2.570572591)
(1737.762987 0.106049877 -2.463146065)
(1737.883351 -5.010504253 -3.733047513)
(1738.490895 -5.091513998 -3.878859536)
(1738.150017 0.815292745 -2.949162846)
(1740.948201 4.16587484 -3.348533309)
(1735.940164 5.928215341 -3.192945217)
(1734.553682 5.207857579 -2.801553698)
(1733.28621 4.672835037 -5.655933251)
(1733.178913 6.257373812 -3.372825105)
(1733.9424 7.304313079 -6.184842623)
(1735.427766 8.182267768 -3.598779099)
(1735.011497 8.54176441 -1.816094468)
(1731.992747 9.781582298 -2.098167443)
(1727.967546 11.25050461 -1.409880259)
(1729.089689 13.53824114 -3.783719923)
(1726.435777 16.34920217 -3.772503057)
(1727.072629 16.07173455 -0.4265186721)
(1723.821525 20.38228269 -2.365162952)
(1717.821156 25.71603367 -1.189444468)
(1710.948803 36.37116469 -0.7822779589)
(1710.737882 39.38993813 1.093548468)
(1704.436247 47.75011584 2.538151899)
(1736.859688 -1.082921316 -0.2353062551)
(1738.91603 -2.037780485 -0.2652476278)
(1735.888476 -0.9244536943 2.057358017)
(1736.198688 -2.19185099 1.108288471)
(1737.865657 -0.6161333806 1.399362205)
(1735.54481 0.3221456854 3.531564989)
(1735.731971 -0.5548164975 3.188367738)
(1735.778284 0.3816989175 3.311594552)
(1736.772656 0.5906190681 1.773691016)
(1737.295073 1.171636017 0.2666803324)
(1740.430949 1.163397374 -1.076151198)
(1734.758146 1.739690857 -1.177145456)
(1729.796557 -2.013539607 -0.8050608173)
(1731.808817 -0.2894047067 -0.9695066475)
(1732.833698 5.38353607 0.7193305527)
(1735.282852 6.336460585 0.03202270888)
(1734.859501 6.271739106 -0.9402777244)
(1733.49411 8.302465978 -3.983449378)
(1732.025975 6.468650058 -2.648555565)
(1734.739533 3.005236991 -3.81009714)
(1732.811485 2.280357325 -5.531923421)
(1730.753846 7.926321019 -5.375735983)
(1730.915288 11.80723049 -5.202136511)
(1727.687436 16.58432612 -3.812070803)
(1726.989221 16.26522264 -3.547319566)
(1724.226022 15.14069412 -4.654939509)
(1722.931186 16.79101883 -3.004384621)
(1716.784497 23.7432814 -5.394368931)
(1718.177873 30.66147105 -5.052563164)
(1714.542266 39.61296413 -3.882312711)
(1732.891751 -5.265750353 3.326847819)
(1733.330763 -2.42014369 2.463425951)
(1733.16055 0.1418540861 0.2796662219)
(1730.055282 -0.8756376042 1.763118875)
(1731.221576 1.187159849 -0.8731404247)
(1730.88791 3.542393893 -2.236098891)
(1732.928944 3.665149053 -2.300955548)
(1730.683845 1.89709221 -0.6576564991)
(1731.979404 -2.775452626 0.08086454691)
(1729.284626 -2.030077709 0.636260237)
(1730.706623 -1.243254551 3.054047015)
(1731.955701 -0.7059373715 2.405767968)
(1735.694457 3.036628817 5.144237384)
(1737.317744 1.052906269 3.883680905)
(1734.458077 -0.9515276507 -1.157090914)
(1734.01162 -0.06426269388 -3.359229011)
(1733.079014 3.402836822 -2.261244758)
(1732.547329 7.209842147 0.1263726896)
(1730.712429 8.12299096 0.007035776584)
(1726.228121 12.28644846 0.7969488045)
(1727.964517 8.562912997 1.848554992)
(1729.488889 0.8780840041 2.980313454)
(1730.111495 2.209506348 1.696441852)
(1725.712427 4.400797916 -1.066602032)
(1722.660355 7.24808884 -3.090331917)
(1721.018106 15.66520847 -2.951050337)
(1716.437919 19.70871892 -3.257499556)
(1719.56534 25.01203679 -2.597619123)
(1712.787318 28.65920087 -6.091393365)
(1712.13483 28.27510796 -2.140605205)
(1735.673088 4.153004573 4.862739566)
(1733.27447 6.861271931 4.891636863)
(1732.883953 6.602707182 7.059981115)
(1735.695932 6.252233554 5.825423027)
(1732.897726 4.123353138 7.322395016)
(1735.937587 2.504264451 8.95260869)
(1733.523478 6.000211584 7.47854255)
(1732.500915 5.889951533 8.386979297)
(1733.308737 9.952979757 8.338394827)
(1731.589307 11.54605543 6.421820804)
(1734.323128 9.877316525 4.229565609)
(1734.992293 11.03048347 6.011808727)
(1732.42051 6.994007288 3.886707331)
(1730.284179 10.01500456 1.967967418)
(1730.312688 9.717438327 4.622686914)
(1733.60117 9.534870499 4.881459861)
(1734.32648 8.857964869 4.613950778)
(1732.782308 9.827227137 3.729425487)
(1730.26801 12.66491899 3.972101198)
(1731.421325 9.661049926 3.203671905)
(1728.319167 14.58028446 -0.03749130595)
(1727.754138 17.7252475 -2.880347669)
(1723.474571 16.4764663 0.906180368)
(1724.264038 16.87233559 4.625848791)
(1724.543358 17.80977947 6.563759047)
(1725.187863 15.45249797 7.401289059)
(1725.443346 15.48324046 4.839220005)
(1723.054057 19.48974009 3.009013659)
(1724.845957 25.79778507 3.18359518)
(1719.289555 35.35045463 -0.4764725468)
)
;

boundaryField
{
    flow
    {
        type            calculated;
        value           nonuniform List<vector> 
55
(
(1317.356426 400.8204955 -2.452884684)
(1346.096887 414.6008647 -0.4702361433)
(1357.5532 420.1769149 -3.464380575)
(1375.107775 429.1274535 -2.260706544)
(1396.767469 430.0597166 -3.039244318)
(1404.723148 426.9760498 2.282570084)
(1421.449615 420.2572542 5.328133142)
(1448.192654 407.5643214 4.146368586)
(1462.789367 387.7170154 -1.439864613)
(1491.724659 366.533256 -3.531029726)
(1502.608517 344.1884317 0.1977494026)
(1528.323855 305.8367456 2.844010234)
(1549.496067 271.8966965 -3.461725898)
(1584.72115 235.097777 -7.537169679)
(1613.796191 198.758576 -4.937122499)
(1622.645007 170.7767297 0.341241312)
(1646.413974 140.9039951 3.191535763)
(1662.409234 124.4644633 6.264582386)
(1678.678092 94.63121515 0.7941716572)
(1693.84142 70.11866981 -2.471452887)
(1699.714969 62.7835736 2.013274555)
(1704.436247 47.75011584 2.538151899)
(1714.542266 39.61296413 -3.882312711)
(1712.13483 28.27510796 -2.140605205)
(1719.289555 35.35045463 -0.4764725468)
(1735.673088 4.153004573 4.862739566)
(1733.27447 6.861271931 4.891636863)
(1732.883953 6.602707182 7.059981115)
(1735.695932 6.252233554 5.825423027)
(1732.897726 4.123353138 7.322395016)
(1735.937587 2.504264451 8.95260869)
(1733.523478 6.000211584 7.47854255)
(1732.500915 5.889951533 8.386979297)
(1733.308737 9.952979757 8.338394827)
(1731.589307 11.54605543 6.421820804)
(1734.323128 9.877316525 4.229565609)
(1734.992293 11.03048347 6.011808727)
(1732.42051 6.994007288 3.886707331)
(1730.284179 10.01500456 1.967967418)
(1730.312688 9.717438327 4.622686914)
(1733.60117 9.534870499 4.881459861)
(1734.32648 8.857964869 4.613950778)
(1732.782308 9.827227137 3.729425487)
(1730.26801 12.66491899 3.972101198)
(1731.421325 9.661049926 3.203671905)
(1728.319167 14.58028446 -0.03749130595)
(1727.754138 17.7252475 -2.880347669)
(1723.474571 16.4764663 0.906180368)
(1724.264038 16.87233559 4.625848791)
(1724.543358 17.80977947 6.563759047)
(1725.187863 15.45249797 7.401289059)
(1725.443346 15.48324046 4.839220005)
(1723.054057 19.48974009 3.009013659)
(1724.845957 25.79778507 3.18359518)
(1719.289555 35.35045463 -0.4764725468)
)
;
    }
    obstacle
    {
        type            calculated;
        value           nonuniform 0();
    }
    frontAndBack
    {
        type            empty;
    }
    procBoundary3to1
    {
        type            processor;
        value           nonuniform List<vector> 
36
(
(1298.761304 398.4040445 0.1755327913)
(1332.229243 432.9027977 0.9481859117)
(1334.314357 427.6687049 2.170958503)
(1328.994462 424.712137 -0.8449981621)
(1323.528939 419.7502154 -2.462396336)
(1321.076233 412.7985801 -1.785882165)
(1321.076233 412.7985801 -1.785882165)
(1408.967746 396.4904015 -4.067369259)
(1396.391169 410.7997626 0.7938762193)
(1384.248151 412.6032172 -1.734486491)
(1375.588588 417.9954655 -1.031712693)
(1359.711565 427.3289231 -1.790317369)
(1359.711565 427.3289231 -1.790317369)
(1519.411821 274.3657831 3.976887895)
(1502.597926 298.3231369 1.898975011)
(1481.745478 321.7752949 -0.6383398639)
(1475.043505 336.4855094 -4.96378514)
(1451.32639 358.3684473 -3.482628344)
(1451.32639 358.3684473 -3.482628344)
(1649.094885 107.2109578 -2.664347842)
(1635.957049 121.6163325 -2.93339802)
(1622.913215 134.4666328 -2.520409531)
(1607.793636 162.3188062 -2.702954402)
(1591.611222 180.174963 0.2695630365)
(1569.197756 204.3004473 -2.066708691)
(1569.197756 204.3004473 -2.066708691)
(1711.626484 25.50780522 1.489330153)
(1704.812458 32.14275203 -2.424751359)
(1692.877472 42.9264337 -4.258724403)
(1687.542578 52.95967587 -4.990906427)
(1682.227792 61.1121406 -8.34053794)
(1673.603758 68.93446187 -7.733250439)
(1673.603758 68.93446187 -7.733250439)
(1720.700147 13.66960945 -5.075898122)
(1718.039676 19.32414129 -3.647193741)
(1718.039676 19.32414129 -3.647193741)
)
;
    }
    procBoundary3to2
    {
        type            processor;
        value           nonuniform List<vector> 
19
(