/*--------------------------------*- C++ -*----------------------------------*\
  =========                 |
  \\      /  F ield         | OpenFOAM: The Open Source CFD Toolbox
   \\    /   O peration     | Website:  https://openfoam.org
    \\  /    A nd           | Version:  7
     \\/     M anipulation  |
\*---------------------------------------------------------------------------*/
FoamFile
{
    version     2.0;
    format      ascii;
    class       volVectorField;
    location    "0.004";
    object      U;
}
// * * * * * * * * * * * * * * * * * * * * * * * * * * * * * * * * * * * * * //

dimensions      [0 1 -1 0 0 0 0];

internalField   nonuniform List<vector> 
1000
(
(2.57863e-14 0 0)
(6.02837e-14 0 0)
(6.36856e-14 0 0)
(3.00426e-14 0 0)
(5.45363e-14 0 0)
(4.36354e-14 0 0)
(1.28248e-13 0 0)
(7.82076e-14 0 0)
(-8.21635e-15 0 0)
(-8.17277e-14 0 0)
(-4.1767e-14 0 0)
(-7.11552e-14 0 0)
(-4.39623e-14 0 0)
(7.51144e-14 0 0)
(6.43447e-14 0 0)
(-1.13062e-14 0 0)
(1.31651e-14 0 0)
(1.30659e-14 0 0)
(-1.50144e-13 0 0)
(-8.13225e-14 0 0)
(-3.54207e-14 0 0)
(1.16438e-13 0 0)
(1.15327e-13 0 0)
(7.63926e-14 0 0)
(1.13776e-13 0 0)
(3.96278e-14 0 0)
(-1.6111e-14 0 0)
(-1.12651e-13 0 0)
(-7.12672e-14 0 0)
(1.03296e-13 0 0)
(2.18418e-13 0 0)
(2.36554e-13 0 0)
(1.27335e-13 0 0)
(2.36749e-14 0 0)
(-1.06829e-13 0 0)
(-1.176e-13 0 0)
(-1.79595e-13 0 0)
(-1.29093e-13 0 0)
(-1.15664e-13 0 0)
(-1.76168e-13 0 0)
(-1.94251e-13 0 0)
(-2.03608e-13 0 0)
(-2.52939e-13 0 0)
(-2.09014e-13 0 0)
(-1.48982e-13 0 0)
(-1.28452e-13 0 0)
(-1.00853e-13 0 0)
(-1.00978e-13 0 0)
(-7.25178e-14 0 0)
(-1.4297e-13 0 0)
(-2.02187e-13 0 0)
(-2.16074e-13 0 0)
(-1.13027e-13 0 0)
(-7.04211e-14 0 0)
(-5.31396e-14 0 0)
(-7.96993e-14 0 0)
(1.20209e-14 0 0)
(9.489e-14 0 0)
(1.07484e-13 0 0)
(-2.99366e-14 0 0)
(-2.13699e-13 0 0)
(-3.36518e-13 0 0)
(-3.12048e-13 0 0)
(-2.16439e-13 0 0)
(-1.02914e-13 0 0)
(-2.99709e-14 0 0)
(-1.21984e-13 0 0)
(-9.66042e-14 0 0)
(-1.59923e-13 0 0)
(-6.49692e-14 0 0)
(-5.98609e-14 0 0)
(-4.80483e-14 0 0)
(-7.21273e-15 0 0)
(-8.64826e-14 0 0)
(-1.58116e-13 0 0)
(-1.76079e-13 0 0)
(-2.70742e-13 0 0)
(-2.51219e-13 0 0)
(-2.09524e-13 0 0)
(-2.20243e-13 0 0)
(-2.39253e-13 0 0)
(-2.53186e-13 0 0)
(-3.01838e-13 0 0)
(-3.47931e-13 0 0)
(-3.47706e-13 0 0)
(-4.42019e-13 0 0)
(-4.56515e-13 0 0)
(-3.62426e-13 0 0)
(-2.659e-13 0 0)
(-3.3586e-13 0 0)
(-3.45232e-13 0 0)
(-2.97765e-13 0 0)
(-3.36856e-13 0 0)
(-3.0069e-13 0 0)
(-2.22543e-13 0 0)
(-1.74251e-13 0 0)
(-6.43775e-14 0 0)
(6.55542e-14 0 0)
(1.32938e-13 0 0)
(1.14808e-13 0 0)
(5.78423e-14 0 0)
(-7.6529e-14 0 0)
(-1.19266e-13 0 0)
(-5.18933e-14 0 0)
(5.1477e-15 0 0)
(4.17871e-14 0 0)
(1.03507e-13 0 0)
(-3.92314e-14 0 0)
(-1.02892e-13 0 0)
(-9.34529e-14 0 0)
(-1.00942e-13 0 0)
(-5.46492e-14 0 0)
(-1.16675e-14 0 0)
(1.62883e-14 0 0)
(5.72627e-14 0 0)
(4.82036e-14 0 0)
(1.71019e-14 0 0)
(-3.44535e-14 0 0)
(-7.71484e-14 0 0)
(-1.13871e-13 0 0)
(-5.59904e-14 0 0)
(-3.5584e-14 0 0)
(-4.68864e-14 0 0)
(-1.86181e-14 0 0)
(-4.28274e-17 0 0)
(3.40949e-14 0 0)
(-5.83444e-15 0 0)
(1.15196e-14 0 0)
(-1.03379e-15 0 0)
(9.12043e-15 0 0)
(-7.16724e-14 0 0)
(-6.02865e-14 0 0)
(-1.39788e-13 0 0)
(-1.87785e-13 0 0)
(-1.85682e-13 0 0)
(-2.02281e-13 0 0)
(-1.48102e-13 0 0)
(-7.97201e-14 0 0)
(8.26269e-14 0 0)
(7.40627e-14 0 0)
(1.24254e-13 0 0)
(2.66557e-13 0 0)
(3.80055e-13 0 0)
(2.45646e-13 0 0)
(1.25642e-13 0 0)
(9.30326e-14 0 0)
(1.78964e-13 0 0)
(2.19661e-13 0 0)
(2.20698e-13 0 0)
(2.04506e-13 0 0)
(2.22924e-13 0 0)
(1.92618e-13 0 0)
(2.25829e-13 0 0)
(3.22802e-13 0 0)
(3.98285e-13 0 0)
(4.24507e-13 0 0)
(3.53943e-13 0 0)
(1.91819e-13 0 0)
(8.58257e-14 0 0)
(1.71445e-13 0 0)
(1.28906e-13 0 0)
(1.41906e-13 0 0)
(2.59799e-13 0 0)
(1.98185e-13 0 0)
(1.16289e-13 0 0)
(5.16696e-14 0 0)
(-2.30829e-14 0 0)
(5.717e-14 0 0)
(1.07779e-13 0 0)
(1.70528e-13 0 0)
(1.93087e-13 0 0)
(1.87088e-13 0 0)
(1.57069e-13 0 0)
(2.58968e-13 0 0)
(1.79258e-13 0 0)
(1.65599e-14 0 0)
(-1.38744e-13 0 0)
(-4.76721e-14 0 0)
(-9.23873e-14 0 0)
(-1.24927e-13 0 0)
(-4.53487e-14 0 0)
(-3.43006e-14 0 0)
(2.13364e-14 0 0)
(-3.13344e-14 0 0)
(-9.24572e-14 0 0)
(-1.74637e-13 0 0)
(-1.60824e-13 0 0)
(-1.45518e-13 0 0)
(-4.23118e-14 0 0)
(8.20146e-14 0 0)
(7.10985e-14 0 0)
(5.75225e-15 0 0)
(4.69019e-14 0 0)
(1.23112e-13 0 0)
(1.83225e-13 0 0)
(1.10622e-13 0 0)
(4.50071e-14 0 0)
(5.49716e-14 0 0)
(3.9023e-14 0 0)
(-7.4922e-14 0 0)
(-1.10513e-13 0 0)
(-1.73172e-13 0 0)
(-1.61929e-13 0 0)
(-1.14347e-13 0 0)
(-7.78658e-14 0 0)
(7.72448e-14 0 0)
(2.25926e-13 0 0)
(2.12464e-13 0 0)
(1.20282e-13 0 0)
(2.92291e-14 0 0)
(7.77581e-14 0 0)
(1.33122e-13 0 0)
(1.74908e-13 0 0)
(1.55389e-13 0 0)
(5.08375e-14 0 0)
(-1.99355e-14 0 0)
(-6.88505e-14 0 0)
(-1.41945e-13 0 0)
(-2.06665e-13 0 0)
(-2.31279e-13 0 0)
(-2.2738e-13 0 0)
(-1.33552e-13 0 0)
(-4.35503e-14 0 0)
(-1.84333e-14 0 0)
(-4.69344e-16 0 0)
(-7.12651e-14 0 0)
(-1.68277e-13 0 0)
(-1.83092e-13 0 0)
(-3.11674e-13 0 0)
(-2.99379e-13 0 0)
(-2.29665e-13 0 0)
(-1.57005e-13 0 0)
(-1.97194e-13 0 0)
(-1.37497e-13 0 0)
(-1.84348e-13 0 0)
(-1.25839e-13 0 0)
(-4.1801e-14 0 0)
(2.0784e-14 0 0)
(-4.42622e-15 0 0)
(-1.35379e-14 0 0)
(-8.48184e-14 0 0)
(-1.79525e-13 0 0)
(-1.48715e-13 0 0)
(-9.14747e-14 0 0)
(-3.48517e-14 0 0)
(1.827e-14 0 0)
(-1.05207e-13 0 0)
(-1.24337e-13 0 0)
(-5.70758e-14 0 0)
(-7.49759e-14 0 0)
(-4.5007e-14 0 0)
(-1.16558e-13 0 0)
(-1.49902e-13 0 0)
(-5.14979e-14 0 0)
(-3.56578e-14 0 0)
(-4.36486e-14 0 0)
(-2.35103e-14 0 0)
(-3.94018e-14 0 0)
(-3.70314e-14 0 0)
(-1.29671e-13 0 0)
(-1.52898e-13 0 0)
(-5.09454e-14 0 0)
(1.89702e-14 0 0)
(4.8072e-15 0 0)
(-1.29822e-14 0 0)
(2.25333e-14 0 0)
(6.05279e-14 0 0)
(1.43122e-14 0 0)
(-2.39128e-14 0 0)
(-8.70693e-14 0 0)
(-6.93318e-14 0 0)
(-5.98063e-14 0 0)
(-3.95093e-14 0 0)
(1.94609e-15 0 0)
(-1.56824e-14 0 0)
(-8.55926e-15 0 0)
(-3.97208e-14 0 0)
(9.96464e-15 0 0)
(8.18833e-14 0 0)
(8.08048e-14 0 0)
(-4.09396e-14 0 0)
(-1.44923e-13 0 0)
(-1.27774e-13 0 0)
(-5.91393e-14 0 0)
(-5.49488e-14 0 0)
(-1.45262e-13 0 0)
(-4.95072e-14 0 0)
(9.43167e-14 0 0)
(2.46062e-13 0 0)
(2.04275e-13 0 0)
(1.27104e-13 0 0)
(-4.76045e-14 0 0)
(-1.09696e-13 0 0)
(-9.16295e-14 0 0)
(-7.68352e-14 0 0)
(2.45358e-15 0 0)
(-3.42059e-14 0 0)
(-1.42393e-13 0 0)
(-2.87077e-13 0 0)
(-2.32356e-13 0 0)
(-1.67137e-13 0 0)
(-1.21329e-13 0 0)
(-1.41012e-14 0 0)
(-2.77548e-14 0 0)
(-8.93341e-14 0 0)
(-9.38014e-14 0 0)
(-1.15489e-13 0 0)
(-3.33996e-14 0 0)
(9.39383e-14 0 0)
(1.4484e-13 0 0)
(2.04414e-13 0 0)
(2.41748e-13 0 0)
(2.636e-13 0 0)
(1.42628e-13 0 0)
(1.39719e-13 0 0)
(9.63499e-14 0 0)
(1.46098e-13 0 0)
(1.48355e-13 0 0)
(1.57145e-13 0 0)
(1.30366e-13 0 0)
(7.93376e-14 0 0)
(-3.68877e-14 0 0)
(-9.85868e-14 0 0)
(-1.06165e-13 0 0)
(-1.59834e-13 0 0)
(-8.20903e-14 0 0)
(1.10787e-13 0 0)
(8.28543e-13 0 0)
(2.65266e-12 0 0)
(8.114e-12 0 0)
(2.46412e-11 0 0)
(7.16458e-11 0 0)
(2.08617e-10 0 0)
(6.05122e-10 0 0)
(1.73993e-09 0 0)
(4.96425e-09 0 0)
(1.40269e-08 0 0)
(3.92655e-08 0 0)
(1.08869e-07 0 0)
(2.99019e-07 0 0)
(8.1357e-07 0 0)
(2.19286e-06 0 0)
(5.856e-06 0 0)
(1.54969e-05 0 0)
(4.06503e-05 0 0)
(0.00010574 0 0)
(0.000272918 0 0)
(0.000699512 0 0)
(0.0017824 0 0)
(0.00452141 0 0)
(0.0114386 0 0)
(0.0289219 0 0)
(0.0732677 0 0)
(0.186484 0 0)
(0.478402 0 0)
(1.24191 0 0)
(3.29148 0 0)
(8.32129 0 0)
(14.7354 0 0)
(19.4466 0 0)
(22.7925 0 0)
(25.429 0 0)
(27.7115 0 0)
(29.8266 0 0)
(31.8737 0 0)
(33.9036 0 0)
(35.9388 0 0)
(37.9857 0 0)
(40.0433 0 0)
(42.1081 0 0)
(44.1766 0 0)
(46.2465 0 0)
(48.3162 0 0)
(50.3849 0 0)
(52.4522 0 0)
(54.518 0 0)
(56.5822 0 0)
(58.645 0 0)
(60.7063 0 0)
(62.7663 0 0)
(64.8249 0 0)
(66.8824 0 0)
(68.9387 0 0)
(70.9941 0 0)
(73.0484 0 0)
(75.1019 0 0)
(77.1546 0 0)
(79.2065 0 0)
(81.2576 0 0)
(83.3082 0 0)
(85.3581 0 0)
(87.4075 0 0)
(89.4564 0 0)
(91.5047 0 0)
(93.5527 0 0)
(95.6002 0 0)
(97.6473 0 0)
(99.6941 0 0)
(101.741 0 0)
(103.787 0 0)
(105.833 0 0)
(107.878 0 0)
(109.924 0 0)
(111.969 0 0)
(114.014 0 0)
(116.059 0 0)
(118.104 0 0)
(120.148 0 0)
(122.193 0 0)
(124.237 0 0)
(126.282 0 0)
(128.326 0 0)
(130.37 0 0)
(132.415 0 0)
(134.459 0 0)
(136.503 0 0)
(138.548 0 0)
(140.592 0 0)
(142.636 0 0)
(144.681 0 0)
(146.725 0 0)
(148.77 0 0)
(150.815 0 0)
(152.859 0 0)
(154.904 0 0)
(156.949 0 0)
(158.994 0 0)
(161.04 0 0)
(163.085 0 0)
(165.131 0 0)
(167.176 0 0)
(169.222 0 0)
(171.268 0 0)
(173.314 0 0)
(175.361 0 0)
(177.407 0 0)
(179.454 0 0)
(181.501 0 0)
(183.548 0 0)
(185.595 0 0)
(187.642 0 0)
(189.69 0 0)
(191.737 0 0)
(193.785 0 0)
(195.833 0 0)
(197.882 0 0)
(199.93 0 0)
(201.979 0 0)
(204.028 0 0)
(206.077 0 0)
(208.126 0 0)
(210.175 0 0)
(212.224 0 0)
(214.274 0 0)
(216.324 0 0)
(218.373 0 0)
(220.423 0 0)
(222.473 0 0)
(224.523 0 0)
(226.573 0 0)
(228.623 0 0)
(230.673 0 0)
(232.723 0 0)
(234.773 0 0)
(236.822 0 0)
(238.872 0 0)
(240.921 0 0)
(242.971 0 0)
(245.02 0 0)
(247.068 0 0)
(249.117 0 0)
(251.165 0 0)
(253.212 0 0)
(255.259 0 0)
(257.305 0 0)
(259.351 0 0)
(261.396 0 0)
(263.441 0 0)
(265.484 0 0)
(267.527 0 0)
(269.568 0 0)
(271.609 0 0)
(273.647 0 0)
(275.683 0 0)
(277.716 0 0)
(279.742 0 0)
(281.757 0 0)
(283.751 0 0)
(285.7 0 0)
(287.562 0 0)
(289.265 0 0)
(290.709 0 0)
(291.797 0 0)
(292.519 0 0)
(292.944 0 0)
(293.178 0 0)
(293.336 0 0)
(293.475 0 0)
(293.595 0 0)
(293.663 0 0)
(293.68 0 0)
(293.678 0 0)
(293.663 0 0)
(293.657 0 0)
(293.659 0 0)
(293.669 0 0)
(293.679 0 0)
(293.68 0 0)
(293.668 0 0)
(293.607 0 0)
(293.517 0 0)
(293.47 0 0)
(293.453 0 0)
(293.45 0 0)
(293.457 0 0)
(293.462 0 0)
(293.458 0 0)
(293.421 0 0)
(293.354 0 0)
(293.306 0 0)
(293.284 0 0)
(293.278 0 0)
(293.278 0 0)
(293.28 0 0)
(293.278 0 0)
(293.26 0 0)
(293.199 0 0)
(293.117 0 0)
(293.064 0 0)
(293.045 0 0)
(293.041 0 0)
(293.053 0 0)
(293.105 0 0)
(293.16 0 0)
(293.196 0 0)
(293.224 0 0)
(293.259 0 0)
(293.315 0 0)
(293.377 0 0)
(293.419 0 0)
(293.438 0 0)
(293.441 0 0)
(293.418 0 0)
(293.389 0 0)
(293.38 0 0)
(293.387 0 0)
(293.423 0 0)
(293.456 0 0)
(293.467 0 0)
(293.461 0 0)
(293.41 0 0)
(293.357 0 0)
(293.336 0 0)
(293.335 0 0)
(293.35 0 0)
(293.369 0 0)
(293.372 0 0)
(293.355 0 0)
(293.288 0 0)
(293.237 0 0)
(293.217 0 0)
(293.217 0 0)
(293.227 0 0)
(293.235 0 0)
(293.232 0 0)
(293.184 0 0)
(293.115 0 0)
(293.084 0 0)
(293.085 0 0)
(293.141 0 0)
(293.241 0 0)
(293.31 0 0)
(293.346 0 0)
(293.353 0 0)
(293.325 0 0)
(293.3 0 0)
(293.301 0 0)
(293.327 0 0)
(293.375 0 0)
(293.416 0 0)
(293.433 0 0)
(293.423 0 0)
(293.367 0 0)
(293.332 0 0)
(293.331 0 0)
(293.35 0 0)
(293.387 0 0)
(293.421 0 0)
(293.432 0 0)
(293.404 0 0)
(293.32 0 0)
(293.278 0 0)
(293.276 0 0)
(293.287 0 0)
(293.307 0 0)
(293.338 0 0)
(293.348 0 0)
(293.304 0 0)
(293.227 0 0)
(293.198 0 0)
(293.196 0 0)
(293.188 0 0)
(293.184 0 0)
(293.198 0 0)
(293.218 0 0)
(293.183 0 0)
(293.14 0 0)
(293.176 0 0)
(293.23 0 0)
(293.28 0 0)
(293.328 0 0)
(293.393 0 0)
(293.421 0 0)
(293.363 0 0)
(293.353 0 0)
(293.461 0 0)
(293.871 0 0)
(294.142 0 0)
(288.33 0 0)
(292.179 0 0)
(297.685 0 0)
(299.482 0 0)
(296.262 0 0)
(290.816 0 0)
(289.769 0 0)
(289.845 0 0)
(289.998 0 0)
(290.549 0 0)
(292.76 0 0)
(296.591 0 0)
(297.58 0 0)
(297.33 0 0)
(296.254 0 0)
(292.582 0 0)
(290.162 0 0)
(289.772 0 0)
(289.772 0 0)
(290.37 0 0)
(293.456 0 0)
(296.433 0 0)
(296.888 0 0)
(296.918 0 0)
(296.062 0 0)
(292.404 0 0)
(290.021 0 0)
(289.751 0 0)
(289.91 0 0)
(290.642 0 0)
(293.583 0 0)
(295.977 0 0)
(296.393 0 0)
(296.295 0 0)
(295.63 0 0)
(292.715 0 0)
(290.472 0 0)
(290.2 0 0)
(290.272 0 0)
(290.948 0 0)
(293.889 0 0)
(295.899 0 0)
(296.233 0 0)
(296.257 0 0)
(295.566 0 0)
(292.585 0 0)
(290.733 0 0)
(290.559 0 0)
(290.635 0 0)
(291.274 0 0)
(293.901 0 0)
(295.768 0 0)
(296.043 0 0)
(295.902 0 0)
(295.295 0 0)
(292.839 0 0)
(291.094 0 0)
(290.899 0 0)
(290.94 0 0)
(291.434 0 0)
(293.73 0 0)
(295.473 0 0)
(295.746 0 0)
(295.736 0 0)
(295.202 0 0)
(292.808 0 0)
(291.235 0 0)
(291.039 0 0)
(291.051 0 0)
(291.517 0 0)
(293.589 0 0)
(295.239 0 0)
(295.463 0 0)
(295.352 0 0)
(294.874 0 0)
(292.926 0 0)
(291.401 0 0)
(291.146 0 0)
(291.181 0 0)
(291.549 0 0)
(293.252 0 0)
(294.901 0 0)
(295.159 0 0)
(295.17 0 0)
(294.85 0 0)
(293.104 0 0)
(291.624 0 0)
(291.422 0 0)
(291.414 0 0)
(291.733 0 0)
(293.284 0 0)
(294.903 0 0)
(295.152 0 0)
(295.1 0 0)
(294.803 0 0)
(293.466 0 0)
(291.892 0 0)
(291.592 0 0)
(291.679 0 0)
(292.218 0 0)
(293.412 0 0)
(293.3 0 0)
(287.908 0 0)
(232.377 0 0)
(50.8727 0 0)
(3.57925 0 0)
(0.237645 0 0)
(0.0155906 0 0)
(0.00102366 0 0)
(6.72511e-05 0 0)
(4.42171e-06 0 0)
(2.90987e-07 0 0)
(1.91696e-08 0 0)
(1.26449e-09 0 0)
(8.3458e-11 0 0)
(5.31646e-12 0 0)
(9.77294e-14 0 0)
(-3.02269e-13 0 0)
(-2.44397e-13 0 0)
(-1.47028e-13 0 0)
(-3.05191e-14 0 0)
(-5.25809e-14 0 0)
(2.03506e-15 0 0)
(1.07755e-13 0 0)
(1.00125e-13 0 0)
(1.81099e-13 0 0)
(2.08862e-13 0 0)
(1.57831e-13 0 0)
(7.81344e-14 0 0)
(5.05682e-14 0 0)
(7.35331e-14 0 0)
(1.07566e-13 0 0)
(1.63138e-13 0 0)
(7.9447e-14 0 0)
(9.73979e-15 0 0)
(9.88035e-15 0 0)
(-5.69978e-14 0 0)
(-1.04412e-13 0 0)
(-1.15355e-13 0 0)
(-2.48802e-13 0 0)
(-2.00661e-13 0 0)
(-1.50043e-13 0 0)
(-1.86875e-13 0 0)
(-2.20649e-13 0 0)
(-1.8408e-13 0 0)
(-1.39732e-13 0 0)
(2.04702e-14 0 0)
(-1.33815e-13 0 0)
(-1.2368e-13 0 0)
(-1.82759e-13 0 0)
(-4.3574e-13 0 0)
(-4.15288e-13 0 0)
(-5.01957e-13 0 0)
(-4.47726e-13 0 0)
(-2.99868e-13 0 0)
(-1.69074e-13 0 0)
(-1.89064e-13 0 0)
(-2.2027e-13 0 0)
(-1.41225e-13 0 0)
(-1.63683e-14 0 0)
(1.34283e-13 0 0)
(1.4794e-13 0 0)
(1.77472e-13 0 0)
(1.39899e-13 0 0)
(-5.00934e-14 0 0)
(-1.60916e-13 0 0)
(-3.08605e-13 0 0)
(-3.92418e-13 0 0)
(-2.68491e-13 0 0)
(-1.06023e-13 0 0)
(-2.45089e-13 0 0)
(-2.17658e-13 0 0)
(-6.37724e-14 0 0)
(-1.03665e-13 0 0)
(-1.88277e-13 0 0)
(-1.85076e-13 0 0)
(-1.49832e-13 0 0)
(-7.06647e-14 0 0)
(-2.58928e-14 0 0)
(8.95931e-14 0 0)
(1.02003e-13 0 0)
(1.40178e-13 0 0)
(9.23618e-14 0 0)
(7.28051e-14 0 0)
(9.8614e-14 0 0)
(2.16973e-13 0 0)
(3.49083e-13 0 0)
(3.62494e-13 0 0)
(2.89308e-13 0 0)
(2.58222e-13 0 0)
(2.09759e-13 0 0)
(5.99403e-14 0 0)
(3.23135e-14 0 0)
(1.53739e-13 0 0)
(2.25049e-13 0 0)
(3.35277e-13 0 0)
(4.71394e-13 0 0)
(4.80852e-13 0 0)
(3.84863e-13 0 0)
(2.75494e-13 0 0)
(2.13317e-13 0 0)
(3.90255e-14 0 0)
(-2.55136e-14 0 0)
(-9.99937e-14 0 0)
(-7.35394e-15 0 0)
(-2.26764e-15 0 0)
(-1.09308e-13 0 0)
(-1.62e-13 0 0)
(-2.11196e-13 0 0)
(-1.41256e-13 0 0)
(-6.88077e-14 0 0)
(-6.4431e-15 0 0)
(1.45725e-13 0 0)
(2.00241e-13 0 0)
(1.08223e-13 0 0)
(-6.89162e-14 0 0)
(-2.16763e-13 0 0)
(-1.65039e-13 0 0)
(-6.62259e-14 0 0)
(-1.50427e-14 0 0)
(1.12859e-13 0 0)
(1.9028e-13 0 0)
(1.35737e-13 0 0)
(1.45267e-13 0 0)
(6.77917e-14 0 0)
(-6.21826e-15 0 0)
(-4.59256e-14 0 0)
(-9.99767e-14 0 0)
(-1.33475e-13 0 0)
(-2.04122e-13 0 0)
(-1.58389e-13 0 0)
(-2.36294e-14 0 0)
(1.55831e-13 0 0)
(1.12296e-13 0 0)
(1.63712e-13 0 0)
(2.61164e-13 0 0)
(2.24728e-13 0 0)
(1.69038e-13 0 0)
(2.31734e-13 0 0)
(3.20091e-13 0 0)
(2.09432e-13 0 0)
(9.66195e-14 0 0)
(-2.46049e-14 0 0)
(-4.2168e-14 0 0)
(1.73797e-14 0 0)
(7.90779e-14 0 0)
(2.15567e-13 0 0)
(3.35554e-13 0 0)
(4.03578e-13 0 0)
(4.57595e-13 0 0)
(6.24467e-13 0 0)
(6.99873e-13 0 0)
(7.35843e-13 0 0)
(7.03402e-13 0 0)
(5.57304e-13 0 0)
(3.46752e-13 0 0)
(1.73021e-13 0 0)
(7.83311e-14 0 0)
(-1.29938e-14 0 0)
(4.73881e-14 0 0)
(1.00954e-13 0 0)
(1.2997e-13 0 0)
(1.51081e-13 0 0)
(1.65308e-13 0 0)
(1.06241e-13 0 0)
(1.35981e-13 0 0)
(1.61657e-13 0 0)
(8.35026e-14 0 0)
(4.85141e-14 0 0)
(1.64928e-13 0 0)
(8.64889e-14 0 0)
(8.72979e-15 0 0)
(-9.72707e-14 0 0)
(-7.18796e-14 0 0)
(-5.72121e-14 0 0)
(-1.46033e-14 0 0)
(-1.18109e-13 0 0)
(-2.14297e-13 0 0)
(-3.07315e-13 0 0)
(-3.05637e-13 0 0)
(-2.93027e-13 0 0)
(-2.07529e-13 0 0)
(-1.01443e-13 0 0)
(-6.50358e-14 0 0)
(-1.72778e-14 0 0)
(4.46269e-14 0 0)
(1.02179e-13 0 0)
(-5.33667e-14 0 0)
(-1.03584e-13 0 0)
(-3.12133e-14 0 0)
(8.57123e-14 0 0)
(1.30818e-13 0 0)
(1.65227e-13 0 0)
(1.32907e-13 0 0)
(1.46637e-13 0 0)
(1.53202e-13 0 0)
(1.13467e-13 0 0)
(1.61078e-14 0 0)
(1.33468e-14 0 0)
(3.96565e-15 0 0)
(-7.80618e-14 0 0)
(-1.22745e-13 0 0)
(-1.66842e-13 0 0)
(-8.52992e-14 0 0)
(6.28258e-14 0 0)
(1.78221e-13 0 0)
(1.31448e-13 0 0)
(-3.28922e-14 0 0)
(-1.37589e-14 0 0)
(1.65424e-14 0 0)
(1.74882e-14 0 0)
(-2.05099e-13 0 0)
(-2.22135e-13 0 0)
(-3.69773e-14 0 0)
(7.73958e-14 0 0)
(8.435e-14 0 0)
(1.30675e-14 0 0)
(4.28498e-14 0 0)
(6.17434e-15 0 0)
(2.07254e-14 0 0)
(1.63089e-13 0 0)
(2.37891e-13 0 0)
(3.21712e-13 0 0)
(3.10837e-13 0 0)
(3.10509e-13 0 0)
(2.38239e-13 0 0)
(3.09921e-13 0 0)
(3.7727e-13 0 0)
(3.60492e-13 0 0)
(2.55235e-13 0 0)
(9.84006e-14 0 0)
(-1.54751e-14 0 0)
(5.02868e-14 0 0)
(1.42653e-13 0 0)
(1.31366e-13 0 0)
(1.65585e-13 0 0)
(1.00889e-14 0 0)
(1.00401e-13 0 0)
(1.67907e-13 0 0)
(1.83661e-13 0 0)
(7.7669e-14 0 0)
(6.7526e-14 0 0)
(-1.91726e-14 0 0)
(-1.07868e-13 0 0)
(-5.45781e-14 0 0)
(-2.71568e-14 0 0)
(-1.73377e-14 0 0)
(8.09767e-15 0 0)
(-4.75018e-14 0 0)
(-1.47518e-13 0 0)
(-1.71082e-13 0 0)
(-9.27675e-14 0 0)
(-1.3155e-14 0 0)
(-3.49912e-14 0 0)
(-3.4887e-14 0 0)
(-7.76384e-14 0 0)
(8.43928e-15 0 0)
(1.38132e-15 0 0)
(-2.24903e-14 0 0)
(1.58813e-14 0 0)
(1.49167e-13 0 0)
(1.77294e-13 0 0)
(1.96278e-13 0 0)
(1.24325e-13 0 0)
(7.94539e-14 0 0)
(6.93434e-14 0 0)
(5.08041e-14 0 0)
(-9.75571e-15 0 0)
(1.10547e-13 0 0)
(2.47548e-13 0 0)
(3.12633e-13 0 0)
(1.98008e-13 0 0)
(4.96893e-14 0 0)
(5.9059e-15 0 0)
(3.11789e-14 0 0)
(1.02585e-14 0 0)
(7.39877e-14 0 0)
(1.68373e-13 0 0)
(1.75292e-13 0 0)
(2.18398e-13 0 0)
(3.06736e-13 0 0)
(2.96334e-13 0 0)
)
;

boundaryField
{
    sides
    {
        type            zeroGradient;
    }
    empty
    {
        type            empty;
    }
}


// ************************************************************************* //
