/*--------------------------------*- C++ -*----------------------------------*\
  =========                 |
  \\      /  F ield         | OpenFOAM: The Open Source CFD Toolbox
   \\    /   O peration     | Website:  https://openfoam.org
    \\  /    A nd           | Version:  7
     \\/     M anipulation  |
\*---------------------------------------------------------------------------*/
FoamFile
{
    version     2.0;
    format      ascii;
    class       scalarField;
    location    "0.003/lagrangian/dsmc";
    object      Ei;
}
// * * * * * * * * * * * * * * * * * * * * * * * * * * * * * * * * * * * * * //


10852
(
1.67384e-22
1.17577e-20
8.10759e-21
3.36865e-21
5.35742e-21
2.52858e-21
2.86895e-21
4.40356e-22
1.98495e-21
5.14303e-21
3.61783e-21
1.21508e-20
6.08576e-23
8.47264e-22
2.46197e-21
2.46138e-21
1.13646e-20
2.60171e-21
2.03917e-20
6.33508e-21
9.65047e-22
1.33344e-21
1.55603e-21
3.71428e-21
3.51931e-21
6.27668e-21
4.27629e-21
4.31257e-21
6.42762e-22
5.62969e-21
1.51643e-21
8.75619e-21
2.79536e-20
1.42344e-20
3.03804e-21
3.27412e-21
2.72606e-21
8.76996e-22
4.5781e-21
7.02964e-21
3.88875e-21
4.00127e-21
1.14863e-21
6.01472e-21
7.80264e-21
1.44031e-21
2.01634e-21
7.24299e-21
3.13401e-21
6.09836e-21
1.42093e-20
1.30861e-20
4.61607e-22
8.04399e-21
3.08449e-22
8.77485e-22
1.16465e-21
6.46655e-21
1.07669e-21
2.56807e-21
1.78486e-21
2.12172e-21
5.24939e-22
1.92914e-21
6.04554e-21
4.14077e-22
4.32268e-21
2.6728e-21
1.1768e-20
3.0793e-21
3.18653e-21
2.357e-21
5.07671e-21
2.1917e-20
5.64817e-21
1.39897e-21
1.23183e-20
8.02194e-21
9.30593e-21
2.3965e-21
2.16451e-20
9.28804e-21
4.78991e-21
2.36156e-21
2.27879e-21
2.26178e-21
4.19013e-21
1.19888e-20
5.15976e-22
1.17293e-21
1.78891e-21
1.4122e-21
9.42133e-21
5.59378e-21
5.80725e-21
5.0681e-21
2.76377e-21
2.09452e-21
1.20331e-22
1.40553e-21
2.42127e-21
4.9561e-21
3.26944e-22
1.45512e-21
1.39721e-21
8.95145e-22
6.45234e-22
5.34297e-21
1.76561e-20
1.11581e-20
7.97717e-21
1.65892e-21
3.95108e-21
1.87791e-20
1.09401e-21
5.82583e-21
1.25378e-20
4.24254e-21
2.25576e-20
2.41403e-21
2.74322e-21
5.88147e-21
4.49588e-21
7.59116e-21
2.72091e-21
2.30556e-21
1.31456e-20
1.8773e-20
7.69786e-21
2.57439e-21
1.18765e-21
6.98907e-21
2.38221e-21
1.37866e-20
1.08285e-21
2.24666e-20
8.69914e-21
8.80636e-23
5.32354e-22
3.55096e-22
3.75357e-21
5.02419e-21
5.59949e-21
2.04194e-21
2.86778e-20
7.15278e-21
7.79051e-21
9.19182e-22
1.6811e-20
4.77281e-22
4.13607e-21
5.22032e-21
2.38371e-22
1.57409e-21
1.27165e-20
1.2127e-20
5.75547e-22
2.26251e-21
3.22466e-21
1.68079e-20
3.65227e-22
4.29388e-21
1.58493e-21
3.22033e-21
3.03893e-21
5.04268e-21
3.06582e-21
3.35428e-22
1.67997e-21
3.86776e-21
1.20331e-21
8.20753e-22
3.75912e-21
1.55775e-20
4.75103e-22
1.98665e-20
1.41243e-20
3.38748e-22
9.83607e-23
1.63521e-20
7.16357e-21
7.39449e-21
3.68211e-21
4.71367e-21
6.68804e-21
3.76942e-21
4.29149e-21
2.90458e-21
1.4121e-21
1.13826e-20
1.68158e-20
1.22093e-20
1.01461e-21
1.0852e-21
3.25314e-21
6.98101e-21
2.49755e-21
7.9109e-21
1.10689e-20
4.89152e-21
1.24166e-20
3.76278e-20
2.07791e-21
2.47689e-21
2.1004e-21
1.26868e-21
8.41875e-21
1.07784e-20
1.61234e-20
2.75445e-22
5.19252e-22
3.24979e-22
5.21416e-21
7.65909e-21
5.20243e-22
4.49918e-22
1.53824e-20
2.73741e-21
5.40127e-21
5.81562e-21
1.92986e-20
6.859e-21
3.84542e-21
2.23226e-23
1.45618e-20
3.01399e-21
7.90392e-23
1.20838e-21
3.11924e-21
1.66294e-20
1.6433e-22
1.42405e-20
2.21381e-20
1.16071e-21
1.60942e-21
1.7016e-21
1.69232e-21
4.82498e-21
1.77616e-20
1.15292e-21
5.89048e-21
1.21656e-21
9.2626e-21
2.92958e-21
2.45545e-21
2.72137e-21
4.12417e-21
4.89461e-21
2.39347e-20
1.52666e-20
6.96559e-21
6.99625e-21
9.2204e-22
4.45086e-21
8.16323e-23
2.34161e-21
2.78728e-21
9.87589e-22
5.61087e-21
8.69306e-21
8.44687e-22
2.7932e-21
2.50047e-21
5.09159e-21
1.5379e-20
4.89049e-21
1.61729e-22
6.04223e-21
2.42631e-20
7.90732e-21
6.00295e-22
1.23674e-21
1.69497e-21
6.83001e-22
3.30163e-21
1.84169e-22
3.11213e-21
3.26382e-21
7.86436e-21
1.37982e-21
1.37072e-21
3.75142e-21
6.88221e-21
8.95545e-21
4.1097e-21
7.40565e-22
1.69169e-21
1.15894e-21
1.73348e-20
5.33367e-22
2.74381e-21
1.41599e-20
1.81563e-21
1.07801e-21
6.25002e-21
6.59409e-22
1.08966e-20
1.38858e-20
3.07029e-21
4.67462e-21
1.1081e-21
3.25798e-21
1.65022e-21
3.97782e-21
1.55053e-21
6.68726e-21
4.39099e-21
3.8943e-21
3.33815e-21
8.20002e-21
1.26621e-20
3.62022e-21
1.24406e-20
7.47607e-21
1.66578e-21
1.2694e-21
3.1442e-20
3.68256e-21
1.25703e-21
5.57774e-21
2.05942e-21
2.54662e-21
8.02533e-22
3.42781e-21
7.7293e-21
1.64845e-21
7.13421e-21
3.90523e-22
9.43919e-23
1.50337e-20
1.43345e-21
2.43616e-22
5.92662e-21
2.84297e-20
2.06491e-20
3.89367e-21
2.28403e-21
9.26578e-22
5.8792e-21
1.83256e-21
1.08533e-21
5.02271e-21
4.48707e-21
3.2025e-21
4.8885e-21
1.78231e-20
7.25288e-22
6.92175e-22
1.5712e-21
1.07955e-20
3.84627e-21
4.1616e-22
2.6761e-21
1.03773e-20
1.3032e-20
6.31225e-21
1.13134e-20
1.66801e-21
5.16861e-21
4.24635e-21
6.06637e-21
3.21989e-20
3.47045e-21
5.89856e-22
2.4472e-22
3.20578e-21
1.11225e-21
3.36306e-21
1.7165e-21
1.67028e-21
6.62997e-21
1.72031e-21
1.93355e-21
4.00438e-21
7.67788e-21
2.21177e-22
1.29902e-21
4.65382e-21
4.19945e-23
1.15857e-20
1.67075e-20
5.71475e-21
7.92264e-22
1.0125e-20
4.30454e-21
2.82452e-22
4.50243e-21
2.31922e-21
1.34985e-21
1.65771e-21
1.80453e-21
2.42322e-21
5.57092e-22
7.3533e-21
1.51405e-21
5.30182e-21
1.80503e-20
2.99285e-22
2.0701e-20
4.47094e-21
1.67966e-20
2.36471e-21
1.47827e-20
8.84163e-21
5.53626e-21
2.09003e-21
1.59763e-21
3.75222e-21
1.83459e-21
1.59114e-20
2.75738e-21
1.15451e-20
2.70658e-21
5.40064e-21
1.40688e-21
8.9557e-22
2.51952e-21
1.76447e-21
5.98217e-21
3.03973e-21
7.89977e-22
4.55149e-21
1.95702e-21
8.0177e-22
1.37512e-20
2.08649e-22
8.22582e-21
1.14691e-21
3.59339e-22
2.5747e-21
1.74457e-20
1.65482e-20
2.34668e-21
1.15161e-21
1.29654e-20
1.88472e-21
8.19767e-21
7.3012e-22
1.18933e-21
7.29395e-22
8.22222e-21
1.48845e-21
1.20522e-20
4.51195e-21
1.46514e-21
4.71031e-21
1.56509e-21
3.22724e-21
7.7111e-21
8.20147e-22
3.78526e-21
1.55922e-20
2.24261e-22
1.58414e-21
5.42642e-22
7.5642e-21
9.54785e-21
3.64975e-24
1.59909e-21
6.77035e-21
1.03983e-20
5.28837e-21
7.02339e-21
4.43976e-21
1.07098e-21
5.69683e-21
7.10442e-21
4.0448e-21
1.03e-21
2.72524e-22
4.21059e-22
2.28791e-21
1.64772e-20
5.73943e-21
1.66533e-21
2.13363e-21
1.01807e-20
7.75148e-22
6.49974e-21
7.33553e-21
6.41262e-21
2.15537e-21
5.73421e-21
7.72231e-22
2.00716e-20
1.51336e-20
2.80717e-21
3.69122e-22
5.52184e-22
1.51692e-21
6.28181e-22
4.76986e-21
7.31234e-21
1.28816e-21
4.0348e-21
2.3884e-21
4.15754e-21
1.86496e-21
5.97338e-22
1.13099e-21
1.47643e-20
2.1952e-22
6.4276e-21
6.72127e-21
1.56511e-20
2.67207e-21
1.29295e-20
1.568e-21
6.86623e-21
2.44724e-21
3.27124e-21
1.12299e-21
6.70419e-21
2.97427e-21
3.93492e-21
3.18129e-20
9.94012e-21
1.24568e-20
3.5038e-21
1.21913e-21
5.32178e-21
1.81631e-20
3.15097e-21
8.52874e-21
6.31183e-21
7.58121e-21
4.50421e-23
6.13172e-21
3.14012e-22
3.23862e-22
1.01703e-20
1.1118e-20
1.0921e-20
4.83101e-21
2.24403e-21
2.79158e-21
1.66171e-20
4.7782e-22
8.7992e-22
6.74179e-21
5.61198e-22
5.87586e-21
3.43324e-21
9.79638e-21
2.34052e-22
1.59469e-21
2.26136e-21
4.57864e-21
6.08299e-21
4.10682e-21
9.65138e-22
1.56982e-21
1.64312e-22
5.80672e-21
1.2072e-20
7.96101e-22
8.67938e-21
7.25594e-21
9.53617e-21
8.36668e-21
3.09259e-21
1.25787e-20
6.20541e-21
1.80498e-21
4.51608e-21
5.71787e-21
3.04312e-21
8.1447e-21
1.89844e-21
3.91994e-21
5.66279e-21
3.2677e-21
1.61912e-21
1.03758e-22
4.68742e-21
8.10865e-22
4.48111e-21
3.62405e-21
5.26486e-21
3.32602e-21
2.75767e-22
2.48399e-20
1.59542e-21
1.22472e-20
2.88717e-21
1.24702e-20
3.40668e-22
4.21634e-21
1.3055e-20
4.2988e-21
2.07422e-20
1.48017e-20
1.78518e-20
1.00009e-20
2.44274e-21
5.30933e-21
7.76032e-21
4.77802e-21
1.26282e-20
8.88994e-21
7.59532e-21
1.05066e-20
1.17763e-21
1.36395e-21
6.08717e-21
7.82393e-21
4.77009e-21
4.67333e-21
3.57327e-21
1.09415e-21
1.39467e-21
1.24835e-20
4.21555e-21
4.23812e-21
4.20218e-22
1.06515e-20
6.01991e-21
1.971e-20
3.31923e-21
2.68866e-21
3.73738e-21
3.06768e-21
7.97794e-21
8.21896e-21
8.37157e-23
7.23286e-21
1.01239e-20
5.09821e-21
8.56925e-21
1.73464e-21
5.84091e-21
8.35341e-21
2.52408e-21
1.78631e-21
2.92681e-21
6.34187e-22
6.32931e-21
5.01695e-21
6.56701e-21
1.67751e-21
2.26587e-21
3.96034e-21
9.3009e-21
1.21076e-20
1.40535e-21
1.47722e-21
2.2777e-21
5.63854e-21
6.73521e-21
1.20448e-20
2.07111e-21
3.79276e-21
1.36296e-21
9.09546e-21
3.99734e-21
5.4413e-21
6.40651e-21
6.34743e-21
3.47475e-21
2.19286e-21
1.10839e-20
5.0574e-21
3.6138e-21
2.33924e-21
1.41694e-20
2.949e-21
2.33987e-20
1.06389e-20
6.4107e-21
2.2423e-21
1.22758e-20
1.10284e-22
4.89541e-22
4.80015e-21
2.89291e-21
3.12189e-21
5.46313e-21
5.34554e-21
3.7231e-21
3.55927e-21
2.37974e-21
1.27928e-21
3.13701e-21
8.37953e-21
7.66683e-22
3.09058e-21
2.92886e-21
1.16635e-20
8.37291e-21
6.495e-21
7.05487e-21
2.13088e-22
2.22097e-20
1.2409e-20
5.49094e-21
9.27228e-21
1.10229e-20
1.81838e-20
8.08391e-22
3.0669e-21
2.19397e-22
5.98141e-21
1.38814e-21
1.51515e-20
6.46304e-21
2.22241e-22
4.21619e-21
5.08522e-21
7.62539e-21
1.46694e-21
4.57412e-21
1.86614e-21
2.09166e-22
1.07283e-20
4.30434e-21
1.86354e-21
5.59161e-21
6.97917e-22
2.963e-21
1.21437e-20
4.24143e-21
2.55076e-21
1.4823e-20
7.42802e-23
3.09856e-22
3.34241e-21
6.24655e-21
1.2535e-20
2.28048e-21
9.82767e-21
1.17037e-21
1.15485e-20
6.0829e-21
1.14913e-20
5.2714e-22
2.17747e-21
2.23605e-21
1.2589e-20
2.08753e-20
4.99669e-21
3.63701e-21
5.74867e-21
2.61237e-20
3.65786e-21
1.21566e-21
7.23538e-21
9.2311e-21
5.9799e-21
4.69518e-21
5.93649e-21
7.98302e-21
1.95877e-20
6.67438e-22
4.06415e-21
4.68314e-22
8.40646e-22
3.68518e-22
1.17816e-20
1.88122e-21
1.03571e-21
1.55271e-20
5.83867e-21
2.19874e-21
1.20735e-20
2.68167e-21
1.21189e-20
1.31564e-21
9.05961e-22
6.69627e-21
2.08886e-21
1.05315e-20
7.26605e-21
3.71905e-21
1.75859e-22
1.02626e-20
2.23854e-21
6.5385e-22
1.4597e-21
4.87099e-21
2.19679e-21
6.21208e-21
6.81783e-21
8.26852e-22
3.13381e-21
7.61364e-22
1.12234e-22
5.17063e-21
5.0321e-21
7.70162e-21
1.42337e-22
7.94409e-22
5.35483e-21
2.20538e-21
1.26986e-20
3.28565e-21
2.74443e-21
2.65709e-22
1.02774e-21
3.87411e-22
1.3297e-20
1.11321e-21
3.04242e-21
1.50044e-20
1.69674e-21
7.05572e-21
1.71814e-21
4.26458e-21
8.35239e-21
2.36784e-21
1.02815e-20
2.29269e-21
3.35858e-21
1.34887e-21
1.86045e-21
5.48116e-22
1.32788e-20
4.64289e-21
2.16777e-21
6.65862e-21
2.42169e-21
4.3946e-21
7.18771e-21
2.07894e-21
1.36725e-20
1.4371e-20
3.56269e-21
3.60809e-21
4.71096e-22
8.70336e-21
7.34563e-22
3.50584e-21
8.34401e-22
1.73806e-20
1.09051e-21
6.52688e-21
1.17484e-22
5.22653e-21
2.4378e-21
4.5088e-21
1.27117e-20
1.26178e-20
9.95138e-22
7.52957e-22
1.0069e-20
4.13821e-21
8.90246e-21
4.1453e-21
7.36788e-21
5.16554e-21
3.89191e-21
6.12292e-21
3.48077e-21
3.1836e-22
3.84171e-21
7.74792e-21
1.11566e-21
3.15e-21
2.88272e-21
1.97486e-21
1.01005e-21
1.36954e-20
1.55298e-20
1.79125e-20
1.27484e-20
2.29753e-21
8.07984e-22
2.61016e-22
3.07601e-21
1.68062e-20
9.90484e-21
5.51311e-21
2.14171e-21
9.35295e-24
8.92468e-22
1.97232e-21
3.3192e-21
1.57403e-20
2.06681e-21
2.94708e-22
4.19125e-22
4.64104e-21
1.81627e-21
1.04401e-20
8.49698e-22
1.04079e-20
8.69888e-22
8.26103e-22
1.00315e-20
9.89987e-23
9.66085e-21
1.36889e-22
6.43158e-21
1.9741e-21
1.78057e-21
5.51296e-21
9.01403e-21
6.8434e-21
4.98174e-21
1.79806e-21
4.03205e-21
1.73878e-20
3.59867e-23
5.89292e-21
2.23926e-21
8.62697e-24
1.93412e-22
4.70474e-21
7.46526e-23
1.8049e-22
3.64524e-21
3.21012e-21
2.96712e-21
3.18905e-21
1.47979e-21
6.53112e-22
2.37253e-21
1.13699e-20
2.62367e-21
6.2892e-21
1.18868e-20
5.28182e-21
2.50658e-21
5.74169e-21
1.06271e-20
1.69731e-21
1.19196e-21
4.09177e-21
3.94115e-22
1.66569e-21
5.43997e-22
2.42463e-21
3.21634e-21
1.24052e-20
1.08362e-21
1.31842e-21
3.1698e-23
2.35584e-21
1.41094e-20
2.10807e-20
2.81163e-21
2.34124e-21
3.99538e-21
1.12882e-20
6.43742e-22
6.88723e-21
5.79938e-22
1.08772e-21
3.4688e-21
8.20347e-21
1.00983e-21
6.05043e-21
4.1646e-22
1.30322e-20
5.08855e-21
5.29596e-21
1.79035e-20
1.08447e-21
1.98907e-21
2.21911e-21
1.02993e-20
2.93984e-22
2.47689e-20
6.57607e-21
4.80887e-21
6.39563e-22
1.6642e-20
7.2359e-21
1.80832e-20
3.84182e-21
4.17269e-21
2.11914e-21
4.84692e-22
2.52087e-21
6.14378e-21
6.5948e-21
1.77101e-21
8.09491e-22
4.08154e-21
4.59899e-21
2.61137e-21
1.20468e-20
2.7869e-21
8.8062e-21
6.5375e-21
4.31979e-21
3.53217e-21
4.61664e-21
3.45476e-21
1.27387e-21
2.67678e-21
8.14538e-22
1.9097e-21
2.15974e-21
6.21187e-22
9.21567e-21
2.45982e-20
9.47902e-21
4.16487e-22
4.49201e-21
1.48826e-20
8.95945e-22
6.81484e-21
3.31044e-21
3.02113e-21
4.80476e-21
2.22167e-21
1.57746e-21
3.93709e-22
1.89198e-20
9.79442e-22
1.21443e-20
5.65183e-21
4.73831e-21
3.75505e-21
1.46076e-20
1.84069e-21
2.02876e-22
1.05998e-22
5.78788e-22
9.4843e-22
1.45528e-20
5.40698e-21
1.16795e-21
1.10537e-20
1.36705e-21
2.42184e-21
4.37531e-21
1.68555e-20
2.71823e-21
5.96622e-21
3.71499e-21
9.88989e-22
1.23663e-20
1.8804e-21
8.0594e-21
3.8179e-21
9.55636e-22
4.44352e-21
8.82978e-21
4.95833e-21
5.30718e-21
1.858e-20
9.34865e-22
2.87516e-21
6.08465e-21
3.40455e-21
7.74935e-22
1.60641e-21
3.97714e-21
1.29711e-20
4.3006e-21
1.4027e-20
9.54141e-21
5.56367e-21
1.64991e-21
6.97006e-21
6.93892e-22
2.92613e-21
1.05865e-20
3.07002e-21
2.9287e-21
1.48308e-21
7.19257e-22
1.80327e-22
8.03914e-21
7.62942e-21
3.94167e-21
4.54975e-21
9.70095e-21
2.06525e-20
1.27142e-20
1.38756e-20
7.7521e-21
1.0498e-20
2.04562e-21
4.83686e-21
6.86065e-21
1.47477e-20
1.57747e-20
1.83206e-21
1.09827e-21
3.71298e-22
1.48878e-20
1.0726e-21
1.02881e-20
2.71135e-21
1.02815e-21
9.94452e-22
6.91323e-22
1.22648e-21
6.9692e-22
1.22709e-21
1.40884e-20
1.92527e-22
2.56595e-21
9.00318e-21
2.19751e-21
1.7419e-20
5.19623e-22
3.81893e-23
8.19995e-21
1.2548e-20
2.46297e-21
3.70933e-21
6.36977e-21
1.1461e-21
9.87415e-21
3.43432e-21
5.00327e-21
3.54175e-23
2.54568e-21
6.094e-21
5.32256e-21
3.25777e-21
1.20461e-21
4.83495e-21
9.54206e-22
6.11318e-21
5.99227e-21
3.67656e-21
1.40535e-21
9.03382e-21
4.24731e-21
5.42181e-21
2.58923e-21
1.28961e-21
3.29131e-20
7.23509e-21
2.66292e-21
2.16339e-21
3.17418e-21
6.15512e-22
5.09872e-22
1.43368e-20
2.06181e-22
1.11514e-20
3.44113e-21
5.29451e-21
7.48217e-22
2.57908e-21
1.93248e-20
1.86374e-20
2.59453e-21
7.97087e-22
5.30616e-21
2.34507e-20
3.92307e-22
2.76959e-21
1.25795e-21
7.73263e-21
1.59432e-20
2.57293e-21
4.07363e-21
5.25148e-21
4.57075e-21
3.83652e-21
3.14515e-21
1.26384e-21
1.01706e-21
7.68763e-22
1.05355e-20
8.2378e-21
1.7792e-21
9.61385e-22
5.48941e-21
4.71274e-21
4.33359e-21
2.45814e-21
1.88878e-20
1.29975e-21
1.39177e-20
2.62474e-21
2.76932e-21
5.74767e-21
1.31049e-21
6.99256e-21
1.98314e-21
6.52588e-21
3.35152e-21
2.18531e-20
2.02497e-20
6.94984e-21
8.44226e-21
4.91476e-22
4.10845e-21
2.33669e-21
1.18517e-21
2.38941e-20
1.63156e-20
2.04593e-21
2.83821e-21
1.35101e-20
5.74545e-21
5.92884e-21
2.02984e-21
7.22201e-22
3.28269e-21
9.50026e-22
1.64449e-22
4.12969e-21
2.11765e-20
3.37434e-21
3.90514e-22
8.88547e-21
6.15478e-21
1.89856e-21
3.19484e-21
2.54581e-22
6.09975e-21
2.14859e-21
4.73826e-22
2.2038e-20
7.34112e-21
2.44041e-21
7.13307e-22
2.47466e-20
2.38121e-21
8.30299e-21
3.117e-21
1.97662e-21
2.07799e-22
2.08178e-21
2.33977e-21
7.85601e-21
2.77702e-21
2.50815e-21
4.9135e-21
5.70864e-22
3.24997e-21
6.08604e-21
1.67786e-21
1.0039e-20
3.58475e-21
2.23319e-21
2.63155e-20
4.05591e-21
1.0981e-21
8.54088e-21
3.71799e-21
1.87252e-21
3.61859e-21
3.56522e-21
9.16594e-21
4.49512e-22
1.60261e-20
2.11814e-21
1.75918e-21
1.46635e-20
8.59385e-21
3.32016e-20
1.35667e-21
2.19347e-21
3.73493e-21
1.10853e-21
2.91255e-21
2.90062e-21
3.58486e-21
1.16987e-20
1.33584e-20
9.42112e-21
1.21761e-21
2.88903e-21
1.17271e-20
2.82409e-21
2.24512e-22
2.68696e-21
2.90037e-21
1.56129e-21
2.17908e-21
4.74137e-22
6.98412e-21
1.70467e-20
4.33362e-21
1.89533e-22
6.34887e-21
8.48102e-22
1.04834e-20
4.35839e-21
7.05649e-21
1.0345e-20
8.66429e-22
6.92588e-21
1.40027e-21
3.01518e-21
2.99434e-21
7.11135e-21
8.34132e-21
9.18943e-22
8.93638e-21
1.81424e-20
9.60999e-21
6.30385e-21
1.58253e-20
7.52258e-21
1.65369e-21
2.53293e-21
2.57064e-21
5.53395e-21
5.82253e-21
3.48294e-21
1.01747e-20
7.45914e-22
2.04238e-21
5.86753e-21
7.68941e-21
1.75205e-21
4.9424e-22
1.97152e-21
1.52408e-20
1.67203e-22
8.3689e-22
4.49912e-21
9.60136e-21
7.75813e-21
4.13925e-21
8.40528e-22
1.05346e-21
3.63472e-21
3.64952e-21
3.47471e-21
1.94099e-21
9.16219e-21
5.538e-22
1.03849e-21
1.28375e-21
4.27129e-21
2.18053e-21
4.16158e-21
3.7925e-21
6.14252e-22
1.06868e-21
1.58418e-20
1.01804e-20
3.49252e-21
1.36771e-20
8.4515e-21
1.21143e-20
2.80159e-21
9.2524e-21
1.24207e-20
3.83799e-21
8.04498e-21
8.19871e-22
1.93228e-20
3.75102e-21
7.6004e-22
5.88791e-21
2.50575e-21
1.28081e-21
5.72712e-21
7.75527e-21
1.24638e-20
7.34267e-22
3.08479e-21
3.75879e-21
8.46318e-22
6.21221e-21
1.22093e-21
3.23194e-22
8.73277e-22
5.59273e-21
1.30051e-21
8.60076e-21
1.76856e-20
3.82809e-21
4.07121e-21
4.91454e-21
5.67692e-22
3.273e-21
3.15695e-21
1.03222e-23
6.15986e-22
6.17411e-21
1.07121e-20
1.21689e-21
1.48851e-20
1.55205e-20
1.00461e-20
8.85215e-21
3.96082e-21
1.03267e-20
1.48164e-20
7.34291e-21
1.15641e-21
1.12773e-24
1.17251e-20
6.6005e-21
9.60474e-21
5.72653e-21
1.3129e-20
1.08842e-20
3.46842e-21
6.07532e-21
1.57421e-21
1.16979e-20
1.69891e-21
1.59423e-21
1.55825e-20
4.13058e-22
2.48951e-21
1.0267e-20
8.09818e-21
1.20051e-21
8.00215e-22
8.76472e-21
4.31233e-21
1.66345e-21
4.59116e-21
1.70374e-21
9.46602e-21
1.49193e-20
1.42445e-21
5.80041e-22
6.05388e-21
1.74998e-20
9.49161e-21
3.46608e-22
2.36676e-22
8.93916e-21
1.08257e-20
1.12173e-23
8.91269e-22
5.77005e-21
1.42346e-21
2.52724e-21
4.55204e-21
2.25548e-21
5.74452e-21
1.30666e-20
3.1165e-21
1.45462e-21
1.86041e-20
5.66262e-21
2.86274e-21
6.44832e-22
1.06635e-20
1.75705e-20
1.59673e-22
2.09192e-20
9.99849e-23
4.58748e-21
1.90933e-20
9.06864e-22
3.36273e-21
9.1321e-21
3.12676e-21
3.64551e-22
3.76406e-21
1.2023e-20
2.09702e-21
3.72351e-21
1.96942e-21
3.33121e-21
6.21372e-21
1.46299e-20
1.15849e-20
1.86022e-21
1.32689e-20
6.73239e-21
7.70789e-22
4.11455e-21
1.37231e-21
8.72412e-21
7.25376e-21
6.13054e-21
1.84504e-21
2.09055e-21
2.47778e-21
1.64801e-21
2.34031e-20
8.79078e-22
4.15613e-21
4.14988e-21
1.49873e-21
1.09236e-20
5.6448e-21
8.7822e-22
1.83655e-20
9.74628e-21
2.063e-21
8.50942e-21
9.07454e-21
3.12544e-21
7.00963e-22
4.87469e-23
4.93676e-21
4.31916e-21
1.61525e-21
1.66961e-21
4.45005e-22
2.22216e-22
2.51028e-22
4.93855e-21
7.17816e-21
1.50088e-21
5.62094e-22
3.2927e-21
9.28104e-21
1.7166e-20
1.95328e-20
4.15138e-21
1.12996e-20
2.60212e-22
3.61783e-22
2.6072e-21
9.37572e-22
3.30292e-21
4.36277e-21
2.2117e-21
6.3915e-23
2.01984e-20
7.41385e-21
5.21549e-21
4.13765e-21
1.57857e-21
7.54335e-21
6.60465e-21
8.82079e-21
8.84995e-22
2.66355e-21
8.44491e-21
3.07372e-21
1.77789e-21
3.78365e-21
3.44079e-21
2.16387e-21
7.8364e-21
4.84989e-21
8.65313e-21
4.88457e-21
5.12581e-21
4.53299e-21
1.21559e-20
1.91682e-20
5.81453e-21
1.33699e-20
1.70304e-21
3.47006e-21
1.83303e-20
1.0763e-20
3.53056e-22
7.95883e-21
1.1303e-20
2.12434e-20
8.84252e-21
1.20826e-20
8.77683e-21
1.78141e-21
1.25225e-21
7.86967e-21
6.57244e-22
6.18301e-21
6.61724e-22
7.04057e-21
7.56922e-21
5.04417e-21
1.77205e-21
1.21826e-20
8.9989e-21
4.6732e-21
9.51371e-21
4.63891e-21
1.19406e-21
6.8961e-21
2.44121e-21
5.01472e-21
2.19123e-21
4.49428e-21
4.32497e-22
4.76959e-21
8.61981e-21
1.14292e-21
1.93147e-21
6.6836e-23
1.62855e-21
5.69805e-21
2.9847e-21
3.47208e-21
3.78346e-21
2.22624e-20
1.89858e-21
2.68157e-21
1.05675e-20
1.08983e-21
8.71191e-21
2.66394e-21
1.66413e-21
2.8323e-22
6.41539e-21
2.38936e-22
3.43155e-21
1.20771e-20
1.86087e-20
4.3066e-21
1.28196e-20
5.0918e-21
9.5985e-22
2.42897e-20
8.05959e-21
1.15531e-21
2.84403e-20
2.6842e-21
7.36039e-21
4.92727e-22
7.58365e-21
5.13533e-21
5.65467e-21
2.90501e-21
1.12867e-21
1.605e-20
6.12977e-21
1.2924e-21
3.0325e-21
8.32291e-21
4.40999e-21
1.20937e-20
1.02207e-22
1.38213e-20
4.64611e-21
2.96467e-21
5.51418e-21
2.70695e-21
1.38725e-20
3.29878e-22
6.55802e-21
1.3017e-20
5.01893e-22
9.43128e-21
1.52131e-20
1.56737e-21
8.18413e-21
5.38387e-21
6.2052e-21
5.68931e-21
2.71389e-21
2.13407e-20
9.44745e-22
5.38547e-22
4.48572e-21
8.15243e-21
1.11226e-21
5.42285e-21
2.31463e-21
6.53116e-22
7.62469e-21
1.18348e-21
9.89842e-21
3.34423e-21
1.06858e-21
9.95034e-21
9.77271e-21
1.53445e-21
2.64892e-22
3.90171e-21
1.15821e-20
1.73418e-21
9.88891e-21
5.78957e-21
2.86782e-20
6.78505e-23
2.81397e-21
8.59129e-21
1.72022e-21
9.64019e-21
1.27707e-20
1.32519e-21
9.64263e-22
9.97624e-22
7.45755e-21
2.79073e-22
5.44508e-21
1.5711e-22
1.95049e-20
2.80981e-21
3.06102e-20
5.76246e-22
1.6643e-21
5.53834e-21
3.87258e-21
1.99881e-21
4.60539e-22
8.40788e-21
7.73281e-21
2.24863e-20
1.3121e-22
1.13561e-20
5.35813e-21
2.81275e-21
9.92275e-21
4.41048e-21
3.75696e-21
1.512e-21
1.50244e-21
4.32439e-21
2.13346e-21
6.53461e-21
4.33498e-21
2.53484e-21
1.69547e-21
3.64224e-22
1.3504e-20
7.0239e-22
5.21468e-21
4.96808e-21
1.48501e-20
1.71192e-20
7.97957e-22
7.83426e-21
8.41248e-21
6.36417e-22
1.51811e-21
1.08053e-21
6.35461e-21
1.24507e-21
4.08533e-21
1.36913e-20
1.94406e-20
8.53291e-21
1.07357e-21
4.28152e-21
2.51247e-23
3.01085e-21
3.77427e-21
3.18967e-21
6.11908e-21
1.27164e-21
4.35879e-21
1.1494e-21
4.42647e-21
5.28367e-21
1.85244e-21
5.60245e-21
3.56008e-21
3.73778e-21
5.76075e-21
2.58367e-21
2.9306e-21
2.30926e-21
8.46997e-22
1.74773e-20
4.72156e-22
1.62466e-20
8.19316e-21
2.97149e-20
1.49832e-21
1.83174e-20
1.88717e-21
3.72686e-21
1.00958e-20
1.95607e-21
2.89048e-22
3.93008e-21
3.52227e-21
3.97681e-21
2.09113e-22
1.82098e-21
1.47292e-21
3.34928e-21
4.17588e-21
7.44633e-21
9.02389e-22
5.53236e-21
4.90443e-21
9.41296e-22
3.68955e-21
7.89863e-22
7.01111e-21
5.71357e-21
6.61916e-21
4.40035e-21
2.78559e-21
8.68022e-21
1.42028e-21
1.46995e-20
9.54202e-22
7.34241e-21
3.84225e-21
1.09475e-20
4.15854e-21
1.58356e-21
2.18288e-21
1.24484e-20
4.3067e-21
1.40127e-21
1.12988e-20
1.64689e-21
3.43678e-21
3.19157e-22
1.29947e-20
6.51956e-22
1.27946e-20
1.71156e-21
1.95467e-21
4.30215e-21
3.20145e-22
1.12541e-22
7.95327e-22
1.24635e-20
5.24185e-21
1.02603e-20
1.38569e-21
3.15909e-21
4.42811e-21
7.57728e-22
1.80789e-20
5.05341e-22
4.45759e-21
4.89779e-21
4.19813e-21
4.59798e-21
2.83648e-22
6.04476e-21
3.49305e-21
4.55139e-21
1.32039e-21
6.13677e-21
6.16611e-21
2.61069e-21
4.3864e-21
4.18653e-21
5.61362e-21
5.4883e-22
2.25331e-21
2.21235e-21
3.61518e-21
3.54204e-21
5.11613e-21
1.08632e-21
2.18094e-21
7.14852e-21
1.59424e-20
3.56652e-21
2.74469e-21
9.61185e-21
9.15228e-21
2.34961e-20
5.68464e-21
6.03152e-21
1.33178e-21
5.16902e-21
6.23131e-21
1.30192e-20
5.14428e-21
1.13868e-20
8.05542e-22
1.74094e-21
2.74075e-21
9.70902e-21
1.69687e-20
2.97253e-21
4.12107e-21
1.08171e-20
8.53094e-21
4.64183e-21
3.87123e-22
8.80809e-21
1.36411e-21
5.24412e-21
2.34856e-21
2.6135e-21
6.64707e-21
8.04822e-21
8.00306e-22
1.635e-21
1.48548e-20
9.3454e-21
1.51542e-21
3.6262e-21
5.09822e-21
2.45383e-21
8.54979e-21
7.25161e-21
1.48058e-21
4.9844e-22
3.20489e-21
6.69834e-21
1.78288e-21
1.54698e-20
1.0818e-21
1.98948e-21
7.55046e-21
1.64148e-21
2.64156e-21
1.41215e-22
1.01384e-20
4.16046e-21
5.47215e-21
1.4102e-21
2.50202e-23
2.17439e-21
1.57251e-20
6.8219e-21
4.40778e-22
6.85058e-22
3.11684e-21
1.60359e-20
2.26397e-21
1.37566e-21
5.3303e-21
6.27878e-22
6.95779e-21
1.94065e-21
2.63893e-20
5.55053e-22
3.61008e-22
2.6408e-23
1.00855e-21
3.17004e-21
7.02127e-21
1.63678e-21
2.02072e-21
1.0989e-20
1.72005e-20
9.40645e-21
5.48508e-21
9.90033e-22
1.68929e-20
2.77319e-21
2.29339e-21
3.20282e-21
5.41657e-22
1.49119e-21
2.42238e-20
4.78434e-21
4.73812e-21
3.96915e-21
6.21293e-21
3.00383e-21
2.05722e-21
1.28874e-21
4.52182e-21
3.20021e-21
8.57784e-21
5.52371e-21
3.95502e-21
2.11147e-20
3.59805e-21
3.26662e-21
2.65829e-21
6.94879e-21
3.09486e-20
1.19571e-21
1.45002e-21
3.8971e-21
6.06286e-21
4.41838e-21
2.81327e-21
2.56908e-21
1.0694e-21
7.10617e-21
1.27968e-21
9.54957e-21
7.228e-22
2.61664e-21
1.0894e-21
6.21697e-21
4.10283e-21
1.04318e-20
1.05344e-20
2.32508e-21
5.79388e-21
6.1938e-21
5.77175e-21
6.23457e-21
5.66715e-21
1.09181e-20
1.40407e-20
7.60722e-21
3.26687e-22
3.41901e-21
2.78752e-21
5.81507e-22
1.84014e-20
1.40044e-21
1.99391e-22
8.86262e-21
3.54865e-21
2.83317e-21
9.87632e-21
3.2303e-21
8.12267e-22
2.08975e-22
3.51856e-22
1.05499e-21
1.04741e-20
3.73587e-21
1.08639e-20
1.88361e-20
7.00367e-22
1.13028e-21
1.74763e-21
1.44739e-21
3.2399e-21
7.1955e-21
2.23079e-21
9.49465e-21
4.8929e-21
1.52677e-20
3.11323e-21
6.39471e-21
3.52416e-22
4.2681e-21
7.7203e-22
5.06624e-21
2.22737e-20
3.87467e-21
2.07442e-21
3.82245e-21
1.28256e-20
2.748e-21
7.9056e-21
1.77752e-20
7.91853e-21
2.12836e-21
2.80341e-21
8.00717e-21
7.91941e-22
5.65104e-21
6.4314e-21
6.74531e-22
1.03266e-21
8.05135e-21
2.85576e-21
1.11913e-20
3.74366e-21
1.81993e-21
9.06541e-21
4.80517e-21
2.51523e-21
4.40354e-21
5.70263e-21
3.76167e-21
2.76556e-23
4.09529e-21
1.71154e-20
1.71901e-21
5.76145e-22
4.92864e-21
4.81642e-22
2.21147e-21
1.74109e-20
3.96704e-21
1.37357e-20
5.95373e-21
5.7793e-21
3.50585e-21
2.27273e-21
2.36544e-21
4.12914e-21
1.07827e-20
4.69993e-22
1.34926e-21
3.1238e-21
1.61564e-21
3.31889e-21
1.87477e-21
9.32244e-21
6.51517e-21
5.78596e-21
8.77269e-21
4.99147e-21
7.1509e-21
9.71483e-21
7.20375e-21
3.53685e-21
9.35761e-22
6.30805e-21
1.92402e-21
3.42123e-22
1.73569e-20
6.63923e-21
3.14983e-21
1.77751e-21
3.03299e-21
1.81144e-20
4.94848e-21
8.8716e-21
1.40533e-21
5.13625e-21
5.39003e-21
4.83844e-22
2.36864e-20
1.20733e-20
4.47625e-21
3.604e-21
1.39275e-22
2.2525e-23
1.07435e-20
1.7702e-20
4.52691e-21
5.32482e-21
1.19825e-20
1.29197e-21
2.16754e-20
2.12641e-21
9.87192e-21
2.92454e-21
3.9385e-21
9.38728e-22
1.80406e-21
3.16823e-21
7.00693e-21
1.92515e-21
1.34948e-22
1.78328e-21
1.50833e-21
3.96999e-25
3.40223e-21
9.4852e-21
4.18963e-21
4.5494e-21
1.88872e-21
5.84785e-21
4.57448e-21
3.18871e-22
6.54362e-21
2.7735e-21
4.91595e-21
1.56703e-21
1.93408e-22
5.83023e-21
6.69312e-22
2.36574e-21
1.07261e-20
6.57832e-21
3.83232e-22
1.00195e-22
1.42915e-20
4.96045e-21
1.64799e-21
2.52672e-23
6.56865e-21
8.38015e-21
3.83681e-21
8.89088e-23
4.25163e-21
1.49548e-20
8.68146e-21
2.83425e-21
1.86223e-22
1.19881e-20
1.21623e-21
3.78606e-21
5.89621e-22
1.11105e-21
4.85151e-21
8.175e-22
5.0059e-21
8.43832e-21
4.05854e-22
1.21612e-20
3.66773e-21
1.22731e-20
4.74895e-21
9.66428e-21
1.56081e-21
8.1228e-21
1.14565e-21
4.90136e-21
3.51603e-21
1.24285e-20
1.27192e-20
7.04882e-21
7.08487e-21
4.16675e-21
6.26964e-21
1.27697e-21
2.64136e-21
6.69223e-22
1.68181e-21
7.81635e-22
7.61704e-23
8.4184e-21
7.03415e-21
4.68675e-21
2.36369e-21
2.05895e-21
8.33728e-21
1.50919e-21
6.7192e-21
7.97193e-21
1.75502e-21
8.03777e-21
1.36387e-20
7.26833e-22
8.67278e-21
2.11642e-23
1.27766e-21
5.255e-21
1.33754e-21
1.6807e-21
3.05533e-21
1.50765e-21
1.15527e-21
1.15932e-20
1.22029e-20
3.05488e-22
9.53471e-21
3.84859e-21
8.1249e-22
4.74354e-21
5.07304e-22
1.16205e-22
1.0805e-20
1.97339e-21
2.32963e-21
5.88608e-21
1.58837e-22
4.27657e-21
1.67594e-20
3.03832e-21
9.63268e-21
2.27347e-21
1.11957e-21
4.14421e-21
7.51584e-22
8.53941e-21
3.43492e-21
8.82904e-21
3.72347e-21
1.11315e-20
9.75619e-21
6.16937e-21
1.10715e-21
4.62093e-21
3.19368e-21
1.19281e-20
4.83025e-21
7.24977e-21
2.26298e-21
2.45009e-21
6.10411e-21
7.79784e-21
1.00596e-21
6.34745e-21
3.54533e-22
4.26549e-21
3.94798e-22
4.86228e-22
2.00677e-21
1.91857e-21
2.21689e-20
5.80407e-21
1.50038e-20
1.52038e-20
8.89256e-22
5.22688e-21
3.43607e-21
3.62677e-22
6.06192e-21
7.83153e-21
1.20949e-20
7.87594e-22
1.87577e-21
2.17911e-20
6.6343e-21
2.38025e-21
3.66039e-21
5.86259e-23
1.30203e-21
2.91651e-21
6.99228e-21
9.99462e-21
7.33482e-21
9.41096e-22
1.90619e-21
4.3584e-21
1.7968e-21
2.11135e-21
2.13597e-21
6.14316e-22
1.98264e-21
1.67087e-21
1.76364e-20
3.68577e-21
1.574e-21
9.53387e-21
9.01774e-22
7.65422e-21
2.17763e-22
3.54294e-21
1.76211e-21
9.18278e-22
4.06414e-22
1.79455e-21
3.96607e-21
1.06808e-20
1.18766e-20
2.30804e-21
3.56548e-21
2.10848e-21
1.15223e-21
6.03875e-22
7.34552e-21
1.3858e-20
8.57725e-22
4.27231e-21
4.96791e-21
2.05845e-20
7.33777e-21
8.02025e-21
4.46753e-21
6.54644e-21
1.24425e-21
9.3458e-21
1.24059e-20
2.78995e-21
2.48804e-21
8.14291e-22
1.60964e-21
6.76647e-22
2.90515e-21
1.08598e-21
6.34284e-21
2.211e-21
6.22745e-22
9.62886e-21
4.55736e-21
7.71125e-21
1.64087e-20
2.58135e-21
1.093e-20
4.88918e-22
1.93474e-22
5.4923e-22
6.16704e-21
7.73045e-21
3.52186e-22
5.82739e-21
2.50987e-20
1.03945e-20
7.86298e-22
6.42421e-21
1.23378e-21
7.47128e-22
1.13752e-22
3.90886e-21
7.9277e-21
1.63619e-21
5.00133e-21
1.0252e-20
4.84916e-21
3.02138e-21
1.1057e-22
1.35574e-21
4.41627e-22
8.17763e-21
1.04773e-20
1.46299e-20
4.94512e-21
1.97326e-21
3.47225e-21
5.87802e-21
3.8623e-21
3.12126e-21
3.61836e-21
5.61119e-22
1.14267e-21
2.72944e-21
4.62455e-22
8.27332e-21
4.04092e-22
8.77926e-21
8.32128e-21
5.89212e-21
1.74583e-21
1.7185e-20
5.05888e-21
6.90803e-22
8.2047e-21
1.08236e-20
1.17548e-22
3.70813e-21
5.62545e-21
2.44437e-20
3.9466e-21
1.00464e-20
7.46785e-22
1.45397e-21
6.97576e-22
1.03301e-20
2.35009e-20
5.37089e-21
1.92635e-21
1.10439e-21
8.24025e-21
7.14875e-21
1.34291e-21
5.55379e-21
4.55302e-22
5.31686e-21
2.20483e-21
2.18445e-22
6.76158e-21
7.46631e-21
1.1762e-21
1.22049e-20
1.5433e-21
6.35652e-22
8.76649e-21
1.4866e-21
1.41698e-20
1.2321e-21
1.8712e-20
1.24492e-21
4.11564e-21
6.98996e-25
1.82396e-21
8.74615e-21
5.87289e-22
4.01408e-21
4.41067e-21
5.3895e-22
3.73163e-21
2.4024e-21
1.06747e-21
1.66084e-20
3.61127e-21
8.34873e-21
7.03202e-21
1.37806e-21
4.31577e-21
4.22986e-22
2.72057e-21
4.88832e-21
1.59864e-21
8.85408e-21
1.86967e-21
5.38618e-21
2.99146e-21
4.71912e-21
4.60418e-21
3.76884e-21
4.80041e-21
1.36194e-20
1.40681e-20
4.97545e-21
3.11384e-21
1.6488e-20
4.37843e-21
5.40768e-21
7.46873e-21
3.72724e-21
1.19022e-20
5.81289e-21
5.42272e-22
1.86558e-21
3.48395e-21
2.28119e-22
1.7562e-21
1.16717e-20
5.18537e-21
1.94977e-21
1.49836e-22
1.64759e-21
1.45987e-22
1.88385e-21
2.21486e-21
9.62008e-21
1.66658e-20
3.25716e-21
1.10253e-21
4.0973e-21
1.76438e-21
1.42905e-20
7.15805e-21
3.87539e-22
1.37439e-20
1.09756e-20
4.77577e-21
2.76205e-22