/*--------------------------------*- C++ -*----------------------------------*\
  =========                 |
  \\      /  F ield         | OpenFOAM: The Open Source CFD Toolbox
   \\    /   O peration     | Website:  https://openfoam.org
    \\  /    A nd           | Version:  7
     \\/     M anipulation  |
\*---------------------------------------------------------------------------*/
FoamFile
{
    version     2.0;
    format      ascii;
    class       scalarField;
    location    "0.003/lagrangian/dsmc";
    object      Ei;
}
// * * * * * * * * * * * * * * * * * * * * * * * * * * * * * * * * * * * * * //


2809
(
3.95394e-21
3.46351e-21
1.20889e-21
4.28146e-21
2.83678e-21
1.77771e-20
1.19693e-22
1.27327e-21
3.60349e-21
9.2892e-21
2.9459e-21
1.5218e-21
3.88e-21
7.18307e-23
2.97978e-21
1.11494e-20
9.48542e-21
7.01977e-21
7.47367e-22
6.094e-21
2.03535e-21
2.9714e-21
2.88497e-22
2.98278e-21
7.44118e-21
1.42279e-21
1.08066e-21
6.43883e-21
4.42381e-21
6.46898e-22
2.73412e-21
4.99584e-21
3.26162e-21
7.97595e-22
1.52581e-21
6.43261e-22
8.2583e-22
2.81055e-21
9.29057e-22
9.19787e-22
1.52176e-23
5.37971e-22
2.56577e-21
2.52703e-21
2.15714e-21
9.53366e-21
2.81209e-21
1.57304e-21
2.23467e-21
1.10318e-20
7.76955e-22
2.56986e-21
7.2071e-22
7.72056e-21
3.29268e-22
1.92082e-21
1.35869e-21
1.23176e-20
3.79994e-21
2.00255e-21
1.74942e-23
2.56223e-21
1.18693e-21
3.27735e-20
8.81972e-21
3.71905e-22
3.47604e-21
2.67031e-22
2.08955e-21
9.86061e-21
2.3713e-23
5.00478e-21
8.90029e-23
2.14365e-21
4.78165e-21
6.69882e-22
2.00545e-21
6.68225e-21
1.11898e-21
2.05357e-20
2.40929e-21
3.23148e-21
5.54598e-22
3.11701e-21
3.30905e-21
1.77782e-21
3.86993e-22
2.46252e-21
1.94896e-21
1.80184e-21
2.26301e-21
3.1574e-21
4.30594e-21
7.90732e-21
2.47836e-21
9.92585e-21
2.01066e-21
2.19273e-21
7.63047e-21
6.02016e-22
2.16247e-21
1.15864e-21
1.38624e-20
2.59521e-21
1.77045e-21
2.51631e-21
1.81753e-21
2.57745e-21
1.52689e-21
3.52692e-21
1.90507e-21
3.75229e-21
8.19839e-21
2.90817e-21
4.08856e-21
1.67529e-21
1.99599e-21
1.7868e-21
1.6494e-21
2.59009e-21
3.25765e-21
1.36609e-22
1.51211e-21
2.56878e-21
2.119e-21
3.13181e-21
2.70077e-21
2.10943e-21
1.15574e-20
1.79903e-21
8.86481e-22
3.47293e-21
2.28506e-21
1.67716e-21
1.86471e-21
4.28187e-21
1.16246e-20
1.0611e-20
5.46954e-21
6.63583e-21
6.41288e-22
2.36142e-21
1.01934e-21
1.60455e-21
1.17654e-20
1.0286e-20
1.48278e-21
6.58504e-21
1.28877e-20
3.59012e-21
9.07937e-21
5.46791e-21
4.20209e-21
9.58317e-21
1.02654e-20
3.68215e-21
1.82909e-22
1.75277e-21
8.35265e-21
1.12745e-20
8.19017e-21
1.14156e-21
2.01062e-21
5.02126e-21
4.84847e-21
1.2453e-21
9.50244e-22
6.93887e-23
4.33928e-21
4.05028e-22
8.74357e-22
4.63685e-21
3.48818e-21
1.71984e-21
2.85075e-21
1.87957e-20
5.62027e-22
2.87293e-21
1.66886e-20
2.30323e-21
6.55605e-22
2.66134e-22
4.79435e-21
1.787e-21
1.38951e-21
1.72408e-21
8.92932e-22
1.01768e-20
3.68391e-21
2.30049e-21
7.56043e-21
4.24452e-21
6.55834e-21
9.00606e-21
7.3454e-21
9.73454e-22
2.22637e-21
2.06185e-21
3.76398e-21
7.84007e-21
1.86706e-21
2.74556e-21
1.31173e-21
3.79264e-22
7.18406e-21
6.83086e-21
4.31003e-21
3.21574e-21
6.78658e-21
3.07493e-21
2.12236e-21
2.04604e-22
2.36839e-20
7.77608e-21
4.235e-21
2.71091e-21
6.19035e-22
2.14305e-21
2.71934e-21
4.93436e-21
6.36932e-22
5.32979e-22
1.69287e-21
4.36672e-21
5.80979e-22
4.4177e-22
1.15052e-20
4.50373e-22
5.84253e-22
2.24545e-21
6.88457e-22
7.96195e-21
7.47866e-21
3.79926e-24
4.46796e-22
1.52729e-21
1.43833e-20
1.27917e-22
3.26123e-21
9.89506e-22
8.63669e-22
4.52835e-21
8.53475e-21
3.177e-21
2.06459e-21
2.44238e-21
7.44456e-21
5.95436e-21
2.642e-22
4.54116e-22
1.65736e-21
1.82403e-21
1.61966e-20
7.69916e-22
5.11914e-21
1.50029e-21
5.94885e-21
1.9323e-21
8.66483e-21
1.60926e-21
1.13475e-21
4.552e-21
3.28582e-22
4.56131e-21
6.97423e-21
4.15587e-21
3.81677e-22
3.13383e-21
1.31885e-20
4.03157e-22
6.59582e-22
5.34463e-21
3.71249e-21
1.71294e-21
1.18109e-22
5.86835e-21
2.44475e-21
5.88983e-21
2.78342e-22
5.77721e-21
9.47776e-21
2.68061e-21
1.99173e-21
3.78812e-21
7.63643e-21
4.44302e-21
5.29114e-22
8.49767e-22
1.42498e-20
9.79595e-21
7.85589e-22
7.01496e-22
6.13609e-21
1.66272e-22
3.55269e-22
1.17747e-21
2.359e-22
8.06045e-22
5.47004e-21
4.80248e-22
1.03561e-21
4.04077e-21
6.61149e-21
3.19997e-21
2.41899e-21
3.99487e-22
3.66544e-21
2.25929e-21
2.07442e-21
5.73054e-22
8.43041e-22
1.07783e-20
8.86007e-21
8.63647e-22
1.51171e-20
5.55617e-21
5.30567e-21
6.44617e-21
3.05424e-21
1.52544e-21
1.08833e-20
7.57091e-21
3.91184e-21
1.48526e-21
3.27351e-21
1.01935e-21
5.57767e-22
5.30507e-21
1.07215e-20
1.97636e-23
1.60257e-21
1.58201e-20
4.89941e-21
2.50371e-21
7.33318e-22
3.44436e-21
3.8071e-21
6.04199e-21
1.20577e-20
9.58631e-21
9.29112e-22
7.98135e-21
9.88519e-21
2.34746e-21
1.02723e-20
4.81973e-21
1.53475e-21
3.24994e-21
3.97583e-21
1.53339e-21
1.87158e-21
2.00758e-22
4.32794e-21
2.5854e-21
8.50502e-22
2.98952e-21
2.16811e-21
2.75304e-21
5.17764e-22
8.07369e-22
3.16273e-21
7.00833e-22
2.02353e-21
9.57453e-21
3.37661e-21
4.79374e-21
1.27123e-22
1.18273e-20
2.33174e-21
5.20736e-21
4.47514e-21
2.04404e-21
6.5193e-21
2.60018e-21
8.36367e-21
9.07081e-21
6.79641e-21
2.20211e-21
6.41614e-22
2.82429e-22
4.0749e-21
6.70043e-22
1.89084e-20
7.63249e-22
6.5786e-21
7.85373e-21
8.74611e-22
3.80049e-21
2.94306e-23
1.3493e-21
3.38073e-21
3.49141e-21
4.19611e-21
1.00139e-21
2.73203e-22
5.48008e-21
4.65678e-21
2.0621e-21
3.0729e-21
5.23415e-21
9.51267e-21
1.30881e-21
1.33133e-24
7.49815e-21
2.92326e-21
2.5582e-23
1.09098e-20
6.8875e-22
2.99217e-21
1.20068e-21
1.59463e-21
5.25688e-21
4.80385e-22
1.80906e-21
4.41016e-21
9.36944e-23
3.42119e-21
2.26495e-21
1.05445e-20
9.39963e-21
6.20002e-21
1.70369e-23
4.37065e-21
3.87527e-22
8.85479e-21
4.55368e-21
3.51656e-21
6.38646e-21
3.13487e-21
1.0103e-21
1.86438e-21
2.34316e-21
2.36461e-21
1.60675e-21
9.70707e-22
4.89192e-22
9.63445e-21
3.2888e-22
1.18555e-21
2.19312e-21
4.99412e-21
2.0373e-21
2.15541e-22
7.14285e-22
1.32842e-21
5.05427e-22
9.68062e-21
4.09218e-21
2.2298e-21
2.87406e-22
5.88213e-21
2.48792e-21
1.87091e-21
4.41045e-21
1.17851e-20
1.23948e-21
6.46429e-21
7.87734e-21
1.9528e-21
1.15645e-21
2.39539e-21
1.51125e-21
4.1479e-22
3.01809e-23
1.0143e-21
2.49251e-22
3.25054e-21
5.1559e-21
2.35651e-21
1.77286e-21
8.0289e-22
4.53619e-21
1.5455e-21
4.38772e-21
1.5365e-21
1.13151e-21
1.23297e-21
2.83493e-22
2.01676e-20
8.65571e-21
7.89159e-21
3.38005e-21
6.71325e-21
8.1175e-22
6.09133e-22
2.75159e-21
8.62195e-22
2.00509e-20
2.98851e-21
3.86226e-22
6.50594e-21
8.19052e-21
4.86237e-21
3.03231e-21
1.04887e-21
1.50473e-21
9.70402e-23
3.23282e-21
6.40707e-21
4.96127e-21
2.00635e-21
2.44766e-21
5.34618e-22
3.97189e-21
1.95439e-21
2.4704e-20
1.31929e-21
4.44791e-21
5.69202e-21
1.60605e-21
5.91866e-22
3.03542e-21
9.83528e-22
1.26124e-21
5.1048e-21
7.37393e-21
5.22568e-21
3.45929e-22
7.11108e-22
1.66915e-20
9.48167e-21
6.03082e-21
5.19082e-21
1.5824e-21
2.19684e-21
1.24239e-20
4.13691e-21
1.20823e-20
1.10247e-21
2.38821e-22
4.47877e-22
1.93505e-21
2.09326e-21
9.1002e-22
1.75534e-22
2.06246e-21
1.96929e-22
8.60245e-21
2.76437e-22
3.40957e-21
6.89338e-21
2.07814e-21
1.33406e-22
3.82854e-21
4.31237e-21
6.4565e-21
1.1575e-21
2.11533e-23
1.19054e-21
2.56587e-21
1.14821e-21
6.09248e-21
9.90113e-22
2.73251e-21
6.25324e-21
4.53538e-21
4.64153e-22
3.31191e-21
6.02494e-21
1.73143e-21
7.87877e-21
1.1086e-21
4.79577e-21
5.8419e-21
2.98462e-21
3.8747e-22
3.68757e-21
6.75553e-22
4.06232e-21
9.02255e-22
1.05157e-21
8.79608e-21
5.72566e-21
5.29314e-21
8.92442e-22
1.64709e-21
5.44628e-21
3.18799e-21
9.37902e-21
2.08688e-21
7.3195e-21
9.64182e-21
4.53461e-21
1.2882e-21
1.27523e-20
1.15057e-20
5.96956e-21
5.72646e-21
1.59703e-21
5.07649e-21
1.60729e-21
2.57719e-21
7.97763e-22
3.47212e-21
2.97017e-21
4.96175e-22
3.88316e-21
1.42205e-20
3.38084e-22
3.06024e-21
1.68784e-20
4.96274e-21
2.18183e-22
6.86835e-21
4.66399e-21
8.60888e-21
6.582e-21
2.07686e-21
1.77583e-20
1.4768e-21
5.27106e-21
1.81665e-21
1.82464e-21
1.45401e-21
2.75285e-21
1.05762e-21
2.57435e-22
7.91777e-21
6.74365e-21
3.66657e-21
3.13173e-21
1.40907e-20
3.46762e-23
4.22084e-21
1.6533e-21
2.111e-21
2.56736e-21
1.36205e-21
1.12763e-20
4.53819e-21
5.85465e-21
1.59233e-21
4.73562e-21
5.2884e-21
2.87525e-21
4.82653e-21
2.31931e-21
1.21188e-20
5.08611e-21
3.90719e-21
3.24531e-21
2.96516e-21
1.76329e-21
4.85782e-21
1.15271e-21
2.13574e-21
6.31007e-21
4.99513e-21
1.11538e-20
2.11419e-21
1.94296e-21
8.17316e-22
1.97182e-21
5.0578e-21
3.88758e-22
3.80746e-21
9.81314e-21
2.27899e-21
1.94811e-21
1.49816e-21
1.17564e-20
2.74019e-21
9.06455e-21
1.46414e-20
4.09896e-22
1.15339e-20
4.62681e-21
1.02655e-20
1.98867e-20
4.83643e-21
8.65507e-24
1.84328e-21
2.48086e-21
3.49312e-21
1.03174e-22
7.86018e-22
1.80686e-20
2.78927e-21
1.48516e-23
3.76902e-21
5.12009e-22
6.4468e-21
7.25865e-21
3.92718e-21
5.83581e-21
2.70504e-21
4.09564e-22
6.90794e-21
7.97934e-21
5.00921e-21
1.45551e-21
1.85027e-22
8.38933e-21
1.15889e-23
1.98977e-21
1.14823e-21
3.3061e-21
3.55168e-21
4.67318e-22
1.24751e-20
2.92013e-21
1.56429e-21
8.18653e-22
1.84489e-20
7.12775e-21
1.6385e-21
4.41685e-21
4.00585e-22
6.05022e-21
9.16426e-22
6.69308e-21
6.69763e-21
2.6967e-21
3.17484e-21
1.0627e-20
4.13315e-21
1.02304e-21
1.61187e-22
1.67505e-21
7.12945e-21
2.90283e-21
8.09287e-21
4.6161e-21
1.64707e-21
5.70379e-21
1.4809e-20
8.99027e-22
5.5208e-21
5.65337e-21
2.35198e-21
1.23325e-21
2.02747e-20
1.91725e-20
1.40339e-22
1.6558e-22
1.83228e-22
3.06179e-21
1.20013e-21
3.32267e-21
4.59147e-21
1.04034e-20
2.59425e-21
1.41421e-21
1.05692e-21
4.37108e-21
3.47676e-23
4.34925e-21
6.06133e-21
2.1308e-21
4.933e-21
6.95715e-21
9.59431e-22
2.89848e-21
1.08918e-20
9.43882e-22
1.08764e-20
4.97532e-21
3.59226e-21
3.38742e-22
1.41687e-20
1.18187e-21
3.26916e-21
2.62864e-23
1.26847e-20
3.05676e-21
3.67491e-21
1.40718e-20
6.83868e-21
2.07609e-21
6.05499e-21
1.67411e-21
5.3737e-21
2.18897e-21
1.51265e-21
5.70708e-23
7.53905e-21
1.10742e-21
2.97154e-21
5.112e-21
4.38596e-21
5.55408e-21
1.2438e-20
4.13291e-21
2.28521e-20
2.47273e-21
3.26492e-21
7.27421e-21
4.08893e-21
4.72103e-21
4.85637e-21
3.54809e-21
3.71739e-22
7.44411e-21
4.78099e-21
2.66918e-21
1.72174e-20
4.70551e-21
3.9418e-21
2.41225e-21
2.48768e-21
4.16712e-21
7.41836e-21
7.24323e-22
1.0749e-20
2.29763e-21
7.82868e-21
1.15386e-20
3.30932e-21
4.1348e-22
2.77169e-22
2.83019e-21
3.6964e-21
8.94215e-21
4.95719e-21
1.10968e-20
1.09781e-20
1.58127e-21
9.45839e-23
7.60877e-21
1.99176e-21
4.38153e-21
7.17253e-22
1.02403e-21
4.04401e-23
2.10655e-21
1.04116e-21
3.38911e-23
4.23429e-21
3.01426e-21
1.88435e-21
1.17428e-22
6.54519e-22
8.68924e-21
4.34397e-21
3.3976e-21
2.92983e-21
4.50544e-21
3.8627e-21
8.59073e-21
2.29313e-21
4.67162e-21
6.94973e-21
1.42715e-23
3.63976e-21
8.55387e-21
1.14801e-21
8.96413e-21
2.05743e-21
6.69372e-22
1.00944e-21
1.2186e-22
5.1224e-21
6.59098e-22
1.56193e-21
1.01841e-20
2.70379e-21
7.07793e-21
1.04541e-20
9.22991e-21
5.54843e-21
1.38657e-21
2.5996e-22
2.03366e-20
3.31375e-21
1.40259e-22
1.4412e-20
6.44454e-22
7.38559e-22
1.83119e-22
7.90727e-21
1.17648e-22
1.58062e-21
1.3647e-21
2.37168e-21
9.05263e-21
1.41909e-21
1.22245e-21
2.30484e-21
4.29314e-21
4.23716e-21
3.78636e-21
7.47868e-21
3.37232e-21
1.1385e-20
9.35243e-21
3.19382e-21
6.04921e-21
3.52153e-22
1.93575e-21
3.7144e-21
8.20807e-21
1.76457e-20
5.31219e-21
1.06608e-21
2.39897e-21
1.72355e-21
2.5439e-21
7.19709e-21
1.37978e-20
4.79199e-21
1.15232e-20
1.67597e-21
8.0978e-21
4.15877e-22
6.09537e-21
1.97021e-21
2.21846e-21
7.57787e-21
1.53538e-21
1.25956e-21
2.4862e-21
1.33029e-20
7.17544e-21
5.92592e-21
6.12552e-21
2.42781e-21
8.8245e-21
3.80353e-21
2.59177e-21
2.05661e-21
2.94793e-21
6.12718e-21
4.35653e-21
2.04389e-21
1.66895e-21
1.00764e-21
3.22247e-21
3.87526e-21
5.39564e-21
4.37013e-21
2.27541e-21
1.17648e-21
2.94311e-21
6.65639e-21
1.20491e-21
6.36774e-21
1.89984e-20
5.71378e-22
7.2114e-21
1.70234e-21
4.55519e-21
1.41182e-21
3.43381e-21
2.78074e-21
2.13755e-21
2.10543e-21
9.35951e-22
8.90373e-22
8.21105e-21
1.36103e-20
1.69258e-21
1.05582e-20
1.08668e-21
1.65747e-20
7.19921e-22
2.80996e-21
1.05621e-21
2.27691e-21
6.1482e-22
4.87471e-21
5.7578e-21
7.404e-21
1.38609e-21
2.58464e-22
7.78971e-21
9.2011e-22
5.35307e-21
1.18084e-21
4.46265e-21
1.44944e-20
3.66629e-21
1.98755e-21
1.99709e-21
5.97602e-22
1.69701e-21
1.92535e-21
1.12447e-21
1.62868e-21
4.60341e-21
2.10968e-21
1.91999e-22
1.05401e-20
6.01176e-21
2.00223e-21
3.74645e-21
2.07593e-21
4.32651e-22
2.40602e-22
2.87268e-21
1.47449e-20
7.55451e-22
4.34883e-21
1.90126e-21
2.78e-21
9.93691e-22
4.43324e-21
1.63867e-21
3.21614e-21
3.40542e-22
1.19766e-20
3.18761e-21
2.10999e-20
2.53142e-21
1.8783e-21
4.32116e-21
3.12699e-21
3.35775e-21
4.79649e-21
8.76538e-22
2.74765e-21
1.55303e-21
4.64626e-21
8.9468e-23
1.16558e-21
6.49758e-21
6.82465e-21
6.03865e-21
2.42843e-23
1.90938e-21
2.36187e-21
5.6565e-22
7.45247e-21
6.89574e-22
1.75813e-22
1.69676e-20
3.86208e-21
6.15719e-22
2.88296e-21
2.72511e-21
8.32552e-21
1.49115e-20
5.95229e-22
5.86388e-21
1.17864e-20
7.66121e-21
1.97821e-21
3.07227e-22
1.41562e-21
8.84377e-22
6.89747e-21
7.743e-22
2.29057e-20
1.38006e-20
2.47245e-21
1.4551e-20
8.65968e-21
6.98882e-22
4.87575e-21
5.40257e-22
1.7543e-21
1.56148e-21
1.15092e-22
1.28926e-21
5.56589e-21
1.4769e-20
7.43829e-22
1.67402e-21
1.07558e-21
5.80153e-22
2.06803e-21
1.37182e-20
2.10236e-21
3.62372e-21
1.49102e-21
7.69678e-21
2.76332e-21
7.02637e-21
9.60599e-22
1.1477e-21
1.22144e-22
4.39508e-22
2.33773e-21
7.68407e-22
9.1475e-21
1.67515e-21
5.85663e-21
5.46927e-22
7.27857e-21
3.4065e-21
9.7905e-22
1.44472e-21
1.85819e-21
5.19111e-21
2.18101e-21
7.01055e-21
2.42981e-21
7.55317e-21
2.7364e-21
1.15846e-20
4.54894e-21
2.70888e-21
1.77775e-21
1.27463e-20
1.01169e-20
4.18498e-21
4.859e-21
7.87854e-21
6.18165e-22
3.49798e-21
1.43179e-21
2.03243e-21
2.11343e-21
7.07211e-22
1.88045e-21
1.424e-21
1.43029e-21
1.3949e-20
3.7752e-21
5.35327e-21
5.08305e-21
5.26837e-22
3.7043e-23
1.44835e-21
3.37386e-21
2.7008e-21
2.59037e-21
1.90372e-21
2.45101e-21
4.99201e-21
5.25015e-21
3.44787e-21
2.25781e-21
4.25939e-21
2.44811e-21
1.74545e-21
5.42716e-22
1.20961e-20
8.32079e-21
1.67134e-21
2.87722e-21
2.91887e-21
3.05273e-21
2.66451e-21
1.59095e-21
3.49522e-22
8.17849e-21
1.54866e-21
1.21065e-22
3.58632e-21
1.02685e-21
4.70319e-21
2.8255e-21
9.71274e-22
2.47418e-22
1.85436e-21
7.38338e-22
5.9327e-21
2.90868e-21
4.80431e-21
4.18416e-21
4.26565e-21
4.34185e-21
8.47452e-21
1.19689e-20
1.78467e-21
9.77921e-22
6.4831e-22
9.25707e-21
4.34448e-21
1.99513e-20
3.92719e-21
1.02264e-21
2.76928e-22
5.89481e-21
1.87751e-21
3.17722e-21
1.31035e-22
3.85725e-21
4.04094e-21
7.72869e-21
6.71048e-23
2.04819e-20
7.40472e-21
4.75224e-21
4.07385e-21
3.60186e-21
4.36726e-22
4.76259e-21
3.47622e-21
9.70455e-21
5.68679e-22
7.25815e-21
3.99875e-22
8.98916e-21
1.26487e-21
2.51787e-21
4.1639e-21
8.90858e-21
2.01e-21
1.59542e-21
3.88723e-21
7.63105e-22
1.3475e-21
5.6321e-21
2.82864e-21
1.14219e-21
6.64417e-22
2.93974e-21
6.87803e-22
7.24859e-22
2.23263e-22
2.55884e-21
6.98006e-21
2.27968e-21
1.21479e-21
4.66246e-22
1.36267e-21
4.31096e-21
6.49673e-21
1.60583e-21
2.0588e-21
5.80895e-21
8.19046e-22
7.5406e-21
8.58641e-21
3.64448e-21
1.89621e-22
1.28691e-21
8.7199e-22
7.24216e-21
1.37231e-21
8.8512e-21
7.98698e-22
1.6978e-20
1.28742e-20
3.15226e-21
9.74148e-21
3.08989e-21
8.95631e-22
4.80211e-21
1.0022e-20
7.83735e-22
1.47966e-21
2.32682e-21
7.761e-21
3.25057e-22
3.01754e-21
8.67482e-21
4.86396e-21
1.90751e-20
3.22108e-21
9.64726e-22
6.64174e-21
9.02744e-22
2.00344e-22
7.97479e-21
1.46212e-22
3.4186e-21
4.27317e-21
5.79099e-21
1.55468e-21
1.61996e-21
6.14363e-21
2.49666e-21
1.08964e-22
2.8305e-21
6.90267e-21
6.97416e-21
4.59637e-21
9.11717e-21
4.45151e-21
1.47816e-20
3.25614e-21
8.96717e-21
3.90843e-22
4.96089e-21
4.45738e-21
9.10548e-21
2.25226e-21
2.31009e-21
5.45457e-21
2.92423e-21
6.62164e-22
5.51282e-21
2.22849e-21
5.15071e-21
4.31978e-22
5.51151e-21
1.03842e-21
1.07923e-21
4.61574e-21
5.06161e-22
2.30291e-21
1.01841e-21
2.72459e-21
7.99077e-22
1.21343e-21
1.30618e-21
9.70142e-21
7.72164e-21
2.58709e-21
1.11589e-20
1.34205e-21
2.68525e-21
2.96466e-21
1.0683e-21
3.78514e-21
1.63066e-21
6.31244e-22
3.90878e-21
6.27022e-21
2.04925e-21
5.65961e-21
1.56417e-21
7.42328e-21
6.90381e-21
3.83313e-21
4.32245e-22
9.48193e-21
2.20278e-20
7.6556e-21
3.4808e-21
2.20334e-21
4.42338e-22
2.18991e-21
4.48192e-21
3.37282e-22
2.79877e-21
1.23773e-20
1.46849e-21
1.08291e-22
3.25149e-21
4.94288e-21
2.78087e-21
1.22614e-20
7.17067e-21
3.67581e-21
9.04568e-21
7.2498e-21
7.45599e-21
9.84078e-23
5.23361e-22
4.19338e-21
7.64072e-21
8.77174e-22
3.10031e-21
5.75225e-22
3.90693e-22
1.45595e-21
6.12763e-22
6.20175e-22
5.06485e-23
8.68112e-22
2.50753e-21
7.29394e-21
3.5976e-21
8.25846e-21
3.41973e-21
6.83838e-21
5.60602e-21
8.5348e-22
8.64122e-21
4.67361e-21
3.82776e-21
1.59875e-21
1.97048e-21
4.85172e-21
8.49911e-21
1.30104e-21
5.77912e-22
6.73913e-21
9.30217e-21
3.58499e-21
7.77843e-22
2.96105e-21
3.68825e-22
2.61698e-22
1.54963e-22
1.34352e-21
4.09881e-21
7.73227e-21
3.26645e-21
5.51017e-22
4.46453e-21
2.07853e-21
3.58157e-21
1.87003e-20
2.16279e-22
8.7453e-22
1.9693e-21
4.57227e-21
1.35746e-21
7.43172e-21
1.66987e-21
2.46593e-21
6.70527e-21
3.88979e-21
1.9609e-21
6.07799e-22
3.72248e-21
1.04297e-20
3.3109e-21
4.69839e-21
4.69185e-21
7.09186e-22
3.3442e-21
3.59807e-21
1.3417e-21
2.87247e-21
3.31126e-21
9.47886e-21
1.00046e-21
8.77798e-21
2.11108e-21
6.06719e-21
6.47645e-21
1.01098e-21
3.07771e-21
5.62879e-21
1.74243e-21
8.60747e-22
1.58191e-20
4.37882e-21
1.0899e-21
7.74843e-22
1.20196e-21
7.26445e-22
1.97224e-21
1.64476e-21
6.13364e-21
5.3099e-21
1.73595e-20
8.25373e-21
1.24736e-20
2.92907e-21
3.40079e-22
2.17023e-21
7.5205e-22
7.1376e-23
1.12728e-20
3.47915e-21
3.24443e-21
6.40856e-21
1.23977e-21
1.43304e-20
3.23258e-21
6.50027e-21
3.00296e-21
2.61348e-21
3.29825e-21
5.74407e-21
5.72449e-22
1.67037e-21
6.54104e-21
1.40462e-21
1.15127e-21
2.30556e-21
2.52446e-21
2.17604e-21
2.00268e-21
4.64509e-21
1.41746e-22
9.80234e-21
6.60663e-21
6.24378e-21
1.20777e-20
6.4134e-22
1.95761e-21
4.5241e-22
1.20065e-21
7.8695e-22
3.82427e-21
4.76519e-23
1.3192e-23
4.75857e-22
6.0841e-22
1.91403e-21
1.81523e-22
9.27388e-21
3.11521e-21
3.93152e-22
8.79195e-22
7.83155e-22
5.68738e-21
3.67072e-22
9.84397e-21
4.23181e-21
8.03788e-21
7.18569e-22
3.97278e-21
5.51266e-21
1.15411e-21
2.31278e-21
6.12729e-21
4.89795e-21
1.27629e-20
5.71584e-22
5.94246e-22
8.94169e-22
3.93537e-21
1.17083e-20
5.00728e-21
1.24316e-20
3.1776e-21
6.25584e-21
6.89982e-21
5.01372e-21
3.04464e-22
5.35772e-21
2.6427e-21
1.04934e-20
2.02684e-22
2.19513e-21
6.21289e-21
3.14011e-20
2.61485e-21
1.26794e-21
1.90443e-21
1.85374e-21
2.08365e-21
3.65716e-21
2.21862e-22
4.84193e-21
9.46427e-22
1.91518e-21
1.2253e-21
5.70769e-22
1.04081e-21
7.47891e-21
3.8606e-21
2.54349e-21
8.85975e-22
1.58289e-21
7.88602e-21
1.25554e-21
2.9782e-21
5.62101e-21
4.0248e-21
2.59996e-21
7.59139e-21
7.09032e-21
1.83652e-21
5.44409e-21
7.88507e-22
2.77514e-21
2.81142e-21
1.10863e-23
2.09402e-21
3.39012e-22
1.19677e-21
1.6974e-22
1.99848e-21
4.96627e-22
4.68179e-21
1.22596e-21
6.01501e-21
3.75567e-21
3.90182e-21
7.88007e-21
1.04634e-21
2.49958e-21
2.20327e-21
9.06222e-21
1.74862e-21
1.59164e-21
3.95188e-21
2.54426e-21
4.40489e-22
4.80634e-21
5.6615e-22
1.69674e-21
2.58502e-21
5.80451e-22
6.61133e-21
8.23642e-23
5.58602e-21
3.46269e-21
2.03125e-22
6.98493e-23
1.24594e-20
2.6086e-21
1.22209e-21
5.07468e-21
2.43862e-21
6.47868e-21
3.97433e-21
2.89231e-21
4.98773e-22
2.48298e-21
2.84126e-22
2.90692e-21
2.08493e-21
2.15701e-21
6.96513e-21
6.50815e-22
4.58386e-21
1.6708e-21
5.4843e-21
5.56895e-21
1.38762e-21
3.27448e-21
7.43605e-22
8.26704e-22
7.22313e-21
9.74274e-22
1.19002e-20
1.25324e-20
2.44269e-21
1.55793e-21
8.4743e-21
2.76535e-21
5.98014e-21
3.78543e-21
4.90557e-22
2.70037e-21
2.55206e-21
4.63715e-22
2.89673e-21
3.35763e-21
2.91741e-21
2.33148e-22
1.35247e-21
9.4374e-21
1.18963e-20
2.00545e-21
1.23465e-21
2.30354e-24
5.8594e-21
4.04762e-22
1.24539e-21
9.51781e-21
1.97243e-21
1.38427e-22
7.09003e-22
6.54862e-22
3.13722e-21
1.13917e-20
5.64494e-21
5.42547e-21
1.00659e-20
2.44102e-21
2.76188e-21
4.54458e-21
1.42105e-21
6.48138e-23
2.43367e-22
1.35121e-22
8.39044e-22
1.98359e-21
2.58378e-21
1.85336e-22
2.66125e-21
2.47755e-21
2.89914e-21
2.39719e-21
3.00569e-21
4.46609e-21
3.10456e-21
1.00561e-20
4.38484e-22
2.94622e-21
3.86702e-21
9.0656e-21
8.83166e-21
2.68343e-21
4.50123e-21
4.59583e-22
6.91877e-22
3.42649e-21
1.2184e-21
3.32949e-21
6.32104e-21
5.84394e-21
1.88787e-22
5.4928e-21
3.62848e-21
1.36813e-21
1.13141e-20
5.23979e-22
1.39878e-20
3.57044e-21
9.76181e-22
3.36261e-21
1.97841e-21
2.55658e-21
1.01628e-20
6.60662e-21
5.9012e-21
4.03469e-21
1.30755e-21
3.26791e-21
2.43532e-21
7.96491e-21
2.52457e-21
2.70196e-21
2.05141e-21
2.89402e-21
1.24238e-20
6.9469e-22
6.8169e-21
2.38988e-21
7.65471e-21
3.98649e-21
2.5358e-21
6.54223e-21
2.59889e-21
4.56478e-22
5.46988e-21
6.83276e-21
1.59683e-20
5.21004e-21
2.00455e-21
4.69764e-21
6.31836e-23
3.84908e-21
3.95469e-21
9.66394e-24
6.32223e-21
2.816e-21
3.46117e-21
1.011e-21
2.03711e-20
1.84017e-21
3.61549e-21
1.23433e-21
2.61066e-21
1.78815e-21
1.0086e-21
1.1606e-20
1.55424e-21
7.51577e-22
2.97873e-21
1.17342e-21
4.47172e-21
3.05047e-21
1.75945e-21
2.00252e-22
4.32133e-21
6.33817e-21
6.79829e-21
6.81302e-23
5.33527e-22
1.89264e-21
2.67545e-22
2.07412e-21
3.26865e-23
5.34462e-22
9.64756e-22
8.28314e-22
2.3146e-21
1.95742e-22
1.42037e-22
2.56962e-21
1.56816e-21
5.51164e-21
6.58853e-21
7.79999e-21
8.7259e-22
1.51625e-20
1.20963e-21
6.77728e-22
1.28512e-22
6.23499e-21
4.72933e-22
3.46313e-21
4.65656e-22
2.59027e-21
2.53344e-21
5.47353e-22
4.46491e-21
5.00147e-21
2.7792e-21
3.78634e-21
9.26448e-21
6.87644e-21
9.80146e-22
6.78116e-21
4.93285e-21
1.0345e-20
3.32073e-21
9.65168e-22
6.86934e-21
6.65206e-22
2.1373e-21
7.94335e-22
7.01582e-22
3.84298e-21
3.65675e-21
6.55071e-21
4.08215e-22
2.28434e-21
5.15022e-23
5.59727e-22
4.40971e-21
1.84824e-22
6.48444e-22
2.0799e-22
1.10293e-21
5.40497e-21
1.9442e-21
9.41792e-21
8.49254e-21
9.28401e-21
7.8631e-21
1.11166e-21
3.79752e-21
1.54997e-21
7.75827e-21
6.71621e-21
5.58705e-21
1.03402e-20
2.31873e-23
1.58404e-20
3.68896e-21
5.82032e-21
5.36842e-21
4.32875e-23
1.25474e-21
9.98011e-21
2.69067e-21
4.09134e-22
2.6541e-20
1.79377e-21
5.40236e-21
8.15373e-21
2.36033e-21
8.7178e-21
2.31518e-22
8.18211e-21
1.35098e-21
4.02441e-21
6.17105e-21
1.47454e-21
2.09708e-20
1.96596e-21
3.99622e-21
1.62492e-20
7.77605e-22
3.50969e-21
3.38898e-21
2.60726e-21
4.17334e-21
2.26856e-21
1.06679e-21
1.79186e-21
5.81566e-22
2.00353e-21
4.40506e-21
4.0467e-21
8.07577e-22
1.38016e-21
2.166e-21
4.10649e-21
5.15377e-21
1.06302e-20
9.7038e-23
8.38148e-21
2.91729e-21
1.32962e-20
4.29524e-22
4.64536e-21
1.39297e-21
7.72742e-21
3.53564e-21
4.03242e-21
2.12178e-21
3.5229e-21
3.49087e-21
1.97441e-21
7.74121e-22
3.77715e-21
4.12476e-21
3.00393e-21
1.77585e-21
1.09925e-20
2.16595e-22
2.57933e-21
1.28306e-21
3.17714e-21
1.33453e-21
6.72599e-21
8.88e-23
3.60194e-21
1.51136e-20
1.76835e-21
5.97913e-22
2.3282e-21
8.94205e-22
6.71708e-21
7.18937e-21
1.78222e-20
8.01086e-21
4.53066e-21
1.80281e-22
5.22502e-21
3.10512e-23
1.38361e-21
1.55675e-21
1.18443e-20
8.46576e-21
1.59783e-21
5.50362e-21
8.29764e-22
1.91223e-21
2.40187e-21
3.13656e-21
4.002e-21
4.20737e-22
4.02541e-21
2.24904e-22
6.70737e-21
6.24703e-22
6.20695e-22
2.73123e-21
2.34536e-21
5.4333e-21
5.36042e-21
5.05247e-22
6.61543e-21
1.13603e-20
6.51247e-21
1.63912e-21
1.64546e-21
7.37018e-21
8.82825e-21
5.17583e-21
3.16311e-20
1.53201e-21
4.5696e-22
2.69161e-21
2.03576e-21
2.11045e-21
3.50838e-21
1.02682e-21
1.67401e-22
1.11179e-21
6.16994e-21
9.71219e-21
7.23721e-21
7.65998e-21
1.81272e-21
1.68046e-21
6.84024e-21
2.87927e-21
3.79208e-21
7.87605e-21
8.73977e-21
1.12209e-20
4.17133e-22
7.62039e-23
5.06881e-21
1.0993e-20
1.59343e-21
3.59161e-21
2.07894e-21
8.63666e-21
3.82318e-21
1.24779e-20
1.13547e-21
2.75606e-21
1.21775e-21
4.91631e-21
1.20439e-20
4.97672e-21
8.31464e-21
1.04918e-21
1.82303e-21
6.5578e-22
1.94815e-21
3.84332e-21
1.1565e-20
3.10259e-21
3.17576e-21
3.06999e-21
2.22332e-21
1.44428e-21
8.18501e-21
4.89436e-21
3.69198e-21
8.78849e-21
2.74299e-21
3.716e-21
1.01109e-21
6.97749e-21
7.79084e-22
2.48246e-21
1.05074e-20
4.13851e-21
1.76253e-21
1.00979e-21
2.88452e-21
1.84213e-22
1.7566e-21
1.12149e-20
2.38826e-21
3.81772e-22
1.63293e-21
3.03496e-21
9.95518e-21
4.71494e-21
1.38337e-21
4.54301e-21
8.91838e-21
2.10949e-21
7.0681e-21
5.80685e-21
3.2048e-21
1.65015e-21
8.52272e-22
2.39219e-21
2.6631e-21
4.9049e-21
1.98545e-21
7.64034e-21
1.49925e-21
7.86306e-22
1.29597e-21
2.50712e-21
3.81025e-21
1.26219e-21
1.23111e-22
2.11743e-21
9.30485e-21
1.3157e-21
2.02716e-21
8.43667e-21
2.90277e-21
3.61911e-21
2.01046e-21
1.02557e-21
9.51818e-21
5.24389e-21
1.10046e-21
1.48827e-20
4.19701e-21
1.80146e-21
1.64116e-21
1.99779e-21
1.86205e-21
1.0579e-21
1.27546e-21
8.71685e-21
6.66355e-21
3.93213e-21
1.18473e-21
3.16297e-21
1.63869e-21
1.50648e-20
1.76723e-21
1.31901e-20
2.06135e-21
8.22394e-22
9.5137e-21
7.61046e-21
4.3778e-21
3.957e-21
3.36906e-22
5.07403e-21
4.6589e-21
1.06211e-20
8.6983e-22
4.41437e-21
4.60897e-21
2.4361e-21
3.63449e-21
2.02259e-21
4.0145e-22
7.89406e-21
2.60892e-22
3.06449e-21
6.71411e-22
4.75417e-21
7.92744e-22
1.25797e-21
4.24492e-21
3.83763e-21
8.09038e-21
3.88762e-21
7.47855e-21
4.98913e-22
6.74655e-21
3.76358e-21
3.35762e-21
7.92235e-22
3.092e-21
2.12313e-21
1.07467e-21
4.36945e-21
3.46341e-21
6.38904e-21
2.7505e-22
2.87316e-21
8.73982e-21
7.82728e-21
1.92232e-21
1.40551e-20
2.53543e-22
2.80694e-21
4.29655e-22
2.38899e-21
1.32862e-21
4.02516e-21
1.74853e-22
3.14103e-21
5.21885e-22
1.81543e-21
9.64913e-21
6.18059e-21
1.59782e-21
5.74695e-21
5.95472e-22
2.85325e-21
7.07258e-22
1.48594e-21
1.24844e-21
2.18692e-21
5.68337e-22
1.20539e-21
3.26014e-21
4.1475e-21
5.51846e-21
2.63433e-20
2.09067e-22
5.53833e-21
1.09038e-21
2.39285e-21
4.62136e-21
7.03273e-21
6.50748e-22
4.99467e-21
8.73652e-21
9.8353e-21
9.80318e-22
1.62323e-21
1.97894e-22
5.78075e-22
3.87802e-22
3.7669e-21
8.40438e-21
3.72333e-21
6.64553e-22
1.7382e-21
5.61025e-22
4.89314e-21
5.04715e-21
1.11732e-20
2.03054e-21
4.62929e-21
2.91565e-21
1.1297e-21
6.56064e-23
8.21069e-21
4.09326e-21
1.5969e-21
1.71508e-21
9.21217e-22
5.42723e-21
7.08664e-21
2.19145e-21
8.99985e-21
4.89449e-21
1.37978e-20
1.57789e-21
2.57568e-21
5.9798e-21
6.84757e-21
1.65476e-22
3.28349e-22
4.5589e-21
3.06672e-21
3.37252e-21
1.04086e-20
1.86509e-21
7.95017e-21
4.14719e-21
6.89612e-21
2.11783e-21
2.82867e-21
1.5366e-21
6.17362e-22
1.7814e-21
1.42863e-21
1.5596e-21
7.3453e-23
5.00478e-21
3.45735e-21
1.00472e-21
2.47441e-22
6.75318e-22
6.90863e-21
1.98146e-21
2.64565e-21
3.46175e-21
4.76205e-21
1.69395e-20
6.16626e-21
1.31921e-20
1.27716e-21
4.41646e-21
1.00296e-20
5.89732e-21
2.92721e-21
3.96311e-21
1.12644e-20
6.00788e-21
2.52567e-21
1.53417e-21
1.09047e-21
1.303e-21
5.23315e-21
1.66574e-22
6.03334e-21
4.4972e-22
2.32095e-21
5.07247e-21
1.25715e-22
3.29068e-21
2.49853e-21
1.41827e-21
2.8747e-21
3.42711e-21
2.96829e-21
4.47646e-22
3.67917e-21
2.16653e-21
1.60973e-22
6.32109e-21
1.32207e-21
7.90775e-22
8.31494e-21
2.48058e-21
7.97423e-22
3.49687e-21
3.67976e-21
1.32699e-21
4.53501e-21
1.4787e-21
2.1741e-21
1.85397e-21
6.56224e-21
2.82893e-22
1.51396e-21
4.8881e-21
1.32729e-21
1.17903e-21
3.82663e-21
2.79584e-21
3.63833e-21
2.64115e-21
4.98367e-21
3.62936e-21
5.27101e-21
1.42405e-23
2.42294e-21
3.31196e-21
9.31718e-22
3.8503e-21
5.13949e-22
3.6326e-22
4.18631e-21
2.76068e-22
2.00078e-21
1.22373e-20
8.05442e-23
4.01704e-22
1.86332e-21
7.44307e-21
2.75332e-21
1.51585e-21
3.78371e-22
1.26436e-21
2.38228e-21
6.85801e-21
1.02412e-21
6.88032e-21
2.4183e-22
1.513e-21
1.67697e-20
5.97391e-22
5.15573e-21
5.21146e-22
2.43834e-21
2.28528e-21
4.73816e-21
1.99342e-22
9.66444e-22
9.80118e-21
4.4282e-21
5.74747e-22
2.72426e-21
2.37454e-21
2.55268e-21
3.72433e-21
4.34524e-21
1.38449e-20
6.44506e-21
6.50548e-21
2.5313e-21
6.00344e-21
1.43517e-21
2.14775e-21
1.37429e-23
9.42726e-22
6.75062e-21
3.48083e-21
9.70202e-21
9.94646e-21
1.61754e-21
4.23455e-22
2.07593e-22
1.40559e-21
9.97248e-22
1.21948e-20
6.23146e-22
2.55079e-21
1.85966e-21
1.21286e-20
1.28432e-22
1.75799e-21
1.29537e-21
3.212e-21
5.78734e-21
1.69042e-21
5.33104e-21
2.64687e-21
1.5753e-21
1.94321e-21
3.82971e-21
1.32442e-21
9.68205e-23
6.19876e-22
1.99208e-21
4.50476e-21
3.48935e-21
7.0519e-21
3.28573e-21
8.95683e-21
2.02019e-21
5.89955e-21
3.87078e-21
4.5376e-21
7.3874e-21
1.22989e-20
9.3182e-21
3.77991e-21
8.05138e-22
3.1836e-22
5.05814e-22
3.67099e-22
8.07775e-21
1.80725e-21
1.76967e-20
1.43564e-21
3.40337e-21
2.75857e-21
2.39708e-21
1.75929e-21
8.81712e-22
6.63495e-21
3.53877e-21
1.45097e-21
1.07439e-20
6.15575e-21
6.6755e-21
1.93869e-21
5.33562e-23
1.83791e-21
8.47459e-21
1.44093e-20
3.70744e-21
1.58044e-21
3.98096e-21
1.79347e-21
5.22268e-22
3.70492e-21
4.64116e-21
1.28548e-20
1.4654e-21
9.71364e-22
2.21317e-21
3.47608e-21
1.10777e-20
2.13999e-21
8.5348e-21
1.70854e-21
8.85379e-21
2.18305e-21
4.80941e-21
3.40271e-21
8.16203e-22
3.89503e-21
9.63795e-21
1.61825e-21
7.21444e-21
6.88369e-22
1.15689e-22
3.56006e-22
4.7632e-21
2.76212e-21
4.78502e-22
5.27622e-21
9.94418e-22
7.96739e-21
6.49434e-21
3.21467e-22
8.69112e-22
1.792e-22
1.54736e-20
6.8479e-21
1.17565e-21
2.63756e-21
1.6364e-20
1.85097e-21
1.86631e-21
4.94175e-22
1.66944e-21
8.75703e-23
6.14147e-21
4.28294e-21
4.20477e-21
1.50904e-21
2.39762e-21
7.71587e-21
5.91452e-22
8.39474e-22
3.04188e-21
2.04422e-20
3.71709e-21
9.86834e-21
6.75703e-21
4.32894e-21
1.39708e-20
5.47899e-21
7.79437e-21
1.8123e-21
5.75668e-22
2.77873e-21
1.21816e-21
4.04998e-21
4.19073e-21
7.66905e-21
4.59827e-21
3.19929e-22
1.49941e-22
2.4293e-21
2.13084e-21
9.14257e-22
6.28702e-21
5.5458e-21
3.5257e-21
1.89124e-21
1.03959e-21
2.55991e-21
1.145e-20
1.05923e-21
3.22864e-21
7.72522e-21
9.83481e-23
1.32294e-22
7.16326e-21
1.96105e-20
5.78462e-21
4.84133e-21
4.2344e-21
5.60823e-22
3.1499e-21
5.72812e-21
6.72922e-22
1.67188e-21
9.19861e-21
8.48255e-22
3.53309e-21
1.35409e-23
8.22103e-21
8.04658e-21
2.11618e-22
6.88912e-21
8.81903e-22
1.63161e-22
1.20611e-21
8.34603e-22
2.08467e-21
7.6154e-21