/*--------------------------------*- C++ -*----------------------------------*\
  =========                 |
  \\      /  F ield         | OpenFOAM: The Open Source CFD Toolbox
   \\    /   O peration     | Website:  https://openfoam.org
    \\  /    A nd           | Version:  7
     \\/     M anipulation  |
\*---------------------------------------------------------------------------*/
FoamFile
{
    version     2.0;
    format      ascii;
    class       volScalarField;
    location    "0.00252/particle";
    object      internalT;
}
// * * * * * * * * * * * * * * * * * * * * * * * * * * * * * * * * * * * * * //

dimensions      [1 2 -2 0 0 0 0];

internalField   nonuniform List<scalar> 
600
(
942.412601755281
865.539972249675
953.878226040782
810.749536917339
861.020519005941
976.406064470269
897.930728216027
881.866445653873
870.736644933266
867.527989147479
923.2939491294
881.294684377635
900.32055858818
910.534994457285
974.525183614961
897.879307960955
930.538422783879
908.60685539913
856.67315545312
849.833801029904
1000.96111237476
968.60048791116
891.476088316402
859.078117216033
931.543682186824
885.28312478324
923.480553505897
909.864832135771
944.960082667589
953.597588487887
929.376914381603
912.130133086196
950.983235084337
965.851996076999
941.279919087401
975.082293638247
985.223461772284
942.182176610361
952.472040133646
875.524936830652
869.331349060206
810.704178360486
885.019842062399
973.900557868453
987.157147915378
922.016045929865
820.153115783826
881.894012556669
892.77316146158
883.894527071133
1103.28770640195
836.654648722202
833.552832588834
876.670206817046
984.924091287074
906.366318352641
810.210290900007
968.640053818836
904.64561332663
819.505266126874
956.168264311377
974.372798531669
928.931209521206
848.336636271351
886.141354517838
889.389915878794
938.263809794939
885.048616939855
850.683310550166
923.314254955626
967.836148171505
940.867331687355
822.237437418321
824.617326263508
929.887889234654
801.588496936629
858.12232284071
888.407393361121
903.01690130911
927.60480744506
924.002950975831
850.36702899032
816.270328633576
969.280521741531
945.773107130637
804.706010793836
968.374355217425
867.90305925191
929.613307715344
894.415900350155
963.155173814189
933.696763871022
1070.11276036118
1011.11192301137
996.033311880581
870.448319329549
908.535146344909
1046.04214235182
815.101741842964
830.67895051956
872.515683859294
901.531869476682
841.019519828229
940.46892910517
924.241882442934
920.841410332669
834.301047327238
878.332496617607
838.963134294631
996.457603380835
1047.90781036342
853.406701190401
958.989703556769
961.486664112819
889.430674561586
888.692341743925
858.05915779048
907.978281347987
969.02792196981
1039.33731248151
856.100057395771
932.384653335187
754.505181789237
875.187913734826
862.479064657877
962.743277579057
863.230868074995
901.07836396697
847.686959217866
778.541226877023
912.503295535746
940.482046442009
840.699133231286
902.99968056854
851.696233921346
816.808976062913
905.391798242798
896.483764993535
892.091979184866
904.741807854156
966.512596504915
890.212190457711
907.994195118856
824.770154044889
1005.33838895632
865.390937426628
847.746945885789
891.174001663806
914.621068526063
912.625400031975
856.054113253538
805.322634337092
1010.56967161907
936.894164344462
880.368769930901
905.004388551039
1000.41742497878
757.853705876476
819.655533880379
846.122698254847
906.916964573133
757.216510866368
774.14426060571
787.065165788493
856.360851983649
841.447546447943
858.163369962104
845.73463365635
902.029452280196
837.829938281434
818.624435280676
877.366421263489
839.666349725989
835.880764640862
755.094904438289
881.545377206689
839.011734468967
857.988721964113
890.714885376797
940.090895341534
909.502987771005
729.353149736117
746.932507841512
851.729395830936
798.321314695275
844.888301028648
794.852212967235
841.789504511162
751.493327795337
834.684497863716
939.299484194703
774.939647473122
746.842297700181
796.154730429772
874.330417009481
734.199357002732
763.514257052033
763.110123117617
811.198147883249
809.930192424835
763.760949076819
810.201114905607
882.419310289667
779.145198351944
773.484651694087
789.097382245927
814.029330519557
777.194108433245
730.831133601072
736.164904169562
675.530968869801
780.676161885382
674.475225679656
684.598072108894
766.835047034889
871.235118771012
838.064998496016
803.6660150455
696.1065550121
889.769271241983
827.072902153826
786.763386913223
743.211028698091
734.950867766261
758.633474237667
727.496413608465
878.618805576365
726.981482079561
725.819878595605
708.102193580018
785.974300251381
779.033369922318
765.440709070303
669.649753291002
776.444926420711
666.841957577962
765.104612768193
739.821032341179
721.169426311049
688.451528876307
865.917526378942
749.432208863145
709.723703461011
737.146810698866
735.37980772566
705.435397621176
686.847311450033
699.645194416491
674.283180367494
770.69874914327
776.596543790618
678.587708255255
695.623984641602
668.495179813175
683.485750137864
717.900925957592
642.756813921518
710.706344767605
725.083806055211
727.915413789478
708.957152513992
660.681289054623
686.598458676133
621.467084262225
712.161552975078
706.692023314375
644.748613507791
719.544014018926
772.075010876784
675.616210097099
618.190068874189
639.120273310699
728.785290233975
723.745697321642
618.807116036529
756.298577085464
657.371643954807
672.481901783749
635.734957603016
566.713681041854
791.117728134117
620.334769716868
747.557438336564
659.3391762924
778.088385697938
765.284124108015
750.156784160274
639.279068128781
688.520490591711
590.018258895672
656.403819625745
641.993230857315
552.982412009781
638.904604534076
606.241906118121
687.192446023627
855.91123548386
674.027350855327
710.16449492491
660.15484120939
668.167681352625
737.33249392964
701.126204885031
725.741920809411
603.675291946551
658.991685368146
628.0346795262
716.381677684024
638.687478770353
716.992044980791
691.024067247204
751.241145088726
729.897140022711
612.083840870092
609.683506992844
709.170326452625
664.725652767592
734.689487542333
769.023058705529
656.545809018132
792.760539013561
680.254755348529
779.377048014563
732.806544791661
659.681905934698
655.60056465864
721.216044729267
639.723182280631
603.722685988934
619.534569997277
619.986524826787
753.765799688913
621.342505829614
675.780073777986
644.309261994223
695.24539192036
629.550400124582
642.768019325046
785.112129990577
755.311979024593
717.07778709881
659.802314697114
701.835421769411
795.076514404407
815.135254578091
725.342536950995
666.247366929296
670.997627176144
832.957998247863
732.638973259227
668.981553054366
637.818511449942
663.359492180086
680.376660530757
783.690851640193
719.680796055051
699.427799076892
570.671877557931
691.813268015081
650.645564561177
794.06917123259
623.406795573986
665.781084986547
622.59868378228
712.232029935936
633.946475612664
649.182812448583
634.601922849138
719.949876028729
693.419332476603
764.850808990985
703.746456417772
636.404424232173
674.926699699413
731.008090106352
715.077722122735
639.617119353658
809.443903809871
669.071462811193
656.092235099838
786.957085196691
516.787486110461
685.840587148551
736.76188592107
665.867206030222
716.720240295035
557.731471010467
687.949949858336
524.24247873536
725.681562644801
660.804036412878
696.648041410987
653.171156098436
679.290548979089
737.979632618455
595.592573828257
554.480161053039
632.215122129484
552.317609729448
506.11707597873
557.989234237938
574.898950269828
524.50130702326
505.444784430032
505.585567196475
530.323688550145
507.721252098094
504.156325497746
536.989451043742
464.295228400022
544.396984495064
547.567827376231
473.273185695414
528.954455330403
487.725589228828
492.679841809213
434.548928860274
453.839555782817
471.760383309609
452.483005519379
440.100135736765
486.796264763151
473.677535689101
536.200021105619
489.631137167399
531.832949825408
524.299547113182
484.534413458509
492.714914937106
433.464240148153
472.911166388202
517.752634949375
497.689284964122
407.187781934465
459.363158644612
413.546127273647
479.353185058307
464.051472409512
432.906100401688
545.732760574945
423.158340477049
499.753472595444
502.027136030355
454.161915153784
482.081119272592
451.715561967957
453.303293447742
512.528075748915
444.963793034143
484.396735031465
464.918688767559
436.27988069883
494.456204308443
496.608933730808
519.19685051289
525.172967328841
437.07527483757
469.632806674324
504.091749441722
531.63885675524
500.803045916963
545.41144575857
451.150561829947
533.343596836713
456.3640058391
550.293607970342
430.618288114975
403.357340966848
382.154639369812
356.979146155345
329.236683655637
260.905125667292
317.34074998151
313.785128467991
300.077386391663
305.575436413065
363.995041851633
344.851187539371
354.321610980702
315.599983364039
347.208410166947
284.240201835229
287.82646320486
345.839903773696
326.414320286602
264.73165196739
320.514271138998
302.333821444399
297.905229594039
381.508700555487
322.225819097277
360.719316158815
290.084188520568
341.441719166561
329.588511670111
299.081802043637
301.507241619387
312.333347361873
345.700946982656
303.556316694205
335.050276442875
346.852655549056
347.906365955399
290.279539252751
259.494597993242
337.515151137314
346.273811902627
322.024749907013
230.851402250221
279.241722717181
251.27432557941
269.550736548777
309.244904161945
291.02080680294
321.093619965341
284.184031713365
297.046801000307
271.53863162845
291.418951098057
334.781201595771
353.069940706928
357.963052830103
274.094517406425
365.062938691681
302.604257623723
318.469540464648
279.723379074439
307.347911640899
309.069271678874
311.293115595784
353.74944955383
286.950143290052
316.359616910995
266.128853550888
267.134480047001
279.496987790313
358.451510505028
259.637551862467
303.93980420974
298.399223653172
278.499522432797
318.002586942981
252.386572957977
284.324267777755
277.319194808847
304.549525074581
293.928641113417
340.138202141457
289.177545903728
232.384197305593
220.401896982716
280.439269873452
277.457395066215
398.143903563566
241.529492073469
262.078648056433
321.604301158618
257.091840538365
289.897903515833
252.958517624655
293.766111214436
299.618024802194
305.481919224352
259.396149807723
310.792092711523
323.772809720963
346.543402861539
267.612711618223
280.826832983746
298.077693445097
341.908158058587
274.930109350703
362.232467195562
267.572986318592
398.642516825372
294.610276010164
290.280166252548
352.317525398631
321.40099383476
299.411456964909
337.584015348897
310.935987516228
384.893559107601
280.754792143573
309.130417628199
325.03385223301
314.74430537739
286.817569593017
227.069743806213
298.593046152488
309.588108083662
275.76550297019
330.2385662553
348.940360967875
260.202410484782
386.707930915707
281.294053530043
281.731711847341
263.666538102448
265.954532489114
)
;

boundaryField
{
    DSMCSide
    {
        type            symmetry;
    }
    DSMCBound
    {
        type            symmetry;
    }
    nullDims
    {
        type            empty;
    }
}


// ************************************************************************* //
