/*--------------------------------*- C++ -*----------------------------------*\
  =========                 |
  \\      /  F ield         | OpenFOAM: The Open Source CFD Toolbox
   \\    /   O peration     | Website:  https://openfoam.org
    \\  /    A nd           | Version:  7
     \\/     M anipulation  |
\*---------------------------------------------------------------------------*/
FoamFile
{
    version     2.0;
    format      ascii;
    class       volScalarField;
    location    "0.00252/particle";
    object      internalE;
}
// * * * * * * * * * * * * * * * * * * * * * * * * * * * * * * * * * * * * * //

dimensions      [1 -1 -2 0 0 0 0];

internalField   nonuniform List<scalar> 
600
(
132.196022995124
108.98470795701
110.62564571379
106.563200343396
107.940132544552
132.111353225266
105.624830704457
100.326030035022
96.1746039061691
102.048514552043
121.355799290397
104.641317514794
128.280446174967
131.244386626174
119.47846369451
111.073273161653
94.0435443340916
106.88067827806
113.545516039329
105.599073365275
121.613972462418
126.775875392555
110.773481520064
103.901151342007
116.266674946935
110.492859619371
114.240306987333
120.093186574678
110.113231258594
111.119732690066
105.731085115695
132.985508646721
122.894460329395
121.082123101241
118.521524570267
113.623277919264
110.996299835665
105.626894357534
108.884527239031
102.989206543803
107.541712506365
102.08004361543
123.656547668277
107.569264417686
128.659507935829
116.605101169276
91.0404897042778
117.862418544641
108.962482258879
114.71280400727
141.967288815847
116.436825868437
101.274335211613
118.616722662111
119.665519303924
117.629217798757
97.0959415497789
117.152113190715
120.403500326199
89.1582557194317
123.564515641774
124.302745116649
111.323506300132
107.287047481112
111.578736773694
108.058384487509
112.960094608222
112.418698313977
113.691204350433
103.511634679685
127.744828694217
117.430366727071
101.715901770257
112.939984821367
111.951695084502
113.327427409465
107.102899286714
107.448378885618
119.688027340072
114.238223903993
128.593047165891
104.256460385503
88.3555165314703
99.5648441342778
119.609598256968
104.435631257437
127.281072296144
105.927099714046
124.753343612487
116.572229530062
101.063294495218
112.410255709759
134.743547852451
124.522457544304
141.367824702528
100.469181866083
117.910690681303
115.537446707044
99.4827274369931
98.6314128009946
106.971923568128
100.073878037673
103.110439684517
112.706191460911
110.251113551556
126.627425440309
117.952280677619
100.409056248478
109.344884208753
112.812253588833
133.683758058153
103.686524655868
104.333495776196
119.472890652662
103.151366710012
114.353891207795
99.9869393515713
112.824019272876
125.226354283772
119.962744655924
112.523976611981
112.252287205893
93.7536821313599
109.232868656054
114.315045179513
132.38946601648
112.984507371131
121.91923663468
116.099612824217
93.7306647942148
120.441437728223
108.552638528328
102.142590730024
107.717170375611
103.008349909841
101.495458152116
122.502860251901
101.9889775554
105.923344031295
134.906231917498
112.090911774615
108.649917130783
98.2839793424803
102.029214621116
127.697881097551
100.841288610784
106.744294060353
102.861388619203
112.639224780833
108.865404739081
104.953706697961
98.7339401246562
114.409927403914
129.869701971416
106.476148057169
118.951858221844
109.94561489664
82.0323283710361
96.8698745401286
100.465140087715
95.1622529424821
91.5815054737401
88.9260131473207
88.6715801255033
103.572511861513
93.8689600442673
96.2076484471422
94.3472125741751
95.6457187807242
99.4804917687883
95.843828493162
94.9687384421648
89.9605428301388
97.8641843490756
77.1466117061432
95.9079232531868
86.6469400293525
83.3945818801764
91.4945536832612
96.5664752022082
82.8765498043566
77.7389661013424
74.6626713672774
86.0788219339133
77.1541626193804
77.4552701789312
86.0371562941232
82.2849409017567
84.2490001572746
79.2856120559188
87.6666431008877
77.0342705484328
88.6769923754969
82.6606693483052
80.6372385883067
64.0640920299383
86.0183102543074
71.2225482242075
74.3667199988977
81.8544447965444
81.8281566170116
79.6446168537613
76.0226825748908
71.8585514493864
81.5884450452171
75.8269241355279
68.3324873870565
75.5415264249057
62.1557554837506
64.642154366291
60.8102034574912
64.2392963572598
54.0104247794081
57.0894958267311
63.9473407844
85.1632502845656
70.8129557386212
64.3557260530075
61.1246571652875
76.6559005268295
69.4274107034103
61.2642106759928
68.5444356923724
52.7649156102354
59.4927349925154
65.4880486088454
81.5179716233555
54.6016598878843
49.7043194829967
58.2674210965507
62.5049520561818
55.0693080157835
60.0265646107432
52.884370503607
65.6063196849591
57.8184119002461
54.5072308747093
49.4374011618098
62.5288652978023
50.9473683391898
57.385393574162
45.5269574833446
54.4813297337983
53.7367640933065
49.1406231663622
49.0875528389759
47.7941053238947
52.5485034893105
50.6436295698044
43.8394873937928
60.0436490183342
44.5960648835636
47.6364974180143
49.1013586844808
46.8052682060227
46.783219913581
35.8518566836868
42.389426083825
52.4569565378998
48.2398279703241
50.8987280161601
42.3246704484231
41.7098951267332
42.558215082377
49.5555907449991
49.1749948362433
40.9479199690193
48.8771713933962
46.4760898602436
47.0125918317151
44.7236158141778
40.9434252080728
48.6999546905394
51.9604538443685
48.8691657600348
45.5264062877538
37.3931266013188
34.9101763774355
39.6732816084992
38.1827422940467
48.0592944193271
36.3141244719275
45.0002217276351
37.1409186569233
53.2836793938062
46.4899391417892
42.671003318896
46.2493218195892
38.4044749395517
38.1236875879545
43.50066881118
42.1911146191189
37.2575881564948
45.5165479400995
39.5067722985887
34.914818822174
58.1403212857216
47.2742697874881
47.0634532760659
34.9994028102053
43.5422694770494
43.5703190114423
41.8180274542576
43.2862091841098
35.3388859734244
45.4918435201762
44.7421577428499
47.8711023834523
40.9156994549839
41.1804667831544
41.5971197001928
44.3922065221792
42.3247644276386
38.1973246813596
36.70071567933
46.6059221339215
45.1534708466849
45.4428370356954
44.5935708120734
37.7087348027884
49.034712750873
44.3299439602755
45.6243894648683
42.0887732123717
37.8888566546364
40.5509403978995
46.9992551977388
43.1018100068471
41.3430744299665
42.7680202033392
39.0328884348956
47.4553158611235
37.7456873496417
43.2919312111781
46.6132365267908
36.0918846933397
42.416411484684
40.4671575641789
42.057844416136
50.8896884114019
48.7096455804933
45.1834208630148
46.511475603166
50.0561409663256
49.5183255262622
44.8646989791366
39.3697694820596
37.0565149584272
49.6810134841365
44.5067919309364
41.7480480313487
39.4510649269355
49.823180188585
46.9681018180891
48.0409231796787
40.1425425593653
44.0343235802723
34.0371991188162
37.8240187440077
38.8071561043328
53.0624495010905
33.0511331446759
38.6068475094401
37.4781620525125
48.7738203456954
35.3604313428076
38.0028762003034
33.2941995017039
44.1335465574528
42.5072014214414
49.4203914094858
39.6424038381701
41.120902757193
45.8464073586487
45.21513111832
41.4654263960486
43.0946639407795
50.9606778962546
48.774185598878
38.7696842599193
43.4604919870721
37.6729395344734
45.8302410416987
54.1155878427976
43.7600869610687
41.9564875099628
35.7294827329098
50.1503955887566
31.2679603410917
52.9009667717756
39.7779844492828
43.4745857505093
45.8114784387001
40.8908048451304
46.4614560377245
39.1417126238668
41.3393238553251
42.9450961717063
41.48311754829
35.7770516966425
46.5314253095378
42.5441550329869
42.2905194052316
40.7539927508018
40.7653440596311
42.1742246743729
39.8159676930818
47.8891640389353
48.9320360485148
40.5130458881199
52.0122214076997
48.38396933549
44.9556141195293
51.9974289751395
46.0590780981802
45.1665033266352
38.6374226238332
38.0968898276468
39.8617615608429
43.980334574551
36.7005048452618
45.1648016699201
41.331718625824
49.4523445505179
39.4789390045627
49.3432908982585
48.3547945374182
42.8142360282538
50.3397467007853
44.0468328726185
42.8318670029256
47.7509897195794
48.923991443544
34.4056492410233
43.3806305568178
35.8564425269552
40.7680488569684
46.1298719075175
37.77412223524
53.0440018864959
39.7278822690162
44.711004149643
45.1916695014918
38.6255807264742
44.7273319801525
41.4110964179044
37.3008502490778
48.6843858794492
41.2835983292961
47.34979053726
33.8917913477586
36.8638088179554
40.6871891253142
39.2187867131309
42.436284594311
46.9851877157978
39.3448081789302
43.5723815207466
45.9343020752041
47.5636657551295
46.4643463431967
48.4946369305776
39.8643854841927
46.8325492314602
38.3088010514309
48.3209185220955
42.0929462756067
32.2999281427407
18.5722874601761
14.7858977441812
10.5458065531089
8.93342281146309
9.98951234733227
10.5707494779122
12.4290553056494
11.9817534264573
12.8652737160312
11.6172985266596
11.5449815199318
12.8977002641348
11.5049589959278
12.8719084969721
11.1268529798663
12.7965675322904
14.6015113742405
7.60243651000582
11.8594831624086
9.68407882139118
8.55509938897183
14.9591316427814
11.211003143844
12.7494943706801
12.6559496222371
11.6910054372689
13.6513913591201
8.25854579983138
9.99062335540327
10.6943312936715
9.92767385899388
10.22616269891
11.6571965371058
11.8762765483186
15.1786468033392
10.9010649276452
9.02843466132857
11.7429553941268
12.8126227492092
14.0494696823084
9.68923965090995
9.86969816241909
7.77105050649041
10.7180704631833
12.1256349448457
10.60746395049
14.8954816552115
9.41660840124159
12.9597182393146
11.846834051547
11.4266711252719
13.3118111803161
10.9192387054698
13.4428299378047
11.5042293018975
10.6853119016595
10.0269736389165
12.6632151660248
10.8136023329357
11.3723091647473
10.9239421425519
12.0340315213255
13.4799552997312
9.34979408186785
9.25977638786931
8.818339239721
10.3269381565535
12.194045511688
12.2734227338741
9.03340836666858
9.23195879500838
11.0411950020639
8.92064048300691
11.0640668459038
9.19927857959692
12.2476317695891
8.57652871740743
13.4552416574158
12.0120523192558
12.9612859225094
10.3805774475521
8.72688178267105
8.03346400742669
9.13764807963863
10.4195462279498
15.1716477005589
8.13661171484254
8.97360435888997
12.0774250123335
8.66087393119894
10.5665350689134
8.10253451471715
9.08517526443906
9.92802302263608
13.3277301321563
11.3170752977328
11.328110713976
11.9800537170657
15.1191827134815
10.3454257282795
10.0808127409338
10.7000651538292
16.0498869464028
9.86913864235116
12.8029761493381
9.16173116030742
13.2092589805187
12.6907147402914
12.0232593460977
10.5068273351386
11.8922931612973
11.2440020431945
13.7961269754269
10.4747680164077
15.9420987714576
10.6984252641357
14.6819513417848
12.7447268616271
11.1245241656145
10.2958616139235
8.2765014231521
11.8728716881073
10.7713070999281
9.59453817023047
12.0369183396099
9.82799599115368
9.91525744178841
16.6579391103465
11.0296692341775
10.7356517077513
9.46481135161025
8.07818275618404
)
;

boundaryField
{
    DSMCSide
    {
        type            symmetry;
    }
    DSMCBound
    {
        type            symmetry;
    }
    nullDims
    {
        type            empty;
    }
}


// ************************************************************************* //
