/*--------------------------------*- C++ -*----------------------------------*\
  =========                 |
  \\      /  F ield         | OpenFOAM: The Open Source CFD Toolbox
   \\    /   O peration     | Website:  https://openfoam.org
    \\  /    A nd           | Version:  7
     \\/     M anipulation  |
\*---------------------------------------------------------------------------*/
FoamFile
{
    version     2.0;
    format      ascii;
    class       volScalarField;
    location    "0.00252/particle";
    object      p_Mean;
}
// * * * * * * * * * * * * * * * * * * * * * * * * * * * * * * * * * * * * * //

dimensions      [1 -1 -2 0 0 0 0];

internalField   nonuniform List<scalar> 
600
(
109.931172317697
116.094455649292
108.423125569165
112.644058740162
125.033205467018
111.645570740189
108.888131277047
109.566475205734
87.9788319763603
111.655198655876
125.315872921235
106.097996028494
121.560458174432
128.899898343199
115.152603328887
108.491752813522
89.8487937955366
113.431969944752
122.347506181852
110.571023079959
100.425880594318
114.043629511177
107.76172482788
102.048779314391
115.587962215287
99.5739382383112
108.595409399744
118.031150479648
103.441812670093
107.447989027262
98.7841756398794
136.64227463163
111.186521181387
112.042406802765
111.931861047263
103.754733241364
101.87769158862
96.5840211387151
106.746752573001
99.0426470319038
126.048732529942
109.39903982373
117.621053205325
92.1534562965745
108.130063701458
112.194471994341
100.190334808358
119.199983108325
119.684444924719
120.252007929527
119.418146677472
124.799538541987
112.326661596225
104.99361327106
113.922114683361
111.67141485799
114.849670735467
113.672763260157
124.104933884104
93.3359631748592
118.634008064284
121.376499871826
103.351176974493
120.814696327378
118.667499892803
98.4774861013482
116.301264149974
121.381201679686
127.64192973046
99.5711110293396
118.060741103923
110.401185814852
102.392985840266
124.093899533544
113.504573275586
128.798908183133
108.148247523055
108.813610965721
123.582025078349
112.534816493065
120.364355189492
106.378505158739
103.792439437546
99.9583619812197
107.149072815205
102.951432672481
110.389449407316
107.807623960292
118.75793789009
118.43646931919
90.68858784289
112.632639028641
102.331020856447
107.948070864226
135.459909362874
115.014627992634
113.687781449455
94.0652941709859
106.175392688824
101.704244091879
99.1893413669651
91.0376276082434
102.263989190038
103.754928538208
114.209513853957
113.189393632344
124.144036572817
105.487154944671
118.225539996232
106.311437000554
112.691747950374
106.959091872937
90.309693386674
114.150680961227
96.6966134434934
132.649423671075
94.9107678714141
121.070495501051
109.669710533809
95.5437122235344
127.963180503976
101.328452952844
108.85088444714
114.968890314358
116.911749734142
120.542134143982
115.31152140113
128.425782028425
133.68669221877
107.023288011928
121.507431774592
105.192838846369
111.043026585389
107.570005570021
114.728159951525
124.85138941967
111.484655163488
99.2084144049055
103.558750300877
127.275728190371
106.937911264811
102.14765771735
92.2004562202194
103.719152183909
116.978082947753
98.5934254021696
102.104212876239
100.230399646578
102.127790332365
116.581583576362
101.340462672779
100.457395795922
101.728734980534
112.635249438862
107.14956956356
114.555506241292
88.3977384445317
96.3765549906094
100.698817263367
110.054572663627
91.3400231757157
104.915812633325
98.9346865810824
102.861380104793
101.537831174281
95.4101364890362
104.190075710398
91.2288201938165
94.9063395045986
103.847870044247
96.2002357171181
83.1744285690984
90.1953524175186
93.1050394527244
91.1329025142343
92.6613510229893
92.2271434142756
79.8699777556516
93.7087088032268
87.6482412020507
74.0567834341689
87.5276188657351
80.6969348928975
83.7360092743377
80.8130748213903
73.5063852914365
84.8046950607754
81.1902023311725
102.02564853743
78.9022760149771
72.3186635755193
81.0864137070237
88.8581542139427
86.48028144722
72.3868819231233
70.2799062087066
95.6308968147299
71.9161024157763
64.2923762179378
74.2401492860326
82.1124625312546
81.1406925891689
71.0828807315946
83.1902513393096
78.5097067145869
75.4840358898171
60.8453793187936
78.7044003621678
71.0814557371633
73.1944594702957
63.7511631569267
61.7359584329249
70.5447508903082
63.5251535374634
66.3333729663076
75.129589757308
61.8645116548721
54.7436052778683
64.6096917618262
72.6287003205135
61.9672934833794
58.7696465566801
75.5900781426901
52.8920435720354
57.0479496138238
64.0994795498825
74.2737189465548
56.8490648063694
52.8265081058152
57.5896105485827
60.4494739947409
47.1921581178463
55.0236146814734
58.7104292596456
63.5363997710241
65.1351320256464
53.2114277584224
40.2002638948129
69.1594472667616
47.4003553628597
57.2844923184715
38.3772787946285
55.2973717386575
57.8849805975765
43.6944173248492
51.9067509009248
42.9254151992738
56.9952008104244
54.3701122310054
39.3950617613205
62.5710005341417
51.2566712832438
53.1613003820555
54.0658004461729
47.3170088043831
46.3145292451269
41.778053945802
41.3052470980829
51.8935188802397
46.3235060662937
51.3390972959094
44.8418135305755
38.4459526525622
46.5554630517539
49.7528221483057
48.2601394981284
45.6385693219654
45.0762964706884
43.4446765926774
47.3710132248164
52.1666678535491
42.3089626198817
48.6666575702624
41.740645912359
45.7788089260517
34.0610306847842
40.4178689894104
34.9980302576176
47.0139441012849
44.678078686689
42.1171123237305
35.7017130255832
42.4924003675457
39.0998325190211
46.188017914442
40.3117528993529
35.6409314473952
50.4851075757704
37.4280566988077
42.26653378917
46.5511275913657
48.6487785856905
41.1428715269579
47.9958075504124
43.9098080404315
30.8796032299699
43.6214065703899
42.395049577563
45.6094264980651
31.5292856980937
46.3726017913676
38.9772781297763
40.3062718741698
42.7070726105341
35.8277342180816
52.6247178421389
44.0379720851357
42.9922256198175
42.1727881172434
41.151372664412
39.9685203774597
39.6093161458781
41.186273821387
40.9044354228425
37.0286729167448
43.6939063450318
49.7202706754702
39.5009198621567
39.3101245153955
40.4352710615551
41.3177934216102
50.1296633911068
40.053101011669
38.8201132296309
36.1110664961856
49.4405575182578
47.788966825558
43.8365930837296
50.0959329811796
44.8275106211152
47.3421879235534
39.8578058972106
41.8148164925793
37.0081801386529
46.3901620192275
32.9941632581863
48.6906190813975
40.8312982268684
31.9429939763672
44.945754611644
47.567869514309
45.1976198832563
36.7811678294359
41.7622943797123
41.1119862737906
45.2318642420543
37.8875186443475
38.8890664028213
37.8134900380173
37.4256017699276
42.675152361521
36.4325461964529
52.6662288152969
43.164315260997
40.3821424296574
40.1468073773395
44.1716558580824
39.5998422071373
39.1089181437197
42.3174929734586
50.4674811235787
35.7710458345465
37.6283630220746
36.2811906256016
43.1814990600041
38.0844670378213
42.7517049621681
38.0244292050627
39.030879973172
37.7371929819169
45.661310965885
38.8214996574161
47.1986864228995
49.5125518974364
39.7661483257406
35.9978640858978
39.1029061616664
42.83528571466
47.100437047917
41.538320883064
31.4549001029108
44.7994268027437
40.1602796648193
48.5207152400605
39.7857112135953
38.3333274303655
48.5906813371272
52.3315038334284
39.1565229253302
44.1013787844011
36.6956479412718
42.1137936182514
40.4817682739028
41.0820069537433
39.3803970730265
41.521622982678
53.4004812746627
43.9901390035724
38.7343345430356
40.3957055652448
49.6836304983184
42.0941519626402
40.7552538088629
42.6041075530389
40.7955148304053
37.1591965676624
38.4926788266047
46.6842079233364
47.4135207545934
43.0630895413842
46.4653364388124
46.7892387971357
43.9490233958777
47.5687180250236
41.4827748877662
41.3799420165066
41.8996913830027
40.8341745436406
39.9648490650851
50.0833429423138
38.3297818346
36.9696995775599
43.548165450592
47.8280179662574
41.830225301747
43.5067369395358
43.6858672296716
42.2410342080373
47.8485487465342
47.1830919845304
43.9418588425214
48.855301554877
44.4774887068721
40.8490582533051
46.7108585454023
37.2591895303877
39.4424773059757
50.8051917316027
41.9613113976811
42.0817268452201
49.0242410301381
49.2495774409346
42.8846837042375
39.3324317796397
43.6322857024454
41.8610035911177
40.5200700481011
46.2850072658638
40.1746760267374
44.5708369951811
33.3745312977756
38.9438056400352
35.9935050333317
40.2692663625853
32.6707271726005
39.4810463906487
39.2906763690689
43.8364707519187
40.9925983381035
39.6644344325987
42.2385808844448
44.9743863494402
40.2518059014822
35.1006717706627
37.5035778532422
42.9004417014819
45.6875555554893
34.1181239799133
20.3611523894075
12.8315217022096
9.08616560553337
10.4604310960592
10.1711926374094
8.16485793242551
11.6488799938499
12.3912867147461
11.6267002044539
9.14235542039693
8.40746095153777
12.1140855086853
9.01663054256491
12.9486836134656
12.1987795325631
9.77827781434564
12.1219993330662
8.09451122045548
11.1642847850091
9.57545907071393
7.98863933376209
12.2414619025264
9.28266892235808
9.86248434857024
13.1338162508224
9.41397372186873
12.8288621925438
9.6064632406092
8.93144078397428
10.0015253277326
8.87344602032843
10.2433471058735
11.1373375821769
9.9433003943209
11.9232356310527
11.5813449068467
13.381471694504
10.3816913154667
11.0643674307253
11.7258910114794
10.7289764903655
9.52894632277903
9.44535831335238
12.6953851392155
13.7487133120619
14.6027123106633
14.9414391624159
8.21125662786465
9.93634725545154
12.8500410548625
11.6612854715485
12.9016732705282
7.68590658531653
11.7184695828993
13.7253805215811
7.45582206035821
10.733620767881
12.3966939130971
12.4991551886431
11.3580479537223
10.0709240074283
11.9044272953587
11.0607464265948
9.09714342429113
8.1613881168033
9.33207097539755
9.92587486093979
13.4681087547701
12.4254530272311
11.6319967910453
8.86244537645265
11.7648588145077
9.82841808225401
12.3817457165094
9.37862551229689
12.2666376408881
8.58056264413123
15.714543337064
14.3336397940078
11.6981652019722
9.29527447241038
11.7498425645327
9.84762105168688
8.550180298284
11.2155810635421
12.0300121406755
8.84393396917277
12.0405077940663
9.36639789894351
9.91335417527085
10.8316840017279
8.98276989540623
8.19438566884346
10.4866352702193
14.0514436577477
14.3056893253951
11.9661750782624
11.6309274819514
15.1662491529902
14.0489712001185
10.0499233367397
11.5072231672044
14.1942134549458
10.9517859439627
10.4376028326
11.5896432559211
8.75101579596006
11.1644955369835
12.0596852399046
6.11228618660795
10.7202794624665
11.701863080272
11.4762279638099
11.7888669212346
10.8702028939552
12.2040945728304
15.9987599472406
12.2456096293229
9.69691485578265
11.5640185952888
11.8091619300167
14.7769386031243
11.0453580493647
10.0524287611334
11.2383821753081
8.18119169061111
11.5045011069265
13.3600249833055
13.6537788300685
11.2702898305301
9.90258552499667
8.28245053743554
)
;

boundaryField
{
    DSMCSide
    {
        type            symmetry;
    }
    DSMCBound
    {
        type            symmetry;
    }
    nullDims
    {
        type            empty;
    }
}


// ************************************************************************* //
