/*--------------------------------*- C++ -*----------------------------------*\
  =========                 |
  \\      /  F ield         | OpenFOAM: The Open Source CFD Toolbox
   \\    /   O peration     | Website:  https://openfoam.org
    \\  /    A nd           | Version:  7
     \\/     M anipulation  |
\*---------------------------------------------------------------------------*/
FoamFile
{
    version     2.0;
    format      ascii;
    class       volScalarField;
    location    "0.0025";
    object      dsmcRhoN;
}
// * * * * * * * * * * * * * * * * * * * * * * * * * * * * * * * * * * * * * //

dimensions      [0 -3 0 0 0 0 0];

internalField   nonuniform List<scalar> 
250
(
803
807
846
846
812
844
823
753
814
819
830
816
798
759
767
786
759
833
816
818
803
776
853
781
782
773
810
771
832
779
850
775
768
791
767
755
814
788
775
782
804
776
760
826
832
799
738
786
784
709
796
853
751
828
775
783
710
762
749
810
804
745
748
737
773
771
813
741
801
716
801
727
766
750
739
784
808
759
770
754
737
718
783
786
745
760
761
766
749
727
719
742
778
680
726
748
736
803
719
711
697
737
701
777
756
761
770
679
732
728
702
749
734
733
694
739
783
718
719
718
726
728
740
761
732
725
744
707
705
765
746
714
750
694
729
718
735
707
727
756
704
701
673
740
732
702
781
765
716
718
757
701
733
716
756
745
746
718
712
686
723
695
701
712
750
736
772
729
727
715
724
685
696
764
727
743
709
730
737
700
710
683
782
706
725
711
732
730
738
725
692
717
717
773
715
643
800
717
768
748
789
749
763
739
738
741
716
743
749
810
798
703
744
719
761
768
765
765
778
753
785
767
850
792
815
794
814
751
791
775
830
810
807
831
810
846
851
865
864
851
791
817
822
790
851
809
813
819
877
875
)
;

boundaryField
{
    sides
    {
        type            symmetry;
    }
    empty
    {
        type            empty;
    }
    procBoundary2to1
    {
        type            processor;
        value           uniform 848;
    }
    procBoundary2to3
    {
        type            processor;
        value           uniform 932;
    }
}


// ************************************************************************* //
