/*--------------------------------*- C++ -*----------------------------------*\
  =========                 |
  \\      /  F ield         | OpenFOAM: The Open Source CFD Toolbox
   \\    /   O peration     | Website:  https://openfoam.org
    \\  /    A nd           | Version:  7
     \\/     M anipulation  |
\*---------------------------------------------------------------------------*/
FoamFile
{
    version     2.0;
    format      ascii;
    class       volScalarField;
    location    "0.0025";
    object      internalE;
}
// * * * * * * * * * * * * * * * * * * * * * * * * * * * * * * * * * * * * * //

dimensions      [1 -1 -2 0 0 0 0];

internalField   nonuniform List<scalar> 
250
(
0.147305
0.150569
0.164357
0.167199
0.151021
0.163982
0.156989
0.148245
0.146694
0.168427
0.15708
0.158433
0.16601
0.147787
0.149596
0.137875
0.141585
0.15663
0.148514
0.157721
0.147943
0.143115
0.165379
0.145295
0.154101
0.133705
0.156375
0.146241
0.15713
0.149083
0.166555
0.140921
0.147891
0.153
0.148851
0.143406
0.149426
0.146891
0.148907
0.153038
0.149775
0.137744
0.141849
0.156969
0.162535
0.146967
0.138045
0.140841
0.138794
0.13479
0.1516
0.153666
0.14364
0.148929
0.142262
0.135156
0.131586
0.147404
0.146109
0.152161
0.152672
0.127707
0.142181
0.136964
0.152764
0.141486
0.151651
0.136637
0.155488
0.119645
0.144854
0.126938
0.144342
0.145443
0.139964
0.148956
0.140381
0.141513
0.133441
0.148226
0.137093
0.134866
0.149537
0.147783
0.139181
0.142612
0.140035
0.143667
0.129637
0.132346
0.128636
0.138641
0.148447
0.130852
0.135369
0.136958
0.140769
0.147538
0.134901
0.129799
0.123808
0.143957
0.127812
0.14946
0.133284
0.142055
0.155526
0.127322
0.133621
0.135463
0.131504
0.136967
0.144177
0.145779
0.128986
0.144465
0.145935
0.131686
0.131229
0.12974
0.142069
0.130837
0.141734
0.139899
0.138347
0.141958
0.138273
0.125753
0.1302
0.149116
0.146963
0.128411
0.143142
0.124404
0.137977
0.127473
0.124347
0.136879
0.140567
0.138145
0.13725
0.133363
0.122204
0.137949
0.126961
0.128593
0.139849
0.14506
0.137622
0.133938
0.14667
0.126492
0.131074
0.123166
0.140559
0.140749
0.13548
0.125557
0.126496
0.126012
0.126331
0.117488
0.145993
0.132978
0.132072
0.143124
0.152591
0.136501
0.130838
0.135985
0.133346
0.128423
0.12708
0.130557
0.12712
0.141644
0.126129
0.133202
0.138405
0.133358
0.128838
0.132891
0.153084
0.137798
0.135585
0.134393
0.144082
0.139341
0.151907
0.138616
0.123394
0.130119
0.13596
0.144854
0.128178
0.119367
0.154571
0.138809
0.142562
0.13874
0.150627
0.136909
0.139508
0.139822
0.147873
0.141408
0.127585
0.137487
0.145601
0.161976
0.156385
0.129052
0.147768
0.137815
0.160918
0.148872
0.147478
0.152014
0.153345
0.155806
0.14998
0.151459
0.166081
0.163088
0.158429
0.147862
0.167398
0.149102
0.150493
0.153019
0.163317
0.157008
0.171416
0.162209
0.160387
0.15899
0.17509
0.175151
0.172099
0.175937
0.165007
0.169936
0.174448
0.162141
0.185014
0.166176
0.179442
0.181461
0.187615
0.184547
)
;

boundaryField
{
    sides
    {
        type            symmetry;
    }
    empty
    {
        type            empty;
    }
    procBoundary2to1
    {
        type            processor;
        value           uniform 0.158349;
    }
    procBoundary2to3
    {
        type            processor;
        value           uniform 0.201473;
    }
}


// ************************************************************************* //
