/*--------------------------------*- C++ -*----------------------------------*\
  =========                 |
  \\      /  F ield         | OpenFOAM: The Open Source CFD Toolbox
   \\    /   O peration     | Website:  https://openfoam.org
    \\  /    A nd           | Version:  7
     \\/     M anipulation  |
\*---------------------------------------------------------------------------*/
FoamFile
{
    version     2.0;
    format      ascii;
    class       volScalarField;
    location    "0.0025";
    object      rhoM;
}
// * * * * * * * * * * * * * * * * * * * * * * * * * * * * * * * * * * * * * //

dimensions      [1 -3 0 0 0 0 0];

internalField   nonuniform List<scalar> 
250
(
5.60093e-06
5.62883e-06
5.90085e-06
5.90085e-06
5.6637e-06
5.8869e-06
5.74043e-06
5.25218e-06
5.67765e-06
5.71253e-06
5.78925e-06
5.6916e-06
5.56605e-06
5.29403e-06
5.34983e-06
5.48235e-06
5.29403e-06
5.81018e-06
5.6916e-06
5.70555e-06
5.60093e-06
5.4126e-06
5.94968e-06
5.44748e-06
5.45445e-06
5.39168e-06
5.64975e-06
5.37773e-06
5.8032e-06
5.43353e-06
5.92875e-06
5.40563e-06
5.3568e-06
5.51723e-06
5.34983e-06
5.26613e-06
5.67765e-06
5.4963e-06
5.40563e-06
5.45445e-06
5.6079e-06
5.4126e-06
5.301e-06
5.76135e-06
5.8032e-06
5.57303e-06
5.14755e-06
5.48235e-06
5.4684e-06
4.94528e-06
5.5521e-06
5.94968e-06
5.23823e-06
5.7753e-06
5.40563e-06
5.46143e-06
4.95225e-06
5.31495e-06
5.22428e-06
5.64975e-06
5.6079e-06
5.19638e-06
5.2173e-06
5.14058e-06
5.39168e-06
5.37773e-06
5.67068e-06
5.16848e-06
5.58698e-06
4.9941e-06
5.58698e-06
5.07083e-06
5.34285e-06
5.23125e-06
5.15453e-06
5.4684e-06
5.6358e-06
5.29403e-06
5.37075e-06
5.25915e-06
5.14058e-06
5.00805e-06
5.46143e-06
5.48235e-06
5.19638e-06
5.301e-06
5.30798e-06
5.34285e-06
5.22428e-06
5.07083e-06
5.01503e-06
5.17545e-06
5.42655e-06
4.743e-06
5.06385e-06
5.2173e-06
5.1336e-06
5.60093e-06
5.01503e-06
4.95923e-06
4.86158e-06
5.14058e-06
4.88948e-06
5.41958e-06
5.2731e-06
5.30798e-06
5.37075e-06
4.73603e-06
5.1057e-06
5.0778e-06
4.89645e-06
5.22428e-06
5.11965e-06
5.11268e-06
4.84065e-06
5.15453e-06
5.46143e-06
5.00805e-06
5.01503e-06
5.00805e-06
5.06385e-06
5.0778e-06
5.1615e-06
5.30798e-06
5.1057e-06
5.05688e-06
5.1894e-06
4.93133e-06
4.91738e-06
5.33588e-06
5.20335e-06
4.98015e-06
5.23125e-06
4.84065e-06
5.08478e-06
5.00805e-06
5.12663e-06
4.93133e-06
5.07083e-06
5.2731e-06
4.9104e-06
4.88948e-06
4.69418e-06
5.1615e-06
5.1057e-06
4.89645e-06
5.44748e-06
5.33588e-06
4.9941e-06
5.00805e-06
5.28008e-06
4.88948e-06
5.11268e-06
4.9941e-06
5.2731e-06
5.19638e-06
5.20335e-06
5.00805e-06
4.9662e-06
4.78485e-06
5.04293e-06
4.84763e-06
4.88948e-06
4.9662e-06
5.23125e-06
5.1336e-06
5.3847e-06
5.08478e-06
5.07083e-06
4.98713e-06
5.0499e-06
4.77788e-06
4.8546e-06
5.3289e-06
5.07083e-06
5.18243e-06
4.94528e-06
5.09175e-06
5.14058e-06
4.8825e-06
4.95225e-06
4.76393e-06
5.45445e-06
4.92435e-06
5.05688e-06
4.95923e-06
5.1057e-06
5.09175e-06
5.14755e-06
5.05688e-06
4.8267e-06
5.00108e-06
5.00108e-06
5.39168e-06
4.98713e-06
4.48493e-06
5.58e-06
5.00108e-06
5.3568e-06
5.2173e-06
5.50328e-06
5.22428e-06
5.32193e-06
5.15453e-06
5.14755e-06
5.16848e-06
4.9941e-06
5.18243e-06
5.22428e-06
5.64975e-06
5.56605e-06
4.90343e-06
5.1894e-06
5.01503e-06
5.30798e-06
5.3568e-06
5.33588e-06
5.33588e-06
5.42655e-06
5.25218e-06
5.47538e-06
5.34983e-06
5.92875e-06
5.5242e-06
5.68463e-06
5.53815e-06
5.67765e-06
5.23823e-06
5.51723e-06
5.40563e-06
5.78925e-06
5.64975e-06
5.62883e-06
5.79623e-06
5.64975e-06
5.90085e-06
5.93573e-06
6.03338e-06
6.0264e-06
5.93573e-06
5.51723e-06
5.69858e-06
5.73345e-06
5.51025e-06
5.93573e-06
5.64278e-06
5.67068e-06
5.71253e-06
6.11708e-06
6.10313e-06
)
;

boundaryField
{
    sides
    {
        type            symmetry;
    }
    empty
    {
        type            empty;
    }
    procBoundary2to1
    {
        type            processor;
        value           uniform 5.9148e-06;
    }
    procBoundary2to3
    {
        type            processor;
        value           uniform 6.5007e-06;
    }
}


// ************************************************************************* //
