/*--------------------------------*- C++ -*----------------------------------*\
  =========                 |
  \\      /  F ield         | OpenFOAM: The Open Source CFD Toolbox
   \\    /   O peration     | Website:  https://openfoam.org
    \\  /    A nd           | Version:  7
     \\/     M anipulation  |
\*---------------------------------------------------------------------------*/
FoamFile
{
    version     2.0;
    format      ascii;
    class       volScalarField;
    location    "0.005";
    object      iDof;
}
// * * * * * * * * * * * * * * * * * * * * * * * * * * * * * * * * * * * * * //

dimensions      [0 -3 0 0 0 0 0];

internalField   nonuniform List<scalar> 
546
(
2.495854457e-289
2.259955017e+20
1.138383132e+20
9.175317976e+19
1.617805292e+20
9.314939654e+19
1.407953429e+20
1.418831441e+20
2.383131418e+19
4.803665495e+19
4.841659818e+19
3.416181973e+20
4.919480534e+19
9.918673216e+19
1.999937504e+20
7.56152711e+19
7.624314254e+19
1.79390233e+20
1.292178249e+20
1.042545567e+20
7.88624812e+19
1.060609074e+20
1.604816415e+20
1.34913696e+20
2.994500594e+20
1.922692354e+20
1.662945544e+20
1.678141818e+20
8.468091938e+19
1.139588717e+20
8.973560851e+19
1.35597301e+20
1.138383132e+20
9.175317976e+19
1.617805292e+20
1.164367458e+20
1.173294524e+20
1.418831441e+20
1.191565709e+20
1.681282922e+20
9.683319637e+19
3.172168975e+20
1.229870133e+20
2.479668302e+19
1.249960939e+20
1.008203615e+20
7.624314254e+19
7.688152835e+19
7.753069486e+19
1.303181959e+20
7.886248126e+19
1.060609075e+20
8.024082082e+19
2.428446528e+20
1.088909307e+20
2.472033029e+20
1.385787955e+20
5.593806066e+19
1.975888119e+20
1.709383076e+20
1.346034127e+20
2.033959515e+20
6.83029879e+19
1.605680646e+20
1.848920335e+20
1.164367457e+20
9.386356187e+19
1.655303348e+20
3.57469713e+20
1.921466198e+20
7.262489722e+19
1.952103985e+20
7.379220795e+19
1.735767811e+20
7.499765639e+19
1.512305422e+20
1.524862851e+20
1.281358806e+20
1.292178249e+20
1.824454743e+20
5.257498742e+19
1.85606588e+20
1.604816416e+20
2.428446528e+20
5.444546535e+19
1.373351681e+20
8.314727722e+19
1.398451515e+20
1.129078925e+20
1.709383077e+20
1.570373148e+20
6.779865045e+19
1.366059758e+20
1.605680647e+20
1.155575208e+20
1.630114439e+20
1.642612334e+20
2.364719068e+20
9.532525673e+19
1.200916374e+20
1.936663927e+20
1.220064989e+20
1.721818186e+20
1.239834152e+20
1.24996094e+20
1.764356326e+20
1.779006659e+20
2.050174089e+20
1.033742598e+20
1.563818351e+20
7.886248126e+19
1.325761344e+20
5.34938805e+19
1.079309567e+20
1.633363961e+20
1.098681345e+20
1.662945546e+20
2.796903036e+20
5.64539463e+19
2.279177428e+20
1.121695106e+20
1.129977507e+20
1.138383131e+20
6.881488477e+19
2.080035375e+20
1.630114441e+20
1.877271239e+20
2.128247161e+20
1.191565709e+20
9.607330983e+19
9.683319637e+19
2.440129983e+19
1.967792214e+20
2.479668304e+20
9.999687519e+19
7.56152711e+19
1.524862852e+20
1.537630569e+20
1.292178249e+20
1.042545567e+20
1.314374686e+20
7.954568051e+19
2.975695877e-289
1.34913696e+20
1.633363963e+20
1.648022015e+20
1.108630359e+20
2.796903041e+20
3.387236778e+20
1.4244859e+20
1.121695107e+20
9.039820073e+19
1.138383132e+20
1.146914748e+20
1.617805293e+20
9.314939661e+19
1.407953429e+20
7.094157204e+19
1.429878851e+20
2.401832746e+20
9.683319629e+19
1.952103983e+20
9.838961052e+19
2.4796683e+20
4.999843755e+19
7.56152711e+19
1.524862851e+20
1.537630567e+20
1.809049548e+20
1.042545568e+20
2.628749375e+19
1.060609077e+20
1.069877616e+20
1.079309568e+20
1.633363949e+20
8.240110088e+19
5.543151844e+19
2.517212732e+20
2.258157844e+20
1.994280242e+20
2.243390211e+20
1.129977507e+20
1.138383131e+20
1.605680645e+20
9.244601666e+19
2.095861424e+20
1.407953429e+20
1.655303348e+20
1.191565709e+20
4.803665495e+19
1.694580938e+20
4.880259965e+19
1.47584416e+20
4.959336608e+19
9.999687511e+19
1.008203614e+20
1.524862851e+20
1.025087045e+20
1.550613904e+20
2.606363938e+19
1.051499757e+20
7.954568105e+19
1.604816419e+20
2.158619151e+20
8.166819902e+19
1.373351693e+20
2.217260738e+20
1.398451518e+20
2.258157864e+20
1.424485913e+20
1.794712169e+20
1.581968512e+20
1.593736385e+20
1.146914748e+20
1.848920333e+20
9.314939654e+19
2.815906858e+20
7.094157204e+19
9.53252568e+19
1.921466198e+20
1.694580935e+20
1.708090985e+20
2.705714292e+20
1.983734643e+20
1.499953131e+20
7.561527128e+19
1.016575232e+20
5.125435198e+19
2.325920836e+20
1.042545563e+20
1.840124547e+20
1.590913594e+20
1.069877604e+20
1.349136958e+20
2.450045928e+20
1.098681335e+20
1.385787936e+20
2.237522409e+20
2.822697305e+20
1.424485887e+20
1.570373149e+20
2.033959515e+20
4.553532523e+19
1.605680646e+20
1.848920335e+20
1.630114441e+20
4.693178097e+19
1.891775254e+20
1.429878851e+20
2.64201602e+20
1.694580932e+20
4.880259965e+19
1.475844161e+20
9.918673232e+19
7.499765645e+19
1.008203608e+20
1.27071904e+20
1.537630572e+20
1.292178248e+20
2.085091126e+20
1.840124563e+20
1.060609081e+20
8.024082096e+19
2.158619132e+20
1.633363952e+20
1.373351681e+20
2.217260738e+20
1.957832125e+20
2.258157844e+20
1.13958872e+20
1.121695106e+20
2.259955015e+20
9.107065053e+19
1.835063595e+20
6.93345125e+19
4.657469827e+19
1.407953427e+20
1.418831443e+20
9.532525666e+19
1.441099643e+20
1.694580943e+20
9.760519915e+19
2.459740255e+20
2.231701474e+20
7.499765615e+19
5.041018082e+19
2.795581911e+20
5.12543524e+19
7.753069486e+19
1.042545572e+20
2.1029995e+20
1.060609072e+20
2.407224629e+20
2.158619132e+20
2.177818622e+20
1.373351681e+20
5.543151795e+19
2.517212732e+20
1.975888113e+20
1.994280242e+20
1.121695106e+20
1.581968507e+20
1.138383127e+20
2.06444654e+20
2.7733805e+20
1.164367459e+20
1.17329453e+20
2.601190987e+20
1.191565711e+20
7.205498226e+19
2.178746906e+20
7.320389936e+19
4.919480549e+19
1.983734643e+20
9.999687567e+19
1.008203616e+20
5.08287612e+19
2.050174079e+20
7.753069486e+19
2.345727517e+20
1.577249625e+20
1.325761351e+20
1.337347016e+20
8.094821746e+19
1.633363952e+20
1.648022018e+20
1.108630369e+20
2.796903036e+20
1.975888131e+20
1.709383096e+20
1.346034132e+20
2.485950529e+20
1.138383137e+20
2.293829499e+20
1.61780529e+20
1.397240943e+20
1.173294515e+20
4.729438086e+19
1.906505123e+20
1.20091638e+20
1.694580953e+20
1.952103998e+20
1.721818192e+20
7.439004912e+19
1.499953123e+20
1.26025452e+20
7.624314304e+19
7.68815286e+19
5.168712991e+19
1.824454736e+20
1.314374677e+20
1.325761328e+20
2.407224588e+20
3.50775609e+20
1.36113665e+20
3.021373726e+20
1.940103145e+20
3.356283643e+20
1.975888113e+20
1.709383065e+20
1.794712164e+20
1.129977501e+20
1.366059755e+20
2.064446549e+20
1.155575207e+20
1.397240953e+20
2.346589066e+20
4.729438158e+19
1.429878853e+20
9.607330968e+19
1.452497938e+20
1.464077976e+20
7.379220766e+19
1.239834152e+20
2.249929685e+20
1.512305412e+20
1.016575232e+20
1.793902334e+20
1.292178248e+20
1.303181965e+20
1.051499759e+20
1.325761351e+20
1.069877613e+20
2.158619132e+20
1.633363952e+20
1.648022003e+20
1.662945538e+20
3.076593339e+20
8.468091915e+19
2.27917742e+20
1.121695102e+20
1.807964015e+20
2.276766258e+20
1.605680637e+20
1.386690249e+20
2.328734905e+20
1.877271225e+20
1.418831437e+20
2.14481828e+20
2.642016016e+20
1.210414948e+20
1.952103983e+20
1.475844153e+20
9.918673137e+19
1.74994531e+20
5.041018082e+19
2.541438081e+20
1.281358799e+20
1.550613897e+20
1.563818345e+20
1.314374677e+20
1.856065875e+20
8.024082096e+19
8.094821746e+19
2.722273253e+20
5.493406725e+19
8.314727692e+19
1.398451505e+20
1.129078922e+20
1.994280261e+20
1.570373155e+20
1.129977517e+20
9.1070651e+19
1.376297699e+20
2.080035389e+20
1.630114445e+20
9.386356194e+19
9.458876315e+19
1.906505138e+20
2.161649468e+20
1.210414957e+20
2.440129998e+19
1.475844165e+20
7.439004912e+19
1.999937513e+20
2.520509041e+19
2.287294272e+20
2.56271762e+19
1.033742607e+20
1.563818358e+20
1.577249625e+20
2.916674972e+20
5.349388064e+19
2.158619132e+20
2.450045949e+20
1.922692371e+20
2.217260738e+20
1.678141821e+20
2.82269733e+20
2.848971801e+20
4.486780409e+19
6.779865006e+19
1.593736381e+20
6.881488497e+19
1.155575207e+20
1.630114445e+20
1.173294533e+20
7.094157237e+19
1.668192008e+20
1.921466208e+20
2.420829896e+20
1.22006498e+20
1.967792204e+20
1.735767813e+20
2.499921872e+19
1.512305424e+20
1.524862861e+20
1.537630572e+20
2.584356495e+20
1.563818358e+20
7.886248193e+19
5.303045403e+19
1.604816419e+20
1.618964349e+20
1.088909301e+20
1.373351669e+20
1.385787949e+20
2.517212732e+20
2.822697305e+20
1.794712164e+20
9.039820073e+19
1.82141302e+20
1.146914749e+20
1.848920332e+20
1.397240943e+20
9.386356124e+19
2.364719043e+20
1.668191983e+20
2.161649484e+20
4.841659867e+19
2.196116998e+20
2.213766247e+20
2.231701474e+20
7.499765615e+19
2.772559923e+20
1.779006656e+20
1.025087048e+20
1.033742598e+20
1.824454736e+20
1.577249612e+20
1.85606586e+20
2.407224608e+20
1.618964363e+20
1.570373155e+20
1.355973011e+20
9.107064967e+19
1.146914741e+20
6.933451245e+19
2.328734922e+20
1.173294533e+20
1.182359539e+20
1.906505138e+20
1.200916371e+20
2.420829896e+20
2.684142977e+20
9.838961099e+19
1.983734643e+20
7.499765675e+19
1.512305437e+20
2.541438081e+20
1.281358799e+20
1.809049547e+20
2.692068265e+20
2.711946022e+20
1.138383137e+20
1.605680649e+20
1.848920332e+20
1.630114433e+20
1.407953419e+20
3.310606685e+20
1.668191995e+20
1.681282919e+20
1.936663932e+20
1.464077987e+20
1.721818179e+20
1.487800982e+20
2.243390205e+20
2.259955002e+19
1.821413007e+20
1.605680649e+20
1.155575216e+20
2.09586143e+20
1.407953429e+20
2.128247171e+20
2.467729243e+20
1.129977517e+20
)
;

boundaryField
{
    flow
    {
        type            zeroGradient;
    }
    obstacle
    {
        type            calculated;
        value           nonuniform List<scalar> 
30
(
2.225073859e-308
2.225073859e-308
2.225073859e-308
2.225073859e-308
73.9111296
2.225073859e-308
2.225073859e-308
2.225073859e-308
2.225073859e-308
2.225073859e-308
2.225073859e-308
78.85586995
2.225073859e-308
2.225073859e-308
119.0873986
2.225073859e-308
2.225073859e-308
2.225073859e-308
2.225073859e-308
2.225073859e-308
2.225073859e-308
2.225073859e-308
215.6085276
2.225073859e-308
2.225073859e-308
2.225073859e-308
2.225073859e-308
2.225073859e-308
2.225073859e-308
288.1102794
)
;
    }
    frontAndBack
    {
        type            empty;
    }
    procBoundary1to0
    {
        type            processor;
        value           nonuniform List<scalar> 
21
(
1.781653177e+20
1.336239882e+20
1.113533235e+20
1.113533235e+20
6.681199417e+19
6.681199417e+19
4.454132941e+19
1.55894653e+20
1.781653177e+20
1.113533235e+20
1.336239882e+20
8.908265921e+19
6.681199412e+19
1.113533227e+20
1.336239882e+20
6.681199412e+19
6.681199412e+19
1.113533235e+20
1.558946541e+20
1.336239882e+20
1.781653177e+20
)
;
    }
    procBoundary1to3
    {
        type            processor;
        value           nonuniform List<scalar> 
36
(
1.709383081e+20
1.08890932e+20
1.922692371e+20
8.314727766e+19
8.390709107e+19
1.709383081e+20
3.104967035e+20
2.085091126e+20
2.1029995e+20
2.121218161e+20
1.337347016e+20
1.08890932e+20
8.094821746e+19
1.249960936e+20
2.016407216e+20
1.779006656e+20
2.818989382e+20
2.085091126e+20
7.753069486e+19
1.668191995e+20
1.200916371e+20
1.694580927e+20
2.684142977e+20
4.919480549e+19
1.249960936e+20
3.223568795e+20
1.138383137e+20
1.605680649e+20
1.155575207e+20
1.630114445e+20
1.173294533e+20
1.668191995e+20
1.655303355e+20
8.973560819e+19
1.138383137e+20
1.807964001e+20
)
;
    }
}


// ************************************************************************* //
