/*--------------------------------*- C++ -*----------------------------------*\
  =========                 |
  \\      /  F ield         | OpenFOAM: The Open Source CFD Toolbox
   \\    /   O peration     | Website:  https://openfoam.org
    \\  /    A nd           | Version:  7
     \\/     M anipulation  |
\*---------------------------------------------------------------------------*/
FoamFile
{
    version     2.0;
    format      ascii;
    class       volScalarField;
    location    "0.005";
    object      iDofMean;
}
// * * * * * * * * * * * * * * * * * * * * * * * * * * * * * * * * * * * * * //

dimensions      [0 -3 0 0 0 0 0];

internalField   nonuniform List<scalar> 
546
(
6.100765076e+20
6.034441487e+20
6.24799305e+20
6.133424807e+20
6.047910856e+20
6.079115917e+20
6.103947433e+20
6.073449866e+20
5.965454566e+20
5.88910175e+20
5.763415015e+20
5.835131625e+20
5.852804381e+20
5.719106976e+20
5.87441643e+20
5.95777762e+20
5.752799248e+20
5.676932058e+20
5.684137055e+20
5.636001333e+20
5.588721168e+20
5.572015833e+20
5.527094721e+20
5.536210498e+20
5.519354605e+20
5.359147865e+20
5.079966049e+20
4.875113859e+20
4.443941741e+20
3.699446853e+20
5.429273522e+20
5.439982919e+20
5.536275916e+20
5.598962535e+20
5.534280788e+20
5.436664533e+20
5.444931365e+20
5.421071169e+20
5.330493031e+20
5.428526298e+20
5.379665057e+20
5.294106006e+20
5.397260479e+20
5.275543906e+20
5.332933346e+20
5.306074804e+20
5.186363528e+20
5.198728947e+20
5.191868825e+20
5.247131841e+20
5.197878715e+20
5.170787425e+20
5.116261723e+20
5.097794952e+20
4.978602243e+20
4.88440766e+20
4.703142593e+20
4.398297834e+20
4.029118144e+20
3.467768467e+20
5.1353894e+20
5.215976178e+20
5.259512209e+20
5.218003333e+20
5.239747782e+20
5.272628442e+20
5.271940816e+20
5.088686257e+20
5.131739875e+20
5.063639872e+20
5.090521129e+20
5.064636183e+20
5.100123855e+20
5.043248579e+20
5.135039535e+20
5.013191654e+20
4.928458391e+20
4.931488754e+20
4.946665085e+20
4.930719261e+20
4.936475869e+20
4.829589481e+20
4.886452013e+20
4.701040755e+20
4.773233947e+20
4.7280653e+20
4.424432915e+20
4.223771081e+20
3.954711843e+20
3.465603251e+20
4.866990195e+20
4.910068664e+20
4.990580578e+20
5.0366073e+20
5.049216538e+20
5.072077791e+20
5.057462581e+20
5.06248517e+20
5.065679468e+20
5.005707666e+20
4.986134947e+20
4.993774804e+20
5.026134868e+20
4.940590316e+20
4.961344963e+20
4.831815823e+20
4.849063866e+20
4.836565694e+20
4.82726781e+20
4.787160737e+20
4.724072928e+20
4.788225731e+20
4.765555839e+20
4.692622136e+20
4.626448973e+20
4.514811251e+20
4.396495434e+20
4.219072291e+20
3.917903873e+20
3.488281054e+20
4.460218682e+20
4.635619727e+20
4.755527226e+20
4.878516564e+20
4.932642111e+20
4.971942193e+20
5.029021922e+20
5.028244038e+20
4.919641175e+20
4.963915772e+20
4.943237841e+20
4.925060752e+20
4.936600326e+20
4.895757913e+20
4.912546487e+20
4.826875626e+20
4.771092549e+20
4.812066121e+20
4.801837747e+20
4.694061414e+20
4.712821872e+20
4.714725514e+20
4.684031165e+20
4.554362584e+20
4.454292419e+20
4.469215968e+20
4.324877893e+20
4.138968996e+20
3.924339623e+20
3.551642206e+20
4.096340796e+20
4.329712222e+20
4.469292178e+20
4.578942439e+20
4.783804028e+20
4.816382701e+20
4.96810447e+20
4.944154628e+20
4.914207635e+20
4.968046924e+20
4.987974774e+20
4.916666697e+20
4.942798864e+20
4.861836043e+20
4.92704603e+20
4.902793358e+20
4.912701475e+20
4.76562967e+20
4.732576992e+20
4.743686591e+20
4.679384188e+20
4.6551193e+20
4.612991319e+20
4.579618428e+20
4.559372128e+20
4.40241615e+20
4.2667857e+20
4.179691897e+20
3.995810305e+20
3.752323745e+20
3.74753848e+20
3.953113312e+20
4.148996694e+20
4.333961443e+20
4.481597996e+20
4.606889708e+20
4.713828081e+20
4.814378845e+20
4.90505641e+20
4.869379639e+20
4.87400211e+20
4.807544092e+20
4.812235858e+20
4.814127232e+20
4.856748227e+20
4.870026736e+20
4.864210837e+20
4.853582139e+20
4.760591433e+20
4.714599601e+20
4.719551511e+20
4.740498347e+20
4.632891027e+20
4.537201593e+20
4.547611994e+20
4.485146894e+20
4.3777596e+20
4.268297785e+20
4.068861748e+20
3.844060707e+20
3.416414085e+20
3.625871829e+20
3.791362255e+20
3.987501442e+20
4.217757064e+20
4.354920587e+20
4.497284843e+20
4.61451279e+20
4.677419701e+20
4.75735816e+20
4.802636037e+20
4.837118459e+20
4.883863491e+20
4.886533547e+20
4.804549874e+20
4.819011649e+20
4.877222992e+20
4.885667339e+20
4.8782313e+20
4.782260753e+20
4.775070625e+20
4.784407482e+20
4.666057193e+20
4.609839088e+20
4.533564985e+20
4.475917892e+20
4.415896407e+20
4.262592064e+20
4.130735236e+20
4.00724974e+20
3.068598869e+20
3.277025172e+20
3.485273793e+20
3.666824076e+20
3.859898537e+20
4.063269829e+20
4.231181645e+20
4.351839795e+20
4.51336493e+20
4.63351966e+20
4.71964998e+20
4.792805707e+20
4.8431302e+20
4.866795395e+20
4.862848044e+20
4.844317517e+20
4.828630695e+20
4.897250863e+20
4.916996668e+20
4.898504583e+20
4.834164952e+20
4.861513843e+20
4.759029597e+20
4.634447346e+20
4.631131259e+20
4.524259911e+20
4.388624178e+20
4.35757493e+20
4.227045668e+20
4.053631037e+20
2.824876954e+20
3.0092657e+20
3.202044073e+20
3.317244461e+20
3.473381738e+20
3.682847691e+20
3.862485568e+20
4.113854475e+20
4.267425765e+20
4.33434736e+20
4.471563359e+20
4.588810833e+20
4.654123732e+20
4.757491608e+20
4.841648687e+20
4.841998688e+20
4.884034085e+20
4.897045846e+20
4.874199724e+20
4.921232117e+20
4.788004112e+20
4.757468052e+20
4.803750482e+20
4.783715859e+20
4.70256375e+20
4.663133233e+20
4.552701432e+20
4.465759139e+20
4.371906494e+20
4.204740463e+20
2.633111959e+20
2.724240167e+20
2.899325218e+20
3.083365599e+20
3.209910591e+20
3.417837665e+20
3.5981658e+20
3.757633205e+20
3.936647133e+20
4.104828229e+20
4.217376179e+20
4.413902316e+20
4.553667976e+20
4.691234871e+20
4.812649632e+20
4.82022149e+20
4.841439504e+20
4.764912086e+20
4.807730075e+20
4.843145414e+20
4.845941749e+20
4.882832086e+20
4.858528215e+20
4.787277581e+20
4.758642538e+20
4.743446839e+20
4.592057851e+20
4.491043142e+20
4.413682454e+20
4.325764863e+20
2.423938264e+20
2.558088293e+20
2.677021786e+20
2.815996846e+20
2.998116764e+20
3.151150924e+20
3.27959283e+20
3.450692616e+20
3.629413803e+20
3.855614094e+20
4.036685498e+20
4.187067866e+20
4.326683143e+20
4.446442016e+20
4.590856525e+20
4.681996774e+20
4.737952223e+20
4.782646131e+20
4.795842036e+20
4.890268473e+20
4.916602491e+20
4.864483466e+20
4.826110841e+20
4.828615137e+20
4.776609625e+20
4.75882842e+20
4.694827886e+20
4.557273806e+20
4.533251872e+20
4.492372654e+20
2.354393152e+20
2.425383708e+20
2.5025304e+20
2.601477911e+20
2.697482318e+20
2.831182769e+20
2.993966058e+20
3.149427458e+20
3.36412364e+20
3.567201988e+20
3.774267474e+20
3.928999656e+20
4.096254642e+20
4.269096139e+20
4.367763497e+20
4.519171853e+20
4.691698012e+20
4.777520696e+20
4.842463827e+20
4.85701131e+20
4.88705543e+20
4.976695989e+20
4.911273182e+20
4.855058222e+20
4.816354731e+20
4.786515106e+20
4.80458225e+20
4.779795412e+20
4.662870132e+20
4.518925071e+20
2.215751637e+20
2.281560188e+20
2.364285153e+20
2.469169808e+20
2.538290278e+20
2.66267549e+20
2.800419349e+20
2.961006619e+20
3.107984675e+20
3.31587421e+20
3.483186888e+20
3.661854257e+20
3.822141188e+20
4.015674006e+20
4.168469726e+20
4.327814843e+20
4.44507686e+20
4.584804293e+20
4.637782792e+20
4.722731401e+20
4.821967514e+20
4.796286344e+20
4.848471366e+20
4.871139934e+20
4.832579479e+20
4.837823567e+20
4.8305242e+20
4.822308295e+20
4.778826537e+20
4.732711956e+20
2.208483069e+20
2.241152209e+20
2.283596574e+20
2.344844267e+20
2.433548959e+20
2.529471872e+20
2.616822243e+20
2.734561143e+20
2.839358101e+20
2.97884904e+20
3.137492403e+20
3.304228833e+20
3.454164073e+20
3.632614879e+20
3.845879838e+20
4.003677381e+20
4.160435795e+20
4.282916195e+20
4.46308033e+20
4.629215103e+20
4.665399242e+20
4.837968322e+20
4.88602407e+20
4.879450618e+20
4.883104914e+20
4.858918291e+20
4.843051766e+20
4.781697306e+20
4.746196199e+20
4.642798406e+20
2.152846976e+20
2.161963353e+20
2.199811559e+20
2.241897199e+20
2.29617416e+20
2.359753671e+20
2.43970172e+20
2.532519545e+20
2.662434445e+20
2.741836206e+20
2.88059391e+20
3.05767805e+20
3.228753449e+20
3.379093591e+20
3.54788912e+20
3.756667495e+20
3.92967325e+20
4.088457182e+20
4.202990655e+20
4.369308492e+20
4.480335323e+20
4.580452437e+20
4.743944323e+20
4.868981315e+20
4.875809179e+20
4.869905019e+20
4.87398251e+20
4.855871174e+20
4.817328128e+20
2.082404524e+20
2.11314834e+20
2.150815565e+20
2.214554751e+20
2.257531725e+20
2.299206546e+20
2.348278575e+20
2.411729658e+20
2.493899351e+20
2.617421269e+20
2.720722346e+20
2.832893322e+20
2.997833057e+20
3.132912122e+20
3.295896996e+20
3.439990711e+20
3.583427694e+20
3.772422845e+20
3.988385692e+20
4.126499593e+20
4.326290536e+20
4.439603475e+20
4.553506069e+20
4.737197658e+20
2.061137199e+20
2.088650428e+20
2.109833741e+20
2.129499538e+20
2.134486077e+20
2.166468673e+20
2.234797563e+20
2.30957383e+20
2.349481606e+20
2.410575413e+20
2.480866477e+20
2.588099461e+20
2.669802094e+20
2.809563375e+20
2.987206667e+20
3.151442889e+20
3.355714842e+20
3.518201228e+20
3.729123049e+20
2.062034555e+20
2.080424192e+20
2.088341098e+20
2.109130348e+20
2.142991111e+20
2.180906813e+20
2.184017343e+20
2.212052798e+20
2.242717319e+20
2.308161265e+20
2.383549134e+20
2.473022931e+20
2.575839995e+20
2.693415712e+20
2.041754293e+20
2.058005423e+20
2.05428066e+20
2.061510447e+20
2.089095098e+20
2.096699774e+20
2.130515129e+20
2.192851296e+20
2.022102209e+20
2.017868651e+20
)
;

boundaryField
{
    flow
    {
        type            calculated;
        value           nonuniform List<scalar> 
15
(
3.699446853e+20
3.467768467e+20
3.465603251e+20
3.488281054e+20
3.551642206e+20
3.752323745e+20
3.844060707e+20
4.00724974e+20
4.053631037e+20
4.204740463e+20
4.325764863e+20
4.492372654e+20
4.518925071e+20
4.732711956e+20
4.642798406e+20
)
;
    }
    obstacle
    {
        type            calculated;
        value           nonuniform List<scalar> 
30
(
276.1316668
258.1978745
274.6486405
275.7550908
264.5180893
274.0949708
263.944263
264.278214
262.9296666
253.2844025
247.8669497
252.6520413
257.3446575
262.6091159
250.7074553
260.0767034
244.7304707
251.099535
247.3669626
246.37462
242.0988958
237.8936846
240.183723
244.2229951
233.7209837
226.1512262
221.7286994
212.0141551
191.5381402
160.8060618
)
;
    }
    frontAndBack
    {
        type            empty;
    }
    procBoundary1to0
    {
        type            processor;
        value           nonuniform List<scalar> 
21
(
6.286028738e+20
5.499785191e+20
5.093122853e+20
4.703920717e+20
4.284697727e+20
3.951172253e+20
3.532127423e+20
3.247864658e+20
2.871045011e+20
2.69341419e+20
2.520593832e+20
2.326393645e+20
2.280694231e+20
2.185286688e+20
2.137983812e+20
2.124176e+20
2.067786677e+20
2.049613814e+20
2.052642639e+20
2.049524732e+20
1.994738897e+20
)
;
    }
    procBoundary1to3
    {
        type            processor;
        value           nonuniform List<scalar> 
36
(
4.818409027e+20
4.829203945e+20
4.889351765e+20
4.898150695e+20
4.895251569e+20
4.818409027e+20
4.905509192e+20
3.91110968e+20
4.052690337e+20
4.202557421e+20
4.357183566e+20
4.829203945e+20
4.490359519e+20
2.794312671e+20
2.942946332e+20
3.129323537e+20
3.303343012e+20
3.91110968e+20
3.432542297e+20
2.221936413e+20
2.27405524e+20
2.312667216e+20
2.360581741e+20
2.417727911e+20
2.794312671e+20
2.496133302e+20
2.042623631e+20
2.060409409e+20
2.0620084e+20
2.091390259e+20
2.111836296e+20
2.221936413e+20
2.114815567e+20
2.011872336e+20
2.042623631e+20
2.026908442e+20
)
;
    }
}


// ************************************************************************* //
