/*--------------------------------*- C++ -*----------------------------------*\
  =========                 |
  \\      /  F ield         | OpenFOAM: The Open Source CFD Toolbox
   \\    /   O peration     | Website:  https://openfoam.org
    \\  /    A nd           | Version:  7
     \\/     M anipulation  |
\*---------------------------------------------------------------------------*/
FoamFile
{
    version     2.0;
    format      ascii;
    class       volScalarField;
    location    "0.005";
    object      internalT;
}
// * * * * * * * * * * * * * * * * * * * * * * * * * * * * * * * * * * * * * //

dimensions      [1 2 -2 0 0 0 0];

internalField   nonuniform List<scalar> 
546
(
497.5486386
514.1117904
518.5781435
537.233665
560.6342146
532.0536395
497.4607029
524.7233921
534.9552613
539.7802844
530.6397305
541.5882123
546.6749146
542.9360229
558.3279559
545.029638
543.5640242
544.8009227
501.050808
526.4212701
523.1824939
514.2401837
520.6021265
520.9232354
522.6236756
495.6187482
494.557629
481.1350243
469.8013308
451.7937638
488.705285
485.0589388
526.6179393
504.7730169
521.584326
531.6455075
515.1647077
519.5564303
516.1092646
518.8603764
520.255145
530.922532
547.074253
540.6593791
525.6574943
509.9841865
520.3458708
542.1181007
516.7175223
502.65329
520.4845978
503.2957596
506.8235848
504.3001685
499.7003137
498.3162129
478.9144091
459.250995
458.9347064
405.0894396
485.2814536
481.1022556
500.6368985
497.6289732
522.6889733
524.5960618
506.3083717
510.9172016
521.0826331
504.6103877
494.4147813
522.3926575
527.2816557
509.6704171
510.2073884
520.1599564
515.2339816
506.1856563
505.693456
496.2158479
510.4351488
525.8078268
499.18834
482.1306002
476.2722376
477.0936399
450.6341736
450.7014066
439.4559658
392.8227816
480.1505368
472.7855989
499.2291902
521.3752047
512.7266693
511.8774729
510.2351738
497.2581954
528.372393
494.165854
490.6988122
500.3224251
509.7109323
493.8854143
513.851223
527.602119
498.9663529
510.0123358
504.2418578
493.0034812
476.5169997
499.3768572
479.3893304
466.4480165
454.8514894
469.2886715
457.6510999
447.0403824
424.3378465
388.2348937
472.9107801
488.7196422
498.345787
500.3553036
507.6887574
512.9953773
492.4081029
498.3874231
507.4351958
492.5681435
508.7983722
498.9847973
484.3076525
518.2597669
490.6515153
497.1508928
490.0704473
519.7115084
511.2726745
503.637408
478.1097454
456.7409705
449.3156317
455.4993209
460.3211149
462.8590111
430.7756375
425.2302686
401.8086816
381.5388774
449.7878542
458.2062085
439.6267506
464.056891
489.1184993
491.0475086
472.0622874
501.9875579
514.2682367
494.3395995
469.8128328
455.6820779
491.2618518
485.7381291
482.7136552
493.2422845
501.1065613
491.564741
486.1739223
490.2059789
468.5261128
430.956218
435.9333998
458.5808417
442.1274095
435.3243117
423.6519273
425.8534136
415.8471364
380.8792188
439.7461932
458.8063369
463.7894988
466.9052785
491.5625071
487.8632225
487.0129595
486.260801
488.9515484
489.5590087
476.7932558
483.7904606
471.0422944
480.4930599
465.0261554
484.3607293
462.8605036
466.945146
505.0707559
454.4793618
466.7313698
447.7883668
448.153905
428.6716845
431.8771552
422.3822086
416.4063932
396.8573568
403.0762028
366.5782905
442.4202325
437.1151899
444.3535781
454.0439817
465.6713906
446.8023398
453.0925511
464.1102675
466.1807779
516.0832883
492.0197055
468.1766147
473.594216
475.5802634
489.3903011
450.2040763
462.3379362
458.7290962
483.247863
428.1573447
446.8646351
457.8457244
442.4189458
431.2257021
433.8043444
420.4361298
414.2670486
398.0658852
385.2167725
369.9116328
443.9364176
430.0155713
447.8661983
421.6287494
452.2983962
437.1299127
487.4364811
474.410014
476.4493766
465.3433772
475.0694192
465.1307564
473.1410486
451.8249214
475.3809638
439.5004275
446.6842245
470.5321999
457.9080567
453.8451025
446.08227
437.5820785
440.5824178
437.654423
437.5542993
426.1981173
386.9084073
394.9285105
372.509565
359.2297104
441.072087
408.4067099
429.7242526
441.5606258
437.2424401
434.7127777
460.2975307
465.2496965
454.511592
482.0772424
464.5409627
453.4672332
457.8272023
466.5184457
453.8914594
444.6447489
449.7118532
447.9564213
446.1004644
431.1253157
428.6220045
436.0690841
438.9983981
439.4313831
427.0663365
414.7671129
391.37833
394.1868231
385.4726619
357.1763365
427.650771
431.8362167
451.4273198
447.4432098
445.7294047
476.2741108
481.028221
470.2034569
458.1598296
478.4285389
433.6765179
447.2006114
450.2350515
437.8409154
437.1119768
449.201646
434.5059797
440.3864011
425.3612447
438.8671049
413.7983281
424.171724
431.3467212
432.5306891
428.8338747
429.3858687
393.5283399
380.5730371
368.0454652
364.2136571
408.2373165
412.1295272
429.1040952
436.9515492
438.2995154
459.0690237
471.9016883
451.7635246
461.2649914
453.359291
439.3656238
444.1617029
440.7286963
434.5046402
441.5049886
443.4925012
432.7338992
433.4910068
417.5920418
420.7648288
412.1219312
408.3378107
402.7404208
416.8038183
406.9242286
403.5166082
406.3707604
370.8654596
362.1076776
374.2499734
412.3918528
420.8324133
431.9607142
427.323355
413.2715298
450.5225499
444.502482
432.603405
433.3422159
426.9105902
425.4322354
422.5475064
438.3672321
450.7185791
455.1649486
429.1128104
421.8356191
420.2169041
414.0483833
410.9307644
424.2838112
408.3729226
408.0612332
407.0573448
394.5157675
382.5049623
380.256083
380.5443152
355.3039585
352.2554696
421.4032175
444.7494386
422.9765219
406.6066226
441.5514841
446.6163476
435.4745622
427.6552179
425.5672922
426.0259356
413.7271992
429.6477966
419.7008104
439.557395
416.0362714
425.8845223
442.9904748
414.1541428
404.7219092
407.1718394
416.6074129
403.4443953
396.4776192
396.3183945
391.9107528
397.5714053
364.1322416
374.3336713
342.9299168
332.6339063
411.2126953
439.2417312
430.25905
421.5636991
417.2747949
429.2835755
420.6521519
422.9506605
410.6446799
420.2563558
418.2421015
427.3769911
418.3193831
421.07637
402.8964387
420.6295717
433.3352486
404.1029462
389.2360632
399.9924878
407.7860606
407.9214303
392.6491118
369.1208741
395.4740243
385.8008345
356.9951065
349.2100307
344.0669397
341.6429772
405.3594532
407.7368821
426.988728
395.002509
396.9859183
415.1348357
409.2806954
426.8272399
401.8738627
421.3211413
420.8707668
418.3223305
420.6507835
427.772145
419.0384544
412.4675803
412.2085845
418.4349176
391.718771
399.4297839
396.6432762
401.0787186
388.1007561
388.1130192
364.5072572
371.9619839
359.1951193
348.3259958
332.7773039
402.7244505
386.4620562
414.8910187
414.8032168
420.8626645
425.7811269
418.2557514
439.3496493
429.1727938
425.8689275
429.2127901
425.7617469
420.4246412
410.6029147
412.4837034
407.3482151
386.7306121
395.9725945
399.4585481
384.7111715
384.4091973
381.8716324
377.872281
392.005489
391.2064589
395.7613883
405.3503386
413.2027435
440.5464148
413.4286828
422.6147095
414.5708859
401.1722287
416.7633007
423.9395824
413.2159238
402.6609318
413.9111508
423.389078
398.2709701
396.8552383
402.4601283
390.0450351
399.9182633
385.6058626
397.2373329
403.4246965
429.5331607
410.7490832
403.4892062
421.0243379
420.8433726
391.5668437
408.6395737
413.5043999
402.1014265
398.5336169
374.6432715
409.5345822
394.8818201
404.6332281
420.1830169
424.7437399
395.1575579
397.054959
397.143175
401.3550148
)
;

boundaryField
{
    flow
    {
        type            calculated;
        value           nonuniform List<scalar> 
15
(
451.7937638
405.0894396
392.8227816
388.2348937
381.5388774
380.8792188
366.5782905
369.9116328
359.2297104
357.1763365
364.2136571
374.2499734
352.2554696
332.6339063
341.6429772
)
;
    }
    obstacle
    {
        type            calculated;
        value           nonuniform List<scalar> 
30
(
523.883842
500.778911
501.0580108
524.0138274
562.6238996
499.4270019
595.2286997
548.000276
537.062805
488.1278743
520.8532636
528.7654961
545.0567392
504.1155441
537.6633903
566.9878753
560.4055111
525.8218359
520.982158
527.7143733
509.0083785
556.2351898
537.1929066
532.1326416
512.0391501
514.3720848
509.090002
508.557086
481.33248
452.2194383
)
;
    }
    frontAndBack
    {
        type            empty;
    }
    procBoundary1to0
    {
        type            processor;
        value           nonuniform List<scalar> 
21
(
495.704128
502.2943298
481.5383833
482.703859
456.6810818
432.7753929
442.3267908
449.9206087
446.9814842
442.0536459
432.3315735
427.0690198
415.8012957
422.7886922
421.5154359
428.7146202
411.0381571
399.9656013
387.9379458
381.582109
378.3806337
)
;
    }
    procBoundary1to3
    {
        type            processor;
        value           nonuniform List<scalar> 
36
(
334.5364671
379.0189588
377.2708917
361.2165587
352.9988991
334.5364671
346.4478459
384.4338942
391.1663579
379.4667838
376.1893054
379.0189588
397.0446985
402.8284225
401.6461579
409.4487053
400.274141
384.4338942
382.1448324
396.2442769
405.1761118
392.2452592
397.6854629
402.8128814
402.8284225
393.1864406
403.6897764
403.7971638
402.5111643
412.3346852
406.8787491
396.2442769
395.7084969
377.9492181
403.6897764
373.418139
)
;
    }
}


// ************************************************************************* //
