/*--------------------------------*- C++ -*----------------------------------*\
  =========                 |
  \\      /  F ield         | OpenFOAM: The Open Source CFD Toolbox
   \\    /   O peration     | Website:  https://openfoam.org
    \\  /    A nd           | Version:  7
     \\/     M anipulation  |
\*---------------------------------------------------------------------------*/
FoamFile
{
    version     2.0;
    format      ascii;
    class       volScalarField;
    location    "0.005";
    object      linearKE;
}
// * * * * * * * * * * * * * * * * * * * * * * * * * * * * * * * * * * * * * //

dimensions      [1 -1 -2 0 0 0 0];

internalField   nonuniform List<scalar> 
546
(
8.598266297
5.133040595
9.151485258
4.834582455
8.104695601
10.20666549
7.702629751
5.196576991
6.807022565
4.997890836
3.283361719
3.854186159
6.491025095
7.616222609
4.932212769
7.763976348
6.368569935
3.467366109
6.1290397
2.553516862
5.196025023
4.448365632
5.303262618
2.041782764
2.423024493
5.772464268
4.369390638
3.740487069
4.051445635
2.182438578
8.934198516
11.07771242
11.11639007
9.410064967
7.529337038
7.078333618
7.53439628
4.865058524
5.776819312
5.7090321
9.804432643
10.45422213
8.719037962
7.034362671
5.257059343
7.397954101
3.983845131
8.34016247
5.375621537
2.306803554
4.558499457
8.03943838
5.184354848
2.81760206
5.353886517
3.442962811
3.665488367
1.760942819
3.734281873
1.852216159
7.777671175
14.05743744
11.26795532
8.103144591
9.249492976
8.338662373
8.761790836
11.54320532
3.833152655
4.31958196
8.54770541
8.484723369
8.71576545
6.055749917
6.312169075
8.09681665
6.009582478
6.931274839
6.141114339
7.318787627
5.971519326
3.203251942
4.263751282
6.072272043
6.452288358
6.781129481
6.143778348
5.97023465
4.209158832
6.510680296
7.97641671
17.52334032
15.25613028
6.983097418
11.27944565
8.676519813
7.738837497
6.839544087
12.84665233
6.633330582
12.04961978
5.729706892
5.037704907
4.511158034
8.047296341
7.853514572
8.446945967
9.889818308
8.791515073
5.4278364
11.85528361
8.056302861
5.753264703
4.121769445
9.086919871
7.734443734
7.494266547
5.185872098
4.03303585
4.648614943
9.86072972
7.830636808
10.12189675
17.53840749
15.99276628
8.939674173
7.829723783
14.05682626
12.08958258
7.922584848
14.49588848
10.36691956
11.02131858
8.95429728
6.928695156
16.86025299
9.820188199
9.239122379
9.744413637
11.01294115
4.599324001
4.563815746
9.175424486
5.20417418
5.558539612
5.793855701
8.025852327
7.162916893
4.896362448
7.016794496
11.08225725
12.88107986
11.25016757
13.58098259
13.6757358
6.963260014
13.4276057
14.11453755
11.90085692
6.673735495
5.337314927
17.36443075
13.68610963
9.051473446
8.216623878
7.140321628
5.819406664
13.57762745
11.60610858
9.142902826
7.507112379
6.577644387
11.77319064
11.21284232
9.7494393
14.02879191
6.959132097
6.796113705
4.405746889
7.210777141
13.01078078
8.196756999
17.01193361
9.929154811
13.6298381
11.27203131
9.757425804
19.13014718
10.7478133
10.83522738
13.20663287
7.914699744
18.55623311
12.38635009
8.18523554
13.60661379
8.370537162
17.22766315
7.348622245
15.02355108
8.959997752
12.93555068
7.908221848
9.352492131
12.81866135
9.737443606
5.168186431
8.821140522
3.946665512
10.18516312
9.165798857
11.61110343
16.15395725
14.33814788
16.83753143
13.90767252
15.88777034
18.39509163
12.01349832
17.0710795
14.20590869
14.60589736
8.970792791
14.22840715
11.78431429
13.55834807
9.519469019
14.9595728
15.14850383
10.86882925
14.57585534
13.02650872
5.975990397
11.98559378
9.699567183
8.575589688
11.83787404
10.26687053
5.128196262
13.40132165
15.93037953
11.16431987
8.671120937
7.475454179
9.561453265
15.23216441
13.27398875
10.81391586
12.24988124
13.28377981
17.3093486
7.55466532
12.85964877
13.35552893
13.96786156
10.64576357
11.45946798
11.32094314
18.41578033
15.98356703
10.94744162
12.50209203
10.44766421
9.382663756
11.80404471
12.68328354
9.594899124
11.65321379
4.65208913
9.545455561
9.520023111
12.82666865
7.67163618
11.49913692
7.018404711
10.8662982
13.38523237
16.18850863
14.01517594
10.18839665
12.4273407
9.603856615
13.81689395
19.27993696
10.49493888
10.33685853
15.20955727
14.13806531
12.2005195
18.21678125
12.32146144
7.487758026
16.59186961
9.054259643
12.24184979
13.30115019
12.47778976
14.57386287
6.038519532
14.18535689
9.566599482
7.593023653
10.13736866
8.393149092
7.148780833
12.076641
15.19591705
11.25166079
12.52419479
13.88102436
11.3296095
13.55893051
14.14477596
14.37852944
18.2403706
13.59972973
19.51987884
10.62384583
14.45389815
14.62285164
14.81403315
12.0454477
7.04775451
12.92829785
10.06828305
10.66653633
15.01611906
9.360466476
9.548012777
7.089928191
5.094180325
11.84925419
10.43256988
12.80012665
10.1345086
10.68638397
16.322473
14.24494137
15.10586464
8.652867967
8.225573586
11.15479456
6.642481816
15.23609093
12.25926571
17.68922466
10.45935003
18.48286335
14.65733634
13.87538483
14.50492544
13.2112494
13.30528202
6.658825756
14.53477773
15.23032248
13.73488961
13.6516562
14.65535714
9.745291446
0.4495632369
12.94169154
6.388027628
8.791825872
10.32529004
13.93780011
10.42068704
10.43894071
6.664976577
5.351879112
11.90943269
15.76288035
7.900042982
15.03873262
12.79558128
10.98207639
13.18334438
19.07082313
13.18769107
16.40013571
14.63694983
15.02659639
7.966317429
9.846838726
12.16621845
8.66608739
16.30251269
10.23912757
10.69080703
9.516224471
7.254932237
12.7125432
5.789427716
9.076502456
12.14615155
10.63166797
12.56919529
4.98517626
9.135219275
14.09263134
13.7092091
9.312025517
13.40753002
12.03493945
5.940960712
17.88206706
9.142417215
14.32435181
13.42018327
12.62466129
8.952139009
9.672748305
18.24661171
17.81449347
12.78035993
15.39921261
16.68431694
22.06806132
11.09877335
9.76694573
11.75706147
8.354857277
7.040601623
6.097421887
14.23615303
12.193658
6.870700456
12.84051692
10.28521331
17.83146423
10.72605502
14.40455983
14.3802601
17.76915892
15.94610031
10.74013802
14.0038881
11.68217792
17.19984433
13.19687464
11.94103532
13.18534534
10.38695805
13.78434518
17.33972179
22.27051495
9.325733407
9.707243973
13.62759936
12.59929961
6.370539044
9.799461578
9.761917905
7.482008135
8.355189198
14.97949668
4.264251822
4.088773555
11.55090373
10.07740541
13.36058912
10.77408679
12.93647628
13.06070287
11.59330869
11.56902215
12.56105406
15.11604448
14.1109335
20.31777023
12.87053873
12.39251354
14.84386497
22.28485619
10.12672496
11.61511498
15.77161527
13.01821227
13.29077326
7.694264894
2.459699466
9.53154145
7.390892662
7.512111995
10.89516188
12.98143974
8.396028498
6.14948976
9.501191578
10.00286713
8.023359475
15.98113804
8.541368273
8.025362515
18.79449669
7.683832413
13.92345012
12.41760161
12.04068381
10.30606523
16.55258483
18.52906071
12.42067199
12.34062918
6.261051323
4.674774362
3.69175737
13.66341105
3.451423368
15.91171259
4.808155956
9.323909007
18.27173344
9.659992717
10.97234449
11.19529027
8.970397428
13.02567027
4.296049658
3.848351072
12.90940172
14.72001933
11.65019251
9.541277018
6.216516898
5.035436149
9.217852677
10.4333428
8.148419145
9.615024034
9.022030827
11.19696487
6.319136235
13.21043913
13.20946231
5.44408548
13.03481566
4.923683397
5.469917992
8.055679392
5.156443004
6.254273482
9.960574139
9.427760465
5.969452985
7.856147535
)
;

boundaryField
{
    flow
    {
        type            zeroGradient;
    }
    obstacle
    {
        type            calculated;
        value           nonuniform List<scalar> 
30
(
0
3.559522425e-18
7.444079077e-18
9.424116535e-18
3.756677778e-18
0
0
8.343195082e-19
6.327333842e-18
4.41576943e-18
0
1.907539207e-18
0
3.176897897e-18
9.203156925e-19
1.127189608e-18
4.173443583e-18
6.924794974e-19
6.477750955e-18
0
1.309811216e-18
3.181656692e-18
1.029221171e-18
0
9.751532435e-19
3.062947804e-18
0
3.346750106e-18
5.367529831e-19
1.204326962e-18
)
;
    }
    frontAndBack
    {
        type            empty;
    }
    procBoundary1to0
    {
        type            processor;
        value           nonuniform List<scalar> 
21
(
6.932439154
9.763684747
9.467626642
14.37634352
8.226397082
10.30165393
8.058726704
9.328182115
4.699100244
9.581932725
4.664039164
8.597956928
9.545837307
3.056597176
9.195126874
6.066624212
6.72976539
12.88094913
9.020248736
10.13893519
12.68579606
)
;
    }
    procBoundary1to3
    {
        type            processor;
        value           nonuniform List<scalar> 
36
(
18.70750631
13.46831796
15.75802125
21.31148043
11.77399804
18.70750631
13.58556438
16.91719223
10.8272498
12.82758477
12.45404582
13.46831796
13.91887011
11.75909559
6.712489739
14.63550134
13.29608406
16.91719223
13.73561665
9.535525973
4.822368545
6.791015492
11.8594304
18.81046057
11.75909559
9.999531763
12.92752417
5.816525988
11.21713337
4.796745215
8.620364677
9.535525973
10.16447163
6.550392099
12.92752417
8.809356117
)
;
    }
}


// ************************************************************************* //
