/*--------------------------------*- C++ -*----------------------------------*\
  =========                 |
  \\      /  F ield         | OpenFOAM: The Open Source CFD Toolbox
   \\    /   O peration     | Website:  https://openfoam.org
    \\  /    A nd           | Version:  7
     \\/     M anipulation  |
\*---------------------------------------------------------------------------*/
FoamFile
{
    version     2.0;
    format      ascii;
    class       volVectorField;
    location    "0.005";
    object      momentumMean;
}
// * * * * * * * * * * * * * * * * * * * * * * * * * * * * * * * * * * * * * //

dimensions      [1 -2 -1 0 0 0 0];

internalField   nonuniform List<vector> 
546
(
(0.0002032545563 5.829297468e-05 7.009158087e-05)
(0.0001828782672 6.372206726e-05 1.268229188e-05)
(0.0001957926508 4.353021548e-05 -4.840048534e-05)
(0.0001833958479 6.11359918e-05 2.277745735e-05)
(0.0001989243674 3.312906513e-05 -5.443452691e-07)
(0.0001992571901 7.478940039e-05 1.953983837e-05)
(0.0001819828516 5.717975288e-05 1.040484172e-05)
(0.0001737911957 5.811208343e-05 2.82009075e-05)
(0.0001627326549 3.796268369e-05 2.473782928e-05)
(0.0001927637945 5.011259914e-05 1.305257409e-05)
(0.000225558164 3.847285341e-05 1.889094904e-05)
(0.000222772237 7.345885988e-05 8.738880269e-05)
(0.0001894213508 4.001312899e-05 6.078584528e-05)
(0.0002556734062 5.944269796e-05 1.988652513e-05)
(0.0002461127454 7.060760223e-05 1.95323593e-05)
(0.0002811383456 7.092006778e-05 1.328152632e-05)
(0.000258552756 7.884998049e-05 1.569280722e-05)
(0.0002534871619 6.67296334e-05 -5.535618647e-05)
(0.0002140223553 7.697317487e-05 -4.711951588e-05)
(0.0002007549398 4.531847352e-05 1.355269761e-05)
(0.0002512549393 7.472943458e-05 1.478805257e-05)
(0.0002187535607 5.510514892e-05 4.013522609e-05)
(0.0001761255082 5.926096219e-05 4.60399537e-05)
(0.0002164512998 5.58980607e-05 -1.539360765e-05)
(0.0002505148528 5.185473115e-05 -6.83300748e-06)
(0.0002479136739 7.182668318e-05 -3.923381272e-05)
(0.0002556477229 6.536188978e-05 3.263134922e-05)
(0.000277951198 7.015124418e-05 -6.844248842e-06)
(0.0002771420933 7.086615204e-05 6.925703105e-05)
(0.0002888572917 8.646757936e-05 -6.589865052e-07)
(0.0002281504977 8.24528692e-05 4.104817873e-06)
(0.0002502516285 4.506100157e-05 -6.974585002e-05)
(0.0002355274744 8.47437542e-05 -3.302673353e-05)
(0.0002641490658 3.945038339e-05 -1.702265356e-05)
(0.0002498718871 7.909651686e-05 4.436556075e-05)
(0.0002399637763 7.116511941e-05 2.250302865e-05)
(0.0002814011962 9.221604532e-05 1.527001982e-06)
(0.0002771553355 7.392418086e-05 1.276819478e-05)
(0.0003224495517 8.053915785e-05 3.456640987e-06)
(0.0003299665629 5.513974822e-05 5.530182467e-05)
(0.0002824426849 6.95309852e-05 6.069183026e-05)
(0.0003044952317 9.771883039e-05 4.491059468e-05)
(0.0003089856978 9.085893431e-05 2.487682937e-05)
(0.0002878121075 5.163361157e-05 -4.786590025e-05)
(0.0003199276059 6.555534967e-05 -2.719362866e-05)
(0.0003102716955 7.838725027e-05 6.226567608e-05)
(0.0003102697278 9.648068072e-05 4.810110168e-05)
(0.0003013488608 0.0001186787565 6.940766676e-06)
(0.0003462401442 8.898867702e-05 3.365910812e-05)
(0.0003589320109 0.0001066803638 1.949861206e-05)
(0.0002726905632 7.591018324e-05 1.60257397e-05)
(0.0003210951044 0.0001021679765 9.076913181e-06)
(0.0003393672856 9.584604459e-05 4.325987926e-05)
(0.0003482241383 5.372989843e-05 2.313365307e-05)
(0.0003295690463 8.192927433e-05 -2.554929557e-06)
(0.0003196539602 0.0001074654975 6.566950844e-05)
(0.0003109525692 3.79384318e-05 1.996186655e-05)
(0.0003147470823 0.0001019603758 4.093834494e-05)
(0.0002941230378 9.451752617e-05 9.398424744e-05)
(0.0003375273211 7.213149657e-05 -5.830072083e-06)
(0.0002701539948 6.849710996e-05 -2.116969659e-05)
(0.0002499526816 4.940067523e-05 -2.548250702e-05)
(0.0002933450943 9.311188917e-05 -1.464509471e-05)
(0.0002765833655 6.67441924e-05 2.485557938e-05)
(0.0003023122861 8.86924492e-05 3.191318725e-05)
(0.0003164108845 5.909741422e-05 8.813298189e-06)
(0.0003514162234 9.322517039e-05 3.104727629e-05)
(0.0003803679825 7.278056421e-05 2.187329627e-05)
(0.0003694972396 7.668780255e-05 3.850189645e-06)
(0.0003538523113 0.0001218318684 -8.59604878e-06)
(0.0003377864429 7.267381626e-05 -2.155723087e-05)
(0.0003456419095 0.0001057671004 -2.548881346e-05)
(0.000344651099 9.730594586e-05 -6.251739898e-06)
(0.0003335504993 5.645439725e-05 2.918722937e-06)
(0.0003286690294 8.302274139e-05 1.852317439e-05)
(0.0003437759401 8.264826247e-05 5.036117033e-05)
(0.0003653280191 0.0001145213063 1.375099396e-05)
(0.000361088256 0.0001029145716 -2.202276567e-06)
(0.0003633836386 0.0001087482123 6.662886948e-05)
(0.0003587127117 0.0001351368546 6.363699266e-05)
(0.0003915444259 8.933823158e-05 2.970664168e-05)
(0.0004047840699 0.0001090765799 1.59207699e-05)
(0.0004085645787 0.0001176428886 4.134295445e-05)
(0.0003708671979 8.301910753e-05 2.502725772e-05)
(0.0003538733175 8.11925527e-05 2.541263592e-05)
(0.000343821262 0.0001099344012 1.085431727e-05)
(0.0003502842224 8.276387561e-05 -3.03107223e-05)
(0.0003438531823 0.0001077680078 1.732738108e-05)
(0.0003437208453 9.394624171e-05 3.931072323e-05)
(0.000349617669 7.704056721e-05 -2.866781378e-05)
(0.0003129819584 8.95353581e-05 -5.138277203e-05)
(0.0003455744022 8.255827251e-05 1.072349062e-05)
(0.0003352989697 8.826080543e-05 6.454539183e-06)
(0.00034004973 6.887104883e-05 1.360345104e-05)
(0.0003499204662 6.62452345e-05 -3.828938887e-06)
(0.0003762341214 8.450491e-05 -2.499913864e-05)
(0.0003629342869 9.543887575e-05 -3.050309885e-05)
(0.000350750563 6.758822033e-05 4.345608848e-05)
(0.0003594547079 8.959733928e-05 2.122826221e-05)
(0.0003537316695 0.0001100750592 -3.353511262e-05)
(0.0003612061568 0.0001027473794 -9.815381798e-06)
(0.000392453402 8.738037189e-05 2.991519731e-06)
(0.0003799004919 0.000126793638 3.190921218e-05)
(0.0003632375809 7.432614612e-05 -1.861119603e-05)
(0.0003963286159 8.609157116e-05 -1.518082334e-05)
(0.0004227360442 9.156287987e-05 3.778497597e-05)
(0.000400886445 0.0001392829625 8.214652443e-06)
(0.0004189489377 0.0001144799949 4.326204819e-05)
(0.0004188935185 7.225374438e-05 6.918219712e-05)
(0.000412198155 0.0001627647466 8.492845771e-05)
(0.0004067257126 0.0001080471792 3.798474856e-06)
(0.0003873740262 0.0001095530072 -2.388930721e-05)
(0.0003940259715 0.0001080417726 1.680657138e-06)
(0.0004054471319 9.945766268e-05 6.6253319e-06)
(0.0004160668736 0.0001271128794 2.203254919e-06)
(0.0004115009888 0.0001191508667 -8.444878277e-05)
(0.000435448411 7.427271007e-05 -5.339909542e-05)
(0.0004310964174 0.0001500768357 -1.118504669e-06)
(0.0003797072862 0.0001331195691 4.604460716e-05)
(0.0004214420144 0.0001135664741 -3.263832679e-05)
(0.0003355258747 3.167793965e-05 2.963615017e-06)
(0.0003296435655 0.0001135316987 -1.282051412e-05)
(0.0002910320222 7.984939621e-05 -1.47608165e-05)
(0.0003155637278 6.512364542e-05 -4.948045484e-06)
(0.0002836357339 6.098346808e-05 -4.756233026e-06)
(0.0003263548486 5.669643917e-05 -2.444349002e-05)
(0.0003564009734 5.857340938e-05 -1.986761927e-05)
(0.0003543279373 8.907659554e-05 3.362128332e-05)
(0.0003471738377 8.218955257e-05 1.277509363e-05)
(0.0003387715774 9.820965912e-05 -4.694057671e-05)
(0.0003970582468 8.740558732e-05 2.220593089e-06)
(0.0003849151539 9.511034846e-05 1.02616841e-07)
(0.0004078410713 0.0001241357915 3.033881804e-05)
(0.0004112226248 8.717856836e-05 -1.235687522e-05)
(0.0004059107015 8.343829875e-05 -1.333262588e-05)
(0.0004054567402 9.256955436e-05 3.342089039e-05)
(0.000432856927 0.0001201610461 6.998173805e-06)
(0.000424013368 0.0001284767866 1.076391177e-05)
(0.0003988762527 9.133889427e-05 3.265913721e-05)
(0.0004350440518 0.0001439470338 -4.395523914e-05)
(0.0004315906865 0.0001318981648 -4.052883982e-05)
(0.0003928285689 0.0001251514591 -4.276548474e-05)
(0.0004327195112 9.779953098e-05 -2.068397083e-05)
(0.0004355052657 0.0001269148323 1.124787148e-05)
(0.0004225713896 0.0001168516127 -5.145710319e-05)
(0.0004539555748 0.0001128104105 6.48840428e-07)
(0.0004554540034 0.0001117054997 -4.131852438e-05)
(0.0003950152678 0.0001286163031 1.998899231e-05)
(0.0004207589298 0.000141683681 7.538803131e-06)
(0.0004648972699 0.0001094518255 -2.338418137e-05)
(0.0002658480108 1.456615428e-05 -2.637798139e-05)
(0.0002678054096 0.0001110428484 -6.240968285e-05)
(0.000320070857 5.634953097e-05 -7.078296947e-06)
(0.0003432172096 0.0001108440517 -6.901111208e-06)
(0.000337091307 6.927650933e-05 -3.706950202e-05)
(0.0003158290609 2.058700818e-05 2.470397294e-05)
(0.0003370104685 3.752134511e-05 2.140269812e-05)
(0.0003692065804 9.658712355e-05 6.577639139e-05)
(0.0003536715431 7.342466233e-05 -1.352127071e-05)
(0.000406207581 9.36613403e-05 -1.271106163e-05)
(0.0004017953783 8.623804609e-05 4.060795311e-05)
(0.0003826899118 0.0001103217013 5.83587417e-06)
(0.0004056745656 0.0001028853509 -4.770037875e-05)
(0.0004335360378 7.68176978e-05 -1.113941197e-06)
(0.0004426177871 0.0001195098243 2.566322243e-05)
(0.000409803165 8.303692792e-05 2.004086088e-05)
(0.0004287321799 0.0001216187884 2.036793628e-05)
(0.0004324511084 0.0001555006957 1.098664277e-05)
(0.0004368560732 9.252591204e-05 3.135542257e-05)
(0.0004193174367 0.0001299630759 -2.645580321e-05)
(0.0003832181783 0.0001477359724 -4.919661827e-05)
(0.0004235043397 9.884410722e-05 -3.247988298e-05)
(0.0004538168559 8.76784948e-05 -5.91069075e-05)
(0.0004950537318 0.0001570236114 1.217933849e-07)
(0.0004697782144 0.0001326934457 -5.825739126e-05)
(0.0004813462736 8.700720198e-05 4.490880119e-05)
(0.0004683704315 0.0001437442169 -1.614400113e-05)
(0.0004775689909 0.0001581044081 -3.260896047e-05)
(0.0004506423285 0.0001678294892 -5.04399775e-05)
(0.0004544947982 9.62420189e-05 -3.446330576e-05)
(0.0003217488619 7.76182378e-05 -6.342357345e-06)
(0.0002988601353 8.418886692e-05 -2.672958537e-05)
(0.0002803966405 3.719685696e-05 -4.963278981e-05)
(0.0003288281832 8.390356805e-05 -1.845013285e-05)
(0.0003534734578 7.376119335e-05 -4.817437661e-05)
(0.0003436710769 3.700941424e-05 1.888196893e-05)
(0.0003495444397 1.418651477e-05 3.363252919e-05)
(0.0003334514202 0.0001052913894 7.700378366e-05)
(0.000352613674 7.894712744e-05 3.783032956e-05)
(0.000353616092 5.05369206e-05 -2.053816243e-05)
(0.0003976585745 9.157431606e-05 -2.662460677e-05)
(0.0003919423045 0.0001036291332 -1.370259192e-05)
(0.0003859065249 9.037455929e-05 -1.661264268e-05)
(0.0004265601581 7.171464521e-05 4.421899528e-05)
(0.000431855188 8.699382971e-05 3.219458467e-05)
(0.0004523556579 0.0001117878123 2.138734353e-05)
(0.0004628651761 0.0001182661837 -2.484681766e-05)
(0.0004787251338 0.0001576492072 2.533518954e-05)
(0.0004743003415 0.0001193225278 -4.687080274e-06)
(0.0004633591334 0.0001673737123 -3.121996047e-05)
(0.0005060154795 0.0001372703343 -1.397544218e-05)
(0.0004625541101 0.0001106249466 4.155432669e-05)
(0.0004630025148 0.0001037096144 2.859976789e-05)
(0.0004229087973 0.0001154527289 -6.047058413e-07)
(0.0004991116314 0.0001110846977 -2.777790129e-06)
(0.0004444782314 0.0001326267456 -6.049579762e-06)
(0.0004119661865 0.00013237389 -8.368291602e-05)
(0.0004679278728 0.0001546932873 -1.504527968e-05)
(0.0004937872483 0.0001682337778 -6.456107597e-05)
(0.0004754385919 0.0001241692129 -1.11739474e-05)
(0.0002311814413 6.492899467e-05 1.482743141e-05)
(0.0002894227221 4.574431941e-05 -3.122390706e-05)
(0.0003466574986 4.428427769e-05 -2.755157054e-05)
(0.000317778877 5.55904459e-05 -2.237392136e-05)
(0.0003445702212 5.635710818e-05 2.30772111e-05)
(0.0003800730407 4.163395332e-05 4.920271073e-05)
(0.0003461126066 5.154880656e-05 4.096009474e-05)
(0.0003482294269 8.246266243e-05 7.155600055e-06)
(0.0003329360597 9.579814469e-05 -8.075210882e-06)
(0.0003532807792 2.654551678e-05 -5.437657251e-05)
(0.0003798590374 7.502662683e-05 -1.70326841e-05)
(0.0003873638334 7.963848834e-05 1.026106373e-06)
(0.0004470440273 7.286174581e-05 5.340780287e-05)
(0.0004269975458 7.879591987e-05 4.120401264e-05)
(0.0004272571244 7.581643558e-05 1.258586958e-05)
(0.0004460030563 0.0001089016257 1.565353718e-05)
(0.0004398744912 0.0001137532722 1.53788889e-06)
(0.0004392624003 0.0001416278071 8.212423324e-06)
(0.0004457834602 0.0001192369793 3.799352566e-05)
(0.0004693132805 0.0001361275132 -2.658533887e-06)
(0.0004641763585 0.0001844214225 3.797414175e-05)
(0.0004766809859 0.0001235572643 -7.889359699e-07)
(0.0004437122698 8.302497209e-05 2.928811651e-05)
(0.0004758845089 0.0001396455817 3.764914483e-05)
(0.0004377238479 0.0001097455837 -9.340905904e-06)
(0.0005091938772 0.0001352437333 -5.201787031e-05)
(0.0004935815213 0.0001520059141 -3.115132091e-05)
(0.0004711113495 0.0001260212709 -3.516743448e-05)
(0.0004777534292 0.000159889558 -1.65048817e-05)
(0.0005544652714 0.0001603891499 -1.216155881e-06)
(0.0003258461625 7.532546015e-05 3.274296049e-06)
(0.0003202542176 3.057148035e-05 -3.182723381e-05)
(0.0003458910572 4.455778226e-05 1.028872137e-05)
(0.0003586128465 4.992653098e-05 4.913706124e-05)
(0.0003667675866 6.540702979e-05 2.2539212e-05)
(0.0003765214288 4.094800585e-05 6.005893077e-05)
(0.0003492897163 5.121725023e-05 4.771906437e-05)
(0.0003640491454 8.419751283e-05 1.895503429e-05)
(0.0003818738439 0.0001019458106 5.950219285e-06)
(0.0003849131552 3.718066752e-05 -1.812446263e-05)
(0.000379967284 6.173558949e-05 -8.569721e-06)
(0.0004266591707 4.010315819e-05 1.574919881e-05)
(0.0004197098775 0.0001006260394 2.612948446e-05)
(0.0003962895195 6.959472198e-05 -3.086250271e-05)
(0.0003732447236 8.602522354e-05 6.39255873e-05)
(0.0003751256955 7.499847483e-05 -1.459031472e-06)
(0.0004193249863 0.0001017305489 -3.223991327e-06)
(0.0004404442089 0.0001194179509 -3.840147423e-05)
(0.0004439307838 0.0001127845082 1.561316538e-06)
(0.0004763018777 0.0001146286318 5.235558718e-05)
(0.0004460468687 0.0001840861536 4.397128987e-05)
(0.0004983220826 0.0001453759091 2.899095244e-05)
(0.0004877567533 9.323845346e-05 3.52358578e-05)
(0.0004978941088 0.0001437163848 -8.988346027e-06)
(0.0005006172435 0.000112515037 3.911570128e-05)
(0.0004658187928 0.0001214665815 2.606678287e-05)
(0.0004700158798 0.0001473676231 2.159481521e-06)
(0.0004717165556 0.0001267838674 -2.682045486e-05)
(0.0005307323734 0.0001497139169 2.018126851e-05)
(0.0005577343313 0.0001501042023 2.073461228e-05)
(0.0003179312116 6.668277821e-05 -1.548627687e-05)
(0.0003200281419 4.82397114e-06 -3.24216825e-05)
(0.0003396239217 5.809887758e-05 3.330473089e-05)
(0.0003303924619 4.879829119e-05 8.52421435e-05)
(0.0003331763711 2.083031218e-05 7.862700759e-05)
(0.0003300702417 6.737803148e-05 3.917556381e-05)
(0.0003304416822 5.352475892e-05 7.394537431e-06)
(0.0003525728333 5.586729339e-05 -1.067884914e-05)
(0.0003583273983 8.568055391e-05 -9.944305382e-06)
(0.0003958378183 3.166412433e-05 -3.886989651e-05)
(0.0003926965993 5.319887102e-05 1.288416394e-05)
(0.0004249591097 5.264584695e-05 2.306174687e-05)
(0.0003649647136 7.627279803e-05 3.511857967e-05)
(0.0003920418438 7.742355197e-05 -5.581987084e-06)
(0.000402668096 0.0001019444404 1.062603356e-05)
(0.0004372363038 8.126092623e-05 -1.59684054e-05)
(0.000385714054 6.450008726e-05 6.199304785e-06)
(0.0004063176212 0.0001378057418 9.23295148e-06)
(0.0004258293012 0.0001084683779 8.682073445e-06)
(0.000426056472 0.0001013858653 1.656603669e-05)
(0.0004704010739 0.0001503711431 -2.828414031e-05)
(0.0004753984541 0.0001127583223 -3.933620513e-05)
(0.0004958005281 0.0001162229211 6.109882555e-06)
(0.0004836405324 0.0001202014817 5.297428749e-05)
(0.0005383374255 0.0001257695676 3.393517265e-05)
(0.0005238508135 0.0001439561071 2.991326738e-05)
(0.0004917164705 0.0001579794938 1.791538545e-05)
(0.0005194361916 0.0001486651215 4.001966383e-05)
(0.0004575577555 0.0001182665073 -2.091679827e-06)
(0.0004911404755 0.0001213222347 3.712950905e-05)
(0.0002473048665 2.222573958e-05 -9.947683873e-06)
(0.0002823210565 9.767352959e-06 -1.710936906e-05)
(0.0002543653344 4.505501793e-05 1.23473692e-05)
(0.0002492492503 1.936043834e-05 7.787190031e-05)
(0.0003317962668 1.040851163e-06 4.815517768e-05)
(0.0003328643853 6.79721791e-05 7.510828766e-06)
(0.0003360156389 5.683736185e-05 5.722526496e-05)
(0.0003215290943 4.805077289e-05 -1.72900604e-06)
(0.0003661790855 4.461282726e-05 -3.936553827e-05)
(0.0003557285596 4.307340262e-05 -3.432232998e-05)
(0.0003615000809 3.615308448e-05 1.108710448e-05)
(0.0003487002445 5.838426303e-05 -2.985091333e-05)
(0.0003734845644 7.851463582e-05 -4.480814289e-06)
(0.000415731005 5.14250182e-05 -4.338061848e-05)
(0.0004562644644 9.844873882e-05 -1.34463017e-05)
(0.0003987894809 0.0001025497245 7.061712321e-06)
(0.0004039974366 7.227679505e-05 2.916863413e-05)
(0.0004147357723 0.0001082374738 2.300663154e-05)
(0.0004349436784 9.253098107e-05 -1.047124998e-05)
(0.0004090544983 0.0001340755925 9.660060166e-06)
(0.0004381273751 0.0001111698259 1.161812e-05)
(0.0004359337286 0.0001176158137 -7.581520566e-06)
(0.0004204240057 0.0001120063874 -2.899849723e-05)
(0.0004541107833 7.90930262e-05 5.100563171e-05)
(0.000479962754 0.0001073568416 2.932624977e-05)
(0.0004586833221 0.0001606005175 3.107876879e-05)
(0.0005065825462 0.0001565684795 -3.853897229e-05)
(0.0005250703862 0.0001374409129 4.909365036e-06)
(0.0005423311076 0.0001285908059 9.854661838e-05)
(0.0005990065647 0.0001441737177 2.120707264e-05)
(0.0002899163782 3.094438434e-05 1.596693029e-05)
(0.0002682639904 1.250613018e-05 7.13094241e-06)
(0.0002781597448 4.174154291e-05 3.067247416e-05)
(0.0002919630595 -7.047562936e-06 -1.742441969e-05)
(0.0002525999047 -1.733273089e-05 -4.395762415e-05)
(0.000250739974 4.970907165e-05 -3.469493835e-05)
(0.0002837304399 4.197682287e-05 4.532104763e-05)
(0.0003252683159 2.283281625e-05 1.793681086e-05)
(0.0003347263882 3.221394785e-05 1.891808572e-07)
(0.0003265112024 4.526222488e-05 1.999120589e-05)
(0.0003691509227 1.280511354e-05 -6.129547495e-07)
(0.0003769987719 6.256018409e-05 -2.468818062e-05)
(0.0004058585295 9.223614693e-05 -6.336230886e-06)
(0.0003621732119 4.204867616e-05 -2.208412427e-05)
(0.0003610420028 6.794095217e-05 -2.702575238e-05)
(0.0004027978746 0.0001068766023 -3.231985265e-05)
(0.0004347283542 7.473844498e-05 1.719371237e-05)
(0.0004161193881 0.0001111511969 5.297078142e-06)
(0.0003935724705 0.0001137267748 -1.593254576e-05)
(0.000366707456 0.0001161140804 3.674945178e-05)
(0.0003819387378 8.715203664e-05 5.769277946e-06)
(0.0004072214782 0.0001019925058 -1.848089581e-05)
(0.0004323698574 8.744982904e-05 5.520583211e-05)
(0.0004976092842 9.45677088e-05 9.508279608e-05)
(0.0004812852339 7.034334999e-05 3.071937204e-05)
(0.000495641394 0.0001436615295 4.467030746e-05)
(0.0005230938408 0.0001576966535 2.364334226e-05)
(0.0005136130118 0.0001164506146 -3.137950552e-06)
(0.000558266027 0.0001320348557 8.204474084e-05)
(0.0005943002051 0.0001088314749 9.399507626e-06)
(0.0002280740218 -1.490024702e-05 -2.914905449e-05)
(0.0002218938991 1.55576871e-05 -1.898088246e-05)
(0.0002506824119 1.620920062e-05 -4.904360885e-05)
(0.0002752499893 -7.632612653e-06 -3.614478259e-06)
(0.0002894025508 2.611226302e-05 -5.046727723e-05)
(0.00029380017 1.15434662e-05 -4.516452218e-05)
(0.0003026827704 2.707642531e-05 -5.446151935e-06)
(0.0003104545645 1.826744158e-05 -3.18155852e-05)
(0.0003166101461 1.618545438e-05 -1.312859547e-05)
(0.0003561085123 4.345582241e-05 -8.054997331e-06)
(0.0003355907252 5.749750482e-06 3.407894827e-05)
(0.0003399384195 5.019761495e-05 9.852219048e-06)
(0.0003280768929 4.613226593e-05 -1.224327733e-05)
(0.0003888096014 6.624262759e-05 4.363325091e-05)
(0.0004017198991 5.916896289e-05 -8.761076197e-06)
(0.0004037174332 8.1499033e-05 -2.104845415e-05)
(0.0004140376337 9.744572051e-05 -1.040036633e-05)
(0.0003848864668 0.0001191679204 -1.129857388e-05)
(0.0004144915737 0.0001398020824 2.614496804e-05)
(0.0004241306401 0.0001178160069 5.67002995e-06)
(0.0004247193438 9.271004418e-05 -2.416541508e-06)
(0.0004527388228 9.037907071e-05 -1.10348141e-05)
(0.0004454440712 5.133826936e-05 5.232544974e-05)
(0.0004803567261 6.450338176e-05 4.991050194e-05)
(0.0004628486818 0.0001209677542 2.407781379e-05)
(0.0005058989825 9.923581261e-05 1.934633477e-05)
(0.000531078048 0.0001335472699 -3.541639538e-06)
(0.0005572096169 0.0001187900384 -2.739140158e-05)
(0.0005812073799 0.0001284491209 2.238484593e-05)
(0.000558850185 0.0001336327243 -1.673302313e-05)
(0.0002751775919 -1.052384312e-06 -4.332243359e-05)
(0.0002809321894 6.312761977e-06 6.51987204e-06)
(0.0002630099959 2.777513117e-05 -2.54646337e-05)
(0.0002907761037 -4.03461086e-05 2.370624645e-05)
(0.0002792482691 3.250662059e-05 -1.607532517e-06)
(0.0002761412103 4.04208227e-06 -2.343029742e-05)
(0.0003185061736 1.479200863e-05 -1.19910593e-05)
(0.0003442869388 1.048599876e-05 -3.683469691e-05)
(0.0003538517703 2.104521541e-05 -4.674224657e-05)
(0.0003679648314 3.885814755e-05 -3.004795923e-05)
(0.0003629159523 9.090300304e-06 -7.213432496e-06)
(0.0003581054427 6.723587207e-05 -5.288886743e-06)
(0.0003834452091 4.148346648e-05 -1.625195236e-05)
(0.0003576857174 5.936592202e-05 3.91296713e-05)
(0.0003241697583 5.358426113e-05 -2.924732868e-06)
(0.0003568717554 4.017449501e-05 -6.642243956e-05)
(0.0003624894837 9.780833656e-05 5.386885149e-05)
(0.0004159313673 0.0001033236376 5.915877657e-06)
(0.0003902653958 0.0001188875621 1.500133553e-05)
(0.0004620885333 0.0001243220039 -4.001769271e-05)
(0.0004827543701 8.462409509e-05 -3.831797481e-05)
(0.0004232981121 0.000101578528 -3.48073619e-05)
(0.000438879751 6.331760377e-05 1.746247557e-05)
(0.0004361996918 4.22837536e-05 1.068908265e-05)
(0.0004196185103 0.0001161175216 7.072403072e-06)
(0.0004358171082 6.82920077e-05 -1.711184273e-05)
(0.0004514374049 9.144483608e-05 3.357041632e-05)
(0.0004756190553 0.0001204977441 -5.737777331e-06)
(0.0004829969957 0.0001150114672 2.718362384e-05)
(0.0005755931881 9.027973113e-05 2.094412021e-05)
(0.0002989878786 -4.991117763e-06 3.030595045e-05)
(0.000305318894 3.994171707e-05 4.199304397e-05)
(0.0003077876937 1.351873862e-05 9.944367485e-06)
(0.0003178245837 -4.628469107e-05 -1.04977986e-06)
(0.0003262059478 6.044037784e-05 2.355159761e-06)
(0.0003452846306 -1.993162563e-06 4.127825832e-05)
(0.0003094909031 1.755218655e-05 -2.308522012e-05)
(0.0002749807701 -7.370096231e-06 4.083367588e-06)
(0.0003003965298 -1.644212173e-06 1.576666266e-05)
(0.0002807555687 4.129993386e-06 9.794978669e-06)
(0.0002951893864 2.196654622e-05 -2.751666401e-05)
(0.0003108829216 4.690473329e-05 1.661759089e-06)
(0.0003425397696 1.907204839e-05 -5.146977548e-05)
(0.0003522626311 6.101153001e-05 -5.834957666e-06)
(0.0003714134216 7.777071111e-05 -2.069622308e-05)
(0.0003878090368 3.556905033e-05 6.970635266e-06)
(0.0003873997246 7.094680285e-05 6.155403271e-05)
(0.0003859745661 0.000106846285 2.174426916e-05)
(0.0004188555441 0.0001198525736 -4.371213795e-06)
(0.0004159017803 6.806231858e-05 1.916095265e-05)
(0.000413948104 0.0001024654149 -2.165298658e-06)
(0.0004653242979 0.0001075739205 -2.622430695e-05)
(0.0004394345502 6.182602297e-05 8.068202852e-06)
(0.0004305546223 5.760804113e-05 -4.9675671e-06)
(0.0004352064517 0.0001315169073 -1.874216234e-05)
(0.0004261794854 7.236993421e-05 -3.033870906e-05)
(0.0004543392056 3.44429541e-05 3.748319113e-05)
(0.0004690048053 9.827347929e-05 -1.956209227e-05)
(0.0004833978905 9.755114271e-05 2.004774894e-05)
(0.0005043826205 6.385910852e-05 -7.785621335e-06)
(0.0002112832905 6.521250367e-06 -1.8516788e-05)
(0.0002618517222 9.963507873e-06 -9.329299545e-06)
(0.0003045206786 -1.662864617e-05 3.681726416e-05)
(0.0003128417799 -6.758954019e-06 -1.814320947e-06)
(0.0003172501795 1.802380921e-05 -6.593261948e-06)
(0.0002966068072 -5.385949932e-06 3.314572747e-05)
(0.0003370996992 3.888593241e-05 4.981181979e-05)
(0.0003624730063 1.679813394e-05 3.005392802e-05)
(0.000309732465 5.595227741e-06 3.899931717e-05)
(0.0003441316642 1.00165982e-05 7.753530007e-05)
(0.0003220022131 2.684827118e-05 -3.783301496e-05)
(0.0003730190552 2.666382216e-05 7.018757021e-06)
(0.0003486049062 2.319707031e-05 -6.061749968e-05)
(0.0003386159585 5.096624477e-05 4.415720873e-06)
(0.0003794916908 4.365425638e-05 -3.288835744e-05)
(0.0003578129451 4.596395941e-05 1.206110714e-05)
(0.0003713142224 6.096897538e-05 9.851336373e-05)
(0.0003826618766 7.848741917e-05 1.929116436e-05)
(0.0004005091571 0.0001352539562 -4.732232573e-06)
(0.0003711895467 6.93200498e-05 -1.830126272e-05)
(0.0004111522171 7.961574926e-05 1.564787782e-05)
(0.000431289733 6.202081681e-05 1.299857994e-06)
(0.00045167087 7.433193748e-05 -4.264938209e-05)
(0.0004117160684 0.0001013886642 -3.505580762e-05)
(0.0004499865061 6.974288635e-05 1.528528114e-05)
(0.0005134856036 6.859557213e-05 1.263307598e-05)
(0.0005062014408 7.59658579e-05 2.585529593e-06)
(0.0004615964925 9.940766167e-05 -4.494203195e-06)
(0.0005031497985 7.651376779e-05 1.328137953e-05)
(0.000285174638 -1.016034614e-05 1.041499086e-05)
(0.0002930987693 -2.817482349e-05 3.587993354e-05)
(0.0003062461632 -2.872906199e-05 4.49749065e-05)
(0.0003128251944 -2.143101185e-05 1.858502159e-05)
(0.0003051255138 3.327419495e-05 3.419704487e-05)
(0.0003114619869 6.588984782e-07 4.293549932e-05)
(0.0003268076115 -1.897798775e-05 5.17094614e-05)
(0.000309132622 6.567678904e-05 3.978322043e-05)
(0.00030073231 1.186357378e-05 1.093492487e-05)
(0.0003125227646 -2.85922732e-05 -2.336919567e-05)
(0.0003479437832 1.455730138e-05 -6.068900176e-05)
(0.0003262869597 5.417399512e-06 -8.783711619e-05)
(0.000338884939 6.311936935e-05 -1.952106456e-05)
(0.0003299903153 4.406306541e-05 3.958986984e-05)
(0.0003311756659 2.771868345e-05 -4.442358069e-06)
(0.0003566996997 6.73308565e-05 3.408259996e-05)
(0.0003622425328 4.025810765e-05 -2.467436181e-05)
(0.0003670609199 7.669847529e-05 -3.370795574e-05)
(0.0004054936348 8.79643932e-05 -5.780104003e-06)
(0.0004522310118 9.124343314e-05 3.142252619e-06)
(0.0004309793956 5.269653166e-05 6.311042295e-05)
(0.0004115079584 6.793187463e-05 -4.05910449e-06)
(0.000389216538 8.605534741e-05 2.770430502e-05)
(0.000392656052 6.693027357e-05 -3.20405045e-06)
(0.0002707382004 -4.099632497e-05 2.656157371e-05)
(0.0002934766139 -3.662643376e-05 5.821448946e-06)
(0.0002694713906 -2.420864688e-05 1.610578955e-05)
(0.0002994739997 -3.680631187e-05 3.74253104e-05)
(0.0003154678902 3.495904366e-05 -1.373157302e-05)
(0.000316288581 5.787615962e-06 -2.673695573e-06)
(0.0002803517454 -2.206190027e-05 -3.912063663e-05)
(0.000284998329 5.161804144e-05 2.174533185e-05)
(0.0003191289269 1.202198098e-05 4.09316356e-05)
(0.0003028311974 -2.727950193e-05 -1.957279555e-05)
(0.0002851693538 2.625845639e-05 -6.045671159e-05)
(0.0002845099977 -1.669048634e-05 -3.742719858e-05)
(0.0003097538162 4.647464297e-05 1.164483062e-05)
(0.0003379695231 2.544735362e-05 1.69804879e-05)
(0.0003649451661 2.80302242e-05 -8.453099477e-06)
(0.0003505379026 5.302291233e-05 -2.933359294e-05)
(0.0003467536525 3.214045361e-05 -4.736706207e-05)
(0.0003482647878 8.453635327e-05 -3.310780273e-05)
(0.0003661149515 4.024019769e-05 -3.46933299e-05)
(0.0002915763269 -1.288229822e-05 -2.221527192e-05)
(0.0002608898515 -4.242193582e-05 -8.429825263e-06)
(0.000285382868 -1.624722441e-05 3.547342621e-05)
(0.0002760181269 -4.89573406e-05 7.027684579e-06)
(0.0002516659963 1.741992699e-05 -1.022741608e-05)
(0.000280399927 -9.940416571e-06 1.906990743e-05)
(0.0002762904517 1.624638788e-05 -1.677151976e-05)
(0.0003085312555 6.399030565e-06 -9.416976771e-06)
(0.0003326242955 5.985759796e-06 -1.890178557e-05)
(0.0003573599067 5.002408014e-06 -1.401965771e-05)
(0.0003264967334 2.30132443e-05 -1.353915156e-05)
(0.0003460421336 -9.656789202e-06 7.970675401e-07)
(0.0003370869927 3.092791795e-05 -6.991842912e-05)
(0.0003461297817 1.09574798e-05 4.847955681e-05)
(0.0002700348214 -4.424355247e-05 -5.571220825e-05)
(0.000281492972 -1.712365009e-05 -3.741053036e-05)
(0.000269890335 -4.486665561e-05 -1.11754075e-05)
(0.0002584807299 2.639933348e-06 -5.61429704e-06)
(0.0002507868697 1.442177292e-05 -4.716048561e-05)
(0.0002536520171 -2.575355927e-05 -3.981398575e-05)
(0.0002863920068 1.024348493e-05 -0.0001060520003)
(0.0003103781559 -2.422987587e-05 -7.011594284e-05)
(0.0002360044852 -5.452562467e-05 -4.940901588e-05)
(0.0002640996223 -2.163013672e-05 -2.571319056e-05)
)
;

boundaryField
{
    flow
    {
        type            calculated;
        value           nonuniform List<vector> 
15
(
(0.0002888572917 8.646757936e-05 -6.589865052e-07)
(0.0003375273211 7.213149657e-05 -5.830072083e-06)
(0.000349617669 7.704056721e-05 -2.866781378e-05)
(0.0004214420144 0.0001135664741 -3.263832679e-05)
(0.0004648972699 0.0001094518255 -2.338418137e-05)
(0.0004544947982 9.62420189e-05 -3.446330576e-05)
(0.0004754385919 0.0001241692129 -1.11739474e-05)
(0.0005544652714 0.0001603891499 -1.216155881e-06)
(0.0005577343313 0.0001501042023 2.073461228e-05)
(0.0004911404755 0.0001213222347 3.712950905e-05)
(0.0005990065647 0.0001441737177 2.120707264e-05)
(0.0005943002051 0.0001088314749 9.399507626e-06)
(0.000558850185 0.0001336327243 -1.673302313e-05)
(0.0005755931881 9.027973113e-05 2.094412021e-05)
(0.0005043826205 6.385910852e-05 -7.785621335e-06)
)
;
    }
    obstacle
    {
        type            calculated;
        value           nonuniform List<vector> 
30
(
(3.579878012e-23 9.592254241e-24 1.560814101e-23)
(5.13727674e-23 1.376529156e-23 2.246420201e-23)
(2.295297153e-23 6.150230166e-24 -3.135946002e-23)
(1.038367116e-22 2.782296306e-23 -1.022328209e-23)
(3.172656219e-23 8.501106692e-24 -4.684424615e-25)
(1.559760551e-23 4.179365808e-24 -7.794022915e-24)
(7.695009182e-23 2.0618715e-23 -3.993100135e-23)
(4.746649729e-23 1.271860958e-23 -1.172950225e-23)
(7.584111775e-23 2.032156629e-23 -6.447426555e-25)
(8.569078956e-23 2.29607779e-23 -2.777262952e-24)
(2.315017507e-23 6.203070696e-24 -4.577561427e-24)
(2.507446953e-23 6.718683874e-24 1.15152248e-23)
(4.599703981e-23 1.232486969e-23 7.158428215e-24)
(5.879559336e-23 1.575423171e-23 2.117101821e-23)
(5.304408873e-23 1.421312076e-23 -1.852257272e-24)
(5.126462457e-23 1.373631471e-23 2.819933395e-23)
(1.027867521e-22 2.754162728e-23 8.222175932e-24)