/*--------------------------------*- C++ -*----------------------------------*\
  =========                 |
  \\      /  F ield         | OpenFOAM: The Open Source CFD Toolbox
   \\    /   O peration     | Website:  https://openfoam.org
    \\  /    A nd           | Version:  7
     \\/     M anipulation  |
\*---------------------------------------------------------------------------*/
FoamFile
{
    version     2.0;
    format      ascii;
    class       volScalarField;
    location    "0.005";
    object      rhoMMean;
}
// * * * * * * * * * * * * * * * * * * * * * * * * * * * * * * * * * * * * * //

dimensions      [1 -3 0 0 0 0 0];

internalField   nonuniform List<scalar> 
546
(
2.842353592e-06
2.893553745e-06
2.954327259e-06
3.148899213e-06
2.910342139e-06
3.005794749e-06
3.025668547e-06
3.040733983e-06
2.892614697e-06
2.830847825e-06
2.921083661e-06
3.003290995e-06
3.023718764e-06
3.073331148e-06
3.023671913e-06
2.976718148e-06
3.011435989e-06
3.062733343e-06
3.220387823e-06
3.228259236e-06
3.045807401e-06
3.344157154e-06
3.187572489e-06
3.238630363e-06
3.37172121e-06
3.432323371e-06
3.451165654e-06
3.723223889e-06
3.628925942e-06
4.030722786e-06
2.832489317e-06
3.106233863e-06
3.069817776e-06
2.940576279e-06
2.88455044e-06
2.813963349e-06
2.861608839e-06
2.948689469e-06
2.931942943e-06
2.87775869e-06
3.008831096e-06
3.038732029e-06
3.004002369e-06
2.882801368e-06
2.995752783e-06
3.004868302e-06
3.04633766e-06
3.159684433e-06
3.058158977e-06
3.094062669e-06
3.150747815e-06
3.225898184e-06
3.332734235e-06
3.416218017e-06
3.361057521e-06
3.553493314e-06
3.525405201e-06
3.623773628e-06
3.820441664e-06
4.082246213e-06
3.062743887e-06
3.037527343e-06
2.950376432e-06
3.036955379e-06
3.050501304e-06
2.847365976e-06
3.029092124e-06
3.022575684e-06
3.020643288e-06
2.978589265e-06
3.060066215e-06
3.11211601e-06
3.157736037e-06
2.950638051e-06
3.068426614e-06
3.055395031e-06
3.173163553e-06
3.12117468e-06
3.348628658e-06
3.198055443e-06
3.184891058e-06
3.120506731e-06
3.257184399e-06
3.446709052e-06
3.403991473e-06
3.607502728e-06
3.59891881e-06
3.658455111e-06
4.048916543e-06
3.9835396e-06
3.175766963e-06
3.035197056e-06
3.032502578e-06
3.065396573e-06
2.949271157e-06
2.912171594e-06
2.963609527e-06
2.943010738e-06
2.932317762e-06
2.97864931e-06
2.993881793e-06
3.009140668e-06
3.09743639e-06
3.068072664e-06
3.060538961e-06
3.176909276e-06
3.246321694e-06
3.190670149e-06
3.383662502e-06
3.201638151e-06
3.272948174e-06
3.239499223e-06
3.370192466e-06
3.447707626e-06
3.569780964e-06
3.656873732e-06
3.701572774e-06
3.857744192e-06
3.961539612e-06
4.226566337e-06
3.210762325e-06
2.923358662e-06
2.863446853e-06
2.937947549e-06
2.923380263e-06
2.98624232e-06
3.027051345e-06
2.961781121e-06
2.979068986e-06
3.045573784e-06
3.010558503e-06
3.169915957e-06
3.126188493e-06
2.93282848e-06
3.094189009e-06
3.109408834e-06
3.188440241e-06
3.124361373e-06
3.211129418e-06
3.142662075e-06
3.358329843e-06
3.305751966e-06
3.475552194e-06
3.505941453e-06
3.58045631e-06
3.641540968e-06
3.698198863e-06
3.903438211e-06
3.968945693e-06
4.350541306e-06
3.102579323e-06
2.906197111e-06
2.807950952e-06
3.00170803e-06
2.919374672e-06
2.897059504e-06
2.876124933e-06
2.955071183e-06
2.995862055e-06
2.998307444e-06
3.033969379e-06
2.952273731e-06
3.187226156e-06
3.149068148e-06
3.158180307e-06
3.166073002e-06
3.225342631e-06
3.152228257e-06
3.150885277e-06
3.185076483e-06
3.187576594e-06
3.427065717e-06
3.463809131e-06
3.452417844e-06
3.589163524e-06
3.574582499e-06
3.825814778e-06
3.995662389e-06
4.14384452e-06
4.220731856e-06
3.031723544e-06
2.953078156e-06
2.881868442e-06
2.985749487e-06
3.040192462e-06
3.034541679e-06
3.000688262e-06
2.891965817e-06
3.091766317e-06
3.045845097e-06
3.132919644e-06
3.020547206e-06
3.052803815e-06
3.219708944e-06
3.305362108e-06
3.287644309e-06
3.248814134e-06
3.306341996e-06
3.18302176e-06
3.269247985e-06
3.203331867e-06
3.356051587e-06
3.380138592e-06
3.428348725e-06
3.54326367e-06
3.608265903e-06
3.743479129e-06
3.890334937e-06
4.089512037e-06
4.427729451e-06
2.898338741e-06
2.971612953e-06
2.986186871e-06
2.971342774e-06
2.968878772e-06
3.082298255e-06
3.128840559e-06
2.815369635e-06
3.1575315e-06
3.099553248e-06
3.146284944e-06
3.04766544e-06
3.001550402e-06
3.218575735e-06
3.384958731e-06
3.136392907e-06
3.283547556e-06
3.179072811e-06
3.22764282e-06
3.164103578e-06
3.231327263e-06
3.426827563e-06
3.481933351e-06
3.539502794e-06
3.657539303e-06
3.647855174e-06
3.680458305e-06
3.853584156e-06
4.026396037e-06
4.406328008e-06
2.96921076e-06
2.953566308e-06
3.012795252e-06
3.08379235e-06
3.121634354e-06
3.09021223e-06
3.118638246e-06
3.066764716e-06
3.131729906e-06
3.203687778e-06
3.049409524e-06
3.179522358e-06
3.054267461e-06
3.093249039e-06
3.184126602e-06
3.142360436e-06
3.232933698e-06
3.10956804e-06
3.185286367e-06
3.214780988e-06
3.328189975e-06
3.521641407e-06
3.532957235e-06
3.693919937e-06
3.580584776e-06
3.728921079e-06
3.862453793e-06
4.018649912e-06
4.157373595e-06
4.501771567e-06
3.025205329e-06
3.007080775e-06
2.962883619e-06
3.172797889e-06
3.078258033e-06
3.11283123e-06
2.983461196e-06
3.016657553e-06
3.031828939e-06
3.203659042e-06
3.24986801e-06
3.185469242e-06
3.098620891e-06
3.208347401e-06
3.185659841e-06
3.274647765e-06
3.336794472e-06
3.144689982e-06
3.276198653e-06
3.22874904e-06
3.494041138e-06
3.653557176e-06
3.639585839e-06
3.573465212e-06
3.5674016e-06
3.811242526e-06
3.876556645e-06
4.108225206e-06
4.325176514e-06
4.414844268e-06
3.076880297e-06
2.990217979e-06
3.164658009e-06
3.112644773e-06
3.084428065e-06
3.026620259e-06
3.075571218e-06
3.166847019e-06
3.083105164e-06
3.096685356e-06
2.965658967e-06
3.215518565e-06
3.095530989e-06
3.055213898e-06
3.333382451e-06
3.28748502e-06
3.273043766e-06
3.141851593e-06
3.194174176e-06
3.099624011e-06
3.272664689e-06
3.377793012e-06
3.552951215e-06
3.567289403e-06
3.610575299e-06
3.744238345e-06
4.033247281e-06
4.084472563e-06
4.364389803e-06
4.678728313e-06
3.141180448e-06
3.083309977e-06
3.162769415e-06
3.053460132e-06
3.184852263e-06
3.14690918e-06
3.017708425e-06
3.093692023e-06
3.0925228e-06
3.035892975e-06
3.092123072e-06
3.235898751e-06
3.09578208e-06
3.072882923e-06
3.345596442e-06
3.253013934e-06
3.184572597e-06
3.15764944e-06
3.289240246e-06
3.439643887e-06
3.33996033e-06
3.332263235e-06
3.457255418e-06
3.70958795e-06
3.658945911e-06
3.768385527e-06
3.939661805e-06
3.886392087e-06
4.21946029e-06
4.600701728e-06
3.079744648e-06
3.105166059e-06
3.167397512e-06
3.115568868e-06
3.117872074e-06
3.13783254e-06
3.223952248e-06
3.212185211e-06
3.022503658e-06
3.222811454e-06
3.13390345e-06
3.245625546e-06
3.040090387e-06
3.068440449e-06
3.289202405e-06
3.225192932e-06
3.395947738e-06
3.383625574e-06
3.344360125e-06
3.558473782e-06
3.235212504e-06
3.335204255e-06
3.527468549e-06
3.612115072e-06
3.611608565e-06
3.752847689e-06
3.937962461e-06
4.045846102e-06
4.233386914e-06
4.524494013e-06
3.312702146e-06
3.103114494e-06
3.074122314e-06
3.102438415e-06
3.200384488e-06
3.228517925e-06
3.214320672e-06
3.176393934e-06
3.362223617e-06
3.242559611e-06
3.109132163e-06
3.073243663e-06
3.123531664e-06
3.281908025e-06
3.258064678e-06
3.300950386e-06
3.357659245e-06
3.207508828e-06
3.442810049e-06
3.452827084e-06
3.491822549e-06
3.419606223e-06
3.546267904e-06
3.589644602e-06
3.900513516e-06
3.774470101e-06
3.855541005e-06
4.096770397e-06
4.234339631e-06
4.574188669e-06
3.170460102e-06
3.261708489e-06
3.111803911e-06
3.165143845e-06
3.228174802e-06
3.306306731e-06
3.250326571e-06
3.191645071e-06
3.150117676e-06
3.259382912e-06
3.119988156e-06
3.203411543e-06
3.210462058e-06
3.341445978e-06
3.322080004e-06
3.395707714e-06
3.410626068e-06
3.43721487e-06
3.370274116e-06
3.560044481e-06
3.473032909e-06
3.503685825e-06
3.549991399e-06
3.576432342e-06
3.755603023e-06
4.026240877e-06
4.098381532e-06
4.132627962e-06
4.187404761e-06
4.503436734e-06
3.170118007e-06
3.093015908e-06
3.146924921e-06
3.146685124e-06
3.251456568e-06
3.215067083e-06
3.293013773e-06
3.264987401e-06
3.269543375e-06
3.336691689e-06
3.167554341e-06
3.137159817e-06
3.230702055e-06
3.253544414e-06
3.2637563e-06
3.186224477e-06
3.208202279e-06
3.316409182e-06
3.319315953e-06
3.488456212e-06
3.46381118e-06
3.556851931e-06
3.596902857e-06
3.645619107e-06
3.745150877e-06
3.921347392e-06
4.071076152e-06
4.16461066e-06
4.296284626e-06
3.24001729e-06
3.292520873e-06
3.223877458e-06
3.257781526e-06
3.171921747e-06
3.1979054e-06
3.215187784e-06
3.365474385e-06
3.136557444e-06
3.246423896e-06
3.26457922e-06
3.355619142e-06
3.270572109e-06
3.206853351e-06
3.247374512e-06
3.152026286e-06
3.196256782e-06
3.351555726e-06
3.544810775e-06
3.599077878e-06
3.521969993e-06
3.588255657e-06
3.748462865e-06
3.744649462e-06
3.319480528e-06
3.285631626e-06
3.169005341e-06
3.244258919e-06
3.320335136e-06
3.287836137e-06
3.246945348e-06
3.379353067e-06
3.330829865e-06
3.433658839e-06
3.388593831e-06
3.359891978e-06
3.347128081e-06
3.442070223e-06
3.343425837e-06
3.359596912e-06
3.508933264e-06
3.497679704e-06
3.548018582e-06
3.321463685e-06
3.345860873e-06
3.359987919e-06
3.214050401e-06
3.339502986e-06
3.30748104e-06
3.351964921e-06
3.333240263e-06
3.363227964e-06
3.486641732e-06
3.47305884e-06
3.485678043e-06
3.309898115e-06
3.58162903e-06
3.508742683e-06
3.397645639e-06
3.332940458e-06
3.29836249e-06
3.36400139e-06
3.366155497e-06
3.395933454e-06
3.317974229e-06
3.363901898e-06
3.343099413e-06
)
;

boundaryField
{
    flow
    {
        type            calculated;
        value           nonuniform List<scalar> 
15
(
4.030722786e-06
4.082246213e-06
3.9835396e-06
4.226566337e-06
4.350541306e-06
4.220731856e-06
4.427729451e-06
4.406328008e-06
4.501771567e-06
4.414844268e-06
4.678728313e-06
4.600701728e-06
4.524494013e-06
4.574188669e-06
4.503436734e-06
)
;
    }
    obstacle
    {
        type            calculated;
        value           nonuniform List<scalar> 
30
(
1.046701046e-24
1.137625759e-24
1.119152132e-24
1.291024352e-24
1.119453014e-24
1.217451311e-24
1.275690661e-24
1.180207843e-24
1.10076316e-24
1.348736752e-24
1.143245774e-24
1.124090089e-24
1.297299273e-24
1.290593527e-24
1.258136589e-24
1.208323276e-24
1.294485266e-24
1.336186857e-24
1.396300799e-24
1.29835681e-24
1.200535344e-24
1.28880129e-24
1.30223119e-24
1.405051236e-24
1.312119454e-24
1.302674656e-24
1.426797445e-24
1.487193439e-24
1.490197015e-24
1.554953028e-24
)
;
    }
    frontAndBack
    {
        type            empty;
    }
    procBoundary1to0
    {
        type            processor;
        value           nonuniform List<scalar> 
21
(
2.925320759e-06
2.859041836e-06
2.998254336e-06
2.980179731e-06
3.057058246e-06
2.995194437e-06
2.889828803e-06
2.81752896e-06
3.098095953e-06
3.138731631e-06
2.944077826e-06
3.053930832e-06
3.058974412e-06
3.127021782e-06
3.059303751e-06
3.128626183e-06
3.297578661e-06
3.383450247e-06
3.272022384e-06
3.323611198e-06
3.436831783e-06
)
;
    }
    procBoundary1to3
    {
        type            processor;
        value           nonuniform List<scalar> 
36
(
4.467474732e-06
4.072279229e-06
3.999185299e-06
3.841693248e-06
4.249219662e-06
4.467474732e-06
4.427577424e-06
3.622605212e-06
3.525722194e-06
3.614400368e-06
3.576883735e-06
4.072279229e-06
3.669355499e-06
3.558098301e-06
3.44350662e-06
3.494228605e-06
3.509818813e-06
3.622605212e-06
3.548117924e-06
3.345113496e-06
3.489607611e-06
3.465092927e-06
3.486945056e-06
3.498785336e-06
3.558098301e-06
3.609298954e-06
3.456748846e-06
3.448222775e-06
3.502130136e-06
3.4735697e-06
3.395380248e-06
3.345113496e-06
3.456863261e-06
3.317386703e-06
3.456748846e-06
3.394453678e-06
)
;
    }
}


// ************************************************************************* //
