/*--------------------------------*- C++ -*----------------------------------*\
  =========                 |
  \\      /  F ield         | OpenFOAM: The Open Source CFD Toolbox
   \\    /   O peration     | Website:  https://openfoam.org
    \\  /    A nd           | Version:  7
     \\/     M anipulation  |
\*---------------------------------------------------------------------------*/
FoamFile
{
    version     2.0;
    format      ascii;
    class       volScalarField;
    location    "0.005";
    object      translationalT;
}
// * * * * * * * * * * * * * * * * * * * * * * * * * * * * * * * * * * * * * //

dimensions      [1 2 -2 0 0 0 0];

internalField   nonuniform List<scalar> 
546
(
933.5188263
914.5910458
889.4308982
887.2205085
872.5548502
860.4192159
852.6740305
851.9686389
838.1546585
837.0250467
826.5950934
821.1828844
815.5172815
813.3554311
802.4494329
801.1205537
788.8673057
797.1225465
785.4917119
784.840751
784.8766933
777.5285222
779.2357463
771.864476
756.7184522
758.4375354
756.8517185
764.1410095
749.2626869
731.0082266
1028.361289
1020.627565
1004.416106
983.2930525
977.4350132
967.2009668
957.0096422
948.8413942
960.9887803
933.6998183
923.2875079
922.9557873
910.7527426
908.9230006
902.2793454
882.9108512
887.8565222
883.2456114
862.6348505
858.0769286
860.4647274
852.4203328
835.7445357
840.5206312
844.9661738
827.7668432
829.478176
809.5717853
783.5881917
734.4081456
1040.631196
1029.573357
1020.001928
1012.207804
999.8701084
1004.829839
991.3821918
984.9497858
976.5278788
973.6351847
973.654553
966.4949686
954.7325808
938.8045911
932.7161891
938.1259313
936.9613012
931.4909695
922.6736989
914.898097
906.8534346
902.8413393
899.2422846
895.0374452
875.5955937
858.7003143
853.2012282
832.1456784
797.6199264
739.7953707
1035.366987
1022.664951
1018.638119
1000.894699
1004.875321
1002.74711
996.3166912
990.0172913
984.0497863
978.0339777
972.8558354
965.8233153
964.4767117
957.8862091
956.2388131
954.9647423
933.4578074
933.4633882
946.0476947
934.9226916
928.6875264
918.7274392
910.8903488
898.0469198
888.1470226
868.259036
854.0674131
831.8269762
804.6749279
742.437885
998.7447446
994.445653
985.7072522
983.9810926
974.3788543
973.5274592
973.7583835
976.5117796
956.0336799
955.2146254
956.0835136
954.7167509
950.808267
940.7207106
940.7955966
933.8396514
939.1875716
924.7739501
926.9558063
933.0214216
923.101524
928.6597603
913.1595953
906.557961
896.713899
886.0464153
861.546702
835.7312835
816.2327696
767.8969766
972.8396912
973.1902067
972.8218724
960.9535135
965.348757
950.3212398
954.4362526
934.4964914
929.7893755
928.5624071
927.7024627
920.0071173
920.8660566
922.0185901
925.3540002
923.7644253
925.3646285
928.1349826
929.6134556
926.5651044
920.9777786
928.7947537
921.9066844
906.3729902
897.1079502
885.9891038
859.981691
849.5938036
812.6827879
776.3364516
939.5445555
946.4341698
940.836683
938.9634835
936.1410337
932.0033913
934.132979
918.4626305
924.625856
916.7010629
920.9284614
918.2526075
920.9902552
911.872841
915.667494
909.4484191
906.662527
911.9826837
919.5103828
905.4503089
908.7764544
915.1669001
912.0191746
903.2141537
888.3378884
875.5338931
863.9258657
847.3512
814.9406333
779.6868196
897.9996324
924.1161919
925.7413036
916.8114294
923.3367029
918.3551956
915.4476015
909.605198
908.1587756
902.8655932
896.7252072
890.6003602
895.9753956
895.3553231
896.7382684
891.6073151
895.8875266
896.0664943
899.567218
890.5398977
882.3797588
896.1189008
887.1622582
893.4079909
880.5388309
862.6675589
848.161199
840.9577108
818.6301757
794.2576879
851.9105392
866.7128842
886.0803648
888.0218469
889.6414038
893.2539122
894.1303113
891.1090034
889.3752946
881.4761321
878.4018281
882.9275831
873.6001544
883.4701851
866.4830916
872.097584
877.5141744
877.8279398
870.3498063
871.7371504
863.4569379
859.4268869
871.3118716
867.8539752
867.845711
861.9059772
842.2741946
833.511462
824.315424
794.4959187
780.9899667
809.8308236
847.921655
850.7988092
858.3086187
864.8239531
874.1839235
883.243794
877.9113991
866.1557064
867.4785833
862.6199098
860.2121851
857.8375666
870.0193588
857.1229178
860.4707285
855.8260094
850.7956509
857.4222219
849.7640397
862.575346
862.5331106
853.1965824
849.2170915
845.9718878
834.4164677
817.5933909
795.8073521
778.8328452
720.0407851
739.0042747
788.1832459
810.4262587
811.0157323
831.1675127
848.5838936
840.1291347
848.266088
852.6764378
843.3386622
853.2575049
844.5786235
841.6946337
845.5003875
843.800151
853.9017093
839.1479506
845.4757863
848.8920743
842.5852108
849.3233928
847.2565209
839.8150871
836.7638723
841.9649801
817.2540417
803.7856701
794.455172
780.9816211
647.9742096
699.83125
707.6709088
747.5223908
773.6777468
793.4379866
799.6246158
807.8457912
826.9244797
837.0004235
840.5725018
845.3754415
838.1619195
836.2950169
842.5291177
838.427903
829.5079763
822.991619
822.9846176
830.4156234
825.2509353
832.961496
825.0519347
831.3690104
815.9569469
817.452925
808.8530381
799.9636353
798.2333868
773.8604658
584.1786336
614.7422132
650.8731652
687.2366778
716.6934917
746.9638539
768.1920131
770.0479071
789.0332483
799.7827422
815.6324685
817.5769379
812.0511243
818.3588004
814.4419732
815.6662855
824.0220006
819.157098
812.9220682
813.3547563
812.071292
817.7550258
818.2604298
805.7910387
806.4894825
798.1822598
803.5971586
791.1524358
792.8038064
782.3440603
531.8642396
564.1420533
597.5914178
632.7880292
647.1508868
680.5038214
709.2368647
727.6895242
745.4559845
771.5501589
789.9617046
800.1484149
795.0403042
805.3591633
800.2748391
804.813309
804.5490991
799.6588852
796.5832643
795.320322
804.849983
799.8905
805.6117765
801.631987
796.0777193
796.1097948
794.9974325
784.5847215
783.7624165
770.7034609
481.696715
492.1730698
521.4409058
556.0677118
591.0483513
622.4393908
657.1191909
689.4235588
704.0688509
735.4702825
758.4074531
769.0911589
782.8080119
781.2032106
789.9128003
797.3432325
797.0985656
794.581077
790.1233561
797.6246475
785.3723668
789.8628998
788.2779984
796.2662538
794.3774461
776.1713678
789.9303637
781.5305979
768.3121941
760.0452971
429.5085199
445.4424784
472.6903345
502.9806476
529.3831132
571.1832972
602.9306865
627.3144126
658.8020394
680.7183156
706.0362701
725.5471727
740.0448036
752.9226281
765.6934614
779.467934
779.6669641
777.1687185
782.8232004
796.6623185
788.4717901
783.1725883
783.8569437
790.2491389
782.8317044
785.8306832
775.781249
766.7205428
770.7668805
402.3546201
418.4629383
444.8570384
472.0254473
482.8074291
517.1142519
548.8602576
573.1444523
608.7202078
625.9569723
657.0418021
682.8555972
708.284711
712.6586197
734.0786254
750.2839274
760.0147957
772.286069
773.6518906
772.6246813
779.9199227
777.9242707
773.6430265
775.742128
382.8093017
392.1256314
419.3176104
435.8824034
451.4482387
475.2995716
497.5845057
530.4459205
544.5036175
579.7468789
610.2165602
642.6122099
654.9936184
688.3167646
710.6114197
721.4339205
745.0760362
747.3753948
760.5279315
355.9402602
368.4387272
386.861115
402.4880815
422.9622245
446.7988096
461.8847311
484.2859327
506.0280938
530.6232809
557.087842
586.0876122
605.7905706
634.9236572
346.9579199
362.0870733
370.5975739
380.9647437
401.245079
416.0836341
426.5482986
446.184215
340.3301275
341.6949146
)
;

boundaryField
{
    flow
    {
        type            calculated;
        value           nonuniform List<scalar> 
15
(
731.0082266
734.4081456
739.7953707
742.437885
767.8969766
776.3364516
779.6868196
794.2576879
794.4959187
778.8328452
780.9816211
773.8604658
782.3440603
770.7034609
760.0452971
)
;
    }
    obstacle
    {
        type            calculated;
        value           nonuniform List<scalar> 
30
(
797.0156706
801.8502479
788.7310566
773.6097947
783.1613251
740.8335691
721.6497496
760.2928289
743.7260517
746.0571339
749.8220046
742.1464529
729.439171
696.793016
721.5534409
718.4770788
712.4581627
707.7564076
690.5251685
730.3582069
709.3142377
697.2743994
704.765025
718.6764825
692.9002516
698.5805971
681.9883987
699.677326
710.2718764
710.6469256
)
;
    }
    frontAndBack
    {
        type            empty;
    }
    procBoundary1to0
    {
        type            processor;
        value           nonuniform List<scalar> 
21
(
943.3132707
1046.243217
1055.105846
1037.987971
1011.413041
981.2541255
944.4786822
900.761605
822.0121954
749.0744108
667.5080386
613.3211779
539.3729056
496.7379939
445.4532709
400.8311074
382.3063337
366.3592575
345.114648
343.5560281
333.3250516
)
;
    }
    procBoundary1to3
    {
        type            processor;
        value           nonuniform List<scalar> 
36
(
768.2758689
773.5477839
769.2134245
769.5142742
764.2301587
768.2758689
750.6630894
760.4986036
766.6847809
768.5274496
770.260325
773.5477839
765.9956713
659.1977876
674.7775161
704.8650282
718.7776725
760.4986036
728.7917398
462.8833877
487.7269133
509.8831061
529.6730382
553.967047
659.1977876
578.3879831
352.4083562
360.4100307
372.120004
386.2091375
402.3822171
462.8833877
418.3594397
326.7872006
352.4083562
336.9836193
)
;
    }
}


// ************************************************************************* //
