/*--------------------------------*- C++ -*----------------------------------*\
  =========                 |
  \\      /  F ield         | OpenFOAM: The Open Source CFD Toolbox
   \\    /   O peration     | Website:  https://openfoam.org
    \\  /    A nd           | Version:  7
     \\/     M anipulation  |
\*---------------------------------------------------------------------------*/
FoamFile
{
    version     2.0;
    format      ascii;
    class       volVectorField;
    location    "0.00252";
    object      momentum;
}
// * * * * * * * * * * * * * * * * * * * * * * * * * * * * * * * * * * * * * //

dimensions      [1 -2 -1 0 0 0 0];

internalField   nonuniform List<vector> 
125
(
(0.0092343 -0.210969 0.225734)
(0.115972 -0.0448664 0.265851)
(-0.170121 0.205996 -0.194102)
(0.29545 0.0289281 -0.363513)
(0.0615939 -0.123182 0.153345)
(0.0430599 0.0221618 0.000896628)
(0.277143 -0.174981 -0.0393962)
(0.0521794 0.239787 0.107265)
(0.28572 -0.169571 -0.01142)
(0.24177 -0.121281 -0.0474214)
(0.0129425 0.0758323 0.16256)
(0.0487956 0.0583339 -0.0851707)
(0.0804475 -0.138869 0.0960933)
(-0.0592739 -0.0755864 0.0359286)
(0.156291 -0.00689175 0.163862)
(0.0596671 0.127339 -0.210681)
(0.157991 -0.0130157 0.0409277)
(-0.167485 -0.140341 -0.0682169)
(0.164044 0.0270806 -0.0972493)
(0.315653 -0.0569322 0.0521797)
(0.17172 0.029017 -0.0452836)
(-0.0409952 -0.114513 -0.0277278)
(0.108852 -0.121941 -0.0510519)
(0.147699 0.0908301 -0.0591389)
(0.0396816 -0.0949679 0.0974327)
(0.247348 0.0998157 0.154282)
(0.26556 -0.00488899 0.221448)
(0.383671 0.0205842 0.0951433)
(0.304468 -0.0837688 0.0990538)
(0.315063 -0.0419496 0.0129315)
(0.401851 -0.0202175 0.128517)
(0.334734 -0.140846 0.0308557)
(0.382683 0.0446796 -6.02038e-05)
(0.27683 -0.154073 0.00850803)
(0.266846 -0.0409374 0.168768)
(0.387986 0.0364136 0.0727288)
(0.32973 0.0512061 -0.00826289)
(0.528097 -0.0209335 -0.130291)
(0.365056 0.0877766 0.0169287)
(0.327736 -0.0430449 -0.155388)
(0.487444 0.0258853 0.151129)
(0.274146 -0.0782073 -0.0482363)
(0.378504 -0.0625059 -0.154282)
(0.609075 0.143785 -0.0901085)
(0.451785 0.0357509 -0.0116507)
(0.440456 -0.0295386 -0.123561)
(0.449764 -0.0715462 0.103568)
(0.429407 0.00587828 -0.073898)
(0.718141 -0.0246072 -0.0738116)
(0.414691 0.0175299 0.106366)
(0.783314 0.0627278 -0.378434)
(0.410144 0.12783 -0.00304529)
(0.437037 -0.168675 0.0409055)
(0.57956 0.106986 -0.0768192)
(0.466892 0.135074 -0.153913)
(0.472187 0.169904 0.171208)
(0.70081 -0.0350034 -0.167278)
(0.434911 -0.0136979 -0.214188)
(0.556649 0.0921998 0.156529)
(0.610032 -0.130954 -0.0379066)
(0.50652 0.00800344 -0.318389)
(0.669511 -0.0717646 0.173426)
(0.697907 -0.0982079 0.0573887)
(0.531208 0.0579499 0.0556928)
(0.588245 0.0763198 -0.0659239)
(0.577398 -0.0933777 -0.00120805)
(0.780176 -0.00369957 0.0783037)
(0.678367 0.0398683 0.0894345)
(0.603355 0.116167 -0.00485679)
(0.531137 0.0769694 0.11465)
(0.631793 0.0120944 0.0358626)
(0.763542 -0.00541534 0.00887785)
(0.703156 0.0482272 0.0558671)
(0.762978 0.0203998 0.0272814)
(0.498954 0.0936358 0.0377648)
(0.612566 0.0363461 -0.0630603)
(0.601815 0.0432677 0.0236379)
(0.741769 -0.0758113 0.261874)
(0.622041 0.0791188 0.0993263)
(0.684264 0.0681236 -0.116551)
(0.664934 0.0245971 0.252438)
(0.783208 -0.152054 -0.0606668)
(0.931771 0.0554341 -0.112759)
(0.870241 0.0525137 -0.0742538)
(0.76784 0.038502 0.0732292)
(0.583251 0.0860523 0.157486)
(0.878144 0.0804204 0.00680942)
(0.7247 -0.0410464 -0.0496158)
(0.881644 0.0559273 0.0282151)
(0.957254 -0.0258784 0.0560777)
(0.590999 0.064527 -0.143239)
(0.643434 -0.0358399 -0.0866137)
(0.79743 -0.139733 -0.127377)
(0.786657 0.0971151 -0.094784)
(0.875339 -0.058878 -0.0197029)
(0.934682 0.0153318 0.011521)
(0.770982 -0.193018 -0.0119052)
(0.745454 -0.0966308 0.0453752)
(0.646962 0.078532 -0.105739)
(0.686466 0.225433 -0.0155365)
(0.919246 -0.0492993 0.0651418)
(0.776422 -0.00715605 0.106031)
(0.929021 -0.0507575 0.0780275)
(0.882817 0.0162291 -0.0602924)
(0.789513 -0.0406765 0.0213009)
(0.917788 -0.0791299 -0.148869)
(0.776094 0.0595653 -0.0340091)
(0.855849 0.131206 -0.0610518)
(0.863215 0.0467588 0.0935944)
(0.75333 0.0327787 0.0832194)
(0.766249 -0.0313952 0.0430643)
(0.962939 -0.155727 -0.0059142)
(0.782672 -0.0113077 0.177328)
(0.876687 -0.0947829 -0.0830734)
(0.997646 -0.0977282 0.126185)
(0.86638 0.160773 -0.0244035)
(0.891524 0.0320887 -0.0629956)
(0.911166 0.0967098 -0.00165925)
(0.921565 -0.0913029 0.0286108)
(0.794683 0.0913078 0.145726)
(0.597404 -0.0462753 -0.0149092)
(0.980742 0.0768758 0.0480592)
(0.804388 -0.0443358 -0.0329853)
(0.813559 -0.0142871 -0.0993934)
(0.789169 0.0555045 -0.0516883)
)
;

boundaryField
{
    sides
    {
        type            symmetry;
    }
    empty
    {
        type            empty;
    }
    procBoundary1to0
    {
        type            processor;
        value           uniform (-0.0412023 0.0612903 -0.124148);
    }
    procBoundary1to2
    {
        type            processor;
        value           uniform (0.858552 0.0254317 0.11367);
    }
}


// ************************************************************************* //
