/*--------------------------------*- C++ -*----------------------------------*\
  =========                 |
  \\      /  F ield         | OpenFOAM: The Open Source CFD Toolbox
   \\    /   O peration     | Website:  https://openfoam.org
    \\  /    A nd           | Version:  7
     \\/     M anipulation  |
\*---------------------------------------------------------------------------*/
FoamFile
{
    version     2.0;
    format      ascii;
    class       volScalarField;
    location    "0.00252";
    object      rhoN;
}
// * * * * * * * * * * * * * * * * * * * * * * * * * * * * * * * * * * * * * //

dimensions      [0 -3 0 0 0 0 0];

internalField   nonuniform List<scalar> 
125
(
1.00357e+23
9.21429e+22
9.14286e+22
8.92857e+22
9.67857e+22
8.10714e+22
9.17857e+22
8.82143e+22
9.82143e+22
9.10714e+22
9.5e+22
1.01071e+23
8.14286e+22
8.85714e+22
9.42857e+22
7.85714e+22
8.28571e+22
8.5e+22
8.25e+22
8.60714e+22
8.60714e+22
8.89286e+22
8.35714e+22
9.32143e+22
7.42857e+22
7.82143e+22
8.03571e+22
9.28571e+22
8.07143e+22
8.17857e+22
8.53571e+22
8.28571e+22
7.07143e+22
7.10714e+22
7.25e+22
7.96429e+22
7.96429e+22
7.75e+22
7.85714e+22
7.5e+22
8.21429e+22
8.25e+22
6.35714e+22
8.14286e+22
7.03571e+22
7.42857e+22
7.42857e+22
6.82143e+22
6.71429e+22
6.96429e+22
5.92857e+22
6.42857e+22
6.17857e+22
6.75e+22
7.35714e+22
6.75e+22
6.21429e+22
6.10714e+22
6.85714e+22
5.96429e+22
6.35714e+22
5.96429e+22
6.42857e+22
5.89286e+22
6.28571e+22
6.75e+22
6.57143e+22
5.82143e+22
5.82143e+22
7.14286e+22
5.60714e+22
5.85714e+22
5.35714e+22
6.17857e+22
5.82143e+22
5.57143e+22
6.10714e+22
5.5e+22
5.57143e+22
5.28571e+22
5.21429e+22
5.14286e+22
5.14286e+22
5.75e+22
5.14286e+22
5.25e+22
6.03571e+22
5.89286e+22
4.82143e+22
5.32143e+22
5.28571e+22
5.03571e+22
5.35714e+22
4.39286e+22
4.46429e+22
3.92857e+22
4.39286e+22
4.85714e+22
4.5e+22
4.53571e+22
3.75e+22
5.14286e+22
4.46429e+22
4.28571e+22
5.28571e+22
5.21429e+22
4.42857e+22
4.60714e+22
4.71429e+22
4.89286e+22
4.57143e+22
4.21429e+22
4.25e+22
4.53571e+22
4.53571e+22
5.5e+22
4.5e+22
4.42857e+22
4.03571e+22
4.32143e+22
4.57143e+22
5.03571e+22
4.85714e+22
4.67857e+22
4.85714e+22
)
;

boundaryField
{
    sides
    {
        type            symmetry;
    }
    empty
    {
        type            empty;
    }
    procBoundary1to0
    {
        type            processor;
        value           uniform 9.39286e+22;
    }
    procBoundary1to2
    {
        type            processor;
        value           uniform 3.5e+22;
    }
}


// ************************************************************************* //
