/*--------------------------------*- C++ -*----------------------------------*\
  =========                 |
  \\      /  F ield         | OpenFOAM: The Open Source CFD Toolbox
   \\    /   O peration     | Website:  https://openfoam.org
    \\  /    A nd           | Version:  7
     \\/     M anipulation  |
\*---------------------------------------------------------------------------*/
FoamFile
{
    version     2.0;
    format      ascii;
    class       surfaceScalarField;
    location    "0.2";
    object      alphaPhi0.water;
}
// * * * * * * * * * * * * * * * * * * * * * * * * * * * * * * * * * * * * * //

dimensions      [0 3 -1 0 0 0 0];

internalField   nonuniform List<scalar> 
3782
(
1.65416e-25
-1.56983e-25
1.60639e-26
-2.02828e-26
1.44816e-27
-2.31986e-27
1.22725e-28
-2.40505e-28
9.76284e-30
-2.28682e-29
7.27254e-31
-2.00641e-30
5.06246e-32
-1.63401e-31
3.28719e-33
-1.23457e-32
1.98741e-34
-8.64055e-34
1.11667e-35
-5.6034e-35
5.81977e-37
-3.43149e-36
2.80875e-38
-1.94192e-37
1.25295e-39
-1.01222e-38
5.15671e-41
-4.85763e-40
1.95466e-42
-2.14449e-41
6.81231e-44
-8.69968e-43
2.17928e-45
-3.23902e-44
6.38922e-47
-1.10525e-45
1.71417e-48
-3.45153e-47
4.20283e-50
-9.84912e-49
9.4054e-52
-2.56388e-50
1.9191e-53
-6.07734e-52
3.56698e-55
-1.30872e-53
6.03718e-57
-2.56545e-55
9.39595e-59
-4.693e-57
1.33028e-60
-7.90332e-59
1.70988e-62
-1.2128e-60
1.99656e-64
-1.69125e-62
2.12501e-66
-2.14411e-64
2.05922e-68
-2.47798e-66
1.81616e-70
-2.6061e-68
1.46007e-72
-2.49134e-70
1.07442e-74
-2.04901e-72
7.26537e-77
-1.52776e-74
4.50944e-79
-1.04091e-76
2.54351e-81
-6.44531e-79
1.33061e-83
-3.57666e-81
6.49976e-86
-1.79751e-83
3.19323e-88
-8.2488e-86
1.57379e-90
-3.69954e-88
8.18787e-93
-1.60779e-90
5.34101e-93
-7.09143e-93
-1.79906e-94
-9.70646e-26
2.1886e-25
-3.27208e-26
1.59523e-25
-3.61603e-27
7.84198e-26
2.79816e-26
1.85692e-27
-1.37252e-26
1.98607e-26
-5.58401e-27
1.39688e-26
-1.33555e-27
6.67054e-27
2.31673e-27
-1.50614e-28
-1.63384e-27
1.69693e-27
-7.05747e-28
1.15619e-27
-1.96204e-28
5.37419e-28
1.81975e-28
-3.51488e-29
-1.7245e-28
1.36845e-28
-7.59335e-29
9.04655e-29
-2.22412e-29
4.10011e-29
1.35552e-29
-4.46955e-30
-1.65039e-29
1.03989e-29
-7.28059e-30
6.68125e-30
-2.17287e-30
2.9579e-30
9.56548e-31
-4.55797e-31
-1.44812e-30
7.4308e-31
-6.34786e-31
4.64993e-31
-1.90236e-31
2.01482e-31
6.38577e-32
-4.05875e-32
-1.17185e-31
4.98234e-32
-5.08488e-32
3.04468e-32
-1.51948e-32
1.29392e-32
4.02735e-33
-3.2598e-33
-8.77412e-33
3.12967e-33
-3.76312e-33
1.87249e-33
-1.11753e-33
7.82211e-34
2.3961e-34
-2.39787e-34
-6.08884e-34
1.83843e-34
-2.58079e-34
1.0798e-34
-7.60659e-35
4.44438e-35
1.34288e-35
-1.62859e-35
-3.91878e-35
1.00762e-35
-1.64276e-35
5.82864e-36
-4.80516e-36
2.36963e-36
7.07911e-37
-1.02587e-36
-2.33876e-36
5.14106e-37
-9.71153e-37
2.94e-37
-2.82124e-37
1.1837e-37
3.50499e-38
-6.0082e-38
-1.29397e-37
2.44023e-38
-5.33217e-38
1.38338e-38
-1.54045e-38
5.53113e-39
1.62752e-39
-3.27584e-39
-6.63209e-39
1.07534e-39
-2.71806e-39
6.06209e-40
-7.82269e-40
2.4139e-40
7.07739e-41
-1.66363e-40
-3.14594e-40
4.39131e-41
-1.28549e-40
2.46987e-41
-3.69338e-41
9.82431e-42
2.8782e-42
-7.86982e-42
-1.37957e-41
1.65894e-42
-5.63592e-42
9.34137e-43
-1.62036e-42
3.72335e-43
1.09318e-43
-3.46676e-43
-5.58621e-43
5.78811e-44
-2.28843e-43
3.27476e-44
-6.60093e-44
1.31225e-44
3.87285e-45
-1.42143e-44
-2.08611e-44
1.86226e-45
-8.59694e-45
1.06259e-45
-2.49492e-45
4.29525e-46
1.27829e-46
-5.42126e-46
-7.17566e-46
5.51714e-47
-2.9849e-46
3.18712e-47
-8.74168e-47
1.30418e-47
3.92666e-48
-1.922e-47
-2.27071e-47
1.50308e-48
-9.56856e-48
8.82601e-49
-2.83692e-48
3.66947e-49
1.12149e-49
-6.32966e-49
-6.60263e-49
3.76123e-50
-2.82916e-49
2.25427e-50
-8.5202e-50
9.55831e-51
2.97571e-51
-1.93497e-50
-1.76213e-50
8.63594e-52
-7.70819e-51
5.30556e-52
-2.36626e-51
2.30323e-52
7.33074e-53
-5.48723e-52
-4.31177e-52
1.81779e-53
-1.9335e-52
1.14978e-53
-6.07352e-53
5.13101e-54
1.69729e-54
-1.4427e-53
-9.6636e-54
3.50511e-55
-4.46118e-54
2.29306e-55
-1.44041e-54
1.0563e-55
3.64108e-56
-3.51695e-55
-1.98188e-55
6.18504e-57
-9.46271e-56
4.20694e-57
-3.15262e-56
2.00903e-57
7.20958e-58
-7.94211e-57
-3.71577e-57
9.98014e-59
-1.84414e-57
7.09897e-59
-6.36466e-58
3.53007e-59
1.31731e-59
-1.66041e-58
-6.36445e-59
1.47387e-60
-3.30046e-59
1.10187e-60
-1.18482e-59
5.73139e-61
2.2205e-61
-3.21295e-60
-9.95065e-61
1.99113e-62
-5.42261e-61
1.57368e-62
-2.03338e-61
8.60234e-63
3.45269e-63
-5.75394e-62
-1.41901e-62
2.46222e-64
-8.17703e-63
2.06925e-64
-3.21699e-63
1.19447e-64
4.95673e-65
-9.5373e-64
-1.84403e-64
2.78913e-66
-1.13161e-64
2.50739e-66
-4.69247e-65
1.53603e-66
6.72638e-67
-1.46347e-65
-2.18074e-66
2.91491e-68
-1.43705e-66
2.80355e-68
-6.3173e-67
1.83196e-68
8.51055e-69
-2.08009e-67
-2.35509e-68
2.80596e-70
-1.67512e-68
2.89785e-70
-7.84977e-69
2.03018e-70
1.00492e-70
-2.74115e-69
-2.29915e-70
2.472e-72
-1.79297e-70
2.77396e-72
-9.00863e-71
2.0954e-72
1.11024e-72
-3.35206e-71
-2.13728e-72
2.00531e-74
-1.76243e-72
2.46285e-74
-9.55789e-73
2.02011e-74
1.151e-74
-3.80693e-73
-1.84079e-74
1.50355e-76
-1.59153e-74
2.03827e-76
-9.38629e-75
1.82556e-76
1.12364e-76
-4.02082e-75
-1.4563e-76
1.04499e-78
-1.32014e-76
1.57931e-78
-8.5453e-77
1.55305e-78
1.0372e-78
-3.95606e-77
-1.05906e-78
6.80773e-81
-1.00368e-78
1.15155e-80
-7.22648e-79
1.25023e-80
9.0967e-81
-3.63366e-79
-7.08067e-81
4.19187e-83
-6.9834e-81
7.96112e-83
-5.69164e-81
9.57695e-83
7.62313e-83
-3.12457e-81
-4.10603e-83
2.44815e-85
-4.86691e-83
5.26823e-85
-4.18875e-83
7.02439e-85
6.14319e-85
-2.52547e-83
-2.24187e-85
1.37586e-87
-3.1914e-85
3.35785e-87
-2.89622e-85
4.98285e-87
4.79465e-87
-1.93045e-85
-1.15889e-87
7.54905e-90
-1.99076e-87
2.08731e-89
-1.8957e-87
3.44828e-89
3.65183e-89
-1.40946e-87
-5.77804e-90
4.11641e-92
-1.20237e-89
1.27972e-91
-1.18503e-89
2.50947e-91
3.38208e-91
-9.99093e-90
-2.86147e-92
5.12209e-93
-6.75435e-92
1.39806e-92
-8.29048e-92
4.70795e-92
1.04404e-91
-8.70256e-92
-3.53199e-94
-6.27432e-94
-1.1347e-93
-9.50918e-94
1.01254e-27
7.97168e-27
2.86023e-28
1.59474e-27
5.71312e-29
2.65058e-28
9.04283e-30
3.74514e-29
1.18976e-30
4.58078e-30
1.33736e-31
4.91635e-31
1.30776e-32
4.67877e-32
1.12694e-33
3.98138e-33
8.64151e-35
3.05005e-34
5.94133e-36
2.11548e-35
3.68488e-37
1.33476e-36
2.07189e-38
7.69213e-38
1.06047e-39
4.06295e-39
4.95799e-41
1.97279e-40
2.12343e-42
8.82835e-42
8.35099e-44
3.6492e-43
3.02183e-45
1.39593e-44
1.00772e-46
4.94976e-46
3.10106e-48
1.62914e-47
8.81448e-50
4.98293e-49
2.31566e-51
1.41763e-50
5.62432e-53
3.75396e-52
1.26283e-54
9.25674e-54
2.61981e-56
2.12586e-55
5.01649e-58
4.54615e-57
8.85165e-60
9.04758e-59
1.43583e-61
1.67391e-60
2.13394e-63
2.87409e-62
2.89256e-65
4.56823e-64
3.55413e-67
6.69791e-66
3.92587e-69
9.01477e-68
3.85493e-71
1.10636e-69
3.3134e-73
1.22688e-71
2.43936e-75
1.21396e-73
1.49028e-77
1.05297e-75
7.19629e-80
7.803e-78
2.53234e-82
4.75025e-80
5.55823e-85
2.22666e-82
5.12176e-88
7.10138e-85
1.09517e-87
1.91434e-29
6.40111e-28
1.18134e-29
1.23677e-28
2.86745e-30
1.99844e-29
4.92377e-31
2.7619e-30
6.74636e-32
3.31041e-31
7.74746e-33
3.487e-32
7.66077e-34
3.26125e-33
6.63557e-35
2.73045e-34
5.09568e-36
2.06016e-35
3.50044e-37
1.40861e-36
2.16593e-38
8.76869e-38
1.21384e-39
4.9895e-39
6.18893e-41
2.60398e-40
2.88142e-42
1.25012e-41
1.22875e-43
5.53477e-43
4.81154e-45
2.26482e-44
1.73372e-46
8.58175e-46
5.75828e-48
3.01599e-47
1.76527e-49
9.8446e-49
5.00009e-51
2.988e-50
1.30946e-52
8.44085e-52
3.1718e-54
2.22088e-53
7.10557e-56
5.44503e-55
1.47155e-57
1.24423e-56
2.81457e-59
2.64954e-58
4.96401e-61
5.25513e-60
8.05432e-63
9.69841e-62
1.19836e-64
1.66269e-63
1.62766e-66
2.64159e-65
2.00601e-68
3.87585e-67
2.22508e-70
5.22683e-69
2.19669e-72
6.43618e-71
1.90086e-74
7.17171e-73
1.41093e-76
7.14168e-75
8.70408e-79
6.24473e-77
4.25097e-81
4.67338e-79
1.51542e-83
2.87833e-81
3.3746e-86
1.3674e-83
3.15529e-89
4.42582e-86
6.91221e-89
-3.2146e-30
4.90374e-29
7.41245e-32
9.18044e-30
9.56716e-32
1.42987e-30
2.14831e-32
1.92299e-31
3.27282e-33
2.25522e-32
3.96207e-34
2.33065e-33
4.03165e-35
2.14143e-34
3.54816e-36
1.76339e-35
2.7481e-37
1.30994e-36
1.89533e-38
8.82629e-38
1.17402e-39
5.419e-39
6.57408e-41
3.04349e-40
3.34499e-42
1.56889e-41
1.55291e-43
7.44463e-43
6.60004e-45
3.25993e-44
2.57511e-46
1.32017e-45
9.24429e-48
4.95366e-47
3.05899e-49
1.72504e-48
9.3442e-51
5.5828e-50
2.63783e-52
1.68109e-51
6.88695e-54
4.71445e-53
1.66365e-55
1.23225e-54
3.71852e-57
3.00338e-56
7.68748e-59
6.82772e-58
1.46865e-60
1.44765e-59
2.58898e-62
2.86139e-61
4.20195e-64
5.26755e-63
6.25907e-66
9.01746e-65
8.51944e-68
1.43216e-66
1.05335e-69
2.10319e-68
1.17354e-71
2.84261e-70
1.1652e-73
3.51318e-72
1.01551e-75
3.93519e-74
7.60338e-78
3.94585e-76
4.73917e-80
3.48034e-78
2.34254e-82
2.63215e-80
8.46629e-85
1.64139e-82
1.91425e-87
7.90941e-85
1.8172e-90
2.60021e-87
4.11355e-90
-5.8156e-31
3.57002e-30
-4.95364e-32
6.50613e-31
-1.14108e-33
9.83788e-32
5.23196e-34
1.27474e-32
1.2039e-34
1.45293e-33
1.68897e-35
1.46753e-34
1.84458e-36
1.32439e-35
1.68735e-37
1.07244e-36
1.33628e-38
7.84198e-38
9.33561e-40
5.2059e-39
5.82425e-41
3.15167e-40
3.27277e-42
1.74676e-41
1.66703e-43
8.89216e-43
7.73505e-45
4.1697e-44
3.28224e-46
1.80552e-45
1.27769e-47
7.23491e-47
4.5743e-49
2.68787e-48
1.50924e-50
9.27324e-50
4.59647e-52
2.97512e-51
1.29379e-53
8.88674e-53
3.36867e-55
2.47383e-54
8.11772e-57
6.42282e-56
1.81071e-58
1.55613e-57
3.73748e-60
3.51936e-59
7.13314e-62
7.42972e-61
1.25705e-63
1.46354e-62
2.04117e-65
2.68776e-64
3.0446e-67
4.59509e-66
4.15397e-69
7.29703e-68
5.15407e-71
1.07285e-69
5.76954e-73
1.45377e-71
5.76383e-75
1.80411e-73
5.06185e-77
2.03246e-75
3.82513e-79
2.05331e-77
2.4104e-81
1.82809e-79
1.20663e-83
1.39826e-81
4.42391e-86
8.83551e-84
1.01604e-88
4.32206e-86
9.79e-92
1.44415e-88
2.31371e-91
-6.55362e-32
2.46736e-31
-7.15353e-33
4.38685e-32
-5.67037e-34
6.46437e-33
-2.41931e-35
8.14223e-34
1.55605e-36
8.9636e-35
4.94686e-37
8.76093e-36
6.75569e-38
7.71854e-37
6.82395e-39
6.14145e-38
5.69946e-40
4.42028e-39
4.10712e-41
2.89094e-40
2.61064e-42
1.72567e-41
1.4836e-43
9.43747e-43
7.60668e-45
4.74403e-44
3.54177e-46
2.19816e-45
1.50497e-47
9.41145e-47
5.85832e-49
3.73134e-48
2.09535e-50
1.37244e-49
6.9026e-52
4.69072e-51
2.09823e-53
1.49181e-52
5.89391e-55
4.42016e-54
1.5315e-56
1.22137e-55
3.6837e-58
3.14989e-57
8.20388e-60
7.58649e-59
1.69141e-61
1.70702e-60
3.22616e-63
3.58848e-62
5.68565e-65
7.04571e-64
9.23988e-67
1.29106e-65
1.38062e-68
2.20488e-67
1.88892e-70
3.502e-69
2.35297e-72
5.1568e-71
2.6478e-74
7.0089e-73
2.66289e-76
8.73824e-75
2.35788e-78
9.90696e-77
1.79947e-80
1.00908e-78
1.14716e-82
9.07531e-81
5.81956e-85
7.02597e-83
2.16567e-87
4.50257e-85
5.05389e-90
2.23773e-87
4.9407e-93
7.60459e-90
1.23344e-92
-6.06381e-33
1.61705e-32
-7.15113e-34
2.81102e-33
-6.73784e-35
4.04479e-34
-4.94764e-36
4.96999e-35
-2.48421e-37
5.32467e-36
-2.05798e-39
5.04558e-37
1.3823e-39
4.28353e-38
2.05933e-40
3.32643e-39
1.99783e-41
2.3463e-40
1.55341e-42
1.51183e-41
1.03155e-43
8.89874e-43
6.02105e-45
4.80236e-44
3.13941e-46
2.38388e-45
1.47732e-47
1.09151e-46
6.31864e-49
4.62105e-48
2.46904e-50
1.81277e-49
8.84847e-52
6.60145e-51
2.91701e-53
2.23528e-52
8.86616e-55
7.04745e-54
2.48901e-56
2.07143e-55
6.46215e-58
5.68196e-57
1.55297e-59
1.45574e-58
3.45606e-61
3.48585e-60
7.12242e-63
7.80466e-62
1.35857e-64
1.63409e-63
2.39585e-66
3.19871e-65
3.89904e-68
5.85005e-67
5.83939e-70
9.98347e-69
8.0161e-72
1.58659e-70
1.00308e-73
2.34101e-72
1.13541e-75
3.19315e-74
1.15027e-77
4.00192e-76
1.02763e-79
4.56921e-78
7.92607e-82
4.69582e-80
5.11543e-84
4.26971e-82
2.63168e-86
3.34875e-84
9.94641e-89
2.17843e-86
2.35939e-91
1.10094e-88
2.33962e-94
3.80798e-91
6.25083e-94
-4.94296e-34
1.00356e-33
-6.0065e-35
1.70971e-34
-5.99958e-36
2.40791e-35
-4.96635e-37
2.89185e-36
-3.35584e-38
3.02506e-37
-1.74322e-39
2.79426e-38
-5.31669e-41
2.30805e-39
1.74902e-42
1.73182e-40
4.52634e-43
1.18329e-41
4.55405e-44
7.46544e-43
3.39543e-45
4.32348e-44
2.1125e-46
2.30279e-45
1.14486e-47
1.129e-46
5.52154e-49
5.10899e-48
2.39991e-50
2.13908e-49
9.47795e-52
8.30398e-51
3.42054e-53
2.99442e-52
1.13275e-54
1.00465e-53
3.45287e-56
3.14055e-55
9.71041e-58
9.15861e-57
2.52378e-59
2.49431e-58
6.06932e-61
6.34979e-60
1.3515e-62
1.51203e-61
2.78723e-64
3.36947e-63
5.32205e-66
7.0284e-65
9.40008e-68
1.3721e-66
1.53321e-69
2.5055e-68
2.30335e-71
4.27452e-70
3.17502e-73
6.80044e-72
3.99412e-75
1.00598e-73
4.55112e-77
1.37793e-75
4.64825e-79
1.73722e-77
4.19313e-81
1.99902e-79
3.27116e-83
2.07461e-81
2.13902e-85
1.90884e-83
1.1168e-87
1.51811e-85
4.2897e-90
1.00345e-87
1.0348e-92
5.16175e-90
1.04062e-95
1.81856e-92
3.01985e-95
-3.65129e-35
5.88959e-35
-4.48635e-36
9.85685e-36
-4.58379e-37
1.36203e-36
-3.96091e-38
1.60271e-37
-2.90762e-39
1.64039e-38
-1.80318e-40
1.4809e-39
-9.22482e-42
1.19458e-40
-3.50679e-43
8.73274e-42
-5.549e-45
5.79633e-43
5.87673e-46
3.53237e-44
7.69129e-47
1.9947e-45
5.84432e-48
1.04204e-46
3.49762e-49
5.04275e-48
1.78705e-50
2.25589e-49
8.05466e-52
9.3433e-51
3.25822e-53
3.59022e-52
1.1952e-54
1.28228e-53
4.00302e-56
4.26379e-55
1.22994e-57
1.32186e-56
3.47862e-59
3.82564e-58
9.07879e-61
1.03475e-59
2.19031e-62
2.61812e-61
4.89028e-64
6.20152e-63
1.01101e-65
1.37595e-64
1.93537e-67
2.86044e-66
3.42816e-69
5.57146e-68
5.61074e-71
1.01626e-69
8.46438e-73
1.73418e-71
1.17278e-74
2.76351e-73
1.48462e-76
4.10118e-75
1.70454e-78
5.6451e-77
1.75671e-80
7.16498e-79
1.60161e-82
8.3164e-81
1.26487e-84
8.72368e-83
8.38724e-87
8.13007e-85
4.44759e-89
6.56324e-87
1.73729e-91
4.41245e-89
4.26326e-94
2.31252e-91
4.34487e-97
8.30514e-94
1.39416e-96
-2.47778e-36
3.2639e-36
-3.05195e-37
5.37925e-37
-3.14273e-38
7.31071e-38
-2.76054e-39
8.44922e-39
-2.08996e-40
8.48203e-40
-1.3722e-41
7.50103e-41
-7.83901e-43
5.92052e-42
-3.81869e-44
4.23145e-43
-1.52898e-45
2.74263e-44
-4.39212e-47
1.62943e-45
-2.47306e-49
8.92822e-47
8.14034e-50
4.51075e-48
7.52802e-51
2.13984e-49
4.5786e-52
9.40617e-51
2.26307e-53
3.85435e-52
9.67891e-55
1.4665e-53
3.68142e-56
5.1895e-55
1.26383e-57
1.71078e-56
3.95141e-59
5.26171e-58
1.13181e-60
1.51178e-59
2.982e-62
4.06238e-61
7.2473e-64
1.02197e-62
1.62779e-65
2.40894e-64
3.38274e-67
5.32375e-66
6.50676e-69
1.10352e-67
1.15812e-70
2.14556e-69
1.90517e-72
3.91148e-71
2.89054e-74
6.68011e-73
4.0311e-76
1.06697e-74
5.14158e-78
1.58966e-76
5.95505e-80
2.20056e-78
6.19981e-82
2.81423e-80
5.71861e-84
3.29786e-82
4.57645e-86
3.49994e-84
3.07991e-88
3.3072e-86
1.66e-90
2.71286e-88
6.59715e-93
1.85701e-90
1.64678e-95
9.92532e-93
1.6973e-98
3.63604e-95
6.16173e-98
-1.55603e-37
1.70563e-37
-1.91363e-38
2.77515e-38
-1.97253e-39
3.71868e-39
-1.74129e-40
4.23157e-40
-1.33328e-41
4.17672e-41
-8.9449e-43
3.627e-42
-5.31208e-44
2.80784e-43
-2.77677e-45
1.96599e-44
-1.27535e-46
1.24736e-45
-5.0558e-48
7.25037e-47
-1.64183e-49
3.8809e-48
-3.75357e-51
1.91394e-49
-3.44987e-54
8.81175e-51
6.03763e-54
3.75341e-52
4.45704e-55
1.51301e-53
2.25709e-56
5.66797e-55
9.41876e-58
1.98717e-56
3.42463e-59
6.49739e-58
1.11252e-60
1.98333e-59
3.27335e-62
5.65954e-61
8.79523e-64
1.51155e-62
2.1696e-65
3.78251e-64
4.9307e-67
8.87665e-66
1.03467e-68
1.95498e-67
2.00715e-70
4.04267e-69
3.60055e-72
7.85056e-71
5.96863e-74
1.43131e-72
9.12718e-76
2.44807e-74
1.28359e-77
3.92201e-76
1.65232e-79
5.87093e-78
1.93342e-81
8.1803e-80
2.03608e-83
1.05505e-81
1.90229e-85
1.24944e-83
1.54422e-87
1.34292e-85
1.05566e-89
1.288e-87
5.78643e-92
1.07471e-89
2.33978e-94
7.49824e-92
5.93264e-97
4.09092e-94
6.13984e-100
1.52946e-96
2.6095e-99
-9.07999e-39
8.39293e-39
-1.11314e-39
1.35161e-39
-1.14504e-40
1.79026e-40
-1.01052e-41
2.01078e-41
-7.75799e-43
1.95621e-42
-5.24292e-44
1.67212e-43
-3.15882e-45
1.27267e-44
-1.69473e-46
8.75038e-46
-8.146e-48
5.44667e-47
-3.50195e-49
3.10336e-48
-1.33048e-50
1.62742e-49
-4.42107e-52
7.86085e-51
-1.2121e-53
3.53929e-52
-2.38925e-55
1.47414e-53
-5.37391e-58
5.77603e-55
2.52206e-58
2.10248e-56
1.62595e-59
7.26152e-58
7.10482e-61
2.34288e-59
2.55461e-62
7.08889e-61
8.0105e-64
2.00998e-62
2.24731e-65
5.3383e-64
5.71797e-67
1.32949e-65
1.33009e-68
3.10794e-67
2.84263e-70
6.8252e-69
5.59811e-72
1.40886e-70
1.01738e-73
2.73434e-72
1.70656e-75
4.98903e-74
2.63925e-77
8.5521e-76
3.75358e-79
1.37537e-77
4.88809e-81
2.07029e-79
5.7901e-83
2.90616e-81
6.17818e-85
3.78368e-83
5.85482e-87
4.53281e-85
4.82632e-89
4.9393e-87
3.354e-91
4.81351e-89
1.87013e-93
4.09e-91
7.68826e-96
2.91161e-93
1.97302e-98
1.62303e-95
2.01667e-101
6.19497e-98
1.05993e-100
-4.93471e-40
3.88348e-40
-6.02912e-41
6.20643e-41
-6.18236e-42
8.14688e-42
-5.44231e-43
9.05473e-43
-4.17286e-44
8.704e-44
-2.82249e-45
7.34126e-45
-1.70748e-46
5.50651e-46
-9.2453e-48
3.7266e-47
-4.52002e-49
2.28094e-48
-2.00073e-50
1.27682e-49
-7.98781e-52
6.57317e-51
-2.89275e-53
3.1154e-52
-9.32742e-55
1.37596e-53
-2.66861e-56
5.62144e-55
-6.43073e-58
2.1578e-56
-1.18567e-59
7.6965e-58
-8.5403e-62
2.59166e-59
5.4888e-63
8.15247e-61
3.58822e-64
2.42812e-62
1.4196e-65
6.81048e-64
4.50926e-67
1.79225e-65
1.23959e-68
4.44471e-67
3.03933e-70
1.03565e-68
6.7484e-72
2.26924e-70
1.36838e-73
4.67895e-72
2.54585e-75
9.08222e-74
4.35563e-77
1.65964e-75
6.85452e-79
2.85353e-77
9.90652e-81
4.6106e-79
1.31011e-82
6.98513e-81
1.57575e-84
9.88781e-83
1.70764e-86
1.30084e-84
1.64431e-88
1.57811e-86
1.37804e-90
1.74527e-88
9.73991e-93
1.73009e-90
5.52225e-95
1.49862e-92
2.30351e-97
1.0897e-94
5.94205e-100
6.21229e-97
5.83295e-103
2.42215e-99
4.13908e-102
-2.50074e-41
1.6874e-41
-3.04696e-42
2.68352e-42
-3.11487e-43
3.50016e-43
-2.73342e-44
3.85945e-44
-2.08993e-45
3.67497e-45
-1.41082e-46
3.06598e-46
-8.52974e-48
2.27183e-47
-4.62672e-49
1.51691e-48
-2.2741e-50
9.15076e-50
-1.0173e-51
5.04391e-51
-4.13763e-53
2.55478e-52
-1.54493e-54
1.19069e-53
-5.2373e-56
5.16838e-55
-1.62893e-57
2.07477e-56
-4.5585e-59
7.82529e-58
-1.14899e-60
2.74298e-59
-2.51516e-62
9.06996e-61
-4.53888e-64
2.80285e-62
-5.4313e-66
8.17666e-64
2.41179e-68
2.24493e-65
4.22458e-69
5.79822e-67
1.70346e-70
1.42643e-68
5.01121e-72
3.30148e-70
1.23978e-73
7.19783e-72
2.7014e-75
1.4835e-73
5.29216e-77
2.88216e-75
9.41718e-79
5.27892e-77
1.5294e-80
9.11165e-79
2.26953e-82
1.48043e-80
3.07151e-84
2.25954e-82
3.77244e-86
3.22858e-84
4.16886e-88
4.29642e-86
4.08963e-90
5.28376e-88
3.48895e-92
5.93708e-90
2.50766e-94
5.9933e-92
1.44286e-96
5.29814e-94
6.07806e-99
3.93918e-96
1.56091e-101
2.29907e-98
1.40418e-104
9.16575e-101
1.55965e-103
-1.1823e-42
6.8759e-43
-1.43837e-43
1.09121e-43
-1.46717e-44
1.41807e-44
-1.28395e-45
1.55535e-45
-9.78719e-47
1.47079e-46
-6.5875e-48
1.21677e-47
-3.97269e-49
8.92817e-49
-2.1516e-50
5.89548e-50
-1.05766e-51
3.51331e-51
-4.74341e-53
1.91117e-52
-1.94133e-54
9.54518e-54
-7.33119e-56
4.38394e-55
-2.53263e-57
1.87412e-56
-8.11501e-59
7.40752e-58
-2.37937e-60
2.75e-59
-6.45652e-62
9.48883e-61
-1.59768e-63
3.08923e-62
-3.60956e-65
9.40337e-64
-7.32314e-67
2.70177e-65
-1.29853e-68
7.30896e-67
-1.91346e-70
1.86068e-68
-1.89822e-72
4.50016e-70
4.92251e-75
1.02572e-71
9.01458e-76
2.20822e-73
2.99789e-77
4.53704e-75
7.2066e-79
8.80214e-77
1.45076e-80
1.61286e-78
2.5602e-82
2.79043e-80
4.03452e-84
4.56225e-82
5.7162e-86
7.02165e-84
7.28027e-88
1.01376e-85
8.2864e-90
1.36602e-87
8.32842e-92
1.70483e-89
7.24516e-94
1.94844e-91
5.28254e-96
2.00513e-93
3.06074e-98
1.81094e-95
1.28e-100
1.37823e-97
3.1273e-103
8.24429e-100
2.09045e-106
3.36484e-102
5.7084e-105
-5.21531e-44
2.6243e-44
-6.3457e-45
4.16809e-45
-6.46719e-46
5.41186e-46
-5.64965e-47
5.92014e-47
-4.29619e-48
5.57403e-48
-2.88355e-49
4.58416e-49
-1.73377e-50
3.33903e-50
-9.36423e-52
2.18566e-51
-4.59342e-53
1.28968e-52
-2.05793e-54
6.93935e-54
-8.42887e-56
3.42497e-55
-3.19307e-57
1.55347e-56
-1.11047e-58
6.55419e-58
-3.5986e-60
2.55584e-59
-1.0742e-61
9.35793e-61
-2.99438e-63
3.18452e-62
-7.71217e-65
1.02248e-63
-1.84895e-66
3.07046e-65
-4.10504e-68
8.70748e-67
-8.40224e-70
2.32662e-68
-1.59187e-71
5.85451e-70
-2.74895e-73
1.40015e-71
-4.28008e-75
3.15979e-73
-5.91866e-77
6.74317e-75
-6.86987e-79
1.37168e-76
-5.77832e-81
2.64086e-78
-8.29596e-84
4.81443e-80
1.00456e-84
8.30968e-82
2.77191e-86
1.36508e-83
5.07806e-88
2.11688e-85
7.49265e-90
3.08677e-87
9.33492e-92
4.21146e-89
9.90053e-94
5.33549e-91
8.82594e-96
6.2061e-93
6.39704e-98
6.51662e-95
3.53021e-100
6.02e-97
1.28835e-102
4.69668e-99
1.94938e-105
2.88535e-101
-9.90316e-109
1.21022e-103
2.06986e-106
-2.14603e-45
9.37033e-46
-2.61667e-46
1.4939e-46
-2.66902e-47
1.9435e-47
-2.33091e-48
2.12624e-48
-1.77026e-49
1.99853e-49
-1.18581e-50
1.63808e-50
-7.11149e-52
1.18733e-51
-3.83022e-53
7.72283e-53
-1.87364e-54
4.5226e-54
-8.3738e-56
2.41244e-55
-3.42421e-57
1.17925e-56
-1.29653e-58
5.29351e-58
-4.51481e-60
2.20874e-59
-1.46822e-61
8.5148e-61
-4.41208e-63
3.08076e-62
-1.24299e-64
1.03592e-63
-3.25276e-66
3.2863e-65
-7.97744e-68
9.75297e-67
-1.82837e-69
2.73423e-68
-3.91057e-71
7.22643e-70
-7.87203e-73
1.80005e-71
-1.47937e-74
4.26573e-73
-2.59798e-76
9.55064e-75
-4.29282e-78
2.02476e-76
-6.62435e-80
4.09625e-78
-9.54536e-82
7.85801e-80
-1.28426e-83
1.43037e-81
-1.62098e-85
2.47075e-83
-1.91285e-87
4.06524e-85
-2.11469e-89
6.33154e-87
-2.20035e-91
9.30165e-89
-2.16761e-93
1.28275e-90
-2.02934e-95
1.648e-92
-1.79417e-97
1.95022e-94
-1.45833e-99
2.09005e-96
-1.02987e-101
1.97667e-98
-5.73397e-104
1.58352e-100
-2.11008e-106
1.00202e-102
-1.49748e-109
4.34648e-105
7.56404e-108
-8.23442e-47
3.12665e-47
-1.00837e-47
5.01906e-48
-1.03146e-48
6.56154e-49
-9.02105e-50
7.19923e-50
-6.85302e-51
6.77339e-51
-4.58713e-52
5.54736e-52
-2.74659e-53
4.0112e-53
-1.47612e-54
2.59878e-54
-7.20273e-56
1.51393e-55
-3.21067e-57
8.02397e-57
-1.3098e-58
3.89315e-58
-4.9497e-60
1.73324e-59
-1.72178e-61
7.16715e-61
-5.59949e-63
2.73691e-62
-1.68557e-64
9.80459e-64
-4.7662e-66
3.26379e-65
-1.25521e-67
1.02485e-66
-3.10778e-69
3.01113e-68
-7.2191e-71
8.35922e-70
-1.57239e-72
2.18881e-71
-3.24152e-74
5.4053e-73
-6.28147e-76
1.27094e-74
-1.14667e-77
2.82657e-76
-1.98804e-79
5.96027e-78
-3.25417e-81
1.2012e-79
-5.03532e-83
2.29955e-81
-7.37214e-85
4.18533e-83
-1.02612e-86
7.24423e-85
-1.35139e-88
1.1968e-86
-1.68018e-90
1.8763e-88
-1.9645e-92
2.78206e-90
-2.14436e-94
3.88296e-92
-2.15849e-96
5.06312e-94
-1.96391e-98
6.09855e-96
-1.56436e-100
6.67132e-98
-1.03592e-102
6.45825e-100
-5.21907e-105
5.31082e-102
-1.67651e-107
3.46161e-104
-9.39712e-111
1.55618e-106
2.77918e-109
-2.94483e-48
9.73996e-49
-3.63055e-49
1.57923e-49
-3.73241e-50
2.08088e-50
-3.27561e-51
2.29623e-51
-2.49348e-52
2.16839e-52
-1.67044e-53
1.77912e-53
-9.99957e-55
1.28658e-54
-5.36853e-56
8.32292e-56
-2.61523e-57
4.8345e-57
-1.16333e-58
2.55173e-58
-4.73537e-60
1.23159e-59
-1.78553e-61
5.4496e-61
-6.19974e-63
2.23789e-62
-2.01355e-64
8.48215e-64
-6.05866e-66
3.01439e-65
-1.71423e-67
9.95236e-67
-4.52412e-69
3.09891e-68
-1.12442e-70
9.02961e-70
-2.6275e-72
2.48638e-71
-5.77125e-74
6.46033e-73
-1.20306e-75
1.58408e-74
-2.36485e-77
3.70088e-76
-4.39403e-79
8.18696e-78
-7.78155e-81
1.71926e-79
-1.30586e-82
3.45541e-81
-2.07895e-84
6.6079e-83
-3.14162e-86
1.20365e-84
-4.52449e-88
2.08932e-86
-6.17486e-90
3.46938e-88
-7.95747e-92
5.48007e-90
-9.63146e-94
8.2073e-92
-1.08522e-95
1.16009e-93
-1.12277e-97
1.53607e-95
-1.04434e-99
1.88395e-97
-8.45261e-102
2.10422e-99
-5.65054e-104
2.08558e-101
-2.85366e-106
1.76127e-103
-9.10438e-109
1.18429e-105
-4.82094e-112
5.54948e-108
1.03403e-110
-9.81041e-50
2.83014e-50
-1.22081e-50
4.64996e-51
-1.26439e-51
6.19432e-52
-1.11591e-52
6.89459e-53
-8.529e-54
6.55292e-54
-5.72892e-55
5.40055e-55
-3.4342e-56
3.91572e-56
-1.84444e-57
2.53544e-57
-8.98103e-59
1.47195e-58
-3.99061e-60
7.75464e-60
-1.622e-61
3.73136e-61
-6.10518e-63
1.64449e-62
-2.11622e-64
6.72021e-64
-6.86206e-66
2.53318e-65
-2.06244e-67
8.94792e-67
-5.83202e-69
2.93553e-68
-1.53964e-70
9.08009e-70
-3.83169e-72
2.62837e-71
-8.97721e-74
7.19055e-73
-1.98001e-75
1.85686e-74
-4.15134e-77
4.52752e-76
-8.22347e-79
1.05252e-77
-1.54293e-80
2.31907e-79
-2.76485e-82
4.85612e-81
-4.70511e-84
9.7446e-83
-7.61191e-86
1.86352e-84
-1.17116e-87
3.40052e-86
-1.72012e-89
5.92488e-88
-2.39729e-91
9.8962e-90
-3.15779e-93
1.57594e-91
-3.90875e-95
2.38532e-93
-4.50436e-97
3.4162e-95
-4.76466e-99
4.59517e-97
-4.52828e-101
5.74055e-99
-3.74162e-103
6.54845e-101
-2.55125e-105
6.64766e-103
-1.31412e-107
5.76993e-105
-4.29095e-110
4.01283e-107
-2.28003e-113
1.9783e-109
3.93988e-112
-3.04284e-51
7.66494e-52
-3.83247e-52
1.2804e-52
-4.00889e-53
1.72977e-53
-3.56639e-54
1.94774e-54
-2.74274e-55
1.86844e-55
-1.85084e-56
1.55088e-56
-1.11304e-57
1.13033e-57
-5.99004e-59
7.3437e-59
-2.91968e-60
4.27112e-60
-1.29757e-61
2.25106e-61
-5.272e-63
1.08223e-62
-1.98264e-64
4.76068e-64
-6.86511e-66
1.93996e-65
-2.22342e-67
7.287e-67
-6.6759e-69
2.56328e-68
-1.88628e-70
8.37134e-70
-4.97857e-72
2.57685e-71
-1.23948e-73
7.42267e-73
-2.90757e-75
2.02079e-74
-6.4276e-77
5.19446e-76
-1.35223e-78
1.26132e-77
-2.6916e-80
2.92176e-79
-5.08201e-82
6.42044e-81
-9.17825e-84
1.34226e-82
-1.57683e-85
2.69231e-84
-2.57972e-87
5.15418e-86
-4.02053e-89
9.43123e-88
-5.99095e-91
1.65086e-89
-8.48369e-93
2.77574e-91
-1.13705e-94
4.45946e-93
-1.43391e-96
6.82559e-95
-1.68533e-98
9.90955e-97
-1.82003e-100
1.35465e-98
-1.76748e-102
1.72433e-100
-1.49362e-104
2.00961e-102
-1.04302e-106
2.09044e-104
-5.52417e-109
1.86701e-106
-1.8806e-111
1.3483e-108
-1.04581e-114
7.08945e-111
1.55586e-113
-8.78233e-53
1.93379e-53
-1.12278e-53
3.29547e-54
-1.18933e-54
4.52933e-55
-1.06912e-55
5.17496e-56
-8.29205e-57
5.02469e-57
-5.63339e-58
4.21188e-58
-3.40527e-59
3.09368e-59
-1.83965e-60
2.02176e-60
-8.99087e-62
1.18079e-61
-4.00251e-63
6.23996e-63
-1.62777e-64
3.00399e-64
-6.1234e-66
1.32175e-65
-2.12016e-67
5.38179e-67
-6.86399e-69
2.01841e-68
-2.06011e-70
7.08386e-70
-5.81857e-72
2.30725e-71
-1.5356e-73
7.08012e-73
-3.82415e-75
2.03289e-74
-8.97863e-77
5.51642e-76
-1.98814e-78
1.41366e-77
-4.19307e-80
3.42344e-79
-8.37641e-82
7.9128e-81
-1.58919e-83
1.7364e-82
-2.88765e-85
3.62862e-84
-4.99861e-87
7.28344e-86
-8.25245e-89
1.39729e-87
-1.29996e-90
2.56627e-89
-1.96095e-92
4.51672e-91
-2.8157e-94
7.65066e-93
-3.83284e-96
1.24087e-94
-4.91707e-98
1.92168e-96
-5.88841e-100
2.82957e-98
-6.48916e-102
3.93266e-100
-6.44077e-104
5.10235e-102
-5.5728e-106
6.07749e-104
-3.9964e-108
6.48205e-106
-2.19105e-110
5.96726e-108
-7.92254e-113
4.50139e-110
-4.79373e-116
2.57316e-112
6.42835e-115
-2.35776e-54
4.58497e-55
-3.06863e-55
8.01921e-56
-3.30073e-56
1.11179e-56
-3.00587e-57
1.29278e-57
-2.35675e-58
1.27418e-58
-1.61551e-59
1.08156e-59
-9.83622e-61
8.02695e-61
-5.34453e-62
5.2896e-62
-2.6237e-63
3.10967e-63
-1.17191e-64
1.65149e-64
-4.77778e-66
7.97857e-66
-1.80034e-67
3.51876e-67
-6.24072e-69
1.43451e-68
-2.02183e-70
5.38216e-70
-6.07126e-72
1.88819e-71
-1.71539e-73
6.14436e-73
-4.5294e-75
1.88289e-74
-1.12875e-76
5.39781e-76
-2.6531e-78
1.46228e-77
-5.88469e-80
3.74146e-79
-1.24402e-81
9.04923e-81
-2.49332e-83
2.08985e-82
-4.75083e-85
4.5855e-84
-8.67961e-87
9.58986e-86
-1.51268e-88
1.92837e-87
-2.51797e-90
3.71103e-89
-4.00531e-92
6.84729e-91
-6.1108e-94
1.21277e-92
-8.88948e-96
2.07101e-94
-1.22808e-97
3.39321e-96
-1.60177e-99
5.31991e-98
-1.95372e-101
7.94831e-100
-2.19695e-103
1.12357e-101
-2.22939e-105
1.48639e-103
-1.97702e-107
1.81023e-105
-1.45981e-109
1.98131e-107
-8.34896e-112
1.88482e-109
-3.27805e-114
1.49814e-111
-2.2361e-117
9.54253e-114
2.78672e-116
-5.88964e-56
1.0171e-56
-7.82317e-57
1.83113e-57
-8.56777e-58
2.59206e-58
-7.92513e-59
3.03636e-59
-6.29698e-60
3.04664e-60
-4.3653e-61
2.62596e-61
-2.68291e-62
1.97432e-62
-1.46913e-63
1.31519e-63
-7.25804e-65
7.80113e-65
-3.25847e-66
4.17309e-66
-1.33389e-67
2.02762e-67
-5.04232e-69
8.98199e-69
-1.75232e-70
3.6736e-70
-5.6881e-72
1.38151e-71
-1.71084e-73
4.85372e-73
-4.84041e-75
1.58082e-74
-1.2798e-76
4.84588e-76
-3.19382e-78
1.38929e-77
-7.51964e-80
3.76313e-79
-1.67142e-81
9.62769e-81
-3.54275e-83
2.32892e-82
-7.12498e-85
5.38106e-84
-1.36354e-86
1.18203e-85
-2.50455e-88
2.47681e-87
-4.39389e-90
4.99482e-89
-7.37259e-92
9.65177e-91
-1.18392e-93
1.79072e-92
-1.82633e-95
3.19429e-94
-2.69086e-97
5.50324e-96
-3.7718e-99
9.11421e-98
-5.00082e-101
1.44738e-99
-6.21231e-103
2.19523e-101
-7.12901e-105
3.15747e-103
-7.39936e-107
4.26071e-105
-6.73278e-109
5.3083e-107
-5.13524e-111
5.96919e-109
-3.09459e-113
5.88987e-111
-1.35432e-115
4.99399e-113
-1.06929e-118
3.64594e-115
1.26047e-117
-1.36764e-57
2.0922e-58
-1.8609e-58
3.89203e-59
-2.07996e-59
5.66659e-60
-1.95938e-60
6.73201e-61
-1.58171e-61
6.86955e-62
-1.11154e-62
6.02897e-63
-6.9112e-64
4.60406e-64
-3.82195e-65
3.10805e-65
-1.90391e-66
1.8645e-66
-8.60694e-68
1.00689e-67
-3.54385e-69
4.93094e-69
-1.34605e-70
2.19855e-70
-4.69664e-72
9.03911e-72
-1.52961e-73
3.41365e-73
-4.61396e-75
1.20328e-74
-1.30866e-76
3.92925e-76
-3.46831e-78
1.20689e-77
-8.67539e-80
3.46582e-79
-2.04762e-81
9.40088e-81
-4.56407e-83
2.40842e-82
-9.7051e-85
5.83471e-84
-1.95946e-86
1.35053e-85
-3.76762e-88
2.97357e-87
-6.95947e-90
6.24982e-89
-1.22927e-91
1.26531e-90
-2.07939e-93
2.45744e-92
-3.37119e-95
4.58854e-94
-5.25837e-97
8.24989e-96
-7.84699e-99
1.43493e-97
-1.11604e-100
2.40361e-99
-1.50422e-102
3.86832e-101
-1.90335e-104
5.95854e-103
-2.22955e-106
8.72368e-105
-2.36819e-108
1.20125e-106
-2.21412e-110
1.53202e-108
-1.75189e-112
1.77295e-110
-1.12735e-114
1.82431e-112
-5.65744e-117
1.67762e-114
-5.22886e-120
1.44279e-116
5.87793e-119
-2.95083e-59
3.98827e-60
-4.12695e-60
7.69715e-61
-4.72335e-61
1.15678e-61
-4.54288e-62
1.4123e-62
-3.73541e-63
1.46114e-63
-2.66749e-64
1.30935e-64
-1.68173e-65
1.01825e-65
-9.41215e-67
6.98327e-67
-4.73721e-68
4.2468e-68
-2.16048e-69
2.32047e-69
-8.96324e-71
1.14781e-70
-3.42645e-72
5.16162e-72
-1.20223e-73
2.13745e-73
-3.93411e-75
8.12148e-75
-1.19172e-76
2.87731e-76
-3.39271e-78
9.43646e-78
-9.02313e-80
2.90902e-79
-2.26454e-81
8.38072e-81
-5.3631e-83
2.27979e-82
-1.19976e-84
5.85679e-84
-2.56125e-86
1.42292e-85
-5.19467e-88
3.30354e-87
-1.00409e-89
7.29924e-89
-1.86608e-91
1.54052e-90
-3.31988e-93
3.13428e-92
-5.6633e-95
6.12381e-94
-9.27206e-97
1.15173e-95
-1.46268e-98
2.08869e-97
-2.21118e-100
3.67013e-99
-3.19148e-102
6.22158e-101
-4.37359e-104
1.01524e-102
-5.63814e-106
1.58888e-104
-6.74375e-108
2.36879e-106