/*--------------------------------*- C++ -*----------------------------------*\
  =========                 |
  \\      /  F ield         | OpenFOAM: The Open Source CFD Toolbox
   \\    /   O peration     | Website:  https://openfoam.org
    \\  /    A nd           | Version:  7
     \\/     M anipulation  |
\*---------------------------------------------------------------------------*/
FoamFile
{
    version     2.0;
    format      ascii;
    class       Cloud<dsmcParcel>;
    location    "0.00324/lagrangian/dsmc";
    object      positions;
}
// * * * * * * * * * * * * * * * * * * * * * * * * * * * * * * * * * * * * * //

17912
(
(0.982915 0.00854259 0.00854259 0) 89 88 1
(0.356827 0.321587 0 0.321587) 82 82 1
(0.472938 0.263531 0.263531 0) 92 91 1
(0.247508 0.376246 0.376246 0) 93 92 1
(0.858564 0.0707179 0 0.0707179) 89 88 2
(0.380561 0.30972 0 0.30972) 96 96 1
(0.492667 0.253667 0.253667 0) 90 89 1
(0.191913 0.404044 0.404044 0) 92 92 2
(0.965764 0.0171179 0 0.0171179) 85 84 2
(0.0924016 0.453799 0.453799 0) 93 93 2
(0.169567 0.415216 0.415216 0) 82 82 2
(0.215552 0.392224 0 0.392224) 82 82 1
(0.421154 0.289423 0.289423 0) 96 96 2
(0.554102 0.222949 0 0.222949) 87 86 2
(0.0366323 0.481684 0.481684 0) 90 89 1
(0.624294 0.187853 0.187853 0) 90 90 2
(0.706265 0.146867 0.146867 0) 82 82 2
(0.288302 0.355849 0.355849 0) 80 79 1
(0.708162 0.145919 0 0.145919) 93 92 2
(0.589169 0.205416 0.205416 0) 83 83 2
(0.0602502 0.469875 0 0.469875) 90 89 2
(0.123172 0.438414 0 0.438414) 81 81 1
(0.213402 0.393299 0.393299 0) 91 90 1
(0.601998 0.199001 0.199001 0) 93 92 1
(0.027694 0.486153 0.486153 0) 92 92 2
(0.805769 0.0971153 0.0971153 0) 92 92 2
(0.71033 0.144835 0 0.144835) 89 88 2
(0.0665105 0.466745 0.466745 0) 84 84 2
(0.182021 0.40899 0.40899 0) 91 91 2
(0.87101 0.0644949 0 0.0644949) 85 85 1
(0.958983 0.0205086 0.0205086 0) 95 95 2
(0.104958 0.447521 0.447521 0) 91 90 1
(0.99067 0.00466513 0 0.00466513) 94 93 2
(0.335103 0.332449 0.332449 0) 93 92 1
(0.391486 0.304257 0.304257 0) 91 90 1
(0.224294 0.387853 0 0.387853) 90 89 2
(0.318724 0.340638 0.340638 0) 89 88 1
(0.273606 0.363197 0.363197 0) 88 88 2
(0.445874 0.277063 0 0.277063) 97 97 1
(0.612058 0.193971 0 0.193971) 86 86 1
(0.196034 0.401983 0 0.401983) 90 90 1
(0.46619 0.266905 0 0.266905) 88 87 2
(0.532989 0.233506 0 0.233506) 89 88 2
(0.842411 0.0787945 0 0.0787945) 88 88 1
(0.014679 0.492661 0.492661 0) 90 90 2
(0.282661 0.358669 0.358669 0) 93 92 1
(0.660634 0.169683 0 0.169683) 91 90 2
(0.592491 0.203754 0.203754 0) 86 86 2
(0.920514 0.0397432 0 0.0397432) 92 91 2
(0.000631244 0.499684 0 0.499684) 87 87 1
(0.709908 0.145046 0.145046 0) 86 86 2
(0.650102 0.174949 0.174949 0) 91 91 2
(0.814558 0.0927209 0.0927209 0) 87 86 1
(0.542469 0.228766 0.228766 0) 87 86 1
(0.650674 0.174663 0.174663 0) 89 88 1
(0.0279846 0.486008 0 0.486008) 92 92 1
(0.908193 0.0459036 0 0.0459036) 86 85 2
(0.288901 0.355549 0.355549 0) 96 96 2
(0.0439079 0.478046 0 0.478046) 87 86 2
(0.689597 0.155201 0 0.155201) 86 86 1
(0.505004 0.247498 0.247498 0) 88 88 2
(0.881841 0.0590795 0 0.0590795) 84 84 1
(0.78518 0.10741 0 0.10741) 87 86 2
(0.599826 0.200087 0.200087 0) 92 92 2
(0.0354673 0.482266 0.482266 0) 95 95 2
(0.0171023 0.491449 0.491449 0) 87 87 2
(0.769837 0.115082 0.115082 0) 94 94 2
(0.235987 0.382006 0.382006 0) 94 93 1
(0.344814 0.327593 0.327593 0) 85 84 1
(0.952533 0.0237337 0.0237337 0) 97 96 1
(0.568733 0.215633 0.215633 0) 95 94 1
(0.797655 0.101172 0 0.101172) 83 83 1
(0.197369 0.401316 0 0.401316) 94 94 1
(0.688804 0.155598 0 0.155598) 92 91 2
(0.739984 0.130008 0.130008 0) 91 91 2
(0.270038 0.364981 0.364981 0) 94 93 1
(0.140304 0.429848 0.429848 0) 81 81 2
(0.574402 0.212799 0.212799 0) 91 91 2
(0.710103 0.144949 0.144949 0) 95 95 2
(0.727861 0.13607 0 0.13607) 89 89 1
(0.147765 0.426117 0.426117 0) 85 85 2
(0.0419288 0.479036 0.479036 0) 93 93 2
(0.640623 0.179688 0 0.179688) 91 91 1
(0.57849 0.210755 0.210755 0) 89 89 2
(0.875629 0.0621853 0.0621853 0) 86 86 2
(0.858164 0.0709179 0 0.0709179) 88 88 1
(0.602465 0.198768 0 0.198768) 90 89 2
(0.972452 0.0137742 0 0.0137742) 90 90 1
(0.490246 0.254877 0 0.254877) 92 92 1
(0.875669 0.0621653 0 0.0621653) 89 89 1
(0.401243 0.299378 0.299378 0) 87 86 1
(0.748913 0.125543 0.125543 0) 96 96 2
(0.819374 0.0903132 0 0.0903132) 91 90 2
(0.801416 0.0992919 0.0992919 0) 87 87 2
(0.955871 0.0220644 0.0220644 0) 88 88 2
(0.826553 0.0867235 0.0867235 0) 87 87 2
(0.766377 0.116811 0.116811 0) 91 91 2
(0.138087 0.430956 0 0.430956) 86 86 1
(0.828148 0.085926 0 0.085926) 91 90 2
(0.858601 0.0706997 0.0706997 0) 91 90 1
(0.872704 0.063648 0.063648 0) 89 88 1
(0.66092 0.16954 0 0.16954) 95 94 2
(0.560516 0.219742 0.219742 0) 87 86 1
(0.781727 0.109136 0 0.109136) 92 92 1
(0.432896 0.283552 0 0.283552) 89 89 1
(0.0358182 0.482091 0 0.482091) 89 89 1
(0.513908 0.243046 0 0.243046) 90 89 2
(0.664111 0.167945 0.167945 0) 86 86 2
(0.773845 0.113077 0.113077 0) 90 89 1
(0.511924 0.244038 0.244038 0) 89 88 1
(0.398043 0.300978 0.300978 0) 93 92 1
(0.146392 0.426804 0.426804 0) 89 89 2
(0.0922179 0.453891 0 0.453891) 91 91 1
(0.156804 0.421598 0.421598 0) 92 92 2
(0.502894 0.248553 0 0.248553) 89 89 1
(0.532411 0.233794 0.233794 0) 90 90 2
(0.0454857 0.477257 0.477257 0) 93 92 1
(0.78487 0.107565 0 0.107565) 86 85 2
(0.602095 0.198952 0.198952 0) 85 84 1
(0.556751 0.221625 0.221625 0) 94 93 1
(0.0585069 0.470747 0 0.470747) 91 91 1
(0.0781435 0.460928 0.460928 0) 92 91 1
(0.541143 0.229429 0.229429 0) 89 88 1
(0.536868 0.231566 0 0.231566) 83 82 2
(0.152346 0.423827 0.423827 0) 88 88 2
(0.222838 0.388581 0 0.388581) 94 93 2
(0.942724 0.0286379 0 0.0286379) 78 78 1
(0.888751 0.0556246 0.0556246 0) 88 88 2
(0.0833379 0.458331 0.458331 0) 83 82 1
(0.749726 0.125137 0.125137 0) 89 88 1
(0.665046 0.167477 0 0.167477) 98 97 2
(0.0932455 0.453377 0.453377 0) 86 85 1
(0.390268 0.304866 0 0.304866) 96 96 1
(0.258833 0.370583 0.370583 0) 99 98 1
(0.81405 0.0929751 0.0929751 0) 85 84 1
(0.0450291 0.477485 0 0.477485) 94 93 2
(0.0609382 0.469531 0.469531 0) 94 93 1
(0.347157 0.326422 0 0.326422) 90 90 1
(0.327798 0.336101 0 0.336101) 88 88 1
(0.210691 0.394654 0.394654 0) 95 94 1
(0.0587819 0.470609 0.470609 0) 88 87 1
(0.698543 0.150729 0 0.150729) 90 90 1
(0.0122737 0.493863 0 0.493863) 86 86 1
(0.522593 0.238704 0 0.238704) 88 88 1
(0.84993 0.075035 0 0.075035) 88 88 1
(0.378876 0.310562 0.310562 0) 89 88 1
(0.124049 0.437975 0 0.437975) 91 90 2
(0.504717 0.247642 0.247642 0) 92 91 1
(0.760866 0.119567 0 0.119567) 89 88 2
(0.334551 0.332724 0.332724 0) 85 85 2
(0.20142 0.39929 0.39929 0) 91 91 2
(0.222315 0.388843 0 0.388843) 85 84 2
(0.638395 0.180803 0.180803 0) 93 92 1
(0.0467902 0.476605 0 0.476605) 100 99 2
(0.310655 0.344673 0.344673 0) 81 80 1
(0.597742 0.201129 0.201129 0) 85 85 2
(0.281634 0.359183 0.359183 0) 88 87 1
(0.0740007 0.463 0.463 0) 89 89 2
(0.536887 0.231557 0 0.231557) 92 92 1
(0.266105 0.366948 0.366948 0) 94 94 2
(0.306844 0.346578 0 0.346578) 88 87 2
(0.301897 0.349051 0.349051 0) 95 95 2
(0.680174 0.159913 0.159913 0) 93 93 2
(0.217744 0.391128 0.391128 0) 83 83 2
(0.904991 0.0475043 0 0.0475043) 92 91 2
(0.825181 0.0874093 0.0874093 0) 89 89 2
(0.286775 0.356612 0 0.356612) 93 92 2
(0.508296 0.245852 0 0.245852) 87 87 1
(0.667108 0.166446 0.166446 0) 94 94 2
(0.894634 0.0526828 0 0.0526828) 90 89 2
(0.607648 0.196176 0 0.196176) 92 91 2
(0.877142 0.061429 0 0.061429) 88 87 2
(0.537603 0.231198 0.231198 0) 95 94 1
(0.0699391 0.46503 0.46503 0) 88 88 2
(0.5052 0.2474 0.2474 0) 89 89 2
(0.756502 0.121749 0.121749 0) 93 92 1
(0.707723 0.146138 0.146138 0) 94 94 2
(0.484632 0.257684 0 0.257684) 93 93 1
(0.295076 0.352462 0 0.352462) 94 94 1
(0.859365 0.0703174 0.0703174 0) 89 88 1
(0.266967 0.366517 0.366517 0) 94 93 1
(0.297622 0.351189 0 0.351189) 90 89 2
(0.128742 0.435629 0.435629 0) 92 91 1
(0.941155 0.0294223 0.0294223 0) 95 95 2
(0.446734 0.276633 0.276633 0) 90 89 1
(0.552848 0.223576 0.223576 0) 94 93 1
(0.551065 0.224468 0.224468 0) 92 92 2
(0.876354 0.061823 0.061823 0) 94 93 1
(0.407516 0.296242 0 0.296242) 92 92 1
(0.696726 0.151637 0 0.151637) 91 91 1
(0.19955 0.400225 0 0.400225) 92 92 1
(0.923731 0.0381344 0 0.0381344) 94 94 1
(0.249864 0.375068 0.375068 0) 86 85 1
(0.663572 0.168214 0.168214 0) 93 92 1
(0.715618 0.142191 0 0.142191) 93 93 1
(0.934373 0.0328137 0.0328137 0) 86 86 2
(0.560182 0.219909 0 0.219909) 86 85 2
(0.712873 0.143564 0 0.143564) 91 90 2
(0.511218 0.244391 0.244391 0) 94 93 1
(0.767265 0.116367 0.116367 0) 93 92 1
(0.38153 0.309235 0 0.309235) 91 91 1
(0.866116 0.0669422 0 0.0669422) 94 94 1
(0.895042 0.0524791 0 0.0524791) 91 90 2
(0.787463 0.106268 0 0.106268) 92 92 1
(0.130354 0.434823 0.434823 0) 92 92 2
(0.0742781 0.462861 0 0.462861) 94 94 1
(0.966615 0.0166923 0 0.0166923) 91 90 2
(0.960713 0.0196437 0 0.0196437) 90 89 2
(0.523441 0.23828 0 0.23828) 90 90 1
(0.193111 0.403445 0 0.403445) 82 82 1
(0.418808 0.290596 0 0.290596) 88 87 2
(0.981049 0.00947557 0 0.00947557) 87 86 2
(0.836171 0.0819144 0.0819144 0) 90 90 2
(0.601878 0.199061 0.199061 0) 100 99 1
(0.396021 0.30199 0 0.30199) 87 86 2
(0.982722 0.00863898 0.00863898 0) 93 93 2
(0.704771 0.147615 0.147615 0) 91 90 1
(0.928669 0.0356653 0 0.0356653) 88 88 1
(0.815708 0.0921461 0 0.0921461) 86 86 1
(0.770166 0.114917 0 0.114917) 95 94 2
(0.734071 0.132964 0.132964 0) 86 86 2
(0.891707 0.0541466 0 0.0541466) 90 89 2
(0.487525 0.256237 0.256237 0) 81 81 2
(0.972369 0.0138155 0 0.0138155) 93 93 1
(0.776364 0.111818 0 0.111818) 87 86 2
(0.665048 0.167476 0.167476 0) 93 93 2
(0.429184 0.285408 0 0.285408) 95 94 2
(0.0141922 0.492904 0.492904 0) 93 93 2
(0.99076 0.0046198 0 0.0046198) 92 91 2
(0.260175 0.369912 0 0.369912) 97 96 2
(0.0390846 0.480458 0.480458 0) 92 92 2
(0.305467 0.347266 0.347266 0) 91 91 2
(0.587994 0.206003 0 0.206003) 93 92 2
(0.942176 0.0289118 0 0.0289118) 90 89 2
(0.240238 0.379881 0 0.379881) 92 91 2
(0.13605 0.431975 0 0.431975) 92 92 1
(0.594385 0.202807 0.202807 0) 95 95 2
(0.398826 0.300587 0.300587 0) 86 86 2
(0.212475 0.393762 0 0.393762) 92 91 2
(0.455397 0.272302 0 0.272302) 89 88 2
(0.996418 0.00179088 0 0.00179088) 91 91 1
(0.89401 0.0529949 0 0.0529949) 86 85 2
(0.105148 0.447426 0.447426 0) 99 99 2
(0.420123 0.289938 0 0.289938) 96 95 2
(0.209491 0.395254 0 0.395254) 91 90 2
(0.301873 0.349063 0 0.349063) 83 82 2
(0.679568 0.160216 0.160216 0) 90 90 2
(0.801519 0.0992404 0.0992404 0) 88 88 2
(0.293232 0.353384 0 0.353384) 89 88 2
(0.998397 0.000801687 0 0.000801687) 87 86 2
(0.255061 0.37247 0 0.37247) 95 95 1
(0.999618 0.000190764 0.000190764 0) 94 93 1
(0.173262 0.413369 0 0.413369) 91 90 2
(0.761046 0.119477 0 0.119477) 91 90 2
(0.389507 0.305246 0.305246 0) 89 88 1
(0.152937 0.423532 0 0.423532) 93 93 1
(0.695409 0.152296 0 0.152296) 87 86 2
(0.950312 0.0248438 0.0248438 0) 88 87 1
(0.0575585 0.471221 0.471221 0) 95 94 1
(0.400141 0.29993 0.29993 0) 89 88 1
(0.879452 0.0602741 0.0602741 0) 90 89 1
(0.228444 0.385778 0.385778 0) 89 88 1
(0.688031 0.155985 0.155985 0) 92 92 2
(0.525532 0.237234 0 0.237234) 87 87 1
(0.349635 0.325182 0 0.325182) 88 88 1
(0.297338 0.351331 0.351331 0) 86 85 1
(0.50559 0.247205 0.247205 0) 87 86 1
(0.602674 0.198663 0 0.198663) 101 100 2
(0.558681 0.22066 0 0.22066) 96 96 1
(0.353302 0.323349 0 0.323349) 92 92 1
(0.518458 0.240771 0.240771 0) 87 86 1
(0.71995 0.140025 0.140025 0) 94 94 2
(0.201989 0.399005 0 0.399005) 93 92 2
(0.606402 0.196799 0.196799 0) 92 92 2
(0.354397 0.322802 0 0.322802) 90 90 1
(0.712839 0.14358 0.14358 0) 94 94 2
(0.0369725 0.481514 0.481514 0) 90 89 1
(0.941836 0.0290818 0.0290818 0) 90 89 1
(0.621066 0.189467 0.189467 0) 94 93 1
(0.117695 0.441152 0 0.441152) 94 93 2
(0.983323 0.00833866 0 0.00833866) 88 87 2
(0.428979 0.28551 0 0.28551) 89 88 2
(0.0548814 0.472559 0 0.472559) 89 89 1
(0.132073 0.433964 0 0.433964) 90 89 2
(0.383005 0.308498 0 0.308498) 91 91 1
(0.507134 0.246433 0 0.246433) 80 80 1
(0.66442 0.16779 0.16779 0) 87 87 2
(0.840185 0.0799077 0 0.0799077) 96 96 1
(0.51934 0.24033 0 0.24033) 86 86 1
(0.281584 0.359208 0 0.359208) 89 89 1
(0.298144 0.350928 0 0.350928) 95 94 2
(0.105584 0.447208 0 0.447208) 94 93 2
(0.896951 0.0515244 0 0.0515244) 91 90 2
(0.559413 0.220294 0 0.220294) 92 91 2
(0.78013 0.109935 0.109935 0) 83 83 2
(0.713893 0.143054 0 0.143054) 93 92 2
(0.624123 0.187939 0.187939 0) 88 88 2
(0.548848 0.225576 0.225576 0) 87 86 1
(0.597042 0.201479 0 0.201479) 89 88 2
(0.922496 0.0387521 0.0387521 0) 93 93 2
(0.327551 0.336225 0 0.336225) 92 91 2
(0.371528 0.314236 0.314236 0) 91 91 2
(0.890928 0.0545358 0 0.0545358) 93 92 2
(0.889068 0.0554658 0 0.0554658) 85 85 1
(0.0525566 0.473722 0.473722 0) 89 89 2
(0.294492 0.352754 0.352754 0) 88 88 2
(0.0448065 0.477597 0.477597 0) 98 98 2
(0.386449 0.306776 0 0.306776) 95 94 2
(0.924848 0.0375759 0 0.0375759) 86 85 2
(0.443681 0.27816 0 0.27816) 95 94 2
(0.887435 0.0562827 0 0.0562827) 88 87 2
(0.271276 0.364362 0.364362 0) 88 88 2
(0.923992 0.0380042 0.0380042 0) 99 99 2
(0.592249 0.203876 0.203876 0) 88 88 2
(0.666384 0.166808 0 0.166808) 85 84 2
(0.576875 0.211563 0 0.211563) 93 92 2
(0.539387 0.230307 0 0.230307) 96 95 2
(0.585168 0.207416 0.207416 0) 80 80 2
(0.409116 0.295442 0.295442 0) 84 84 2
(0.0388587 0.480571 0.480571 0) 87 87 2
(0.90493 0.047535 0.047535 0) 90 90 2
(0.437708 0.281146 0 0.281146) 94 93 2
(0.922516 0.038742 0.038742 0) 95 95 2
(0.0652496 0.467375 0.467375 0) 90 90 2
(0.324451 0.337774 0.337774 0) 98 98 2
(0.196248 0.401876 0 0.401876) 91 90 2
(0.0914039 0.454298 0 0.454298) 89 88 2
(0.0705311 0.464734 0 0.464734) 89 88 2
(0.358481 0.320759 0.320759 0) 82 82 2
(0.457154 0.271423 0.271423 0) 90 90 2
(0.0614474 0.469276 0.469276 0) 92 92 2
(0.658186 0.170907 0 0.170907) 96 95 2
(0.268628 0.365686 0 0.365686) 94 93 2
(0.684422 0.157789 0 0.157789) 77 76 2
(0.0632099 0.468395 0.468395 0) 93 93 2
(0.10168 0.44916 0.44916 0) 88 88 2
(0.0438328 0.478084 0 0.478084) 90 89 2
(0.277837 0.361082 0.361082 0) 85 85 2
(0.189579 0.40521 0 0.40521) 93 92 2
(0.228755 0.385622 0 0.385622) 94 93 2
(0.0923159 0.453842 0 0.453842) 93 92 2
(0.0943863 0.452807 0.452807 0) 90 90 2
(0.975651 0.0121747 0 0.0121747) 90 89 2
(0.686772 0.156614 0.156614 0) 94 94 2
(0.139494 0.430253 0.430253 0) 95 95 2
(0.210441 0.39478 0.39478 0) 93 93 2
(0.988453 0.00577359 0 0.00577359) 91 91 1
(0.274788 0.362606 0 0.362606) 98 97 2
(0.0322017 0.483899 0.483899 0) 88 88 2
(0.812655 0.0936723 0 0.0936723) 99 99 1
(0.167013 0.416493 0 0.416493) 94 94 1
(0.131464 0.434268 0 0.434268) 93 92 2
(0.229633 0.385183 0 0.385183) 96 95 2
(0.721517 0.139242 0.139242 0) 90 90 2
(0.285052 0.357474 0 0.357474) 88 88 1
(0.178403 0.410799 0.410799 0) 89 89 2
(0.192658 0.403671 0 0.403671) 95 94 2
(0.0236885 0.488156 0.488156 0) 90 90 2
(0.199559 0.40022 0 0.40022) 84 83 2
(0.479864 0.260068 0.260068 0) 89 88 1
(0.434663 0.282669 0 0.282669) 91 91 1
(0.791977 0.104012 0 0.104012) 91 91 1
(0.144095 0.427952 0 0.427952) 97 97 1
(0.496174 0.251913 0.251913 0) 93 93 2
(0.475731 0.262134 0.262134 0) 89 88 1
(0.614171 0.192915 0 0.192915) 95 94 2
(0.55222 0.22389 0.22389 0) 90 90 2
(0.144955 0.427523 0.427523 0) 91 91 2
(0.166945 0.416528 0 0.416528) 92 91 2
(0.782552 0.108724 0.108724 0) 91 91 2
(0.85147 0.0742648 0 0.0742648) 87 86 2
(0.547445 0.226278 0 0.226278) 89 89 1
(0.96504 0.0174802 0.0174802 0) 98 97 1
(0.727446 0.136277 0.136277 0) 86 86 2
(0.609877 0.195061 0.195061 0) 98 98 2
(0.528096 0.235952 0.235952 0) 82 81 1
(0.635508 0.182246 0 0.182246) 86 85 2
(0.799374 0.100313 0.100313 0) 97 97 2
(0.574829 0.212586 0.212586 0) 86 86 2
(0.349811 0.325095 0.325095 0) 90 90 2
(0.292494 0.353753 0.353753 0) 91 91 2
(0.841165 0.0794177 0 0.0794177) 97 97 1
(0.675136 0.162432 0.162432 0) 94 94 2
(0.240885 0.379558 0 0.379558) 89 88 2
(0.128142 0.435929 0.435929 0) 99 98 1
(0.413039 0.29348 0.29348 0) 98 98 2
(0.183033 0.408484 0.408484 0) 88 88 2
(0.142318 0.428841 0.428841 0) 93 93 2
(0.141472 0.429264 0 0.429264) 86 85 2
(0.116529 0.441735 0.441735 0) 87 87 2
(0.0613623 0.469319 0 0.469319) 94 93 2
(0.268022 0.365989 0.365989 0) 93 93 2
(0.0203686 0.489816 0 0.489816) 88 87 2
(0.179186 0.410407 0 0.410407) 84 83 2
(0.219358 0.390321 0.390321 0) 93 92 1
(0.314389 0.342805 0 0.342805) 91 91 1
(0.694207 0.152897 0.152897 0) 91 90 1
(0.494814 0.252593 0 0.252593) 92 91 2
(0.973523 0.0132387 0.0132387 0) 99 99 2
(0.655261 0.17237 0 0.17237) 97 96 2
(0.350996 0.324502 0 0.324502) 94 94 1
(0.476276 0.261862 0 0.261862) 87 87 1
(0.328162 0.335919 0 0.335919) 85 84 2
(0.410059 0.29497 0 0.29497) 92 91 2
(0.279912 0.360044 0 0.360044) 87 86 2
(0.0792456 0.460377 0 0.460377) 89 89 1
(0.543099 0.228451 0 0.228451) 89 89 1
(0.0977258 0.451137 0.451137 0) 98 98 2
(0.365688 0.317156 0.317156 0) 87 87 2
(0.734056 0.132972 0 0.132972) 93 93 1
(0.9334 0.0332998 0.0332998 0) 93 92 1
(0.928151 0.0359244 0.0359244 0) 92 91 1
(0.0989915 0.450504 0.450504 0) 95 94 1
(0.861738 0.0691309 0 0.0691309) 96 96 1
(0.330512 0.334744 0.334744 0) 91 90 1
(0.723831 0.138085 0.138085 0) 95 95 2
(0.58008 0.20996 0.20996 0) 92 91 1
(0.43189 0.284055 0.284055 0) 84 83 1
(0.543616 0.228192 0.228192 0) 95 94 1
(0.930739 0.0346307 0.0346307 0) 101 100 1
(0.957907 0.0210466 0 0.0210466) 90 89 2
(0.980987 0.0095063 0 0.0095063) 92 91 2
(0.0654092 0.467295 0 0.467295) 86 86 1
(0.538019 0.23099 0 0.23099) 88 87 2
(0.96755 0.0162248 0.0162248 0) 90 90 2
(0.101689 0.449155 0 0.449155) 81 81 1
(0.121383 0.439309 0.439309 0) 94 93 1
(0.540547 0.229727 0 0.229727) 96 96 1
(0.0716093 0.464195 0.464195 0) 93 93 2
(0.987939 0.00603049 0.00603049 0) 94 94 2
(0.358366 0.320817 0 0.320817) 92 91 2
(0.631522 0.184239 0.184239 0) 93 93 2
(0.876711 0.0616443 0 0.0616443) 90 89 2
(0.153757 0.423122 0.423122 0) 91 90 1
(0.241607 0.379196 0 0.379196) 97 97 1
(0.211692 0.394154 0.394154 0) 97 96 1
(0.324472 0.337764 0.337764 0) 102 102 2
(0.509241 0.24538 0 0.24538) 88 88 1
(0.61653 0.191735 0 0.191735) 94 93 2
(0.951411 0.0242946 0 0.0242946) 102 101 2
(0.914627 0.0426863 0.0426863 0) 91 91 2
(0.111672 0.444164 0 0.444164) 88 87 2
(0.950486 0.0247572 0 0.0247572) 96 95 2
(0.833887 0.0830567 0.0830567 0) 90 90 2
(0.407705 0.296148 0.296148 0) 90 90 2
(0.34148 0.32926 0.32926 0) 93 93 2
(0.780076 0.109962 0.109962 0) 94 94 2
(0.0412373 0.479381 0 0.479381) 91 90 2
(0.46015 0.269925 0 0.269925) 95 94 2
(0.336158 0.331921 0.331921 0) 86 85 1
(0.0602319 0.469884 0 0.469884) 96 95 2
(0.706821 0.146589 0.146589 0) 96 96 2
(0.378536 0.310732 0 0.310732) 93 92 2
(0.701204 0.149398 0.149398 0) 93 93 2
(0.982686 0.00865692 0.00865692 0) 96 96 2
(0.248361 0.37582 0 0.37582) 95 95 1
(0.823304 0.0883479 0.0883479 0) 92 92 2
(0.735978 0.132011 0.132011 0) 90 90 2
(0.861785 0.0691074 0 0.0691074) 85 84 2
(0.651623 0.174189 0.174189 0) 94 94 2
(0.19638 0.40181 0 0.40181) 92 91 2
(0.342103 0.328949 0 0.328949) 96 96 1
(0.76251 0.118745 0 0.118745) 97 97 1
(0.228763 0.385619 0 0.385619) 92 91 2
(0.647139 0.176431 0 0.176431) 92 91 2
(0.0924489 0.453776 0 0.453776) 101 101 1
(0.935392 0.0323041 0 0.0323041) 93 92 2
(0.698757 0.150622 0 0.150622) 90 89 2
(0.657574 0.171213 0 0.171213) 92 91 2
(0.722993 0.138503 0.138503 0) 88 87 1
(0.690441 0.15478 0.15478 0) 95 94 1
(0.477858 0.261071 0 0.261071) 98 98 1
(0.171528 0.414236 0.414236 0) 96 95 1
(0.785732 0.107134 0.107134 0) 103 102 1
(0.120668 0.439666 0 0.439666) 89 89 1
(0.821059 0.0894703 0 0.0894703) 91 90 2
(0.695759 0.15212 0.15212 0) 87 86 1
(0.69779 0.151105 0 0.151105) 95 95 1
(0.0323058 0.483847 0.483847 0) 90 89 1
(0.271705 0.364147 0.364147 0) 92 92 2
(0.874156 0.0629221 0.0629221 0) 89 88 1
(0.22808 0.38596 0 0.38596) 89 88 2
(0.309147 0.345426 0 0.345426) 95 94 2
(0.790561 0.10472 0 0.10472) 98 98 1
(0.34192 0.32904 0.32904 0) 91 91 2
(0.233173 0.383413 0.383413 0) 97 96 1
(0.990398 0.00480121 0.00480121 0) 95 94 1
(0.912473 0.0437633 0.0437633 0) 93 92 1
(0.981466 0.00926689 0 0.00926689) 91 91 1
(0.412066 0.293967 0 0.293967) 96 96 1
(0.953334 0.0233331 0.0233331 0) 87 87 2
(0.233783 0.383108 0 0.383108) 93 93 1
(0.804251 0.0978744 0 0.0978744) 94 94 1
(0.0168258 0.491587 0.491587 0) 88 88 2
(0.595515 0.202242 0 0.202242) 95 94 2
(0.821233 0.0893833 0 0.0893833) 90 90 1
(0.480136 0.259932 0 0.259932) 99 99 1
(0.663411 0.168295 0.168295 0) 95 94 1
(0.0795435 0.460228 0.460228 0) 88 87 1
(0.860855 0.0695723 0.0695723 0) 95 94 1
(0.700395 0.149803 0 0.149803) 93 92 2
(0.124234 0.437883 0 0.437883) 95 94 2
(0.999349 0.000325379 0.000325379 0) 94 93 1
(0.342486 0.328757 0 0.328757) 95 94 2
(0.178664 0.410668 0 0.410668) 94 93 2
(0.921346 0.0393268 0.0393268 0) 94 94 2
(0.577681 0.21116 0 0.21116) 96 95 2
(0.517525 0.241237 0.241237 0) 92 91 1
(0.789167 0.105417 0.105417 0) 98 98 2
(0.442152 0.278924 0.278924 0) 90 89 1
(0.5882 0.2059 0.2059 0) 95 94 1
(0.0638858 0.468057 0.468057 0) 96 95 1
(0.426306 0.286847 0 0.286847) 93 93 1
(0.81089 0.0945549 0.0945549 0) 93 93 2
(0.78714 0.10643 0 0.10643) 94 93 2
(0.232516 0.383742 0 0.383742) 95 94 2
(0.110959 0.44452 0 0.44452) 90 89 2
(0.623148 0.188426 0.188426 0) 89 89 2
(0.724087 0.137956 0 0.137956) 98 97 2
(0.25053 0.374735 0 0.374735) 94 94 1
(0.252402 0.373799 0 0.373799) 99 98 2
(0.73767 0.131165 0 0.131165) 95 95 1
(0.0204896 0.489755 0.489755 0) 95 94 1
(0.415908 0.292046 0 0.292046) 92 92 1
(0.00095011 0.499525 0 0.499525) 94 93 2
(0.562604 0.218698 0 0.218698) 87 86 2
(0.553989 0.223005 0.223005 0) 92 92 2
(0.521931 0.239035 0 0.239035) 85 85 1
(0.513422 0.243289 0 0.243289) 93 92 2
(0.547423 0.226289 0.226289 0) 91 91 2
(0.522869 0.238565 0.238565 0) 97 97 2
(0.732511 0.133745 0.133745 0) 91 90 1
(0.175848 0.412076 0 0.412076) 95 94 2
(0.477727 0.261137 0.261137 0) 85 85 2
(0.557283 0.221359 0 0.221359) 92 91 2
(0.792053 0.103974 0.103974 0) 88 88 2
(0.234662 0.382669 0 0.382669) 94 93 2
(0.8906 0.0547 0 0.0547) 91 90 2
(0.708576 0.145712 0.145712 0) 93 93 2
(0.312365 0.343818 0 0.343818) 93 92 2
(0.534835 0.232582 0.232582 0) 93 93 2
(0.0631712 0.468414 0.468414 0) 96 95 1
(0.57614 0.21193 0 0.21193) 89 88 2
(0.333025 0.333487 0 0.333487) 96 96 1
(0.224184 0.387908 0 0.387908) 95 95 1
(0.513017 0.243491 0 0.243491) 90 89 2
(0.691765 0.154117 0.154117 0) 89 88 1
(0.313693 0.343153 0 0.343153) 92 92 1
(0.135255 0.432373 0.432373 0) 95 94 1
(0.248642 0.375679 0.375679 0) 90 89 1
(0.218657 0.390672 0.390672 0) 88 88 2
(0.437957 0.281021 0 0.281021) 92 92 1
(0.738577 0.130711 0 0.130711) 96 95 2
(0.493437 0.253281 0 0.253281) 96 96 1
(0.892573 0.0537133 0 0.0537133) 92 92 1
(0.472836 0.263582 0.263582 0) 98 97 1
(0.870673 0.0646634 0.0646634 0) 90 89 1
(0.25711 0.371445 0.371445 0) 88 87 1
(0.574264 0.212868 0.212868 0) 102 101 1
(0.18139 0.409305 0.409305 0) 90 89 1
(0.658821 0.170589 0.170589 0) 93 92 1
(0.543282 0.228359 0 0.228359) 92 91 2
(0.278727 0.360636 0 0.360636) 89 89 1
(0.361194 0.319403 0.319403 0) 93 92 1
(0.88379 0.058105 0 0.058105) 97 97 1
(0.911196 0.0444018 0.0444018 0) 94 93 1
(0.471398 0.264301 0 0.264301) 99 99 1
(0.223081 0.388459 0 0.388459) 95 94 2
(0.942169 0.0289153 0.0289153 0) 94 93 1
(0.893217 0.0533914 0.0533914 0) 97 96 1
(0.709104 0.145448 0.145448 0) 93 93 2
(0.0252556 0.487372 0 0.487372) 93 93 1
(0.0330086 0.483496 0 0.483496) 94 94 1
(0.926629 0.0366853 0.0366853 0) 88 87 1
(0.267093 0.366454 0.366454 0) 93 93 2
(0.402055 0.298972 0.298972 0) 90 90 2
(0.347759 0.326121 0.326121 0) 98 98 2
(0.456062 0.271969 0.271969 0) 90 90 2
(0.686787 0.156606 0 0.156606) 92 91 2
(0.16628 0.41686 0.41686 0) 87 87 2
(0.6651 0.16745 0.16745 0) 94 94 2
(0.377843 0.311078 0.311078 0) 95 94 1
(0.59335 0.203325 0.203325 0) 87 86 1
(0.810877 0.0945614 0 0.0945614) 89 89 1
(0.469888 0.265056 0.265056 0) 89 88 1
(0.479778 0.260111 0 0.260111) 91 91 1
(0.308998 0.345501 0 0.345501) 90 90 1
(0.593098 0.203451 0.203451 0) 94 94 2
(0.0161804 0.49191 0 0.49191) 95 94 2
(0.790386 0.104807 0.104807 0) 88 88 2
(0.689853 0.155073 0 0.155073) 96 95 2
(0.254261 0.37287 0 0.37287) 95 94 2
(0.961739 0.0191303 0.0191303 0) 93 92 1
(0.946556 0.026722 0.026722 0) 93 93 2
(0.63597 0.182015 0.182015 0) 91 91 2
(0.854998 0.072501 0 0.072501) 90 89 2
(0.181594 0.409203 0.409203 0) 99 98 1
(0.284902 0.357549 0.357549 0) 96 96 2
(0.699015 0.150493 0 0.150493) 96 95 2
(0.65232 0.17384 0.17384 0) 96 96 2
(0.607478 0.196261 0.196261 1.18576e-322) 101 101 2
(0.585894 0.207053 0 0.207053) 91 90 2
(0.851583 0.0742085 0.0742085 0) 97 97 2
(0.407873 0.296063 0.296063 0) 91 91 2
(0.142807 0.428596 0 0.428596) 87 86 2
(0.708411 0.145795 0 0.145795) 101 101 1
(0.221413 0.389294 0 0.389294) 93 92 2
(0.855038 0.072481 0 0.072481) 90 90 1
(0.546151 0.226924 0.226924 0) 92 92 2
(0.733554 0.133223 0.133223 0) 96 96 2
(0.376372 0.311814 0 0.311814) 91 90 2
(0.186881 0.406559 0 0.406559) 91 91 1
(0.288177 0.355912 0.355912 0) 94 93 1
(0.164441 0.41778 0.41778 0) 93 93 2
(0.470207 0.264896 0.264896 1.23516e-322) 98 98 2
(0.833148 0.0834261 0.0834261 0) 89 88 1
(0.212034 0.393983 0 0.393983) 95 94 2
(0.930857 0.0345716 0.0345716 0) 89 89 2
(0.85873 0.0706351 0 0.0706351) 91 91 1
(0.507061 0.24647 0.24647 0) 85 84 1
(0.0809893 0.459505 0 0.459505) 95 95 1
(0.590595 0.204702 0.204702 0) 95 95 2
(0.665692 0.167154 0.167154 0) 94 93 1
(0.860202 0.0698989 0.0698989 0) 90 90 2
(0.445941 0.277029 0.277029 0) 93 92 1
(0.591888 0.204056 0 0.204056) 94 94 1
(0.131055 0.434472 0 0.434472) 97 97 1
(0.373364 0.313318 0 0.313318) 94 94 1
(0.374562 0.312719 0 0.312719) 93 93 1
(0.829614 0.0851932 0.0851932 0) 98 97 1
(0.976118 0.0119412 0 0.0119412) 94 94 1
(0.0298298 0.485085 0 0.485085) 94 94 1
(0.539123 0.230438 0.230438 0) 91 90 1
(0.819247 0.0903766 0.0903766 0) 88 87 1
(0.791601 0.104199 0.104199 0) 91 90 1
(0.0456525 0.477174 0 0.477174) 94 94 1
(0.811031 0.0944845 0.0944845 0) 93 93 2
(0.385173 0.307414 0 0.307414) 92 91 2
(0.525183 0.237409 0 0.237409) 90 90 1
(0.272883 0.363558 0.363558 0) 93 92 1
(0.831958 0.0840208 0.0840208 0) 95 94 1
(0.587034 0.206483 2.96439e-323 0.206483) 89 89 1
(0.752688 0.123656 0 0.123656) 98 98 1
(0.038903 0.480548 0 0.480548) 91 90 2
(0.279373 0.360313 0 0.360313) 95 95 1
(0.755172 0.122414 0 0.122414) 98 98 1
(0.877589 0.0612057 0 0.0612057) 92 92 1
(0.514686 0.242657 0.242657 0) 93 92 1
(0.631426 0.184287 0.184287 0) 99 99 2
(0.172347 0.413826 0 0.413826) 96 95 2
(0.758828 0.120586 0.120586 0) 88 88 2
(0.0641422 0.467929 0 0.467929) 96 95 2
(0.8323 0.0838502 0.0838502 0) 88 88 2
(0.842583 0.0787087 0 0.0787087) 90 90 1
(0.791706 0.104147 0.104147 0) 97 96 1
(0.252878 0.373561 0.373561 0) 86 85 1
(0.100339 0.44983 0.44983 0) 95 94 1
(0.322352 0.338824 0.338824 0) 99 98 1
(0.0340784 0.482961 0.482961 0) 91 90 1
(0.702937 0.148531 0 0.148531) 97 96 2
(0.651836 0.174082 0.174082 0) 90 90 2
(0.707508 0.146246 0.146246 0) 95 94 1
(0.446513 0.276744 0 0.276744) 98 97 2
(0.857913 0.0710437 0.0710437 0) 95 95 2
(0.797333 0.101334 0 0.101334) 98 97 2
(0.750625 0.124688 0.124688 0) 98 98 2
(0.596348 0.201826 0.201826 0) 92 92 2
(0.185851 0.407075 0.407075 0) 92 92 2
(0.895115 0.0524423 0.0524423 0) 96 96 2
(0.399108 0.300446 0 0.300446) 94 94 1
(0.220462 0.389769 0 0.389769) 92 91 2
(0.428895 0.285552 0.285552 0) 91 91 2
(0.14447 0.427765 0.427765 0) 90 90 2
(0.0671529 0.466424 0.466424 0) 97 97 2
(0.316132 0.341934 0 0.341934) 88 87 2
(0.822799 0.0886004 0.0886004 0) 93 93 2
(0.769561 0.115219 0.115219 0) 94 94 2
(0.740846 0.129577 0 0.129577) 89 88 2
(0.124734 0.437633 0.437633 1.18576e-322) 93 93 2
(0.240778 0.379611 0 0.379611) 96 95 2
(0.00199822 0.499001 0 0.499001) 97 96 2
(0.82895 0.0855248 0 0.0855248) 98 98 1
(0.4541 0.27295 0.27295 0) 89 89 2
(0.473572 0.263214 0 0.263214) 90 90 1
(0.686481 0.15676 0 0.15676) 90 89 2
(0.0844992 0.45775 0.45775 0) 91 91 2
(0.444569 0.277715 0.277715 0) 96 96 2
(0.735631 0.132184 0.132184 0) 96 96 2
(0.0953703 0.452315 0.452315 0) 85 85 2
(0.693386 0.153307 0.153307 0) 90 89 1
(0.0192396 0.49038 0 0.49038) 97 96 2
(0.307931 0.346035 0 0.346035) 92 91 2
(0.171296 0.414352 0 0.414352) 103 102 2
(0.916421 0.0417894 0 0.0417894) 93 93 1
(0.40893 0.295535 0 0.295535) 91 90 2
(0.809474 0.095263 0.095263 0) 97 96 1
(0.55053 0.224735 0 0.224735) 89 89 1
(0.348604 0.325698 0.325698 0) 91 91 2
(0.208501 0.395749 0 0.395749) 97 96 2
(0.474775 0.262612 0 0.262612) 96 95 2
(0.530843 0.234579 0.234579 0) 95 95 2
(0.513872 0.243064 0 0.243064) 94 93 2
(0.0507826 0.474609 0 0.474609) 92 92 1
(0.35547 0.322265 0 0.322265) 87 87 1
(0.93396 0.0330199 0 0.0330199) 94 93 2
(0.85632 0.0718402 0 0.0718402) 86 86 1
(0.697029 0.151486 0.151486 0) 93 92 1
(0.835576 0.0822121 0.0822121 0) 97 96 1
(0.473218 0.263391 0 0.263391) 92 92 1
(0.845978 0.0770109 0 0.0770109) 95 95 1
(0.437318 0.281341 0.281341 0) 95 94 1
(0.24278 0.37861 0 0.37861) 91 91 1
(0.545302 0.227349 0 0.227349) 92 92 1
(0.381203 0.309398 0 0.309398) 98 98 1
(0.66845 0.165775 0 0.165775) 98 98 1
(0.352399 0.323801 0.323801 0) 99 98 1
(0.0563188 0.471841 0.471841 0) 92 91 1
(0.175136 0.412432 0.412432 0) 92 91 1
(0.759753 0.120123 0.120123 0) 98 97 1
(0.138634 0.430683 0.430683 0) 96 96 2
(0.215469 0.392266 0.392266 0) 93 93 2
(0.291565 0.354218 0 0.354218) 98 97 2
(0.607612 0.196194 0 0.196194) 95 95 1
(0.361705 0.319148 0.319148 0) 96 96 2
(0.607204 0.196398 0 0.196398) 94 93 2
(0.76035 0.119825 0.119825 0) 94 93 1
(0.155283 0.422359 0 0.422359) 95 95 1
(0.3989 0.30055 0.30055 0) 89 89 2
(0.374025 0.312988 0.312988 0) 94 93 1
(0.613387 0.193307 0 0.193307) 91 91 1
(0.501456 0.249272 0.249272 0) 88 87 1
(0.783454 0.108273 0.108273 0) 104 103 1
(0.220892 0.389554 0 0.389554) 98 97 2
(0.82402 0.0879901 0 0.0879901) 99 98 2
(0.226809 0.386596 0 0.386596) 100 99 2
(0.00383059 0.498085 0 0.498085) 89 88 2
(0.945321 0.0273396 0 0.0273396) 93 92 2
(0.166934 0.416533 0 0.416533) 95 94 2
(0.502171 0.248915 0.248915 0) 94 93 1
(0.546096 0.226952 0 0.226952) 95 94 2
(0.973626 0.0131868 0.0131868 0) 89 88 1
(0.980142 0.00992884 0.00992884 0) 101 100 1
(0.249631 0.375185 0 0.375185) 97 96 2
(0.267389 0.366305 0.366305 0) 97 96 1
(0.429757 0.285121 0 0.285121) 92 91 2
(0.826679 0.0866607 0.0866607 0) 91 90 1