/*--------------------------------*- C++ -*----------------------------------*\
  =========                 |
  \\      /  F ield         | OpenFOAM: The Open Source CFD Toolbox
   \\    /   O peration     | Website:  https://openfoam.org
    \\  /    A nd           | Version:  7
     \\/     M anipulation  |
\*---------------------------------------------------------------------------*/
FoamFile
{
    version     2.0;
    format      ascii;
    class       volScalarField;
    location    "0.005";
    object      mag(U);
}
// * * * * * * * * * * * * * * * * * * * * * * * * * * * * * * * * * * * * * //

dimensions      [0 1 -1 0 0 0 0];

internalField   nonuniform List<scalar> 
1000
(
1.49852e-13
1.59537e-13
1.54667e-13
1.04482e-13
1.04163e-13
6.84486e-14
1.19977e-13
1.60918e-13
1.1585e-13
9.19647e-14
9.05701e-14
3.63687e-14
3.04773e-14
5.03012e-14
1.47183e-14
3.00492e-14
1.99192e-14
1.35813e-13
1.26523e-15
5.10145e-14
5.93461e-15
7.37962e-14
8.73902e-15
1.84951e-14
1.02903e-14
6.4441e-14
1.41039e-13
1.2721e-13
1.02425e-13
1.11567e-13
8.60813e-14
6.28614e-14
1.27335e-13
1.47741e-13
3.37787e-14
6.46579e-15
6.8537e-14
1.10768e-13
1.40739e-13
1.1332e-13
2.88293e-14
1.29169e-13
1.53686e-13
2.50369e-13
2.23421e-13
2.27705e-13
2.41461e-13
2.00231e-13
1.30415e-13
1.51241e-13
1.19476e-13
1.9126e-13
1.70924e-13
1.28319e-13
1.19308e-13
5.48861e-14
2.10633e-14
3.7447e-14
3.31241e-14
3.14768e-15
2.34642e-14
5.67495e-15
2.25249e-15
6.47774e-14
1.36947e-13
2.0989e-13
2.08859e-13
2.01154e-13
1.54378e-13
7.56389e-14
6.42051e-14
1.09102e-13
6.72269e-14
1.27702e-14
5.88632e-14
3.54704e-14
2.20348e-15
3.82685e-14
1.92893e-14
6.30927e-14
2.42056e-14
4.45726e-14
2.07332e-14
1.7088e-14
1.07845e-13
1.60803e-13
9.25884e-14
8.12095e-14
9.22074e-14
4.63727e-14
5.17793e-14
1.65491e-14
3.90975e-14
1.02184e-13
7.36636e-14
1.41167e-13
2.95967e-13
3.31457e-13
3.05429e-13
2.40848e-13
2.56458e-13
2.25408e-13
1.85434e-13
1.51146e-13
7.7563e-14
4.09236e-14
5.36434e-14
9.71288e-14
1.27705e-13
2.00977e-13
2.00195e-13
1.78715e-13
6.9565e-14
9.12356e-14
8.33455e-14
6.75914e-14
9.8693e-14
1.17164e-13
1.10233e-13
1.71768e-13
2.0487e-13
1.84463e-13
1.62681e-13
2.33666e-13
2.81259e-13
2.47121e-13
2.37424e-13
2.61426e-13
2.24353e-13
3.13451e-13
2.53636e-13
1.01642e-13
4.88061e-14
3.0635e-14
2.93661e-14
8.72068e-14
6.69459e-14
1.10514e-13
5.78137e-14
5.00033e-14
9.90652e-14
1.63538e-13
1.74107e-13
2.42347e-13
2.052e-13
1.6337e-13
1.68421e-13
1.93892e-13
1.68042e-13
1.18065e-13
1.41003e-13
2.12665e-13
2.04266e-13
2.45827e-14
2.35395e-14
2.68267e-15
3.13713e-14
1.49577e-14
2.16981e-14
1.87899e-14
4.84016e-15
4.2653e-14
6.12936e-14
6.58478e-14
5.01202e-14
1.09567e-13
1.42338e-13
1.23339e-13
6.64234e-14
4.64622e-14
1.02106e-13
1.54003e-13
1.81882e-13
1.67986e-13
2.04071e-13
2.15066e-13
1.34202e-13
7.63939e-14
6.4763e-14
1.31476e-13
1.69699e-13
2.0556e-13
1.53673e-13
2.6563e-14
2.62887e-14
9.44387e-16
1.28683e-14
1.16318e-14
1.31381e-13
1.81267e-13
1.6208e-13
1.38089e-13
1.29613e-13
1.64467e-13
1.41869e-13
1.35436e-13
6.98203e-14
7.97848e-14
1.06034e-14
7.78866e-15
1.37619e-13
2.53341e-14
6.26764e-14
4.28033e-14
2.1387e-14
3.58895e-14
6.87757e-14
1.13211e-13
1.53367e-13
1.1194e-13
1.27385e-13
1.82748e-13
1.25282e-13
1.14034e-13
9.21928e-14
6.27752e-14
1.38602e-14
2.34764e-14
3.31959e-14
4.16665e-14
2.07524e-14
3.18696e-14
2.26182e-14
3.94642e-14
4.69344e-16
3.17446e-15
5.24821e-14
7.14281e-15
1.1015e-13
1.47259e-13
1.09449e-13
4.15004e-14
8.40224e-14
1.02364e-13
8.03262e-14
6.49811e-15
3.26386e-14
4.55972e-14
8.65555e-14
1.12753e-14
1.44344e-14
4.71881e-14
4.11912e-14
4.92929e-16
7.26722e-14
9.27096e-14
1.51196e-13
1.98234e-13
1.74514e-13
2.47596e-13
8.73301e-14
1.08287e-13
1.66445e-13
2.91359e-13
3.16874e-13
2.8351e-13
3.04727e-13
3.04076e-13
2.68621e-13
2.53737e-13
2.02524e-13
2.49451e-13
3.28415e-13
2.51596e-13
2.36301e-13
2.17328e-13
2.04146e-13
1.42838e-13
4.0455e-14
3.91246e-15
2.79765e-14
6.36226e-15
1.84605e-15
4.76803e-14
1.56824e-14
2.88192e-16
5.12609e-14
5.132e-14
1.57148e-14
5.98034e-14
7.40238e-14
3.73988e-14
3.67926e-14
3.43261e-14
4.66777e-14
2.11955e-14
8.3903e-15
1.16061e-14
6.20148e-15
2.5021e-15
2.09815e-13
7.87773e-13
2.85962e-12
9.4201e-12
2.75982e-11
7.79821e-11
2.17305e-10
6.03315e-10
1.6619e-09
4.5531e-09
1.23813e-08
3.34257e-08
8.96239e-08
2.38652e-07
6.31301e-07
1.65951e-06
4.33714e-06
1.12764e-05
2.91893e-05
7.52948e-05
0.000193772
0.000498168
0.00128136
0.00330281
0.00854535
0.0222286
0.0582198
0.153737
0.409843
1.10503
3.03652
7.84853
13.7586
17.9248
20.7984
23.0006
24.8589
26.5458
28.157
29.7455
31.3385
32.9473
34.5731
36.2129
37.8623
39.5172
41.175
42.8338
44.4926
46.1509
47.8085
49.4654
51.1213
52.7764
54.4306
56.0841
57.7367
59.3886
61.0397
62.6902
64.34
65.9892
67.6378
69.2859
70.9334
72.5805
74.2271
75.8733
77.5191
79.1645
80.8096
82.4544
84.0988
85.7429
87.3868
89.0304
90.6737
92.3168
93.9597
95.6024
97.2449
98.8872
100.529
102.171
103.813
105.455
107.097
108.738
110.379
112.021
113.662
115.303
116.944
118.585
120.226
121.867
123.508
125.149
126.789
128.43
130.071
131.712
133.352
134.993
136.634
138.275
139.916
141.556
143.197
144.838
146.479
148.12
149.761
151.402
153.043
154.685
156.326
157.967
159.608
161.25
162.891
164.533
166.175
167.817
169.458
171.1
172.742
174.384
176.027
177.669
179.311
180.954
182.596
184.239
185.882
187.525
189.168
190.811
192.454
194.097
195.74
197.384
199.027
200.671
202.315
203.959
205.603
207.247
208.891
210.535
212.179
213.823
215.468
217.112
218.756
220.401
222.046
223.69
225.335
226.979
228.624
230.269
231.913
233.558
235.202
236.847
238.491
240.135
241.78
243.424
245.068
246.712
248.355
249.999
251.642
253.285
254.928
256.57
258.212
259.854
261.496
263.137
264.777
266.418
268.058
269.697
271.335
272.973
274.61
276.245
277.879
279.509
281.136
282.755
284.36
285.939
287.468
288.907
290.196
291.267
292.075
292.631
292.984
293.213
293.381
293.516
293.608
293.654
293.67
293.672
293.669
293.666
293.666
293.67
293.673
293.672
293.655
293.589
293.512
293.47
293.457
293.455
293.459
293.46
293.451
293.407
293.342
293.305
293.288
293.281
293.279
293.277
293.271
293.245
293.177
293.107
293.066
293.052
293.05
293.065
293.116
293.166
293.202
293.234
293.276
293.335
293.389
293.422
293.432
293.431
293.412
293.394
293.391
293.4
293.433
293.454
293.458
293.448
293.4
293.36
293.344
293.342
293.352
293.361
293.363
293.34
293.282
293.243
293.228
293.226
293.229
293.229
293.214
293.158
293.113
293.098
293.103
293.164
293.262
293.32
293.342
293.344
293.327
293.312
293.312
293.337
293.383
293.411
293.417
293.406
293.368
293.349
293.348
293.366
293.399
293.414
293.415
293.381
293.319
293.29
293.285
293.293
293.317
293.331
293.332
293.293
293.231
293.201
293.19
293.19
293.195
293.202
293.203
293.184
293.173
293.181
293.234
293.3
293.351
293.384
293.39
293.353
293.312
293.308
293.328
293.371
293.411
293.437
293.432
293.37
293.326
293.323
293.338
293.361
293.397
293.423
293.407
293.323
293.275
293.269
293.279
293.295
293.321
293.35
293.308
293.208
293.173
293.171
293.169
293.185
293.242
293.294
293.26
293.25
293.329
293.565
294.335
290.918
288.769
295.067
298.778
299.02
294.004
290.129
289.758
289.868
290.112
291.052
294.392
297.182
297.562
297.055
295.248
291.228
289.98
289.79
289.938
291.219
295.241
296.778
296.99
296.788
294.952
290.924
289.869
289.874
290.207
291.663
295.186
296.338
296.463
296.168
294.736
291.235
290.204
290.088
290.306
291.83
295.125
295.995
296.175
296.002
294.443
291.243
290.545
290.534
290.803
292.262
295.16
295.943
295.97
295.681
294.356
291.578
290.933
290.905
291.102
292.428
295.017
295.65
295.764
295.556
294.121
291.607
291.135
291.09
291.3
292.557
294.904
295.455
295.428
295.157
293.911
291.774
291.332
291.302
291.485
292.569
294.635
295.117
295.161
294.955
293.714
291.77
291.408
291.359
291.561
292.676
294.613
295.045
295.038
294.827
293.772
292.07
291.687
291.681
291.877
292.773
294.507
294.9
294.924
294.789
293.866
292.245
291.906
291.846
291.975
292.819
294.432
294.774
294.778
294.634
293.869
292.343
291.927
291.932
292.086
292.782
294.201
294.53
294.544
294.464
294.039
293.072
292.012
289.392
267.603
129.155
11.4386
0.783323
0.0523413
0.00348589
0.000231857
1.54016e-05
1.02171e-06
6.76889e-08
4.47869e-09
2.96197e-10
1.96303e-11
1.35385e-12
6.37724e-14
8.71228e-14
1.22108e-13
1.4372e-13
2.32543e-13
2.27815e-13
1.83043e-13
1.33726e-13
1.29587e-13
1.16226e-13
8.13308e-14
1.09159e-13
1.99145e-13
2.04852e-13
1.38911e-13
6.76021e-14
5.80773e-14
1.58969e-13
2.42843e-13
1.75735e-13
9.84821e-14
8.75703e-14
9.27113e-14
5.34636e-14
5.78742e-17
9.4008e-15
1.27944e-13
1.87686e-13
1.42339e-13
1.5948e-13
5.85979e-14
6.54279e-14
9.1899e-14
3.90878e-14
3.95717e-14
9.4403e-14
1.27918e-13
2.22671e-13
3.11662e-13
3.40942e-13
3.77316e-13
4.40103e-13
3.9771e-13
4.3562e-13
3.95296e-13
3.6431e-13
3.30786e-13
4.31596e-13
5.34684e-13
3.97057e-13
3.9214e-13
3.68586e-13
3.98635e-13
4.48691e-13
4.25526e-13
4.37643e-13
3.6279e-13
2.25974e-13
2.38623e-13
2.07961e-13
1.55831e-13
1.4538e-13
1.71983e-13
1.61911e-13
1.17204e-13
1.35953e-13
1.2421e-13
2.23326e-14
2.2158e-14
4.39888e-14
2.46049e-14
2.40006e-14
9.10861e-15
6.98016e-14
1.4836e-13
9.45417e-14
5.13311e-14
2.21278e-14
2.06775e-14
3.81872e-14
7.98779e-15
4.99865e-14
1.43751e-13
1.7306e-13
3.24122e-14
1.44988e-13
2.28042e-13
1.34576e-13
1.5545e-13
1.59518e-13
1.13594e-13
2.49269e-14
6.48852e-14
1.35981e-13
1.53386e-13
1.99298e-13
1.64309e-13
1.40115e-13
1.60929e-13
7.48984e-14
5.16087e-14
9.3542e-14
9.16673e-14
1.01192e-13
3.90411e-14
9.85017e-14
2.08062e-13
1.31944e-13
5.43583e-14
2.97007e-13
2.62484e-13
2.40994e-13
1.81228e-13
2.98128e-14
1.94687e-14
1.28597e-13
1.19735e-13
1.42479e-13
1.84965e-13
2.54884e-13
3.30649e-13
2.90058e-13
2.54161e-13
1.86286e-13
1.30009e-13
2.43789e-14
2.80086e-14
4.30543e-15
7.90887e-14
5.9219e-14
5.64769e-14
5.53092e-14
6.95115e-14
1.11267e-13
4.22445e-14
6.59765e-14
9.64697e-14
9.09816e-14
1.14849e-13
1.47201e-13
1.22883e-13
1.85857e-13
2.45176e-13
2.13409e-13
1.60625e-13
1.39114e-13
5.17232e-14
3.72675e-14
2.33216e-15
5.59274e-14
1.14935e-13
6.27048e-14
1.03733e-13
1.55528e-13
1.11415e-13
7.95114e-14
1.17067e-14
7.10234e-15
1.31485e-13
2.90555e-13
2.73606e-13
1.75737e-13
3.21129e-14
1.325e-13
5.14443e-14
1.76901e-14
1.10009e-13
9.26793e-14
8.59401e-14
6.7526e-14
6.35382e-14
8.61497e-15
9.43013e-14
1.54807e-13
9.84574e-14
3.29109e-14
5.17512e-14
1.08885e-13
1.5149e-13
1.47094e-13
2.18435e-13
2.0487e-13
1.05721e-13
1.33434e-14
1.40777e-13
2.49514e-13
2.42184e-13
2.47472e-13
2.23607e-13
1.35939e-13
6.39412e-14
9.12407e-14
3.80985e-14
5.0963e-15
5.90752e-14
9.77683e-14
1.43631e-13
1.56567e-13
8.10431e-14
1.60446e-14
5.79604e-14
1.1343e-13
1.38703e-13
2.41849e-13
2.89036e-13
2.59355e-13
1.25666e-13
1.35687e-13
6.68752e-14
6.84625e-15
)
;

boundaryField
{
    sides
    {
        type            calculated;
        value           nonuniform List<scalar> 2(6.84625e-15 1.49852e-13);
    }
    empty
    {
        type            empty;
    }
}


// ************************************************************************* //
