/*--------------------------------*- C++ -*----------------------------------*\
  =========                 |
  \\      /  F ield         | OpenFOAM: The Open Source CFD Toolbox
   \\    /   O peration     | Website:  https://openfoam.org
    \\  /    A nd           | Version:  7
     \\/     M anipulation  |
\*---------------------------------------------------------------------------*/
FoamFile
{
    version     2.0;
    format      ascii;
    class       Cloud<dsmcParcel>;
    location    "0.001/lagrangian/dsmc";
    object      positions;
}
// * * * * * * * * * * * * * * * * * * * * * * * * * * * * * * * * * * * * * //

2968
(
(0.555094 0.222453 0.222453 0) 6 6 2
(0.19844 0.40078 0 0.40078) 18 17 2
(0.247717 0.376142 0 0.376142) 24 23 2
(0.0171135 0.491443 0 0.491443) 0 1000 1
(0.131361 0.43432 0 0.43432) 13 12 2
(0.531493 0.234253 0.234253 0) 9 9 2
(0.945316 0.0273422 0.0273422 0) 25 25 2
(0.888784 0.0556079 0 0.0556079) 5 5 1
(0.294376 0.352812 0.352812 0) 27 27 2
(0.0924663 0.453767 0 0.453767) 14 14 1
(0.709951 0.145025 0.145025 0) 1 1 2
(0.140832 0.429584 0.429584 0) 4 4 2
(0.930686 0.034657 0.034657 0) 3 2 1
(0.17869 0.410655 0 0.410655) 31 30 2
(0.215194 0.392403 0 0.392403) 12 12 1
(0.930663 0.0346684 0 0.0346684) 7 6 2
(0.683987 0.158006 0 0.158006) 10 10 1
(0.617783 0.191108 0.191108 0) 32 32 2
(0.872661 0.0636694 0 0.0636694) 3 3 1
(0.00819475 0.495903 0.495903 0) 37 36 1
(0.0863923 0.456804 0.456804 0) 14 14 2
(0.390508 0.304746 0.304746 0) 21 20 1
(0.909449 0.0452755 0 0.0452755) 2 2 1
(0.682396 0.158802 0 0.158802) 20 20 1
(0.655331 0.172335 0 0.172335) 33 33 1
(0.460089 0.269956 0.269956 0) 20 19 1
(0.0751068 0.462447 0.462447 0) 28 28 2
(0.361107 0.319446 0 0.319446) 22 22 1
(0.638293 0.180854 0 0.180854) 8 8 1
(0.607294 0.196353 0.196353 0) 15 14 1
(0.880529 0.0597356 0 0.0597356) 16 15 2
(0.129359 0.435321 0 0.435321) 19 18 2
(0.401478 0.299261 0.299261 0) 3 2 1
(0.557853 0.221073 0.221073 0) 8 8 2
(0.882861 0.0585697 0 0.0585697) 13 13 1
(0.701513 0.149243 0 0.149243) 28 27 2
(0.0590294 0.470485 0.470485 0) 41 40 1
(0.185155 0.407423 0.407423 0) 17 17 2
(0.788287 0.105857 0 0.105857) 18 17 2
(0.533181 0.233409 0 0.233409) 22 22 1
(0.0112766 0.494362 0.494362 0) 41 40 1
(0.480632 0.259684 0 0.259684) 28 27 2
(0.47262 0.26369 0.26369 0) 41 41 2
(0.864532 0.067734 0 0.067734) 22 22 1
(0.258543 0.370728 0 0.370728) 31 31 1
(0.865807 0.0670965 0 0.0670965) 19 19 1
(0.203108 0.398446 0 0.398446) 32 31 2
(0.0715237 0.464238 0 0.464238) 15 15 1
(0.897945 0.0510275 0 0.0510275) 30 30 1
(0.545467 0.227267 0 0.227267) 27 27 1
(0.385909 0.307046 0 0.307046) 5 5 1
(0.930948 0.034526 0.034526 0) 23 23 2
(0.751237 0.124381 0 0.124381) 41 40 2
(0.349329 0.325336 0 0.325336) 25 25 1
(0.820273 0.0898635 0 0.0898635) 35 34 2
(0.323446 0.338277 0 0.338277) 21 20 2
(0.840932 0.0795341 0.0795341 0) 30 29 1
(0.682264 0.158868 0 0.158868) 24 23 2
(0.623615 0.188192 0.188192 0) 45 45 2
(0.632901 0.183549 0.183549 0) 31 31 2
(0.177639 0.41118 0.41118 0) 27 26 1
(0.874071 0.0629644 0 0.0629644) 41 40 2
(0.647341 0.176329 0.176329 0) 35 34 1
(0.524412 0.237794 0.237794 0) 19 18 1
(0.472182 0.263909 0 0.263909) 44 44 1
(0.453746 0.273127 0 0.273127) 34 33 2
(0.677291 0.161354 0.161354 0) 20 20 2
(0.313058 0.343471 0.343471 0) 46 45 1
(0.926019 0.0369903 0 0.0369903) 22 21 2
(0.433477 0.283261 0.283261 0) 27 26 1
(0.496232 0.251884 0 0.251884) 52 52 1
(0.712702 0.143649 0 0.143649) 31 31 1
(0.208789 0.395606 0.395606 0) 41 40 1
(0.938966 0.0305169 0.0305169 0) 23 22 1
(0.76356 0.11822 0 0.11822) 31 31 1
(0.760105 0.119947 0 0.119947) 48 47 2
(0.827789 0.0861053 0 0.0861053) 49 48 2
(0.425073 0.287464 0 0.287464) 35 34 2
(0.937798 0.0311011 0.0311011 0) 43 43 2
(0.432184 0.283908 0.283908 0) 17 17 2
(0.138385 0.430808 0 0.430808) 63 62 2
(0.511236 0.244382 0.244382 0) 44 44 2
(0.619165 0.190418 0 0.190418) 36 35 2
(0.213312 0.393344 0 0.393344) 54 53 2
(0.529479 0.235261 0.235261 0) 29 28 1
(0.337702 0.331149 0 0.331149) 49 49 1
(0.448578 0.275711 0.275711 0) 6 6 2
(0.386324 0.306838 0.306838 0) 58 58 2
(0.764251 0.117874 0.117874 0) 32 31 1
(0.786274 0.106863 0.106863 0) 43 42 1
(0.139764 0.430118 0 0.430118) 47 47 1
(0.470238 0.264881 0 0.264881) 47 47 1
(0.216914 0.391543 0.391543 0) 22 22 2
(0.897271 0.0513646 0.0513646 0) 50 49 1
(0.12915 0.435425 0.435425 0) 43 42 1
(0.787083 0.106458 0.106458 0) 49 49 2
(0.819489 0.0902554 0.0902554 0) 50 50 2
(0.949596 0.025202 0.025202 0) 41 40 1
(0.667619 0.166191 0 0.166191) 47 47 1
(0.162075 0.418963 0 0.418963) 58 58 1
(0.652918 0.173541 0 0.173541) 39 39 1
(0.509686 0.245157 0.245157 0) 38 38 2
(0.398405 0.300798 0.300798 0) 59 59 2
(0.0751303 0.462435 0.462435 0) 31 30 1
(0.482479 0.258761 0 0.258761) 46 46 1
(0.488877 0.255561 0 0.255561) 39 38 2
(0.701708 0.149146 0.149146 0) 38 37 1
(0.36618 0.31691 0.31691 0) 51 51 2
(0.334656 0.332672 0.332672 0) 52 51 1
(0.69747 0.151265 0.151265 0) 34 34 2
(0.798344 0.100828 0.100828 0) 73 72 1
(0.993906 0.00304697 0.00304697 0) 56 55 1
(0.539716 0.230142 0.230142 0) 58 57 1
(0.366855 0.316572 0.316572 0) 32 32 2
(0.00150934 0.499245 0 0.499245) 42 41 2
(0.83638 0.0818102 0 0.0818102) 56 56 1
(0.851158 0.0744208 0.0744208 0) 57 57 2
(0.777181 0.11141 0 0.11141) 47 46 2
(0.977957 0.0110215 0 0.0110215) 37 37 1
(0.655437 0.172282 0 0.172282) 46 46 1
(0.225576 0.387212 0.387212 0) 49 48 1
(0.289558 0.355221 0.355221 0) 45 44 1
(0.841633 0.0791835 0.0791835 0) 36 35 1
(0.595245 0.202377 0.202377 0) 41 41 2
(0.445144 0.277428 0 0.277428) 56 56 1
(0.123434 0.438283 0.438283 0) 65 64 1
(0.445698 0.277151 0.277151 0) 57 56 1
(0.556427 0.221786 0.221786 0) 37 36 1
(0.373186 0.313407 0.313407 0) 65 64 1
(0.486128 0.256936 0 0.256936) 51 50 2
(0.625618 0.187191 0 0.187191) 53 52 2
(0.302396 0.348802 0 0.348802) 68 67 2
(0.518493 0.240753 0.240753 0) 29 29 2
(0.37492 0.31254 0.31254 0) 67 67 2
(0.901125 0.0494376 0 0.0494376) 43 43 1
(0.916045 0.0419775 0.0419775 0) 63 63 2
(0.469634 0.265183 0.265183 0) 59 59 2
(0.32217 0.338915 0 0.338915) 47 47 1
(0.688223 0.155889 0.155889 0) 52 51 1
(0.412236 0.293882 0.293882 0) 54 53 1
(0.34615 0.326925 0 0.326925) 62 61 2
(0.990316 0.00484198 0 0.00484198) 81 80 2
(0.0331587 0.483421 0 0.483421) 60 59 2
(0.81496 0.0925199 0.0925199 0) 61 60 1
(0.974102 0.0129489 0.0129489 0) 55 54 1
(0.99752 0.00124002 0 0.00124002) 78 77 2
(0.397463 0.301268 0.301268 0) 63 62 1
(0.643178 0.178411 0.178411 0) 51 50 1
(0.447707 0.276146 0 0.276146) 79 79 1
(0.0143111 0.492844 0 0.492844) 69 69 1
(0.977117 0.0114416 0 0.0114416) 74 74 1
(0.647774 0.176113 0.176113 0) 74 73 1
(0.452514 0.273743 0 0.273743) 67 66 2
(0.568022 0.215989 0 0.215989) 73 73 1
(0.955408 0.0222959 0 0.0222959) 63 62 2
(0.316799 0.3416 0 0.3416) 66 66 1
(0.0765219 0.461739 0 0.461739) 44 43 2
(0.62529 0.187355 0 0.187355) 63 63 1
(0.134671 0.432664 0 0.432664) 59 58 2
(0.183094 0.408453 0.408453 0) 72 71 1
(0.426418 0.286791 0.286791 0) 55 55 2
(0.57721 0.211395 0.211395 0) 79 78 1
(0.602827 0.198587 0 0.198587) 76 75 2
(0.0866239 0.456688 0 0.456688) 79 79 1
(0.284767 0.357616 0 0.357616) 65 65 1
(0.801465 0.0992677 0 0.0992677) 66 66 1
(0.148601 0.4257 0 0.4257) 75 75 1
(0.285322 0.357339 0.357339 0) 71 71 2
(0.51923 0.240385 0 0.240385) 42 41 2
(0.141684 0.429158 0 0.429158) 71 71 1
(0.639607 0.180196 0.180196 0) 87 87 2
(0.0832574 0.458371 0.458371 0) 77 76 1
(0.51418 0.24291 0 0.24291) 80 79 2
(0.688746 0.155627 0 0.155627) 67 66 2
(0.303214 0.348393 0.348393 0) 88 88 2
(0.653759 0.173121 0 0.173121) 39 39 1
(0.920226 0.0398871 0 0.0398871) 62 62 1
(0.505839 0.247081 0 0.247081) 74 73 2
(0.953363 0.0233183 0 0.0233183) 84 83 2
(0.865693 0.0671536 0.0671536 0) 70 70 2
(0.905664 0.0471679 0 0.0471679) 77 76 2
(0.185674 0.407163 0.407163 0) 83 82 1
(0.0549197 0.47254 0 0.47254) 67 67 1
(0.647939 0.17603 0.17603 0) 75 74 1
(0.306264 0.346868 0.346868 0) 80 79 1
(0.636983 0.181508 0 0.181508) 66 65 2
(0.602786 0.198607 0.198607 0) 76 75 1
(0.579707 0.210146 0.210146 0) 71 70 1
(0.302295 0.348852 0 0.348852) 92 91 2
(0.548498 0.225751 0 0.225751) 74 74 1
(0.958833 0.0205835 0.0205835 0) 77 76 1
(0.284126 0.357937 0 0.357937) 102 102 1
(0.293276 0.353362 0 0.353362) 84 83 2
(0.598653 0.200674 0.200674 0) 81 80 1
(0.141853 0.429074 0 0.429074) 83 83 1
(0.346988 0.326506 0 0.326506) 87 87 1
(0.483735 0.258133 0 0.258133) 76 76 1
(0.687483 0.156258 0 0.156258) 81 81 1
(0.497424 0.251288 0 0.251288) 82 81 2
(0.073228 0.463386 0 0.463386) 82 81 2
(0.357273 0.321364 0.321364 0) 76 75 1
(0.737189 0.131405 0 0.131405) 88 87 2
(0.788749 0.105626 0 0.105626) 66 66 1
(0.110645 0.444677 0 0.444677) 81 81 1
(0.520335 0.239833 0 0.239833) 69 68 2
(0.304477 0.347762 0 0.347762) 67 66 2
(0.454182 0.272909 0 0.272909) 80 80 1
(0.64222 0.17889 0 0.17889) 79 78 2
(0.670033 0.164983 0 0.164983) 78 77 2
(0.113587 0.443206 0.443206 0) 80 79 1
(0.379208 0.310396 0.310396 0) 81 80 1
(0.864685 0.0676577 0.0676577 0) 85 85 2
(0.860058 0.0699709 0.0699709 0) 83 82 1
(0.991222 0.00438905 0.00438905 0) 92 92 2
(0.51386 0.24307 0 0.24307) 105 104 2
(0.505273 0.247363 0.247363 0) 92 92 2
(0.113385 0.443308 0 0.443308) 106 105 2
(0.859885 0.0700574 0 0.0700574) 95 95 1
(0.205194 0.397403 0.397403 0) 84 84 2
(0.686852 0.156574 0.156574 0) 77 77 2
(0.0869654 0.456517 0 0.456517) 82 82 1
(0.69362 0.15319 0.15319 0) 92 92 2
(0.0178359 0.491082 0.491082 0) 97 96 1
(0.989217 0.00539165 0 0.00539165) 110 109 2
(0.0851302 0.457435 0 0.457435) 71 70 2
(0.767615 0.116192 0 0.116192) 90 90 1
(0.412983 0.293509 0.293509 0) 95 95 2
(0.24151 0.379245 0 0.379245) 87 87 1
(0.898208 0.0508958 0 0.0508958) 80 79 2
(0.302729 0.348636 0.348636 0) 84 83 1
(0.293475 0.353262 0 0.353262) 97 96 2
(0.274425 0.362788 0 0.362788) 65 64 2
(0.488394 0.255803 0 0.255803) 86 85 2
(0.948294 0.0258528 0.0258528 0) 83 83 2
(0.821074 0.089463 0 0.089463) 80 79 2
(0.383386 0.308307 0 0.308307) 90 90 1
(0.974663 0.0126687 0 0.0126687) 103 102 2
(0.545174 0.227413 0 0.227413) 94 94 1
(0.341271 0.329364 0.329364 0) 100 99 1
(0.651417 0.174291 0.174291 0) 83 83 2
(0.831399 0.0843007 0 0.0843007) 118 117 2
(0.309844 0.345078 0.345078 0) 87 86 1
(0.738385 0.130808 0 0.130808) 95 95 1
(0.153898 0.423051 0.423051 0) 104 104 2
(0.456508 0.271746 0 0.271746) 104 104 1
(0.564031 0.217984 0 0.217984) 100 99 2
(0.88513 0.0574348 0 0.0574348) 88 88 1
(0.782786 0.108607 0 0.108607) 97 96 2
(0.476965 0.261517 0.261517 0) 102 101 1
(0.504717 0.247642 0.247642 0) 94 93 1
(0.4896 0.2552 0.2552 0) 111 110 1
(0.754575 0.122712 0 0.122712) 119 118 2
(0.436373 0.281813 0.281813 0) 95 94 1
(0.761219 0.11939 0 0.11939) 98 97 2
(0.647584 0.176208 0 0.176208) 98 97 2
(0.668911 0.165545 0 0.165545) 87 86 2
(0.967454 0.0162729 0 0.0162729) 113 113 1
(0.709198 0.145401 0 0.145401) 97 96 2
(0.636518 0.181741 0 0.181741) 106 105 2
(0.185948 0.407026 0.407026 0) 108 107 1
(0.17396 0.41302 0 0.41302) 108 108 1
(0.776638 0.111681 0.111681 0) 111 110 1
(0.534356 0.232822 0 0.232822) 93 93 1
(0.0683997 0.4658 0.4658 0) 108 108 2
(0.476684 0.261658 0 0.261658) 114 114 1
(0.184401 0.407799 0 0.407799) 116 115 2
(0.351163 0.324419 0.324419 0) 122 122 2
(0.431672 0.284164 0 0.284164) 107 107 1
(0.477496 0.261252 0.261252 0) 112 112 2
(0.067638 0.466181 0.466181 0) 102 101 1
(0.419427 0.290286 0.290286 0) 101 101 2
(0.0327448 0.483628 0 0.483628) 106 105 2
(0.320956 0.339522 0.339522 0) 92 91 1
(0.203928 0.398036 0.398036 0) 93 92 1
(0.456698 0.271651 0 0.271651) 132 131 2
(0.940227 0.0298866 0.0298866 0) 110 110 2
(0.245172 0.377414 0 0.377414) 95 94 2
(0.492206 0.253897 0 0.253897) 121 121 1
(0.0854329 0.457284 0.457284 0) 128 127 1
(0.278594 0.360703 0.360703 0) 128 128 2
(0.752473 0.123764 0 0.123764) 104 103 2
(0.746512 0.126744 0.126744 0) 95 94 1
(0.309284 0.345358 0.345358 0) 103 103 2
(0.579798 0.210101 0.210101 0) 130 130 2
(0.498109 0.250945 0 0.250945) 103 102 2
(0.763108 0.118446 0.118446 0) 116 116 2
(0.0519488 0.474026 0 0.474026) 116 116 1
(0.273731 0.363135 0 0.363135) 120 120 1
(0.389669 0.305166 0 0.305166) 126 125 2
(0.365312 0.317344 0.317344 0) 106 106 2
(0.854787 0.0726066 0.0726066 0) 115 115 2
(0.359177 0.320411 0.320411 0) 113 113 2
(0.0888598 0.45557 0 0.45557) 100 99 2
(0.323908 0.338046 0.338046 0) 105 105 2
(0.433798 0.283101 0 0.283101) 97 96 2
(0.560316 0.219842 0.219842 0) 116 115 1
(0.343491 0.328255 0.328255 0) 115 115 2
(0.831415 0.0842926 0 0.0842926) 110 110 1
(0.931942 0.0340292 0.0340292 0) 119 118 1
(0.8983 0.0508501 0 0.0508501) 130 129 2
(0.889959 0.0550205 0.0550205 0) 109 108 1
(0.612895 0.193553 0 0.193553) 114 113 2
(0.101672 0.449164 0 0.449164) 104 103 2
(0.969319 0.0153403 0.0153403 0) 131 130 1
(0.0538384 0.473081 0 0.473081) 126 126 1
(0.258779 0.37061 0.37061 0) 122 122 2
(0.282975 0.358513 0.358513 0) 124 124 2
(0.379158 0.310421 0 0.310421) 128 127 2
(0.299218 0.350391 0.350391 0) 116 116 2
(0.936089 0.0319556 0 0.0319556) 120 119 2
(0.320152 0.339924 0 0.339924) 124 124 1
(0.249712 0.375144 0 0.375144) 110 109 2
(0.982198 0.00890102 0 0.00890102) 111 111 1
(0.309271 0.345365 0.345365 0) 87 87 2
(0.623232 0.188384 0.188384 0) 127 127 2
(0.824643 0.0876785 0.0876785 0) 138 137 1
(0.507063 0.246468 0.246468 0) 124 123 1
(0.399511 0.300244 0.300244 0) 121 121 2
(0.140348 0.429826 0.429826 0) 136 135 1
(0.403197 0.298401 0 0.298401) 125 124 2
(0.92672 0.0366402 0.0366402 0) 119 118 1
(0.719869 0.140066 0 0.140066) 147 146 2
(0.523182 0.238409 0 0.238409) 139 139 1
(0.442858 0.278571 0 0.278571) 132 132 1
(0.54739 0.226305 0.226305 0) 118 118 2
(0.179099 0.410451 0 0.410451) 141 141 1
(0.558558 0.220721 0 0.220721) 121 121 1
(0.613254 0.193373 0.193373 0) 128 128 2
(0.926792 0.036604 0 0.036604) 140 140 1
(0.41847 0.290765 0 0.290765) 126 126 1
(0.205171 0.397415 0.397415 0) 110 110 2
(0.117417 0.441292 0.441292 0) 126 126 2
(0.73581 0.132095 0.132095 0) 147 146 1
(0.268673 0.365664 0.365664 0) 127 127 2
(0.712651 0.143674 0 0.143674) 131 130 2
(0.600631 0.199684 0.199684 0) 131 130 1
(0.736618 0.131691 0.131691 0) 119 118 1
(0.36596 0.31702 0 0.31702) 127 126 2
(0.0264332 0.486783 0.486783 0) 141 140 1
(0.478146 0.260927 0 0.260927) 131 130 2
(0.287465 0.356267 0 0.356267) 144 144 1
(0.673762 0.163119 0 0.163119) 135 135 1
(0.643343 0.178329 0 0.178329) 130 130 1
(0.970934 0.0145331 0.0145331 0) 123 122 1
(0.60413 0.197935 0 0.197935) 129 128 2
(0.0539945 0.473003 0 0.473003) 129 129 1
(0.554207 0.222896 0.222896 0) 135 135 2
(0.749981 0.125009 0 0.125009) 132 131 2
(0.484048 0.257976 0 0.257976) 139 138 2
(0.998442 0.000778952 0.000778952 0) 146 145 1
(0.21236 0.39382 0 0.39382) 135 135 1
(0.0037897 0.498105 0 0.498105) 118 118 1
(0.659994 0.170003 0 0.170003) 137 136 2
(0.0743359 0.462832 0 0.462832) 147 147 1
(0.114856 0.442572 0 0.442572) 151 151 1
(0.0823779 0.458811 0.458811 0) 122 122 2
(0.238011 0.380995 0.380995 0) 127 127 2
(0.901108 0.0494459 0.0494459 0) 140 139 1
(0.0685324 0.465734 0 0.465734) 137 136 2
(0.102596 0.448702 0 0.448702) 119 118 2
(0.960796 0.019602 0.019602 0) 152 152 2
(0.377588 0.311206 0.311206 0) 133 132 1
(0.186527 0.406736 0 0.406736) 151 151 1
(0.818838 0.0905809 0.0905809 0) 158 158 2
(0.624224 0.187888 0 0.187888) 148 147 2
(0.641774 0.179113 0.179113 0) 155 154 1
(0.405593 0.297203 0 0.297203) 144 144 1
(0.408614 0.295693 0.295693 0) 139 138 1
(0.597582 0.201209 0 0.201209) 139 139 1
(0.512552 0.243724 0 0.243724) 140 140 1
(0.33774 0.33113 0 0.33113) 129 129 1
(0.653751 0.173125 0 0.173125) 148 147 2
(0.199282 0.400359 0 0.400359) 135 135 1
(0.974805 0.0125974 0 0.0125974) 140 140 1
(0.810224 0.0948882 0.0948882 0) 155 154 1
(0.56413 0.217935 0.217935 0) 152 152 2
(0.589695 0.205152 0.205152 0) 159 159 2
(0.612617 0.193691 0 0.193691) 143 143 1
(0.971211 0.0143946 0 0.0143946) 159 158 2
(0.575111 0.212445 0 0.212445) 171 171 1
(0.987598 0.00620125 0.00620125 0) 154 154 2
(0.25101 0.374495 0 0.374495) 146 146 1
(0.877323 0.0613387 0 0.0613387) 128 127 2
(0.0776282 0.461186 0.461186 0) 163 162 1
(0.247668 0.376166 0.376166 0) 149 148 1
(0.0356758 0.482162 0 0.482162) 150 149 2
(0.412882 0.293559 0.293559 0) 138 137 1
(0.610112 0.194944 0 0.194944) 149 149 1
(0.925225 0.0373877 0.0373877 0) 168 168 2
(0.563198 0.218401 0.218401 0) 157 157 2
(0.0264335 0.486783 0.486783 0) 162 161 1
(0.53898 0.23051 0.23051 0) 159 159 2
(0.83688 0.0815602 0 0.0815602) 154 154 1
(0.553623 0.223188 0.223188 0) 151 150 1
(0.280752 0.359624 0.359624 0) 137 137 2
(0.0455749 0.477213 0 0.477213) 152 151 2
(0.262986 0.368507 0 0.368507) 147 147 1
(0.570049 0.214976 0.214976 0) 158 157 1
(0.907893 0.0460533 0 0.0460533) 162 161 2
(0.344189 0.327906 0.327906 0) 181 180 1
(0.90539 0.047305 0 0.047305) 159 158 2
(0.791865 0.104067 0 0.104067) 163 162 2
(0.346061 0.326969 0 0.326969) 145 144 2
(0.740677 0.129661 0 0.129661) 159 159 1
(0.99557 0.00221477 0 0.00221477) 161 160 2
(0.231585 0.384207 0 0.384207) 166 166 1
(0.419168 0.290416 0.290416 0) 160 160 2
(0.449774 0.275113 0.275113 0) 164 164 2
(0.194699 0.40265 0.40265 0) 151 150 1
(0.0864324 0.456784 0.456784 0) 180 179 1
(0.796584 0.101708 0 0.101708) 149 148 2
(0.408216 0.295892 0 0.295892) 161 160 2
(0.973767 0.0131164 0 0.0131164) 137 136 2
(0.883733 0.0581334 0.0581334 0) 183 182 1
(0.648781 0.17561 0 0.17561) 160 159 2
(0.772779 0.11361 0.11361 0) 155 155 2
(0.79584 0.10208 0 0.10208) 132 131 2
(0.944223 0.0278883 0.0278883 0) 181 180 1
(0.659508 0.170246 0.170246 0) 171 170 1
(0.710899 0.14455 0.14455 0) 177 177 2
(0.539475 0.230263 0 0.230263) 162 161 2
(0.141446 0.429277 0.429277 0) 178 178 2
(0.459742 0.270129 0.270129 0) 160 159 1
(0.118919 0.440541 0.440541 0) 164 164 2
(0.964026 0.0179872 0 0.0179872) 168 168 1
(0.681226 0.159387 0 0.159387) 178 177 2
(0.722007 0.138997 0 0.138997) 167 166 2
(0.731434 0.134283 0 0.134283) 158 158 1
(0.920778 0.0396109 0.0396109 0) 149 149 2
(0.884521 0.0577393 0.0577393 0) 168 167 1
(0.0883183 0.455841 0 0.455841) 176 176 1
(0.736787 0.131606 0.131606 0) 176 175 1
(0.277958 0.361021 0 0.361021) 195 195 1
(0.421336 0.289332 0.289332 0) 149 149 2
(0.893001 0.0534993 0.0534993 0) 154 153 1
(0.374878 0.312561 0.312561 0) 167 166 1
(0.474195 0.262902 0.262902 0) 152 152 2
(0.992982 0.00350889 0 0.00350889) 156 156 1
(0.296916 0.351542 0.351542 0) 161 161 2
(0.200043 0.399978 0.399978 0) 168 168 2
(0.979658 0.010171 0.010171 0) 171 170 1
(0.320981 0.33951 0 0.33951) 178 178 1
(0.0494849 0.475258 0 0.475258) 163 162 2
(0.918785 0.0406077 0 0.0406077) 181 180 2
(0.555419 0.222291 0.222291 0) 186 186 2
(0.89563 0.0521848 0 0.0521848) 187 187 1
(0.747505 0.126248 0 0.126248) 174 174 1
(0.92195 0.0390248 0 0.0390248) 171 171 1
(0.707174 0.146413 0.146413 0) 180 180 2
(0.0489437 0.475528 0.475528 0) 171 170 1
(0.551189 0.224405 0.224405 0) 164 164 2
(0.128858 0.435571 0.435571 0) 183 182 1
(0.00536118 0.497319 0 0.497319) 163 163 1
(0.0108806 0.49456 0 0.49456) 189 189 1
(0.468072 0.265964 0.265964 0) 169 169 2
(0.942152 0.0289241 0.0289241 0) 177 177 2
(0.752403 0.123798 0 0.123798) 174 174 1
(0.826415 0.0867925 0 0.0867925) 176 175 2
(0.307767 0.346116 0.346116 0) 184 183 1
(0.568045 0.215977 0 0.215977) 170 170 1
(0.41693 0.291535 0 0.291535) 159 158 2
(0.87915 0.0604249 0 0.0604249) 168 168 1
(0.807158 0.0964208 0 0.0964208) 190 189 2
(0.658313 0.170844 0.170844 0) 183 182 1
(0.931234 0.0343828 0.0343828 0) 182 181 1
(0.393636 0.303182 0.303182 0) 183 182 1
(0.257088 0.371456 0 0.371456) 178 178 1
(0.793072 0.103464 0 0.103464) 183 182 2
(0.0881784 0.455911 0 0.455911) 181 180 2
(0.428543 0.285728 0.285728 0) 174 173 1
(0.967762 0.0161192 0 0.0161192) 169 169 1
(0.547938 0.226031 0.226031 0) 173 173 2
(0.838212 0.0808939 0 0.0808939) 178 178 1
(0.605988 0.197006 0 0.197006) 180 179 2
(0.118573 0.440713 0.440713 0) 177 177 2
(0.357752 0.321124 0 0.321124) 183 182 2
(0.0161868 0.491907 0.491907 0) 189 189 2
(0.366514 0.316743 0 0.316743) 183 182 2
(0.705687 0.147157 0 0.147157) 172 171 2
(0.240037 0.379981 0.379981 0) 188 187 1
(0.430976 0.284512 0 0.284512) 191 191 1
(0.56757 0.216215 0 0.216215) 201 201 1
(0.0329239 0.483538 0.483538 0) 173 172 1
(0.0885872 0.455706 0 0.455706) 183 183 1
(0.799383 0.100308 0.100308 0) 184 184 2
(0.333458 0.333271 0.333271 0) 172 171 1
(0.128352 0.435824 0.435824 0) 191 190 1
(0.549449 0.225276 0 0.225276) 172 172 1
(0.339193 0.330403 0.330403 0) 198 198 2
(0.667654 0.166173 0.166173 0) 188 187 1
(0.663336 0.168332 0.168332 0) 180 180 2
(0.354677 0.322662 0.322662 0) 188 187 1
(0.309331 0.345335 0.345335 0) 208 207 1
(0.575168 0.212416 0 0.212416) 191 190 2
(0.497041 0.251479 0 0.251479) 183 182 2
(0.296932 0.351534 0.351534 0) 174 173 1
(0.816876 0.0915618 0.0915618 0) 182 181 1
(0.124769 0.437616 0 0.437616) 204 203 2
(0.760549 0.119725 0.119725 0) 191 190 1
(0.914383 0.0428086 0 0.0428086) 192 192 1
(0.67631 0.161845 0 0.161845) 196 196 1
(0.365812 0.317094 0.317094 0) 181 180 1
(0.732227 0.133887 0.133887 0) 194 193 1
(0.0715398 0.46423 0.46423 0) 193 192 1
(0.0684701 0.465765 0 0.465765) 186 185 2
(0.115267 0.442366 0 0.442366) 174 173 2
(0.592564 0.203718 0.203718 0) 187 186 1
(0.0971655 0.451417 0 0.451417) 191 190 2
(0.632131 0.183934 0.183934 0) 189 189 2
(0.188727 0.405637 0 0.405637) 187 187 1
(0.420882 0.289559 0.289559 0) 181 180 1
(0.0659709 0.467015 0 0.467015) 199 198 2
(0.00495463 0.497523 0.497523 0) 193 192 1
(0.276155 0.361923 0.361923 0) 184 184 2
(0.781537 0.109231 0.109231 0) 222 221 1
(0.911086 0.0444569 0.0444569 0) 186 186 2
(0.346183 0.326908 0 0.326908) 190 190 1
(0.255259 0.372371 0.372371 0) 196 196 2
(0.426254 0.286873 0 0.286873) 187 187 1
(0.68623 0.156885 0 0.156885) 194 194 1
(0.574811 0.212594 0.212594 0) 184 184 2
(0.0606604 0.46967 0.46967 0) 197 196 1
(0.457861 0.27107 0.27107 0) 186 185 1
(0.339518 0.330241 0 0.330241) 190 190 1
(0.772533 0.113733 0 0.113733) 201 201 1
(0.129374 0.435313 0 0.435313) 198 198 1
(0.502973 0.248513 0 0.248513) 190 189 2
(0.226172 0.386914 0 0.386914) 210 209 2
(0.735693 0.132154 0 0.132154) 191 190 2
(0.749819 0.12509 0.12509 0) 188 188 2
(0.482134 0.258933 0 0.258933) 195 195 1
(0.56041 0.219795 0 0.219795) 203 202 2
(0.658209 0.170895 0.170895 0) 195 195 2
(0.903263 0.0483683 0.0483683 0) 196 196 2
(0.931979 0.0340103 0 0.0340103) 201 200 2
(0.0642203 0.46789 0.46789 0) 200 199 1
(0.143869 0.428065 0 0.428065) 186 186 1
(0.96985 0.0150751 0 0.0150751) 195 194 2
(0.379925 0.310038 0 0.310038) 203 202 2
(0.195549 0.402225 0 0.402225) 200 200 1
(0.629117 0.185442 0.185442 0) 201 201 2
(0.836692 0.0816542 0.0816542 0) 195 195 2
(0.145237 0.427382 0 0.427382) 195 195 1
(0.00335937 0.49832 0.49832 0) 196 196 2
(0.94796 0.0260202 0.0260202 0) 204 203 1
(0.0170133 0.491493 0.491493 0) 198 198 2
(0.146409 0.426796 0 0.426796) 194 193 2
(0.693282 0.153359 0.153359 0) 199 198 1
(0.534287 0.232856 0.232856 0) 213 212 1
(0.542761 0.22862 0 0.22862) 201 200 2
(0.736201 0.1319 0 0.1319) 205 205 1
(0.495029 0.252486 0 0.252486) 209 209 1
(0.772416 0.113792 0 0.113792) 190 190 1
(0.196751 0.401624 0.401624 0) 214 214 2
(0.110413 0.444793 0 0.444793) 221 221 1
(0.351881 0.324059 0 0.324059) 207 206 2
(0.011737 0.494131 0.494131 0) 191 191 2
(0.090633 0.454683 0 0.454683) 211 211 1
(0.423266 0.288367 0 0.288367) 203 203 1
(0.908081 0.0459596 0.0459596 0) 219 218 1
(0.239234 0.380383 0.380383 0) 209 208 1
(0.397691 0.301154 0.301154 0) 212 211 1
(0.735688 0.132156 0.132156 0) 201 200 1
(0.906472 0.0467642 0.0467642 0) 205 205 2
(0.508533 0.245734 0 0.245734) 205 205 1
(0.279166 0.360417 0 0.360417) 203 203 1
(0.25707 0.371465 0 0.371465) 212 211 2
(0.0596991 0.47015 0 0.47015) 218 217 2
(0.189287 0.405357 0 0.405357) 222 222 1
(0.832669 0.0836656 0.0836656 0) 200 199 1
(0.760927 0.119537 0.119537 0) 202 202 2
(0.399612 0.300194 0 0.300194) 204 204 1
(0.968029 0.0159853 0 0.0159853) 214 213 2
(0.795908 0.102046 0 0.102046) 208 208 1
(0.37433 0.312835 0.312835 0) 212 212 2
(0.912159 0.0439203 0 0.0439203) 203 203 1
(0.0599043 0.470048 0.470048 0) 237 236 1
(0.350055 0.324972 0.324972 0) 206 206 2
(0.861232 0.0693842 0 0.0693842) 219 219 1
(0.822398 0.0888008 0 0.0888008) 196 195 2
(0.218876 0.390562 0 0.390562) 214 214 1
(0.414437 0.292781 0.292781 0) 215 214 1
(0.0744865 0.462757 0.462757 0) 206 205 1
(0.123625 0.438188 0.438188 0) 200 199 1
(0.576085 0.211957 0.211957 0) 214 214 2
(0.967795 0.0161025 0.0161025 0) 220 219 1
(0.97186 0.0140699 0.0140699 0) 218 218 2
(0.794207 0.102897 0 0.102897) 216 215 2
(0.862808 0.0685962 0 0.0685962) 213 212 2
(0.240105 0.379948 0 0.379948) 208 208 1
(0.739363 0.130319 0.130319 0) 209 209 2
(0.374225 0.312888 0 0.312888) 208 207 2
(0.435528 0.282236 0 0.282236) 214 214 1
(0.606772 0.196614 0 0.196614) 208 208 1
(0.372257 0.313871 0.313871 0) 225 224 1
(0.0924431 0.453778 0.453778 0) 206 205 1
(0.941522 0.029239 0.029239 0) 213 212 1
(0.916654 0.041673 0 0.041673) 223 222 2
(0.148062 0.425969 0.425969 0) 226 226 2
(0.545014 0.227493 0.227493 0) 229 229 2
(0.443236 0.278382 0 0.278382) 220 219 2
(0.36448 0.31776 0 0.31776) 212 212 1
(0.208601 0.395699 0 0.395699) 223 223 1
(0.754333 0.122833 0.122833 0) 235 235 2
(0.806449 0.0967756 0.0967756 0) 214 214 2
(0.670104 0.164948 0 0.164948) 227 227 1
(0.768405 0.115798 0.115798 0) 220 219 1
(0.422587 0.288706 0.288706 0) 234 234 2
(0.833567 0.0832164 0.0832164 0) 221 221 2
(0.782712 0.108644 0.108644 0) 240 239 1
(0.867804 0.0660981 0.0660981 0) 211 211 2
(0.983885 0.00805767 0 0.00805767) 214 213 2
(0.556926 0.221537 0.221537 0) 216 216 2
(0.200244 0.399878 0 0.399878) 215 215 1
(0.79642 0.10179 0 0.10179) 206 205 2
(0.441354 0.279323 0 0.279323) 226 226 1
(0.372422 0.313789 0.313789 0) 219 219 2
(0.0650639 0.467468 0 0.467468) 220 220 1
(0.518078 0.240961 0 0.240961) 216 215 2
(0.145632 0.427184 0 0.427184) 231 231 1
(0.843195 0.0784026 0.0784026 0) 211 210 1
(0.178817 0.410592 0 0.410592) 213 213 1
(0.956973 0.0215133 0 0.0215133) 218 218 1
(0.227981 0.386009 0 0.386009) 223 223 1
(0.262079 0.368961 0 0.368961) 222 221 2
(0.622075 0.188963 0.188963 0) 241 241 2
(0.130402 0.434799 0.434799 0) 231 230 1
(0.391227 0.304387 0 0.304387) 234 234 1
(0.0829022 0.458549 0.458549 0) 215 214 1
(0.434998 0.282501 0.282501 0) 242 242 2
(0.748123 0.125939 0 0.125939) 221 220 2
(0.393051 0.303474 0.303474 0) 228 227 1
(0.842307 0.0788464 0.0788464 0) 221 221 2
(0.720271 0.139865 0 0.139865) 227 227 1
(0.85064 0.0746798 0.0746798 0) 244 244 2
(0.0462439 0.476878 0.476878 0) 220 220 2
(0.16037 0.419815 0 0.419815) 209 209 1
(0.0443687 0.477816 0.477816 0) 226 225 1
(0.397468 0.301266 0 0.301266) 222 222 1
(0.122589 0.438705 0.438705 0) 223 222 1
(0.593916 0.203042 0.203042 0) 233 233 2
(0.966367 0.0168167 0 0.0168167) 211 210 2
(0.21045 0.394775 0 0.394775) 225 225 1
(0.56807 0.215965 0.215965 0) 243 242 1
(0.708992 0.145504 0 0.145504) 253 252 2
(0.70302 0.14849 0 0.14849) 236 236 1
(0.540245 0.229877 0 0.229877) 230 229 2
(0.783823 0.108089 0 0.108089) 229 229 1
(0.800712 0.0996442 0.0996442 0) 224 223 1
(0.587758 0.206121 0.206121 0) 207 206 1
(0.641241 0.179379 0.179379 0) 240 240 2
(0.754566 0.122717 0 0.122717) 250 249 2
(0.294765 0.352617 0.352617 0) 224 223 1
(0.238681 0.38066 0.38066 0) 237 236 1
(0.870209 0.0648957 0 0.0648957) 232 231 2
(0.176904 0.411548 0.411548 0) 234 233 1
(0.0836711 0.458164 0 0.458164) 230 229 2
(0.0967751 0.451612 0 0.451612) 230 230 1
(0.434395 0.282802 0.282802 0) 254 254 2
(0.540135 0.229933 0 0.229933) 221 221 1
(0.366492 0.316754 0 0.316754) 243 243 1
(0.24873 0.375635 0.375635 0) 231 230 1
(0.748503 0.125748 0 0.125748) 242 241 2
(0.676357 0.161822 0 0.161822) 262 262 1
(0.774977 0.112511 0 0.112511) 223 222 2
(0.282095 0.358953 0 0.358953) 229 228 2
(0.136637 0.431681 0 0.431681) 251 251 1
(0.408194 0.295903 0.295903 0) 235 234 1
(0.409725 0.295137 0 0.295137) 234 233 2
(0.815833 0.0920835 0.0920835 0) 243 243 2
(0.375809 0.312095 0.312095 0) 241 241 2
(0.325138 0.337431 0 0.337431) 243 243 1
(0.0154645 0.492268 0.492268 0) 232 232 2
(0.161033 0.419483 0 0.419483) 247 247 1
(0.201546 0.399227 0 0.399227) 251 250 2
(0.72124 0.13938 0.13938 0) 260 260 2
(0.369996 0.315002 0.315002 0) 253 253 2
(0.312967 0.343517 0.343517 0) 236 236 2
(0.996666 0.00166716 0 0.00166716) 231 231 1
(0.545131 0.227434 0.227434 0) 246 245 1
(0.125934 0.437033 0.437033 0) 240 240 2
(0.795754 0.102123 0.102123 0) 248 247 1
(0.45782 0.27109 0.27109 0) 237 236 1
(0.0313806 0.48431 0.48431 0) 243 242 1
(0.324522 0.337739 0 0.337739) 233 233 1
(0.567203 0.216398 0 0.216398) 256 255 2
(0.266832 0.366584 0.366584 0) 253 253 2
(0.0690828 0.465459 0 0.465459) 255 255 1
(0.104477 0.447761 0 0.447761) 243 242 2
(0.651148 0.174426 0 0.174426) 238 238 1
(0.123374 0.438313 0 0.438313) 231 231 1
(0.245636 0.377182 0 0.377182) 259 259 1
(0.0904615 0.454769 0 0.454769) 244 244 1
(0.449312 0.275344 0 0.275344) 243 242 2
(0.536234 0.231883 0 0.231883) 258 257 2
(0.0530081 0.473496 0.473496 0) 257 257 2
(0.732422 0.133789 0.133789 0) 231 231 2
(0.0558895 0.472055 0.472055 0) 264 263 1
(0.755604 0.122198 0.122198 0) 265 265 2
(0.0007872 0.499606 0 0.499606) 243 243 1
(0.194112 0.402944 0 0.402944) 254 253 2
(0.0688156 0.465592 0.465592 0) 238 237 1
(0.60871 0.195645 0.195645 0) 235 234 1
(0.723864 0.138068 0 0.138068) 243 243 1
(0.556148 0.221926 0 0.221926) 250 249 2
(0.632916 0.183542 0.183542 0) 241 240 1
(0.313609 0.343195 0.343195 0) 244 244 2
(0.0592717 0.470364 0.470364 0) 254 253 1
(0.734643 0.132679 0 0.132679) 267 266 2
(0.766 0.117 0.117 0) 245 245 2
(0.92108 0.03946 0.03946 0) 263 263 2
(0.156926 0.421537 0.421537 0) 248 248 2
(0.757728 0.121136 0 0.121136) 265 264 2
(0.25394 0.37303 0.37303 0) 269 268 1
(0.202971 0.398515 0 0.398515) 255 255 1
(0.464467 0.267767 0 0.267767) 261 260 2
(0.647513 0.176244 0.176244 0) 264 264 2
(0.767045 0.116478 0 0.116478) 257 256 2
(0.846768 0.076616 0 0.076616) 239 238 2
(0.0151471 0.492426 0 0.492426) 273 273 1
(0.641621 0.179189 0 0.179189) 262 262 1
(0.117192 0.441404 0.441404 0) 272 272 2
(0.515325 0.242338 0 0.242338) 261 261 1
(0.0933236 0.453338 0.453338 0) 280 279 1
(0.00555632 0.497222 0 0.497222) 239 238 2