/*--------------------------------*- C++ -*----------------------------------*\
  =========                 |
  \\      /  F ield         | OpenFOAM: The Open Source CFD Toolbox
   \\    /   O peration     | Website:  https://openfoam.org
    \\  /    A nd           | Version:  7
     \\/     M anipulation  |
\*---------------------------------------------------------------------------*/
FoamFile
{
    version     2.0;
    format      ascii;
    class       volScalarField;
    location    "0.00252";
    object      dsmcRhoN;
}
// * * * * * * * * * * * * * * * * * * * * * * * * * * * * * * * * * * * * * //

dimensions      [0 -3 0 0 0 0 0];

internalField   nonuniform List<scalar> 
500
(
257
255
241
260
222
275
255
252
225
253
240
265
280
270
255
262
265
274
269
275
246
233
241
256
269
264
285
239
264
228
236
269
264
258
245
242
253
251
255
251
269
249
244
235
235
241
259
264
258
249
264
287
252
241
268
232
248
242
256
249
270
271
243
265
260
260
275
255
235
249
250
267
227
277
238
256
267
262
234
267
235
252
262
230
254
267
249
227
252
250
249
238
221
268
285
257
245
266
222
262
268
289
230
236
262
247
250
257
239
267
261
262
252
269
230
275
271
233
238
241
261
267
248
243
263
281
258
256
250
271
227
257
247
275
255
266
283
228
248
264
220
232
238
231
241
241
249
234
261
208
219
225
260
226
229
239
232
198
199
203
223
223
217
220
210
230
231
178
228
197
208
208
191
188
195
166
180
173
189
206
189
174
171
192
167
178
167
180
165
176
189
184
163
163
200
157
164
150
173
163
156
171
154
156
148
146
144
144
161
144
147
169
165
135
149
148
141
150
123
125
110
123
136
126
127
105
144
125
120
148
146
124
129
132
137
128
118
119
127
127
154
126
124
113
121
128
141
136
131
136
98
150
152
139
129
132
118
114
108
144
110
135
135
129
101
119
124
122
136
131
133
136
110
130
133
126
121
134
125
132
121
141
140
126
130
142
113
107
131
135
140
134
130
158
121
136
134
130
121
133
134
123
125
130
115
127
115
144
133
147
123
125
130
147
130
128
146
152
125
146
135
180
162
179
169
183
190
181
184
194
197
177
161
176
186
188
188
213
173
183
183
178
184
169
175
169
180
166
191
198
175
201
183
184
188
158
184
185
173
174
177
162
196
183
162
175
179
190
133
58
73
80
63
72
71
74
73
72
68
64
57
75
88
65
84
71
87
65
61
73
73
72
76
60
69
69
68
78
74
75
71
84
72
67
76
71
65
85
67
78
80
60
78
70
62
82
78
76
60
92
71
71
77
77
85
72
81
61
72
47
68
83
88
77
68
68
65
77
64
84
67
81
89
73
63
74
78
71
71
84
86
78
65
78
74
64
62
82
77
77
78
65
78
91
76
73
75
74
62
74
74
81
82
70
81
81
81
81
78
77
71
68
69
87
71
55
66
69
77
69
75
88
72
86
68
78
81
79
83
61
)
;

boundaryField
{
    sides
    {
        type            symmetry;
    }
    empty
    {
        type            empty;
    }
}


// ************************************************************************* //
