/*--------------------------------*- C++ -*----------------------------------*\
  =========                 |
  \\      /  F ield         | OpenFOAM: The Open Source CFD Toolbox
   \\    /   O peration     | Website:  https://openfoam.org
    \\  /    A nd           | Version:  7
     \\/     M anipulation  |
\*---------------------------------------------------------------------------*/
FoamFile
{
    version     2.0;
    format      ascii;
    class       volScalarField;
    location    "0.00252";
    object      internalE;
}
// * * * * * * * * * * * * * * * * * * * * * * * * * * * * * * * * * * * * * //

dimensions      [1 -1 -2 0 0 0 0];

internalField   nonuniform List<scalar> 
500
(
1049.9
1152.58
1237.05
872.054
1056.98
1103.56
1025.29
1373.76
1190.22
1094.28
1103.94
1377.47
1041.01
978.59
999.132
1406.81
965.858
1348.62
1193.49
994.792
1250.63
1231.46
1102.95
1145.91
1175.7
1121.18
1126.44
1269.99
1025.06
1225.19
1322.08
1171.77
1330.3
1265.49
1166.59
1015.21
898.608
1124
1101.72
1129.85
1072.39
969.157
1220.96
1008.87
1064.88
1171.43
1157.18
1134.25
1026.35
1096.77
1331.96
1110.96
1117.87
1158.9
1113.65
1104.36
1186.07
1144.16
1105.44
1178.92
1159.27
1102
975.272
1110.83
1192.51
1116.25
1067.19
1071.45
1241.64
1108.5
1164.64
1255.66
1188.66
1250.64
1073.76
1238.73
1084.74
1100.25
1098.31
1166.93
1054.35
1329.51
1135.19
937.701
1106.87
905.974
1183.36
1193.58
1052.86
988.96
1080.01
986.195
1210.85
1195.41
1146.4
1167.33
1265.44
1085.8
1213.66
1106.25
1086.92
1026.95
1061.1
1169.42
1148.58
1047.49
1174.06
1167.87
1181.06
1108.68
1159.75
1059.52
1093.54
968.861
1134.64
1275.08
1236.62
1189.72
1450.16
971.082
1129.78
973.927
1199.35
1180.04
1092.06
936.813
1126.35
1170.34
922.346
1152.19
986.674
1206.1
1077.17
1073.23
1156.02
1020.58
955.528
1033.68
997.088
883.342
1201.17
1253.78
1107.3
1114.52
963.939
1100.34
1033.03
785.924
1101.1
1005.07
883.235
1102.54
847.263
984.213
973.636
1080.55
1074.81
827.239
1028.91
917.287
915.318
955.377
867.635
858.292
859.615
872.47
837.818
885.002
861.356
1008.79
778.654
692.16
588.478
900.341
760.528
901.851
775.296
764.52
805.064
590.936
701.298
696.059
682.981
728.481
576.747
677.528
872.785
723.931
553.085
649.854
765.608
604.688
654.409
683.824
541.944
654.626
597.537
600.826
529.147
538.524
584.276
561.099
577.917
468.11
446.455
454.384
468.793
601.661
605.677
563.571
494.147
545.837
486.049
546.55
597.33
460.795
528.974
332.443
446.078
480.395
490.097
407.955
404.41
488.865
478.48
563.386
391.949
525.302
459.836
489.066
471.481
412.131
495.934
393.206
287.896
454.024
536.583
480.598
415.745
405.624
485.399
434.068
454.914
459.068
516.845
341.732
502.246
421.333
439.575
470.385
460.873
331.812
362.602
430.506
561.81
403.017
405.502
353.321
446.699
465.035
390.365
464.776
432.664
364.764
472.907
399.32
410.446
418.052
426.298
458.355
427.351
515.88
436.603
406.568
461.625
460.399
347.892
486.765
422.74
439.733
510.475
355.496
442.675
395.691
375.128
365.134
375.136
405.108
420.123
493.994
437.939
490.722
397.998
464.814
392.629
512.995
461.975
454.79
476.194
313.954
387.066
379.343
481.606
430.193
469.204
466.801
349.495
371.177
476.674
476.551
492.049
447.36
406.181
440.786
471.583
440.651
403.57
383.638
455.429
533.233
419.617
428.075
413.504
501.075
428.776
395.253
544.325
479.31
446.257
441.187
437.451
410.353
482.147
494.475
467.675
377.94
405.487
499.8
426.415
514.755
430.185
526.215
356.015
420.234
427.331
385.109
458.019
370.524
376.215
376.775
407.064
440.087
495.824
350.672
457.031
431.283
451.694
455.323
361.336
402.029
448.931
309.353
429.307
443.737
389.95
390.044
444.379
451.394
240.987
121.243
120.82
116.223
107.534
81.0197
126.005
103.297
108.257
148.811
76.4401
127.76
139.628
105.844
104.409
137.095
127.559
85.9788
114.782
93.1179
111.11
73.5345
86.1216
100.929
125.79
108.833
116.412
121.274
103.521
84.079
118.62
86.8157
96.6655
100.892
113.288
97.5714
85.4262
111.636
123.346
123.17
101.116
72.2201
103.144
114.893
90.9635
116.972
117.171
98.365
122.359
111.298
101.883
119.84
96.1451
134.48
120.359
134.751
90.8949
78.2283
94.4212
105.868
142.172
122.393
87.6232
80.666
88.439
98.6758
99.3889
110.257
95.453
99.4635
118.082
120.261
107.476
103.333
111.701
99.1508
119.876
117.304
122.768
106.82
128.903
119.945
100.711
76.6269
118.243
108.522
71.9705
111.034
127.979
103.805
125.416
80.1458
110.209
108.712
109.249
101.599
111.757
124.59
116.833
79.1431
121.613
84.2171
107.967
91.3351
133.166
125.331
116.126
139.027
116.763
109.233
130.155
106.454
92.5511
84.4299
139.458
102.53
123.375
151.832
123.447
107.43
107.491
123.362
91.0454
115.563
101.43
132.5
96.4846
95.3809
100.432
134.971
95.3683
103.681
)
;

boundaryField
{
    sides
    {
        type            symmetry;
    }
    empty
    {
        type            empty;
    }
}


// ************************************************************************* //
