/*--------------------------------*- C++ -*----------------------------------*\
  =========                 |
  \\      /  F ield         | OpenFOAM: The Open Source CFD Toolbox
   \\    /   O peration     | Website:  https://openfoam.org
    \\  /    A nd           | Version:  7
     \\/     M anipulation  |
\*---------------------------------------------------------------------------*/
FoamFile
{
    version     2.0;
    format      ascii;
    class       volVectorField;
    location    "0.00252";
    object      momentum;
}
// * * * * * * * * * * * * * * * * * * * * * * * * * * * * * * * * * * * * * //

dimensions      [1 -2 -1 0 0 0 0];

internalField   nonuniform List<vector> 
500
(
(-0.135485 0.057129 -0.00902353)
(0.120875 0.40737 0.173714)
(-0.075594 -0.00418951 0.0349832)
(0.0866704 -0.0804433 -0.133499)
(0.30197 -0.0582812 0.0235916)
(0.0756182 0.124058 0.0272884)
(-0.090614 -0.138713 -0.0251465)
(-0.144299 -0.232271 -0.01895)
(-0.0927194 0.0875004 0.106672)
(0.00513531 -0.133867 -0.163766)
(0.0701818 0.0128872 -0.0205122)
(-0.14472 0.0371469 -0.0573745)
(0.0657622 -0.110058 0.108938)
(-0.0386174 -0.0119606 0.0883162)
(-0.0134811 -0.152981 -0.104303)
(-0.122997 0.0365184 -0.0203113)
(0.107262 0.19067 -0.264282)
(0.102348 -0.0204268 -0.0485611)
(0.208213 -0.0923885 0.155279)
(-0.0855357 -0.0528157 0.0397794)
(0.0636728 -0.00617529 0.102587)
(0.106276 0.37384 0.0278519)
(-0.0881148 -0.0325465 0.0170308)
(-0.0668421 -0.119427 0.235292)
(-0.022344 0.0238064 -0.0073774)
(0.0205056 0.103851 -0.00117271)
(0.288042 0.0225217 0.0165899)
(0.0710687 0.0313588 0.064805)
(-0.0324027 0.271464 -0.133757)
(-0.0144073 -0.197394 -0.229608)
(0.321174 0.125504 -0.013289)
(-0.146609 -0.0414853 0.0433481)
(-0.151098 0.0526457 -0.146638)
(-0.0179598 -0.104551 -0.105903)
(0.0397654 0.157208 -0.22858)
(-0.125712 0.127871 -0.232352)
(0.222157 0.184614 0.0987729)
(-0.0875309 0.186122 -0.157778)
(0.0964171 0.109162 0.0761223)
(0.0818601 0.23063 0.0555481)
(-0.0177718 0.0707891 0.0505555)
(0.0967634 0.0526167 0.197825)
(-0.0671952 0.125771 0.192915)
(0.193441 -0.0535323 -0.113298)
(0.0372658 0.113819 0.00553513)
(0.0114462 -0.0317621 0.174744)
(0.0547957 -0.0483184 -0.207061)
(-0.158476 -0.0246559 0.0365229)
(-0.0482618 0.0724987 0.123697)
(-0.0775628 0.247932 -0.0243495)
(0.0219495 -0.0277362 -0.284605)
(0.189125 0.0577251 -0.0058933)
(0.138311 -0.144092 -0.0520625)
(0.0425625 0.0591488 -0.0372751)
(-0.0571427 0.0805175 -0.126046)
(-0.0789532 0.134301 -0.115518)
(0.0427168 -0.0431102 -0.135047)
(-0.0455135 -0.147855 -0.0382731)
(0.163547 -0.329587 0.0151467)
(0.00823209 0.0171597 0.0731737)
(0.00904705 -0.380134 0.0194654)
(-0.184952 0.0617436 -0.252732)
(0.0881428 0.0752596 0.0752421)
(-0.152386 0.180041 -0.222605)
(0.0210576 0.106497 0.0123712)
(0.156985 -0.223723 0.0491278)
(-0.225579 -0.206335 0.0423146)
(-0.112953 -0.114167 -0.0476353)
(-0.0107368 0.0489877 0.134396)
(0.00727012 -0.160805 0.0378219)
(0.0295464 -0.0647628 -0.0843809)
(-0.117998 -0.154682 0.118466)
(-0.00963673 0.0726227 0.224486)
(0.134152 -0.198608 0.0128901)
(0.188121 -0.00130665 0.0861468)
(-0.287808 -0.100082 -0.193885)
(-0.0151399 -0.113667 -0.00808477)
(0.0768292 -0.0816698 -0.134974)
(-0.137427 0.104616 0.0229188)
(-0.0832344 0.188038 -0.0401675)
(0.0798636 0.0498734 0.211323)
(0.199997 0.239876 -0.0963798)
(-0.197887 -0.0468214 0.0824842)
(-0.271969 0.0942503 -0.00629593)
(-0.126145 -0.00495158 0.0390785)
(0.120663 0.0115125 0.222476)
(0.111394 -0.171671 0.205028)
(0.108299 0.00329125 -0.183094)
(-0.352211 -0.0283097 -0.0543155)
(0.146205 0.0459657 0.0471603)
(0.0144107 -0.0393394 0.425799)
(0.115848 0.13266 -0.0842297)
(-0.196625 -0.0105752 0.0794076)
(-0.0877302 -0.166218 0.0210202)
(0.166896 0.288808 0.135599)
(0.164444 -0.152345 0.0477192)
(0.297983 0.121108 0.0370312)
(-0.0152423 -0.195242 -0.0303922)
(-0.0372958 0.128651 0.189485)
(0.136678 0.148656 0.197533)
(0.097695 -0.0333557 -0.0292058)
(-0.0566068 -0.0897447 0.0741274)
(-0.163951 0.0397668 -0.229376)
(-0.0715005 0.0178712 -0.0047938)
(-0.0807467 -0.35097 -0.0662526)
(-0.0478846 0.037233 -0.0578821)
(0.0952606 0.184171 0.018354)
(-0.0525231 0.273529 -0.218007)
(0.0353954 -0.120242 -0.035308)
(-0.106569 0.0805042 -0.00241795)
(0.361634 -0.0755821 -0.144255)
(-0.103297 0.00956596 -0.200288)
(-0.0557919 -0.0367901 -0.144133)
(-0.0663289 -0.219421 -0.035122)
(-0.10557 -0.0121355 -0.161437)
(0.0770968 0.0260346 0.100748)
(-0.0986012 -0.107659 -0.00455181)
(-0.124878 -0.106047 -0.0327716)
(-0.0342997 -0.0883407 0.258865)
(-0.00277497 -0.080542 0.0941685)
(0.0431128 0.322069 -0.152122)
(0.0139842 0.0684169 0.164056)
(0.194375 0.0203463 -0.0294338)
(-0.00016894 -0.0389702 -0.0981114)
(-0.0412023 0.0612903 -0.124148)
(0.0092343 -0.210969 0.225734)
(0.115972 -0.0448664 0.265851)
(-0.170121 0.205996 -0.194102)
(0.29545 0.0289281 -0.363513)
(0.0615939 -0.123182 0.153345)
(0.0430599 0.0221618 0.000896628)
(0.277143 -0.174981 -0.0393962)
(0.0521794 0.239787 0.107265)
(0.28572 -0.169571 -0.01142)
(0.24177 -0.121281 -0.0474214)
(0.0129425 0.0758323 0.16256)
(0.0487956 0.0583339 -0.0851707)
(0.0804475 -0.138869 0.0960933)
(-0.0592739 -0.0755864 0.0359286)
(0.156291 -0.00689175 0.163862)
(0.0596671 0.127339 -0.210681)
(0.157991 -0.0130157 0.0409277)
(-0.167485 -0.140341 -0.0682169)
(0.164044 0.0270806 -0.0972493)
(0.315653 -0.0569322 0.0521797)
(0.17172 0.029017 -0.0452836)
(-0.0409952 -0.114513 -0.0277278)
(0.108852 -0.121941 -0.0510519)
(0.147699 0.0908301 -0.0591389)
(0.0396816 -0.0949679 0.0974327)
(0.247348 0.0998157 0.154282)
(0.26556 -0.00488899 0.221448)
(0.383671 0.0205842 0.0951433)
(0.304468 -0.0837688 0.0990538)
(0.315063 -0.0419496 0.0129315)
(0.401851 -0.0202175 0.128517)
(0.334734 -0.140846 0.0308557)
(0.382683 0.0446796 -6.02038e-05)
(0.27683 -0.154073 0.00850803)
(0.266846 -0.0409374 0.168768)
(0.387986 0.0364136 0.0727288)
(0.32973 0.0512061 -0.00826289)
(0.528097 -0.0209335 -0.130291)
(0.365056 0.0877766 0.0169287)
(0.327736 -0.0430449 -0.155388)
(0.487444 0.0258853 0.151129)
(0.274146 -0.0782073 -0.0482363)
(0.378504 -0.0625059 -0.154282)
(0.609075 0.143785 -0.0901085)
(0.451785 0.0357509 -0.0116507)
(0.440456 -0.0295386 -0.123561)
(0.449764 -0.0715462 0.103568)
(0.429407 0.00587828 -0.073898)
(0.718141 -0.0246072 -0.0738116)
(0.414691 0.0175299 0.106366)
(0.783314 0.0627278 -0.378434)
(0.410144 0.12783 -0.00304529)
(0.437037 -0.168675 0.0409055)
(0.57956 0.106986 -0.0768192)
(0.466892 0.135074 -0.153913)
(0.472187 0.169904 0.171208)
(0.70081 -0.0350034 -0.167278)
(0.434911 -0.0136979 -0.214188)
(0.556649 0.0921998 0.156529)
(0.610032 -0.130954 -0.0379066)
(0.50652 0.00800344 -0.318389)
(0.669511 -0.0717646 0.173426)
(0.697907 -0.0982079 0.0573887)
(0.531208 0.0579499 0.0556928)
(0.588245 0.0763198 -0.0659239)
(0.577398 -0.0933777 -0.00120805)
(0.780176 -0.00369957 0.0783037)
(0.678367 0.0398683 0.0894345)
(0.603355 0.116167 -0.00485679)
(0.531137 0.0769694 0.11465)
(0.631793 0.0120944 0.0358626)
(0.763542 -0.00541534 0.00887785)
(0.703156 0.0482272 0.0558671)
(0.762978 0.0203998 0.0272814)
(0.498954 0.0936358 0.0377648)
(0.612566 0.0363461 -0.0630603)
(0.601815 0.0432677 0.0236379)
(0.741769 -0.0758113 0.261874)
(0.622041 0.0791188 0.0993263)
(0.684264 0.0681236 -0.116551)
(0.664934 0.0245971 0.252438)
(0.783208 -0.152054 -0.0606668)
(0.931771 0.0554341 -0.112759)
(0.870241 0.0525137 -0.0742538)
(0.76784 0.038502 0.0732292)
(0.583251 0.0860523 0.157486)
(0.878144 0.0804204 0.00680942)
(0.7247 -0.0410464 -0.0496158)
(0.881644 0.0559273 0.0282151)
(0.957254 -0.0258784 0.0560777)
(0.590999 0.064527 -0.143239)
(0.643434 -0.0358399 -0.0866137)
(0.79743 -0.139733 -0.127377)
(0.786657 0.0971151 -0.094784)
(0.875339 -0.058878 -0.0197029)
(0.934682 0.0153318 0.011521)
(0.770982 -0.193018 -0.0119052)
(0.745454 -0.0966308 0.0453752)
(0.646962 0.078532 -0.105739)
(0.686466 0.225433 -0.0155365)
(0.919246 -0.0492993 0.0651418)
(0.776422 -0.00715605 0.106031)
(0.929021 -0.0507575 0.0780275)
(0.882817 0.0162291 -0.0602924)
(0.789513 -0.0406765 0.0213009)
(0.917788 -0.0791299 -0.148869)
(0.776094 0.0595653 -0.0340091)
(0.855849 0.131206 -0.0610518)
(0.863215 0.0467588 0.0935944)
(0.75333 0.0327787 0.0832194)
(0.766249 -0.0313952 0.0430643)
(0.962939 -0.155727 -0.0059142)
(0.782672 -0.0113077 0.177328)
(0.876687 -0.0947829 -0.0830734)
(0.997646 -0.0977282 0.126185)
(0.86638 0.160773 -0.0244035)
(0.891524 0.0320887 -0.0629956)
(0.911166 0.0967098 -0.00165925)
(0.921565 -0.0913029 0.0286108)
(0.794683 0.0913078 0.145726)
(0.597404 -0.0462753 -0.0149092)
(0.980742 0.0768758 0.0480592)
(0.804388 -0.0443358 -0.0329853)
(0.813559 -0.0142871 -0.0993934)
(0.789169 0.0555045 -0.0516883)
(0.858552 0.0254317 0.11367)
(0.552546 0.0485471 -0.109259)
(0.78154 0.112618 -0.11563)
(0.916617 -0.0973291 -0.0850998)
(0.832295 0.136069 -0.120101)
(0.813194 0.153925 -0.0364669)
(0.78316 -0.0413086 -0.0418902)
(0.702292 0.164767 0.019319)
(0.905285 0.0842735 -0.0552461)
(0.85071 0.0396557 0.0605857)
(0.882264 -0.0463239 -0.0291051)
(0.808914 -0.0101631 0.0315074)
(0.930923 -0.108618 0.0364274)
(0.729602 -0.157916 -0.0255242)
(0.882247 -0.138555 0.0725931)
(0.88366 0.0816371 -0.0114364)
(0.877201 0.0497512 0.0784489)
(0.85436 0.0712202 0.0157019)
(0.734768 0.117166 0.0397229)
(0.863633 -0.062426 -0.115902)
(0.870605 -0.0585488 0.047737)
(1.01154 -0.03032 0.0488709)
(0.789071 0.113231 -0.154985)
(0.636952 0.0378238 0.125058)
(0.837827 -0.0901118 0.00855371)
(1.05569 0.0289032 -0.141581)
(0.743753 -0.0323272 -0.0830073)
(1.06139 0.0326604 0.124207)
(0.818498 0.0114547 0.0867081)
(0.984256 -0.0770399 -0.15139)
(0.784235 -0.0667225 0.0232343)
(0.674092 -0.00708341 0.102185)
(0.824584 0.0223904 0.0488474)
(0.965089 -0.0921093 -0.107382)
(0.976009 -0.0851918 0.0398663)
(0.837544 0.0787302 -0.0206511)
(0.756787 0.0304855 0.0266507)
(0.88087 0.000477055 -0.0876786)
(0.780521 0.0463551 -0.130654)
(0.945885 0.182195 0.019218)
(0.83757 -0.00812624 -0.0821223)
(0.709937 -0.0408684 -0.133758)
(0.701312 0.0125271 0.281605)
(0.945921 -0.000965004 0.0686002)
(0.749518 0.0996087 -0.0212974)
(0.986992 0.0147166 -0.0176049)
(0.893188 -0.027282 -0.0232866)
(0.846058 -0.197759 -0.00634162)
(0.886779 -0.0324435 -0.11828)
(0.643376 -0.112518 0.0661736)
(0.972869 0.0523227 0.0878253)
(0.66335 0.076525 0.198815)
(0.835427 -0.227539 -0.04674)
(0.686219 -0.0875412 0.0832464)
(0.960228 -0.0224315 -0.00348977)
(0.86313 0.067317 -0.182549)
(0.655244 0.0416315 0.103641)
(0.671409 0.0787288 -0.0672902)
(0.881187 0.000172921 0.0628669)
(1.1564 -0.176368 0.0465123)
(0.793338 -0.00378895 0.119303)
(1.06567 0.225249 -0.0774439)
(0.854428 0.01505 0.00428859)
(0.966731 0.174214 0.131652)
(0.964144 -0.0586198 0.0619267)
(0.889431 0.00496562 -0.210658)
(1.08424 -0.00618044 -0.00453902)
(0.840909 0.0653011 0.0311609)
(1.14052 -0.0573209 0.00575284)
(1.01336 0.0172236 0.147191)
(0.980198 -0.0445811 -0.0892622)
(1.03725 -0.0640315 0.0452723)
(1.09772 -0.0867448 0.00121243)
(1.09469 -0.0582265 -0.0812857)
(1.09719 -0.0284036 -0.0381898)
(1.13932 -0.138379 -0.06529)
(1.21876 0.217529 -0.00714725)
(1.25927 0.160016 0.0830237)
(1.13843 0.0333527 -0.0965162)
(1.05374 -0.249413 -0.0163457)
(1.10929 -0.0950905 0.154708)
(0.961305 0.0257067 -0.146351)
(1.23544 -0.00883344 0.030055)
(1.408 0.0289809 0.080429)
(1.14465 0.030012 -0.0109891)
(1.04279 0.119121 0.0876396)
(1.11253 0.014135 -0.106142)
(1.46369 -0.0321771 -0.0544413)
(1.29715 0.0103941 0.0809741)
(1.24882 -0.0814515 -0.0676882)
(1.2368 0.112206 0.0457841)
(1.12196 0.0528223 0.0170253)
(1.09997 -0.0274515 0.0630308)
(1.00015 -0.0343376 0.0975543)
(1.22056 -0.039687 -0.0364482)
(1.13763 -0.0883732 -0.0484685)
(1.11232 0.0967192 -0.14917)
(1.05474 -0.0521384 -0.0327231)
(1.03529 0.0167154 -0.102557)
(0.964236 0.0617679 -0.0766502)
(1.18297 0.00201805 -0.0812496)
(1.31331 0.0452605 0.0159389)
(1.21058 0.0866747 0.155826)
(1.08712 0.0466001 0.142338)
(1.27278 0.0601587 0.0447706)
(1.07258 -0.0488676 0.108011)
(1.11246 -0.171701 0.155907)
(1.37482 -0.0605135 -0.00954254)
(1.05548 0.135557 0.0961907)
(1.1655 -0.0735663 -0.133793)
(1.33075 0.0255361 -0.0163088)
(1.09248 -0.121757 0.0255321)
(1.18744 0.0364791 -0.0242743)
(1.30377 -0.0160504 0.0271551)
(1.2822 -0.0081624 0.110438)
(0.908144 0.114083 -0.0909249)
(1.35455 -0.0263004 0.0745932)
(1.2061 0.0596664 0.0272206)
(0.518699 -0.0725737 0.0294856)
(-0.02294 0.0468739 -0.0248323)
(0.0800011 -0.00756179 -0.0254354)
(-0.0455852 -0.0226209 -0.0061964)
(0.0378853 -0.0300514 -0.0344776)
(0.0430517 -0.0542981 -0.0560066)
(-0.00670143 -0.0469133 -0.00428128)
(0.0251102 -0.0287746 -0.054357)
(0.0216019 0.0239947 -0.00461892)
(0.0432835 -0.0673752 -0.112537)
(-0.0368841 0.00428782 -0.0661902)
(-0.0306348 -0.0497076 -0.0010338)
(-0.0236356 -0.0127741 0.00290646)
(0.0519646 -0.0240563 0.00877975)
(-0.0243499 0.0459433 0.0370461)
(0.00227553 -0.0224291 0.050006)
(0.0261279 0.0162679 0.0231022)
(0.0196394 -0.0461845 0.0312173)
(0.0635407 0.0600961 -0.0186273)
(-0.0327543 0.0338846 -0.0320507)
(0.0121776 0.0731141 -0.00209914)
(-0.0326261 0.0315979 -0.0667324)
(-0.00624745 0.00952977 -0.0090768)
(0.0192065 0.0799391 -0.00348745)
(-0.0994063 -0.00637709 0.00786537)
(-0.00165309 -0.00342121 -0.0041008)
(-0.0772686 0.0537991 -0.0182688)
(-0.00695973 0.0234706 -0.0116766)
(0.0146765 -0.0147716 -0.00192024)
(0.0524943 0.0198979 -0.00771955)
(0.0208409 -0.0455885 0.00882872)
(-0.0296413 -5.62429e-05 0.0156334)
(-0.0597619 0.0169301 0.0210107)
(0.0259986 0.0353913 -0.0255267)
(0.00108298 -0.0199398 -0.013079)
(0.0449724 -0.0940345 0.0663711)
(0.0137202 0.0630812 0.109034)
(0.0589801 -0.0161665 -0.0826138)
(0.0794871 -0.0602898 -0.0136388)
(0.0490705 0.00319883 -0.00035597)
(0.0908088 0.0177788 -0.00311806)
(0.0193907 -0.0582177 0.0712788)
(0.0112206 -0.0159252 -0.0632435)
(0.0442594 0.0255307 -0.0255732)
(0.0109176 -0.0242037 -0.0340145)
(-0.0383078 0.00925647 0.0244963)
(0.0852718 0.0296607 -0.0103322)
(0.0055371 -0.0591661 0.103639)
(-0.0770749 0.0622923 -0.0113166)
(-0.0174262 -0.00710805 0.00213957)
(-0.0259563 0.0783437 -0.000742909)
(-0.0619542 -0.0419707 0.0652343)
(-0.0325069 0.0219548 0.0153096)
(0.0286506 0.0197356 -0.0435974)
(-0.0162472 -0.000886086 -0.0345227)
(-0.0329516 -0.00181339 -0.0269468)
(0.0389521 -0.0199316 0.00138418)
(-0.00465431 0.0486637 0.0159417)
(0.0349577 -0.0162783 -0.0528324)
(-0.012117 -0.0142743 0.00356795)
(0.0783451 0.0337819 0.0259149)
(0.0315791 0.0121594 0.0209956)
(0.0145129 -0.0468004 0.00273357)
(0.0533183 0.0514776 0.0396532)
(-0.0143482 -0.0756773 0.0520891)
(-0.0269244 -0.0582832 0.020832)
(0.0507388 -0.0545003 0.0877611)
(0.0127405 -0.0369494 0.0535234)
(-0.0571219 -0.0275467 0.0588766)
(0.0374476 0.0149013 0.0429285)
(-0.0718768 -0.0340844 -0.0480553)
(-0.0878934 -0.0420473 -0.0222862)
(-0.0146601 0.0103432 -0.0142607)
(0.0497612 0.0214417 0.0493243)
(-0.0548317 -0.00879017 -0.0368857)
(-0.0504781 0.0434075 0.0266092)
(-0.072784 -0.0405532 -0.0568716)
(-0.0337593 -0.0325637 -0.0292033)
(0.0219063 0.0338697 -0.106311)
(-0.034877 0.0130457 0.0269428)
(-0.00465189 0.0787582 -0.0474898)
(-0.0551994 -0.0283596 -0.0645342)
(0.0307393 -0.0203779 -0.00436291)
(0.00410625 -0.0306259 0.00764071)
(0.0596055 0.0354122 0.0187286)
(-0.0111192 -0.000890882 -0.0288368)
(0.00386441 0.0483953 -0.00257072)
(0.0257053 -0.00455911 0.0859079)
(0.0250679 0.0701433 0.024137)
(-0.0502683 0.00583229 -0.00067732)
(-0.0542977 0.00362197 -0.0275496)
(0.00857253 -0.00126652 0.0238656)
(-0.0273133 0.0356589 0.000901173)
(-0.0281137 -0.0347886 0.0217702)
(0.031125 0.0284368 -0.0323282)
(0.0420994 -0.000606721 0.0325235)
(0.0267844 -0.0292329 -0.0605717)
(0.00390752 -0.0328259 0.0034395)
(0.0110779 0.0420701 -0.0133684)
(-0.0125386 -0.00809021 0.01012)
(0.0663183 -0.0626003 0.00336972)
(-0.0859395 0.0353315 -0.0214417)
(0.0196488 0.0319539 0.0230266)
(0.030099 0.0198793 0.0498168)
(0.0147822 0.0193243 -0.059059)
(0.032193 -0.0423119 -0.0382883)
(0.00352447 -0.00553837 0.0786646)
(-0.0519441 0.0904206 0.0271617)
(-0.00679996 0.0435823 0.0459695)
(-0.042922 0.015533 0.0282792)
(0.0565215 0.0924916 0.088316)
(-0.037791 -0.000437408 0.0287379)
(0.0133369 -0.0219816 0.0570334)
(-0.0107641 0.00475622 -0.0339832)
(-0.00726596 -0.0811225 0.0473156)
(0.0779688 -0.00159303 0.0818839)
(0.0671487 0.00881937 -0.073579)
(0.00685514 0.0785339 -0.0154241)
(0.00475863 0.0300773 -0.017734)
(-0.0235733 -0.056937 0.056169)
(-0.00173709 -0.00652005 -0.0478651)
(-0.0187027 0.0427974 -0.0617372)
(0.0155846 0.0246979 0.0113413)
(0.0191889 0.0384976 -0.10444)
(0.0225776 -0.0169173 0.0713882)
(-0.0101006 -0.0553472 -0.0691934)
(0.0244666 0.00539725 0.0152764)
(0.00700798 0.0423681 -0.0324876)
(-0.0613469 0.0844566 -0.0542796)
(0.0110663 0.00534945 -0.0211764)
(0.0423801 -0.0131358 -0.0457886)
(0.0187223 -0.0106571 -0.0196421)
)
;

boundaryField
{
    sides
    {
        type            symmetry;
    }
    empty
    {
        type            empty;
    }
}


// ************************************************************************* //
