/*--------------------------------*- C++ -*----------------------------------*\
  =========                 |
  \\      /  F ield         | OpenFOAM: The Open Source CFD Toolbox
   \\    /   O peration     | Website:  https://openfoam.org
    \\  /    A nd           | Version:  7
     \\/     M anipulation  |
\*---------------------------------------------------------------------------*/
FoamFile
{
    version     2.0;
    format      ascii;
    class       labelField;
    location    "0.001/lagrangian/dsmc";
    object      origId;
}
// * * * * * * * * * * * * * * * * * * * * * * * * * * * * * * * * * * * * * //


9390
(
12264
14692
15004
17948
15010
18269
18266
18979
18810
15308
17329
19917
17248
18653
21248
17240
21101
17048
22161
23216
21676
22456
21444
23415
22875
18381
21157
24275
20311
23588
21471
22350
20406
22781
22576
23787
23983
23386
26837
23805
24231
24611
20829
24737
22545
22651
13142
23395
23826
16847
23688
24745
24938
23006
23682
25541
24092
25148
19721
25041
25336
19997
23792
17135
20816
25197
25955
27557
21315
24528
25130
23781
26054
23570
24720
26127
26496
21655
24601
25150
26542
27056
25401
22466
23990
25933
25433
23263
26453
26858
27079
27156
26050
27247
27905
23600
27607
23872
22753
25756
26132
26749
25814
26150
22338
25430
27358
27777
28470
21642
24922
26857
27280
27872
29301
21843
26584
27092
28312
27267
24907
25207
26477
26850
26659
27369
27799
28500
29805
25623
29193
23255
25945
28834
30929
31030
25926
26773
28408
28506
28811
27657
26533
26746
27400
27294
29309
29314
29318
31642
26052
26464
28934
24299
25004
28945
29829
23779
26944
28272
29335
30104
30226
29115
31440
26543
27674
28488
28808
29448
27690
28279
28589
29528
30726
23264
26149
28597
29190
29633
29920
25511
28387
30515
26251
26658
28393
29572
29619
29774
31032
22352
20208
25203
25831
26844
28805
29119
29710
30146
30334
30341
24896
26760
27055
31949
32148
26767
24900
27778
30131
30230
30384
31355
26358
26539
29915
30228
32251
23958
29858
30138
30561
30790
30957
24505
27694
28084
29384
29508
29917
30511
26134
24908
26778
29203
31029
31180
31233
25718
31164
31566
29214
30127
31080
23778
25522
29835
30643
30759
30966
31807
26628
28085
28094
29227
29539
30340
30771
30836
30960
31689
31761
28184
29652
30416
30769
30876
30972
31308
27373
28982
30023
30110
31146
31784
31198
32372
26553
31336
32708
25115
27880
28785
30443
31028
31197
32515
27560
30758
30962
31263
31654
31859
33070
25419
28080
30232
31476
31563
31571
31738
31892
31969
31975
31993
32082
32776
32876
33074
26765
27707
27787
28277
29117
30315
30540
31048
28882
29304
30318
32777
32818
26861
28595
30870
31778
32072
32286
32469
32351
31071
31162
31435
31537
31668
32303
32606
33178
28878
26762
30106
30408
30673
31245
31873
31948
32667
32696
23683
27050
29347
30075
31548
32179
32724
28394
30015
30524
30739
30856
32180
32728
30574
30949
33937
28079
30027
31352
31590
33621
34404
25412
28170
30022
30845
30932
31990
32149
32188
33033
33579
34003
34300
34807
34919
31981
26356
30959
31439
31781
31972
32668
33101
34042
29087
30543
32183
32302
32598
32829
32905
33114
33393
26942
27451
31555
32182
32296
32488
32803
33097
33204
24327
31549
31888
34046
34105
28917
22658
28189
31883
32357
32997
33331
33497
33912
34256
25719
25937
27856
28875
29816
30652
32060
32068
32164
32186
32786
33290
27144
30939
31965
32054
32707
33716
33929
34675
31250
31750
31861
31984
32799
33197
29425
29622
30848
31849
31876
32507
32581
33199
33235
33693
34264
34738
29922
31256
31482
32710
32770
32939
33108
33198
33491
33685
34032
34222
29723
29013
27991
30004
31572
31855
32366
32901
33275
33415
33715
33950
34154
34444
35728
31143
31539
32492
32583
33419
33628
33699
33749
34123
34418
34445
34847
26459
27469
29617
30834
32509
32921
32938
33092
33102
33183
33489
33490
34238
34515
34655
31477
31774
31864
31945
31953
32499
32580
32607
33213
33574
33816
33954
33998
34225
34549
34864
35194
27045
32373
32561
32797
33237
33248
33786
33812
33938
34472
34735
35045
35114
31651
32775
33487
33913
34127
34320
34458
34554
34660
35170
27677
29834
31962
32915
33116
34138
34176
34223
34438
34544
34556
34800
34860
34879
23486
27670
30624
31857
32910
33682
33908
34246
34567
34637
34828
35154
35454
35524
35628
27885
31692
31971
32798
33078
33306
33650
34039
34657
34748
35056
35253
35419
35246
30528
33000
33649
33734
33897
34420
34958
35271
35371
26939
29092
32288
32588
33501
33707
34132
34630
34966
34970
35276
35891
36142
30112
30639
32277
32674
33080
33500
33592
34077
34234
34355
35467
35498
27453
28269
34021
34145
34227
34413
34677
34979
35152
35220
35354
35368
35476
35978
28603
20200
31452
32294
34307
34742
34823
35461
35474
35793
36648
32142
30322
30523
31866
32675
32698
33089
34028
34053
34224
34931
35008
35028
35458
35623
35759
29510
30745
32893
33704
35074
35263
35345
35441
35541
35550
35679
35756
35987
36185
31448
31665
33798
34739
35159
35355
35664
35884
36064
36186
36397
31039
31676
31854
32270
32477
32481
32578
32991
33808
33934
34037
34213
34232
34329
34733
34749
35130
35243
35338
35468
35621
35779
35975
36678
37077
38702
31656
33932
34314
34327
34734
35047
35548
35562
35660
35774
35973
36004
37417
22757
32052
32055
33926
34624
34647
34727
35437
35659
35968
36075
36684
28890
30150
32593
33493
34803
34964
35049
35064
35423
35435
35637
35752
36283
36300
36686
37160
37191
37201
37580
28710
32570
32690
33095
34221
34231
34448
34944
34974
35139
35532
35544
35650
35662
35751
37107
37679
39221
33601
27359
32363
33788
33883
34412
34631
34833
35521
35522
35646
35758
35980
36179
36273
36610
36703
36778
36879
37291
37524
30008
33177
34228
34446
35245
35549
35682
35764
35847
36052
36176
36467
36961
37128
37389
29295
32779
33484
33576
33595
35974
36376
36657
37161
37470
25504
28384
32887
33582
33729
34553
34620
34666
35895
36528
36786
36800
36953
37267
37397
37687
32474
33903
35265
35362
35378
35525
35572
35778
36197
36379
36402
36580
36853
36993
37303
37594
37163
28392
28781
32791
33696
33900
34244
34623
35164
35855
36240
36271
36295
36466
36650
36873
36877
37185
37202
37270
37471
37577
38329
39314
31235
34612
34842
35543
35766
36288
36908
30738
34408
35641
35952
36692
36883
37001
37307
37462
37692
37712
38382
39013
39113
34816
31248
34013
34014
34947
35537
35625
35630
35954
35959
36161
36579
36589
36607
36696
36887
37390
37939
37985
38496
38594
30986
33519
27870
32882
33916
35538
35665
35879
37029
37205
37265
37473
37516
37521
37805
37878
38194
34531
34616
34920
34935
35889
36067
36071
36871
37092
37495
38097
38514
31562
32278
33689
34118
34725
35875
35951
36474
36870
36889
37060
37102
39618
32805
32985
33411
33805
34415
35348
35472
36172
36374
36598
36864
37293
37472
37498
37685
37699
37703
37769
37986
38805
40229
30746
30410
31446
32925
33695
34519
34933
35076
35078
35146
36101
36591
36812
36859
37694
37705
38526
32595
33302
34611
35955
35971
36146
36479
36564
37251
37408
38240
38701
38730
39615
34719
34934
35318
35886
36089
36981
37228
37400
37508
37710
37729
37910
37926
38315
38328
38452
38618
32287
35234
35984
36165
36364
36665
37016
37182
37395
37465
37593
37795
37896
37943
38225
38522
38547
36462
31149
33404
29368
35556
36370
36373
36679
36691
36759
36890
37387
37696
37701
37914
38102
38106
38211
38442
38634
38647
38699
38864
38939
39220
39777
32683
33479
34468
35226
35545
36642
36869
37059
37070
37105
37592
37642
37899
37933
38087
38112
38205
38214
38288
38385
38633
39115
40126
33171
35643
31743
34156
34414
35340
35457
35763
36066
36361
36363
36783
36784
36819
37306
37724
37917
38622
38962
39443
40646
30214
31027
33305
34217
34714
36036
36851
36882
37284
37506
37633
37801
37903
38109
38121
38140
39058
32454
34731
35762
36576
36669
37072
37824
37889
38023
38128
38434
38741
38757
40298
40437
31055
31136
31360
33797
34025
34717
34743
35140
35738
35885
36153
36256
37086
37578
37609
38151
38393
38740
38806
39155
39343
34110
33904
32151
34310
36583
36863
36952
37519
37794
38027
38313
38541
38960
39720
30651
32265
33698
35622
36456
36662
37085
37740
37907
37967
37996
38008
38010
38538
38619
38713
39140
39244
39566
39779
40545
40950
33084
35783
35850
36279
36355
36356
36962
37297
37298
37362
37588
37600
37603
37793
37797
38006
38113
38525
38629
38639
38716
38843
38915
39170
39241
39463
39665
39744
39937
33086
35450
36403
37143
37181
37728
37982
37994
38083
38099
38549
38570
38645
38928
39348
39349
39436
39549
39690
39719
39746
39843
39850
40153
32455
34510
34926
37269
37493
37505
38309
38339
38407
38419
38595
38693
38708
38744
38931
39011
39014
39046
39202
39338
39569
39917
40252
40365
40539
40667
40717
40846
41761
30517
32784
33185
36685
37090
37268
37510
38082
38375
38424
38557
38632
38940
39076
39252
39462
39570
39784
39930
40157
34315
35219
35765
35859
36545
37360
37474
37518
38032
38123
38189
38415
38498
38524
38826
38856
38937
39032
39040
39255
39290
39320
39352
39546
39647
39764
39868
40058
40255
40506
32636
42691
33885
35769
36259
36348
36360
37170
37484
37602
37990
38221
38455
38692
38739
38908
39119
39231
39335
39431
39444
39668
39954
40239
40848
42692
35970
29417
33016
33806
33907
35062
36905
37087
37100
37273
37485
37612
38103
38144
38552
38579
38601
38812
38855
38877
39147
39157
39267
39645
39656
39759
39968
40076
40175
40258
40954
37981
31462
33596
37187
37290
37394
37698
37779
37804
38011
38036
38229
38317
38324
38391
38412
38523
38636
38715
38831
38927
39034
39341
39366
39555
39619
39786
39858
40374
41461
35325
34939
35947
36581
37207
37713
37745
37993
38029
38213
38611
38637
38696
38710
38714
38920
38950
39761
39935
40134
40280
40384
40692
40767
40952
36282
38009
30640
30956
33175
35436
36053
36148
36442
36459
36790
38410
38724
38727
38830
38921
38938
38954
39059
39134
39440
39563
39564
39630
39834
39952
40250
40955
33237
35857
36550
36776
37082
37680
38014
38092
38291
38336
38518
38521
38819
38851
38933
38979
39171
39438
39617
39649
39927
39932
40187
40457
40470
40543
40561
40845
38695
30430
33191
35863
37499
37900
37997
38327
38550
38617
39026
39054
39158
39347
39520
39532
39951
39955
40060
40166
40375
40537
40700
41000
41371
34518
36162
36777
37199
37399
37875
37879
38115
38212
38423
38612
38839
38842
38919
39031
39045
39133
39144
39451
39472
39527
39653
39730
39756
39763
39884
39995
40019
40170
40771
41090
41204
41490
41763
42993
35976
33186
35133
37301
37992
38187
38539
38755
38781
38841
38850
38868
39056
39168
39356
39374
39624
39765
39848
39855
39994
40021
40074
40195
40330
40383
40455
40556
40565
40697
40699
40702
40772
40847
37803
37691
36359
34941
35059
35213
35813
36037
36455
36964
36989
37587
38201
38361
38430
38448
38847
39057
39130
39151
39154
39156
39175
39367
39437
39567
39658
39672
39743
39757
39891
39943
40132
40173
40332
40484
40487
40548
40677
40793
40874
41106
41276
41432
41506
41587
29409
39049
30833
30935
33909
34856
36558
37377
37908
37999
38191
38210
38389
38408
38775
38778
38820
38849
39442
39745
39762
39830
39852
39875
39974
40300
40350
40370
40376
40377
40472
41215
41287
43503
39030
34536
36171
36866
37381
37523
38325
38462
38494
38807
39622
39651
39681
39925
40057
40264
40363
40388
40681
40811
40873
40891
40983
41597
31959
32594
34824
35212
35680
37080
38746
39027
39161
39280
39330
39345
39733
39742
40036
40053
40151
40274
40382
40475
40616
40704
40764
40769
40853
40871
40902
40992
41014
41080
41260
41284
41298
34317
34400
35158
37941
38736
39139
39254
39471
39865
40026
40041
40142
40167
40267
40272
40276
40563
40576
40582
40694
40750
41212
41226
41398
42589
43711
33708
35029
35540
37467
38237
38719
39141
39538
39638
39766
39862
40152
40161
40345
40349
40360
40664
40708
40839
40966
40998
41122
41157
41168
41220
41280
41358
41505
41575
41754
41807
39114
29332
35319
36972
37159
38311
38845
39531
39539
39959
40022
40037
40048
40146
40180
40368
40403
40701
40795
40867
40947
41003
41111
41835
37885
34427
34521
35145
36477
36768
37991
38697
38749
39218
39315
39439
39550
39639
39741
39795
39924
40047
40162
40223
40227
40257
40367
40372
40478
40579
40663
40679
40682
40780
41209
41384
41578
41586
41689
41742
43606
34805
35772
36493
38028
38185
38613
39449
39543
39606
39754
39774
39842
40035
40140
40171
40174
40271
40575
40895
40993
41007
41175
41203
41205
41214
41258
41293
41299
41325
41354
41367
41409
41503
41594
41862
43192
33603
35629
36035
37489
37599
38704
38810
38941
39236
39337
39390
39734
40042
40046
40079
40237
40482
40560
40655
40673
40782
40796
40869
41081
41105
41323
41400
41436
41516
41756
41917
41971
42256
42275
42411
42502
43502
27343
38909
27979
37497
37707
38105
38414
38509
38620
38694
39219
39245
39614
39635
39641
40159
40265
40474
40477
40589
40648
40779
40788
40889
40899
40990
40991
40995
41104
41138
41185
41304
41306
41316
41368
41406
41412
41457
41479
41488
41496
41679
41864
41964
42122
42171
42327
42424
43132
43191
34424
31051
33914
37695
37906
38100
38511
38551
38742
39129
39233
39313
39331
39332
39597
40145
40169
40232
40238
40247
40305
40379
40449
40489
40522
40698
40718
40973
40988
40999
41065
41095
41156
41296
41311
41403
41423
41484
41508
41510
41610
41622
41671
41726
42020
42211
36140
34625
34811
35330
35858
36444
37278
38723
39350
39529
39600
39611
39853
40182
40299
40550
40557
40775
40893
40978
41006
41188
41196
41322
41373
41404
41421
41590
41592
41821
41861
41953
42089
42104
42426
42433
42536
43307
44023
32984
34930
36571
38287
38396
39929
39950
40133
40269
40536
40555
40706
40715
40774
40877
40958
41019
41085
41179
41272
41286
41393
41460
41468
41514
41672
41825
41829
41893
41985
41992
42005
42041
42128
42214
42357
42410
42629
42963
42969
45763
40583
27823
34641
35024
36676
37063
37799
37887
38005
38409
38824
39238
39446
39534
39663
39680
39739
39942
40176
40314
40358
40380
40445
40542
40580
40602
40606
40861
41084
41107
41165
41177
41380
41390
41399
41411
41413
41489
41694
41798
41799
41886
41888
41903
41957
42058
42079
42105
42114
42116
42220
42320
42419
42460
42549
44327
36319
37690
37514
39274
39640
40285
40319
40603
40654
40784
40851
40855
40860
40961
40965
41064
41088
41170
41180
41317
41481
41504
41507
41531
41571
41589
41687
41740
41800
41833
41860
41885
42085
42129
42174
42221
42236
42520
42687
42810
43015
43020
43126
34540
34955
35739
36367
36453
36560
37787
38094
39246
39422
39722
39735
40087
40154
40389
40456
40464
40564
40573
40585
40683
40806
40807
40868
41265
41370
41401
41408
41427
41437
41464
41485
41509
41567
41666
41686
41827
42033
42155
42305
42341
42416
42436
42508
42509
43267
43321
36574
34911
38096
32496
34460
36867
37094
37174
37617
39025
39426
39428
39737
40371
40570
40588
40904
40972
41113
41197
41414
41491
41494
41499
41500
41563
41631
41693
41797
41824
41867
41906
41936
41972
41988
42013
42098
42184
42524
42587
42613
42720
42743
42914
43073
44323
44725
39153
37378
39247
39453
40279
40458
40766
41101
41239
41470
41518
41647
41683
41715
41719
41779
41780
41942
42007
42032
42086
42101
42108
42131
42187
42223
42293
42339
42427
42448
42521
42530
42607
42616
42626
42706
43090
43291
43396
43462
35948
36047
36765
38224
38717
38949
40144
40331
40408
40448
40594
40746
40777
40962
40971
41100
41194
41480
41670
41675
41900
42038
42110
42118
42127
42406
42415
42438
42458
42462
42484
42516
42603
42631
42665
42789
42934
43039
43646
43710
36878
36950
37073
38517
38608
38698
38818
38917
39847
39948
40155
40357
33889
40675
40757
40808
41012
41176
41189
41225
41377
41386
41591
41636
41658
41701
41772
41785
41801
41887
41894
41899
41913
41965
41981
42002
42009
42022
42091
42097
42109
42225
42228
42233
42234
42245
42308
42318
42324
42337
42343
42534
42604
42719
42957
43032
43088
43138
43190
43339
45761
37922
32695
36664
36966
38197
39429
39513
39760
40197
40288
40352
40362
40447
40963
40979
41261
41278
41359
41502
41530
41579
41593
41598
41619
41688
41795
41876
41881
41923
42019
42111
42115
42121
42312
42374
42414
42430
42547
42605
42625
42718
42722
42729
42931
43026
43114
43260
43601
43890
37365
35235
36241
36957
37369
38495
40275
40364
41171
41181
41195
41208
41372
41385
41391
41520
41644
41707
41782
41910
41926
42050
42083
42123
42134
42306
42321
42401
42431
42624
42753
42758
42791
42834
42916
42980
43258
43293
43316
43752
43867
44836
35434
36247
36276
38307
39518
39819
39839
39931
40568
40854
40875
41037
41072
41294
41383
41582
41789
42229
42243
42345
42349
42444
42446
42490
42544
42562
42564
42646
42745
42840
42856
42905
42941
42953
43120
43156
43229
43306
43397
43480
43671
43882
45649
36250
39946
34621
37266
37366
39024
39632
39821
40039
40066
40242
40566
41083
41282
41305
41363
41397
41572
41596
41629
41690
41802
41809
41817
41879
41889
41909
41915
42018
42106
42138
35683
42208
42259
42304
42322
42400
42404
42538
42548
42556
42628
42634
42813
42835
42927
42942
42962
43006
43011
43031
43050
43139
43141
43251
43342
43393
43432
43444
43468
43537
43568
43582
43687
43713
34297
44064
44427
44935
39857
42475
37586
37995
38002
38295
38297
39053
39240
39340
39526
39827
40029
40130
40273
40596
40865
40879
40949
40994
41128
41544
41685
41847
41892
41911
42145
42317
42515
42517
42569
42637
42639
42656
42730
42735
42759
42798
42886
42918
42940
43030
43036
43232
43241
43244
43266
43808
43915
44163
45248
36831
42933
39136
39225
39249
40147
40866
41501
41522
41705
41815
41878
42205
42219
42379
42429
42434
42441
42512
42525
42555
42580
42615
42728
42746
42794
42816
43145
43299
43431
43532
43699
44083
44411
36751
38875
39642
39728
40150
40245
40446
40574
40985
41159
41425
41580
41649
41661
41667
41677
41680
41895
42004
42026
42090
42102
42113
42117
42218
42302
42316
42545
42597
42602
42752
42762
42779
42828
42838
42924
42954
43052
43097
43103
43131
43187
43238
43356
43369
43476
43779
43811
43850
43943
43966
44099
44379
44834
35278
45856
36847
37786
34850
38729
38929
39022
39048
39646
39736
40027
40329
40435
40980
41001
41190
41483
41511
41700
41759
41814
41832
41904
41997
42198
42251
42257
42310
42362
42395
42413
42432
42454
42519
42532
42554
42586
42620
42630
42635
42649
42666
42732
42738
42749
42754
42773
42775
42829
43023
43033
43123
43129
43458
43539
43605
43616
43659
43767
43864
43878
44047
44074
44212
44284
36427
41941
33082
34644
38497
39333
39625
40402
41062
41268
41288
41366
41584
41673
41907
41999
42044
42074
42120
42158
42217
42232
42238
42277
42425
42437
42522
42633
42640
42641
42643
42721
42724
42803
42827
42845
42864
42911
42915
42920
42923
42935
42947
42956
42992
43041
43122
43230
43235
43243
43271
43289
43311
43371
43399
43423
43448
43517
43561
43663
43725
43762
44191
44259
37370
37813
38399
38510
38923
39036
39222
40671
40768
40849
41407
41711
42082
42196
42246
42325
42500
42527
42647
42723
42823
42849
42877
42879
42910
42921
42928
42961
43010
43121
43140
43167
43214
43219
43223
43227
43231
43245
43248
43273
43418
43475
43512
43575
43641
43698
43753
43756
43763
43853
43969
44081
44089
44151
44165
44391
45132
41353
46364
44514
34713
35327
37280
38091
38732
38743
40128
40756
40880
41472
41603
41787
41902
41914
41931
41970
42333
42342
42407
42421
42423
42435
42452
42506
42690
42870
42900
42926
43040
43045
43056
43057
43066
43074
43234
43249
43262
43322
43325
43346
43357
43424
43426
43520
43523
43524
43560
43636
43664
43785
43849
43861
43883
44365
44366
44578
44581
44683
35973
37637
39023
40439
40684
41086
41318
41681
41991
42269
42300
42445
42528
42715
42817
42826
42841
43022
43117
43130
43134
43143
43147
43237
43318
43326
43343
43363
43429
43457
43473
43488
43505
43551
43554
43558
43572
43648
43673
43686
43750
43952
43980
43986
43988
44069
44133
44160
44251
44261
44268
44273
44306
44310
44670
44988
45210
46053
36051
38130
38530
39112
39329
39470
39881
39928
40220
40538
40864
41186
41291
41361
41566
41996
42087
42095
42170
42200
42311
42394
42740
42958
42959
43072
43125
43185
43246
43320
43335
43406
43455
43464
43516
43602
43674
43760
43793
43825
43865
43871
43948
43962
44002
44094
44098
44174
44176
44451
44583
44837
45249
46978
38515
38725
39731
39980
40461
40577
40643
40951
41008
41060
41259
41656
41724
41765
41793
41940
42203
42497
42514
42542
42606
42688
42736
42744
42811
42814
42821
42867
42917
42955
43059
43071
43081
43158
43341
43412
43414
43427
43436
43453
43459
43467
43527
43531
43595
43629
43634
43692
43780
43782
43783
43858
43863
43881
43893
43941
43963
44020
44030
44063
44066
44073
44076
44077
44095
44154
44190
44207
44265
44269
44291
44297
44314
44364
44369
44486
35527
44646
44653
44669
44717
44886
45005
45073
45647
38941
38765
37456
36858
37642
35564
37071
38603
39037
40031
40659
40974
41053
41487
41527
41537
41819
41857
41998
42107
42179
42314
42373
42428
42481
42599
42617
42804
42850
42855
42991
43043
43049
43104
43197
43210
43225
43259
43317
43382
43398
43454
43466
43525
43542
43611
43632
43654
43736
43776
43844
43848
43862
44028
44071
44093
44097
44110
44115
44137
44140
44142
44157
44158
44173
44240
44253
44262
44298
44329
44493
44567
44574
44615
44642
44644
44682
44753
44764
44773
44909
45246
45308
45496
46166
35972
41477
36791
41448
27048
35860
39325
39452
39621
40886
40968
41076
41269
41747
41757
41771
41989
42010
42012
42176
42330
42369
42389
42711
42777
42809
42839
42853
42885
43012
43048
43063
43076
43135
43186
43199
43213
43218
43282
43303
43334
43354
43441
43578
43644
43645
43649
43650
43672
43749
43764
43781
43840
43846
43916
43961
43981
43983
43995
44012
44222
44255
44258
44266
44270
44277
44324
44345
44358
44378
44389
44465
44472
44483
44607
44610
44833
44835
45162
45242
46459
46774
35333
39050
43384
42709
37984
39117
39921
40762
40870
41381
41498
41775
41790
42172
42301
42356
42408
42501
42648
42712
42822
42837
42844
42952
42960
43034
43142
43177
43183
43188
43193
43226
43302
43305
43324
43328
43333
43338
43349
43419
43421
43541
43653
43657
43662
43716
43758
43765
43810
36144
43827
43855
43960
43989
44055
44108
44129
44235
44260
44286
44415
44467
44570
44577
44599
44884
45079
45117
45134
45176
45245
45425
36416
44197
37167
37383
37895
37915
38184
39918
40235
40339
40551
40856
40862
40976
41071
41182
41469
41474
41920
42112
42140
42595
42638
42708
42717
42825
42836
42930
43018
43029
43155
43250
43252
43408
43443
43470
43519
43548
43660
43668
43669
43682
43727
43770
43854
43860
43869
43879
43897
43994
44021
44067
44087
44156
44210
44252
44254
44257
44299
44393
44421
44426
44501
44517
44598
44612
44698
44783
44864
44984
45018
45238
45240
45333
45498
45511
45623
45028
46884
48416
38204
40251
44605
37899
37093
38934
40123
40244
40256
40946
41387
41655
41684
41776
41976
42185
42193
42201
42210
42292
42319
42420
42763
43037
43108
43224
43308
43309
43407
43411
43451
43485
43518
43534
43540
43566
43574
43626
43652
43658
43678
43739
43747
43795
43896
43959
44008
44016
44033
44053
44058
44072
44092
44101
44117
44166
44180
44230
44275
44342
44348
44363
44394
44449
44466
44474
44475
44540
44566
44575
44655
44666
44668
44750
44766
44793
44872
44879
44880
44881
45012
45027
45063
45183
45206
45207
45225
45444
45638
36942
37187
42417
38319
38398
40359
40649
40695
41270
41376
41654
41865
41974
42001
42396
42539
42614
42831
42851
42889
43002
43014
43025
43078
43096
43149
43174
43207
43216
43253
43351
43391
43449
43521
43552
43621
43643
43746
43836
43880
43904
43934
43947
43968
43972
44001
44017
44041
44079
44088
44107
44136
44144
44172
44211
44225
44239
44246
44248
44249
44267
44271
44278
44396
44485
44524
44534
44545
44548
44552
44622
44687
44711
44754
44763
44803
44809
44989
45010
37183
45070
45089
45100
45111
45174
45340
45509
45542
45574
37181
44419
37821
37093
36588
36963
36233
38411
40028
40552
41379
41884
42094
42191
42507
42801
42830
42832
42902
42904
42913
43016
43133
43331
43360
43428
43515
43530
43581
43625
43627
43647
43661
43705
43729
43832
43856
43899
43957
44005
44019
44052
44162
44177
44228
44234
44276
44328
37890
44373
44374
44452
44454
44470
44495
44496
44541
44550
44565
44589
44592
44643
44695
44810
44892
44926
44965
45097
45107
45115
45158
45159
45173
45269
45383
45516
45611
45671
38677
37376
37380
39334
39832
40569
41187
42183
42273
42495
42608
42922
42967
43005
43124
43330
43337
43390
43450
43471
43622
43639
43665
43676
43684
43726
43745
43773
43917
43936
43958
43990
44009
44027
44153
44181
44187
44359
44385
44471
44482
44491
44584
44596
44647
44661
44676
44919
44953
44977
45002
45003
45058
45175
45298
45400
45422
45446
45507
45508
45626
45774
45930
46108
44510
36046
41075
39610
37544
35760
39137
40124
40451
40662
40676
41277
41360
41382
41569
42000
42206
42334
42469
42623
42714
42733
42755
43209
43221
36832
43433
43435
43442
43511
43609
43638
43743
43823
43833
43857
43894
43908
43950
43956
43971
44049
44051
44155
44168
44170
44203
44256
44280
44285
44295
44410
44439
44446
44476
44500
44568
44678
44681
44690
44709
44771
44774
44806
44808
44869
44914
44952
44992
44998
45030
45057
45122
45168
45171
45239
45424
45742
46017
46228
46461
46775
38852
40618
36876
39530
44397
44925
41760
37910
35038
38604
38952
39724
39831
40989
41492
41657
41794
42442
42588
42663
42891
42901
42919
42975
42999
43044
43046
43220
43239
43336
43372
43404
43509
43545
43547
43612
43637
43693
43754
43761
43769
43774
43872
43926
43939
43982
44056
44091
44096
44171
44179
44288
44292
44353
44362
44375
44395
44401
44403
44405
44453
44461
44468
44469
44477
44479
44490
44555
44556
44558
44564
44665
44685
44703
44789
44792
44794
44804
44885
44910
44979
44985
45044
45066
45161
45182
45196
45209
45212
45214
45222
45227
45260
45310
45335
45401
45408
45684
45785
45845
45879
45916
38944
46247
38335
38954
38626
37894
45849
37976
42584
37711
38804
40572
40842
41094
41478
41561
41651
41786
42125
42182
42202
42299
42820
42939
43118
43355
43394
43483
43522
43529
43837
43841
43868
43876
43946
43973
44080
44082
44139
44149
44243
44282
44289
44400
44407
44408
44463
44551
44573
44582
44600
44625
44641
44652
44657
44664
44677
44680
44684
44830
44871
44894
44895
44930
44987
45082
45156
45177
45295
45297
45397
45600
45617
45688
45736
37895
46537
46675
48098
42071
36552
37504
40450
40554
40761
41791
41796
41990
42295
42486
42727
43013
43599
43651
43709
43728
43740
43772
43784
43818
43870
43944
43964
43977
44006
44048
44085
44135
44279
44308
44361
44367
44388
44506
44580
44597
44611
44620
44650
44658
44742
44782
44791
44878
44945
44966
44974
44997
45000
45087
45090
45093
45147
45184
45193
45199
45312
45410
45411
45428
45493
45497
45569
37894
45672
45695
45740
45814
45890
45935
45938
45994
46041
47090
47597
38957
38500
37840
40670
42664
40471
41167
42689
43001
43004
43416
43417
43430
43489
43526
43786
43949
44004
44061
44065
44084
44148
44274
44357
44456
44458
44594
44673
44674
44779
44781
44800
44844
44873
44883
44896
44944
44961
44962
44968
44970
44982
45004
45054
45071
45085
45088
45186
45367
45376
45473
45520
45543
45588
45718
37469
45919
45921
46043
46082
46103
46141
46670
46715
47292
37974
38956
42175
37184
38827
39528
39729
39945
40054
40068
40844
41669
41874
42280
42491
42632
42726
42846
43113
43201
43358
43438
43791
43911
44057
44233
44250
44263
44272
44336
44346
44372
44387
44440
44498
44526
44553
44619
44660
44699
44744
44811
44814
44842
44870
44890
44897
44969
44972
44976
45019
45020
45080
45086
45165
45203
45211
45220
45233
45300
45393
45398
45402
45403
45429
45450
45484
45487
45489
45501
45632
45653
45670
45705
45719
45798
45829
45891
45902
45950
46015
46021
46162
38771
46207
38314
37983
48303
38333
40032
37900
38848
38246
35747
36997
39135
41699
41768
42399
42609
42739
42894
43009
43319
43353
43618
43707
43731
43755
43835
43843
43928
44237
44315
44383
44450
44489
44527
44624
44648
44758
44777
44780
44882
44889
45226
45273
45317
45385
45392
45447
45479
45495
45510
45514
45599
45681
45698
45711
45713
45727
45812
45822
45898
45940
46051
46055
46061
46134
46138
46266
46384
46432
46450
46640
46709
47059
39316
38890
38413
37724
37553
37164
37606
40996
41374
41660
41664
42088
42581
42702
42897
43313
43401
43495
43499
43556
43887
43984
44054
44164
44219
44420
44455
44487
44497
44539
44561
44585
44616
44651
44663
44672
44694
44723
44735
44759
44765
44785
44861
44921
44975
45049
45051
45068
45091
45106
45148
45166
45219
45221
45263
45338
45368
45399
45494
45575
45633
45634
45704
45710
45741
45759
45803
45917
46079
46100
46119
46135
46140
46249
46734
46972
47139
37896
38777
39831
39497
40348
44229
39265
37109
40122
41980
42078
42621
42693
42806
42908
43087
43116
43555
43809
43866
43874
43920
43945
44264
44384
44386
44433
44443
44546
44638
44746
44751
44888
45016
45075
45153
45167
45201
45243
45254
45279
45286
45311
45375
45395
45469
45475
45525
45591
45620
45721
45820
45887
45999
46115
46237
46248
46253
46319
46327
46393
46402
46426
46505
46531
37276
46801
46883
46939
38949
39127
37640
40460
46568
39835
42188
42504
42583
42699
42802
42989
43228
43478
43721
43975
44050
44305
44313
44325
44337
44352
44356
44639
44654
44662
44722
44740
44761
44770
44775
44787
44848
44868
44904
44951
44959
44967
44983
45077
45110
45121
45135
45154
45195
45200
45202
45309
45378
45390
45394
45406
45407
45466
45481
45486
45488
45492
45499
45573
45606
45635
45696
45737
45746
37545
45800
45811
45813
45816
45817
45906
45923
45946
46008
46026
46028
46044
46069
46080
46130
46154
46160
46222
46325
46389
46401
46487
46510
46528
46584
46620
46639
46710
46772
46976
47595
45232
31961
38782
39893
33712
36771
37487
38825
39629
39841
40342
41082
42818
42890
42909
43008
43212
43439
43615
43730
44026
44086
44338
44350
44435
44444
44656
44769
44797
44902
44978
45094
45160
45180
45187
45189
45272
45289
45302
45336
45396
45413
45414
45478
45483
45500
45526
45534
45545
45579
45603
45619
45631
45691
45693
45701
45709
45767
45835
45843
45882
45901
45903
45907
45909
45911
45924
45975
46002
46005
46018
46087
46107
46125
46131
46159
46285
46304
46403
46433
46469
46540
39639
46629
46831
47118
47393
40953
38783
39906
43314
38832
41559
42015
42303
42644
42819
43003
43017
43112
43166
43301
43771
43965
43974
43979
44146
44241
44245
44322
44340
44390
44542
44563
37723
44667
44679
44850
44859
44980
44993
44999
45137
45276
45291
45386
45532
45562
45583
45609
45614
45666
45675
45717
45772
45779
45884
45977
45987
46012
46023
46089
46094
46101
46123
46392
46419
46424
46486
46501
46563
46626
39461
46727
46758
47019
39027
47236
32587
37175
39029
38172
39244
38709
40148
39215
45954
44696
36044
45537
41257
41486
41558
41773
41987
42790
42988
43409
43481
43633
43955
44034
44068
44404
44447
44460
44760
44767
44788
44858
44916
44981
45059
45105
45129
45157
45164
45205
45293
45412
45418
45426
45448
45458
45610
45722
45783
45792
45806
45810
45828