/*--------------------------------*- C++ -*----------------------------------*\
  =========                 |
  \\      /  F ield         | OpenFOAM: The Open Source CFD Toolbox
   \\    /   O peration     | Website:  https://openfoam.org
    \\  /    A nd           | Version:  7
     \\/     M anipulation  |
\*---------------------------------------------------------------------------*/
FoamFile
{
    version     2.0;
    format      ascii;
    class       Cloud<dsmcParcel>;
    location    "0.001/lagrangian/dsmc";
    object      positions;
}
// * * * * * * * * * * * * * * * * * * * * * * * * * * * * * * * * * * * * * //

2619
(
(0.2284498362 0.02200246671 0.3637726152 0.3857750819) 316 564 2
(0.1564197271 0.4217901364 0.4026196859 0.01917045054) 294 577 2
(0.2383091611 0.3808454194 0.1219756523 0.2588697671) 157 307 2
(0.574532569 0.2127337155 0.1347922345 0.07794148095) 302 594 2
(0.07883021664 0.4605848917 0.4076994124 0.0528854793) 189 372 2
(0.6495639315 0.1752180343 0.05543933387 0.1197787004) 107 211 2
(0.1167289966 0.4416355017 0.008723028236 0.4329124735) 166 325 2
(0.420017217 0.2377161735 0.2899913915 0.05227521803) 189 373 2
(0.6148029088 0.1925985456 0.01477825439 0.1778202912) 25 50 2
(0.08000148541 0.1526764827 0.3073227746 0.4599992573) 77 152 1
(0.4343082768 0.2828458616 0.1325817436 0.150264118) 434 855 1
(0.8211320873 0.08943395633 0.03397192375 0.05546203258) 263 516 2
(0.5846956388 0.2076521806 0.1263352458 0.08131693484) 186 364 2
(0.7061337237 0.07468652168 0.1469331382 0.07224661647) 54 108 2
(0.2600444972 0.3699777514 0.3438224597 0.0261552917) 287 563 2
(0.2444634136 0.08717520207 0.3777682932 0.2905930912) 383 752 1
(0.1811484968 0.2973850986 0.4094257516 0.112040653) 167 327 1
(0.3231732849 0.3384133575 0.2669917698 0.07142158772) 51 101 2
(0.2972780196 0.3513609902 0.1116956807 0.2396653095) 220 434 1
(0.1886918556 0.2482301576 0.1574239145 0.4056540722) 134 264 1
(0.4091301297 0.1955153302 0.2954349351 0.09991960493) 112 219 1
(0.07473027542 0.4626348623 0.2010204934 0.2616143689) 430 844 2
(0.3447891941 0.3276054029 0.2291914976 0.09841390536) 11 22 2
(0.271332625 0.3643336875 0.3469026727 0.01743101478) 228 447 2
(0.4812714236 0.2593642882 0.02214746366 0.2372168246) 318 568 1
(0.4250757949 0.2874621026 0.09496895233 0.1924931502) 500 927 1
(0.01772531238 0.4911373438 0.08792131828 0.4032160255) 129 255 1
(0.7250982804 0.1374508598 0.121467458 0.01598340176) 262 517 1
(0.2928259366 0.1438313497 0.209755682 0.3535870317) 100 139 2
(0.2432453569 0.3783773216 0.04273906079 0.3356382608) 496 970 2
(0.1593789435 0.4203105283 0.1870788834 0.2332316449) 482 940 2
(0.06777740279 0.4661112986 0.1785138753 0.2875974233) 49 98 1
(0.3467689712 0.2386743547 0.3266155144 0.08794115968) 271 531 1
(0.675550788 0.162224606 0.1098486068 0.05237599919) 332 595 1
(0.4238467417 0.02240848807 0.2880766291 0.2656681411) 286 561 1
(0.7987352481 0.100632376 0.007066585067 0.09356579091) 458 898 2
(0.6538975568 0.1105860435 0.06246517809 0.1730512216) 133 262 1
(0.06949454972 0.4652527251 0.2690010979 0.1962516272) 474 875 1
(0.4083698094 0.2958150953 0.0755758289 0.2202392664) 65 129 1
(0.1815926025 0.2818217563 0.1273819425 0.4092036987) 262 516 1
(0.6905389519 0.1547305241 0.103671693 0.05105883104) 145 284 2
(0.299347754 0.06042053852 0.350326123 0.2899055845) 193 381 2
(0.130442864 0.01409023015 0.4206883378 0.434778568) 452 831 2
(0.3724883078 0.2904139653 0.3137558461 0.02334188081) 247 487 2
(0.4387774463 0.2806112769 0.1412531331 0.1393581438) 239 469 2
(0.3894618357 0.1548215049 0.1504475772 0.3052690821) 36 71 1
(0.5215557088 0.2392221456 0.03018060669 0.2090415389) 278 548 1
(0.02350663913 0.2374968102 0.2507498702 0.4882466804) 237 409 2
(0.3418195674 0.3290902163 0.004376002702 0.3247142136) 71 138 2
(0.3175577956 0.3412211022 0.3282881263 0.01293297592) 190 372 2
(0.8050428633 0.002842468334 0.09747856834 0.09463610001) 51 99 1
(0.5406635672 0.2296682164 0.1036908425 0.1259773738) 18 36 2
(0.6573351 0.17133245 0.1522276073 0.01910484274) 219 432 1
(0.787713564 0.07375339316 0.03238982482 0.106143218) 425 778 2
(0.6675915144 0.03484823669 0.1662042428 0.1313560061) 64 127 2
(0.1960213721 0.3766389072 0.4019893139 0.0253504067) 410 808 2
(0.1854420113 0.2072365216 0.4072789944 0.2000424727) 199 393 2
(0.5403181837 0.2298409081 0.1703891439 0.05945176423) 26 50 2
(0.03019897841 0.4849005108 0.1929629163 0.2919375945) 91 179 2
(0.7074628706 0.1462685647 0.05894922068 0.08731934403) 246 484 2
(0.1594840506 0.2286553727 0.4202579747 0.191602602) 465 915 2
(0.3143020921 0.298478095 0.04437085889 0.3428489539) 284 559 1
(0.0006576985437 0.4996711507 0.03425439341 0.4654167573) 93 183 2
(0.1686550082 0.294239313 0.4156724959 0.1214331829) 485 946 1
(0.05673256838 0.4716337158 0.2562460137 0.2153877021) 228 449 2
(0.05205149842 0.4666150116 0.4739742508 0.007359239203) 520 1008 1
(0.02384880786 0.4880755961 0.3453012125 0.1427743835) 113 223 2
(0.5983277147 0.2008361427 0.1813947744 0.01944136828) 314 560 1
(0.3592732488 0.2571928016 0.3203633756 0.06317057396) 97 189 1
(0.1477144857 0.1605019517 0.2656408055 0.4261427571) 263 460 2
(0.2545438558 0.1148989511 0.257829121 0.3727280721) 22 44 1
(0.0003883311583 0.4998058344 0.1903682853 0.3094375492) 11 22 2
(0.5636911352 0.2181544324 0.03716777583 0.1809866566) 279 547 2
(0.7286923126 0.1356538437 0.05204968963 0.08360415407) 290 572 1
(0.1956070649 0.4021964675 0.04939248742 0.3528039801) 67 130 2
(0.426668908 0.2310072133 0.05565833269 0.286665546) 322 576 2
(0.3076836275 0.1209873705 0.2251708158 0.3461581863) 501 929 2
(0.4024443276 0.2987778362 0.02953595069 0.2692418855) 318 627 1
(0.7341080761 0.132945962 0.06834873266 0.06459722931) 93 125 1
(0.3275463386 0.3362268307 0.3300537289 0.006173101794) 337 663 2
(0.1152067325 0.1737461926 0.2686504411 0.4423966337) 431 790 2
(0.03410718616 0.4829464069 0.4553408477 0.02760555922) 110 218 1
(0.6097903449 0.1111781619 0.08392666562 0.1951048275) 349 629 2
(0.2165471835 0.3917264082 0.2633165514 0.1284098569) 22 44 2
(0.2407457834 0.09797072028 0.281656388 0.3796271083) 162 261 2
(0.4472939269 0.2763530366 0.1195877064 0.1567653302) 373 734 2
(0.09815687481 0.4509215626 0.3262892266 0.124632336) 280 493 1
(0.04249610384 0.4787519481 0.3486519268 0.1301000213) 162 317 2
(0.2453189641 0.3773405179 0.2442025819 0.133137936) 135 208 1
(0.5306100345 0.08547172857 0.2346949828 0.1492232542) 406 797 1
(0.5287846578 0.2356076711 0.1898044912 0.04580317984) 151 295 2
(0.3707436463 0.04187477117 0.3146281769 0.2727534057) 7 12 1
(0.3597076232 0.3201461884 0.2948194536 0.02532673484) 487 952 2
(0.4508866739 0.2634678099 0.01108885312 0.2745566631) 225 443 1
(0.08618937474 0.4569053126 0.4537157358 0.00318957678) 269 530 1
(0.6199105163 0.03805358098 0.1900447418 0.1519911609) 30 60 2
(0.3331868257 0.2714488694 0.3334065871 0.06195771778) 394 776 2
(0.2830783322 0.3584608339 0.1908300453 0.1676307886) 202 340 1
(0.1615042376 0.4192478812 0.1319634946 0.2872843866) 218 371 1
(0.2580085746 0.3709957127 0.06114041956 0.3098552931) 143 283 1
(0.07313218987 0.2873856027 0.4634339051 0.1760483024) 404 796 2
(0.0582953804 0.4667579402 0.004094369592 0.4708523098) 346 681 1
(0.1688791853 0.4155604073 0.09325744075 0.3223029666) 190 372 2
(0.03857158619 0.4807142069 0.2339972506 0.2467169563) 474 875 1
(0.1439647503 0.4280176249 0.3088392934 0.1191783314) 136 266 2
(0.008901390003 0.4654790033 0.495549305 0.03007030171) 35 70 2
(0.2382872177 0.1568750686 0.2239813226 0.3808563912) 344 619 2
(0.3143228789 0.1047916238 0.3428385606 0.2380469368) 13 24 1
(0.1640721692 0.4179639154 0.3550729808 0.06289093457) 471 926 2
(0.587146535 0.2064267325 0.004661262173 0.2017654703) 109 213 2
(0.08403173756 0.4261916625 0.03179246873 0.4579841312) 390 709 2
(0.1890631922 0.05430198274 0.4054684039 0.3511664211) 393 774 2
(0.09433565734 0.4528321713 0.4222337747 0.03059839662) 187 368 2
(0.655064204 0.09665644459 0.172467898 0.07581145341) 110 215 1
(0.01582932297 0.1699840584 0.4920853385 0.3221012801) 74 147 2
(0.05908288951 0.4081652122 0.06229334301 0.4704585552) 325 640 1
(0.388161839 0.1678513967 0.1380676839 0.3059190805) 202 398 1
(0.5977779737 0.1140338925 0.08707712065 0.2011110131) 278 547 1
(0.530883706 0.234558147 0.1233784594 0.1111796876) 139 274 2
(0.3241628014 0.3379185993 0.2222076086 0.1157109908) 320 628 2
(0.8083886987 0.01221527082 0.09580565063 0.08359037981) 40 77 1
(0.1195067774 0.3059551191 0.1342914922 0.4402466113) 513 998 1
(0.8275836741 0.08620816293 0.004261974463 0.08194618846) 290 572 1
(0.2026754897 0.001516917004 0.3971453381 0.3986622551) 440 866 1
(0.607132785 0.1964336075 0.1320042151 0.06442939245) 350 631 1
(0.1906258464 0.1926809864 0.4046870768 0.2120060904) 284 560 2
(0.625774462 0.02785161144 0.1592611576 0.187112769) 287 507 2
(0.2050355931 0.3974822034 0.0925265805 0.3049556229) 194 324 1
(0.7451205625 0.07352044621 0.1274397187 0.05391927252) 271 534 2
(0.5904384817 0.2047807592 0.002946138552 0.2018346206) 166 328 1
(0.3555479997 0.07869939825 0.2435266019 0.3222260001) 88 116 2
(0.7646439238 0.0344595565 0.1176780381 0.08321848158) 142 281 2
(0.2920523174 0.3539738413 0.133672648 0.2203011933) 11 23 1
(0.4254683202 0.2098420709 0.07742376903 0.2872658399) 142 280 1
(0.6684907694 0.126373276 0.1657546153 0.03938133933) 18 34 1
(0.4369021619 0.2815489191 0.2709969377 0.0105519814) 397 781 2
(0.4629572894 0.2685213553 0.01206495861 0.2564563967) 105 207 2
(0.2619532391 0.2150230343 0.1540003462 0.3690233805) 403 735 2
(0.5450934858 0.2274532571 0.2160142103 0.01143904683) 230 454 1
(0.7476576363 0.09318746402 0.03298371781 0.1261711818) 85 168 1
(0.6885371957 0.1557314022 0.02059210659 0.1351392956) 234 403 1
(0.3974692627 0.3012653686 0.1421347882 0.1591305804) 29 58 1
(0.1349450161 0.08512284671 0.432527492 0.3474046452) 339 665 1
(0.3008431258 0.3495784371 0.3426119882 0.006966448905) 209 353 1
(0.424234957 0.2878825215 0.1637441342 0.1241383873) 271 534 1
(0.592338102 0.203830949 0.05083970173 0.1529912473) 56 109 2
(0.1458072787 0.4270963607 0.3552674343 0.07182892636) 159 255 1
(0.6370922761 0.181453862 0.1537078366 0.02774602534) 317 622 2
(0.3009035032 0.3495482484 0.3052415053 0.04430674306) 282 553 2
(0.1684733596 0.4157633202 0.2642970036 0.1514663166) 355 697 2
(0.7678413978 0.1160793011 0.08072188742 0.03535741366) 444 816 1
(0.2505123582 0.3747438209 0.3556972033 0.01904661759) 276 544 1
(0.4085681797 0.2957159101 0.1294392411 0.1662766691) 476 934 2
(0.5325913428 0.2337043286 0.1414175464 0.09228678218) 236 407 1
(0.04062617423 0.4796869129 0.2183541219 0.261332791) 317 566 1
(0.225923146 0.109796863 0.277241564 0.387038427) 212 359 2
(0.09974317634 0.4501284118 0.3938883166 0.05624009525) 17 35 1
(0.02992646054 0.4796625453 0.4850367697 0.005374224428) 420 2192 2
(0.1041966297 0.4479016851 0.2653169021 0.182584783) 11 20 2
(0.879555459 0.06022227049 0.05907030132 0.001151969175) 314 560 1
(0.1673052569 0.4163473715 0.2252022103 0.1911451612) 207 409 1
(0.4611661674 0.2694169163 0.07326909052 0.1961478258) 355 699 2
(0.4306233903 0.09820413985 0.186484165 0.2846883049) 392 771 1
(0.4484468918 0.2757765541 0.2363942286 0.03938232555) 319 628 2
(0.9759932368 0.01200338161 0.0001690859846 0.01183429562) 401 790 1
(0.4078620068 0.2960689966 0.06600030801 0.2300686886) 291 571 2
(0.7450614008 0.004305877412 0.1274692996 0.1231634222) 355 700 2
(0.3692560814 0.3153719593 0.0757976281 0.2395743312) 438 863 1
(0.0241941535 0.2343372042 0.253565719 0.4879029232) 42 83 1
(0.3397890135 0.3301054932 0.3156200898 0.01448540341) 127 251 1
(0.5331754189 0.1537519662 0.2334122906 0.07966032432) 72 143 2
(0.3554567093 0.3222716454 0.3001373955 0.02213424982) 185 306 1
(0.06923115304 0.4653844235 0.1065317108 0.3588527127) 129 255 1
(0.6878673308 0.1560663346 0.1517585702 0.00430776433) 225 385 1
(0.7503389677 0.1248305161 0.0521462608 0.07268425532) 321 574 1
(0.2687557066 0.06440636814 0.3656221467 0.3012157785) 526 1016 1
(0.1708975537 0.2837593829 0.1307918403 0.4145512231) 80 158 1
(0.03606102057 0.4819694897 0.2723292695 0.2096402202) 539 1035 2
(0.2318388859 0.2731538219 0.1109267351 0.3840805571) 291 573 1
(0.6959237268 0.1520381366 0.08109238453 0.07094575205) 216 367 1
(0.4530845627 0.2734577187 0.1644093114 0.1090484073) 286 563 2
(0.5300584086 0.2349707957 0.07677313992 0.1581976558) 100 197 2
(0.4796553022 0.05245495789 0.207717391 0.2601723489) 250 434 2
(0.1788721626 0.3699529803 0.4105639187 0.04061093836) 403 791 1
(0.7812614972 0.09096588922 0.01840336218 0.1093692514) 106 209 1
(0.2989982422 0.09276668609 0.2577341928 0.3505008789) 161 317 1
(0.8931767679 0.04289438709 0.05341161604 0.01051722896) 88 175 2
(0.3823826247 0.1542075483 0.3088086877 0.1546011393) 528 1023 2
(0.1719516709 0.4140241646 0.2514275189 0.1625966456) 67 132 2
(0.344151637 0.2057319923 0.1221921892 0.3279241815) 168 331 1
(0.5181813445 0.2409093277 0.2311304061 0.009778921609) 509 988 2
(0.1066976829 0.4466511586 0.003211322777 0.4434398358) 102 199 2
(0.142341348 0.3886341624 0.428829326 0.04019516364) 21 43 2
(0.2849866057 0.3575066971 0.178817548 0.1786891492) 84 167 1
(0.02346052786 0.4882697361 0.2111676649 0.2771020711) 405 798 1
(0.05428479209 0.472857604 0.1192074522 0.3536501518) 496 970 2
(0.1397597282 0.4301201359 0.1225327268 0.3075874091) 486 948 2
(0.09374700645 0.3569283874 0.09619810942 0.4531264968) 274 481 2
(0.02246515863 0.2530912798 0.2356761409 0.4887674207) 145 228 2
(0.5633313821 0.09721305195 0.218334309 0.121121257) 306 600 1
(0.4792725442 0.2603637279 0.06739334009 0.1929703878) 400 785 2
(0.1893288636 0.4053355682 0.2764700734 0.1288654948) 127 251 1
(0.371114467 0.1546342561 0.3144427665 0.1598085104) 505 983 2
(0.07863933363 0.05869594613 0.4019843871 0.4606803332) 105 149 2
(0.06248321102 0.4687583945 0.2656467187 0.2031116758) 219 431 2
(0.2304060517 0.02048753617 0.3847969741 0.364309438) 318 627 2
(0.0775851587 0.4612074207 0.4261765137 0.03503090697) 54 108 1
(0.4423458532 0.01047693192 0.2683501415 0.2788270734) 172 339 1
(0.6845374892 0.08148782665 0.1577312554 0.07624342876) 81 158 1
(0.4943609884 0.08097165739 0.1718478484 0.2528195058) 398 783 1
(0.4416036657 0.2791981671 0.2702429137 0.008955253405) 118 234 1
(0.1845852729 0.001272315101 0.4077073635 0.4064350484) 167 327 1
(0.01946945814 0.2464817401 0.2437835309 0.4902652709) 154 245 2
(0.2617526533 0.3691236733 0.1431312193 0.2259924541) 320 631 1
(0.001690367871 0.4991548161 0.1423610279 0.3567937882) 339 609 1
(0.05808785076 0.1937967896 0.4709560746 0.277159285) 255 503 2
(0.2527031817 0.3736484091 0.323280876 0.05036753319) 152 300 1
(0.5926838512 0.1285787862 0.07507928819 0.2036580744) 524 1014 1
(0.2306515574 0.1374806214 0.3846742213 0.2471935999) 258 509 2
(0.5217928497 0.2391035752 0.001591606753 0.2375119684) 336 603 1
(0.01743937304 0.01824219575 0.4730381177 0.4912803135) 107 211 1
(0.3340677388 0.05765209963 0.275314031 0.3329661306) 74 146 1
(0.6146156162 0.05562744327 0.1370647486 0.1926921919) 283 557 1
(0.8050681096 0.03215072549 0.06531521971 0.0974659452) 95 187 1
(0.3568914688 0.3215542656 0.06721012712 0.2543441385) 289 570 1
(0.02014810557 0.3464907851 0.4899259472 0.1434351621) 53 103 1
(0.6831231728 0.1203794217 0.1584384136 0.03805899194) 387 760 1
(0.1579963883 0.3086691152 0.4210018059 0.1123326907) 49 98 2
(0.5175800642 0.2412099679 0.05805579675 0.1831541711) 285 562 1
(0.4872797085 0.2006514957 0.2563601458 0.05570865002) 458 898 1
(0.6929430153 0.1535284923 0.06679617932 0.086732313) 220 431 2
(0.7359949665 0.1320025167 0.03922995031 0.09277256643) 93 181 2
(0.4223092246 0.2888453877 0.2230280049 0.06581738277) 431 848 2
(0.7282107422 0.1358946289 0.06377251876 0.07212211012) 71 141 1
(0.2337139898 0.3831430051 0.3737667941 0.009376210937) 135 266 2
(0.1887082204 0.4056458898 0.08602483177 0.3196210581) 348 627 1
(0.3087891874 0.3456054063 0.1825392092 0.1630661971) 505 980 2
(0.7949086979 0.102545651 0.06455906503 0.037986586) 314 616 2
(0.5133296122 0.2433351939 0.1876555617 0.05567963223) 14 28 2
(0.5730737783 0.009738336929 0.2134631108 0.2037247739) 397 779 1
(0.7994193539 0.04636069383 0.05392962924 0.1002903231) 489 956 1
(0.1542729856 0.2108607705 0.4228635072 0.2120027367) 189 370 1
(0.4303565876 0.2848217062 0.1680297367 0.1167919696) 115 225 2
(0.09685197577 0.01176082014 0.439813192 0.4515740121) 220 375 2
(0.8226040659 0.03709118855 0.05160677851 0.08869796706) 139 274 1
(0.0962562429 0.4518718786 0.3732094976 0.07866238096) 93 125 1
(0.3929509537 0.3035245232 0.2228851258 0.08063939732) 27 54 2
(0.2460550984 0.1263030983 0.2506693525 0.3769724508) 170 335 1
(0.4907749831 0.2546125084 0.1143275279 0.1402849806) 409 805 2
(0.5749590799 0.21252046 0.009737599547 0.2027828605) 405 798 1
(0.3152738629 0.3423630686 0.2799719243 0.06239114423) 149 1045 2
(0.06047794869 0.1537374497 0.316023576 0.4697610257) 279 549 1
(0.4542350666 0.0676520304 0.2728824667 0.2052304363) 134 265 2
(0.6814104761 0.159294762 0.1202758105 0.03901895143) 74 146 2
(0.01032568718 0.4673655018 0.4948371564 0.0274716546) 41 79 1
(0.03883988833 0.007432772663 0.4731472832 0.4805800558) 136 268 1
(0.4030150149 0.2984924925 0.09167415072 0.2068183418) 112 219 2
(0.238427028 0.380786486 0.1103308472 0.2704556388) 530 1026 2
(0.8456961551 0.009369082614 0.07715192245 0.06778283984) 283 558 2
(0.3372999659 0.331350017 0.03943003531 0.2919199817) 244 481 1
(0.208392366 0.09231682081 0.3034869962 0.395803817) 510 992 1
(0.3037272322 0.3481363839 0.09640143496 0.2517349489) 302 594 2
(0.1381295662 0.4309352169 0.2085598547 0.2223753622) 116 229 2
(0.1684981227 0.4157509387 0.1828632415 0.2328876971) 532 999 1
(0.04898732619 0.4755063369 0.2362234127 0.2392829242) 188 312 1
(0.5827563342 0.2086218329 0.04803903124 0.1605828017) 465 912 2
(0.122620223 0.06655092216 0.3721389663 0.4386898885) 133 204 2
(0.6822523667 0.1479964219 0.01087739473 0.1588738166) 128 194 2
(0.1912915675 0.4043542163 0.3631742518 0.04117996441) 428 843 1
(0.3575956536 0.2883154293 0.3212021732 0.03288674391) 39 78 2
(0.5862515165 0.04241794287 0.2068742418 0.1644562989) 75 146 1
(0.3770922162 0.3114538919 0.2890359502 0.02241794171) 518 1006 2
(0.2815780464 0.3592109768 0.2273208455 0.1318901313) 359 1052 2
(0.1744670104 0.4127664948 0.3219257945 0.09084070029) 16 1072 2
(0.6314532745 0.1842733628 0.069199115 0.1150742478) 71 82 1
(0.03002773402 0.4792989102 0.484986133 0.005687222839) 39 75 1
(0.2706139807 0.265419853 0.3646930096 0.09927315666) 514 1001 2
(0.1996541698 0.4001729151 0.2093285584 0.1908443567) 403 791 2
(0.01182509422 0.4912219462 0.002865506664 0.4940874529) 122 240 1
(0.7590226512 0.1204886744 0.1109095526 0.00957912183) 287 507 1
(0.882698642 0.058650679 0.05249337417 0.006157304821) 34 65 2
(0.09330911415 0.422570712 0.03077473091 0.4533454429) 10 20 1
(0.1675289743 0.4162355128 0.2301584433 0.1860770695) 407 802 1
(0.09323042701 0.0648906485 0.388494138 0.4533847865) 137 212 2
(0.4369986816 0.1487526901 0.1327479691 0.2815006592) 289 511 2
(0.02360632454 0.364483199 0.4881968377 0.1237136388) 267 527 2
(0.02457135402 0.487714323 0.1113979788 0.3763163442) 116 230 1
(0.4679324365 0.2660337818 0.1358261696 0.1302076122) 499 2207 1
(0.3393991008 0.3303004496 0.3060140468 0.02428640284) 65 126 2
(0.003655626255 0.2972479802 0.2009242067 0.4981721869) 12 1068 1
(0.4025720799 0.2948365265 0.29871396 0.003877433548) 15 31 2
(0.5650251005 0.2174874497 0.05626685559 0.1612205941) 140 277 1
(0.2808785818 0.3595607091 0.1176587524 0.2419019567) 230 451 2
(0.0125463176 0.4937268412 0.1877023444 0.3060244968) 156 249 1
(0.4618101031 0.2690949485 0.2252632444 0.04383170411) 368 724 2
(0.3344586328 0.3327706836 0.1301413872 0.2026292963) 159 255 1
(0.07746304342 0.4434125204 0.4612684783 0.01785595794) 13 24 1
(0.76075102 0.03522114536 0.08440334463 0.11962449) 375 738 1
(0.05216107935 0.3948820168 0.07903744357 0.4739194603) 260 454 2
(0.366830615 0.1187379055 0.197846787 0.3165846925) 41 81 1
(0.4323162489 0.2838418755 0.2708650953 0.01297678026) 295 582 1
(0.3191510773 0.2811283465 0.05929611486 0.3404244614) 235 405 2
(0.1522030161 0.2801343863 0.1437641057 0.4238984919) 373 734 1
(0.3003196289 0.004866814892 0.3498401856 0.3449733707) 61 118 1
(0.1067045236 0.0298927911 0.4466477382 0.4167549471) 70 139 2
(0.2703518055 0.03014560477 0.3346784925 0.3648240972) 105 207 1
(0.3451626323 0.3274186838 0.15485325 0.1725654339) 6 13 1
(0.2825736186 0.1648712743 0.3587131907 0.1938419165) 237 468 2
(0.107097844 0.4385887059 0.446451078 0.007862372068) 236 463 1
(0.5775482696 0.09021919563 0.2112258652 0.1210066696) 68 132 1
(0.04161779803 0.479191101 0.4104690566 0.06872204443) 478 2204 2
(0.2162425674 0.3380792294 0.05379948694 0.3918787163) 100 139 2
(0.690520069 0.1547399655 0.009946964371 0.1447930011) 77 94 1
(0.4716949395 0.2641525302 0.01127749063 0.2528750396) 481 940 2
(0.4137478652 0.2118450917 0.2931260674 0.08128097569) 23 44 1
(0.7808149921 0.109592504 0.02948345173 0.08010905224) 113 223 2
(0.08441601536 0.4577919923 0.17200274 0.2857892524) 18 1074 2
(0.6777475244 0.1354796261 0.02564661169 0.1611262378) 266 466 2
(0.3949751652 0.256723463 0.3025124174 0.04578895441) 12 22 1
(0.08887293553 0.002878568332 0.4526849639 0.4555635322) 258 508 1
(0.004880593475 0.4975597033 0.4481184044 0.04944129884) 51 101 2
(0.27068964 0.04293338552 0.3217217945 0.36465518) 355 641 2
(0.1116618713 0.06481874178 0.3793503226 0.4441690644) 124 186 2
(0.8042687525 0.06521543838 0.09786562377 0.03265018539) 315 621 2
(0.2861293277 0.2782156527 0.3569353362 0.07871968345) 222 438 2
(0.7072851673 0.0958263948 0.1463574163 0.05053102154) 463 908 1
(0.3195465255 0.3402267373 0.2361973885 0.1040293487) 315 620 2
(0.1995824334 0.3922879494 0.4002087833 0.007920833884) 116 230 2
(0.004187064067 0.497906468 0.2009449975 0.2969614705) 65 126 2
(0.8079455936 0.09602720321 0.0772774644 0.0187497388) 268 470 1
(0.5877469132 0.2061265434 0.0595390822 0.1465874612) 15 1071 2
(0.4692255816 0.1128449997 0.2653872092 0.1525422095) 25 51 2
(0.02840168305 0.4731210336 0.4857991585 0.01267812487) 75 146 1
(0.2053683063 0.322564834 0.3973158469 0.07475101287) 22 42 1
(0.2611106007 0.3694446996 0.140877922 0.2285667777) 114 167 1
(0.01460179673 0.05936729299 0.4333318086 0.4926991016) 133 262 1
(0.2651801403 0.3674099298 0.2382322043 0.1291777255) 460 902 2
(0.8740057425 0.04877181269 0.06299712873 0.01422531604) 164 324 2
(0.3991500185 0.04309773664 0.2573272541 0.3004249908) 291 573 1
(0.3511383113 0.3244308443 0.3011767775 0.02325406681) 97 192 1
(0.4221498641 0.2150459719 0.288925068 0.0738790961) 298 585 1
(0.279918183 0.3600409085 0.2607413021 0.09929960641) 80 156 2
(0.1859357737 0.228437906 0.1785942072 0.4070321131) 421 828 1
(0.3413635788 0.2500676019 0.07925060871 0.3293182106) 233 401 2
(0.09456047317 0.4527197634 0.2295563663 0.2231633971) 358 647 1
(0.5937545851 0.2031227075 0.0598531862 0.1432695213) 259 508 2
(0.09319154955 0.4534042252 0.3520544255 0.1013497997) 340 667 2
(0.1180921138 0.4409539431 0.3107817371 0.130172206) 410 808 1
(0.7601691685 0.1199154158 0.02670388032 0.09321153543) 172 340 1
(0.4733837804 0.2633081098 0.2323185525 0.03098955732) 33 63 2
(0.1531356078 0.4234321961 0.02697335656 0.3964588395) 248 489 1
(0.1101057055 0.2189671656 0.2259799816 0.4449471472) 186 366 1
(0.03895346973 0.2292382863 0.4805232651 0.2512849788) 428 840 1
(0.9236240783 0.03818796087 0.02599648063 0.01219148023) 65 128 2
(0.1493422847 0.4253288577 0.3442281291 0.08110072853) 12 25 1
(0.812210956 0.07936281335 0.01453170865 0.09389452199) 450 827 2
(0.5300494011 0.2303167622 0.004658537213 0.2349752995) 98 135 2
(0.4453198173 0.1245575662 0.2773400913 0.1527825252) 434 852 1
(0.0304612198 0.4847693901 0.1521742114 0.3325951787) 485 946 2
(0.09671649546 0.4516417523 0.2096327115 0.2420090408) 219 432 1
(0.5935800569 0.2032099715 0.03989320314 0.1633167684) 133 263 1
(0.240971802 0.379514099 0.09335884083 0.2861552582) 106 210 1
(0.6036549892 0.141066545 0.0571059604 0.1981725054) 140 218 2
(0.244875989 0.3775620055 0.3358923501 0.04166965536) 145 284 2
(0.2539788232 0.3730105884 0.270946247 0.1020643414) 131 259 1
(0.1572569463 0.1776278368 0.2437436901 0.4213715268) 506 943 2
(0.3048346638 0.3320842273 0.3475826681 0.0154984408) 169 334 2
(0.1346240102 0.4326879949 0.3088059701 0.1238820249) 47 35 1
(0.4299326119 0.1293160207 0.1557176734 0.285033694) 291 573 1
(0.1832452903 0.2622044243 0.1461729306 0.4083773549) 58 57 2
(0.1685703445 0.4157148277 0.3442274287 0.07148739902) 132 261 1
(0.4326793804 0.01240363848 0.2712566713 0.2836603098) 398 783 1
(0.09290897262 0.4535455137 0.4403006934 0.01324482024) 371 728 2
(0.3952430935 0.2096922165 0.3023784532 0.09268623679) 42 84 2
(0.309158049 0.3454209755 0.07337791654 0.2720430589) 306 544 1
(0.1587996511 0.4206001745 0.1075060604 0.3130941141) 159 311 2
(0.3198231734 0.1464442136 0.1936441997 0.3400884133) 228 391 2
(0.3804738887 0.3097630556 0.08785933761 0.221903718) 371 731 1
(0.3550383628 0.3224808186 0.226468442 0.09601237662) 79 98 1
(0.05634496928 0.01387045004 0.4579570653 0.4718275154) 277 545 1
(0.5999426515 0.2000286743 0.07232710856 0.1277015657) 73 86 1
(0.2809363791 0.2795862718 0.3595318105 0.0799455387) 1 3 2
(0.1217406058 0.1667293077 0.2724003895 0.4391296971) 396 779 1
(0.1422027808 0.4288986096 0.1528177907 0.2760808189) 32 5 1
(0.8474929905 0.005123763304 0.07112974146 0.07625350477) 327 644 1
(0.16592283 0.134716535 0.417038585 0.28232205) 70 136 1
(0.2270464963 0.3864767519 0.1312454289 0.2552313229) 376 682 1
(0.676728006 0.05237043201 0.109265565 0.161635997) 165 325 1
(0.1755350551 0.2260704449 0.4122324725 0.1861620275) 304 596 1
(0.1238234338 0.4380882831 0.2770668533 0.1610214298) 138 272 2
(0.1138394818 0.4430802591 0.3547667741 0.08831348496) 499 974 2
(0.008513910852 0.06760662389 0.4957430446 0.4281364207) 319 626 1
(0.3126307722 0.3436846139 0.2881300353 0.05555457856) 106 209 2
(0.2571999871 0.1066524724 0.3714000065 0.264747534) 190 375 2
(0.5731504732 0.1671979268 0.2134247634 0.04622683657) 145 284 1
(0.5397913657 0.2301043172 0.09720470639 0.1328996108) 259 511 1
(0.02057030004 0.2910444869 0.1986703631 0.48971485) 77 94 2
(0.1036030911 0.04187702938 0.4481984544 0.406321425) 54 108 2
(0.3249391598 0.3375304201 0.1708515441 0.166678876) 201 394 2
(0.474294211 0.2628528945 0.2370091987 0.02584369579) 31 61 2
(0.4755099983 0.2580731653 0.004171835577 0.2622450009) 93 183 1
(0.8211314746 0.01364495443 0.07578930826 0.08943426269) 109 215 1
(0.07208499251 0.09938719264 0.4639575037 0.3645703111) 397 782 2
(0.5702420728 0.2148789636 0.05393753362 0.16094143) 115 228 1
(0.6067938392 0.1966030804 0.1079294419 0.08867363844) 172 281 1
(0.0136889192 0.066909735 0.4931555404 0.4262458054) 453 888 1
(0.4491285499 0.1124375529 0.275435725 0.1629981722) 42 84 2
(0.3332315431 0.3333842284 0.298700725 0.0346835034) 110 218 1
(0.06459202873 0.1658497414 0.4677039856 0.3018542442) 48 96 2
(0.6255812311 0.1872093844 0.1655744276 0.02163495681) 271 533 2
(0.3808217535 0.2697720109 0.0398171123 0.3095891232) 168 273 2
(0.5157049612 0.2421475194 0.1595400841 0.08260743532) 63 66 1
(0.6626837317 0.1686581341 0.04292168629 0.1257364478) 98 135 1
(0.5796906583 0.1197506566 0.2101546709 0.09040401425) 405 798 2
(0.3004421327 0.3497789337 0.1559743851 0.1938045486) 163 322 1
(0.150541741 0.4045434602 0.02018566934 0.4247291295) 79 156 1
(0.3629910228 0.3185044886 0.2659224606 0.05258202799) 22 1078 2
(0.09029963309 0.4548501835 0.06634371683 0.3885064666) 273 479 1
(0.02040454867 0.4897977257 0.4310104869 0.05878723873) 133 204 1
(0.3447998807 0.3276000596 0.03208167016 0.2955183895) 88 172 2
(0.2145404204 0.3927297898 0.2686070695 0.1241227202) 460 902 2
(0.9203638837 0.03981805817 0.02289689477 0.0169211634) 111 217 2
(0.583988202 0.208005899 0.1834870849 0.02451881408) 512 994 2
(0.9564166971 0.02179165146 0.01772168654 0.00406996492) 195 326 1
(0.3804985855 0.2856485983 0.02410210894 0.3097507072) 14 28 1
(0.537513592 0.1605062116 0.07073699238 0.231243204) 242 476 1
(0.1069333378 0.44520729 0.001326041103 0.4465333311) 515 961 2
(0.4584013876 0.269579424 0.001219882145 0.2707993062) 225 385 2
(0.3751829546 0.1430897846 0.3124085227 0.1693187382) 300 591 2
(0.03957321851 0.4802133907 0.2457796366 0.2344337542) 159 255 1
(0.1732948813 0.4048100006 0.008542558757 0.4133525593) 61 120 1
(0.4521149403 0.1770286056 0.09691392429 0.2739425298) 134 206 2
(0.39704952 0.02744785604 0.274027384 0.30147524) 284 559 1
(0.4775272935 0.2612363533 0.05983892835 0.2013974249) 353 696 1
(0.5621991786 0.2189004107 0.06068825354 0.1582121571) 197 330 1
(0.5087447946 0.1781350722 0.06749253053 0.2456276027) 258 450 2
(0.1549911025 0.4225044487 0.328677763 0.09382668578) 222 437 2
(0.3293639124 0.2264458961 0.3353180438 0.1088721477) 397 779 1
(0.1779304521 0.411034774 0.2679704427 0.1430643312) 163 322 1
(0.2716243784 0.3034431102 0.3641878108 0.06074470053) 26 50 1
(0.2732664394 0.3633667803 0.2591949921 0.1041717882) 251 492 2
(0.190547153 0.4047264235 0.1961982353 0.2085281882) 84 167 1
(0.07267186877 0.3282701289 0.1353939367 0.4636640656) 39 77 1
(0.4015634914 0.1883425062 0.2992182543 0.1108757481) 187 369 2
(0.1730363974 0.08094465326 0.4134818013 0.332537148) 133 263 2
(0.169938613 0.2662364538 0.1487942397 0.4150306935) 319 628 1
(0.02961549931 0.4851922503 0.1711194089 0.3140728414) 300 532 1
(0.2767120698 0.3616439651 0.3480734971 0.01357046802) 403 791 2
(0.1580121812 0.4209939094 0.02660667605 0.3943872333) 104 203 2
(0.009368903809 0.4953155481 0.3253562622 0.1699592859) 161 259 1
(0.6204754909 0.08193954489 0.1897622546 0.1078227097) 141 276 1
(0.04471440588 0.4776427971 0.4496693036 0.02797349347) 156 249 1
(0.610785926 0.194607037 0.1504235688 0.04418346815) 66 128 2
(0.2400753761 0.01369842219 0.3662638897 0.3799623119) 64 126 1
(0.2225509506 0.3887245247 0.05630713594 0.3324173888) 18 36 2
(0.2451760305 0.3774119848 0.1246491894 0.2527627954) 219 373 1