/*--------------------------------*- C++ -*----------------------------------*\
  =========                 |
  \\      /  F ield         | OpenFOAM: The Open Source CFD Toolbox
   \\    /   O peration     | Website:  https://openfoam.org
    \\  /    A nd           | Version:  7
     \\/     M anipulation  |
\*---------------------------------------------------------------------------*/
FoamFile
{
    version     2.0;
    format      ascii;
    class       vectorField;
    location    "0.001/lagrangian/dsmc";
    object      U;
}
// * * * * * * * * * * * * * * * * * * * * * * * * * * * * * * * * * * * * * //


9390
(
(486.4971808 876.8418067 -553.9941001)
(1428.169009 621.8670507 370.6727823)
(607.9468096 527.6681177 313.0515098)
(1129.694486 -177.8344209 -166.2605732)
(878.4601865 1585.504856 -290.82823)
(765.210618 -430.6100654 338.424829)
(-363.2383493 429.5008591 1036.279229)
(164.3447351 609.8670866 232.1090329)
(1138.291105 -280.4756849 120.1858702)
(1398.046938 901.0858171 658.5520568)
(528.7477287 -115.2326914 -214.5343634)
(-596.7803787 386.6883851 106.0619505)
(657.5467307 276.3216493 230.3117422)
(215.1125112 444.8943452 -66.21102491)
(284.1220243 -20.12875634 -275.1280647)
(1020.150786 58.58216668 510.0499669)
(-203.4266322 -135.5865606 1026.8193)
(66.89652744 151.3574038 1325.74033)
(753.7419537 -56.19486379 -24.8236195)
(-235.7259542 648.3956135 -212.9034981)
(443.348549 1125.084675 567.3879709)
(-249.5278079 370.1721672 212.9009655)
(744.9851089 -657.4977854 403.0979259)
(725.3353331 552.3210844 -538.856586)
(753.5657684 573.5289611 210.2687595)
(1120.483952 9.032585823 -435.5298599)
(1242.558928 961.4023841 -746.216722)
(-438.2526406 152.5384914 -754.4986057)
(98.53657357 844.1115983 173.9282439)
(215.8575984 -418.4799665 358.4663313)
(-407.3633828 727.5620803 309.627438)
(1066.635439 1133.325012 690.9589697)
(1355.245282 -4.96356788 -359.7733227)
(273.3518031 -182.1502499 -780.7934017)
(1446.000594 -231.7968835 -98.76629097)
(-228.7139237 477.4167516 -893.9211568)
(1672.481646 1410.522979 160.2735959)
(1313.60131 -296.0437006 -249.062441)
(946.311783 75.45217745 307.9541078)
(505.8977859 343.1696382 387.8596251)
(-8.297837093 55.86957907 65.81236737)
(633.7088068 955.0663344 219.6382159)
(1721.636771 -68.8402599 571.3821413)
(230.3038014 147.4593911 -507.9372747)
(315.8506192 607.1866302 476.8346652)
(426.0029396 414.7994097 475.3321862)
(480.9837221 -7.908329477 -1116.978031)
(802.6026459 -444.4347053 -226.1083195)
(979.6278114 499.1254775 -561.1632133)
(1319.701251 1116.150794 -467.7499546)
(1215.749036 755.699956 230.90516)
(431.9526984 -99.13968459 2.237128607)
(-164.142999 994.8683646 112.4161871)
(486.8683453 -55.42521026 65.65761937)
(602.6527037 975.3979568 440.1101969)
(764.8664304 995.6273263 95.76203877)
(183.7471929 -660.6307265 19.13156983)
(2027.257371 665.7650615 -407.6176902)
(97.32425957 680.7433634 504.5713026)
(170.1061889 -48.57898861 -1005.691327)
(442.3692233 1186.954368 187.085715)
(896.4039072 741.0611924 -36.09207564)
(478.369037 235.6444746 21.06411487)
(482.0925312 162.9576303 -303.1926699)
(706.7643803 721.0156677 -218.235771)
(-114.7717142 749.0098861 515.8949982)
(740.7941639 915.7056019 -270.9812003)
(69.78399403 97.10366758 190.7267933)
(75.0381637 -797.0307101 -9.269147324)
(78.62127485 11.31961174 144.3177833)
(471.7197138 424.4506388 217.1214082)
(-97.56056276 370.7568877 622.7742626)
(570.7447635 -142.1911155 480.4425703)
(499.8395999 154.0963011 110.2984393)
(1041.536107 653.6860887 -346.188951)
(496.6525281 -44.86794704 406.5745052)
(-41.75056564 5.838965239 -785.7434273)
(33.18918439 214.7637979 94.28774667)
(444.5973819 996.3266083 984.564533)
(1428.012296 -584.5917827 -689.9254118)
(1557.584165 -210.6096431 -373.4761303)
(615.2327672 295.0020697 734.9619138)
(472.8735239 -250.9518255 -1027.878917)
(1933.91917 154.0381903 -605.3278714)
(466.1690716 705.7790712 -82.17252308)
(104.9070443 259.7390037 179.9752675)
(177.6340537 489.5265173 691.9614611)
(79.97143001 453.5122194 316.9874816)
(943.6515138 -1074.947374 -1169.844478)
(1157.242622 1070.541371 1165.996722)
(-695.0685928 1175.13127 -483.3269076)
(647.7885751 311.6728753 -395.8287478)
(331.8438301 1048.943386 553.2461647)
(-13.46113763 399.741424 -681.9496883)
(-879.2474659 -121.3725507 -449.0705049)
(1430.013533 802.9974882 -178.0471982)
(731.8597381 621.9679608 114.1738808)
(459.5962354 318.7651125 803.942946)
(321.015473 480.0494031 -21.71773052)
(335.8792174 -34.85341476 1042.636802)
(1644.364319 899.7204012 -7.327165551)
(-464.1637962 372.6156081 -38.37298646)
(743.8007166 -464.8696342 -368.6461413)
(804.4006624 776.4088926 166.4558598)
(977.657851 -32.02588152 310.4687012)
(44.1323497 -777.0866411 128.6843552)
(466.1051341 73.591186 125.9159895)
(165.687418 -142.2537771 494.0740089)
(1948.437806 183.6682417 368.6570554)
(697.0231401 1083.593978 1305.701565)
(644.4897692 -39.94845399 -598.1343758)
(74.80863792 -367.2670199 -212.68788)
(61.77965627 -13.76120384 -534.2368606)
(626.1815677 -476.7161294 81.6083975)
(682.6490419 -13.92893168 -147.2191782)
(137.524299 360.7492109 -146.4837115)
(384.6854118 750.4067139 -61.17718113)
(373.0296937 -245.8439913 8.009666053)
(708.3612538 783.0691492 60.81385913)
(575.8158678 367.3785343 339.3876337)
(1377.932771 397.0922012 30.31781564)
(1692.955898 190.11092 -111.1227447)
(-302.1659277 259.0947165 408.5629984)
(21.36299459 372.2801378 171.750428)
(1577.755992 903.5394863 37.4250965)
(335.873001 -482.7366533 559.1552128)
(-690.2861289 905.221913 -472.7709749)
(1250.350001 295.5266862 -381.1375832)
(437.8411854 182.5885038 -347.0266696)
(400.9900346 -115.0521388 456.0247228)
(1423.412912 -130.9411862 -432.7465592)
(226.031293 -219.9933288 129.6444959)
(-412.6802712 1392.270547 -338.6571443)
(579.4501985 -638.7650731 784.3957641)
(-182.2977659 220.8220555 729.2950244)
(853.1569176 -126.2354061 930.6301543)
(933.6315074 43.74367216 -1126.612898)
(262.2939977 -470.2076941 -238.5214778)
(382.0710959 1077.203986 -402.7489823)
(-339.3629278 629.6713481 79.4107048)
(761.0174726 260.0809602 -283.958535)
(928.1768295 773.4275917 124.4541337)
(634.8219263 1149.216966 -569.8508028)
(1129.449799 381.2639981 -333.5124174)
(984.3613677 538.4840039 305.5692403)
(663.2034877 887.7638092 -275.6661911)
(-201.7467138 522.3429568 -177.7113248)
(1070.906134 282.6648786 128.0598143)
(1646.656086 213.6554575 117.0407166)
(1166.5375 -348.3563829 28.66654461)
(389.4972382 75.64812435 -480.4699874)
(120.5910874 -154.2949506 -690.5512801)
(709.6432605 420.1626171 -132.6836674)
(901.5476374 -514.4736186 348.8432661)
(273.1235071 -604.7007229 -623.228436)
(-308.2604918 -22.45692839 -476.3078094)
(781.6327779 486.15918 706.1424609)
(1107.498901 425.2175903 304.6660022)
(119.1215396 1065.129614 -176.4330123)
(788.9618259 -481.9218077 61.13953248)
(-296.1805027 230.6425105 491.2047656)
(304.5459039 -331.287596 409.8822175)
(-264.697011 268.5356872 292.068802)
(1033.075922 492.7498275 -654.4920376)
(1547.157884 1398.634071 -437.8256991)
(141.5037127 353.1853763 -547.3326939)
(205.3849997 504.9541912 -417.6877155)
(1106.63205 559.7836709 636.3164862)
(814.1519434 -266.7790186 -1237.278072)
(1148.671386 904.1221011 359.2841938)
(915.1332533 503.1230021 -432.1731675)
(225.2982654 607.9652088 249.4962753)
(739.6307983 342.2299398 1238.725071)
(1214.770573 171.1589209 -632.1823346)
(89.15008747 95.5060779 174.2875322)
(1632.235489 329.50507 -3.177760983)
(655.1341537 -143.139829 281.6302969)
(951.4800301 260.1926609 140.6417968)
(1361.31634 -391.0135188 324.2481209)
(-304.4424005 108.0887702 -322.0790438)
(-172.3749373 629.3118602 -99.81976017)
(-843.7303237 -173.3491188 -145.0149815)
(1350.965648 845.4577854 -484.8486748)
(1311.38053 482.5414541 705.835231)
(1169.167074 957.5250814 637.8772654)
(564.9744469 -459.5269364 -496.6589725)
(540.5662584 803.3816038 -6.289643922)
(913.7474239 601.1764707 1158.619559)
(1100.215127 -150.1414453 -62.84958258)
(1232.35462 -373.8835931 533.5315046)
(444.8161787 52.48377435 -471.2643368)
(1133.501186 798.5052258 190.4510077)
(212.6753054 276.2927023 128.455652)
(643.2012871 -610.7891248 403.1666531)
(498.070408 -489.482089 -412.9162823)
(889.1251868 208.2119159 -292.7981192)
(1413.182669 978.0223581 180.5308686)
(-1023.619127 944.5512303 273.8993431)
(1717.375752 -411.8964292 136.1191501)
(903.5427156 143.0163541 -330.9510716)
(-163.4058639 772.3741015 171.9615446)
(195.440432 465.0480213 250.1923774)
(1081.400574 246.0886498 844.3385635)
(1461.429198 -564.1022231 -875.0340588)
(182.6933177 961.1934055 177.869762)
(1234.898776 225.1407966 -197.9397129)
(805.1082389 384.0071259 -555.055721)
(1438.231156 67.03170269 -87.02104445)
(1871.613774 121.0127734 92.88885707)
(984.2665711 166.7175637 -166.9092462)
(1035.149829 206.7842703 225.2127531)
(725.2984454 51.27611539 -342.8313766)
(698.6583746 -307.4622395 1332.827099)
(226.846725 1093.205002 25.61155783)
(904.9387964 142.1231472 -515.5625724)
(831.3622566 1179.334965 -405.218941)
(-141.3583841 206.4570066 -366.9513717)
(734.4997322 -374.3135912 191.8773613)
(-68.78558381 -364.1757801 -139.4317391)
(124.5065918 110.3222794 107.2678989)
(-47.81128317 -4.175725966 -591.3724128)
(-238.5479781 82.32432147 629.2369852)
(107.4059664 841.4299437 319.7069826)
(-299.0527878 571.676751 -68.75219427)
(811.3690331 263.9737112 -870.4927722)
(-289.2408657 -33.7596386 422.8793185)
(696.0142076 853.7478299 178.3490243)
(703.0253967 340.5043316 424.019132)
(470.7836921 348.2247715 40.5995252)
(109.7321141 756.6512962 -224.2651156)
(185.8645969 -71.15349458 -536.4102777)
(541.9429768 178.9951417 -347.5334854)
(1098.026237 114.783102 683.5348684)
(1138.386661 136.6473528 888.6656885)
(1052.9096 -314.3622636 -948.5389661)
(1100.176316 168.4957453 56.3224445)
(167.2435678 -290.7216929 -125.4585057)
(1396.891938 498.2209086 -907.0412973)
(1778.625636 426.3459 355.6105886)
(941.2513655 -458.0681549 365.2156905)
(1774.886715 -118.6004495 105.7043399)
(1705.24436 290.4369864 -212.1742205)
(1105.675059 -2.1441051 1018.959128)
(906.1467971 15.5220568 92.22220609)
(-257.5439912 204.9574778 290.0758195)
(790.3983689 220.6122542 267.2619634)
(369.5161794 146.1865218 -356.2514965)
(1257.810658 -691.895897 -583.7737463)
(1155.372821 -539.683468 224.5305163)
(302.6769174 -19.41873846 255.1091355)
(1240.776895 48.4397716 166.9578366)
(941.8584183 -76.81941463 -521.1596671)
(1131.757945 -584.1622894 -1164.521305)
(475.2900451 433.9586262 -751.0233527)
(140.13836 849.3979657 304.1176508)
(543.4136252 636.5449531 855.7012184)
(-23.39343587 200.3015121 1122.918526)
(397.0325118 287.935435 337.167076)
(325.4817804 4.517449328 -26.85787956)
(688.7646251 320.2289132 -8.715913269)
(1139.38782 -650.8988085 -342.8319325)
(1547.716273 1001.504257 -46.82606786)
(954.2072554 1062.942713 7.83815851)
(521.3536413 262.8012 -552.6555041)
(1206.469844 26.45153054 -631.7844361)
(548.6109398 543.7796228 -518.6442877)
(886.2634491 -408.6462009 131.8411038)
(287.5931859 310.3543115 -378.9659742)
(-631.8781113 -679.929409 561.4264231)
(-158.2072606 321.0365183 427.4293498)
(385.8667103 -109.4848868 -717.7251178)
(1774.700055 384.9775929 657.9500714)
(686.7882092 357.2196172 -164.3181241)
(350.7054036 311.198923 429.627483)
(1155.671493 1011.960249 197.6182095)
(1062.624846 441.4611104 -721.6690229)
(658.3235642 -912.8608311 316.1729551)
(607.6421462 499.2489349 1176.865769)
(352.0068467 29.62899966 694.5537335)
(898.146098 -525.428858 -463.2379996)
(1803.03308 -18.21040277 -153.9718309)
(622.3216088 32.05109615 -167.9417169)
(-396.279414 461.1543445 -785.0466774)
(730.1351512 -531.0762508 -89.84296651)
(1539.702362 -622.2236078 -192.0019991)
(501.3923817 -145.6908243 -830.3443563)
(796.468211 265.827341 -284.8601701)
(501.5892354 670.7455897 49.33232844)
(-215.6664852 117.0750877 -563.8706848)
(1690.504455 471.5203275 -52.80859557)
(-140.9703987 544.1117547 290.5193798)
(613.3568222 336.2177663 231.2813107)
(610.6565659 -1089.218223 250.1404489)
(694.719493 411.4929457 75.61729323)
(93.25551108 478.5812635 -391.894646)
(-142.7266789 502.1433082 -373.9330194)
(186.0580512 601.6464493 299.0290714)
(1151.606861 -171.7354773 312.5226519)
(778.942704 1365.254979 -527.073368)
(610.1991496 442.0934332 -466.5345034)
(513.4843634 763.8457701 -628.1901706)
(-87.48744792 81.29170524 -560.864746)
(542.6670954 1043.219256 -820.4584423)
(1319.30858 21.24970345 199.2673902)
(637.3106862 595.8087247 -325.4149502)
(-490.1621326 -292.4291089 197.8878249)
(782.737258 367.3204539 650.374326)
(-4.19654178 -387.8234718 -1109.695862)
(388.7423913 -102.3217666 444.6407805)
(683.4114704 -350.1627787 272.1846371)
(627.0103522 -99.53076619 655.8726487)
(314.1849886 116.0396756 602.4740151)
(1939.913911 -510.0120885 -138.1757495)
(861.7741508 -227.11368 474.9302119)
(2112.540487 425.0876285 -110.6382201)
(375.3697196 555.3720485 -385.6355232)
(-207.4025448 -136.5441711 243.8852117)
(941.1606626 533.9780385 574.4667174)
(1389.718029 397.4435135 368.7903434)
(-118.3106745 1486.434567 342.2970113)
(526.7055438 30.97025068 387.7911277)
(129.0715918 639.1579082 230.5620057)
(583.4112165 -795.3142059 1304.671181)
(1053.970099 1540.119674 -20.85125987)
(-35.4715609 248.333628 -152.6670202)
(912.108184 -403.8074619 769.6914619)
(382.512017 808.3171009 -760.137101)
(-274.7470905 -24.2899708 -84.17165681)
(-217.898452 716.2114539 646.4540897)
(637.7978563 -190.8494032 -399.9893815)
(615.1473417 726.2817558 241.4583654)
(1015.75977 -366.263493 -333.7907045)
(1334.239761 -696.0967996 445.0330735)
(675.002002 502.6233233 -253.9300008)
(-565.5842589 -457.7108112 84.72877965)
(174.1152236 492.0700911 197.3881232)
(465.5288988 545.3995516 327.5939381)
(-589.3548127 358.1839695 -181.2409115)
(804.0930989 -305.4668249 -256.9984049)
(1563.231943 884.9290475 -34.02438836)
(796.7605807 -249.1547927 -488.8369927)
(706.5688634 88.97349398 120.8041384)
(557.5514591 354.9231063 248.1931303)
(1617.09148 978.3000459 171.8880867)
(788.3377063 -603.1790957 7.510676332)
(399.4168894 205.2821777 -1254.875781)
(-27.60322652 -63.18932318 77.48731467)
(295.4394577 811.9162225 -80.88759029)
(-50.25355896 -95.71708159 810.1627008)
(854.7082778 119.5855845 78.85682336)
(473.0465815 -63.04240949 406.0040353)
(352.9721948 488.9846739 56.71544111)
(294.9555756 762.7753528 183.2278434)
(154.8533712 755.0814556 175.5038265)
(670.2295843 25.45889047 -252.9497466)
(-152.8582342 372.1241202 -347.4639542)
(195.342594 1192.800306 31.24970575)
(72.82328011 -64.57055546 -394.8223231)
(850.6629631 -281.046949 432.5681876)
(1714.983216 -263.8844305 376.9652876)
(295.1445612 -209.1166004 -213.2373634)
(830.5361986 588.267277 837.1004619)
(205.8110898 -294.9084311 -123.5561668)
(1986.410844 -66.61614229 97.55592402)
(694.557729 -265.6996379 -143.9584763)
(87.63459675 242.2024331 -462.2419447)
(239.427098 13.69510932 738.7771904)
(1019.300734 -281.9632027 45.16718835)
(737.3051458 1178.954191 -177.650205)
(1099.355527 -369.1971245 -68.82666001)
(-18.56382863 520.8881169 509.2088794)
(947.3599083 59.72951616 34.30513406)
(-53.29099182 -267.4104931 -313.0540589)
(-458.5587043 -238.5357223 -503.4620853)
(-410.2632723 863.8702668 533.1903272)
(454.8364093 601.892627 -37.52781009)
(503.3032196 836.4236408 544.338454)
(343.7918634 -281.4847512 -825.9823157)
(35.54638629 60.18801165 16.17544246)
(2551.829153 722.8125187 -459.846235)
(2175.206135 262.8051797 -374.1929465)
(416.0226459 -51.51016068 620.647942)
(-118.5745583 452.0537354 411.4952335)
(754.511405 89.72264595 -101.1839231)
(-84.80825705 407.4168274 -296.1845552)
(1243.197739 396.1548945 -281.5006093)
(1252.22671 216.6573641 -539.9046846)
(-625.886967 509.1355048 518.5894756)
(1123.890971 -42.49223241 -870.8268587)
(18.79992733 262.8858529 -684.2005858)
(443.6147055 797.9123713 410.7068365)
(1216.840308 -200.3069229 230.8756464)
(329.5228689 126.6578376 192.7889849)
(-20.17841688 470.333513 338.0848577)
(989.3103775 476.9905891 -199.6601129)
(619.2869886 1529.966477 -153.0581455)
(275.9976432 511.5998158 -59.60166567)
(564.0075934 101.2805277 29.32132157)
(821.8551139 1060.445385 487.4704844)
(253.9608499 -130.6532474 540.2992335)
(923.0547501 533.275559 -567.7673523)
(-355.3048875 -159.3929591 -201.7452442)
(658.7403604 -55.14306398 -294.8958701)
(414.971774 226.9918883 604.2406202)
(907.8040468 618.1800817 498.4515146)
(899.853264 565.7427005 -330.0179689)
(1113.74773 22.84533484 346.5548499)
(477.2158824 218.5992411 -157.3202045)
(1859.156614 267.7939989 12.47802566)
(64.35203136 36.07051247 -435.5749428)
(1152.895983 293.5379169 -610.9171639)
(194.8356628 739.884556 339.3186752)
(437.5307311 76.64032035 -282.6415176)
(1296.473744 300.3960896 -252.5682274)
(-573.9044795 271.2712492 -396.0617637)
(211.7239037 -380.4227429 -136.4238218)
(148.2325639 454.73051 -941.5067632)
(1502.138692 38.77011868 -156.526019)
(1158.431284 301.9067744 -930.7077864)
(1827.589192 523.7951313 -266.5364425)
(1787.976571 840.3601972 226.6212378)
(1187.598964 614.5067715 -768.6308843)
(552.9798445 -264.9940999 1158.635319)
(1462.886117 550.2039982 511.9271322)
(-396.7482025 -362.2647032 463.9484969)
(668.6345131 229.834099 521.0089385)
(-113.0013047 403.6845238 -432.725114)
(638.8592044 1337.257798 -330.374214)
(700.3868677 943.7270291 -21.62392872)
(980.3061817 871.4015404 -389.4144212)
(-129.0271512 174.187272 187.4503302)
(1020.018538 398.5169782 -359.6041614)
(1033.306869 -238.8177433 346.7647861)
(-432.9559921 582.5718699 -242.1075603)
(1550.181567 -406.0024449 -585.68087)
(1197.729018 1251.34762 767.0714517)
(941.0949157 447.6996172 -585.0599917)
(-108.6733325 678.1905961 -126.1208574)
(-124.3304343 587.8605818 848.7560243)
(868.9971232 164.2587635 86.44526618)
(-426.0299518 -48.46533882 -484.0263996)
(-42.58614808 201.5915219 412.2303589)
(1255.685488 1408.591052 -96.05189535)
(763.5811371 674.8694557 142.3016544)
(437.8308836 -231.9890185 48.4489142)
(1149.859605 -93.23948284 -401.0000347)
(1434.282725 304.7221652 496.555855)
(873.1431654 877.6441867 27.77962728)
(833.341404 704.9156746 -161.3012753)
(2442.447571 563.5740863 289.6266941)
(1209.301321 474.6567002 -98.78966641)
(401.8528799 1071.982842 58.84293222)
(14.17553125 -183.4219665 -75.83925165)
(-89.91932202 154.7284469 -174.5798508)
(576.6861541 -311.0168991 483.4338273)
(278.944649 376.9965305 -32.57093206)
(956.0785203 -412.2715283 366.9397249)
(936.5802447 787.4627891 -453.98368)
(421.5385152 414.9782063 -163.2100477)
(1488.747336 707.9869624 -249.5113015)
(342.3761978 812.946995 -24.39506657)
(-746.6350795 -558.1119773 345.0315694)
(1062.984649 -591.6643741 211.557521)
(1349.218733 65.26163414 129.6568735)
(702.2656627 -46.49600405 -637.6701672)
(1066.673365 -57.93560013 -1005.461894)
(2292.804062 612.5191691 -1299.71863)
(-460.6647004 -570.3323785 -704.9056283)
(730.3032011 1071.729167 -166.2874696)
(-283.4130928 388.4393326 385.9519001)
(-187.0308906 659.9330331 -297.6534355)
(689.9548789 1019.550161 -455.22246)
(764.3183966 -4.729864399 -347.5404977)
(905.464734 -100.4546733 196.7067411)
(1096.152177 836.301555 -38.73576573)
(553.4889024 130.224695 -228.3617568)
(-17.02156791 -190.4738921 334.5486206)
(1372.736211 472.8040449 -219.6504425)
(874.8147497 740.9686759 1103.266879)
(216.9676478 281.5699276 74.9215296)
(-134.3467828 -1563.315111 -259.010659)
(-402.570286 -18.70008587 263.9373358)
(-670.609546 1010.032788 160.1419239)
(753.3203011 103.332845 -476.325986)
(815.4360721 1049.346098 -132.63942)
(1973.843508 740.932808 -80.11107772)
(320.8140518 -70.71845307 -28.59817011)
(1010.473751 556.0487541 1050.140433)
(1630.919366 289.6321794 87.87107274)
(755.8875144 416.3799053 760.4287212)
(1358.069383 33.38997488 -432.2997638)
(1441.467754 662.9684445 148.4047153)
(526.6141633 -90.17171673 386.3415309)
(-216.5108381 361.6519328 151.2276827)
(-205.8844123 -183.7300197 -530.5894721)
(1226.061768 177.2597007 555.0759448)
(281.7857593 -144.3762225 -639.7466236)
(316.4527703 1310.215889 150.2406509)
(315.1240104 -50.21354268 -130.5867535)
(-105.2339572 359.1811076 -693.8834576)
(433.6110838 694.5751114 1012.003665)
(1034.967225 -472.709234 -574.9891846)
(987.1871366 -239.1240658 -260.5677321)
(1381.95947 552.568129 -56.13039547)
(1301.896077 843.4357006 294.8076137)
(393.6090349 882.2138038 -338.4610582)
(268.7379425 -90.31562326 94.92606672)
(514.5287784 -425.1838122 -861.2410681)
(1013.931056 -428.8752672 -490.461409)
(1230.537156 584.878231 -545.9840161)
(1188.526178 674.4146405 555.9650476)
(961.6526728 315.6321287 -292.435774)
(471.0373787 -708.5803015 -11.63845322)
(1378.917808 246.8420902 562.949853)
(122.9580896 -495.644237 70.49294448)
(763.2570171 456.9541702 211.3085491)
(966.0475271 -100.9225233 98.45895823)
(413.3036362 38.81780533 -534.7456982)
(1266.746792 -270.3401908 -164.46309)
(113.7742506 1105.322678 383.0992341)
(-195.2059199 176.7119802 5.198676579)
(-117.94287 413.4744559 138.1217227)
(-248.8982268 402.3125575 -417.1741816)
(1172.578872 -692.0829569 -430.3671142)
(131.1237057 88.09922901 -866.7193211)
(107.1142448 398.1887862 -302.7247191)
(575.9071959 -182.3641344 639.1683854)
(78.34562507 802.5960847 384.0523429)
(876.7198979 -89.06030777 -65.88191587)
(-454.6756304 1484.935176 859.2423833)
(290.1420595 935.4383226 -263.0450079)
(1405.651992 582.8836374 60.40522152)
(-64.24205885 880.8250604 -129.5706262)
(-7.183673596 -131.811512 137.0031959)
(559.8492223 1008.954937 715.4943761)
(162.8034016 701.5462191 -67.93301537)
(277.9434187 221.0869029 -1106.182599)
(734.6417804 175.8720677 331.4224125)
(703.291601 519.2368966 93.23191007)
(1012.774671 -249.8852132 900.2506439)
(591.5340946 322.5943343 189.1270886)
(941.5749909 245.8918251 -1105.17847)
(1561.634334 683.4193339 -432.7084325)
(436.5544819 -245.1017135 -69.61724157)
(185.9691696 597.2148336 -61.67266894)
(-330.3837208 67.59065259 -612.5363052)
(1621.789589 1206.711455 815.2229761)
(725.5051147 -256.333777 180.114161)
(654.2953373 1263.666686 710.2691298)
(1512.26683 -394.3114338 0.9210217645)
(1223.611714 43.20560573 733.148425)
(702.8524252 193.0600444 -281.9930288)
(662.5663832 -627.4290535 -82.13313914)
(1280.103872 508.0316744 -391.5092311)
(1601.704422 775.6837989 62.51942231)
(328.351503 416.9590968 480.5106814)
(896.285115 777.0837424 215.6194027)
(439.347256 525.8595772 -454.7898856)
(-904.836068 322.4710377 54.49308075)
(82.31880006 458.7770455 -99.57034182)
(1882.608155 846.4812949 -99.54110447)
(-559.6121303 167.8474316 249.3156168)
(883.4048595 -100.0558228 349.3240183)
(206.4553898 772.0297243 637.7048545)
(794.7193414 19.3443553 -110.4517481)
(413.0055461 587.379489 187.4157588)
(138.1102627 399.6478755 -924.9904953)
(802.9559693 -226.3318374 273.7655182)
(1058.890446 807.6416727 20.88657365)
(1147.552369 383.6300607 -1020.860331)
(1059.438095 291.9145149 -273.4652806)
(1008.73627 130.5952938 -1120.793388)
(39.31724136 -47.90612252 -405.7927834)
(388.2348457 475.1833689 382.0363957)
(1680.519018 690.0703848 -525.4127375)
(1203.949247 23.42798883 -755.5260407)
(-74.70582004 -292.8647054 -27.86242436)
(265.6638599 1118.893487 93.44532728)
(728.6878544 284.2468651 244.4287501)
(437.2504111 -960.1683593 -396.4327369)
(583.6827222 681.0265923 39.1088105)
(-616.0699031 -8.315297296 180.9166795)
(214.900921 -119.8081225 400.4748069)
(65.71644006 1123.144811 -637.4978379)
(548.2387497 634.630613 -508.9705985)
(447.9848894 107.0587837 552.9622763)
(967.764555 545.8685098 -648.69113)
(-569.9452642 564.9065699 400.6735916)
(421.1661041 605.9876401 412.0762307)
(717.4164099 219.927065 403.344662)
(73.44074982 614.9812168 591.2097919)
(-157.8043465 51.76111029 -312.0906495)
(808.702052 -301.4872554 -138.0587825)
(609.4411028 776.6917819 -394.1524924)
(820.0501936 354.8638605 -149.7120318)
(913.676318 841.0801122 497.8219958)
(1520.883894 -551.5400201 -499.8655088)
(825.880866 412.4651187 114.0776731)
(515.8591459 520.126012 -131.3013204)
(1234.929682 952.4807409 -556.9959555)
(-92.93675958 -47.06220037 -346.5277685)
(-242.6779437 -571.4689216 133.5650053)
(741.6618408 46.10068302 861.8028084)
(949.6211638 432.7441849 45.32578789)
(-105.0528923 298.606475 -522.5938905)
(404.6072048 481.2957362 -225.444941)
(254.3250351 604.1613032 -677.6317742)
(76.25830824 176.3437341 -887.0725141)
(106.8087383 73.9325321 84.91805179)
(1001.237037 384.6877059 -188.1760331)
(212.4788356 371.6632083 -582.8115012)
(-77.64674979 -1384.887058 -452.4979639)
(460.9683838 1447.046479 1029.730083)
(601.578124 261.196026 426.0621203)
(317.2149321 53.52100098 418.1101065)
(1504.876288 -1120.166601 676.7995937)
(798.2321528 399.1744044 406.1097936)
(433.1318301 299.2385372 777.6774241)
(360.6057634 735.9358612 732.6775964)
(-137.9480794 94.13497414 -966.9357675)
(861.978627 -683.1301554 -615.5627923)
(255.5444685 27.72427202 78.44130677)
(-226.1163554 277.657658 -190.0232684)
(963.9004712 -178.7988645 392.0410922)
(-191.637371 203.1882758 191.7768814)
(190.5952986 -316.6486722 -591.9734576)
(796.4304678 -124.4025709 -465.1394784)
(-429.1399051 1.843109664 -232.5254971)
(-472.6386191 14.04171143 185.4335796)
(391.5424092 420.7458269 -110.3219008)
(390.5989615 380.7951465 442.1237024)
(558.1283889 193.7317011 -2.368777696)
(730.9900505 333.4084746 11.80056376)
(515.4655667 320.8022089 355.4157385)
(955.5314284 -528.0669618 181.0659904)
(669.0767521 1092.877392 -282.5068223)
(446.9429477 142.3447166 318.6635976)
(221.5556452 365.1348108 -660.83203)
(2011.943191 297.3128899 425.8614722)
(-585.0211241 -105.9560884 849.0772909)
(770.7684262 403.6209882 727.0663696)
(867.9769236 131.3360636 -274.8391682)
(-86.33023021 -71.62685962 820.7833626)
(1742.079466 320.3038804 -454.3561372)
(1453.446053 438.0690055 -438.7029722)
(916.2628694 122.4699939 -388.7702344)
(575.5219792 -295.6208729 -456.658882)
(168.7920994 949.339774 -803.9398018)
(6.905142742 -813.7279981 187.6187664)
(-133.7512246 344.639567 1209.096899)
(556.7754656 609.0433942 -165.5675261)
(255.681152 255.2303577 600.1715474)
(403.648081 45.50604234 696.4967541)
(523.0926356 85.65116219 73.17537309)
(309.5234705 532.7557809 -18.11087986)
(372.8151568 124.3093231 142.0493497)
(-469.8908135 371.6485867 671.4517077)
(134.8667223 542.0635277 -200.5227153)
(1093.818952 87.55073968 151.5355)
(400.3727672 731.7215574 -140.6940386)
(225.2684693 462.0397836 -314.1174632)
(864.5687003 976.9160893 -451.4821824)
(760.6734386 -313.4188247 156.4095822)
(1173.642158 -648.8990234 10.38880746)
(897.7232935 826.8176926 -604.9677529)
(806.9464541 830.8720322 572.2757959)
(677.2867435 -96.68613652 -460.2268468)
(221.7003413 19.86478758 -213.3338721)
(99.16150575 532.5169564 -256.1822905)
(136.9838731 191.7299919 366.2382347)
(457.8753523 147.1984627 -167.306222)
(689.3397397 542.5819741 -486.712734)
(320.946192 -156.6315374 -1462.908937)
(1186.277992 812.9136951 213.0862393)
(91.696213 355.1311243 280.7886974)
(988.0016622 265.4138187 -1079.004858)
(559.7360289 804.2552857 276.7532091)
(1191.274779 118.2086992 -117.9118711)
(2038.37829 446.581657 267.8666198)
(335.4077559 527.3481575 -221.3591383)
(327.0957806 -49.9363393 -125.2009693)
(880.1996277 926.5206886 -650.0986083)
(-353.4090315 747.4869497 -176.9016819)
(188.0699565 667.3484998 -151.1757949)
(1180.278388 664.0878307 477.4315265)
(-123.8711513 332.6257786 -309.0807869)
(1622.024558 766.3931727 -1236.079722)
(302.3442032 18.58584206 361.5373266)
(-34.88684526 692.4181791 -988.3202952)
(-443.1063278 1003.004716 -311.9708225)
(799.9466181 745.6159683 266.628524)
(-5.888543044 -122.7644849 -1005.751172)
(764.1039893 972.7611351 -276.9843364)
(969.1012091 467.2069561 -23.62659293)
(970.05371 625.0896537 -279.6605644)
(236.5006748 -48.3073854 195.9633819)
(207.9252905 712.0854072 387.5389152)
(599.9373602 -47.67149304 -414.8188836)
(554.47556 848.4004427 -885.6005612)
(23.9828478 94.79950685 -171.6731143)
(-295.2710256 405.1839166 -232.4962373)
(1096.267414 -255.6298438 -1055.042453)
(309.5586159 655.8053472 531.6565511)
(395.3533227 381.4208065 -333.8187458)
(-293.4525728 822.3706712 192.2137413)
(925.4439955 871.0061383 -294.4247106)
(1449.574374 -175.2175827 546.7187947)
(-708.7897764 -659.064312 -61.40173588)
(-680.3791583 1319.223617 215.0772122)
(-120.565297 42.96755554 82.24291744)
(996.0324177 490.1750349 23.83325825)
(1451.263729 -712.7351236 586.6498067)
(1027.168738 821.4666073 -514.6595695)
(723.1907139 -704.5330279 -147.0367902)
(-483.1594494 335.8041578 385.4248315)
(378.4138311 730.1698228 799.6398339)
(67.9673104 412.2707619 -203.661429)
(728.5695263 406.6466062 199.0014792)
(332.6990764 286.3310776 615.567605)
(569.6703842 77.34023024 -19.94533466)
(699.0353422 -1184.860375 -46.99847094)
(496.4918165 -140.7027134 86.81871379)
(1825.9117 322.4989328 -601.5080853)
(585.3077974 -439.3081595 156.6355368)
(366.0324884 -184.0870615 163.1974435)
(136.9981558 194.891848 2.180442803)
(142.3809152 -515.3606744 -504.3260006)
(1156.887816 562.6212715 141.1566694)
(347.3768009 252.0846885 13.36776461)
(-104.7983634 -356.6826625 792.1269546)
(1230.061379 568.8425357 1030.254641)
(1532.091944 79.17384306 -127.5563236)
(1458.817095 846.9683255 -644.0661802)
(1178.864828 -607.4233525 -32.44889756)
(-511.240285 920.0233154 654.2500173)
(11.55461635 35.01033024 172.3371153)
(471.1678643 34.14798786 126.907355)
(-132.2458426 -390.4793066 -8.388600196)
(261.1919039 519.9829623 93.52731062)
(1042.219207 925.013413 -238.0698957)
(1035.530278 427.1430025 178.020951)
(2128.03157 -230.5726176 226.7109795)
(-231.8323625 544.8991028 836.9296541)
(167.1089698 233.5632658 -830.8113965)
(-160.7964003 174.8573421 173.3217815)
(612.3930016 -130.9662983 322.191676)
(694.8978543 686.5026251 714.2719273)
(-59.99323288 395.2264629 -41.47892925)
(-115.153469 586.17017 -323.341088)
(473.3677538 105.4149949 363.5976025)
(-367.1595807 -78.28205514 -1003.247535)
(310.7537798 23.48052952 73.38412031)
(-419.5310013 278.1766026 587.7208768)
(815.2800033 174.2771995 495.6909385)
(895.6752481 -292.7331157 858.7931678)
(800.7696718 769.4286004 -1458.612855)
(711.8770362 663.3780197 -583.0974671)
(-207.5390988 1417.213818 352.4507681)
(1277.250172 -233.920819 -158.9082563)
(717.0792973 -0.003422325221 333.9002207)