/*--------------------------------*- C++ -*----------------------------------*\
  =========                 |
  \\      /  F ield         | OpenFOAM: The Open Source CFD Toolbox
   \\    /   O peration     | Website:  https://openfoam.org
    \\  /    A nd           | Version:  7
     \\/     M anipulation  |
\*---------------------------------------------------------------------------*/
FoamFile
{
    version     2.0;
    format      ascii;
    class       labelField;
    location    "0.01/lagrangian/dsmc";
    object      origId;
}
// * * * * * * * * * * * * * * * * * * * * * * * * * * * * * * * * * * * * * //


6180
(
428861
499841
429578
429890
430378
501248
428999
430732
430550
431240
500047
496338
497759
430547
499599
502111
429853
433773
430644
431505
429952
430562
430760
502285
429753
431173
431273
431284
430552
431697
431804
429936
430878
431174
503848
430183
430648
432052
501692
430475
430535
430629
431031
431508
431525
431529
431547
431758
430746
430851
431159
431246
431316
431442
431873
432417
503221
431499
429451
431157
431167
431434
431509
431550
431676
431795
431913
436319
427898
429941
430884
430976
431003
431468
431598
431615
432095
432237
432482
502697
504251
430898
430901
431243
431271
431425
431619
431792
431943
431975
432026
432153
502358
496907
502203
430061
431344
431424
431700
431851
432146
432356
432405
432485
433206
437457
431204
431318
431369
431635
431724
431770
431778
431829
431910
431945
432028
432039
432138
432192
432290
432302
432562
432590
432987
433473
504956
504432
503228
431537
431579
431705
432004
432014
432636
432675
432846
49669
429225
431338
431787
431968
432033
432040
432044
432054
432244
432245
432257
432365
432377
432414
432580
432581
432607
433002
433115
504145
503324
434642
431938
501375
431860
428330
503094
431009
431879
431895
431964
432005
432035
432109
432122
432235
432269
432349
432378
432494
432552
432694
432815
432841
432903
433091
433195
504555
435959
504638
432202
437638
437722
49680
503738
430463
430810
430914
430991
431345
431420
431645
431679
431760
431813
431947
431948
431954
431985
431996
432152
432238
432288
432384
432472
432491
432498
432600
432690
432713
432843
432851
432916
433060
433259
433425
433672
436227
502516
49688
503622
432458
430716
430725
431071
431347
431759
431815
431886
432073
432140
432215
432357
432385
432456
432507
432516
432525
432654
432678
432821
432825
432836
432838
433009
433135
504351
433277
502814
434371
434729
436318
502065
431610
431696
431754
431767
431878
431951
431962
431969
431970
432063
432092
432180
432324
432326
432397
432468
432497
432513
432559
432571
432573
432640
432647
432719
432755
432811
432812
432835
432912
432932
432941
432986
433116
433286
433361
504760
434119
503020
504139
504448
502110
503208
430809
431575
431607
431765
431803
431808
431810
432055
432121
432127
432251
432322
432333
432380
432402
432410
432411
432510
432511
432659
432660
432773
432893
432948
432981
433004
434281
434370
432714
435609
504646
437453
438158
500763
503113
430206
431076
431241
431825
432118
432125
432126
432219
432225
432227
432286
432335
432373
432421
432499
432556
432560
432735
432800
432826
432861
432913
433026
433058
433075
433176
433343
433570
433670
434164
503535
504751
436315
504048
437177
503519
431756
503744
504950
431573
431692
431946
431950
432038
432117
432142
432231
432248
432329
432374
432375
432393
432437
432480
432484
432503
432505
432553
432555
432574
432584
432589
432630
432720
432732
432842
432919
433104
433188
433216
433246
433310
433363
433630
433631
504044
435346
435514
503847
504149
433154
431706
431730
431882
432088
503644
432224
432247
432387
432391
432399
432457
432486
432495
432601
432662
432663
432721
432731
432748
432751
432764
432766
432817
432870
432911
432921
432954
432960
433031
433059
433074
433078
433097
433124
433193
433276
433311
433378
433382
433467
433721
433732
503944
433976
434201
436922
505042
49737
431853
430553
431131
431586
432037
432143
432155
432249
432291
432394
432404
432515
432529
432565
432657
432679
432741
432757
432776
432809
432818
432901
432917
432937
432938
432982
432983
433012
433014
433022
433028
433029
433052
433171
433278
433367
433432
433438
433482
433493
433586
433906
504239
434228
434668
435172
436316
437176
437637
505253
505477
438593
49746
503628
431106
431335
431822
431973
432096
432139
432169
503533
432478
432492
432508
432614
432638
432644
432746
432749
432769
504349
432853
432869
432939
432950
432975
433000
433121
433129
433170
433179
504457
433245
433256
433384
433469
433596
433607
433634
433652
433705
433760
434068
434819
435258
505466
505461
437542
432632
432799
505557
431496
503420
500158
431473
431854
431903
432053
432137
432157
432158
432313
432481
432561
432567
432639
432648
432649
432684
432847
432858
432904
432957
433008
433019
433030
433108
433134
433168
433197
433203
504047
433292
433340
433350
433369
433374
433484
433491
433566
433587
433633
433711
433736
433740
433786
433817
505479
433869
434007
434063
434166
434641
434820
505380
505069
505379
436314
504052
436665
437808
437809
438855
49760
501268
500343
505383
504966
431811
432154
432308
432418
432554
432569
432620
432629
432666
432787
432830
432849
432857
432914
502398
433034
433048
433050
433076
433112
504252
433280
433282
433293
433351
433452
433459
433468
433554
433567
433614
433716
433729
433730
433735
433753
433757
433765
433784
433892
433903
433977
434061
434062
434147
434183
434274
434419
434455
435345
506187
504032
505280
438326
438856
49780
429215
431755
502500
432395
432438
432592
432633
432754
432820
432828
432898
432935
433033
433040
433080
433094
433103
433146
433167
433177
433181
433191
433213
433250
433252
433258
433290
433318
433387
433439
433445
433544
433553
433561
433727
433739
433751
433770
433952
434250
434254
434424
434518
434723
501987
505476
505165
437002
504427
504659
433942
501685
505891
504549
49786
502619
433512
431180
432029
432160
432218
432241
432434
432489
432514
432725
432813
432953
432977
432997
433092
433110
433163
433257
433261
433263
433355
433381
433386
433530
433543
433556
433557
433600
433644
433761
433785
433803
433814
433816
433842
433861
433874
433885
433902
433991
434048
434085
434102
434159
434276
434622
434639
434689
434760
505469
435113
435320
435867
435869
503938
438501
504962
49795
501434
501278
434047
505463
433341
504141
431433
431693
432145
432256
432310
432547
432563
432692
432742
432771
432816
432856
432993
432994
433021
433085
433090
433253
433281
433291
433337
433357
433359
433372
433398
433451
433474
433550
433621
433625
433636
433638
433643
433709
433747
433796
433835
433838
433848
433854
433932
505384
433954
433962
433965
433984
433985
434065
434097
434168
434176
505075
434314
505994
434745
504960
435866
436133
436134
433863
432544
438854
438950
49804
501980
502187
501869
502284
503433
504845
504936
505676
432066
432069
432281
432527
432566
432683
432785
432925
432991
432996
433005
433083
433107
433190
433255
433274
433284
433339
433346
433356
433380
433402
433455
433460
433608
433626
433628
433660
433699
433726
433790
433791
433797
433846
433852
433891
433948
433951
433971
433983
434006
504861
434213
434257
434266
434321
434528
505890
434688
434792
506397
436575
503606
437635
504118
505377
438243
505472
438591
49818
502076
503213
504813
504617
505370
430670
431286
431631
431835
431998
432283
432440
432528
432568
432594
432613
432727
432984
433006
433041
433070
433096
433102
433118
433158
433172
433182
433210
433244
433389
433391
433458
433471
433495
433534
433547
433568
433572
433584
433605
433612
433616
433619
433629
433639
433653
433712
433713
433715
433759
433794
433799
433839
433870
433886
433914
433921
433970
434261
434264
434284
434303
504243
434452
434625
434681
434724
436312
438157
501181
503016
504333
504249
432147
432572
432598
432839
432899
433017
433024
433035
433095
433099
433221
433348
433394
433436
433457
433465
433520
433539
433546
433555
433579
433617
433620
433627
433650
433671
433719
433731
433737
433807
433830
433875
433893
433909
433978
433999
434009
434069
434138
434160
434165
434182
434188
434190
434243
434332
434334
434339
434351
434426
434437
434439
434498
434867
434878
433332
506503
435168
433243
435774
436313
437092
505161
437356
506089
439040
439387
49830
502855
505173
432209
503209
430274
432436
432487
432585
432730
432840
432848
432933
432946
433010
433098
433106
433211
433242
433262
433409
433450
433538
433552
433559
433624
433697
433743
433812
433826
433831
433837
433890
433907
433908
433924
433974
434072
434094
434109
434131
434146
434150
434152
434212
434249
434279
434307
434340
434346
434369
434398
434422
434485
434561
434585
434754
434858
434967
435039
505786
434128
437450
437718
437720
433599
506376
506395
438677
438949
502102
503004
434482
431165
432070
432150
432577
432593
432761
432915
432972
433007
433025
433049
433142
433174
433251
433279
433377
433545
433560
433618
433637
433782
433808
433819
433825
433832
433899
433945
433967
433969
433987
434029
434030
434041
434082
434083
434177
434197
434221
434265
434271
434308
434355
434494
434508
434558
434583
434603
434604
434638
434670
434692
434695
434707
434790
434799
434802
434834
434870
434877
434931
434964
435170
504750
504649
437359
505787
437633
504126
506589
506599
439041
439386
49847
432896
432123
432178
432777
432922
432999
433088
433122
433139
433220
433305
433347
433379
433427
433444
433449
433481
433522
433640
433646
433714
433725
433801
433806
433811
433815
433882
433888
433897
433935
433937
433993
434076
434086
434105
434142
434157
434170
434185
434225
434229
434236
434240
434263
434270
434280
434322
434354
434383
434428
434433
434447
505181
434521
434611
434612
434657
434673
434679
434783
434789
434848
505991
504453
435451
435460
436132
436225
498665
500617
502802
503227
433866
505957
505965
432067
432698
432762
432900
433264
433302
433303
433440
433464
433478
433496
433548
433577
433663
433827
433879
433889
433912
433931
433953
433972
433975
433990
433996
434002
434038
434107
434148
434151
434169
434173
434260
434289
434326
434350
434356
434363
434415
434489
434491
434543
434560
434608
434683
434764
434779
434912
435109
435124
435343
435488
435721
435865
436664
504856
506179
438676
439648
49860
49861
504343
504857
504629
434207
432429
432595
432740
433125
433159
433271
433358
433424
433541
433641
433649
433667
433708
433798
433800
433805
433813
433865
433901
433980
433992
434046
434049
434051
434053
434158
434247
434248
434251
434294
434318
434320
434335
434344
434345
434379
434412
434425
434429
434454
434514
434525
434544
434589
434631
434677
434693
434712
434713
434750
434786
434813
434838
434839
434945
434952
434958
434960
434978
435161
435244
435311
435608
436130
506596
506080
506492
49867
49868
494574
499028
499860
428684
501453
503406
503413
432693
432803
432931
433312
433342
433353
433371
433521
433571
433689
433703
433749
433809
433836
433851
433884
433981
434015
434034
434035
434043
434067
434141
434198
434208
434244
434290
434293
434319
434417
434511
434526
434579
434616
434653
434682
434702
434751
434776
434810
434891
434963
434969
435141
435316
507421
437634
506387
507810
439120
49888
502488
502267
502717
432543
504837
433082
505268
434919
432651
432887
433180
433207
433395
433470
433490
433510
504761
433615
433706
433718
433829
433968
434010
434103
434111
434156
434171
434219
434333
434414
434416
434496
434519
434531
434537
434591
434669
434696
434757
434863
434869
434899
434962
435024
435037
435107
504850
435210
435283
435299
435416
435422
435453
435454
435472
435939
435951
436129
436921
504246
506189
507011
438852
439563
501323
49895
49897
49898
500318
497016
503841
430893
432806
505789
434476
506891
434840
504034
432653
432734
433166
433393
433428
433488
433635
433746
433802
433818
433855
433958
433979
433998
434000
434052
434081
434098
434174
434186
434298
434301
434329
434386
434393
434400
434517
434539
434541
434564
434571
434662
434666
434674
434694
434700
434741
434758
434781
434788
434801
434865
434977
434988
435053
435092
506190
435385
435439
433779
435738
435847
505889
436021
436310
505988
436659
506294
437892
505678
438499
434205
506059
434923
506594
439383
506692
506152
503747
503516
430711
503638
503308
431863
505583
435104
506173
432430
433497
433613
433695
503930
433905
433973
433997
434074
434099
434231
434241
434245
434246
434259
434315
434316
434323
434336
434342
434347
434390
434394
434404
434407
434495
434578
434588
434598
434601
434602
434630
434667
434675
434771
434795
434804
434854
434879
434887
434910
506711
434959
434979
435032
435067
435108
435111
435129
435135
435151
435215
435216
435271
435306
435458
435474
435555
435653
435771
435924
436104
436131
436153
437001
437268
434742
438242
439039
439212
505580
49908
49909
49910
49913
485382
429117
505574
502509
504040
432834
433698
433733
433824
433850
433900
433982
434008
434039
434054
434080
434108
434126
434139
434145
434193
434239
434313
434330
434364
434408
434413
434443
434538
434562
434569
434592
434595
434614
434615
434620
434720
434737
434791
434793
434812
434868
434895
434942
435007
435019
435030
435048
435115
435118
435145
435154
435155
435213
435227
435315
435317
435392
435398
435407
435425
435503
435673
435684
435719
507929
436093
437093
506278
507307
438948
439903
440172
49923
49924
49925
49926
430517
503825
503695
504254
431500
504651
433435
433595
433601
433720
433744
433821
433833
433844
433849
433876
433898
434088
434134
434143
434153
434222
434255
434272
434296
434317
434325
434338
434389
434410
434411
434446
434499
434524
434580
434582
434594
434600
434635
434664
434672
434698
434709
434743
434775
506712
434860
434880
434882
434883
434897
434933
434941
434956
434971
434995
435093
435110
435133
435134
435138
435203
507122
435301
435391
435395
435417
435480
435491
435547
435564
435585
435728
435747
433511
436224
436372
436572
505366
436920
504653
434833
440356
49942
499700
502201
503313
503306
505475
506079
505281
433453
432667
433376
433563
433623
433648
433704
433734
433917
433950
434028
434040
434060
434209
434226
434233
434234
434253
434262
434299
434305
434327
434479
434505
434522
434529
434584
434607
434624
434671
434676
434765
434770
434774
434777
434797
434815
434849
434857
434911
434972
434976
435017
435036
435099
435130
435146
435147
435191
435194
435211
435212
435225
435226
435229
435239
435298
435314
435330
435334
435390
435394
435414
435466
435481
435566
435713
435902
436111
436443
507015
506295
437091
507412
439038
506090
439382
440452
49946
49947
500482
503201
501440
503012
503099
504759
431942
504245
505271
432909
434656
432576
433178
433385
433472
433525
433894
433961
434055
434064
434073
434075
434077
434090
434100
434106
434127
434180
434385
434431
434487
434510
434555
434556
434568
434572
434577
434658
434680
434699
434710
434749
434753
434761
434806
434841
434852
434922
434961
434970
434983
435015
435020
435057
435101
435106
435121
435131
435266
435319
435321
435389
435401
435494
435568
435823
507422
436347
506808
437267
437353
437717
506384
438851
439474
439647
439733
507675
49952
49953
49954
49955
49956
500871
502103
501160
501473
505249
433780
434470
506691
501566
502911
433738
433883
433949
433994
434042
434149
434230
434237
434324
434358
434401
434403
434406
434427
434432
434434
434474
434488
434587
434609
434621
434629
434650
434685
434691
434701
434706
434769
434843
434872
434890
434893
434901
434940
434996
435033
435055
435063
435091
435119
435137
435206
435222
435247
435370
435374
507017
435448
435496
435549
435554
435565
435689
435732
507118
435819
435946
436168
436272
436499
438590
505062
506266
440451
49966
49967
501862
504344
504237
506377
433946
432711
506919
431658
433448
433079
433175
433315
433431
433578
433795
434211
434235
434278
434348
434395
434420
434509
434512
434567
434613
434716
434756
434759
434778
434794
434798
434871
434938
434950
434954
435000
435006
435126
435132
435142
435209
507018
435287
435302
435312
435359
435382
435386
435387
435464
435493
435567
435646
435749
435802
435864
435901
435986
436163
436573
436660
437449
507294
507617
434481
440171
440450
440794
502907
490482
498282
502121
501766
503645
504833
433338
505072
432807
432111
431419
433294
433793
433928
433963
433988
433989
434304
434331
434337
434341
434483
434570
434576
434654
434665
434686
434704
434856
434874
434928
434951
434965
434984
434986
435009
435014
435034
435116
435140
435200
435201
435217
435237
435243
435290
435313
435318
435420
435477
435499
435550
435559
435570
435574
435603
435639
435640
435660
435670
435733
435736
435743
435746
435801
435891
435892
435893
435973
436002
436062
435348
436292
436380
506811
507119
437350
437538
507411
438240
507120
434133
434484
508029
439994
506794
49978
501000
502683
502910
504841
502921
434384
505246
434475
507092
506920
433184
433565
434206
434310
434353
434360
434397
434490
434492
434515
434575
434593
434606
434655
434735
434748
434782
434862
434866
434875
434888
434975
435012
435026
435050
435052
435066
435127
435164
505378
435192
435234
435250
435284
435291
435307
435507
435534
435557
435562
435586
435616
435706
435727
435816
435818
435838
435877
435899
435908
435921
435936
436030
436179
506398
434921
436322
436595
507419
507627
437891
435181
506174
49982
499898
500222
501662
500539
500649
502499
503009
503289
504608
429836
501898
502277
503911
502183
432989
505573
433692
502506
432304
432992
433405
433475
434013
434181
434187
434309
434392
434486
434497
434678
434718
434780
434850
434900
434906
434934
434985
435028
435035
435043
435051
435084
435095
435157
435205
435293
435329
435384
435405
435471
435478
435542
435584
435597
435633
435635
507632
435737
435758
435763
435831
435842
435920
436074
436084
436088
436096
436463
436564
436638
436834
507719
507524
438325
438589
438767
506051
507295
439562
439732
435907
440084
435270
49986
49987
49988
49989
501049
431672
432019
502192
503390
503623
504150
504923
505760
505446
505659
431892
506909
507005
433275
433887
434162
434480
434501
434527
434747
434762
434876
434884
435004
435021
435027
435031
435153
435180
435204
435207
435285
435289
435361
435375
435379
435409
435444
435457
435462
435483
435485
435489
435523
435526
435576
435592
435647
435658
435687
435740
435753
507735
435793
435799
435806
435809
435825
435898
435923
436003
436012
436085
436125
436242
436304
506605
436439
436453
436465
436571
507732
506389
508553
438945
439731
435268
440264
440449
440532
440793
440872
49993
49994
49995
49996
49997
49998
49999
503492
431258
504543
503480
432293
433610
432998
506465
433426
506169
434001
434238
434311
434523
434563
434684
434796
434809
434864
434881
434968
435023
435056
435064
435094
435156
435186
435195
435218
435219
435233
435246
435294
435304
435310
435364
435383
435445
435456
435495
435498
435509
435538
435541
435556
435577
435582
435596
505481
435624
435662
435666
435678
435686
435702
435724
435731
435745
435812
436028
436100
508145
436386
436468
436586
436788
436916
436999
437090
507424
437716
508140
508038
507729
439300
507923
436053
506601
507828
506281
441138
433077
503030
431571
505455
433157
504650
502883
505961
433598
505682
506178
505073
433690
504136
506714
505576
433662
433960
433966
434084
434507
434532
434590
434637
434768
434785
434885
434935
435008
435013
435022
435025
435041
435044
435096
435123
435144
435160
435198
435231
435308
435323
435365
435376
435381
435403
435443
435536
435563
435575
435600
435634
435638
435643
435656
435715
435716
435790
435822
435829
435889
435940
435981
436004
436115
436148
436150
436167
436169
436382
436462
436561
436593
436673
436717
436918
437391
438849
508439
439561
506895
508230
507827
440531
50011
50012
50013
50014
50015
500608
501439
494962
501648
502383
503892
504220
505139
503833
504017
432634
504132
506582
434740
507525
433941
434154
434859
434946
434953
435011
435038
435047
435058
435065
435117
435187
435220
435292
435296
435303
435325
435368
435423
435438
435441
435484
435644
435648
435665
435671
435688
435697
435835
435850
435886
435904
435935
435990
436011
436051
436064
436073
436165
436171
436175
436218
436281
436291
436353
436381
436423
436456
436460
436474
436523
436601
436629
508243
436691
436692
437806
435184
508551
438848
435089
441137
50021
50022
50023
50024
50025
50026
50027
50028
50029
50032
494150
498650
497531
500604
500802
499918
499729
501961
501476
503089
502095
432217
505851
503914
504352
504324
504858
431937
506170
505647
507103
505680
433810
432206
434172
434697
434772
434926
435045
435098
435112
435114
435196
435199
435224
435235
435236
435254
435269
435397
435657
435669
435735
435787
435788
435805
435824
435827
435900
435942
435979
435995
436035
436072
436091
436120
436160
436178
436191
436383
436402
436472
508246
436510
436535
436606
436607
436647
436690
436866
436867
436898
436909
437060
508139
438068
508849
433597
438413
439118
440083
508040
507091
440792
441492
50034
50035
50036
50037
50038
50039
501647
501668
501513
502909
503114
431257
504546
503422
431507
504836
432369
502591
506567
434286
507192
506495
506292
434215
434502
434574
434618
434949
434990
435070
435075
435125
435143
435202
435208
435281
435282
435297
435309
435324
435336
435396
435415
435432
435442
435548
435583
435614
435615
435645
435668
435672
435676
435691
507121
435707
435708
435714
435717
435750
435882
435916
435917
435931
435976
435977
436063
436159
436173
436257
436275
436280
436287
436295
436326
436351
436369
436527
436570
436598
436713
436719
436738
436832
436878
436885
437041
437266
438497
440085
507622
441136
50046
50048
498078
498843
494946
501654
501697
501688
502113
502949
430522
500869
503563
503117
503849
504616
504839
505262
503647
434132
507003
504517
432955
434066
434214
434405
434409
434581
434873
434943
434947
434966
434974
434987
435102
435103
435139
435214
435275
435280
435402
435404
435406
435411
435467
435473
435475
435479
435537
435552
435553
435630
435641
435730
435752
435826
435897
435914
435985
436014
436077
436094
436151
436209
506913
436289
436294
436343
436368
436370
436377
436389
436485
436520
436610
436615
436623
436704
436775
436778
436917
437038
437078
434382
437201
437288
508446
507629
507915
438941
439037
439902
509662
508450
441491
502491
50054
50055
50056
50057
50058
500732
502772
503443
502225
502731
502533
504225
503835
503286
503202
503403
503558
506347
506140
433421
505761
506481
507830
502919
433155
436931
504957
433956
434573
434766
434999
435230
435335
435356
435447
435449
435461
435463
435486
435501
435558
435594
435636
435637
435651
435661
435663
435720
435725
435734
435810
435811
435815
435828
435836
435839
435895
435918
435930
435949
436019
436020
436024
436047
436059
436065
436069
436075
436083
436107
436123
436164
436182
436249
436267
436274
436288
436293
436331
436363
436374
436384
436401
436448
436471
436491
436556
436702
436779
436784
437020
437166
508754
508447
507822
437796
509567
438153
434736
508135
436411
441490
441584
50062
50063
50064
50065
50067
50068
50069
50070
50071
498771
497109
502515
502399
502485
503070
503693
504250
504749
504947
503801
506265
505864
434378
503642
433531
504134
433189
434744
434835
434920
435193
435256
435342
435366
435373
435412
435413
435545
435561
435569
435739
435751
506812
435814
435820
435855
435887
435911
435972
436005
436013
436026
436108
436109
436118
436128
436147
436152
436162
436177
436207
436216
436234
436246
436261
436264
436334
436350
436364
436475
436528
436529
436530
436559
436590
436612
436626
436693
436726
436868
436881
436904
436956
436990
437111
437264
507918
507723
507312
439208
508550
439472
509036
439730
440082
435355
440614
509046
508344
440871
505651
441135
441844
50080
50081
50082
50084
491301
499608
498677
500809
501770
501943
502887
502269
432110
504112
504414
432368
505558
503504
433422
504928
432722
504853
505179
433336
507223
507902
507504
431580
507709
507218
508619
506914
434619
434948
435003
435136
435357
435362
435388
435524
435679
435704
435813
435849
435862
435938
435941
435987
435993
436050
436176
436188
436268
436349
436359
436375
436457
436469
436540
436552
436617
436619
436625
436627
436641
436741
436742
436751
436758
436776
436848
436863
436891
436914
436935
436959
437037
437055
509061
437182
437349
437351
506400
436759
438152
508430
508138
438673
508650
507821
439298
508848
440447
440448
441308
441489
441759
50090
50091
50092
50093
50094
50095
50096
494526
501020
498640
502367
501773
503303
501780
503091
503935
503288
499567
504948
505541
502288
503503
504431
504827
505866
502882
505235
505292
432745
505585
505074
505881
432463
505791
506499
433519
434855
434889
435062
435182
435255
435279
435372
435400
435572
435601
435682
435768
435837
435853
436033
436080
436095
436098
436099
436185
436221
436237
436241
436256
436277
436283
436345
436354
436358
436376
436379
436395
436438
436479
436501
436515
436539
436542
436633
436634
436635
436646
436716
436721
436750
436760
436762
436796
436798
436802
436869
436880
436944
436945
507817
437160
437446
437520
437535
437889
508142
438239
508755
508451
439299
439381
507302
440870
441487
503320
50098
50100
500358
498045
503829
504020
501595
503087
433241
506571
432796
505781
506486
503748
505836
507427
509236
507216
434690
434805
435288
435300
435358
435363
435371
435465
435535
435551
435642
435800
506713
435915
435933
436046
436068
436079
436086
436089
436174
436181
436203
436205
436217
436245
436251
436253
436260
436270
436328
436330
436396
436419
436483
436492
436506
436518
436519
436560
436582
436608
436611
436628
436631
436683
436696
436728
436729
436735
436748
436772
436787
436791
436823
436852
436897
436952
436988
437070
437131
437195
437213
437248
437258
437296
437616
438151
508554
508557
507301
509459
440081
509657
508245
508654
50102
50103
50104
50105
50106
495892
497107
500834
503735
504238
504954
504247
433694
505067
435782
436052
432204
503745
434079
434763
435105
435188
435295
435305
435322
435482
435500
435531
435580
435667
435677
435683
435710
435744
435794
435795
435896
435905
435909
435988
435999
436009
436087
436112
436124
436190
436219
436244
436248
436263
436302
508144
436441
436445
436447
436450
436466
436478
436494
436522
436532
436533
436538
436544
436562
436605
436678
436685
436714
436724
436739
436746
436781
436792
436794
436797
436925
436963
436989
437019
437034
508036
437120
437153
437218
437241
437249
508032
437291
437348
437502
437531
437566
506277
437645
437668
507415
438241
438412
438944
509256
509053
508745
50109
50110
50112
50113
50114
50116
50117
50119
493558
499269
503222
501158
431675
502207
504108
503097
504049
505662
503116
505272
502701
504403
505569
506479
503510
432823
507084
434477
434045
506803
429574
505482
507078
436044
509154
505376
506184
434210
434767
434851
435352
435450
435490
435579
435632
435649
435654
435712
435726
435741
435804
435832
435854
435880
435888
436049
436054
436056
436067
436103
436172
436192
436195
436197
436198
436254
436255
436258
436271
436273
436279
436348
436378
436394
436417
436428
436458
436477
436531
436579
436604
436609
436618
436622
436644
436698
436727
436733
436789
436814
436822
436877
436890
436953
436958
436962
437011
437048
437069
437080
437158
437163
437239
437290
437323
437387
437501
437550
437924
510183
438765
509963
439558
509243
440446
507286
441942
442199
50122
50123
50124
498126
499047
498344
501460
502819
501588
502190
501749
503006
504447
504635
504731
504440
504921
505284
432918
505058
505579
506263
433238
498430
502260
434352
435571
435664
435693
435796
435803
435910
435927
435997
436060
436082
436097
436116
436166
436215
436300
436305
436365
436367
436371
436418
436422
436425
436440
436446
436449
436461
436480
436490
436498
436526
436545
436550
436613
436616
436645
436701
436705
436744
436752
436929
436964
436972
436979
436982
436987
437082
437122
437125
437146
437147
437165
437250
437251
437299
437303
437327
437332
437341
437375
437409
437469
437470
437556
437573
437578
437607
437779
437790
438671
438940
507812
439209
439815
440353
440445
440530
437462
508432
509158
509037
441941
442366
50128
50129
50130
50131
493855
494045
497748
500633
501861
500538
503305
503462
503198
502413
502536
504450
503900
505381
504406
433700
434648
502537
432469
510387
434957
435122
435327
435367
435532
435619
435620
435830
435843
435856
435884
435991
436006
436029
436048
436066
436076
436114
436121
436180
436238
436341
436357
436387
436521
436525
436534
508657
436588
436594
436602
436630
436786
436801
436803
436813
436819
436829
436842
436855
436871
436876
436887
436939
436967
436983
436997
437030
437033
437035
437064
437065
437068
437126
437135
437150
437244
437295
437298
437302
437311
437336
437373
437374
437398
437658
437684
437714
509465
437770
437799
437860
437888
437897
437935
437952
438134
438146
438587
438847
439206
439210
440080
440169
440444
510272
508757
441485
436581
508622
50132
50133
495216
499276
501294
501880
430877
501858
503382
503160
503280
502109
503267
504434
496314
504115
502137
505436
503731
504822
505749
505963
431253
506182
506299
431867
508022
501068
508443
504534
436142
506496
505790
434037
507215
435497
435655
435783
435807
435833
435894
435913
436078
436146
436184
436204
436296
436344
436424
436434
436697
436725
436862
436884
436908
436913
436930
436946
436957
436971
436986
437008
437012
437063
437087
437140
437162
437214
437230
437234
437247
437328
437338
437447
437477
437500
437534
437547
437563
437581
437586
437609
437681
437687
437698
437760
509879
509359
438942
439117
507730
509156
440957
441134
441221
509468
441668
50136
50137
50138
50139
50140
50141
50142
50143
50144
496411
501240
500918
501449
502559
500795
503727
504619
504541
503799
503179
505426
505457
433463
505587
502461
505259
507489
506888
508346
508837
437285
435505
435598
435626
435912
436017
436081
436105
436186
436206
436235
436236
436284
436346
436355
436373
436421
436431
436537
436548
436565
436621
436636
436649
436684
436706
436711
436712
436783
436839
436840
436844
436849
436861
436865
436954
436960
436961
436973
437027
437097
437138
437151
437156
437173
437200
437211
437221
437223
437235
437305
437382
437405
437417
437425
437467
437481
437489
437505
437525
437641
437667
437702
437757
437762
438078
438204
438212
437009
439297
439554