/*--------------------------------*- C++ -*----------------------------------*\
  =========                 |
  \\      /  F ield         | OpenFOAM: The Open Source CFD Toolbox
   \\    /   O peration     | Website:  https://openfoam.org
    \\  /    A nd           | Version:  7
     \\/     M anipulation  |
\*---------------------------------------------------------------------------*/
FoamFile
{
    version     2.0;
    format      ascii;
    class       volScalarField;
    location    "1";
    object      alpha.water;
}
// * * * * * * * * * * * * * * * * * * * * * * * * * * * * * * * * * * * * * //

dimensions      [0 0 0 0 0 0 0];

internalField   nonuniform List<scalar> 
2268
(
1
1
1
1
1
1
1
1
1
1
0.999999
0.999997
0.998845
0.980785
0.97279
0.97279
0.97279
0.972803
0.972878
0.974196
0.974287
0.981019
0.998742
1
1
1
1
1
1
1
1
1
1
0.999999
0.999996
0.999994
1
0.997806
0.99345
0.991745
0.992906
0.997591
1
1
0.998547
0.999146
1
1
1
1
1
1
1
1
1
1
1
1
1
1
1
1
1
1
1
1
1
1
0.999769
1
1
1
1
1
1
1
1
1
1
1
1
1
1
1
1
1
1
1
1
0.999999
0.999896
0.999803
1
1
1
1
1
1
1
1
1
1
1
1
1
1
1
1
1
1
0.999999
0.999999
0.999993
0.999787
0.999719
1
1
1
1
1
1
1
1
1
1
1
1
1
1
1
0.999999
0.999998
0.999996
0.999991
0.99998
0.999962
0.999812
0.999758
1
1
1
1
1
1
1
1
1
1
1
1
0.999999
0.999998
0.99999
0.999983
0.999969
0.999947
0.999878
0.999739
0.999621
0.997864
0.999759
1
1
1
1
1
1
1
1
1
1
1
0.999998
0.999989
0.999946
0.999819
0.999613
0.998932
0.989971
0.976703
0.960934
0.932354
0.977955
0.999759
0.992257
0.991631
0.995377
0.995389
0.995325
0.995171
0.994531
0.993291
0.992675
0.987732
0.921033
0.907737
0.907731
0.907743
0.919222
0.945136
0.946769
0.951851
0.941313
0.988702
0.993934
0.995382
0.994922
0.982256
0.990232
0.989845
0.992783
0.99102
0.979174
0.928304
0.907786
0.907743
0.907994
0.908377
0.908719
0.914894
0.951851
0.951709
0.988852
0.993952
0.995143
0.927765
0.704765
0.608325
0.583267
0.699408
0.924571
0.95244
0.958361
0.958361
0.953933
0.935666
0.932959
0.950448
0.951372
0.951837
0.948277
0.989757
0.992623
0.985807
0.684471
0.306558
0.238544
0.194944
0.176186
0.572363
0.95833
0.958373
0.95833
0.958249
0.957883
0.95378
0.942827
0.944525
0.944227
0.944047
0.989512
0.990656
0.96821
0.51456
0.244258
0.21903
0.1698
0.152748
0.140054
0.643192
0.95833
0.958249
0.957889
0.857253
0.657781
0.531063
0.512283
0.609801
0.688712
0.98928
0.98891
0.920071
0.463104
0.362158
0.518795
0.528892
0.269056
0.0999867
0.0956337
0.616885
0.790226
0.594068
0.237245
0.0952039
0.084538
0.0844605
0.0971526
0.103301
0.988428
0.988284
0.769172
0.163986
0.371723
0.50154
0.705685
0.735592
0.311694
0.0898457
0.0928554
0.159781
0.0919003
0.0846675
0.0846336
0.0844605
0.0843154
0.0842954
0.0843011
0.988823
0.987141
0.625499
0.112845
0.12227
0.136125
0.58132
0.735592
0.684236
0.0912597
0.0845993
0.0845497
0.0846466
0.0846694
0.0846738
0.0846211
0.0855052
0.0843151
0.0842954
1
1
1
1
1
1
1
1
1
1
0.999994
0.999972
0.999822
0.996561
0.926751
0.763308
0.621806
0.550013
0.502074
0.479876
0.715503
0.984533
0.999758
1
1
1
1.00001
1.00002
1.00002
1.00001
1
1
0.999996
0.999924
0.996107
0.913406
0.63373
0.326781
0.162148
0.089769
0.0654424
0.0684062
0.118301
0.77013
0.999623
0.999718
1
1
1
1
1
1
1
0.999999
0.999988
0.997482
0.91805
0.598607
0.192223
0.116806
0.114763
0.0742273
0.0619462
0.0594246
0.0637582
0.303346
0.952845
0.999513
0.999598
1
1
1
1
1
0.949095
0.874484
0.777108
0.629303
0.392103
0.183487
0.121902
0.120716
0.138123
0.14834
0.0698831
0.0593395
0.0567291
0.0576636
0.324981
0.953138
0.999339
0.999266
0.96854
0.938601
0.847666
0.700674
0.497835
0.32281
0.192518
0.103687
0.0568061
0.0526656
0.166612
0.20139
0.201239
0.200876
0.200875
0.191253
0.0584832
0.0540571
0.0513851
0.0785755
0.607711
0.998207
0.99643
0.321079
0.274775
0.164517
0.0639954
0.0127321
0.00307087
0.00288214
0.00357036
0.00620122
0.0306888
0.177786
0.20126
0.201622
0.20126
0.1997
0.199118
0.147349
0.0513851
0.0483851
0.0453813
0.109787
0.732935
0.993087
0.00118436
0.00118154
0.00121919
0.000895497
0.000672563
0.000626147
0.000736826
0.00110148
0.00196959
0.0185572
0.0406188
0.0448365
0.0411813
0.123282
0.192377
0.191784
0.18878
0.109831
0.0453672
0.0433921
0.0392629
0.0457715
0.571529
0.000144484
0.000157379
0.000168957
0.00014565
0.00013253
0.000150564
0.000213748
0.000382827
0.000780953
0.00211013
0.000335258
0.000194506
0.000163453
0.000322463
0.00193652
0.0963206
0.159216
0.15519
0.133767
0.0412776
0.0366702
0.0362498
0.03467
2.31776e-05
2.49803e-05
3.01352e-05
2.79814e-05
2.73005e-05
3.39827e-05
5.41309e-05
9.75266e-05
0.00013822
0.000128737
6.25496e-05
3.06944e-05
4.03415e-05
0.00011804
7.21709e-05
0.000333477
0.0200037
0.115641
0.128551
0.121291
0.0834721
0.0394633
0.0323292
3.78288e-06
4.15503e-06
5.2508e-06
5.22264e-06
5.51067e-06
7.62781e-06
1.2786e-05
2.25909e-05
3.37445e-05
3.31332e-05
1.7752e-05
7.45656e-06
4.61687e-06
4.89988e-06
8.5178e-06
7.94166e-06
5.05697e-05
0.000146011
0.0474351
0.106285
0.106148
0.101748
0.100934
6.60618e-07
7.36625e-07
9.6088e-07
9.94518e-07
1.12601e-06
1.6606e-06
2.92834e-06
5.37476e-06
8.04879e-06
7.81252e-06
4.56038e-06
2.00377e-06
9.82182e-07
6.54668e-07
3.76391e-07
4.57668e-08
-7.05721e-06
1.06508e-06
-9.42688e-06
6.68034e-06
0.056837
0.100004
0.0960848
1.19325e-07
1.36154e-07
1.80098e-07
1.90357e-07
2.25751e-07
3.45426e-07
6.31372e-07
1.18792e-06
1.79452e-06
1.74531e-06
1.13961e-06
5.37568e-07
2.46067e-07
1.37031e-07
7.22257e-08
3.56337e-08
3.44835e-08
-2.34572e-07
-2.36718e-06
-7.36406e-07
-5.42032e-05
-2.00609e-05
0.0200264
2.20335e-08
2.60897e-08
3.43383e-08
3.66677e-08
4.43669e-08
6.87958e-08
1.27624e-07
2.43601e-07
3.72033e-07
3.64123e-07
2.61644e-07
1.35666e-07
6.33821e-08
3.19025e-08
1.58889e-08
2.51533e-08
7.09189e-08
3.17289e-09
2.16546e-10
8.12797e-11
5.72189e-11
1.6013e-10
-7.60641e-10
4.37561e-09
5.40543e-09
6.87933e-09
7.32955e-09
8.6026e-09
1.31826e-08
2.43479e-08
4.65706e-08
7.15784e-08
7.06025e-08
5.46774e-08
3.10172e-08
1.55626e-08
7.86776e-09
5.47091e-09
8.4548e-09
1.90968e-08
1.94708e-08
1.81335e-08
2.77282e-09
1.4202e-09
4.98334e-10
-1.99293e-09
1.0435e-09
1.34406e-09
1.61867e-09
1.70617e-09
1.87246e-09
2.47498e-09
4.42704e-09
8.32155e-09
1.27819e-08
1.28639e-08
1.06689e-08
6.65502e-09
3.87318e-09
2.49722e-09
2.36077e-09
2.66256e-09
2.33054e-09
5.06697e-09
4.82084e-09
5.7623e-09
5.7623e-09
3.76438e-09
1.72788e-09
3.00262e-10
4.02319e-10
4.60418e-10
4.77582e-10
5.07859e-10
6.16976e-10
8.66745e-10
1.39862e-09
2.12824e-09
2.40305e-09
2.13057e-09
1.45686e-09
1.18457e-09
1.10175e-09
1.08999e-09
1.13569e-09
1.01433e-09
1.11151e-09
1.21608e-09
1.22335e-09
8.88344e-10
5.72028e-10
5.9708e-10
1.77779e-10
2.2671e-10
2.2944e-10
2.24921e-10
2.09387e-10
1.77957e-10
2.02523e-10
2.9688e-10
4.32397e-10
4.87786e-10
4.31624e-10
4.41793e-10
5.04164e-10
5.21721e-10
5.06426e-10
5.07836e-10
4.97389e-10
4.81945e-10
4.84049e-10
4.45353e-10
3.55741e-10
2.594e-10
1.96778e-10
8.19692e-11
1.06421e-10
1.04513e-10
9.89604e-11
8.84308e-11
7.5959e-11
6.87058e-11
6.27638e-11
7.69966e-11
8.70441e-11
1.37653e-10
1.82573e-10
2.05025e-10
2.08389e-10
2.05035e-10
2.03702e-10
2.03874e-10
1.97931e-10
1.88239e-10
1.70948e-10
1.44578e-10
1.15085e-10
9.05535e-11
2.23914e-11
3.09662e-11
3.03495e-11
2.75764e-11
2.37004e-11
2.08768e-11
1.86097e-11
1.83655e-11
2.21514e-11
2.86533e-11
4.10272e-11
5.11624e-11
5.56989e-11
5.84455e-11
6.04222e-11
6.15439e-11
6.17079e-11
5.94165e-11
5.45669e-11
4.78331e-11
4.01303e-11
3.25419e-11
2.66911e-11
4.14203e-12
6.17013e-12
5.94133e-12
5.18995e-12
4.24985e-12
3.50751e-12
3.20502e-12
3.47394e-12
4.27512e-12
5.81066e-12
6.85257e-12
8.00693e-12
8.97085e-12
9.85438e-12
1.06698e-11
1.1238e-11
1.13613e-11
1.07837e-11
9.58867e-12
8.08994e-12
6.6856e-12
5.59967e-12
5.01126e-12
6.22129e-13
1.00111e-12
9.54978e-13
8.171e-13
6.54669e-13
5.18355e-13
4.41495e-13
4.28988e-13
4.95334e-13
6.24259e-13
7.29132e-13
8.21314e-13
9.06943e-13
9.8807e-13
1.06907e-12
1.1344e-12
1.14806e-12
1.07981e-12
9.37759e-13
7.60105e-13
6.13412e-13
5.408e-13
5.36446e-13
8.44828e-14
1.45412e-13
1.37444e-13
1.15466e-13
9.05562e-14
6.9678e-14
5.49026e-14
4.78385e-14
4.745e-14
5.18735e-14
5.57674e-14
5.83153e-14
6.08087e-14
6.35201e-14
6.65168e-14
6.98437e-14
7.10121e-14
6.72445e-14
5.81518e-14
4.57142e-14
3.51172e-14
3.12381e-14
3.22464e-14
1.05273e-14
1.92109e-14
1.79325e-14
1.47151e-14
1.12182e-14
8.29455e-15
5.9151e-15
4.24845e-15
2.81296e-15
1.51831e-15
1.34427e-15
1.30926e-15
1.2876e-15
1.30791e-15
1.38041e-15
1.6378e-15
2.11381e-15
2.48644e-15
2.38438e-15
2.0185e-15
1.5463e-15
1.34895e-15
1.39279e-15
1.19286e-15
2.2924e-15
2.10617e-15
1.67986e-15
1.23451e-15
8.50822e-16
4.8316e-16
1.35573e-16
7.29073e-17
0
-1.37536e-15
-2.30939e-15
-2.16228e-15
-1.35023e-15
-4.6694e-16
0
5.27928e-18
2.32412e-17
3.51266e-17
3.94238e-17
4.24455e-17
4.46358e-17
5.48041e-17
1.22704e-16
2.46679e-16
2.22334e-16
1.71344e-16
1.19281e-16
6.86374e-17
1.57961e-17
0
-5.02731e-16
-1.45947e-15
-2.42447e-15
-2.92662e-15
-2.77585e-15
-2.15188e-15
-1.40257e-15
-7.74991e-16
-3.89397e-16
-1.80402e-16
-7.6563e-17
-2.88869e-17
-9.61643e-18
-2.45287e-18
9.45843e-18
1.1462e-17
2.39635e-17
2.11017e-17
1.55309e-17
9.46737e-18
2.91292e-18
0
-9.27843e-17
-3.21081e-16
-6.52589e-16
-9.68957e-16
-1.13083e-15
-1.07462e-15
-8.50983e-16
-5.73581e-16
-3.34458e-16
-1.73351e-16
-8.11884e-17
-3.4629e-17
-1.37312e-17
-5.05574e-18
-1.35548e-18
1.35002e-17
9.67173e-19
2.1002e-18
1.79279e-18
1.20275e-18
4.7527e-19
2.63066e-20
-9.25017e-18
-4.14836e-17
-1.01569e-16
-1.80254e-16
-2.50643e-16
-2.82576e-16
-2.63001e-16
-2.04842e-16
-1.35378e-16
-7.6931e-17
-3.81761e-17
-1.66968e-17
-6.66941e-18
-2.51976e-18
-8.81019e-19
2.33158e-20
1.85642e-17
7.20266e-20
1.64955e-19
1.33642e-19
6.72147e-20
9.24162e-21
-6.62186e-19
-3.99768e-18
-1.14337e-17
-2.33048e-17
-3.72876e-17
-4.84992e-17
-5.20391e-17
-4.63606e-17
-3.44821e-17
-2.1557e-17
-1.14078e-17
-5.1417e-18
-1.98177e-18
-7.29908e-19
-2.56299e-19
-6.96772e-20
5.69274e-19
2.0974e-17
4.20889e-21
1.13301e-20
7.8571e-21
1.35022e-21
-3.6838e-20
-3.27446e-19
-1.05819e-18
-2.39063e-18
-4.2336e-18
-6.13776e-18
-7.39316e-18
-7.41456e-18
-6.17281e-18
-4.25517e-18
-2.42492e-18
-1.13927e-18
-4.36582e-19
-1.48532e-19
-4.90346e-20
-1.5421e-20
9.4433e-21
6.64237e-19
1.99574e-17
7.28419e-23
5.9652e-22
1.96612e-22
-9.73935e-22
-2.41787e-20
-8.75264e-20
-2.12311e-19
-4.03708e-19
-6.30736e-19
-8.26109e-19
-9.09629e-19
-8.35853e-19
-6.33449e-19
-3.9123e-19
-1.94312e-19
-7.60315e-20
-2.31756e-20
-6.98114e-21
-2.05437e-21
-4.33007e-22
1.65501e-20
5.81765e-19
1.44825e-17
-2.40311e-23
9.3102e-24
0
-1.56174e-21
-6.7301e-21
-1.73222e-20
-3.4482e-20
-5.66683e-20
-7.84903e-20
-9.22637e-20
-9.15058e-20
-7.53723e-20
-5.04698e-20
-2.68077e-20
-1.09306e-20
-3.21384e-21
-8.37017e-22
-2.14611e-22
-5.37473e-23
8.53725e-23
1.07946e-20
3.4701e-19
7.37441e-18
-8.81297e-23
-7.45693e-24
-8.89859e-23
-4.7078e-22
-1.33516e-21
-2.75861e-21
-4.67709e-21
-6.72394e-21
-8.25327e-21
-8.62979e-21
-7.58347e-21
-5.46397e-21
-3.12171e-21
-1.35394e-21
-4.1598e-22
-8.95287e-23
-1.95006e-23
-4.26535e-24
-7.68825e-25
3.33422e-23
3.4458e-21
1.22667e-19
3.05375e-18
-2.90213e-23
-1.25265e-23
-3.06141e-23
-9.50711e-23
-2.1081e-22
-3.67128e-22
-5.39955e-22
-6.82439e-22
-7.39664e-22
-6.80624e-22
-5.20335e-22
-3.18977e-22
-1.49109e-22
-4.93275e-23
-9.97055e-24
-1.83763e-24
-3.33019e-25
-5.95703e-26
1.52212e-26
5.85171e-24
6.67565e-22
3.79397e-20
1.74825e-18
-6.20346e-24
-3.5592e-24
-6.37502e-24
-1.50185e-23
-2.77604e-23
-4.17636e-23
-5.37942e-23
-5.9829e-23
-5.69312e-23
-4.55363e-23
-2.96755e-23
-1.49942e-23
-5.44982e-24
-1.25487e-24
-1.81831e-25
-2.66372e-26
-3.95409e-27
-5.3502e-28
5.47732e-27
7.92503e-25
1.21583e-22
1.45466e-20
1.24174e-18
-1.02371e-24
-6.72768e-25
-1.01263e-24
-1.96854e-24
-3.13232e-24
-4.12785e-24
-4.67906e-24
-4.57244e-24
-3.79213e-24
-2.60034e-24
-1.41226e-24
-5.67109e-25
-1.50611e-25
-2.1327e-26
-2.64602e-27
-3.23147e-28
-3.90072e-29
4.11675e-31
6.47819e-28
9.38616e-26
2.15212e-23
4.40696e-21
4.76162e-19
-1.39134e-25
-9.94279e-26
-1.3228e-25
-2.21135e-25
-3.08678e-25
-3.59332e-25
-3.59217e-25
-3.07503e-25
-2.20419e-25
-1.27645e-25
-5.63546e-26
-1.72537e-26
-3.10984e-27
-2.98006e-28
-2.91149e-29
-2.89222e-30
-2.82274e-31
4.6806e-31
4.53331e-29
7.81528e-27
2.59053e-24
7.26946e-22
8.48232e-20
-1.61436e-26
-1.22348e-26
-1.47747e-26
-2.17673e-26
-2.69829e-26
-2.78952e-26
-2.46082e-26
-1.83833e-26
-1.12881e-26
-5.43361e-27
-1.89832e-27
-4.23111e-28
-4.7744e-29
-3.80276e-30
-3.00525e-31
-2.37033e-32
-1.7378e-33
1.10352e-32
1.285e-30
3.74728e-28
2.03344e-25
8.92134e-23
1.34531e-20
-1.64028e-27
-1.2992e-27
-1.44779e-27
-1.91071e-27
-2.12139e-27
-1.95473e-27
-1.52158e-27
-9.88068e-28
-5.15193e-28
-2.02867e-28
-5.4532e-29
-8.42493e-30
-5.59923e-31
-3.70113e-32
-2.416e-33
-1.55477e-34
-9.82599e-36
7.74127e-37
3.91475e-34
1.54457e-29
1.08822e-26
5.87521e-24
1.15929e-21
-1.49027e-28
-1.2208e-28
-1.26943e-28
-1.51823e-28
-1.51945e-28
-1.25145e-28
-8.59513e-29
-4.83599e-29
-2.12499e-29
-6.74552e-30
-1.35757e-30
-1.38718e-31
-6.66716e-33
-3.26514e-34
-1.6172e-35
-8.00527e-37
-3.91956e-38
5.54154e-39
3.10837e-35
2.84548e-30
3.66877e-28
2.23822e-25
6.28952e-23
-1.23288e-29
-1.03502e-29
-1.01204e-29
-1.1066e-29
-1.0036e-29
-7.40838e-30
-4.49239e-30
-2.18655e-30
-8.05844e-31
-2.04074e-31
-3.008e-32
-1.96177e-33
-7.28086e-35
-2.67078e-36
-9.62046e-38
-3.39978e-39
-1.17823e-40
-2.31408e-44
2.21053e-38
7.93827e-33
2.41686e-30
2.33751e-28
6.31582e-26
-9.42283e-31
-8.03887e-31
-7.4357e-31
-7.48721e-31
-6.1829e-31
-4.10302e-31
-2.20097e-31
-9.27847e-32
-2.86988e-32
-5.79378e-33
-6.21798e-34
-2.55875e-35
-6.95957e-37
-1.79162e-38
-4.27649e-40
-9.60172e-42
-2.05635e-43
-4.23651e-45
1.15886e-41
2.14281e-35
1.40375e-32
6.94364e-31
2.67897e-29
-6.69785e-32
-5.78845e-32
-5.0957e-32
-4.75377e-32
-3.58939e-32
-2.14843e-32
-1.02315e-32
-3.75508e-33
-9.83706e-34
-1.61246e-34
-1.31034e-35
-3.64616e-37
-6.01934e-39
-7.6117e-41
-7.914e-43
-7.16118e-45
-5.83282e-47
-4.37931e-49
-3.08125e-51
9.49607e-48
1.52338e-40
2.13376e-36
1.3252e-34
0.999241
0.999209
0.999188
0.99904
0.999447
0.999308
0.999046
0.99785
0.999188
0.998185
0.997848
0.993663
0.998451
0.985053
0.651982
0.328995
0.994929
0.983159
0.676209
0.269251
0.988459
0.984729
0.97835
0.885008
0.83339
0.778274
0.737952
0.742324
0.0321214
0.064988
0.0823773
0.0884721
0.0310827
0.0295757
0.0273621
0.02529
0.04488
0.0429797
0.0443154
0.0329192
0.0851263
0.0889007
0.0889287
0.0889287
0.00240919
0.0117804
0.062858
0.0846505
-9.37894e-10
-9.16465e-10
-2.12118e-09
-5.97265e-09
-2.40019e-09
-4.50971e-10
5.36129e-10
6.38828e-10
1.19237e-09
1.97514e-09
1.86287e-09
1.39468e-09
9.47521e-10
1.62511e-09
1.6202e-09
1.11813e-09
1.56691e-10
1.16491e-10
1.15742e-10
1.03703e-10
7.6467e-11
7.34488e-11
7.27152e-11
7.55717e-11
2.39155e-11
2.33464e-11
2.32214e-11
2.33218e-11
4.90064e-12
4.95461e-12
5.13794e-12
5.46656e-12
5.57767e-13
6.01694e-13
6.74748e-13
7.67515e-13
3.54784e-14
4.03718e-14
4.81337e-14
5.84924e-14
1.53801e-15
1.76489e-15
2.15615e-15
2.72121e-15
7.6597e-17
1.11694e-16
1.94148e-16
3.46277e-16
3.5917e-17
7.92374e-17
1.84657e-16
3.95652e-16
4.99427e-17
1.11501e-16
2.61195e-16
5.46995e-16
6.38736e-17
1.39886e-16
3.24224e-16
6.64062e-16
7.09144e-17
1.53871e-16
3.53308e-16
7.12319e-16
6.62015e-17
1.42186e-16
3.20046e-16
6.44016e-16
4.6945e-17
9.95433e-17
2.19002e-16
4.4003e-16
2.33985e-17
4.86197e-17
1.06201e-16
2.03905e-16
9.85304e-18
2.04931e-17
4.73191e-17
9.45114e-17
6.04552e-18
1.34772e-17
3.77172e-17
9.05683e-17
4.69353e-18
1.18809e-17
4.57754e-17
1.42675e-16
2.00311e-18
5.98438e-18
4.0424e-17
1.54083e-16
3.96073e-19
1.41843e-18
1.42013e-17
5.32235e-17
7.39137e-20
3.2231e-19
3.89679e-18
1.18024e-17
8.14466e-21
4.94611e-20
6.82848e-19
1.68171e-18
5.70712e-22
4.03503e-21
4.76015e-20
8.36527e-20
9.06877e-25
1.83634e-23
3.27327e-22
4.14424e-22
5.25452e-28
4.29136e-26
8.96819e-25
7.0568e-25
1.86431e-34
1.5606e-30
1.83809e-28
4.9887e-29
0.997721
0.921643
0.205856
0.108064
0.119542
0.444177
0.674688
0.736367
0.734728
0.346574
0.084332
0.0844797
0.0846792
0.0846738
0.0847082
0.119299
0.194016
0.123295
0.0843251
0.993747
0.707973
0.103543
0.102632
0.278485
0.784476
0.78533
0.717519
0.406942
0.512559
0.185227
0.0852682
0.0847937
0.0846435
0.160445
0.194138
0.194185
0.194246
0.088993
0.795835
0.163161
0.101827
0.101811
0.200828
0.785411
0.784476
0.211526
0.020907
0.514226
0.443732
0.101044
0.0849258
0.122597
0.19416
0.194185
0.194206
0.194185
0.178744
0.175816
0.101827
0.101661
0.101776
0.494417
0.783055
0.776265
0.0521668
0.0157705
0.512201
0.448532
0.128271
0.0837911
0.166247
0.193127
0.193834
0.149337
0.136087
0.108004
0.110771
0.101693
0.10177
0.25437
0.751752
0.774804
0.32754
0.0108593
0.0122053
0.369485
0.104091
0.0392587
0.0823224
0.187715
0.190852
0.168962
0.0493243
0.0119696
0.0176897
0.789203
0.697888
0.698871
0.777575
0.714966
0.334537
0.00522674
0.0064666
0.0321683
0.035999
0.0162396
0.00262166
0.0729487
0.175408
0.143073
0.0224718
0.00300572
0.00176716
0.00140772
0.730351
0.662205
0.54638
0.416204
0.0996662
0.00522674
0.00522674
0.00726732
0.0814008
0.0263953
0.00302152
0.00207616
0.00498846
0.0130893
5.02802e-05
0.000762291
0.000958176
0.00105493
0.000282174
0.0904602
0.066786
0.0398844
0.00570757
0.00563
0.00542153
0.00522674
0.0514281
0.0814008
0.0814008
0.0091934
0.000587727
3.23223e-05
2.12706e-05
3.23228e-05
0.000816685
0.000711794
0.000791891
4.62751e-05
0.0223209
0.0101393
0.00853199
0.00772913
0.00650331
0.00590038
0.00714947
0.0798108
0.0814008
0.0624483
0.0071399
0.00108316
2.16844e-05
1.79455e-05
0.000151629
0.000456434
0.000356319
0.000473352
8.38955e-06
0.0232341
0.0149363
0.0412907
0.0641697
0.0645132
0.0563529
0.0475166
0.0591668
0.0448541
0.000128611
0.00113261
0.00106601
0.00114952
1.94844e-05
4.34133e-05
3.69186e-05
0.000197174
0.000318066
4.24573e-06
0.0889287
0.0869629
0.0762022
0.0698046
0.0690298
0.06742
0.0605975
4.16425e-05
4.67853e-05
8.44233e-05
0.00114184
0.000773094
8.74821e-05
2.35066e-06
3.00102e-06
7.91897e-06
0.000116864
0.0001614
3.98161e-06
0.037855
0.0201044
0.0305349
0.0358717
0.0219036
0.0124799
7.02827e-06
3.38619e-05
4.21226e-05
0.000176741
0.00024232
0.000117561
2.26902e-06
2.18441e-06
2.278e-06
2.87086e-06
3.97754e-06
2.81055e-06
3.94862e-06
-1.39967e-08
-5.57013e-08
-1.9835e-08
-1.22071e-10
1.47621e-08
1.53657e-07
1.30404e-06
5.37212e-05
0.000101007
5.07441e-05
2.10436e-06
2.07117e-06
2.12777e-06
2.1827e-06
2.1836e-06
2.5755e-06
2.6735e-06
2.80091e-06
2.80097e-06
9.22901e-10
8.87609e-10
5.88217e-25
4.22675e-09
4.97749e-08
5.41443e-06
5.35923e-05
8.17274e-05
6.9925e-05
2.17769e-06
2.07118e-06
2.07118e-06
2.07024e-06
2.37567e-06
7.40361e-06
9.34609e-06
2.9536e-06
2.80024e-06
2.92681e-06
2.65794e-09
5.58803e-09
2.17674e-10
-7.6054e-10
-1.06641e-08
1.73592e-05
3.94549e-05
2.01466e-05
2.54092e-06
3.66855e-06
1.36525e-05
3.55106e-05
4.21043e-05
4.1169e-05
3.28211e-05
3.98091e-06
2.96118e-06
2.14067e-05
4.39152e-05
1.05932e-09
3.33271e-09
2.45388e-10
2.04899e-12
-8.11435e-10
1.62602e-09
4.26242e-08
4.22651e-07
1.9015e-06
3.41976e-05
4.26545e-05
4.26545e-05
4.26545e-05
4.24833e-05
1.66876e-05
5.3877e-06
7.44713e-06
4.2162e-05
0.000180418
7.66287e-11
3.94882e-10
6.05777e-11
3.91126e-11
2.86005e-11
8.21645e-10
1.69174e-08
7.30743e-07
1.62556e-06
1.20731e-07
1.50899e-05
3.11603e-05
2.37665e-05
6.31175e-06
6.3628e-06
6.72845e-06
1.56053e-05
3.53871e-05
0.000180417
7.65439e-11
3.43659e-11
5.524e-11
5.95183e-11
4.49904e-11
8.82417e-10
7.82892e-07
2.62017e-06
2.19651e-06
1.41483e-08
1.00523e-08
1.83161e-08
7.68058e-08
1.0096e-06
9.54939e-06
1.0415e-05
9.60907e-07
1.67201e-05
0.000180421
2.41212e-11
3.17374e-11
3.40132e-11
4.06226e-11
2.92782e-11
-1.52559e-10
9.85381e-08
1.97842e-06
2.17863e-06
6.50306e-07
6.74436e-09
3.44056e-09
1.10853e-08
4.86881e-06
1.03097e-05
1.03598e-05
1.85263e-08
4.99039e-06
0.000180409
6.11629e-12
6.52123e-12
6.81329e-12
9.10223e-12
3.03669e-11
1.05833e-11
6.84599e-12
4.1966e-10
7.31346e-07
8.00739e-07
1.28774e-07
2.47345e-09
1.437e-09
3.87798e-07
3.16042e-06
1.65076e-06
1.16715e-08
6.64316e-07
0.000180322
9.88097e-13
1.29746e-12
1.59689e-12
2.35328e-12
7.65117e-12
1.31862e-11
7.35318e-12
3.74025e-08
2.90413e-07
3.93637e-07
7.89099e-08
6.7689e-09
1.40053e-09
1.1858e-09
1.31785e-09
5.72554e-09
1.11999e-08
5.80483e-07
0.000179728
8.62569e-14
1.43534e-13
2.58146e-13
7.5258e-13
4.48719e-12
8.60301e-12
7.2885e-12
7.35318e-12
1.05356e-07
2.69781e-07
9.37699e-08
5.11012e-09
1.99178e-09
1.10364e-09
1.22137e-07
8.88737e-08
1.16715e-08
5.45013e-05
0.00017188
4.63815e-15
1.91075e-14
9.76434e-14
5.68752e-13
4.48035e-12
7.21812e-12
7.22086e-12
3.35352e-09
3.35857e-09
3.46384e-09
4.12996e-09
5.84826e-09
1.70071e-09
1.0433e-09
1.82865e-07
1.82761e-07
1.22439e-08
0.000157791
0.000170864
1.37669e-15
1.60429e-14
1.5431e-13
1.0552e-12
7.86573e-12
1.09134e-11
7.26113e-12
2.19169e-09
6.23938e-09
6.46942e-09
3.80481e-09
1.1303e-09
4.15989e-10
4.35716e-10
1.81941e-07
1.59135e-07
1.43174e-08
0.00016205
0.000169108
1.83429e-15
2.79024e-14
2.95973e-13
1.91942e-12
1.0731e-11
1.67175e-11
3.4352e-11
3.80878e-10
2.05208e-09
2.74614e-09
2.14739e-09
9.54155e-10
3.89707e-10
1.24339e-08
1.8032e-07
2.09904e-08
1.74979e-08
9.07318e-05
0.000133728
2.46675e-15
4.46446e-14
4.78722e-13
2.99481e-12
1.11095e-11
2.56427e-11
4.60286e-11
8.06024e-11
1.63563e-10
3.10356e-10
5.73976e-10
4.45405e-10
3.87423e-10
1.56754e-08
1.66729e-07
1.38384e-08
9.99747e-09
0.000110657
0.000113328
3.00093e-15
6.45097e-14
6.62086e-13
3.66262e-12
1.2495e-11
3.16851e-11
6.48599e-11
1.10066e-10
1.69749e-10
2.30381e-10
3.73355e-10
3.70983e-10
3.94477e-10
1.9588e-08
1.27891e-08
5.98174e-10
9.82931e-10
0.000182735
0.0001571
3.22323e-15
7.43107e-14
7.66359e-13
4.16064e-12
1.37208e-11
3.33834e-11
7.69422e-11
1.50503e-10
2.13423e-10
2.54667e-10
3.47436e-10
4.68967e-10
5.28923e-10
5.72058e-10
5.76474e-10
5.85607e-10
3.74905e-06
0.000185273
0.000108368
2.68029e-15
5.53034e-14
7.25728e-13
4.32865e-12
1.41532e-11
3.3524e-11
7.34164e-11
1.88999e-10
5.0051e-10
9.23946e-10
1.20235e-09
1.15675e-09
1.33206e-09
2.1999e-09
1.30402e-09
5.98339e-10
8.53161e-05
0.000185812
5.62686e-05
1.69565e-15
2.9192e-14
5.1177e-13
4.31575e-12
1.34742e-11
2.53906e-11
7.7251e-11
4.307e-10
1.90826e-09
3.79662e-09
3.54205e-09
1.83849e-09
2.53744e-09
5.76244e-09
1.67611e-09
7.29786e-10
0.000126278
0.000185812
5.49125e-05
9.91695e-16
1.68187e-14
2.70721e-13
2.19017e-12
7.083e-12
1.86234e-11
9.46857e-11
5.45758e-10
2.36635e-09
4.47997e-09
4.5264e-09
4.622e-09
8.16388e-09
7.60473e-09
1.76636e-09
1.45542e-09
0.000118705
0.000185812
5.19492e-05
1.09573e-15
1.89675e-14
2.18781e-13
2.84114e-12
1.1708e-11
3.94782e-11
1.66245e-10
6.04821e-10
1.32102e-09
2.16806e-09
6.4485e-09
1.22169e-08
1.22778e-08
8.90754e-09
1.95266e-09
2.18219e-09
0.000140758
0.000185688
3.07917e-05
4.91127e-15
7.59662e-14
5.57734e-13
8.56473e-12
3.26724e-11
8.17906e-11
2.35645e-10
4.05513e-10
5.17577e-10
3.8448e-09
1.14255e-08
1.21137e-08
1.06297e-08
3.9685e-09
2.1822e-09
4.42212e-05
0.000169261
0.000167021
8.07782e-06
1.74061e-14
4.60465e-13
1.86577e-12
1.41132e-11
5.7535e-11
7.62149e-11
1.52442e-10
6.87046e-10
4.86943e-09
8.75358e-09
9.14736e-09
7.89889e-09
7.92716e-09
9.47411e-09
2.284e-09
0.000107325
0.000169261
6.3892e-05
4.42746e-07
2.90263e-14
1.11406e-12
6.44113e-12
2.93494e-11
8.04989e-11
8.08085e-11
1.32378e-10
3.03247e-09
6.17467e-09
5.62605e-09
1.73708e-09
1.0895e-08
8.50751e-07
5.19105e-07
2.71533e-09
5.49361e-05
0.000168212
3.42015e-05
2.5266e-10
2.95789e-14
1.30191e-12
1.15649e-11
6.1771e-11
1.42395e-10
1.47866e-10
2.74815e-10
1.61797e-09
2.46789e-09
1.56543e-09
1.61907e-09
2.62931e-06
3.98254e-06
6.02934e-07
2.71555e-06
1.85168e-05
2.6737e-09
1.66093e-10
1.05251e-10
6.36147e-15
6.35044e-13
1.30252e-11
7.92034e-11
1.92868e-10
2.18052e-10
2.3592e-10
2.59681e-10
2.13318e-10
2.13451e-10
2.53814e-06
5.22967e-06
5.22967e-06
4.89408e-06
2.75369e-06
2.64009e-09
1.66093e-10
9.42589e-11
1.03441e-10
5.80649e-16
1.21781e-13
3.90137e-12
5.59428e-11
1.91169e-10
2.62427e-10
2.43944e-10
2.14015e-10
2.13198e-10
2.13318e-10
2.00351e-06
3.08103e-06
5.02394e-06
4.98163e-06
4.07243e-06
2.80906e-07
2.42834e-10
7.65518e-11
9.89042e-11
6.08864e-17
1.03883e-14
6.45982e-13
1.90969e-11
1.28738e-10
2.69294e-10
3.19346e-10
2.13211e-10
2.13318e-10
5.1749e-08
1.3373e-07
9.48075e-08
1.98765e-07
2.32915e-07
7.6426e-08
5.86622e-09
2.18191e-10
6.87524e-11
6.28317e-11
2.00041e-18
6.13982e-16
4.99719e-14
3.32196e-12
5.71485e-11
1.21251e-10
4.11174e-10
1.23678e-09
1.71156e-09
4.47179e-09
2.84055e-09
6.05879e-09
9.98184e-09
6.75625e-09
1.22377e-09
2.21211e-11
4.63858e-11
7.69999e-11
6.32344e-11
1.02932e-20
9.84052e-18
1.82263e-15
2.37561e-13
1.26421e-11
2.45065e-11
6.56135e-10
2.40349e-09
2.63758e-09
2.2528e-09
2.81131e-09
2.99985e-09
1.42099e-09
7.86573e-11
4.58468e-12
2.02643e-11
1.50041e-11
1.56285e-11
2.74127e-07
1.01182e-23
1.04724e-20
7.53139e-18
2.59146e-15
5.04959e-13
5.57521e-12
1.81456e-10
9.53439e-10
1.49263e-09
1.42484e-09
1.24934e-09
5.43689e-10
5.80979e-11
3.32537e-12
3.14991e-12
3.13522e-12
3.13522e-12
4.25509e-10
7.83894e-07
)
;

boundaryField
{
    leftWall
    {
        type            zeroGradient;
    }
    rightWall
    {
        type            zeroGradient;
    }
    lowerWall
    {
        type            zeroGradient;
    }
    atmosphere
    {
        type            inletOutlet;
        inletValue      uniform 0;
        value           nonuniform List<scalar> 
46
(
-6.69785e-32
-5.78845e-32
-5.0957e-32
-4.75377e-32
-3.58939e-32
-2.14843e-32
-1.02315e-32
-3.75508e-33
-9.83706e-34
-1.61246e-34
-1.31034e-35
-3.64616e-37
0
0
0
0
0
0
0
0
0
0
0
0
0
0
0
0
0
0
0
0
0
0
0
0
1.42484e-09
1.24934e-09
5.43689e-10
5.80979e-11
3.32537e-12
3.14991e-12
3.13522e-12
3.13522e-12
4.25509e-10
7.83894e-07
)
;
    }
    defaultFaces
    {
        type            empty;
    }
}


// ************************************************************************* //
