/*--------------------------------*- C++ -*----------------------------------*\
  =========                 |
  \\      /  F ield         | OpenFOAM: The Open Source CFD Toolbox
   \\    /   O peration     | Website:  https://openfoam.org
    \\  /    A nd           | Version:  7
     \\/     M anipulation  |
\*---------------------------------------------------------------------------*/
FoamFile
{
    version     2.0;
    format      ascii;
    class       volScalarField;
    location    "1";
    object      p;
}
// * * * * * * * * * * * * * * * * * * * * * * * * * * * * * * * * * * * * * //

dimensions      [1 -1 -2 0 0 0 0];

internalField   nonuniform List<scalar> 
2268
(
1040.38
1034.45
1026.23
1015.22
1001.93
986.575
969.371
950.535
930.261
908.692
886.009
862.596
839.051
816.202
795.345
777.946
765.655
758.828
756.027
754.167
749.257
743.718
742.332
982.789
977.248
969.536
958.747
945.548
930.101
912.643
893.38
872.487
850.139
826.565
802.276
777.902
754.567
733.158
715.142
702.063
694.264
690.655
688.956
685.865
682.463
683.351
925.928
920.225
912.886
902.444
889.438
874.022
856.421
836.8
815.29
792.061
767.415
741.908
716.317
691.725
669.168
650.209
636.378
628.06
624.47
624.172
624.047
623.091
624.26
869.685
863.343
855.985
845.828
833.027
817.712
800.068
780.203
758.195
734.205
708.582
681.898
654.998
628.945
604.824
584.541
570.12
562.082
559.709
561.986
565.258
565.67
565.316
813.781
806.635
798.943
788.948
776.324
761.152
743.564
723.604
701.278
676.697
650.183
622.309
593.979
566.231
540.114
518.118
503.148
495.885
495.388
501.048
508.32
509.7
506.667
757.971
750.046
741.876
731.953
719.488
704.504
687.083
667.188
644.722
619.675
592.274
563.083
533.097
503.274
474.494
450.162
434.563
428.42
430.148
440.089
452.567
454.753
448.275
702.102
693.51
684.836
674.93
662.623
647.885
630.749
611.088
588.646
563.218
534.88
504.155
472.125
439.63
407.287
379.742
363.255
358.43
362.791
379.033
398.367
400.197
391.304
646.088
636.999
627.822
617.855
605.701
591.246
574.493
555.215
532.957
507.233
477.836
445.175
410.499
374.876
338.492
306.775
288.423
284.605
293.14
320.076
347.034
344.092
328.502
803.886
774.5
718.417
628.258
576.254
566.828
572.426
573.194
566.596
545.011
516.84
488.426
458.81
429.667
406.3
392.035
384.67
379.584
379.731
750.223
723.887
665.691
558.917
493.927
483.221
489.537
495.156
497.305
483.734
460.59
432.249
401.136
371.035
347.318
333.007
326.1
320.578
324.422
706.659
669.581
599.223
486.485
429.483
424.576
436.254
440.967
434.727
421.297
401.392
373.818
341.695
310.818
286.584
272.695
267.808
265.284
269.183
661.537
607.7
523.479
422.806
391.038
399.033
419.686
429.287
407.52
366.491
341.119
315.064
282.248
248.989
223.357
210.264
208.106
210.268
213.451
609.88
542.269
449.865
372.573
364.675
378.187
404.63
422.246
407.715
336.904
286.615
257.511
222.406
188.027
168.235
161.5
161.172
162.272
164.372
549.32
476.444
380.555
322.987
329.602
340.492
361.858
389.151
396.518
328.831
251.878
203.214
167.72
147.681
142.454
141.746
141.835
139.582
140.888
479.989
411.952
319.408
282.63
292.14
302.838
315.341
328.542
351.892
316.111
232.112
170.744
140.571
133.854
134.364
135.043
135.476
133.55
135.526
402.427
349.834
273.09
261.154
269.611
285.828
286.683
281.103
290.483
286.2
215.724
160.242
134.162
128.135
127.682
128.165
129.248
127.795
130.5
558.248
548.642
538.675
528.414
516.429
502.435
486.424
468.041
446.433
420.39
388.842
352.244
313.599
275.424
238.605
210.306
196.649
197.554
216.01
257.046
279.562
258.037
224.209
438.468
428.381
417.9
407.304
395.549
382.528
368.434
352.717
333.263
306.893
270.815
228.961
198.296
184.211
165.426
149.655
144.585
149.392
166.006
191.327
200.452
182.076
156.293
319.355
309.544
298.993
287.788
275.682
262.721
249.833
236.214
217.863
192.191
166.665
150.084
149.923
153.101
145.77
134.656
129.27
130.014
136.131
142.436
141.239
139.18
142.374
202.631
193.698
182.522
167.97
150.982
134.573
120.625
108.986
101.934
103.154
111.773
125.202
134.074
133.712
128.198
119.748
112.552
109.234
105.505
100.79
100.635
106.475
127.759
91.8591
85.1445
74.1924
58.265
41.4625
29.483
22.3625
19.757
27.8464
49.7308
69.1935
81.1412
90.6997
96.8983
101.49
101.014
95.4613
88.5988
80.7334
70.1522
67.7036
70.7137
88.8203
18.9745
15.3576
10.0127
4.17851
0.727104
-0.0207405
0.666911
2.56404
5.80588
10.7808
18.8108
29.3569
38.5693
52.8905
65.2447
73.8221
76.2266
70.9223
62.4698
52.7035
44.7262
44.5409
42.5015
-1.12862
-1.43736
-1.19543
-1.02197
-0.923618
-0.917054
-0.855987
-0.615526
-0.38381
-0.333717
1.36433
3.21975
4.36489
11.8943
23.2169
38.6186
49.0416
52.6015
47.8857
39.984
33.5574
27.2668
30.4487
-1.33552
-1.41347
-1.4064
-1.35847
-1.26808
-1.18829
-1.16273
-1.21214
-1.39972
-1.71105
-1.67633
-1.57906
-1.63316
-1.48478
-0.300908
7.30494
17.1231
27.6583
31.635
29.7772
25.9559
23.0909
18.3026
-1.4783
-1.50686
-1.51023
-1.48395
-1.43429
-1.39243
-1.3904
-1.47454
-1.67711
-1.89178
-1.96005
-1.98261
-2.01421
-1.98053
-1.82811
-1.69144
0.165899
4.63931
10.1711
15.1001
15.9902
17.031
17.8377
-1.60545
-1.62548
-1.62764
-1.61323
-1.59412
-1.58711
-1.60951
-1.6875
-1.8314
-1.98198
-2.05522
-2.0907
-2.11955
-2.13635
-2.14359
-2.12774
-2.05631
-2.1746
-0.659564
0.280271
2.80879
5.98304
7.55872
-1.73591
-1.75045
-1.75688
-1.75426
-1.75123
-1.75979
-1.79143
-1.85816
-1.96127
-2.07317
-2.1461
-2.19786
-2.24347
-2.2805
-2.31195
-2.34318
-2.3421
-2.28221
-2.40139
-2.75993
-1.71894
-1.6216
-2.18241
-1.87307
-1.88245
-1.88985
-1.89375
-1.89912
-1.91412
-1.9467
-2.00321
-2.08315
-2.17152
-2.24553
-2.30773
-2.36347
-2.41043
-2.44811
-2.47941
-2.49862
-2.49136
-2.4749
-2.43193
-2.57479
-3.01423
-2.96295
-2.01178
-2.01818
-2.0243
-2.03085
-2.04041
-2.05793
-2.08847
-2.13585
-2.1996
-2.27166
-2.34063
-2.40412
-2.46287
-2.51494
-2.5582
-2.5922
-2.61578
-2.62899
-2.6297
-2.60448
-2.57921
-2.57116
-2.74367
-2.14943
-2.15399
-2.15858
-2.16579
-2.17689
-2.19468
-2.22218
-2.26165
-2.31287
-2.3717
-2.43205
-2.49105
-2.54766
-2.59996
-2.64555
-2.6825
-2.70946
-2.7277
-2.73889
-2.74109
-2.73507
-2.71496
-2.71033
-2.28579
-2.28826
-2.29145
-2.29816
-2.30918
-2.32594
-2.35015
-2.3831
-2.42467
-2.47273
-2.52393
-2.57593
-2.6272
-2.67591
-2.71988
-2.75701
-2.78568
-2.80589
-2.81954
-2.82737
-2.83029
-2.82644
-2.81838
-2.42027
-2.42068
-2.42258
-2.42823
-2.43822
-2.45326
-2.47429
-2.50195
-2.53612
-2.5756
-2.61842
-2.66283
-2.70738
-2.75048
-2.79029
-2.82498
-2.85301
-2.87363
-2.88724
-2.89452
-2.89608
-2.89107
-2.87827
-2.55258
-2.55144
-2.55222
-2.55661
-2.56514
-2.57819
-2.59623
-2.61955
-2.64794
-2.68059
-2.71623
-2.75355
-2.79132
-2.82822
-2.8628
-2.89355
-2.91914
-2.93863
-2.95159
-2.95798
-2.95784
-2.9509
-2.93675
-2.683
-2.68084
-2.68068
-2.68384
-2.69081
-2.70184
-2.71718
-2.73687
-2.76062
-2.7878
-2.81749
-2.84866
-2.8803
-2.91133
-2.94059
-2.96691
-2.98919
-3.00652
-3.01825
-3.02388
-3.02305
-3.01564
-3.00155
-2.81193
-2.80914
-2.80821
-2.81026
-2.81578
-2.82495
-2.83788
-2.85449
-2.87445
-2.89719
-2.92197
-2.94799
-2.97439
-3.00027
-3.02471
-3.04676
-3.06559
-3.08039
-3.09046
-3.09518
-3.09406
-3.08693
-3.07372
-2.9397
-2.93651
-2.93496
-2.93608
-2.94034
-2.94788
-2.95872
-2.97271
-2.98949
-3.00855
-3.02926
-3.05097
-3.07297
-3.09453
-3.11484
-3.13315
-3.14879
-3.16111
-3.16946
-3.17322
-3.17188
-3.16531
-3.15338
-3.06651
-3.06308
-3.06104
-3.06142
-3.06465
-3.07081
-3.07986
-3.09161
-3.10571
-3.12167
-3.13896
-3.15705
-3.17537
-3.19329
-3.21017
-3.22535
-3.23826
-3.24838
-3.25518
-3.2581
-3.25667
-3.25077
-3.24026
-3.1925
-3.18892
-3.18654
-3.18635
-3.18877
-3.19379
-3.20132
-3.21116
-3.22298
-3.23634
-3.25078
-3.26583
-3.28105
-3.29594
-3.30996
-3.32255
-3.33322
-3.34155
-3.34707
-3.34934
-3.34793
-3.34277
-3.33368
-3.31779
-3.31417
-3.31157
-3.31098
-3.31277
-3.31684
-3.32309
-3.3313
-3.34119
-3.35237
-3.36442
-3.37696
-3.3896
-3.40196
-3.4136
-3.42407
-3.43294
-3.43982
-3.44436
-3.44615
-3.44487
-3.44044
-3.43269
-3.44254
-3.43897
-3.43628
-3.43543
-3.43673
-3.44003
-3.44519
-3.45203
-3.46028
-3.46961
-3.47967
-3.49012
-3.50063
-3.51089
-3.52056
-3.52926
-3.53664
-3.54237
-3.54612
-3.54759
-3.54647
-3.54271
-3.53618
-3.56695
-3.56352
-3.56083
-3.55983
-3.56075
-3.56342
-3.56767
-3.57334
-3.58019
-3.58796
-3.59635
-3.60506
-3.6138
-3.62232
-3.63033
-3.63756
-3.64369
-3.64844
-3.65156
-3.65277
-3.65182
-3.64868
-3.64324
-3.69119
-3.68796
-3.68536
-3.68428
-3.68491
-3.68706
-3.69055
-3.69523
-3.7009
-3.70735
-3.71432
-3.72158
-3.72885
-3.73592
-3.74256
-3.74853
-3.7536
-3.75754
-3.76011
-3.76111
-3.76033
-3.75775
-3.75326
-3.81539
-3.81239
-3.80992
-3.80883
-3.80923
-3.81095
-3.81381
-3.81766
-3.82234
-3.82768
-3.83347
-3.8395
-3.84555
-3.85142
-3.85692
-3.86185
-3.86603
-3.86928
-3.8714
-3.87224
-3.87161
-3.86952
-3.86586
-3.9396
-3.93682
-3.93453
-3.93345
-3.93368
-3.93505
-3.93738
-3.94054
-3.9444
-3.9488
-3.95359
-3.9586
-3.96363
-3.96851
-3.97307
-3.97716
-3.98062
-3.9833
-3.98506
-3.98577
-3.98529
-3.98362
-3.98067
-4.0638
-4.06126
-4.05914
-4.0581
-4.05819
-4.05925
-4.06113
-4.06372
-4.06688
-4.07051
-4.07447
-4.07861
-4.08279
-4.08685
-4.09064
-4.09404
-4.09692
-4.09916
-4.10064
-4.10125
-4.10091
-4.09959
-4.09724
-4.18798
-4.18564
-4.1837
-4.1827
-4.18268
-4.18348
-4.18497
-4.18706
-4.18964
-4.19261
-4.19586
-4.19928
-4.20273
-4.2061
-4.20926
-4.2121
-4.21451
-4.21639
-4.21765
-4.21821
-4.21797
-4.21695
-4.21508
-4.31208
-4.30993
-4.30815
-4.3072
-4.30709
-4.30766
-4.30882
-4.31047
-4.31254
-4.31494
-4.31759
-4.32038
-4.32322
-4.326
-4.32863
-4.331
-4.33302
-4.33461
-4.3357
-4.33621
-4.33607
-4.33529
-4.3338
-4.43606
-4.43409
-4.43246
-4.43156
-4.43137
-4.43175
-4.43261
-4.43389
-4.43552
-4.43742
-4.43953
-4.44178
-4.44409
-4.44637
-4.44853
-4.4505
-4.45219
-4.45354
-4.45448
-4.45495
-4.4549
-4.45431
-4.45314
-4.5599
-4.5581
-4.55661
-4.55576
-4.55551
-4.55573
-4.55634
-4.55728
-4.55852
-4.55999
-4.56164
-4.56342
-4.56526
-4.5671
-4.56887
-4.57048
-4.57189
-4.57303
-4.57385
-4.57429
-4.5743
-4.57387
-4.57295
-4.68359
-4.68195
-4.6806
-4.67981
-4.67951
-4.67959
-4.67998
-4.68065
-4.68155
-4.68264
-4.68389
-4.68526
-4.6867
-4.68816
-4.68958
-4.6909
-4.69207
-4.69303
-4.69373
-4.69414
-4.69421
-4.69391
-4.6932
-4.80714
-4.80567
-4.80444
-4.80371
-4.80338
-4.80335
-4.80357
-4.80399
-4.8046
-4.80537
-4.80627
-4.80729
-4.80839
-4.80954
-4.81067
-4.81174
-4.81269
-4.8135
-4.81411
-4.81449
-4.8146
-4.81442
-4.8139
-4.93056
-4.92925
-4.92816
-4.92748
-4.92714
-4.92702
-4.9271
-4.92732
-4.92768
-4.92817
-4.92877
-4.92949
-4.93031
-4.93121
-4.93212
-4.93298
-4.93377
-4.93444
-4.93498
-4.93534
-4.93549
-4.9354
-4.93504
-5.05385
-5.05272
-5.05177
-5.05115
-5.0508
-5.05063
-5.05059
-5.05065
-5.0508
-5.05105
-5.05138
-5.05184
-5.05245
-5.05317
-5.05392
-5.05463
-5.05528
-5.05585
-5.05633
-5.05667
-5.05686
-5.05686
-5.05664
-5.17703
-5.17607
-5.17527
-5.17472
-5.17439
-5.17418
-5.17405
-5.17398
-5.17396
-5.17399
-5.17409
-5.17432
-5.17477
-5.1754
-5.17605
-5.17666
-5.17722
-5.17771
-5.17814
-5.17847
-5.17869
-5.17876
-5.17866
-5.30009
-5.29932
-5.29865
-5.2982
-5.2979
-5.29768
-5.2975
-5.29733
-5.29716
-5.29699
-5.29686
-5.29684
-5.2972
-5.29786
-5.29849
-5.29905
-5.29955
-5.29999
-5.30038
-5.3007
-5.30094
-5.30107
-5.30107
-5.42301
-5.42243
-5.42193
-5.42159
-5.42137
-5.42117
-5.42096
-5.42072
-5.42041
-5.42003
-5.41956
-5.41913
-5.41953
-5.42052
-5.42127
-5.42182
-5.42227
-5.42267
-5.42303
-5.42335
-5.4236
-5.42377
-5.42383
-5.54576
-5.54542
-5.54515
-5.54501
-5.54491
-5.54478
-5.54456
-5.54423
-5.54374
-5.54303
-5.5419
-5.54042
-5.54106
-5.54324
-5.54438
-5.54495
-5.54537
-5.54573
-5.54606
-5.54636
-5.54662
-5.5468
-5.5469
-5.66831
-5.66827
-5.66827
-5.66833
-5.66834
-5.66828
-5.6681
-5.66778
-5.66726
-5.66645
-5.66495
-5.66232
-5.66207
-5.66589
-5.66737
-5.668
-5.66843
-5.66881
-5.66918
-5.66953
-5.66984
-5.67008
-5.67023
207.588
202.742
189.708
171.792
138.718
138.828
155.338
177.047
157.047
169.956
185.577
195.155
158.198
176.045
181.984
177.417
113.636
127.636
135.537
140.453
42.5838
42.2136
42.8181
49.9521
29.2316
22.3611
16.2666
13.7164
15.1542
14.3469
14.0552
13.0282
17.3029
17.0116
16.9024
16.6062
8.2438
9.36636
10.6705
11.0339
-3.40845
-3.71434
-2.93372
-2.37222
-3.72454
-3.69921
-2.32489
-2.07977
-2.84637
-2.82128
-2.82052
-2.92082
-2.70376
-2.64666
-2.58653
-2.57064
-2.81763
-2.80793
-2.79199
-2.77141
-2.85932
-2.84401
-2.82859
-2.81409
-2.91795
-2.90195
-2.88422
-2.86694
-2.98316
-2.96694
-2.9487
-2.93098
-3.05639
-3.04097
-3.02356
-3.00673
-3.1377
-3.12368
-3.10777
-3.09242
-3.22643
-3.21406
-3.19991
-3.18629
-3.32172
-3.31101
-3.29867
-3.28681
-3.42252
-3.4134
-3.40283
-3.39266
-3.52767
-3.52005
-3.51116
-3.50258
-3.6362
-3.62993
-3.62259
-3.61549
-3.74749
-3.7424
-3.73643
-3.73062
-3.86119
-3.85708
-3.85222
-3.84747
-3.97691
-3.97358
-3.9696
-3.96568
-4.09422
-4.09151
-4.08821
-4.08493
-4.21266
-4.21044
-4.2077
-4.20494
-4.33185
-4.33003
-4.32776
-4.32546
-4.45156
-4.45008
-4.44822
-4.44633
-4.57168
-4.57049
-4.569
-4.56749
-4.69218
-4.69124
-4.69008
-4.6889
-4.81309
-4.81236
-4.81148
-4.8106
-4.93443
-4.93387
-4.93322
-4.93259
-5.05619
-5.05578
-5.05531
-5.05488
-5.17835
-5.17806
-5.17774
-5.17746
-5.30087
-5.30068
-5.30048
-5.3003
-5.42372
-5.4236
-5.42348
-5.42337
-5.54684
-5.54677
-5.54668
-5.5466
-5.67023
-5.6702
-5.67015
-5.67009
261.077
262.481
235.119
237.639
245.403
251.394
247.531
231.679
211.969
217.272
184.69
144.776
125.094
119.304
117.908
115.918
113.863
115.616
120.895
210.922
202.974
200.818
205.238
204.633
195.919
182.268
150.235
125.788
146.628
142.57
118.882
104.313
102.353
99.8143
93.9096
88.2253
89.1811
97.048
191.185
177.302
180.295
180.127
170.63
144.848
115.862
82.0539
79.009
98.4451
98.8656
83.8774
77.1867
79.3997
74.2803
66.3955
59.5657
54.6855
57.7862
169.341
169.05
166.555
159.266
136.06
91.7242
58.9429
46.6556
55.1164
66.177
57.1572
39.1495
45.5703
51.7717
47.1828
38.2125
28.901
19.9537
17.8841
147.096
148.672
141.937
117.735
73.9457
42.8775
28.7392
28.6917
36.5791
39.9457
21.3029
11.194
19.2769
26.9063
23.2372
12.8505
5.61275
2.20746
2.66391
68.0433
74.5774
62.7651
35.6765
18.1621
21.5316
17.8357
22.5116
24.9837
17.2103
8.24958
4.30781
5.15229
9.16152
6.81849
1.08685
-0.0862909
-0.187279
0.141064
13.7929
11.6396
11.3995
10.9587
12.6325
14.3113
16.3967
18.7996
17.1342
8.32225
4.01847
2.21102
0.702949
0.179541
-0.611642
-0.590636
-0.628398
-0.490114
-0.288499
10.9593
10.9236
12.5706
13.3794
14.4362
14.1888
14.2151
14.1376
9.85504
3.53588
1.05744
0.400232
-0.272062
-0.603538
-0.703743
-0.777533
-0.704264
-0.553212
-0.497739
15.6435
15.5376
16.6549
16.4759
13.8717
11.4565
9.12335
5.70029
3.48001
0.706925
-0.733262
-0.638946
-0.710809
-0.836881
-0.85772
-0.894049
-0.828999
-0.735008
-0.725667
10.9221
11.2078
10.3614
8.15452
5.89151
4.08802
0.622535
-2.32444
-0.356015
-1.41116
-1.37157
-1.21566
-1.07431
-1.05166
-1.03572
-1.03795
-0.989887
-0.936085
-0.935991
-1.7874
-1.78757
-1.86967
-2.09794
-2.13748
-2.02121
-2.39784
-2.57538
-1.82797
-1.5855
-1.65496
-1.54753
-1.39231
-1.27536
-1.22717
-1.19724
-1.15868
-1.12963
-1.13395
-3.8782
-4.04669
-3.52862
-2.92896
-2.732
-2.54487
-2.16146
-1.99853
-1.92917
-1.83192
-1.82908
-1.7262
-1.58739
-1.47419
-1.40659
-1.35998
-1.32461
-1.30806
-1.31565
-3.07278
-3.02221
-2.88532
-2.71208
-2.52559
-2.24458
-2.04087
-2.06004
-2.0377
-1.97638
-1.93105
-1.84048
-1.73075
-1.63657
-1.57052
-1.52357
-1.49101
-1.48056
-1.49497
-2.58982
-2.55607
-2.47154
-2.39489
-2.33664
-2.26195
-2.20248
-2.18385
-2.13806
-2.07837
-2.02125
-1.94429
-1.85999
-1.78707
-1.7329
-1.69353
-1.66605
-1.65692
-1.66942
-2.72145
-2.6649
-2.59257
-2.52036
-2.4543
-2.38733
-2.32875
-2.28465
-2.23376
-2.17753
-2.12232
-2.06049
-1.99783
-1.94365
-1.9019
-1.8703
-1.84789
-1.83885
-1.84378
-2.78666
-2.73545
-2.67288
-2.60748
-2.54319
-2.48082
-2.42553
-2.37863
-2.33174
-2.28444
-2.2386
-2.19195
-2.14739
-2.10861
-2.07646
-2.05116
-2.03495
-2.02916
-2.02727
-2.83972
-2.79316
-2.7384
-2.68116
-2.62459
-2.5705
-2.52196
-2.47928
-2.43905
-2.40194
-2.36753
-2.3341
-2.30271
-2.27459
-2.25011
-2.23167
-2.22205
-2.22099
-2.21515
-2.90436
-2.86272
-2.81479
-2.76476
-2.71555
-2.66909
-2.62741
-2.59089
-2.55819
-2.52901
-2.50341
-2.48035
-2.45859
-2.43822
-2.42069
-2.40775
-2.4023
-2.40387
-2.39393
-2.98214
-2.94569
-2.90392
-2.86024
-2.81749
-2.77752
-2.74202
-2.71163
-2.68565
-2.66347
-2.64468
-2.62826
-2.6132
-2.59921
-2.5867
-2.57689
-2.57235
-2.5741
-2.56238
-3.07039
-3.03893
-3.00286
-2.96502
-2.92812
-2.89393
-2.86389
-2.83878
-2.81822
-2.80149
-2.78786
-2.77625
-2.76564
-2.75558
-2.746
-2.73754
-2.7323
-2.73138
-2.72051
-3.16694
-3.14006
-3.10926
-3.07682
-3.04524
-3.01613
-2.9908
-2.96993
-2.9534
-2.94056
-2.93046
-2.92199
-2.91412
-2.90621
-2.89804
-2.8899
-2.88294
-2.87712
-2.8691
-3.27008
-3.2473
-3.22124
-3.1937
-3.16685
-3.14213
-3.12067
-3.10312
-3.08947
-3.07913
-3.07119
-3.06456
-3.05825
-3.05153
-3.04406
-3.0359
-3.02724
-3.01685
-3.00927
-3.37836
-3.35917
-3.33725
-3.31401
-3.29126
-3.27024
-3.25192
-3.23689
-3.22519
-3.21637
-3.20958
-3.20386
-3.19829
-3.19217
-3.18514
-3.17717
-3.16836
-3.15609
-3.14435
-3.49049
-3.47439
-3.45602
-3.43645
-3.41719
-3.39926
-3.38346
-3.37032
-3.35992
-3.3519
-3.3456
-3.34017
-3.3348
-3.32886
-3.322
-3.31426
-3.30608
-3.29436
-3.27713
-3.60539
-3.59194
-3.57657
-3.56011
-3.54378
-3.5284
-3.51464
-3.50293
-3.49339
-3.48576
-3.47953
-3.474
-3.46848
-3.46238
-3.45534
-3.44726
-3.4383
-3.42534
-3.40655
-3.72227
-3.71107
-3.69822
-3.68437
-3.6705
-3.65725
-3.64515
-3.63456
-3.62561
-3.61815
-3.61178
-3.60595
-3.60008
-3.59363
-3.58615
-3.57733
-3.56679
-3.55092
-3.53199
-3.84058
-3.83125
-3.82052
-3.80886
-3.79705
-3.78559
-3.77487
-3.76521
-3.75672
-3.74932
-3.74276
-3.7366
-3.73035
-3.72351
-3.71558
-3.70614
-3.69515
-3.67908
-3.65938
-3.95995
-3.95218
-3.9432
-3.93339
-3.92332
-3.91336
-3.90383
-3.89496
-3.88687
-3.87956
-3.87284
-3.86642
-3.85988
-3.85274
-3.84443
-3.83442
-3.82294
-3.80927
-3.78962
-4.08013
-4.07364
-4.06613
-4.05785
-4.04924
-4.04058
-4.03207
-4.02391
-4.01624
-4.00908
-4.00233
-3.99578
-3.98911
-3.98187
-3.97347
-3.9636
-3.95195
-3.93829
-3.91727
-4.20089
-4.19546
-4.18919
-4.1822
-4.17484
-4.16728
-4.15968
-4.15221
-4.14498
-4.13807
-4.13143
-4.12493
-4.11833
-4.11125
-4.10321
-4.09439
-4.08397
-4.06801
-4.04557
-4.32206
-4.31755
-4.31231
-4.30643
-4.30013
-4.29354
-4.28677
-4.27997
-4.27324
-4.26667
-4.26027
-4.25398
-4.24763
-4.24087
-4.23332
-4.22545
-4.21628
-4.19956
-4.17728
-4.44354
-4.43982
-4.43547
-4.43053
-4.42516
-4.41943
-4.41345
-4.40731
-4.40112
-4.39499
-4.38895
-4.38301
-4.37703
-4.37071
-4.36352
-4.35598
-4.34844
-4.33294
-4.31111
-4.56525
-4.56223
-4.55865
-4.55453
-4.54998
-4.54505
-4.53981
-4.53434
-4.52875
-4.52312
-4.51754
-4.51205
-4.50662
-4.50094
-4.49457
-4.48764
-4.48191
-4.46823
-4.44535
-4.68716
-4.68476
-4.68186
-4.67846
-4.67465
-4.67046
-4.66594
-4.66116
-4.6562
-4.65113
-4.64606
-4.64111
-4.63634
-4.63169
-4.62722
-4.62276
-4.61571
-4.60176
-4.57929
-4.80929
-4.80743
-4.80512
-4.80236
-4.79923
-4.79574
-4.79193
-4.78785
-4.78355
-4.77906
-4.7745
-4.77005
-4.76598
-4.7624
-4.75969
-4.75809
-4.75082
-4.73331
-4.71289
-4.93165
-4.93025
-4.92846
-4.92627
-4.92376
-4.92093
-4.91783
-4.91448
-4.91088
-4.90699
-4.90288
-4.8989
-4.89534
-4.89232
-4.89021
-4.8886
-4.88208
-4.86431
-4.84629
-5.05425
-5.05323
-5.05188
-5.0502
-5.04825
-5.04605
-5.04365
-5.04107
-5.03826
-5.03501
-5.03137
-5.0278
-5.02451
-5.02158
-5.01913
-5.01621
-5.00879
-4.99469
-4.97936
-5.17706
-5.17637
-5.17538
-5.17414
-5.17269
-5.17109
-5.16939
-5.16763
-5.16572
-5.16315
-5.15993
-5.15666
-5.15356
-5.15068
-5.14785
-5.14426
-5.13763
-5.12601
-5.11264
-5.30007
-5.29961
-5.29892
-5.29804
-5.29702
-5.29596
-5.29493
-5.29408
-5.29332
-5.29149
-5.28837
-5.2852
-5.28227
-5.27951
-5.27673
-5.27327
-5.26765
-5.25804
-5.2464
-5.42323
-5.42291
-5.42241
-5.42179
-5.42112
-5.42049
-5.4201
-5.42035
-5.42161
-5.42099
-5.41729
-5.41378
-5.41079
-5.40807
-5.40549
-5.40262
-5.39833
-5.3907
-5.38107
-5.54648
-5.54619
-5.54578
-5.5453
-5.54483
-5.54449
-5.54465
-5.54658
-5.5524
-5.55401
-5.54801
-5.54323
-5.53963
-5.53657
-5.53396
-5.53172
-5.52919
-5.52421
-5.51775
-5.66998
-5.66968
-5.66928
-5.66882
-5.66842
-5.66826
-5.66882
-5.67225
-5.68461
-5.68381
-5.67607
-5.67104
-5.66763
-5.66488
-5.66268
-5.66115
-5.66017
-5.65845
-5.65615
)
;

boundaryField
{
    leftWall
    {
        type            calculated;
        value           nonuniform List<scalar> 
50
(
1040.38
982.789
925.928
869.685
813.781
757.971
702.102
646.088
558.248
438.468
319.355
202.631
91.8591
18.9745
-1.12862
-1.33552
-1.4783
-1.60545
-1.73591
-1.87307
-2.01178
-2.14943
-2.28579
-2.42027
-2.55258
-2.683
-2.81193
-2.9397
-3.06651
-3.1925
-3.31779
-3.44254
-3.56695
-3.69119
-3.81539
-3.9396
-4.0638
-4.18798
-4.31208
-4.43606
-4.5599
-4.68359
-4.80714
-4.93056
-5.05385
-5.17703
-5.30009
-5.42301
-5.54576
-5.66831
)
;
    }
    rightWall
    {
        type            calculated;
        value           nonuniform List<scalar> 
50
(
379.731
324.422
269.183
213.451
164.372
140.888
135.526
130.5
120.895
97.048
57.7862
17.8841
2.66391
0.141064
-0.288499
-0.497739
-0.725667
-0.935991
-1.13395
-1.31565
-1.49497
-1.66942
-1.84378
-2.02727
-2.21515
-2.39393
-2.56238
-2.72051
-2.8691
-3.00927
-3.14435
-3.27713
-3.40655
-3.53199
-3.65938
-3.78962
-3.91727
-4.04557
-4.17728
-4.31111
-4.44535
-4.57929
-4.71289
-4.84629
-4.97936
-5.11264
-5.2464
-5.38107
-5.51775
-5.65615
)
;
    }
    lowerWall
    {
        type            calculated;
        value           nonuniform List<scalar> 
62
(
1069.81
1063.88
1055.66
1044.64
1031.36
1016
998.8
979.964
959.691
938.121
915.438
892.025
868.446
845.066
823.974
806.576
794.284
787.458
784.659
782.838
777.93
772.59
771.724
742.332
683.351
624.26
565.316
506.667
448.275
391.304
328.502
270.138
265.29
252.254
234.33
803.886
750.223
706.659
661.537
609.88
549.32
479.989
402.427
833.088
803.683
747.71
657.552
605.545
596.115
601.694
602.426
595.81
574.079
543.948
515.143
485.527
456.384
433.355
419.851
412.534
407.598
407.435
)
;
    }
    atmosphere
    {
        type            calculated;
        value           nonuniform List<scalar> 
46
(
-5.72904
-5.72904
-5.72904
-5.72904
-5.72904
-5.72904
-5.72904
-5.72904
-5.72904
-5.72904
-5.72904
-5.72904
-5.72905
-5.72912
-5.72929
-5.72955
-5.72989
-5.73028
-5.73072
-5.73115
-5.73153
-5.73185
-5.73205
-5.73211
-5.73212
-5.73211
-5.73207
-5.73195
-5.73164
-5.73119
-5.73066
-5.73013
-5.72967
-5.72933
-5.72912
-5.72904
-5.72905
-5.72905
-5.72904
-5.72904
-5.72904
-5.72904
-5.72904
-5.72904
-5.72904
-5.73353
)
;
    }
    defaultFaces
    {
        type            empty;
    }
}


// ************************************************************************* //
