/*--------------------------------*- C++ -*----------------------------------*\
  =========                 |
  \\      /  F ield         | OpenFOAM: The Open Source CFD Toolbox
   \\    /   O peration     | Website:  https://openfoam.org
    \\  /    A nd           | Version:  7
     \\/     M anipulation  |
\*---------------------------------------------------------------------------*/
FoamFile
{
    version     2.0;
    format      ascii;
    class       vectorField;
    location    "0.00072/lagrangian/dsmc";
    object      U;
}
// * * * * * * * * * * * * * * * * * * * * * * * * * * * * * * * * * * * * * //


31765
(
(-1123.3 316.255 -159.464)
(-288.978 -101.229 35.6848)
(228.296 -3.50453 -151.288)
(-521.912 -570.715 663.098)
(122.992 -595.371 -608.084)
(663.098 -296.19 -344.949)
(71.2396 -30.3377 154.257)
(475.065 624.527 -47.2201)
(-58.1954 -1061.73 -213.122)
(-186.559 449.407 -784.916)
(99.9868 -544.38 -106.034)
(556.089 -159.079 36.9015)
(920.159 -354.788 -342.585)
(-745.915 -150.333 -679.374)
(-89.7819 186.25 -1119.6)
(-74.4057 -353.754 -228.867)
(301.967 -204.965 218.011)
(343.116 452.913 -279.051)
(-448.264 505.934 558.463)
(143.626 545.622 -848.063)
(-691.658 -61.1475 401.792)
(-110.005 552.267 480.092)
(-366.443 523.491 -730.117)
(526.927 397.98 920.763)
(612.263 -493.884 -12.3809)
(-370.686 -660.293 -121.567)
(-101.408 -127.509 -43.4343)
(1265.27 -388.563 865.237)
(-276.113 1092.69 740.163)
(-703.625 -885.752 153.934)
(809.475 112.544 644.922)
(82.5945 1107.74 368.099)
(-360.392 -395.601 804.628)
(346.022 580.685 -562.689)
(463.716 -459.473 416.542)
(-494.812 172.345 -1037.02)
(334.148 281.904 335.376)
(-1490.84 251.79 -1327.85)
(97.842 605.383 -111.087)
(-40.8137 -118.967 837.845)
(-17.3435 -504.99 -981.107)
(-630.296 -19.519 -18.681)
(269.664 -644.356 197.883)
(-453.462 674.503 -100.139)
(88.9488 926.438 450.752)
(608.622 405.72 233.472)
(36.082 139.132 409.261)
(-204.873 384.974 -98.5787)
(708.935 100.744 -777.09)
(430.252 -27.9773 -835.19)
(-1035.63 104.475 265.322)
(680.349 -241.758 1265.23)
(-52.5817 -245.578 18.0695)
(-77.2954 313.474 -136.554)
(-1089.6 47.9461 -526.809)
(-226.893 316.41 542.962)
(-627.249 446.866 1172.07)
(686.93 409.735 507.073)
(114.288 -621.314 155.816)
(212.592 -608.517 -228.388)
(-1069.96 601.083 -650.134)
(-379.969 67.202 206.01)
(892.461 1061.54 -219.578)
(-128.635 491.68 -423.649)
(122.036 433.676 -327.043)
(17.4493 -20.0545 -96.6091)
(-53.9924 -50.8344 216.919)
(346.833 -948.602 554.603)
(200.657 45.6086 -995.262)
(-858.994 170.96 -123.78)
(-843.603 18.4916 -906.047)
(-566.567 69.9232 -227.747)
(-51.2752 71.1218 637.793)
(127.308 39.6681 687.05)
(389.199 -184.914 710.192)
(-615.839 823.674 1024.45)
(-195.43 56.9381 -304.468)
(457.473 -173.334 -596.048)
(160.378 -69.5869 633.874)
(-22.3041 511.03 -287.398)
(-341.01 593.642 -260.002)
(-28.8567 64.9128 669.756)
(160.082 113.419 -382.518)
(386.074 -375.564 -367.875)
(604.348 261.602 -208.547)
(-134.466 -10.1276 -367.403)
(229.151 558.774 248.886)
(1159.14 -22.359 452.537)
(571.022 -989.99 -619.174)
(539.988 108.004 613.167)
(-159.678 634.025 669.581)
(740.585 79.4099 -767.38)
(406.148 -253.039 -464.924)
(-889.113 -119.974 -55.785)
(34.6151 -286.247 893.162)
(-663.982 -147.426 -674.19)
(322.234 -384.96 459.583)
(482.8 166.263 724.238)
(115.839 150.412 339.454)
(358.545 -161.051 17.1121)
(69.5932 -683.933 50.5149)
(-500.883 -246.038 327.537)
(598.027 465.947 -189.366)
(-183.451 52.6251 -169.493)
(-225.622 -126.797 -172.338)
(-62.1648 -170.887 -240.37)
(-498.822 -342.912 -1035.37)
(170.43 -1032.8 -409.386)
(-171.643 -126.548 721.298)
(518.211 -630.872 -1019.56)
(-548.612 -394.045 473.335)
(-358.548 595.062 360.945)
(-1055.42 838.681 -250.714)
(1133.36 -232.614 -785.79)
(631.316 -318.745 498.671)
(356.431 211.506 80.0052)
(-11.8577 -682.388 19.54)
(-158.698 123.518 188.946)
(-155.516 132.336 -73.7225)
(681.405 182.92 160.224)
(-234.369 -1015.22 182.849)
(-619.783 -47.4174 46.1743)
(-205.212 842.864 -357.442)
(-465.841 384.312 768.942)
(376.15 243.334 -732.551)
(-1164.02 -62.4287 413.739)
(-515.584 240.605 -516.863)
(-585.179 -45.4172 -136.593)
(137.314 360.563 -312.492)
(-604.403 37.0062 475.579)
(388.331 545.316 281.997)
(-0.503136 -342.153 19.297)
(778.054 62.8454 -590.06)
(-215.468 733.62 165.777)
(594.112 490.836 1.20974)
(-731.977 649.975 -64.7891)
(494.81 -552.01 286.935)
(62.1474 -664.458 113.524)
(-337.788 -397.047 -23.7401)
(411.301 485.954 -122.24)
(-587.589 173.999 -911.803)
(49.2941 741.46 97.6626)
(-1171.22 -3.08783 797.363)
(262.313 22.3562 -333.849)
(688.583 674.06 -6.20481)
(866.172 289.154 -125.443)
(57.3195 -713.034 688.716)
(-371.832 -691.073 -215.903)
(-46.2099 -412.716 733.769)
(836.737 5.66578 36.733)
(427.383 -227.261 460.158)
(-112.024 -205.441 25.7377)
(448.905 -803.297 681.854)
(700.902 362.461 -230.147)
(-121.566 428.46 -1121.53)
(-553.84 -169.113 489.873)
(831.269 -763.601 327.348)
(819.676 -52.4747 223.583)
(-138.639 835.216 -85.629)
(686.126 -170.428 -295.816)
(-486.94 1253.11 -115.107)
(-284.61 739.9 142.594)
(765.227 386.04 -907.355)
(-1211.85 -318.638 -476.13)
(-406.445 246.969 691.272)
(741.103 -966.44 312.495)
(75.8221 -554.913 712.39)
(172.17 907.121 -809.006)
(-110.023 439.855 990.076)
(-212.418 -14.2961 -68.6337)
(-313.893 65.2178 -146.511)
(-562.003 306.027 -371.706)
(-440.653 -447.457 401.795)
(534.011 -479.882 -821.368)
(-883.731 742.673 365.055)
(108.458 -269.606 136.427)
(1588.22 462.692 -300.78)
(-328.095 -259.892 -580.31)
(-128.283 397.135 -318.873)
(-394.112 258.335 -262.262)
(100.482 -4.38858 419.252)
(-1417.24 507.055 -679.762)
(257.634 -411.233 -325.494)
(-708.703 -925.268 176.436)
(-253.059 100.034 54.5338)
(840.189 -1146.36 776.958)
(87.868 -528.793 204.895)
(-446.019 -405.825 -645.853)
(-493.215 577.565 -351.641)
(-881.144 325.2 -33.3126)
(494.659 17.9728 -62.2003)
(294.492 42.5661 366.334)
(1011.86 1157.04 -94.5311)
(661.003 -431.234 -831.795)
(424.677 -507.929 467.349)
(-279.341 -384.573 -341.37)
(-661.286 301.663 -115.299)
(-277.619 168.602 100.486)
(-1244.82 272.033 80.9375)
(193.97 -1351.85 627.598)
(-304.147 -328.344 -364.136)
(-915.911 -367.053 1245)
(713.252 -409.68 -271.099)
(-504.019 901.987 98.0419)
(93.3108 -309.408 355.738)
(-393.56 -281.807 975.097)
(163.942 963.898 656.002)
(788.043 352.757 151.053)
(-698.57 -81.6522 495.196)
(212.585 444.724 42.2294)
(110.647 -4.55977 -625.96)
(-343.163 316.792 -181.605)
(148.668 -369.311 112.346)
(691.676 82.4279 -393.091)
(609.95 -551.15 132.133)
(250.241 -372.013 -145.269)
(293.449 -370.403 889.39)
(446.743 909.861 565.303)
(-981.406 737.704 6.2598)
(291.398 -44.1482 -176.17)
(61.8094 288.096 21.7673)
(-313.214 -613.099 689.215)
(-198.478 -1103.08 -190.198)
(-435.353 -478.837 714.702)
(215.339 1173.28 661.8)
(111.125 -320.341 -759.664)
(-145.925 94.3204 72.7091)
(62.2534 492.494 186.779)
(-378.583 371.374 -531.452)
(72.5809 -347.302 -451.159)
(644.658 495.823 -621.577)
(-437.923 -635.16 -166.164)
(-732.156 -1086.89 512.578)
(526.527 -248.17 144.639)
(294.986 -317.521 -553.822)
(-322.82 -97.999 46.6289)
(-518.554 -328.291 360.802)
(-436.731 -627.356 1189.04)
(-417.798 376.12 140.348)
(232.108 290.446 189.465)
(-586.071 619.46 -602.293)
(-231.885 597.563 -816.157)
(-23.6318 -585.536 -307.653)
(-376.276 502.49 780.682)
(1391.16 475.451 -218.124)
(16.7221 -1634.67 -77.0938)
(537.959 -263.169 318.896)
(127.711 -563.889 -355.716)
(701.476 1493.47 339.843)
(331.991 742.818 37.5235)
(596.74 140.357 221.872)
(556.482 769.789 -713.275)
(-313.567 -58.1506 -1493.51)
(252.041 716.101 -53.9106)
(-667.17 230.722 -495.597)
(-74.2118 -840.532 -319.785)
(221.384 -120.224 -635.849)
(-119.767 -212.748 -659.524)
(-239.947 111.992 -395.928)
(-834.928 483.403 133.308)
(-223.749 -59.9478 352.767)
(-452.021 -84.1712 -1048.21)
(1216.35 291.406 251.927)
(-127.567 -107.935 124.692)
(597.889 -437.827 1056.46)
(-426.733 243.475 296.714)
(92.7484 -294.77 -422.283)
(-294.521 85.6941 470.082)
(-432.189 76.7971 53.1102)
(-1135.81 590.214 -144.996)
(338.176 -236.581 -174.633)
(40.9785 -650.169 155.879)
(-396.085 452.591 228.081)
(619.076 -667.475 295.95)
(-332.925 -141.28 -333.508)
(264.886 400.048 253.48)
(138.704 -793.295 -624.946)
(-525.11 685.628 -832.961)
(-330.033 -1.88534 -229.342)
(494.349 632.957 735.638)
(-98.9208 353.468 -591.848)
(376.628 753.414 824.767)
(391.464 -507.425 -495.151)
(-23.4503 926.79 534.54)
(1391.27 -124.925 -1148.73)
(-107.195 830.123 -402.287)
(-350.851 -654.034 607.737)
(-484.841 432.23 -136.516)
(532.451 367.32 -473.523)
(398.248 -0.948992 376.978)
(-533.217 -384.71 -252.083)
(165.857 -221.858 -45.5085)
(225.42 -531.353 -436.303)
(-462.685 -41.6801 -471.604)
(-246.773 -615.461 -135.879)
(-795.237 -682.666 487.454)
(-256.248 -592.107 -9.76201)
(-98.9344 1208.27 475.622)
(4.7601 -296.73 377.115)
(1458.2 -566.158 7.95723)
(-535.405 -181.098 -169.212)
(-522.525 -125.326 246.049)
(-375.592 867.337 -20.6983)
(-465.408 364.33 7.1284)
(-866.993 773.482 -504.542)
(333.836 15.5451 1150.63)
(961.065 301.438 448.792)
(350.775 21.621 -318.598)
(740.185 -120.221 -20.5095)
(64.112 951.586 -73.7065)
(-505.429 233.277 976.678)
(-469.553 19.913 180.969)
(-693.715 -434.983 -312.63)
(88.815 -302.165 715.115)
(808.852 -425.821 -183.173)
(-2.70539 277.913 1038.06)
(906.863 500.272 -576.706)
(369.024 -65.1004 799.965)
(159.008 447.222 -48.9909)
(765.649 672.734 -469.778)
(-98.5642 976.636 -616.691)
(-133.891 871.678 3.23598)
(-74.4069 -304.575 -620.737)
(-178.941 -164.907 709.901)
(-1174.73 -12.1243 -7.27675)
(184.365 193.057 148.148)
(-575.263 -241.967 412.439)
(-789.515 -225.805 -875.867)
(684.101 -391.583 -37.0173)
(-118.791 87.7408 497.411)
(330.501 -196.981 -130.86)
(706.937 223.176 -856.576)
(-921.806 -92.0372 -153.335)
(-785.96 68.7452 374.379)
(-391.982 -625.705 972.434)
(58.2504 -308.577 -303.158)
(-52.9675 771.356 -132.988)
(601.561 -1141.31 119.688)
(182.016 852.634 -1.25552)
(-867.997 -268.681 45.9582)
(-502.312 288.84 398.431)
(-144.603 400.562 1420.66)
(441.332 51.6742 67.4013)
(-536.521 1167.17 -102.271)
(-143.937 -26.5374 327.722)
(1.72827 -203.134 139.855)
(-54.218 151.617 -52.6819)
(841.328 -378.123 -102.385)
(-128.526 624.812 931.886)
(180.598 576.835 588.682)
(-717.376 529.584 538.595)
(-805.526 161.138 -214.286)
(321.472 1051.68 610.992)
(121.661 -86.0196 215.346)
(280.725 98.2522 -672.221)
(-348.247 419.958 -16.3049)
(377.513 -137.19 -866.357)
(-307.558 -134.383 -254.295)
(167.119 -524.92 568.643)
(-733.763 -506.429 113.662)
(225.978 455.444 82.6244)
(419.52 329.792 330.172)
(-87.776 -782.683 -230.188)
(-927.024 -790.583 -662.865)
(-246.699 256.619 -279.159)
(-117.6 138.573 137.88)
(-608.168 -455.604 862.212)
(-968.141 -315.654 95.1328)
(-1490.34 -663.806 -386.991)
(-501.201 13.7673 272.985)
(-611.281 819.587 -487.506)
(120.278 271.976 820.177)
(-162.151 989.868 34.0079)
(-134.802 32.6521 535.575)
(-156.011 880.123 -200.508)
(831.748 56.8919 847.164)
(206.765 -573 1441.3)
(-48.3448 -7.68181 83.5895)
(-1136.2 -33.0345 -267.711)
(965.081 420.857 -12.689)
(458.801 -1527.86 -629.705)
(-31.7246 477.804 -744.115)
(-969.908 356.608 229.597)
(256.827 627.366 778.13)
(-135.812 -255.158 389.852)
(-69.45 -99.3583 406.674)
(339.777 -336.874 383.6)
(212.097 -133.757 12.3684)
(305.444 271.556 507.521)
(-66.8193 -278.291 103.466)
(594.068 246.704 -842.129)
(-250.734 643.967 -1119.79)
(151.599 -836.404 -389.307)
(213.675 619.006 -230.281)
(258.017 804.103 -751.78)
(-970.696 359.138 205.587)
(-305.231 171.894 -15.9784)
(109.071 9.3484 175.912)
(81.8544 569.233 574.601)
(-659.103 -103.119 37.2559)
(474.202 -39.1126 -565.862)
(-411.272 -297.659 -732.294)
(-406.081 -134.422 -910.664)
(178.653 -269.918 825.537)
(-930.378 156.8 -256.091)
(-700.793 475.774 112.006)
(343.436 72.4912 565.862)
(156.237 1030.55 -467.032)
(-209.594 -654.314 111.155)
(-20.596 116.185 -945.052)
(-591.773 -253.874 -0.324416)
(-227.674 1082.05 98.75)
(-288.405 -332.484 9.8519)
(-230.928 -62.9848 77.9577)
(-367.577 -502.933 -270.879)
(152.486 -596.351 -329.127)
(-679.486 791.674 -1.78419)
(-727.262 -355.223 -405.71)
(298.541 -1054.77 44.2907)
(-331.199 -659.312 -94.04)
(359.383 -782.43 -125.253)
(-735.218 -595.325 -605.221)
(-118.45 2.35751 368.25)
(-294.023 697.312 -87.0896)
(-179.213 358.418 -577.342)
(116.231 1245.79 207.08)
(747.075 -575.793 -832.491)
(412.589 -341.2 131.722)
(87.4134 -214.421 87.8065)
(-135.807 -339.389 -160.71)
(336.353 -702.303 -506.529)
(655.232 388.109 -115.848)
(-21.1682 -667.21 177.936)
(739.197 -1141.98 211.018)
(311.017 -501.848 928.196)
(-1167.24 -259.065 1151.89)
(139.103 -2.7494 -1206.23)
(536.642 -65.1414 88.2039)
(-1000.26 862.752 -140.217)
(402.489 -82.3491 -35.5804)
(535.05 -959.357 306.757)
(-191.749 -335.002 1385.72)
(188.174 -323.885 -345.86)
(153.363 -78.3983 478.745)
(236.847 430.317 -168.702)
(-24.9785 315.29 512.906)
(-50.7359 -360.437 839.811)
(1201.67 686.446 17.0925)
(-359.149 -202.772 -20.7727)
(-62.9088 -575.371 -857.806)
(467.075 -647.133 50.8209)
(799.192 299.688 -403.793)
(258.474 -594.214 -470.657)
(-164.995 -132.758 -974.013)
(213.743 -921.171 -207.787)
(221.871 -625.333 -205.946)
(-577.453 79.3915 -175.307)
(430.061 403.852 407.941)
(-381.676 1122.89 -707.655)
(465.784 337.24 -386.928)
(-566.955 222.497 336.412)
(726.097 -148.827 455.073)
(-451.803 -135.655 -484.827)
(447.491 -149.356 726.952)
(848.64 -65.8665 229.242)
(102.233 -51.1592 -723.123)
(275.494 -912.977 -487.293)
(-1034.91 -403.85 34.5218)
(673.186 -147.37 -498.925)
(-782.113 259.129 34.678)
(532.45 669.099 293.177)
(305.202 249.083 -74.2114)
(41.7463 -381.612 530.077)
(-8.91602 404.421 -989.153)
(-355.581 280.798 -340.178)
(546.237 -490.3 -83.7562)
(-330.386 82.0102 12.7689)
(-555.019 608.287 -597.445)
(-412.753 -125.258 1486.03)
(341.376 -984.886 -855.476)
(-258.427 352.346 -324.258)
(706.625 507.996 1111.15)
(585.854 201.269 -192.024)
(599.965 -90.5153 424.194)
(-418.224 460.421 94.1713)
(-127.961 -415.475 559.664)
(683.949 -673.017 -117.319)
(-194.192 -659.243 -82.7433)
(340.991 325.991 10.1264)
(577.256 -157.496 -801.493)
(1211.81 236.931 -39.2447)
(-697.903 224.66 -424.322)
(309.492 63.6145 276.194)
(934.701 -818.013 529.498)
(-68.4519 969.962 351.213)
(425.721 -335.988 -137.466)
(154.513 -293.799 -1134.12)
(424.173 -11.1293 58.0545)
(-33.164 -152.596 -47.0155)
(118.76 -267.782 298.595)
(571.709 694.932 -216.614)
(-392.343 -420.929 -937.413)
(-89.5423 -7.79591 -743.457)
(216.662 -444.141 -51.4655)
(-21.4824 -353.726 -284.942)
(-711.046 -37.0896 -347.246)
(629.869 -134.784 409.177)
(141.234 577.25 -243.821)
(741.101 208.52 -380.493)
(321.341 85.4151 -631.573)
(-1007.73 -147.05 211.422)
(46.563 -982 250.565)
(-286.562 380.118 -705.459)
(-363.613 -302.357 189.946)
(-500.316 1056.42 782.476)
(-396.954 -564.121 481.922)
(-637.299 111.344 -307.231)
(901.29 -82.9318 -515.956)
(-283.604 -393.355 -28.6009)
(859.994 942.28 -343.646)
(186.116 366.037 -203.843)
(-535.744 -351.974 55.4596)
(133.122 451.16 -76.4211)
(165.204 49.0228 -30.8792)
(-134.993 -447.506 -152.524)
(-155.192 614.346 -184.962)
(-194.105 -87.2768 -97.6543)
(-463.143 -740.697 240.831)
(142.94 -766.952 131.058)
(261.779 702.892 -57.8788)
(237.556 -601.255 531.944)
(-689.697 -367.465 -47.4837)
(154.159 499.194 152.909)
(1309.16 1045.24 -486.704)
(769.515 -898.179 451.587)
(-123.172 -253.926 -8.48174)
(-350.191 -189.361 -341.884)
(350.609 -425.351 -324.59)
(360.18 122.037 196.949)
(-397.375 -579.035 71.1003)
(51.7436 -619.855 288.965)
(43.7387 174.433 851.415)
(209.266 -824.7 276.715)
(-662.428 -33.426 -515.762)
(-756.881 133.535 -129.814)
(248.373 226.774 452.595)
(-64.9274 -115.351 -449.036)
(144.247 -527.671 355.804)
(248.889 445.225 -674.868)
(-69.9272 -266.549 -785.032)
(962.454 -692.9 615.606)
(164.862 -261.916 -152.961)
(793.827 132.216 181.068)
(-461.084 732.942 732.519)
(-478.794 1308.7 532.45)
(-76.4954 -348.514 -949.257)
(-248.105 -80.8179 191.795)
(-961.094 -273.697 212.457)
(-300.483 -922.748 358.765)
(-376.961 -165.976 860.378)
(-703.417 156.58 560.897)
(-214.198 10.4047 195.373)
(803.176 -12.099 -421.076)
(866.371 -119.707 -1080.66)
(-859.691 194.123 7.20031)
(-40.1111 98.6616 935.464)
(363.842 214.101 617.448)
(-306.676 -662.91 -297.78)
(688.069 321.19 190.089)
(-868.081 -458.884 -373.529)
(-310.184 107.13 714.997)
(-618.708 201.437 -204.969)
(57.8135 408.994 823.496)
(-123.962 496.736 521.172)
(1091.87 -429.105 474.564)
(194.624 140.292 620.789)
(432.524 -944.378 375.766)
(-189.183 -21.0561 192.607)
(-149.297 823.47 66.7821)
(-804.855 -1096.61 -217.483)
(-321.833 418.245 -697.495)
(446.976 -472.152 -578.58)
(-953.173 -196.042 -407.459)
(-419.299 744.36 218.495)
(948.616 900.792 140.968)
(-1135.46 -242.366 596.592)
(-621.411 -374.508 -52.1829)
(-274.18 -578.491 -400.35)
(514.881 198.092 385.15)
(-37.9074 94.879 -78.1805)
(988.212 -86.2988 703.678)
(-485.4 -1025.03 -475.462)
(-148.844 401.084 -125.509)
(438.671 -139.967 -326.66)
(580.518 -776.034 -177.091)
(138.938 480.752 552.321)
(103.919 -398.587 -658.936)
(385.641 -975.743 -86.0805)
(60.0308 -16.7222 298.056)
(95.2651 -183.894 -188.031)
(-373.645 -102.188 -1445.66)
(1029.12 725.484 -202.033)
(350.742 -677.226 42.7201)
(55.2739 311.865 -513.705)
(863.216 -220.581 30.2762)
(622.06 386.189 -964.358)
(-599.936 215.587 -59.7811)
(940.556 551.453 528.027)
(-288.03 93.3167 1403.21)
(-485.204 -572.169 -707.779)
(611.608 360.923 -993.603)
(278.815 495.169 1243.77)
(-258.073 -80.8306 197.425)
(318.88 -318.546 248.929)
(-242.244 -320.141 916.233)
(1095.49 -310.681 342.362)
(289.453 561.025 -477.595)
(271.084 129.264 503.705)
(-128.118 218.053 760.85)
(-709.117 -572.602 301.817)
(65.892 -266.327 -50.9219)
(645.546 744.509 824.768)
(-191.178 463.518 -487.328)
(207.17 -323.067 312.69)
(265.702 460.514 204.782)
(-485.539 257.443 -590.893)
(396.579 568.963 -118.78)
(-136.704 -973.86 -465.259)
(46.1404 -530.357 -69.661)
(165.803 365.842 -277.001)
(54.5045 355.79 -636.802)
(-327.633 -70.4263 572.433)
(145.468 -54.4273 -89.199)
(1567.17 -68.9907 -10.7261)
(517.193 304.175 297.774)
(-490.169 -533.353 -447.023)
(96.9508 381.648 -45.4821)
(-1239.95 230.401 215.591)
(593.275 -894.913 -877.841)
(-980.369 464.62 363.442)
(164.659 -157.397 439.058)
(-1513.88 -39.5698 122.684)
(-77.9817 248.732 -452.387)
(-208.294 -38.8527 620.941)
(587.879 58.1537 -400.612)
(-6.24716 379.653 -321.441)
(-98.9243 -46.8724 -339.706)
(560.846 -279.593 218.53)
(121.457 75.9006 -255.75)
(485.515 -692.516 380.715)
(809.382 187.058 184.388)
(-233.958 155.243 -534.27)
(779.065 -145.237 -401.172)
(356.16 -102.834 -950.552)
(96.8551 298.292 -302.35)
(-405.793 187.167 -425.13)
(-1073.75 135.103 131.634)
(710.481 -132.222 -352.442)
(67.9466 406.451 -744.584)
(-177.205 538.902 -929.139)
(-269.794 245.509 -660.164)
(208.221 -323.009 -493.525)
(-617.2 233.12 306.56)
(961.683 -274.72 -459.763)
(-381.84 -573.124 -22.9167)
(-822.741 364.838 -486.849)
(-1073 -195.398 930.998)
(861.298 -52.7184 -955.458)
(484.703 423.579 400.962)
(-1109.76 -543.891 678.908)
(133.037 -486.406 189.233)
(117.963 398.281 -295.397)
(1345.12 -37.3789 -480.996)
(-424.296 -694.887 -316.366)
(320.959 124.064 291.194)
(-43.8696 -6.70193 -350.971)
(441.214 -169.949 -107.754)
(-482.773 -1034.14 37.9662)
(-544.656 -812.815 -778.527)
(533.24 421.801 610.03)
(232.748 245.982 178.983)
(136.14 76.0948 145.908)
(651.397 -449.508 261.79)
(722.177 740.512 -250.79)
(384.388 -72.6719 376.563)
(-23.2318 -31.9986 -151.294)
(581.922 478.517 -888.675)
(-380.314 425.003 384.604)
(125.548 -495.596 -672.952)
(-39.9987 -24.8334 -392.626)
(-60.3647 -32.9049 969.645)
(207.391 94.5297 -98.7098)
(1134.65 353.499 -317.459)
(459.556 -121.159 -330.516)
(284.449 78.3674 450.524)
(504.034 274.485 335.922)
(871.404 -188.495 769.434)
(-130.656 -622.29 -173.609)
(-885.643 -422.655 -156.888)
(3.55042 -37.6731 -47.6989)
(-127.669 -148.53 136.58)
(85.3555 1125.08 -342.635)
(-32.5409 517.687 -651.098)
(868.72 -143.597 885.32)
(510.322 170.792 -161.47)
(652.594 438.476 479.968)
(-794.333 150.155 44.0526)
(-636.591 315.762 -134.643)
(587.475 -811.242 636.71)
(-155.55 -53.4396 -641.13)
(-332.044 -944.212 -742.415)
(56.5329 -491.304 -126.693)
(314.247 182.418 -343.945)
(202.769 -1459.1 -333.209)
(-1077.93 -68.9846 -587.985)
(283.131 501.511 -513.648)
(-107.479 -366.959 1317.22)
(-716.223 316.978 -364.938)
(367.065 405.572 -759.334)
(124.002 672.497 161.579)
(217.469 389.429 -368.246)
(-9.96068 -24.8759 649.885)
(-64.5468 393.856 -815.275)
(-255.909 -59.578 -48.062)
(-28.9826 -489.929 644.773)
(-199.54 744.855 24.4992)
(220.029 33.1375 29.7662)
(-729.415 -526.537 -888.499)
(452.104 -68.8952 -597.314)
(470.326 551.345 180.016)
(-798.681 689.993 320.323)
(55.1029 -1150.41 176.772)
(312.764 -42.5701 34.8211)
(-316.282 -1380.63 -664.201)
(-211.496 -235.858 -489.126)
(-61.6535 285.964 -561.91)
(-376.007 -423.355 -215.365)
(-555.712 -170.329 -403.914)
(-212.193 310.25 -326.579)
(-298.352 2.30263 -520.839)
(-23.9212 3.85 458.333)
(178.905 37.1023 172.53)
(-770.879 -822.666 -386.335)
(237.575 -1052.22 747.798)
(-589.509 178.696 -566.317)
(411.315 477.863 -973.245)
(795.629 233.24 -534.898)
(1356.43 318.277 24.359)
(586.205 -301.334 202.741)
(1038.22 500.005 617.027)
(132.556 -48.3537 1035.94)
(-158.796 28.8635 -269.538)
(-367.823 -411.416 -163.313)
(358.971 -758.505 -98.9628)
(748.281 250.041 131.85)
(-469.54 334.756 -916.793)
(725.831 291.569 159.174)
(1021.55 -362.471 -283.88)
(422.98 -170.82 -289.931)
(845.648 894.351 -375.721)
(137.581 603.614 187.381)
(-407.248 -662.51 829.774)
(92.3538 -173.801 -173.75)
(307.114 240.92 -500.191)
(858.726 209.727 -449.087)
(662.244 206.867 -142.87)
(-157.459 -1146.12 308.526)
(123.628 189.695 20.5202)
(-61.3781 227.456 321.221)
(376.643 275.988 -479.361)
(-136.794 220.498 -3.64771)
(-69.7125 -59.3787 -107.975)
(907.378 -757.211 631.178)
(-429.703 -256.574 360.372)
(-1024.4 128.009 -136.302)
(495.186 919.568 167.775)
(240.761 -627.645 -219.636)
(928.997 -860.577 67.7352)
(-1025.33 848.07 458.88)
(520.549 -502.153 153.437)
(417.764 -581.73 -202.966)
(-34.4633 -393.31 -221.285)
(-897.381 -307.45 -49.5268)
(-697.126 -91.0995 -1275.03)
(-561.653 373.016 -213.024)
(859.633 -186.149 -70.5277)
(836.156 -520.22 333.678)
(-75.0408 146.25 -551.317)
(-196.967 58.9882 -572.101)
(-125.319 -150.179 464.495)
(785.501 558.564 -267.314)
(-456.196 -410.969 277.778)
(-973.123 479.102 -412.594)
(-465.004 177.057 221)
(-615.557 -945.173 -74.0372)
(-187.011 -481.228 1.38811)
(-387.455 346.266 493.372)
(-76.3728 -488.965 -134.639)
(907.137 26.0609 55.8035)
(166.991 -516.061 -624.013)
(-176.137 281.565 241.584)
(217.383 233.192 -160.826)
(409.916 -1028.48 616.549)
(-138.351 171.072 -1214.06)
(-17.9779 -214.097 -589.198)
(-224.116 431.28 434.745)
(-400.222 312.55 -915.493)
(-137.191 209.648 -344.732)
(350.806 534.247 -317.908)
(-181.251 251.976 376.801)
(-479.146 -733.99 257.015)
(-554.127 -926.561 -606.45)
(-494.716 92.3462 -101.583)
(-298.649 355.149 196.061)
(904.641 79.0361 -1268.1)
(-602.132 -192.371 245.543)
(593.07 545.461 -69.5866)
(151.851 696.731 -584.922)
(-651.663 -170.913 362.377)
(589.875 249.013 963.534)
(-78.3296 -149.063 62.9934)
(-406.175 62.4069 125.519)
(68.0646 -191.336 -767.665)
(-838.177 -21.8431 -702.421)
(132.647 265.14 491.841)
(218.898 463.227 -473.67)
(-328.228 127.122 12.1178)
(138.317 -636.919 -16.199)
(1034.39 -254.116 1003.86)
(-382.351 -221.862 -757.355)
(1086.58 -513.825 -151.002)
(869.583 -145.624 110.76)
(340.141 -97.7249 365.958)
(233.857 -613.233 166.99)
(-512.402 626.071 -616.615)
(523.591 -1021.71 -312.736)
(368.448 132.702 436.209)
(-393.585 -321.737 1100.84)
(1439.25 -653.062 -100.533)
(-37.859 -627.9 640.325)
(159.205 353.699 633.39)
(-103.424 -923.532 268.665)
(-456.008 88.024 -26.8786)
(975.727 -307.492 214.957)
(-200.632 -264.238 222.651)
(-91.3071 1194.34 -624.763)
(34.5266 -314.812 154.39)
(924.425 -600.061 -719.214)
(297.936 -356.638 -211.308)
(709.565 518.657 472.121)
(577.201 -202.825 -889.041)
(172.259 -130.976 177.07)
(653.968 -726.909 825.087)
(381.621 -201.794 -457.81)
(111.314 591.993 -437.547)
(144.505 -784.491 673.312)
(-171.21 823.809 -65.5425)
(-89.0713 499.366 208.247)
(-585.244 407.944 102.736)
(-1085.04 725.531 -119.496)
(-359.883 330.602 825.134)
(-74.3165 44.3914 -404.097)
(1036.76 -849.231 -133.515)
(39.2334 482.171 -815.552)
(-260.405 896.984 877.14)
(-363.712 -178.979 -308.955)
(-898.597 88.3427 302.443)
(587.376 672.548 139.628)
(798.255 -307.314 -616.235)
(32.4598 -355.554 76.4659)
(-437.252 -215.568 357.822)
(761.826 1107.63 315.15)
(425.202 799.798 146.837)
(33.0853 -413.573 -363.56)
(936.646 56.5165 -5.60032)
(-281.148 -145.089 -911.478)
(-172.199 929.851 -246.652)
(399.447 -128.69 280.588)
(-888.868 -285.932 263.881)
(-138.666 -92.1959 -488.376)
(46.1511 -175.93 127.153)
(-649.888 -509.835 392.45)
(335.917 148.244 -197.297)
(123.567 -637.635 -1120.94)
(255.024 114.709 -421.229)
(637.935 -384.43 -299.565)
(95.8599 -648.271 354.121)
(306.881 -224.055 -64.2173)
(-179.549 151.42 -724.285)
(27.5997 624.644 124.374)
(-561.421 -875.886 -62.126)
(-578.03 368.448 -262.706)
(774.007 126.986 -359.838)
(223.979 -888.723 576.314)
(120.108 50.0309 -290.329)
(-11.8687 -881.041 554.413)
(467.628 -440.224 -456.946)
(161.363 633.628 333.267)
(-139.854 -550.201 353.301)
(226.116 383.409 -411.288)
(-229.648 40.4389 -301.151)
(217.675 461.423 -617.419)
(541.61 251.602 296.986)
(141.687 -443.789 529.241)
(175.484 62.6593 -22.5934)
(177.946 180.46 280.778)
(-813.133 -178.371 330.575)
(-561.568 -538.855 1052.54)
(-630.293 877.442 1274.11)
(255 184.831 79.2075)
(1027.69 57.14 63.5211)
(-718.779 777.062 -961.187)
(809.066 359.407 149.038)
(-1191.95 353.453 -668.988)
(114.492 -587.732 -456.822)
(-491.195 -222.718 1343.45)
(213.891 -900.7 275.79)
(851.508 -465.318 265.061)
(767.357 -362.548 -457.151)
(296.764 -900.143 -336.842)
(373.513 369.523 263.609)
(135.14 363.999 86.9868)
(346.198 150.683 626.472)
(372.19 28.8316 -312.825)
(212.307 506.638 -358.011)
(291.555 -232.088 -498.984)
(642.003 -409.036 -833.733)
(-146.221 -712.606 384.38)
(138.681 110.858 -462.012)
(-436.213 251.711 -6.24416)
(535.939 158.688 -1658.64)
(611.926 480.285 -449.622)
(298.633 739.597 -231.166)
(880.542 117.067 732.425)
(205.521 953.847 -937.495)
(-643.715 -376.284 275.509)
(61.3122 -28.3995 -955.985)
(419.492 -505.128 -304.949)
(-479.406 -829.087 -121.217)
(-364.668 -504.323 -326.579)
(520.485 0.672829 -668.708)
(18.4366 -52.5299 1142.31)
(201.774 150.252 -222.835)
(-18.1034 -2.70768 -237.811)
(341.551 -140.968 307.913)
(72.4222 -404.901 601.248)
(-183.213 364.273 -337.881)
(-220.033 277.069 -350.412)
(395.149 -465.453 325.205)
(380.992 -87.1088 -23.6623)
(-391.569 -55.8073 170.529)
(-939.394 -673.604 500.856)
(735.05 390.827 29.5118)
(-695.645 -758.419 -538.947)
(267.584 307.746 -224.082)
(-535.554 320.963 -519.085)
(203.475 -497.925 -129.437)
(499.117 -261.861 -832.595)
(237.461 282.369 657.371)
(403.024 587.422 150.763)
(113.082 -489.72 -189.926)
(482.816 548.759 -12.8472)
(748.137 117.83 -182.456)
(186.485 302.404 -85.202)
(175.512 4.10925 -436.696)
(304.752 999.936 176.821)
(496.861 -183.734 -99.2902)
(412.023 875.199 -133.925)
(-310.513 76.8394 -69.2252)
(-194.82 779.299 199.265)
(132.575 168.357 -536.031)
(-674.199 -301.401 124.337)
(-427.762 -521.165 -381.818)
(-152.714 702.169 795.905)
(491.757 368.943 223)
(-1226.3 -724.851 -291.995)
(137.02 198.998 51.7317)
(91.108 76.2196 -195.465)
(-399.561 1087.97 940.493)
(-171.823 355.555 817.643)
(-648.442 -898.224 378.008)
(441.53 24.5241 102.369)
(277.002 646.652 602.83)
(-504.028 215.917 632.363)
(238.695 25.0785 -250.867)
(470.976 519.318 658.218)
(-816.145 -165.655 -345.956)
(799.523 892.49 612.991)
(-271.032 -496.007 -23.6875)
(1232.85 -500.685 254.635)
(-170.492 -179.191 721.662)
(99.2818 -177.149 -317.548)
(-114.823 -361.884 -348.09)
(-224.4 78.4004 163.07)
(30.5649 -437.806 -540.577)
(-219.926 833.839 412.368)
(170.212 -453.037 -70.1223)
(-184.204 128.209 252.162)
(113.227 1285.42 45.6508)
(155.34 152.603 592.872)
(165.174 832.451 512.351)
(-75.6285 -120.547 990.027)
(832.988 1509.15 104.516)
(45.5142 -254.455 36.7044)
(143.268 -327.833 289.643)
(649.931 -446.385 -401.338)
(42.2614 -72.9164 319.545)
(-163.948 -1.11956 605.181)
(608.989 607.92 131.038)
(-275.564 1147.71 36.396)
(-1273.96 35.0526 595.265)
(533.195 475.26 98.4794)
(-193.93 -370.833 -869.972)
(557.728 139.357 720.059)
(-172.83 739.318 -1005.14)
(-523.371 66.027 -79.3805)
(-547.696 303.649 -827.849)
(-943.452 936.409 -419.664)
(-653.246 464.573 210.929)
(498.579 508.063 777.824)
(-353.087 -568.034 -888.215)
(-1527.97 -1243 182.038)
(285.896 -30.1071 -1241.02)
(401.777 -985.06 519.358)
(373.785 1270.99 -806.295)
(-98.5996 565.491 -101.85)
(-619.713 426.131 -187.12)
(-661.803 -694.327 256.064)
(-509.812 -147.192 -635.684)
(-191.513 -32.4652 2.87428)
(626.433 339.181 -369.378)
(-508.722 661.983 -694.638)
(-634.254 -207.134 38.2594)
(-1348.81 -307.083 406.537)
(550.002 -429.35 -235.47)
(-694.084 163.46 904.321)
(-259.777 -486.559 226.233)
(-915.821 -580.538 13.8299)
(-246.068 860.44 -519.525)
(-1004.39 362.564 -61.8065)
(-166.727 297.496 -311.964)
(-4.79841 -865.427 -1314.73)
(-280.213 -333.814 -402.581)
(1042.27 550.736 342.713)
(-94.8997 -456.696 267.739)
(484.217 389.846 700.053)
(690.183 405.232 511.36)
(-24.9007 -401.684 -1014.07)
(-523.308 670.784 -130.447)
(6.49688 656.127 566.518)
(333.724 117.804 -687.679)
(272.39 749.64 343.683)
(-391.976 -406.899 -477.301)
(-552.84 -18.1905 391.057)
(356.416 -528.031 -494.581)
(-504.874 518.778 -217.381)
(-571.011 174.224 5.18061)
(-954.363 -20.8269 -391.163)
(710.448 417.354 715.49)
(1278.64 -275.433 120.235)
(210.99 824.716 289.775)
(-713.494 -285.618 691.91)
(531.675 -1014.11 403.804)
(269.903 918.748 -131.73)
(788.929 264.5 629.031)
(158.03 192.583 10.2617)
(103.221 41.2306 187.181)
(307.748 325.945 -392.38)
(564.986 -146.913 14.9103)
(-216.917 -330.967 -111.498)
(-214.725 325.594 267.346)
(387.968 -699.394 -569.755)
(479.719 -154.857 -378.635)
(207.807 -256.075 331.614)
(274.304 469.797 889.719)
(162.329 248.654 561.774)
(-978.299 -428.171 -13.4179)
(183.637 364.925 -191.342)
(-648.117 -284.207 -655.419)
(172.062 11.8054 -457.388)
(19.6359 -666.104 -184.352)