/*--------------------------------*- C++ -*----------------------------------*\
  =========                 |
  \\      /  F ield         | OpenFOAM: The Open Source CFD Toolbox
   \\    /   O peration     | Website:  https://openfoam.org
    \\  /    A nd           | Version:  7
     \\/     M anipulation  |
\*---------------------------------------------------------------------------*/
FoamFile
{
    version     2.0;
    format      ascii;
    class       volScalarField;
    location    "0.0018";
    object      internalE;
}
// * * * * * * * * * * * * * * * * * * * * * * * * * * * * * * * * * * * * * //

dimensions      [1 -1 -2 0 0 0 0];

internalField   nonuniform List<scalar> 
125
(
1229.24
1286.02
1110.39
1067.41
1330.33
1138.82
1171.13
1314.32
994.078
1425.82
1111.6
986.095
1151.97
1273.83
1188.35
997.436
1115.9
1185.63
1020.39
1100.42
1024.85
1086.84
1124.5
1103.91
1195.85
1230.86
1287.81
1040.65
1016.79
929.275
1037.68
1093.61
1251.03
1177.17
1100.01
1108.29
1015.53
1164.98
1221.51
1146.76
1116.96
1035.67
1306.4
1176.88
1061.97
1128.87
1123.41
1045.22
1209.73
999.742
1186.88
1131.92
1098.06
1091.72
900.826
1069.75
1218.86
1142.09
1134.52
1137.81
1230.6
976.185
1240.95
1184.9
1274.84
1152.59
1078.11
966.229
1060.36
1204.25
1049.12
999.103
1135.11
1189.85
1170.61
1017.21
1058
1115.76
1128.47
1193.09
1078.16
1085.21
1234.17
1242.28
1134.46
1037.01
1180.27
1100.79
1012.79
1192.63
1044.31
1045
1021.35
954.179
1219.17
1124.05
1219.45
1017.35
1202.62
1114.2
1272.76
1177.43
1217.48
1322.16
1232.18
1044.58
1387.41
1239.48
1000.74
1022.35
1156.34
1076.54
1258.92
1217.29
902.079
1136.77
1188.61
1220.5
1118.9
1157.75
1094.69
1017.55
1088.79
1157.96
999.596
)
;

boundaryField
{
    sides
    {
        type            symmetry;
    }
    empty
    {
        type            empty;
    }
    procBoundary0to1
    {
        type            processor;
        value           uniform 1126.16;
    }
}


// ************************************************************************* //
