/*--------------------------------*- C++ -*----------------------------------*\
  =========                 |
  \\      /  F ield         | OpenFOAM: The Open Source CFD Toolbox
   \\    /   O peration     | Website:  https://openfoam.org
    \\  /    A nd           | Version:  7
     \\/     M anipulation  |
\*---------------------------------------------------------------------------*/
FoamFile
{
    version     2.0;
    format      ascii;
    class       volVectorField;
    location    "0.0018";
    object      momentum;
}
// * * * * * * * * * * * * * * * * * * * * * * * * * * * * * * * * * * * * * //

dimensions      [1 -2 -1 0 0 0 0];

internalField   nonuniform List<vector> 
125
(
(-0.0393682 0.117651 -0.0274438)
(0.117086 -0.0638091 0.0456453)
(-0.208934 -0.00775395 -0.246074)
(-0.0925352 0.0772108 -0.0567283)
(-0.324946 0.140661 0.155959)
(0.173607 0.0480355 -0.0121194)
(-0.145677 -0.0794561 -0.197774)
(0.034846 -0.133885 0.136959)
(-0.197611 0.159025 0.243976)
(-0.176292 -0.0280948 -0.120618)
(-0.00692373 -0.148766 0.0476456)
(0.00164709 0.0469349 0.0764982)
(0.12 0.0722523 -0.0566061)
(-0.00381011 -0.22251 0.0645638)
(-0.0732362 -0.146119 0.0147852)
(-0.0262717 0.164344 -0.0471417)
(-0.184594 0.00855387 0.0775123)
(-0.0139735 -0.0863199 -0.141771)
(-0.112096 0.334194 -0.0135609)
(0.0114188 -0.0453683 -0.112628)
(0.0234976 0.0249678 0.0601051)
(0.0321687 -0.0630513 0.0902972)
(0.231019 0.0389256 0.24305)
(0.170968 -0.120872 0.0288713)
(0.0176389 -0.182984 -0.0189705)
(-0.108502 0.0570909 -0.311304)
(0.176987 0.0251914 -0.097157)
(-0.246455 0.0561138 -0.0266718)
(-0.0483804 0.106891 0.0792625)
(0.00683361 0.0635185 -0.0579648)
(0.089721 0.0802543 0.0531447)
(-0.0901006 0.0557449 0.102726)
(0.0671376 0.0589559 -0.0691633)
(0.181289 -0.0355966 0.200781)
(-0.0425479 0.450163 -0.175382)
(-0.0891673 0.276745 -0.117624)
(-0.0200855 -0.156056 -0.104161)
(-0.0260348 0.0310693 -0.0406629)
(-0.0139686 0.112926 0.138691)
(-0.0822932 0.174863 -0.312807)
(-0.0864859 0.0528863 0.100146)
(0.435936 0.188498 -0.00552106)
(-0.0884592 -0.0102052 -0.0561477)
(-0.0116842 0.0915008 0.0376321)
(-0.016757 -0.0263843 -0.00132917)
(-0.0263262 0.0317165 0.0430727)
(-0.13857 -0.0443497 -0.192373)
(0.150868 0.170701 -0.120746)
(0.172989 -0.044714 -0.0387347)
(0.000716229 0.0173844 0.198934)
(-0.139757 0.129882 -0.0886435)
(-0.0212921 0.199703 -0.24874)
(-0.0412491 -0.173576 0.0522609)
(-0.117158 0.0517916 -0.162213)
(-0.133688 -0.196489 -0.0222587)
(-0.104406 0.102629 -0.146677)
(0.0135989 -0.14687 -0.0891118)
(-0.301677 0.00646029 0.144484)
(-0.0704294 0.12307 0.0576333)
(0.157481 -0.158449 0.125824)
(-0.0633288 -0.0696917 0.0269479)
(0.0413563 0.0103752 0.0527466)
(-0.0668711 -0.158122 -0.00590123)
(-0.241119 -0.0694749 0.117289)
(-0.0897782 -0.0377343 -0.0800831)
(0.0091208 -0.0598613 -0.148222)
(-0.127237 -0.140519 -0.0279967)
(0.256585 -0.0507294 -0.134358)
(0.0914649 -0.0744521 0.0525851)
(-0.00359576 -0.0263773 0.0637969)
(0.000211825 0.00234212 0.146071)
(0.0224139 0.0348038 0.111831)
(0.120068 -0.050208 -0.238354)
(0.187539 -0.100928 0.19647)
(-0.160628 -0.190197 0.0691504)
(0.241182 0.0322949 -0.242338)
(0.168634 -0.206862 -0.0362745)
(0.0109397 0.0983391 -0.158533)
(-0.110099 0.102469 0.116766)
(0.0204837 0.0275814 0.0870492)
(-0.0309855 0.135563 0.00337155)
(0.118859 0.0145131 -0.144887)
(-0.144099 -0.00660903 0.137778)
(0.00963827 0.0771198 -0.00412484)
(0.0340481 0.00467788 0.186553)
(-0.115434 -0.167933 0.186887)
(-0.0348458 0.00458706 0.193295)
(0.0362802 -0.131483 0.146573)
(0.0706188 -0.0102261 0.0242861)
(0.132443 -0.00420274 0.188159)
(0.0616621 0.154052 0.114572)
(0.0437462 -0.0845766 -0.0457731)
(0.262065 0.0864733 -0.0133411)
(-0.106466 -0.0110293 0.234418)
(-0.384072 0.14794 -0.0743522)
(-0.0650036 0.00411499 0.281329)
(0.0527232 -0.0836998 0.081628)
(0.0958829 0.116775 -0.181084)
(0.010286 0.0793391 0.0444666)
(-0.00462096 0.0970842 0.0418083)
(-0.0543544 0.00429701 -0.139405)
(0.132037 -0.090241 -0.045898)
(-0.0711822 0.0855969 0.431592)
(0.120768 -0.10584 -0.169896)
(-0.0730875 -0.220237 -0.133504)
(-0.0885755 -0.00788027 0.0365575)
(0.0468424 -0.0272838 -0.278161)
(0.124041 -0.149239 -0.0504555)
(0.114124 0.211382 -0.254035)
(0.0283403 0.332101 0.026473)
(-0.0606737 0.120286 -0.089288)
(0.050094 0.0932404 -0.218181)
(-0.136605 -0.0461662 -0.234279)
(0.088453 -0.183784 -0.0234254)
(-0.0610446 0.233395 0.115132)
(-0.176501 -0.305419 0.0589637)
(0.0207531 -0.240804 -0.0670742)
(0.324711 -0.0720475 -0.0551657)
(0.140719 -0.199692 0.118019)
(0.0759656 -0.0925174 -0.0554415)
(0.0312984 0.182408 -0.0826435)
(0.0810401 0.0262136 -0.0105759)
(0.00222724 0.0530297 0.0756134)
(-0.149747 -0.0721118 0.181284)
(-0.00188365 -0.0853604 -0.0389569)
)
;

boundaryField
{
    sides
    {
        type            symmetry;
    }
    empty
    {
        type            empty;
    }
    procBoundary0to1
    {
        type            processor;
        value           uniform (0.137829 -0.150239 0.0269264);
    }
}


// ************************************************************************* //
