/*--------------------------------*- C++ -*----------------------------------*\
  =========                 |
  \\      /  F ield         | OpenFOAM: The Open Source CFD Toolbox
   \\    /   O peration     | Website:  https://openfoam.org
    \\  /    A nd           | Version:  7
     \\/     M anipulation  |
\*---------------------------------------------------------------------------*/
FoamFile
{
    version     2.0;
    format      ascii;
    class       surfaceScalarField;
    location    "0.2";
    object      alphaPhi0.water;
}
// * * * * * * * * * * * * * * * * * * * * * * * * * * * * * * * * * * * * * //

dimensions      [0 3 -1 0 0 0 0];

internalField   nonuniform List<scalar> 
3731
(
-6.10983e-06
1.14475e-05
-6.4296e-06
1.26048e-05
3.04891e-05
5.22785e-06
2.29769e-05
5.11663e-05
2.79712e-05
2.66536e-05
7.14519e-05
5.50655e-05
2.77543e-05
9.16554e-05
8.28202e-05
2.85693e-05
0.000112201
0.00011139
2.96453e-05
0.000133178
0.000141036
3.06068e-05
0.000154005
0.00017164
3.02758e-05
0.000172977
0.000201909
2.82505e-05
0.000186072
0.000230144
-2.08242e-29
2.54839e-30
-1.83889e-28
1.65741e-29
-8.4576e-28
1.04866e-28
-8.41677e-28
9.0687e-29
-2.85275e-28
-4.32066e-30
-5.4604e-29
-4.24894e-29
-4.73874e-30
-1.17551e-29
-2.68308e-31
-1.21234e-30
-1.25989e-32
-8.28217e-32
-5.55212e-34
-4.76978e-33
-2.57487e-35
-2.60171e-34
-1.27115e-36
-1.50684e-35
-5.68028e-38
-9.66298e-37
-1.44561e-39
-6.4799e-38
7.81234e-41
-4.202e-39
1.61452e-41
-2.58237e-40
1.65765e-42
-1.50673e-41
1.3468e-43
-8.28678e-43
9.49274e-45
-4.24973e-44
5.96743e-46
-2.00242e-45
3.3848e-47
-8.40613e-47
1.74325e-48
-3.02462e-48
8.15963e-50
-8.18813e-50
3.46972e-51
-8.13218e-52
1.34046e-52
1.73135e-53
4.65767e-54
1.66967e-54
1.44109e-55
9.4967e-56
3.93584e-57
4.02708e-57
9.36216e-59
1.4259e-58
1.90116e-60
4.33978e-60
3.2192e-62
1.09403e-61
4.37597e-64
2.34268e-63
4.51915e-66
4.07946e-65
3.25235e-68
5.5215e-67
1.38612e-70
5.47499e-69
2.2646e-73
3.53023e-71
-1.3539e-76
1.2083e-73
-2.85493e-79
1.52311e-76
-8.67671e-81
1.0817e-80
-1.41741e-80
-3.96567e-28
1.70272e-28
-2.04197e-26
8.28779e-27
-8.90222e-26
4.14971e-26
-9.62336e-26
3.53944e-26
-5.53321e-26
-6.33738e-29
-9.07317e-27
-1.1572e-26
-6.65989e-28
-2.7681e-27
-3.63936e-29
-2.64139e-28
-1.73351e-30
-1.7902e-29
-7.60662e-32
-1.0288e-30
-3.25852e-33
-5.41708e-32
-1.37297e-34
-2.82331e-33
-5.18527e-36
-1.51685e-34
-1.265e-37
-8.30881e-36
3.42667e-39
-4.48639e-37
8.24425e-40
-2.35096e-38
8.16094e-41
-1.20351e-39
6.25943e-42
-5.86368e-41
4.14888e-43
-2.6822e-42
2.45196e-44
-1.13299e-43
1.30964e-45
-4.30356e-45
6.36178e-47
-1.41102e-46
2.81663e-48
-3.5967e-48
1.13618e-49
-4.35035e-50
4.16023e-51
1.87545e-51
1.37453e-52
1.83019e-52
4.0693e-54
9.71367e-54
1.06877e-55
3.94707e-55
2.45853e-57
1.33601e-56
4.8776e-59
3.84378e-58
8.15159e-61
9.37403e-60
1.11439e-62
1.92886e-61
1.1954e-64
3.26656e-63
9.45116e-67
4.39299e-65
5.00071e-69
4.44886e-67
1.49551e-71
3.09841e-69
1.74618e-74
1.27308e-71
-2.96952e-79
2.2466e-74
-4.32176e-81
6.23038e-78
-7.68772e-80
-4.47636e-26
2.68972e-26
-2.30749e-24
1.37401e-24
-9.50862e-24
6.61101e-24
-1.00477e-23
5.41785e-24
-4.60312e-24
-4.04374e-26
-6.19286e-25
-1.25088e-24
-4.1924e-26
-2.63578e-25
-2.2379e-27
-2.34699e-26
-1.04476e-28
-1.53829e-27
-4.39998e-30
-8.55536e-29
-1.73379e-31
-4.27282e-30
-6.44068e-33
-2.02716e-31
-2.13174e-34
-9.47562e-33
-5.05365e-36
-4.40025e-34
3.41422e-38
-2.01242e-35
1.60393e-38
-8.98473e-37
1.50962e-39
-4.00235e-38
1.05447e-40
-1.71095e-39
6.32227e-42
-6.91839e-41
3.38136e-43
-2.59926e-42
1.63875e-44
-8.85247e-44
7.24692e-46
-2.62489e-45
2.93115e-47
-6.1614e-47
1.08398e-48
-7.55143e-49
3.6562e-50
2.37214e-50
1.11854e-51
2.29328e-51
3.08183e-53
1.12945e-52
7.58119e-55
4.26617e-54
1.64677e-56
1.34304e-55
3.11406e-58
3.6075e-57
5.02867e-60
8.29001e-59
6.76916e-62
1.61834e-60
7.35215e-64
2.63474e-62
6.15588e-66
3.47554e-64
3.7256e-68
3.55403e-66
1.47555e-70
2.62668e-68
3.24088e-73
1.24544e-70
2.88971e-76
2.97975e-73
2.68029e-79
1.81533e-76
-2.81639e-78
-4.65567e-24
3.42493e-24
-1.9351e-22
1.53884e-22
-6.80427e-22
6.26853e-22
-6.80073e-22
4.57773e-22
-2.49455e-22
-2.37182e-23
-2.75546e-23
-9.54054e-23
-1.6852e-24
-1.61154e-23
-8.54154e-26
-1.25378e-24
-3.82713e-27
-7.64094e-26
-1.53307e-28
-4.0348e-27
-5.60889e-30
-1.90398e-28
-1.88265e-31
-8.34704e-30
-5.56227e-33
-3.50617e-31
-1.21897e-34
-1.43297e-32
4.24716e-38
-5.72557e-34
2.36254e-37
-2.23233e-35
2.07885e-38
-8.77819e-37
1.31626e-39
-3.32701e-38
7.12843e-41
-1.19835e-39
3.45064e-42
-4.03054e-41
1.51881e-43
-1.23646e-42
6.12241e-45
-3.32672e-44
2.26553e-46
-7.17786e-46
7.69355e-48
-8.57436e-48
2.39293e-49
2.01933e-49
6.78204e-51
1.93361e-50
1.73913e-52
8.88564e-52
4.0042e-54
3.12238e-53
8.1957e-56
9.1578e-55
1.4724e-57
2.30053e-56
2.28426e-59
4.97356e-58
2.99781e-61
9.19761e-60
3.23974e-63
1.43271e-61
2.78039e-65
1.8336e-63
1.80072e-67
1.85555e-65
8.13304e-70
1.39759e-67
2.22099e-72
7.04994e-70
2.79484e-75
1.91399e-72
1.08953e-77
1.76868e-75
-1.51206e-77
-3.90158e-22
3.42167e-22
-1.24634e-20
1.21249e-20
-3.84713e-20
4.14882e-20
-3.61479e-20
2.66218e-20
-1.01783e-20
-4.7851e-21
-8.59814e-22
-5.54484e-21
-4.61009e-23
-6.36697e-22
-2.18877e-24
-4.20519e-23
-9.34581e-26
-2.39049e-24
-3.55535e-27
-1.20523e-25
-1.2171e-28
-5.41514e-27
-3.75044e-30
-2.22831e-28
-1.00097e-31
-8.63247e-30
-1.96324e-33
-3.20649e-31
9.31595e-37
-1.15525e-32
3.08704e-36
-4.05844e-34
2.43825e-37
-1.43707e-35
1.38937e-38
-4.90529e-37
6.79386e-40
-1.59305e-38
2.98207e-41
-4.84406e-40
1.19539e-42
-1.34874e-41
4.4066e-44
-3.31083e-43
1.49695e-45
-6.57439e-45
4.68454e-47
-7.47986e-47
1.34805e-48
1.4096e-48
3.55015e-50
1.31903e-49
8.49694e-52
5.66521e-51
1.83533e-53
1.85703e-52
3.54533e-55
5.09126e-54
6.05501e-57
1.19998e-55
9.01198e-59
2.44619e-57
1.1478e-60
4.29155e-59
1.22169e-62
6.392e-61
1.05225e-64
7.90171e-63
6.99628e-67
7.82434e-65
3.31702e-69
5.85752e-67
9.71286e-72
2.98036e-69
1.39133e-74
8.54981e-72
1.14884e-76
1.03586e-74
9.44017e-77
-2.29342e-20
2.32558e-20
-6.19309e-19
6.67364e-19
-1.89652e-18
2.08385e-18
-1.55036e-18
1.19205e-18
-2.71507e-19
-4.44776e-19
-1.69796e-20
-1.66024e-19
-8.24839e-22
-1.34719e-20
-3.76383e-23
-8.32388e-22
-1.55037e-24
-4.69045e-23
-5.64093e-26
-2.32463e-24
-1.82264e-27
-1.01321e-25
-5.21399e-29
-3.99401e-27
-1.26335e-30
-1.46461e-28
-2.12215e-32
-5.09766e-30
1.29375e-34
-1.70715e-31
3.7065e-35
-5.58833e-33
2.51746e-36
-1.8212e-34
1.28364e-37
-5.70197e-36
5.67853e-39
-1.69569e-37
2.26966e-40
-4.72252e-39
8.32581e-42
-1.20607e-40
2.82055e-43
-2.72239e-42
8.83917e-45
-4.9913e-44
2.56115e-46
-5.31074e-46
6.84945e-48
8.7852e-48
1.68296e-49
7.80237e-49
3.77364e-51
3.13168e-50
7.67139e-53
9.60374e-52
1.40202e-54
2.47011e-53
2.27932e-56
5.48152e-55
3.25285e-58
1.05664e-56
4.00672e-60
1.76179e-58
4.16531e-62
2.50887e-60
3.54097e-64
2.98562e-62
2.34297e-66
2.86625e-64
1.10803e-68
2.08905e-66
3.22127e-71
1.04341e-68
4.80965e-74
2.96885e-71
6.86108e-76
4.58509e-74
1.57314e-75
-1.03519e-18
1.11547e-18
-2.32342e-17
2.59338e-17
-6.4589e-17
6.98708e-17
-3.40517e-17
2.98514e-17
-3.60676e-18
-1.08387e-17
-1.95088e-19
-2.05969e-18
-9.46965e-21
-1.5833e-19
-4.33511e-22
-1.03457e-20
-1.75141e-23
-6.02501e-22
-6.1472e-25
-2.97924e-23
-1.8896e-26
-1.27316e-24
-5.04853e-28
-4.88586e-26
-1.10063e-29
-1.73437e-27
-1.40673e-31
-5.81011e-29
3.37678e-33
-1.84935e-30
3.95147e-34
-5.83394e-32
2.26645e-35
-1.78862e-33
1.03499e-36
-5.23727e-35
4.16705e-38
-1.45129e-36
1.52784e-39
-3.75843e-38
5.16772e-41
-8.91785e-40
1.6207e-42
-1.86969e-41
4.71838e-44
-3.18151e-43
1.27429e-45
-3.11358e-45
3.18687e-47
5.06915e-47
7.34684e-49
4.11587e-48
1.55128e-50
1.54395e-49
2.98133e-52
4.44676e-51
5.17352e-54
1.07799e-52
8.02517e-56
2.26261e-54
1.09873e-57
4.14043e-56
1.30593e-59
6.57959e-58
1.31742e-61
8.96725e-60
1.09087e-63
1.02524e-61
7.01063e-66
9.47382e-64
3.1932e-68
6.62252e-66
8.99663e-71
3.1905e-68
1.3957e-73
8.95224e-71
3.00438e-75
1.69061e-73
1.09977e-74
-5.20831e-17
5.37473e-17
-6.41e-16
6.78549e-16
-7.92156e-16
5.67255e-16
-2.58305e-16
1.54546e-16
-2.46253e-17
-8.58699e-17
-1.47283e-18
-1.55122e-17
-7.63056e-20
-1.38368e-18
-3.5129e-21
-9.59927e-20
-1.3854e-22
-5.58741e-21
-4.67803e-24
-2.71259e-22
-1.36551e-25
-1.13165e-23
-3.37729e-27
-4.24139e-25
-6.3109e-29
-1.47192e-26
-3.27013e-31
-4.80324e-28
4.82855e-32
-1.49661e-29
3.53146e-33
-4.59712e-31
1.72943e-34
-1.34932e-32
7.13646e-36
-3.75983e-34
2.6411e-37
-9.87329e-36
8.9729e-39
-2.41544e-37
2.82616e-40
-5.40036e-39
8.28322e-42
-1.06386e-40
2.26055e-43
-1.69108e-42
5.73928e-45
-1.49259e-44
1.35304e-46
2.71038e-46
2.94839e-48
1.94441e-47
5.90284e-50
6.82612e-49
1.07917e-51
1.85641e-50
1.7877e-53
4.26848e-52
2.65718e-55
8.52719e-54
3.49943e-57
1.49001e-55
4.01538e-59
2.26805e-57
3.91992e-61
2.96932e-59
3.13759e-63
3.26694e-61
1.94156e-65
2.90042e-63
8.45311e-68
1.95783e-65
2.21887e-70
8.96876e-68
3.49467e-73
2.39738e-70
1.09031e-74
5.35618e-73
5.47764e-74
-2.05065e-15
1.74205e-15
-4.42834e-15
4.21701e-15
-2.65586e-15
2.44147e-15
-8.59709e-16
-1.0189e-16
-1.17088e-16
-3.23861e-16
-8.9102e-18
-1.05693e-16
-4.79473e-19
-1.02671e-17
-2.11496e-20
-6.89235e-19
-7.95469e-22
-3.77961e-20
-2.55579e-23
-1.78803e-21
-6.97732e-25
-7.36923e-23
-1.5341e-26
-2.72457e-24
-2.02593e-28
-9.29285e-26
3.74908e-30
-2.95299e-27
4.60787e-31
-9.24543e-29
2.52984e-32
-2.76456e-30
1.08927e-33
-7.84166e-32
4.11778e-35
-2.10259e-33
1.41762e-36
-5.29411e-35
4.51417e-38
-1.23794e-36
1.33864e-39
-2.63675e-38
3.70588e-41
-4.92582e-40
9.57859e-43
-7.34372e-42
2.30891e-44
-5.65402e-44
5.17987e-46
1.31594e-45
1.07654e-47
8.16749e-47
2.06111e-49
2.69176e-48
3.61346e-51
6.96005e-50
5.75679e-53
1.52998e-51
8.25375e-55
2.93313e-53
1.05153e-56
4.93422e-55
1.16998e-58
7.25201e-57
1.1086e-60
9.1908e-59
8.59516e-63
9.80439e-61
5.12981e-65
8.43808e-63
2.13847e-67
5.5289e-65
5.25225e-70
2.43888e-67
8.32691e-73
6.32239e-70
3.40547e-74
1.5847e-72
2.17207e-73
-1.97149e-15
3.00606e-15
-5.82131e-15
4.38087e-15
-4.37977e-15
3.0821e-15
-1.59062e-15
-1.62707e-16
-4.14149e-16
-5.83315e-16
-4.27578e-17
-3.9189e-16
-2.30067e-18
-5.52766e-17
-9.32204e-20
-3.51214e-18
-3.28735e-21
-1.74819e-19
-9.98467e-23
-8.10321e-21
-2.48029e-24
-3.40439e-22
-4.28378e-26
-1.27935e-23
4.3067e-29
-4.35141e-25
5.02798e-29
-1.41951e-26
3.18393e-30
-4.41678e-28
1.44439e-31
-1.2951e-29
5.61842e-33
-3.58165e-31
1.97195e-34
-9.32205e-33
6.38069e-36
-2.27047e-34
1.92252e-37
-5.11952e-36
5.41763e-39
-1.04772e-37
1.42986e-40
-1.86915e-39
3.53299e-42
-2.61503e-41
8.16107e-44
-1.64283e-43
1.75859e-45
5.64774e-45
3.51827e-47
3.01564e-46
6.50082e-49
9.36832e-48
1.10283e-50
2.32008e-49
1.70484e-52
4.91829e-51
2.37857e-54
9.13389e-53
2.95724e-56
1.49415e-54
3.2194e-58
2.14325e-56
2.99058e-60
2.6609e-58
2.27395e-62
2.79165e-60
1.32521e-64
2.37156e-62
5.31483e-67
1.52965e-64
1.25982e-69
6.56623e-67
2.26781e-72
1.75423e-69
9.35121e-74
4.61526e-72
7.20536e-73
2.70427e-05
0.000185196
0.000231292
2.58034e-05
2.07752e-05
0.000144464
0.000232199
1.95333e-05
1.29449e-05
3.29771e-05
0.000225404
1.7898e-05
6.24453e-06
1.50026e-05
0.00020804
1.77072e-05
6.39357e-06
8.65191e-06
0.000185639
2.21227e-05
5.25721e-06
3.55423e-06
0.00012619
2.55438e-05
2.71155e-06
9.04116e-07
1.47035e-05
2.01414e-05
5.14364e-07
3.43541e-07
4.47415e-06
8.01625e-06
2.26449e-07
1.26192e-07
1.87e-06
2.74678e-06
8.69196e-08
6.77012e-07
1.28002e-06
2.16925e-07
4.8984e-07
6.04925e-08
1.66662e-07
1.45631e-08
4.83505e-08
3.14077e-09
1.20122e-08
6.25911e-10
2.64429e-09
1.17273e-10
5.34169e-10
2.08766e-11
1.00854e-10
3.56188e-12
1.79502e-11
5.72939e-13
3.01453e-12
8.82506e-14
4.692e-13
1.5466e-14
6.41828e-14
4.85353e-15
9.18623e-15
1.26022e-15
1.52238e-15
1.75826e-16
2.31128e-16
2.61541e-17
3.11915e-17
3.83695e-18
3.9131e-18
5.42321e-19
4.52652e-19
7.35524e-20
4.71123e-20
9.54657e-21
4.18742e-21
1.1813e-21
2.70566e-22
1.39116e-22
1.64185e-24
1.56686e-23
-4.66881e-24
-1.0264e-24
-3.50815e-14
2.12881e-05
-3.16159e-14
1.98777e-15
-4.3249e-15
-2.13539e-14
1.23447e-15
-3.94791e-15
-2.18783e-13
3.48357e-05
-2.21544e-13
3.96598e-14
-5.37847e-14
-1.0061e-14
1.13076e-13
-1.62399e-13
7.64759e-07
4.25952e-05
-1.04018e-11
7.6477e-07
-1.16267e-11
1.21993e-12
1.88138e-11
-6.29029e-12
8.32506e-07
6.1897e-05
-2.34133e-11
1.59731e-06
-5.88665e-11
3.78057e-11
1.39065e-10
-6.84417e-11
3.15687e-06
0.00013233
2.24918e-07
6.33036e-06
-2.21949e-09
2.26305e-07
1.78328e-09
-3.98354e-09
1.32152e-05
0.000127829
7.6197e-07
2.68323e-05
4.08331e-08
9.86272e-07
4.52604e-08
-2.33977e-09
1.63946e-05
7.01212e-05
3.54906e-06
5.73574e-05
3.93094e-07
7.62002e-06
4.51193e-07
2.52532e-08
1.42796e-05
1.71568e-05
1.1854e-05
4.53432e-05
7.18617e-07
2.36138e-05
4.79792e-06
2.96336e-07
6.81066e-06
3.52363e-06
8.84608e-06
5.28919e-06
3.50919e-06
1.1779e-05
7.54049e-06
2.34981e-07
2.46132e-06
1.43768e-06
3.01883e-06
9.9977e-07
3.91499e-06
2.64706e-07
3.61951e-07
1.69006e-06
1.12972e-06
4.80477e-07
1.24104e-06
3.28314e-07
9.43557e-07
3.58072e-08
-9.71641e-08
6.40042e-07
4.01723e-07
1.39893e-07
4.57567e-07
8.75663e-08
3.29842e-07
2.57838e-09
-2.63984e-08
1.57209e-07
1.19979e-07
3.52724e-08
1.30688e-07
2.22519e-08
8.76266e-08
-3.93258e-10
-6.08466e-09
3.70642e-08
3.02635e-08
7.91391e-09
3.27756e-08
5.154e-09
2.06049e-08
-2.48958e-11
-1.20546e-09
7.8842e-09
6.63735e-09
1.63583e-09
7.13829e-09
1.10436e-09
4.30143e-09
3.29379e-11
-2.03112e-10
1.58277e-09
1.32489e-09
3.17319e-10
1.41342e-09
2.21466e-10
8.25597e-10
1.49907e-11
-3.07746e-11
3.05244e-10
2.46399e-10
5.8358e-11
2.6061e-10
4.20429e-11
1.47902e-10
4.5519e-12
-4.16188e-12
5.52864e-11
4.31556e-11
1.02557e-11
4.53814e-11
7.62619e-12
2.52353e-11
1.16482e-12
-4.19254e-13
9.43833e-12
7.144e-12
1.72794e-12
7.47784e-12
1.32341e-12
4.10486e-12
2.75312e-13
-8.09928e-15
1.53509e-12
1.10582e-12
2.75094e-13
1.1526e-12
2.22922e-13
6.19023e-13
6.88257e-14
2.03951e-14
2.4212e-13
1.54612e-13
5.01501e-14
1.65362e-13
4.4358e-14
9.319e-14
1.95984e-14
7.81177e-15
3.692e-14
2.1714e-14
8.82077e-15
2.42632e-14
8.42426e-15
1.34692e-14
6.90994e-15
4.13065e-15
6.12221e-15
3.15228e-15
2.2553e-15
3.56769e-15
2.31712e-15
2.33939e-15
1.75459e-15
9.22861e-16
1.05274e-15
4.8505e-16
4.25538e-16
5.48512e-16
4.31369e-16
3.36257e-16
2.7869e-16
1.24465e-16
1.4106e-16
6.40813e-17
5.87803e-17
7.28374e-17
5.77748e-17
4.26717e-17
3.72544e-17
1.66749e-17
1.76609e-17
7.76533e-18
8.07681e-18
8.92489e-18
7.70487e-18
5.08532e-18
4.87865e-18
2.14666e-18
2.08171e-18
8.78492e-19
1.07136e-18
1.02002e-18
9.9186e-19
5.67968e-19
6.11165e-19
2.63567e-19
2.30747e-19
9.3871e-20
1.36335e-19
1.06062e-19
1.22387e-19
5.90834e-20
7.30698e-20
3.08443e-20
2.39696e-20
9.02116e-21
1.66358e-20
1.01177e-20
1.44264e-20
5.69142e-21
8.34476e-21
3.43904e-21
2.31724e-21
7.38109e-22
1.94338e-21
8.61366e-22
1.6238e-21
4.99604e-22
9.08896e-22
3.65077e-22
2.06334e-22
4.31965e-23
2.16695e-22
6.14929e-23
1.74277e-22
3.87545e-23
9.43106e-23
3.68665e-23
1.66187e-23
-5.39339e-26
2.29477e-23
2.98712e-24
1.78182e-23
2.46775e-24
9.31389e-24
3.53759e-24
1.16758e-24
-4.92045e-25
-4.11365e-26
9.71077e-26
6.51571e-26
-6.26031e-15
4.82913e-15
-3.98786e-14
3.73388e-14
-3.06331e-14
-2.72281e-15
-3.73569e-15
-2.44195e-14
-8.0396e-16
-2.92736e-15
-1.41076e-16
-5.43406e-16
-8.30067e-18
-2.07743e-16
-3.07829e-19
-1.42065e-17
-9.88056e-21
-6.24245e-19
-2.73923e-22
-2.68435e-20
-5.58929e-24
-1.12932e-21
-2.81702e-26
-4.3521e-23
4.92303e-27
-1.56415e-24
3.56055e-28
-5.26623e-26
1.71157e-29
-1.65042e-27
6.88081e-31
-4.82737e-29
2.47124e-32
-1.31988e-30
8.1478e-34
-3.36986e-32
2.49915e-35
-7.99624e-34
7.17811e-37
-1.74548e-35
1.93612e-38
-3.43524e-37
4.90712e-40
-5.83443e-39
1.16762e-41
-7.5524e-41
2.604e-43
-3.22245e-43
5.43054e-45
2.15158e-44
1.05397e-46
9.91796e-46
1.89448e-48
2.9127e-47
3.1355e-50
6.9472e-49
4.74344e-52
1.43028e-50
6.49784e-54
2.59421e-52
7.96047e-56
4.16496e-54
8.5735e-58
5.89303e-56
7.91649e-60
7.259e-58
6.02241e-62
7.61432e-60
3.52844e-64
6.54384e-62
1.40819e-66
4.29956e-64
3.27547e-69
1.87663e-66
6.76686e-72
5.02641e-69
2.3404e-73
1.33626e-71
2.06904e-72
-1.03542e-12
4.00299e-13
-1.70134e-12
4.1817e-13
-6.58679e-13
-1.02895e-12
-5.9786e-14
-6.12262e-13
-2.94467e-15
-6.28425e-14
-2.73179e-16
-2.55977e-15
-2.36061e-17
-4.47671e-16
-8.50972e-19
-5.21547e-17
-2.27525e-20
-2.40596e-18
-4.83679e-22
-8.73285e-20
-3.28551e-24
-3.30933e-21
4.38499e-25
-1.27184e-22
3.47665e-26
-4.63326e-24
1.75777e-27
-1.56128e-25
7.32614e-29
-4.88401e-27
2.70555e-30
-1.42424e-28
9.11763e-32
-3.87282e-30
2.84888e-33
-9.8056e-32
8.32709e-35
-2.30027e-33
2.28765e-36
-4.94261e-35
5.91997e-38
-9.50353e-37
1.44373e-39
-1.55296e-38
3.31528e-41
-1.84219e-40
7.1575e-43
-2.22545e-43
1.44942e-44
7.06036e-44
2.73937e-46
2.8376e-45
4.81041e-48
7.88921e-47
7.80434e-50
1.81762e-48
1.16153e-51
3.64967e-50
1.57154e-53
6.49944e-52
1.91003e-55
1.03057e-53
2.05161e-57
1.44902e-55
1.90255e-59
1.78669e-57
1.46952e-61
1.89478e-59
8.90274e-64
1.67295e-61
3.78444e-66
1.16044e-63
9.18543e-69
5.63032e-66
2.05261e-71
1.4786e-68
5.09973e-73
3.84735e-71
5.14127e-72
-1.09127e-11
2.5298e-11
-3.28424e-11
2.03613e-11
-7.81322e-12
-1.9624e-11
-7.75971e-13
-7.65571e-12
-3.28029e-14
-8.08418e-13
-8.09506e-16
-3.41689e-14
-5.53558e-17
-8.86311e-16
-2.48478e-18
-1.6014e-16
-4.84536e-20
-1.39207e-17
-1.88691e-22
-4.77307e-19
4.45468e-23
-1.51253e-20
3.49666e-24
-5.15087e-22
1.7873e-25
-1.69551e-23
7.49626e-27
-5.2345e-25
2.79023e-28
-1.51444e-26
9.50163e-30
-4.11872e-28
3.0017e-31
-1.05127e-29
8.88295e-33
-2.50959e-31
2.4779e-34
-5.57289e-33
6.5354e-36
-1.1382e-34
1.63105e-37
-2.08347e-36
3.85006e-39
-3.20744e-38
8.58518e-41
-3.32737e-40
1.80538e-42
1.45133e-42
3.57035e-44
2.08161e-43
6.61217e-46
7.40487e-45
1.1416e-47
1.95638e-46
1.82741e-49
4.37357e-48
2.69365e-51
8.61321e-50
3.62478e-53
1.51599e-51
4.40333e-55
2.39204e-53
4.75638e-57
3.37066e-55
4.47213e-59
4.2002e-57
3.54658e-61
4.55157e-59
2.25763e-63
4.17699e-61
1.05894e-65
3.10827e-63
3.09155e-68
1.7347e-65
8.37501e-71
6.0552e-68
1.10575e-72
1.31861e-70
1.0959e-71
-2.52191e-10
7.12449e-10
-3.33119e-10
1.36706e-10
-7.42466e-11
-2.48921e-10
-6.81712e-12
-6.77714e-11
-2.63625e-13
-7.27932e-12
-6.27332e-15
-2.86671e-13
-1.00353e-16
-6.14798e-15
-5.48389e-18
-5.03196e-16
5.91119e-20
-8.54613e-17
1.29527e-20
-4.2799e-18
6.57438e-22
-1.27408e-19
2.99176e-23
-3.87935e-21
1.16758e-24
-1.13487e-22
4.03317e-26
-3.08285e-24
1.27782e-27
-7.80089e-26
3.78781e-29
-1.84906e-27
1.05901e-30
-4.11277e-29
2.80905e-32
-8.56363e-31
7.11001e-34
-1.65825e-32
1.72457e-35
-2.94885e-34
4.0132e-37
-4.67985e-36
8.94561e-39
-6.11648e-38
1.90467e-40
-4.59574e-40
3.8609e-42
8.10361e-42
7.41457e-44
5.16585e-43
1.34233e-45
1.61434e-44
2.2794e-47
3.98714e-46
3.60947e-49
8.53095e-48
5.29318e-51
1.6313e-49
7.12741e-53
2.81976e-51
8.71697e-55
4.41483e-53
9.54577e-57
6.23693e-55
9.1807e-59
7.87936e-57
7.54579e-61
8.77307e-59
5.08698e-63
8.42209e-61
2.6341e-65
6.74055e-63
9.33459e-68
4.26159e-65
1.79944e-70
1.93252e-67
1.4688e-72
4.89524e-70
1.47474e-71
-2.85577e-09
5.32359e-09
-1.73861e-09
2.11647e-10
-3.79228e-10
-1.23514e-09
-3.2905e-11
-2.72161e-10
-1.1699e-12
-2.92529e-11
-2.69364e-14
-1.21977e-12
-1.7643e-16
-3.09938e-14
1.14119e-17
-1.65974e-15
4.71743e-18
-2.73665e-16
2.85149e-19
-2.42821e-17
9.3128e-21
-1.01015e-18
3.34371e-22
-3.20334e-20
1.12668e-23
-9.28137e-22
3.41741e-25
-2.45035e-23
9.50371e-27
-5.91011e-25
2.45821e-28
-1.30918e-26
5.96482e-30
-2.6689e-28
1.36481e-31
-4.99677e-30
2.95695e-33
-8.52688e-32
6.10264e-35
-1.30428e-33
1.20884e-36
-1.72046e-35
2.31346e-38
-1.74258e-37
4.29695e-40
-6.01613e-40
7.75775e-42
3.27109e-41
1.35228e-43
1.29637e-42
2.26252e-45
3.36841e-44
3.60981e-47
7.3434e-46
5.45173e-49
1.42939e-47
7.72845e-51
2.53835e-49
1.01824e-52
4.13898e-51
1.23215e-54
6.19153e-53
1.34992e-56
8.45567e-55
1.31379e-58
1.04575e-56
1.10677e-60
1.15637e-58
7.78054e-63
1.12216e-60
4.31315e-65
9.28651e-63
1.71575e-67
6.26593e-65
4.06028e-70
3.19792e-67
1.93484e-72
1.04856e-69
1.9602e-71
-7.1348e-09
1.38384e-08
-7.9321e-09
3.50537e-10
-1.931e-09
-5.77069e-09
-1.16778e-10
-1.78736e-09
-2.2259e-12
-1.11453e-10
-3.22839e-14
-4.15192e-12
-3.0505e-15
-1.25616e-13
7.10116e-17
-9.64715e-15
2.53625e-17
-7.15564e-16
2.97367e-18
-9.09705e-17
1.00037e-19
-5.92388e-18
3.04092e-21
-1.93045e-19
9.70674e-23
-5.68882e-21
2.85814e-24
-1.54457e-22
7.67882e-26
-3.79032e-24
1.90422e-27
-8.42398e-26
4.39e-29
-1.69925e-27
9.45252e-31
-3.10539e-29
1.90676e-32
-5.09148e-31
3.61105e-34
-7.31241e-33
6.43373e-36
-8.67206e-35
1.08239e-37
-6.89169e-37
1.73184e-39
1.63999e-39
2.65229e-41
2.09354e-40
3.88195e-43
5.81663e-42
5.44335e-45
1.20471e-43
7.32668e-47
2.14321e-45
9.47091e-49
3.44035e-47
1.17324e-50
5.10241e-49
1.38468e-52
7.08099e-51
1.54074e-54
9.24958e-53
1.59074e-56
1.13571e-54
1.49144e-58
1.29421e-56
1.23312e-60
1.36571e-58
8.64915e-63
1.2885e-60
4.86484e-65
1.04695e-62
2.00497e-67
6.91018e-65
5.08239e-70
3.59098e-67
2.36601e-72
1.22527e-69
2.52852e-71
1.61274e-09
4.16506e-08
1.65893e-09
2.29055e-09
1.16122e-10
-1.75111e-08
-9.27413e-11
-5.12588e-09
-1.34879e-11
-4.47472e-10
-1.00905e-12
-2.19946e-11
-4.89505e-14
-1.34617e-12
-1.61728e-15
-9.00578e-14
8.47725e-17
-5.12793e-15
2.00451e-17
-3.29681e-16
6.72776e-19
-1.92256e-17
1.87518e-20
-7.51808e-19
5.91911e-22
-2.40376e-20
1.7588e-23
-6.83907e-22
4.74974e-25
-1.7442e-23
1.17809e-26
-3.98848e-25
2.70512e-28
-8.18285e-27
5.77923e-30
-1.49992e-28
1.15216e-31
-2.42598e-30
2.14729e-33
-3.35112e-32
3.7452e-35
-3.58889e-34
6.12538e-37
-1.79423e-36
9.42755e-39
3.68697e-38
1.36367e-40
1.51498e-39
1.85203e-42
3.53701e-41
2.35921e-44
6.60758e-43
2.81516e-46
1.06936e-44
3.14305e-48
1.54547e-46
3.28025e-50
2.02272e-48
3.19837e-52
2.41434e-50
2.9119e-54
2.63759e-52
2.47119e-56
2.64283e-54
1.94198e-58
2.43054e-56
1.39013e-60
2.08478e-58
8.80131e-63
1.63582e-60
4.66708e-65
1.13429e-62
1.88264e-67
6.91981e-65
4.81137e-70
3.55774e-67
2.65107e-72
1.24491e-69
3.079e-71
-2.35898e-09
3.81879e-07
1.13064e-08
-3.2253e-08
5.49208e-10
-3.59667e-08
-6.21859e-10
-8.10331e-09
-7.9946e-11
-1.03996e-09
-5.05034e-12
-9.21145e-11
-2.85316e-13
-6.49942e-12
-1.35242e-14
-3.92079e-13
3.1877e-17
-2.04629e-14
4.36914e-17
-9.35522e-16
2.35177e-18
-5.56153e-17
8.06052e-20
-2.35306e-18
2.56935e-21
-7.54736e-20
7.7292e-23
-2.1915e-21
2.12842e-24
-5.68976e-23
5.37263e-26
-1.3214e-24
1.25093e-27
-2.74169e-26
2.69783e-29
-5.03113e-28
5.4113e-31
-7.98309e-30
1.01238e-32
-1.03545e-31
1.76923e-34
-8.99366e-34
2.89472e-36
1.8782e-36
4.44218e-38
2.93206e-37
6.37618e-40
8.51756e-39
8.55836e-42
1.80305e-40
1.07209e-43
3.20987e-42
1.24986e-45
5.03444e-44
1.3508e-47
7.09365e-46
1.34741e-49
9.05879e-48
1.23304e-51
1.05154e-49
1.02739e-53
1.10845e-51
7.72084e-56
1.05663e-53
5.17291e-58
9.04228e-56
3.04528e-60
6.87856e-58
1.54088e-62
4.58073e-60
6.46483e-65
2.65474e-62
2.11005e-67
1.29215e-64
4.62203e-70
4.98226e-67
2.85171e-72
1.35603e-69
3.63263e-71
-3.70598e-08
1.33665e-06
-2.46463e-08
-4.3132e-08
-5.417e-09
-5.88727e-08
-8.19061e-10
-1.39491e-08
-9.0291e-11
-1.90864e-09
-7.42641e-12
-1.8804e-10
-5.12435e-13
-1.47348e-11
-2.87603e-14
-9.61302e-13
-1.25789e-15
-5.39692e-14
8.72849e-17
-2.66665e-15
8.10579e-18
-1.24137e-16
2.42115e-19
-5.11506e-18
7.81131e-21
-1.7819e-19
2.39583e-22
-5.4892e-21
6.72646e-24
-1.47747e-22
1.73387e-25
-3.47895e-24
4.1218e-27
-7.27126e-26
9.0606e-29
-1.32618e-27
1.8463e-30
-2.02881e-29
3.49691e-32
-2.30762e-31
6.17736e-34
-9.07085e-34
1.02014e-35
3.54646e-35
1.57162e-37
1.38854e-36
2.25906e-39
3.39897e-38
3.02787e-41
6.73953e-40
3.77832e-43
1.15945e-41
4.37936e-45
1.77954e-43
4.69957e-47
2.4693e-45
4.64667e-49
3.11636e-47
4.20633e-51
3.58316e-49
3.45673e-53
3.7476e-51
2.54951e-55
3.54961e-53
1.66159e-57
3.02138e-55
9.36558e-60
2.28416e-57
4.42821e-62
1.50778e-59
1.67796e-64
8.47891e-62
4.72659e-67
3.91268e-64
8.51237e-70
1.39684e-66
3.31549e-72
3.4219e-69
4.41743e-71
2.46247e-08
7.84459e-07
4.71779e-08
-2.53069e-08
9.44922e-09
-3.6554e-08
1.16934e-09
-8.31398e-09
1.09332e-10
-1.18308e-09
7.72764e-12
-1.24268e-10
4.76403e-13
-1.03408e-11
2.88385e-14
-7.13671e-13
1.82594e-15
-3.99212e-14
1.39997e-16
-2.08165e-15
1.16295e-17
-1.00138e-16
4.89408e-19
-4.23558e-18
1.62636e-20
-1.49849e-19
5.11724e-22
-4.64579e-21
1.48131e-23
-1.29874e-22
3.93754e-25
-3.27188e-24
9.64203e-27
-7.17433e-26
2.18238e-28
-1.32849e-27
4.57616e-30
-1.91062e-29
8.9062e-32
-1.44996e-31
1.61095e-33
2.44793e-33
2.70891e-35
1.40996e-34
4.23824e-37
4.07871e-36
6.17165e-39
9.18349e-38
8.3576e-41
1.76543e-39
1.05105e-42
3.002e-41
1.22473e-44
4.59168e-43
1.31799e-46
6.37074e-45
1.30398e-48
8.04865e-47
1.1786e-50
9.26503e-49
9.64819e-53
9.69636e-51
7.07439e-55
9.18278e-53
4.57376e-57
7.80979e-55
2.55056e-59
5.8964e-57
1.18823e-61
3.88567e-59
4.40467e-64
2.17978e-61
1.1987e-66
1.00181e-63
2.05034e-69
3.54131e-66
1.85482e-70
8.49834e-69
5.23976e-71
4.08119e-07
-4.6182e-08
5.02291e-08
3.31807e-11
9.68078e-09
-9.18375e-09
1.31809e-09
-2.24806e-09
1.34639e-10
-3.35667e-10
1.1098e-11
-3.72441e-11
7.71802e-13
-3.2917e-12
4.4403e-14
-2.39436e-13
2.74874e-15
-1.33316e-14
1.64936e-16
-7.63308e-16
1.11235e-17
-4.08332e-17
4.79759e-19
-1.83626e-18
1.70904e-20
-7.06234e-20
5.66619e-22
-2.37966e-21
1.71646e-23
-7.00673e-23
4.76585e-25
-1.784e-24
1.21765e-26
-3.82588e-26
2.87051e-28
-6.42883e-28
6.25683e-30
-6.22613e-30
1.26238e-31
9.57033e-32
2.35996e-33
7.40462e-33
4.09406e-35
2.44013e-34
6.59584e-37
6.12564e-36
9.86608e-39
1.30265e-37
1.36933e-40
2.4408e-39
1.76094e-42
4.10543e-41
2.09353e-44
6.25966e-43
2.29342e-46
8.6952e-45
2.30449e-48
1.10248e-46
2.11112e-50
1.27526e-48
1.74868e-52
1.35078e-50
1.29439e-54
1.31561e-52
8.43184e-57
1.14675e-54
4.72768e-59
8.84774e-57
2.20964e-61
5.9398e-59
8.19666e-64
3.38504e-61
2.22496e-66
1.57634e-63
3.78316e-69
5.6319e-66
6.52839e-70
1.36653e-68
5.47238e-71
5.29838e-08
-1.1822e-08
1.47034e-08
-6.08005e-10
2.94877e-09
-8.91103e-10
4.14269e-10
-3.34556e-10
4.50794e-11
-5.74377e-11
4.00774e-12
-7.09846e-12
3.0076e-13
-6.7648e-13
1.89787e-14
-4.96786e-14
1.19538e-15
-2.71464e-15
9.08989e-17
-1.68934e-16
5.24661e-18
-9.45582e-18
2.24852e-19
-4.43719e-19
8.7059e-21
-1.79815e-20
3.07781e-22
-6.30476e-22
9.89921e-24
-1.89257e-23
2.9086e-25
-4.73e-25
7.83576e-27
-9.08911e-27
1.94116e-28
-9.29671e-29
4.43194e-30
2.26568e-30
9.35078e-32
1.77206e-31
1.8265e-33
6.69202e-33
3.30362e-35
1.94455e-34
5.5361e-37
4.78559e-36
8.59582e-39
1.03545e-37
1.23579e-40
2.00618e-39
1.64281e-42
3.51642e-41
2.01487e-44
5.60845e-43
2.2725e-46
8.16407e-45
2.34629e-48
1.08564e-46
2.20378e-50
1.31755e-48
1.86758e-52
1.44539e-50
1.41193e-54
1.40804e-52
9.36749e-57
1.22985e-54
5.33585e-59
9.51484e-57
2.52695e-61
6.41243e-59
9.47287e-64
3.67069e-61
2.59141e-66
1.71722e-63
4.42975e-69
6.16186e-66
5.3267e-70
1.50147e-68
4.0344e-71
9.40791e-09
-2.73103e-09
2.23352e-09
-2.75219e-10
5.38887e-10
-2.08194e-12
8.25932e-11
-2.04743e-11
9.79728e-12
-5.49102e-12
9.33774e-13
-8.08207e-13
7.17394e-14
-8.33235e-14
5.00677e-15
-5.79209e-15
4.01848e-16
-3.72902e-16
3.13399e-17
-2.53882e-17
1.68456e-18
-1.45243e-18
7.59623e-20
-7.04431e-20
3.1345e-21
-2.91028e-21
1.16987e-22
-1.00995e-22
3.96411e-24
-2.82721e-24
1.22453e-25
-5.58206e-26
3.45923e-27
-2.38884e-28
8.96004e-29
4.75038e-29
2.13856e-30
2.87676e-30
4.71435e-32
1.13357e-31
9.60117e-34
3.6025e-33
1.80816e-35
9.83802e-35
3.15038e-37
2.37416e-36
5.07767e-39
5.13917e-38
7.56567e-41
1.00667e-39
1.04066e-42
1.79396e-41
1.31847e-44
2.91739e-43
1.5336e-46
4.33488e-45
1.6302e-48
5.88324e-47
1.57364e-50
7.27911e-49
1.36739e-52
8.17795e-51
1.05722e-54
8.28724e-53
7.16255e-57
7.51751e-55
4.15785e-59
6.0301e-57
2.00251e-61
4.20312e-59
7.61758e-64
2.48164e-61
2.10979e-66
1.19391e-63
3.64351e-69
4.39146e-66
3.27292e-70
1.09435e-68
2.51977e-71
1.66541e-09
-6.06255e-10
2.58375e-10
-6.51762e-11
6.12794e-11
-2.07147e-12
1.1157e-11
2.57007e-13
1.43931e-12
1.30004e-14
1.42996e-13
-2.94386e-14
1.22453e-14
-4.41437e-15
1.09566e-15
-3.83934e-16
1.16968e-16
-3.33884e-17
7.88126e-18
-2.40281e-18
4.11372e-19
-1.40214e-19
1.97729e-20
-6.67254e-21
8.55718e-22
-2.50109e-22
3.34422e-23
-6.4643e-24
1.18482e-24
-3.09844e-26
3.81628e-26
9.23159e-27
1.12393e-27
7.02715e-28
3.04748e-29
3.48875e-29
7.60704e-31
1.39104e-30
1.74988e-32
4.73806e-32
3.71413e-34
1.41831e-33
7.27985e-36
3.78993e-35
1.31815e-37
9.12821e-37
2.20461e-39
1.99434e-38
3.40339e-41
3.96932e-40
4.84267e-43
7.21616e-42
6.33677e-45
1.19998e-43
7.6001e-47
1.82553e-45
8.31627e-49
2.53794e-47
8.24991e-51
3.21643e-49
7.3564e-53
3.70091e-51
5.8282e-55
3.84299e-53
4.03779e-57
3.5691e-55
2.39226e-59
2.92804e-57
1.17356e-61
2.08476e-59
4.53769e-64
1.2556e-61
1.27473e-66
6.1523e-64
2.22821e-69
2.3008e-66
1.63571e-70
5.8174e-69
1.30848e-71
3.35027e-10
-1.03766e-10
5.34864e-11
-1.32823e-11
6.90825e-12
-2.69458e-13
9.94843e-13
1.86406e-13
1.43737e-13
3.6947e-14
1.92345e-14
4.53775e-15
2.26001e-15
3.91177e-16
3.2855e-16
2.94228e-17
2.73626e-17
1.57407e-18
1.64454e-18
7.47789e-20
9.14436e-20
5.07358e-21
4.56177e-21
4.37938e-22
2.04505e-22
3.6204e-23
8.27572e-24
2.57151e-24
3.04132e-25
1.5528e-25
1.0232e-26
8.10115e-27
3.15312e-28
3.7015e-28
8.91304e-30
1.49473e-29
2.31545e-31
5.38138e-31
5.53648e-33
1.73983e-32
1.21992e-34
5.08034e-34
2.47902e-36
1.346e-35
4.64771e-38
3.24742e-37
8.03809e-40
7.15468e-39
1.28146e-41
1.44236e-40
1.88052e-43
2.66386e-42
2.53441e-45
4.50896e-44
3.12645e-47
6.99083e-46
3.51382e-49
9.91228e-48
3.57518e-51
1.28164e-49
3.26492e-53
1.50449e-51
2.64508e-55
1.59317e-53
1.87094e-57
1.50825e-55
1.12987e-59
1.26051e-57
5.64025e-62
9.13575e-60
2.21543e-64
5.59574e-62
6.31119e-67
2.7855e-64
1.11681e-69
1.05702e-66
7.24828e-71
2.70831e-69
5.95309e-72
6.63559e-11
-1.64012e-11
1.11822e-11
-2.42688e-12
1.40673e-12
-4.9098e-14
1.77445e-13
5.67647e-14
2.67191e-14
1.58336e-14
4.088e-15
2.55347e-15
8.18949e-16
3.35777e-16
8.43107e-17
3.14741e-17
5.7626e-18
2.15838e-18
3.65943e-19
1.43005e-19
2.08981e-20
8.9906e-21
1.07353e-21
5.3783e-22
4.98038e-23
3.0496e-23
2.09417e-24
1.62345e-24
8.00647e-26
8.02821e-26
2.79134e-27
3.65092e-27
8.89669e-29
1.51848e-28
2.59806e-30
5.76208e-30
6.96473e-32
1.99362e-31
1.71666e-33
6.29264e-33
3.89511e-35
1.81409e-34
8.1428e-37
4.7834e-36
1.56897e-38
1.15527e-37
2.78605e-40
2.5587e-39
4.55596e-42
5.20139e-41
6.85109e-44
9.70819e-43
9.45214e-46
1.66328e-44