/*--------------------------------*- C++ -*----------------------------------*\
  =========                 |
  \\      /  F ield         | OpenFOAM: The Open Source CFD Toolbox
   \\    /   O peration     | Website:  https://openfoam.org
    \\  /    A nd           | Version:  7
     \\/     M anipulation  |
\*---------------------------------------------------------------------------*/
FoamFile
{
    version     2.0;
    format      ascii;
    class       volScalarField;
    location    "0.2";
    object      k;
}
// * * * * * * * * * * * * * * * * * * * * * * * * * * * * * * * * * * * * * //

dimensions      [0 2 -2 0 0 0 0];

internalField   nonuniform List<scalar> 
1915
(
0.0350734
0.0273548
0.103743
0.0640067
0.143186
0.092367
0.176275
0.112689
0.20836
0.131575
0.242129
0.150981
0.277221
0.171141
0.310632
0.191054
0.3388
0.20899
0.360441
0.223969
0.0114107
0.0158616
0.016795
0.0169456
0.0180756
0.0193474
0.019999
0.0202163
0.0201542
0.0199336
0.0196357
0.0193114
0.0189887
0.0186825
0.0184059
0.0181702
0.0179738
0.0178011
0.0176451
0.0175031
0.0173711
0.0172478
0.0171303
0.0170168
0.0169048
0.0167917
0.0170879
0.0169206
0.017033
0.016797
0.0168221
0.0169786
0.0168927
0.0169385
0.016755
0.0167816
0.0169224
0.0166832
0.0144425
0.0086184
0.0113271
0.0219597
0.027618
0.0323858
0.0361038
0.0385422
0.0399339
0.0405328
0.0405893
0.0403157
0.0398685
0.0393511
0.0388248
0.0383224
0.03786
0.0374457
0.0370822
0.036767
0.0364939
0.036257
0.036049
0.0358633
0.0356935
0.0355325
0.0353727
0.0352036
0.0349235
0.0347172
0.034476
0.0340816
0.0335994
0.033034
0.0322631
0.0311558
0.0298687
0.0281619
0.0259687
0.0229859
0.0183105
0.00863383
0.0132223
0.0281747
0.0361178
0.0419383
0.0461215
0.0488903
0.0504671
0.0511254
0.0511472
0.0507791
0.05021
0.049568
0.0489307
0.0483388
0.0478099
0.047348
0.0469505
0.0466109
0.0463202
0.0460699
0.045851
0.0456552
0.0454743
0.0452996
0.0451217
0.0449288
0.0447012
0.0444302
0.0440909
0.043646
0.0430714
0.0423216
0.0413356
0.0400344
0.0383345
0.0360829
0.0330741
0.0289388
0.0227971
0.0105768
0.0158799
0.0344848
0.0437772
0.0500704
0.0543573
0.0570845
0.0585234
0.0590009
0.0588268
0.0582652
0.0575163
0.0567167
0.0559492
0.055256
0.0546525
0.0541386
0.0537064
0.0533447
0.0530404
0.0527814
0.0525566
0.0523557
0.0521686
0.0519851
0.0517943
0.0515835
0.051337
0.0510356
0.0506546
0.0501621
0.0495208
0.0486804
0.0475771
0.0461283
0.0442218
0.0416979
0.0383133
0.0336423
0.0266481
0.0125381
0.0191157
0.0415229
0.0519566
0.0585451
0.0626779
0.065019
0.0659818
0.0660029
0.0654306
0.0645347
0.0635103
0.0624873
0.0615418
0.0607105
0.060003
0.0594133
0.0589277
0.0585295
0.0582006
0.0579251
0.0576887
0.0574786
0.0572825
0.0570886
0.0568844
0.0566559
0.0563868
0.0560564
0.0556392
0.055103
0.054407
0.0534994
0.0523129
0.0507598
0.0487205
0.0460246
0.0424088
0.0373983
0.0297995
0.0141443
0.0231713
0.0509403
0.0624131
0.0689652
0.0724367
0.0737877
0.0737588
0.0729351
0.0716911
0.0702741
0.068848
0.0675147
0.0663297
0.0653141
0.0644666
0.0637725
0.0632104
0.0627571
0.0623889
0.0620853
0.0618284
0.0616021
0.0613919
0.0611838
0.0609637
0.0607162
0.0604239
0.0600654
0.0596143
0.0590376
0.0582938
0.0573297
0.0560765
0.0544434
0.0523061
0.0494861
0.0457031
0.0404387
0.0323616
0.0154482
0.029426
0.0679195
0.0790782
0.0841426
0.085486
0.0845505
0.0826108
0.0803417
0.0780412
0.0758572
0.0738699
0.072121
0.0706242
0.0693728
0.0683465
0.0675175
0.0668548
0.0663267
0.0659035
0.0655593
0.0652717
0.0650214
0.0647908
0.0645639
0.0643247
0.0640563
0.0637401
0.0633538
0.0628704
0.0622564
0.0614696
0.0604562
0.0591463
0.0574473
0.0552314
0.0523131
0.0483967
0.0429257
0.0344523
0.0165109
0.0433413
0.107299
0.110579
0.109097
0.104567
0.0987008
0.0932862
0.0886703
0.0847873
0.0815221
0.0787812
0.0764947
0.0746057
0.0730631
0.0718181
0.0708239
0.0700371
0.0694152
0.0689214
0.0685239
0.0681957
0.0679134
0.0676563
0.0674058
0.0671441
0.0668526
0.0665115
0.0660976
0.0655832
0.0649342
0.0641081
0.0630505
0.061691
0.0599352
0.0576526
0.0546514
0.0506222
0.0449755
0.0361675
0.0173839
0.0804888
0.193967
0.17082
0.150574
0.132637
0.117562
0.10643
0.098269
0.0921442
0.0874236
0.0837093
0.0807512
0.078385
0.0764946
0.0749913
0.0738036
0.0728699
0.0721363
0.0715576
0.0710954
0.0707171
0.0703952
0.0701056
0.0698271
0.0695395
0.0692228
0.0688557
0.0684141
0.0678697
0.0671877
0.0663252
0.0652276
0.0638235
0.0620173
0.0596759
0.0566018
0.0524738
0.0466745
0.0375813
0.0181054
0.170424
0.352607
0.269394
0.212552
0.170708
0.141664
0.122345
0.109311
0.100221
0.0936427
0.0887244
0.0849576
0.0820293
0.0797362
0.0779374
0.0765298
0.0754288
0.0745677
0.0738914
0.0733541
0.0729174
0.0725492
0.0722218
0.071911
0.0715946
0.0712507
0.0708566
0.0703872
0.0698134
0.0691
0.0682036
0.067069
0.0656242
0.0637723
0.0613777
0.0582381
0.0540217
0.0480883
0.0387509
0.0187046
0.377407
0.235926
0.394085
0.250722
0.41265
0.270065
0.434169
0.296133
0.453398
0.327035
0.460871
0.356034
0.459266
0.379861
0.455167
0.399039
0.44996
0.412889
0.442902
0.42162
0.425521
0.421437
0.402159
0.365054
0.318817
0.275332
0.241195
0.216988
0.200362
0.188622
0.179775
0.172612
0.166473
0.161016
0.156065
0.151525
0.14734
0.143474
0.139895
0.136578
0.133499
0.130619
0.127916
0.317394
0.401488
0.39915
0.346118
0.391567
1.05024
0.689988
0.540247
0.378037
1.07696
1.03627
0.594435
0.361842
0.92236
1.09978
0.642744
0.349772
0.756231
0.991288
0.694018
0.346569
0.619955
0.815198
0.679904
0.352832
0.52006
0.662403
0.599293
0.366403
0.457346
0.552789
0.531312
0.383367
0.427861
0.489911
0.494729
0.399718
0.421445
0.466414
0.489801
0.41324
0.426305
0.464011
0.500378
0.421304
0.433091
0.460619
0.491327
0.415734
0.429566
0.447066
0.463468
0.38779
0.404225
0.416816
0.424666
0.342159
0.358858
0.368968
0.372115
0.293843
0.307865
0.315914
0.317356
0.253946
0.264256
0.270389
0.271528
0.22519
0.232181
0.236529
0.237389
0.20544
0.209858
0.212558
0.212807
0.191579
0.194062
0.195317
0.194788
0.181221
0.182246
0.182314
0.181044
0.172929
0.172849
0.171994
0.170122
0.165921
0.165007
0.16346
0.161142
0.159786
0.158246
0.156197
0.15357
0.154303
0.152296
0.149892
0.147065
0.149347
0.146995
0.144346
0.141399
0.14484
0.142235
0.139423
0.136415
0.140725
0.137939
0.135024
0.131999
0.136958
0.134048
0.131074
0.128062
0.133502
0.130511
0.127514
0.124536
0.130326
0.127287
0.124294
0.121366
0.127401
0.124342
0.121372
0.118506
0.124685
0.121646
0.118714
0.11592
0.372336
0.484827
0.379052
0.283867
0.215887
0.170354
0.140915
0.121807
0.10906
0.100231
0.0938833
0.0891743
0.085602
0.0828539
0.0807265
0.0790725
0.0777853
0.0767823
0.0759971
0.0753755
0.0748729
0.0744523
0.0740821
0.0737354
0.0733873
0.0730141
0.0725919
0.0720944
0.0714917
0.0707479
0.0698192
0.0686498
0.0671669
0.0652726
0.0628287
0.0596285
0.0553316
0.0492785
0.0397297
0.0192091
0.526345
0.534826
0.446619
0.346906
0.263129
0.202142
0.161635
0.135561
0.118584
0.107165
0.0991876
0.093417
0.0891275
0.0858812
0.0833908
0.0814678
0.0799783
0.0788211
0.0779172
0.0772033
0.0766283
0.0761498
0.0757326
0.0753463
0.0749641
0.0745598
0.0741083
0.0735822
0.0729507
0.0721773
0.0712175
0.0700149
0.068496
0.0665615
0.0640712
0.0608143
0.0564432
0.0502824
0.0405495
0.019634
0.525736
0.52226
0.473845
0.397276
0.309326
0.235293
0.183556
0.150046
0.128497
0.114275
0.10454
0.097629
0.0925811
0.0887996
0.085924
0.0837176
0.0820155
0.0806963
0.0796674
0.0788561
0.0782041
0.0776641
0.0771968
0.0767687
0.0763502
0.0759137
0.0754322
0.0748775
0.0742175
0.0734153
0.0724255
0.0711913
0.0696382
0.0676657
0.0651315
0.0618217
0.0573823
0.0511249
0.0412324
0.0199913
0.486699
0.485126
0.482103
0.436938
0.352986
0.268355
0.205694
0.164666
0.13845
0.121359
0.109831
0.101762
0.0959209
0.091588
0.0883186
0.0858237
0.0839053
0.0824212
0.0812646
0.0803534
0.0796222
0.0790186
0.0784993
0.0780278
0.0775721
0.0771025
0.0765909
0.0760075
0.0753196
0.0744893
0.0734707
0.0722061
0.0706204
0.0686117
0.0660362
0.0626767
0.0581743
0.0518304
0.0417998
0.0202919
0.475802
0.45918
0.48114
0.465744
0.391715
0.299569
0.226918
0.178749
0.148034
0.128223
0.114941
0.10571
0.0990872
0.0942135
0.0905582
0.0877804
0.0856495
0.0840028
0.0827199
0.0817092
0.0808988
0.0802312
0.0796594
0.079144
0.0786506
0.0781479
0.0776061
0.0769945
0.0762792
0.0754217
0.0743753
0.0730816
0.0714647
0.0694218
0.066807
0.0634011
0.0588408
0.0524192
0.0422691
0.0205445
0.499402
0.457866
0.482406
0.485997
0.422915
0.326892
0.246017
0.191681
0.156986
0.134579
0.119652
0.109352
0.10201
0.0966351
0.09262
0.0895766
0.0872452
0.0854439
0.08404
0.0829333
0.0820459
0.0813158
0.0806924
0.0801337
0.0796029
0.0790675
0.0784961
0.0778567
0.0771148
0.076231
0.0751579
0.0738364
0.0721898
0.0701141
0.0674623
0.0640129
0.0593994
0.0529083
0.0426551
0.0207566
0.503119
0.472612
0.493131
0.502256
0.445213
0.348591
0.262473
0.202802
0.164571
0.14002
0.12375
0.112565
0.104615
0.0988085
0.094478
0.0911984
0.0886862
0.086744
0.0852286
0.0840326
0.0830727
0.0822831
0.0816102
0.0810097
0.0804428
0.0798756
0.0792754
0.0786093
0.0778417
0.0769326
0.0758339
0.0744858
0.0728109
0.0707042
0.0680175
0.0645276
0.0598653
0.0533121
0.0429704
0.0209347
0.489458
0.49187
0.508085
0.515055
0.460077
0.362982
0.273439
0.21048
0.170096
0.144202
0.127044
0.115236
0.106834
0.100692
0.0961068
0.0926313
0.0899656
0.0879014
0.0862878
0.0850117
0.083986
0.0831415
0.0824226
0.0817826
0.0811816
0.0805842
0.0799566
0.0792648
0.0784727
0.0775394
0.0764163
0.075043
0.0733412
0.0712052
0.0684858
0.0649583
0.0602514
0.0536429
0.0432254
0.021084
0.488599
0.50688
0.52051
0.522898
0.464485
0.366248
0.276717
0.213704
0.173089
0.146884
0.129396
0.117281
0.108613
0.10225
0.0974851
0.0938627
0.0910771
0.0889141
0.0872187
0.0858743
0.0847911
0.0838981
0.0831375
0.0824613
0.0818287
0.0812031
0.0805497
0.0798338
0.0790185
0.0780623
0.0769161
0.0755189
0.0737917
0.0716282
0.0688782
0.065316
0.0605687
0.0539111
0.0434291
0.0212092
0.505702
0.520321
0.529215
0.521003
0.454159
0.356484
0.271557
0.212166
0.173408
0.147977
0.130743
0.118654
0.10992
0.103462
0.0985985
0.0948842
0.0920162
0.089781
0.0880225
0.0866235
0.0854928
0.0845584
0.0837614
0.0830532
0.0823923
0.0817409
0.0810637
0.0803253
0.0794882
0.0785106
0.0773426
0.0759229
0.0741719
0.0719827
0.0692043
0.0656103
0.0608265
0.0541257
0.0435894
0.0213141
0.521591
0.526574
0.529539
0.501951
0.42529
0.333959
0.259001
0.206469
0.171305
0.147574
0.131112
0.119356
0.11075
0.104321
0.0994419
0.0956924
0.0927817
0.0905024
0.0887014
0.0872625
0.0860952
0.0851274
0.0843002
0.0835648
0.082879
0.0822047
0.0815059
0.0807468
0.0798897
0.0788921
0.0777039
0.0762631
0.07449
0.072277
0.0694725
0.0658495
0.0610329
0.0542944
0.0437127
0.021402
0.508527
0.511733
0.503286
0.456658
0.380452
0.303378
0.242001
0.197983
0.167356
0.145915
0.130606
0.119433
0.111121
0.104836
0.10002
0.0962902
0.0933762
0.0910813
0.0892585
0.0877952
0.0866027
0.08561
0.0847593
0.0840018
0.083295
0.0826007
0.0818828
0.0811051
0.0802297
0.0792137
0.0780068
0.0765467
0.0747531
0.0725181
0.0696899
0.0660407
0.061195
0.0544238
0.0438048
0.0214757
0.474619
0.472027
0.446814
0.394908
0.331173
0.271633
0.223856
0.1882
0.162234
0.143316
0.129378
0.118964
0.111077
0.10503
0.100346
0.0966865
0.0938061
0.0915229
0.0896987
0.088226
0.0870198
0.0860114
0.085144
0.0843694
0.0836456
0.0829346
0.0822001
0.081406
0.0805141
0.0794815
0.0782575
0.0767796
0.0749673
0.0727124
0.0698626
0.06619
0.0613188
0.0545196
0.0438703
0.0215373
0.42518
0.41059
0.378199
0.334772
0.287127
0.243093
0.206666
0.17821
0.156519
0.140087
0.127601
0.118046
0.110673
0.104937
0.100442
0.0968955
0.0940815
0.0918348
0.0900279
0.0885605
0.087352
0.0863366
0.0854591
0.0846727
0.083936
0.0832114
0.082463
0.0816547
0.0807482
0.0797007
0.0784612
0.0769673
0.0751381
0.0728653
0.0699963
0.066303
0.0614095
0.0545865
0.0439134
0.021589
0.366446
0.348961
0.320888
0.286625
0.251424
0.219022
0.19129
0.168641
0.150636
0.1365
0.125443
0.116782
0.109974
0.104599
0.100334
0.0969354
0.094215
0.0920264
0.0902541
0.0888054
0.0876052
0.0865908
0.0857097
0.0849164
0.0841708
0.0834358
0.0826761
0.0818558
0.0809367
0.079876
0.0786229
0.0771147
0.0752704
0.0729815
0.0700956
0.0663842
0.0614716
0.0546289
0.0439374
0.021632
0.311285
0.296821
0.275575
0.250284
0.224124
0.199585
0.178009
0.159819
0.144868
0.132766
0.123048
0.11527
0.109046
0.104058
0.100053
0.0968276
0.0942225
0.0921098
0.0903865
0.0889683
0.0877855
0.0867796
0.0859007
0.0851053
0.0843545
0.0836123
0.0828438
0.0820137
0.081084
0.0800119
0.0787468
0.0772259
0.0753683
0.0730655
0.0701648
0.0664379
0.0615091
0.0546502
0.0439453
0.0216678
0.267071
0.256499
0.240998
0.222381
0.20276
0.183877
0.166796
0.151974
0.13946
0.129079
0.12056
0.113611
0.107958
0.103365
0.099632
0.0965955
0.0941208
0.0920977
0.090435
0.0890569
0.0878995
0.0869085
0.0860371
0.0852439
0.0844915
0.083745
0.0829703
0.0821325
0.081194
0.0801123
0.0788369
0.077305
0.0754359
0.0731209
0.0702076
0.0664675
0.0615253
0.0546534
0.0439395
0.0216973
0.234187
0.226403
0.21485
0.200798
0.185728
0.170907
0.157179
0.144981
0.134447
0.125525
0.118063
0.111872
0.106763
0.102557
0.0991006
0.0962613
0.0939268
0.0920028
0.0904095
0.0890791
0.0879538
0.0869833
0.0861241
0.0853369
0.0845861
0.083838
0.0830593
0.0822158
0.0812703
0.0801807
0.0788966
0.0773555
0.0754766
0.0731513
0.0702273
0.0664762
0.0615231
0.0546412
0.0439218
0.0217213
0.210077
0.203904
0.194868
0.183872
0.17197
0.16009
0.148891
0.138752
0.129833
0.122144
0.115608
0.110105
0.105502
0.101669
0.0984855
0.0958456
0.0936565
0.0918378
0.0903201
0.0890433
0.0879551
0.0870097
0.0861665
0.0853887
0.0846424
0.0838951
0.0831145
0.0822672
0.0813166
0.0802207
0.0789294
0.0773806
0.0754935
0.0731597
0.0702268
0.0664669
0.0615051
0.0546156
0.043894
0.0217404
0.192041
0.186728
0.179291
0.170368
0.16071
0.150994
0.141723
0.133211
0.125613
0.118965
0.113236
0.108349
0.104212
0.10073
0.0978102
0.0953673
0.0933248
0.0916145
0.0901763
0.0889572
0.0879101
0.0869934
0.0861694
0.0854038
0.0846643
0.08392
0.0831396
0.0822902
0.0813359
0.0802352
0.0789384
0.0773833
0.0754896
0.0731489
0.0702089
0.0664419
0.0614734
0.0545787
0.0438575
0.0217549
0.178104
0.173263
0.16688
0.159406
0.151376
0.143282
0.135502
0.128286
0.12177
0.116001
0.11097
0.10663
0.102919
0.0997641
0.097095
0.0948432
0.0929456
0.0913443
0.0899876
0.0888286
0.0878253
0.0869398
0.0861375
0.0853864
0.084656
0.0839165
0.0831379
0.082288
0.0813316
0.0802275
0.0789264
0.0773665
0.0754675
0.0731213
0.0701758
0.0664034
0.0614299
0.0545318
0.0438134
0.0217652
0.166979
0.16243
0.156785
0.150364
0.143547
0.136691
0.130079
0.123904
0.11828
0.113253
0.108826
0.104971
0.101643
0.0987905
0.0963571
0.0942881
0.0925311
0.0910375
0.0897624
0.0886646
0.0877068
0.0868544
0.0860757
0.0853408
0.084621
0.083888
0.0831126
0.0822637
0.0813064
0.0802002
0.0788961
0.0773327
0.0754297
0.0730794
0.0701297
0.0663532
0.0613763
0.0544764
0.0437625
0.0217717
0.15785
0.153518
0.148424
0.142797
0.136908
0.131017
0.125333
0.120002
0.115116
0.110717
0.106812
0.103384
0.100401
0.097825
0.0956108
0.0937143
0.0920923
0.0907034
0.0895087
0.0884722
0.0875604
0.0867421
0.0859882
0.0852709
0.0845631
0.0838379
0.083067
0.0822202
0.0812632
0.080156
0.0788501
0.0772842
0.0753785
0.0730252
0.0700724
0.0662931
0.061314
0.0544136
0.0437057
0.0217744
0.150193
0.146047
0.141389
0.136382
0.131223
0.126097
0.12116
0.11652
0.11225
0.108384
0.10493
0.101878
0.0992048
0.0968795
0.0948675
0.0931326
0.0916386
0.0903501
0.0892336
0.0882574
0.0873914
0.0866077
0.0858793
0.0851805
0.0844857
0.0837692
0.0830039
0.0821602
0.0812046
0.0800975
0.0787908
0.0772234
0.0753158
0.0729605
0.0700058
0.0662247
0.0612443
0.0543444
0.0436438
0.0217735
0.143659
0.139688
0.13539
0.130885
0.126311
0.121804
0.117475
0.113408
0.109655
0.106243
0.10318
0.100459
0.0980612
0.0959632
0.0941367
0.0925518
0.0911778
0.0899848
0.0889434
0.0880257
0.0872049
0.0864555
0.085753
0.0850731
0.0843921
0.0836852
0.0829263
0.0820865
0.0811331
0.080027
0.0787202
0.0771522
0.0752437
0.0728872
0.0699313
0.0661491
0.0611683
0.0542697
0.0435772
0.0217691
0.138008
0.134208
0.130219
0.126128
0.122034
0.118035
0.114211
0.110621
0.107305
0.104282
0.101559
0.0991279
0.0969759
0.0950828
0.0934255
0.0919788
0.0907169
0.0896137
0.0886438
0.0877823
0.0870054
0.0862897
0.0856128
0.0849522
0.0842853
0.0835885
0.0828366
0.0820016
0.0810511
0.0799466
0.0786405
0.0770726
0.0751638
0.0728068
0.0698503
0.0660678
0.0610871
0.0541903
0.0435065
0.0217613
0.133072
0.129437
0.125719
0.121979
0.118286
0.11471
0.111308
0.108121
0.105177
0.102489
0.10006
0.0978855
0.0959519
0.0942429
0.0927392
0.0914194
0.0902611
0.0892419
0.0883394
0.0875315
0.0867967
0.0861139
0.0854622
0.0848208
0.0841682
0.0834819
0.0827375
0.0819077
0.0809607
0.0798584
0.0785536
0.0769864
0.0750778
0.0727208
0.0697642
0.0659817
0.0610015
0.054107
0.0434322
0.0217502
0.128724
0.125251
0.121774
0.118335
0.114983
0.111764
0.108719
0.105875
0.103249
0.100851
0.09868
0.0967302
0.0949905
0.0934467
0.092082
0.0908778
0.089815
0.0888737
0.0880343
0.087277
0.0865824
0.0859312
0.0853042
0.0846816
0.0840434
0.0833678
0.0826312
0.081807
0.0808639
0.0797643
0.0784613
0.0768951
0.0749872
0.0726305
0.0696742
0.0658919
0.0609125
0.0540204
0.0433549
0.0217359
0.124871
0.121553
0.118293
0.115117
0.112058
0.109146
0.106405
0.103855
0.101504
0.0993572
0.0974111
0.0956594
0.094092
0.0926959
0.0914564
0.0903574
0.089382
0.0885127
0.087732
0.0870222
0.0863657
0.0857447
0.0851414
0.0845373
0.0839132
0.0832484
0.0825198
0.0817015
0.0807627
0.079666
0.0783651
0.0768003
0.0748933
0.0725372
0.0695812
0.0657994
0.0608208
0.053931
0.0432748
0.0217185
0.121437
0.11827
0.115207
0.112264
0.109459
0.106811
0.104334
0.102037
0.0999249
0.0979962
0.096247
0.0946699
0.0932552
0.0919911
0.0908642
0.0898605
0.0889648
0.0881616
0.0874353
0.0867699
0.0861492
0.0855569
0.0849763
0.0843901
0.0837799
0.0831257
0.0824053
0.081593
0.0806586
0.0795652
0.0782665
0.0767034
0.0747974
0.072442
0.0694864
0.065705
0.0607271
0.0538396
0.0431926
0.021698
0.118365
0.115342
0.11246
0.109724
0.107143
0.104725
0.102477
0.100401
0.0984955
0.0967576
0.095181
0.0937579
0.0924785
0.0913319
0.0903062
0.0893885
0.0885652
0.0878227
0.0871465
0.0865222
0.0859351
0.0853699
0.084811
0.084242
0.0836453
0.0830016
0.0822892
0.081483
0.0805532
0.0794631
0.0781669
0.0766054
0.0747005
0.0723458
0.0693907
0.0656094
0.0606321
0.0537467
0.0431085
0.0216747
0.115607
0.112723
0.110007
0.107457
0.105074
0.102859
0.100811
0.0989268
0.0972024
0.0956314
0.0942064
0.0929189
0.0917594
0.0907176
0.0897824
0.0889422
0.0881847
0.0874974
0.0868673
0.0862812
0.0857253
0.0851856
0.0846473
0.0840947
0.083511
0.0828776
0.0821731
0.0813731
0.0804479
0.0793612
0.0780674
0.0765076
0.0746038
0.0722497
0.0692947
0.0655135
0.0605364
0.0536527
0.043023
0.0216486
0.113124
0.110373
0.107811
0.10543
0.103224
0.101187
0.0993144
0.0975988
0.0960327
0.094608
0.0933163
0.0921485
0.0910953
0.0901467
0.0892925
0.0885219
0.087824
0.087187
0.0865992
0.0860483
0.0855215
0.0850056
0.0844867
0.0839498
0.0833787
0.0827551
0.0820585
0.0812644
0.0803438
0.0792605
0.0779691
0.076411
0.0745081
0.0721544
0.0691994
0.0654179
0.0604406
0.0535582
0.0429365
0.0216199
)
;

boundaryField
{
    leftWall
    {
        type            kqRWallFunction;
        value           nonuniform 0();
    }
    rightWall
    {
        type            kqRWallFunction;
        value           nonuniform List<scalar> 
43
(
0.0086184
0.00863383
0.0105768
0.0125381
0.0141443
0.0154482
0.0165109
0.0173839
0.0181054
0.0187046
0.0192091
0.019634
0.0199913
0.0202919
0.0205445
0.0207566
0.0209347
0.021084
0.0212092
0.0213141
0.021402
0.0214757
0.0215373
0.021589
0.021632
0.0216678
0.0216973
0.0217213
0.0217404
0.0217549
0.0217652
0.0217717
0.0217744
0.0217735
0.0217691
0.0217613
0.0217502
0.0217359
0.0217185
0.021698
0.0216747
0.0216486
0.0216199
)
;
    }
    lowerWall
    {
        type            kqRWallFunction;
        value           nonuniform List<scalar> 
66
(
0.0350734
0.0273548
0.0273548
0.0640067
0.092367
0.112689
0.131575
0.150981
0.171141
0.191054
0.20899
0.223969
0.317394
0.401488
0.39915
0.346118
0.0114107
0.0113271
0.0132223
0.0158799
0.0191157
0.0231713
0.029426
0.0433413
0.0804888
0.170424
0.0114107
0.0158616
0.016795
0.0169456
0.0180756
0.0193474
0.019999
0.0202163
0.0201542
0.0199336
0.0196357
0.0193114
0.0189887
0.0186825
0.0184059
0.0181702
0.0179738
0.0178011
0.0176451
0.0175031
0.0173711
0.0172478
0.0171303
0.0170168
0.0169048
0.0167917
0.0170879
0.0169206
0.017033
0.016797
0.0168221
0.0169786
0.0168927
0.0169385
0.016755
0.0167816
0.0169224
0.0166832
0.0144425
0.0086184
)
;
    }
    atmosphere
    {
        type            inletOutlet;
        inletValue      nonuniform 0();
        value           nonuniform 0();
    }
    defaultFaces
    {
        type            empty;
    }
    procBoundary1to0
    {
        type            processor;
        value           nonuniform List<scalar> 
44
(
0.0385418
0.101909
0.132186
0.161639
0.194723
0.231192
0.268602
0.304338
0.338308
0.373266
0.409229
0.441815
0.465698
0.479352
0.481761
0.474091
0.463256
0.453112
0.443347
0.429524
0.430784
0.430784
0.408786
0.374875
0.33324
0.291534
0.255996
0.228938
0.209623
0.196041
0.186204
0.178647
0.172446
0.167072
0.162243
0.157812
0.153703
0.149872
0.146293
0.142943
0.139804
0.13684
0.134035
0.131377
)
;
    }
    procBoundary1to3
    {
        type            processor;
        value           nonuniform List<scalar> 
45
(
0.125387
0.122164
0.11916
0.116293
0.113577
0.110885
0.108262
0.105843
0.103615
0.101566
0.099688
0.0979699
0.0964022
0.0949751
0.093679
0.0925045
0.0914422
0.090483
0.0896173
0.0888355
0.0881276
0.0874834
0.0868922
0.0863431
0.0858246
0.0853248
0.0848312
0.0843306
0.0838085
0.0832494
0.0826354
0.0819463
0.0811581
0.0802419
0.0791619
0.0778729
0.0763162
0.0744141
0.0720606
0.0691052
0.0653231
0.0603452
0.0534636
0.0428493
0.0215887
)
;
    }
}


// ************************************************************************* //
