/*--------------------------------*- C++ -*----------------------------------*\
  =========                 |
  \\      /  F ield         | OpenFOAM: The Open Source CFD Toolbox
   \\    /   O peration     | Website:  https://openfoam.org
    \\  /    A nd           | Version:  7
     \\/     M anipulation  |
\*---------------------------------------------------------------------------*/
FoamFile
{
    version     2.0;
    format      ascii;
    class       volVectorField;
    location    "0.2";
    object      U;
}
// * * * * * * * * * * * * * * * * * * * * * * * * * * * * * * * * * * * * * //

dimensions      [0 1 -1 0 0 0 0];

internalField   nonuniform List<vector> 
1915
(
(-0.0758967 0.0467003 0)
(-0.124679 -0.127626 0)
(0.270569 0.223255 0)
(0.113223 -0.035744 0)
(0.463768 0.431201 0)
(0.228009 0.165938 0)
(0.531288 0.648734 0)
(0.276143 0.42977 0)
(0.551192 0.86383 0)
(0.291674 0.714841 0)
(0.565301 1.07954 0)
(0.298274 1.01153 0)
(0.58452 1.29982 0)
(0.306231 1.31765 0)
(0.602373 1.52371 0)
(0.317594 1.63604 0)
(0.599627 1.74205 0)
(0.323833 1.96319 0)
(0.553785 1.93083 0)
(0.333579 2.29667 0)
(-0.0485649 0.0293684 0)
(-0.111906 0.0287615 0)
(-0.168598 0.0205702 0)
(-0.202132 0.00892279 0)
(-0.21171 -0.0011297 0)
(-0.20541 -0.0074222 0)
(-0.189536 -0.0103129 0)
(-0.167656 -0.0117401 0)
(-0.142904 -0.0120539 0)
(-0.11739 -0.0116618 0)
(-0.0925541 -0.0108321 0)
(-0.0692997 -0.00975561 0)
(-0.0481442 -0.00854841 0)
(-0.0293783 -0.00728069 0)
(-0.0131251 -0.00603621 0)
(0.000703066 -0.00491618 0)
(0.0123308 -0.00397614 0)
(0.0219881 -0.00318153 0)
(0.0298782 -0.00248685 0)
(0.0361922 -0.00187609 0)
(0.0410912 -0.00134602 0)
(0.0447066 -0.00086924 0)
(0.0471506 -0.000434883 0)
(0.0485097 -2.45265e-05 0)
(0.0489064 0.000389171 0)
(0.0484079 0.000993765 0)
(0.0470812 0.00135173 0)
(0.0450324 0.00146687 0)
(0.0422359 0.0019615 0)
(0.0387074 0.0024327 0)
(0.0345532 0.0026521 0)
(0.0297764 0.00296992 0)
(0.024337 0.00344069 0)
(0.0184367 0.00372039 0)
(0.0121583 0.00378957 0)
(0.00576509 0.00377954 0)
(-0.000339703 0.00335253 0)
(-0.00514415 0.00233426 0)
(-0.00743999 0.000313988 0)
(-0.00498943 -0.0029524 0)
(-0.0529987 0.0832142 0)
(-0.12103 0.0687512 0)
(-0.170056 0.0471352 0)
(-0.197777 0.022594 0)
(-0.206653 0.00244082 0)
(-0.202191 -0.0118658 0)
(-0.187532 -0.020861 0)
(-0.166768 -0.0258448 0)
(-0.142916 -0.0278934 0)
(-0.118123 -0.0279302 0)
(-0.093834 -0.0266541 0)
(-0.070981 -0.0245822 0)
(-0.0500966 -0.0220744 0)
(-0.031429 -0.0193798 0)
(-0.0150364 -0.0166891 0)
(-0.000867809 -0.0141459 0)
(0.0111823 -0.0118236 0)
(0.0212544 -0.00973393 0)
(0.0295111 -0.00786553 0)
(0.0361191 -0.00619947 0)
(0.0412434 -0.00471745 0)
(0.0450385 -0.00338388 0)
(0.0476437 -0.00217415 0)
(0.0491885 -0.00106574 0)
(0.0497533 -3.32748e-05 0)
(0.049425 0.000901459 0)
(0.048292 0.00176887 0)
(0.0463987 0.00260685 0)
(0.04381 0.0033649 0)
(0.0406089 0.00405335 0)
(0.0368074 0.00472978 0)
(0.0324419 0.00537935 0)
(0.027589 0.00592058 0)
(0.0222987 0.0063128 0)
(0.0167118 0.00656967 0)
(0.0109837 0.00641009 0)
(0.00545174 0.00559514 0)
(0.000710767 0.00363032 0)
(-0.00248974 3.5343e-05 0)
(-0.00195223 -0.00619766 0)
(-0.0505286 0.145201 0)
(-0.123042 0.113901 0)
(-0.171556 0.0756722 0)
(-0.199867 0.0360897 0)
(-0.20857 0.00395082 0)
(-0.203108 -0.0186246 0)
(-0.187913 -0.0330734 0)
(-0.166928 -0.0411507 0)
(-0.143131 -0.0445635 0)
(-0.118596 -0.0447435 0)
(-0.0946973 -0.0428121 0)
(-0.0722887 -0.0395965 0)
(-0.0518422 -0.035679 0)
(-0.0335707 -0.0314698 0)
(-0.0175194 -0.0272623 0)
(-0.00364122 -0.0232485 0)
(0.00816284 -0.0195246 0)
(0.0180332 -0.0161224 0)
(0.0261341 -0.013048 0)
(0.0326277 -0.0102891 0)
(0.037671 -0.00781669 0)
(0.0414194 -0.00558875 0)
(0.044018 -0.00356706 0)
(0.0455956 -0.00173085 0)
(0.0462515 -7.11792e-05 0)
(0.0460775 0.00144808 0)
(0.0451589 0.00283767 0)
(0.0435539 0.0041176 0)
(0.0413393 0.00533363 0)
(0.0385869 0.00646992 0)
(0.0353313 0.00752143 0)
(0.0316264 0.008499 0)
(0.0275563 0.00937241 0)
(0.023191 0.0100586 0)
(0.0186324 0.0104391 0)
(0.0140369 0.0102928 0)
(0.00958461 0.00923172 0)
(0.00552203 0.00668358 0)
(0.0020208 0.00193434 0)
(0.00109177 -0.00634643 0)
(-0.0545962 0.207207 0)
(-0.134356 0.160357 0)
(-0.184409 0.10439 0)
(-0.212044 0.0489349 0)
(-0.218063 0.0045561 0)
(-0.209511 -0.0267364 0)
(-0.191712 -0.0465588 0)
(-0.168848 -0.0574728 0)
(-0.143879 -0.0619515 0)
(-0.118746 -0.0620215 0)
(-0.0946771 -0.0592384 0)
(-0.0723847 -0.0547385 0)
(-0.0522214 -0.0493225 0)
(-0.0343146 -0.0435455 0)
(-0.0186599 -0.0377848 0)
(-0.00518155 -0.0322764 0)
(0.00624175 -0.0271451 0)
(0.0157732 -0.0224431 0)
(0.0235917 -0.0181835 0)
(0.0298632 -0.0143545 0)
(0.03474 -0.0109219 0)
(0.0383725 -0.00783983 0)
(0.0409057 -0.00506318 0)
(0.0424707 -0.00255774 0)
(0.0431755 -0.000295119 0)
(0.0431118 0.00176047 0)
(0.0423622 0.00363445 0)
(0.040997 0.00535553 0)
(0.0390899 0.00695624 0)
(0.0367074 0.00843714 0)
(0.0339017 0.00979745 0)
(0.030734 0.0110351 0)
(0.0272781 0.0121102 0)
(0.0236087 0.0129361 0)
(0.0198173 0.0133786 0)
(0.0160125 0.0131981 0)
(0.01228 0.0120128 0)
(0.00865749 0.00926488 0)
(0.00506035 0.00423592 0)
(0.0028994 -0.00438894 0)
(-0.0658479 0.27763 0)
(-0.155765 0.210869 0)
(-0.208053 0.133911 0)
(-0.234075 0.0599978 0)
(-0.235258 0.00225337 0)
(-0.221327 -0.0377253 0)
(-0.198823 -0.0624449 0)
(-0.172399 -0.0755798 0)
(-0.145014 -0.0805272 0)
(-0.118431 -0.0799924 0)
(-0.0936461 -0.0759931 0)
(-0.0711473 -0.0699638 0)
(-0.0511002 -0.0628937 0)
(-0.0335004 -0.0554539 0)
(-0.0182556 -0.0480887 0)
(-0.0052291 -0.0410694 0)
(0.00574502 -0.0345374 0)
(0.0148601 -0.028553 0)
(0.022312 -0.0231319 0)
(0.028275 -0.0182625 0)
(0.0329039 -0.0139067 0)
(0.0363473 -0.0100102 0)
(0.0387496 -0.00651594 0)
(0.0402419 -0.0033751 0)
(0.0409342 -0.000546649 0)
(0.0409178 0.00200947 0)
(0.0402737 0.00432847 0)
(0.039075 0.00644411 0)
(0.037393 0.0083856 0)
(0.0352929 0.0101644 0)
(0.0328327 0.0117828 0)
(0.0300727 0.0132297 0)
(0.0270786 0.0144613 0)
(0.023917 0.0153912 0)
(0.020658 0.0158777 0)
(0.0173632 0.0156889 0)
(0.0140446 0.0144789 0)
(0.0106231 0.0117663 0)
(0.00691988 0.00693813 0)
(0.00389957 -0.00124743 0)
(-0.0842808 0.364615 0)
(-0.189612 0.267253 0)
(-0.244209 0.164222 0)
(-0.267168 0.0679758 0)
(-0.260561 -0.00460597 0)
(-0.238421 -0.0531777 0)
(-0.208894 -0.0819818 0)
(-0.177203 -0.0963404 0)
(-0.146232 -0.100848 0)
(-0.117436 -0.098987 0)
(-0.0914658 -0.0932426 0)
(-0.0684968 -0.085318 0)
(-0.0484444 -0.0763559 0)
(-0.0311215 -0.0671115 0)
(-0.0163095 -0.0580674 0)
(-0.00378609 -0.0495085 0)
(0.00667215 -0.0415804 0)
(0.015295 -0.0343418 0)
(0.0222994 -0.0278021 0)
(0.0278718 -0.0219402 0)
(0.0321734 -0.0167082 0)
(0.0353542 -0.0120408 0)
(0.0375572 -0.0078698 0)
(0.0389117 -0.00413437 0)
(0.0395265 -0.000782709 0)
(0.0394913 0.00223242 0)
(0.038885 0.00495397 0)
(0.0377799 0.00742102 0)
(0.0362443 0.00966508 0)
(0.0343413 0.0117036 0)
(0.0321283 0.0135406 0)
(0.0296613 0.0151621 0)
(0.0269961 0.0165243 0)
(0.0241853 0.0175435 0)
(0.0212743 0.0180833 0)
(0.0182848 0.0179351 0)
(0.0151753 0.0168036 0)
(0.0118076 0.0143016 0)
(0.00798436 0.00994436 0)
(0.0044006 0.00257621 0)
(-0.112796 0.475177 0)
(-0.245321 0.331103 0)
(-0.297973 0.194983 0)
(-0.314287 0.0707928 0)
(-0.294924 -0.0184359 0)
(-0.260647 -0.0751672 0)
(-0.221344 -0.106704 0)
(-0.182615 -0.120792 0)
(-0.146984 -0.123566 0)
(-0.115359 -0.119385 0)
(-0.0878761 -0.111187 0)
(-0.064286 -0.100892 0)
(-0.0441874 -0.0897345 0)
(-0.0271665 -0.0785041 0)
(-0.0128477 -0.0676835 0)
(-0.000904563 -0.0575463 0)
(0.00895462 -0.0482237 0)
(0.0170008 -0.0397579 0)
(0.0234742 -0.0321406 0)
(0.0285755 -0.0253329 0)
(0.0324732 -0.0192717 0)
(0.0353195 -0.0138794 0)
(0.0372556 -0.00907625 0)
(0.0384075 -0.00479035 0)
(0.0388812 -0.000959175 0)
(0.0387634 0.00247302 0)
(0.0381298 0.00555672 0)
(0.0370498 0.00833673 0)
(0.0355879 0.0108486 0)
(0.0338036 0.013114 0)
(0.0317499 0.0151394 0)
(0.0294761 0.0169116 0)
(0.0270268 0.0183897 0)
(0.0244392 0.019497 0)
(0.0217354 0.0201109 0)
(0.0189062 0.0200528 0)
(0.0158752 0.019083 0)
(0.0124793 0.0169052 0)
(0.00853052 0.0131523 0)
(0.0045879 0.00673767 0)
(-0.160383 0.644291 0)
(-0.346216 0.404506 0)
(-0.379858 0.223172 0)
(-0.38039 0.0638575 0)
(-0.33954 -0.0432195 0)
(-0.287526 -0.106487 0)
(-0.235176 -0.13836 0)
(-0.187642 -0.149947 0)
(-0.146466 -0.149225 0)
(-0.111624 -0.141452 0)
(-0.0825001 -0.129931 0)
(-0.0582951 -0.116699 0)
(-0.0382228 -0.102999 0)
(-0.021606 -0.089582 0)
(-0.00789187 -0.0768819 0)
(0.00335986 -0.0651271 0)
(0.0125146 -0.0544114 0)
(0.0198867 -0.0447447 0)
(0.0257403 -0.0360902 0)
(0.030289 -0.028384 0)
(0.0337079 -0.0215435 0)
(0.03615 -0.0154759 0)
(0.0377541 -0.010089 0)
(0.0386417 -0.00529891 0)
(0.0389142 -0.00103231 0)
(0.0386542 0.00277561 0)
(0.0379331 0.00618301 0)
(0.036816 0.00924066 0)
(0.0353625 0.0119886 0)
(0.0336266 0.0144527 0)
(0.0316554 0.0166429 0)
(0.0294897 0.018549 0)
(0.0271627 0.020136 0)
(0.0246966 0.021337 0)
(0.0220943 0.022048 0)
(0.0193242 0.0221227 0)
(0.0162898 0.0213747 0)
(0.0128246 0.019587 0)
(0.00875984 0.0164902 0)
(0.00460052 0.011055 0)
(-0.27321 0.86509 0)
(-0.545261 0.483471 0)
(-0.50554 0.234942 0)
(-0.47027 0.0369965 0)
(-0.39431 -0.0854551 0)
(-0.317467 -0.150795 0)
(-0.248649 -0.178838 0)
(-0.19083 -0.184699 0)
(-0.143605 -0.178187 0)
(-0.105497 -0.165278 0)
(-0.0748723 -0.149436 0)
(-0.0502555 -0.132649 0)
(-0.0304192 -0.116041 0)
(-0.0144004 -0.100237 0)
(-0.00146363 -0.0855641 0)
(0.00894742 -0.0721638 0)
(0.0172694 -0.0600664 0)
(0.0238571 -0.0492329 0)
(0.0289957 -0.0395876 0)
(0.0329087 -0.0310357 0)
(0.0357747 -0.0234709 0)
(0.0377459 -0.0167825 0)
(0.0389566 -0.0108637 0)
(0.0395225 -0.00561808 0)
(0.0395387 -0.000961124 0)
(0.0390825 0.00318132 0)
(0.03822 0.00687511 0)
(0.0370106 0.010177 0)
(0.0355079 0.0131317 0)
(0.0337594 0.0157698 0)
(0.0318049 0.0181053 0)
(0.0296764 0.0201333 0)
(0.0273959 0.021826 0)
(0.0249722 0.0231291 0)
(0.0223935 0.0239582 0)
(0.0196128 0.0241987 0)
(0.0165245 0.0237119 0)
(0.012971 0.0223462 0)
(0.00880668 0.0199087 0)
(0.00452394 0.0154073 0)
(-0.408911 1.3521 0)
(-0.844521 0.535297 0)
(-0.683841 0.203257 0)
(-0.580592 -0.025926 0)
(-0.454717 -0.153532 0)
(-0.346572 -0.211964 0)
(-0.258858 -0.229734 0)
(-0.190149 -0.225571 0)
(-0.137043 -0.210495 0)
(-0.0961091 -0.19072 0)
(-0.0644646 -0.169501 0)
(-0.0398725 -0.148537 0)
(-0.0206372 -0.128676 0)
(-0.00551159 -0.110312 0)
(0.0064116 -0.0935953 0)
(0.015794 -0.0785437 0)
(0.0231322 -0.0650951 0)
(0.028813 -0.0531444 0)
(0.0331357 -0.042567 0)
(0.0363283 -0.0332316 0)
(0.0385691 -0.0250047 0)
(0.0400059 -0.0177552 0)
(0.0407664 -0.0113603 0)
(0.0409582 -0.00571037 0)
(0.0406689 -0.000709399 0)
(0.0399689 0.00372605 0)
(0.0389178 0.00766934 0)
(0.0375682 0.0111831 0)
(0.0359669 0.0143171 0)
(0.034154 0.0171067 0)
(0.0321614 0.0195711 0)
(0.030012 0.0217113 0)
(0.0277177 0.0235086 0)
(0.0252764 0.0249214 0)
(0.0226646 0.0258854 0)
(0.0198263 0.0263151 0)
(0.0166539 0.0261121 0)
(0.0130047 0.0251773 0)
(0.00875699 0.0233748 0)
(0.00440798 0.0197282 0)
(0.482887 2.05088 0)
(0.379536 2.51162 0)
(0.372929 2.09917 0)
(0.355823 2.53497 0)
(0.275172 2.10841 0)
(0.316824 2.50537 0)
(0.206264 2.11335 0)
(0.307725 2.47131 0)
(0.271587 2.17866 0)
(0.339817 2.43067 0)
(0.386058 2.27449 0)
(0.391634 2.40241 0)
(0.464784 2.35637 0)
(0.438474 2.38479 0)
(0.57172 2.33798 0)
(0.499592 2.37055 0)
(0.650074 2.29789 0)
(0.616484 2.36262 0)
(0.705485 2.22918 0)
(0.730874 2.33901 0)
(0.841804 2.27331 0)
(0.897468 2.1302 0)
(0.880744 1.93203 0)
(0.813741 1.7265 0)
(0.725358 1.54503 0)
(0.637329 1.3969 0)
(0.557081 1.27814 0)
(0.485973 1.18176 0)
(0.423441 1.10226 0)
(0.368373 1.03551 0)
(0.319454 0.978395 0)
(0.275384 0.92859 0)
(0.235086 0.884398 0)
(0.197771 0.84454 0)
(0.162912 0.808051 0)
(0.130161 0.7742 0)
(0.0992886 0.742434 0)
(0.0701423 0.712329 0)
(0.0426193 0.68355 0)
(0.0166534 0.655832 0)
(-0.00779598 0.628963 0)
(-0.0307423 0.602788 0)
(-0.0521739 0.577184 0)
(0.287855 1.64425 0)
(-2.77618 -0.0322535 0)
(-2.7611 -0.049817 0)
(-1.87395 0.810845 0)
(0.320995 2.35599 0)
(-0.624803 0.871788 0)
(-2.34886 -0.480444 0)
(-2.06734 0.255255 0)
(0.303327 2.49751 0)
(0.133542 1.80586 0)
(-1.40321 0.255387 0)
(-1.76102 0.368284 0)
(0.297171 2.49566 0)
(0.349896 2.19845 0)
(-0.523302 1.02518 0)
(-1.36208 0.678007 0)
(0.36028 2.46322 0)
(0.392454 2.36375 0)
(0.144544 1.85863 0)
(-0.84141 1.09564 0)
(0.436401 2.44268 0)
(0.443886 2.41015 0)
(0.393527 2.22183 0)
(-0.131357 1.60246 0)
(0.491739 2.42231 0)
(0.545565 2.43017 0)
(0.485472 2.32811 0)
(0.347276 1.98229 0)
(0.552664 2.39458 0)
(0.628991 2.41163 0)
(0.692482 2.32053 0)
(0.680261 1.9354 0)
(0.63667 2.35258 0)
(0.712305 2.3598 0)
(0.870589 2.25721 0)
(1.04494 1.85136 0)
(0.776294 2.30403 0)
(0.858581 2.24095 0)
(1.02409 2.13511 0)
(1.27343 1.7822 0)
(0.923905 2.24378 0)
(1.04402 2.10474 0)
(1.229 1.87675 0)
(1.51131 1.52838 0)
(1.0534 2.1243 0)
(1.22825 1.95891 0)
(1.43977 1.63536 0)
(1.68701 1.17218 0)
(1.10866 1.93086 0)
(1.33252 1.76068 0)
(1.55247 1.45118 0)
(1.73138 1.05065 0)
(1.04885 1.70789 0)
(1.27612 1.55812 0)
(1.46639 1.30031 0)
(1.58619 0.985558 0)
(0.924564 1.50886 0)
(1.11602 1.38347 0)
(1.26777 1.18137 0)
(1.35526 0.936784 0)
(0.793796 1.34962 0)
(0.942662 1.24389 0)
(1.06102 1.08545 0)
(1.13133 0.896369 0)
(0.679403 1.22569 0)
(0.793912 1.13439 0)
(0.886353 1.0077 0)
(0.944564 0.859279 0)
(0.583255 1.12819 0)
(0.672717 1.04822 0)
(0.745911 0.944315 0)
(0.794613 0.825147 0)
(0.502348 1.04983 0)
(0.573872 0.979128 0)
(0.63306 0.891974 0)
(0.674408 0.794038 0)
(0.433721 0.985374 0)
(0.492342 0.922407 0)
(0.541351 0.847842 0)
(0.577072 0.765596 0)
(0.374762 0.931114 0)
(0.424003 0.874649 0)
(0.465551 0.809806 0)
(0.496955 0.73944 0)
(0.323203 0.884377 0)
(0.365541 0.833454 0)
(0.40157 0.776351 0)
(0.429653 0.715225 0)
(0.277248 0.843259 0)
(0.314441 0.797131 0)
(0.346355 0.74636 0)
(0.371879 0.69261 0)
(0.235598 0.806379 0)
(0.268907 0.764455 0)
(0.297722 0.718982 0)
(0.321274 0.671263 0)
(0.197362 0.772723 0)
(0.227701 0.734526 0)
(0.254157 0.693569 0)
(0.276187 0.650894 0)
(0.161945 0.741545 0)
(0.189982 0.706682 0)
(0.214622 0.669639 0)
(0.235475 0.631266 0)
(0.128947 0.712293 0)
(0.155177 0.680438 0)
(0.178404 0.646837 0)
(0.19834 0.612191 0)
(0.098091 0.684552 0)
(0.122887 0.655432 0)
(0.145001 0.624892 0)
(0.164219 0.593521 0)
(0.0691832 0.658 0)
(0.0928285 0.631386 0)
(0.114056 0.603599 0)
(0.132705 0.57514 0)
(0.0420859 0.632387 0)
(0.0647982 0.608086 0)
(0.0853103 0.582799 0)
(0.103504 0.556958 0)
(0.0167025 0.607513 0)
(0.038648 0.585361 0)
(0.0585757 0.562366 0)
(0.0763995 0.538903 0)
(-0.00703307 0.583227 0)
(0.0142733 0.563083 0)
(0.0337148 0.542208 0)
(0.0512321 0.520927 0)
(-0.0291594 0.559425 0)
(-0.00840189 0.541162 0)
(0.0106264 0.522261 0)
(0.0278818 0.502996 0)
(-1.46599 1.30969 0)
(-1.24205 0.459019 0)
(-0.909249 0.0869194 0)
(-0.694615 -0.142432 0)
(-0.510059 -0.25478 0)
(-0.368087 -0.292978 0)
(-0.261561 -0.292056 0)
(-0.182909 -0.272709 0)
(-0.125062 -0.245988 0)
(-0.0823628 -0.217523 0)
(-0.050579 -0.189882 0)
(-0.0267099 -0.16416 0)
(-0.00861457 -0.140741 0)
(0.00520675 -0.119677 0)
(0.0158046 -0.100876 0)
(0.0239197 -0.0841895 0)
(0.0300907 -0.0694364 0)
(0.0347212 -0.0564301 0)
(0.0381135 -0.044988 0)
(0.0404925 -0.0349369 0)
(0.0420305 -0.0261132 0)
(0.0428673 -0.0183636 0)
(0.0431202 -0.0115485 0)
(0.0428866 -0.00554451 0)
(0.0422448 -0.000244361 0)
(0.0412564 0.00444438 0)
(0.0399735 0.00860237 0)
(0.038441 0.0122981 0)
(0.0366977 0.0155865 0)
(0.0347757 0.0185081 0)
(0.0326988 0.0210875 0)
(0.030481 0.0233327 0)
(0.0281252 0.0252343 0)
(0.0256201 0.026764 0)
(0.0229339 0.0278762 0)
(0.0200055 0.0285116 0)
(0.0167299 0.0286056 0)
(0.0129824 0.0281001 0)
(0.00866312 0.0269005 0)
(0.00428026 0.0240244 0)
(-1.7938 0.727012 0)
(-1.3895 0.229704 0)
(-1.06655 -0.116892 0)
(-0.776059 -0.314208 0)
(-0.543409 -0.389508 0)
(-0.372701 -0.393394 0)
(-0.251233 -0.364862 0)
(-0.165757 -0.325057 0)
(-0.105585 -0.283696 0)
(-0.0629431 -0.244876 0)
(-0.0323748 -0.209934 0)
(-0.0102212 -0.179023 0)
(0.00600651 -0.151857 0)
(0.01799 -0.128039 0)
(0.0268694 -0.10718 0)
(0.0334252 -0.0889213 0)
(0.038209 -0.0729461 0)
(0.0416207 -0.0589725 0)
(0.0439514 -0.0467533 0)
(0.0454124 -0.0360698 0)
(0.0461624 -0.0267263 0)
(0.0463277 -0.0185461 0)
(0.0460119 -0.0113726 0)
(0.0452991 -0.00506925 0)
(0.0442563 0.000482106 0)
(0.0429347 0.00538221 0)
(0.0413771 0.00971867 0)
(0.0396196 0.0135657 0)
(0.0376926 0.0169835 0)
(0.0356196 0.0200177 0)
(0.0334158 0.0226987 0)
(0.0310872 0.0250417 0)
(0.0286285 0.0270466 0)
(0.0260208 0.0286982 0)
(0.0232265 0.0299678 0)
(0.0201826 0.0308186 0)
(0.0167892 0.0312142 0)
(0.0129401 0.0311275 0)
(0.00855538 0.0304927 0)
(0.00415383 0.0283034 0)
(-1.69662 0.406073 0)
(-1.42091 -0.0216758 0)
(-1.12657 -0.360618 0)
(-0.80449 -0.525018 0)
(-0.541001 -0.550125 0)
(-0.351933 -0.508131 0)
(-0.222758 -0.44432 0)
(-0.135753 -0.379742 0)
(-0.0769679 -0.32148 0)
(-0.0369613 -0.271224 0)
(-0.00939636 -0.228545 0)
(0.00980319 -0.192316 0)
(0.0233014 -0.161436 0)
(0.0328391 -0.134975 0)
(0.0395663 -0.112193 0)
(0.04425 -0.0925072 0)
(0.0474171 -0.0754488 0)
(0.0494389 -0.0606373 0)
(0.0505778 -0.0477584 0)
(0.0510194 -0.0365479 0)
(0.0509004 -0.0267775 0)
(0.0503277 -0.0182483 0)
(0.049387 -0.0107875 0)
(0.0481465 -0.00424627 0)
(0.0466588 0.00150311 0)
(0.0449636 0.00656894 0)
(0.0430929 0.0110451 0)
(0.0410733 0.0150112 0)
(0.0389258 0.0185322 0)
(0.0366651 0.0216588 0)
(0.0342981 0.0244271 0)
(0.031823 0.0268596 0)
(0.0292273 0.028965 0)
(0.026486 0.0307399 0)
(0.0235577 0.0321709 0)
(0.0203792 0.03324 0)
(0.0168574 0.033933 0)
(0.0129032 0.0342462 0)
(0.00845442 0.0341328 0)
(0.0040376 0.0325477 0)
(-1.47736 0.351107 0)
(-1.3584 -0.212487 0)
(-1.09507 -0.616544 0)
(-0.7682 -0.760459 0)
(-0.491755 -0.726969 0)
(-0.298518 -0.629557 0)
(-0.171937 -0.524868 0)
(-0.0906313 -0.432762 0)
(-0.0380571 -0.356589 0)
(-0.00388341 -0.29472 0)
(0.0185615 -0.244431 0)
(0.0334097 -0.203153 0)
(0.0432328 -0.168863 0)
(0.0496798 -0.140048 0)
(0.0538076 -0.115605 0)
(0.0563031 -0.0947197 0)
(0.0576263 -0.076776 0)
(0.0580916 -0.0612971 0)
(0.0579137 -0.0479052 0)
(0.0572402 -0.0362932 0)
(0.0561772 -0.0262037 0)
(0.0548058 -0.0174177 0)
(0.0531895 -0.00974846 0)
(0.0513775 -0.00303646 0)
(0.0494061 0.00285353 0)
(0.0473016 0.00803652 0)
(0.0450843 0.0126117 0)
(0.04277 0.0166631 0)
(0.0403702 0.0202602 0)
(0.0378905 0.0234583 0)
(0.0353297 0.0262991 0)
(0.0326785 0.0288114 0)
(0.0299183 0.0310126 0)
(0.0270191 0.0329095 0)
(0.0239368 0.0345017 0)
(0.0206094 0.035787 0)
(0.0169508 0.0367684 0)
(0.0128876 0.037459 0)
(0.00837223 0.0378231 0)
(0.00393623 0.0367662 0)
(-1.09601 0.42173 0)
(-1.11256 -0.336684 0)
(-0.92411 -0.858047 0)
(-0.640951 -0.998127 0)
(-0.381714 -0.904224 0)
(-0.205762 -0.746181 0)
(-0.095966 -0.598631 0)
(-0.0292882 -0.478931 0)
(0.0114118 -0.385631 0)
(0.0362248 -0.313136 0)
(0.0513216 -0.256144 0)
(0.0603688 -0.210579 0)
(0.0655775 -0.17349 0)
(0.0683106 -0.14281 0)
(0.0694161 -0.117099 0)
(0.0694306 -0.0953315 0)
(0.0687029 -0.0767612 0)
(0.067462 -0.0608273 0)
(0.0658568 -0.0470982 0)
(0.0639849 -0.035231 0)
(0.0619131 -0.0249447 0)
(0.0596909 -0.0160047 0)
(0.0573558 -0.00821335 0)
(0.0549355 -0.00140341 0)
(0.0524476 0.00456587 0)
(0.0499037 0.00981457 0)
(0.0473115 0.0144459 0)
(0.0446753 0.0185476 0)
(0.0419966 0.0221927 0)
(0.0392719 0.0254406 0)
(0.0364923 0.0283377 0)
(0.0336414 0.030919 0)
(0.0306949 0.033209 0)
(0.0276188 0.0352237 0)
(0.0243675 0.0369738 0)
(0.0208805 0.0384693 0)
(0.0170785 0.0397265 0)
(0.0129016 0.04077 0)
(0.00831483 0.0415698 0)
(0.00385152 0.0409717 0)
(-0.531937 0.64707 0)
(-0.620436 -0.366312 0)
(-0.565691 -1.03179 0)
(-0.396985 -1.19519 0)
(-0.201058 -1.05512 0)
(-0.0705276 -0.841958 0)
(0.0051855 -0.655411 0)
(0.0474329 -0.511978 0)
(0.0705009 -0.404793 0)
(0.0825062 -0.324123 0)
(0.0881683 -0.26223 0)
(0.09013 -0.213661 0)
(0.0899075 -0.174701 0)
(0.0883945 -0.142844 0)
(0.0861232 -0.116385 0)
(0.0834158 -0.0941369 0)
(0.0804695 -0.0752547 0)
(0.077403 -0.0591166 0)
(0.0742835 -0.0452525 0)
(0.0711479 -0.033295 0)
(0.068017 -0.0229475 0)
(0.0649039 -0.0139658 0)
(0.0618169 -0.00614556 0)
(0.0587594 0.00068457 0)
(0.0557295 0.00666828 0)
(0.0527227 0.0119287 0)
(0.0497329 0.0165717 0)
(0.0467531 0.0206872 0)
(0.0437743 0.0243512 0)
(0.0407843 0.027626 0)
(0.037766 0.0305625 0)
(0.0346969 0.0332003 0)
(0.0315475 0.0355705 0)
(0.0282805 0.0376965 0)
(0.0248491 0.039598 0)
(0.0211947 0.041295 0)
(0.017244 0.0428132 0)
(0.0129488 0.0441848 0)
(0.00828436 0.0453808 0)
(0.00378355 0.0451794 0)
(0.120223 1.00159 0)
(0.0276563 -0.282028 0)
(-0.0586613 -1.0804 0)
(-0.0410683 -1.30402 0)
(0.0430836 -1.14752 0)
(0.100957 -0.897653 0)
(0.126907 -0.684104 0)
(0.135935 -0.52569 0)
(0.136604 -0.410573 0)
(0.133161 -0.325642 0)
(0.127859 -0.261432 0)
(0.121814 -0.211604 0)
(0.115587 -0.171983 0)
(0.10946 -0.139807 0)
(0.103572 -0.113227 0)
(0.097982 -0.0909694 0)
(0.0927077 -0.0721361 0)
(0.0877385 -0.0560757 0)
(0.0830494 -0.0423003 0)
(0.078609 -0.0304322 0)
(0.0743874 -0.0201698 0)
(0.0703581 -0.0112658 0)
(0.0664979 -0.00351523 0)
(0.0627842 0.00325331 0)
(0.0591949 0.0091838 0)
(0.0557086 0.0144001 0)
(0.0523053 0.0190087 0)
(0.0489661 0.0231008 0)
(0.0456716 0.0267535 0)
(0.0424008 0.0300318 0)
(0.0391293 0.0329893 0)
(0.0358284 0.03567 0)
(0.0324642 0.0381098 0)
(0.0289963 0.0403385 0)
(0.0253772 0.0423829 0)
(0.0215499 0.0442705 0)
(0.0174467 0.0460337 0)
(0.013029 0.047709 0)
(0.00828042 0.0492649 0)
(0.0037314 0.0494047 0)
(0.614887 1.15861 0)
(0.647014 -0.205436 0)
(0.497213 -1.03995 0)
(0.372231 -1.30556 0)
(0.32424 -1.15597 0)
(0.291828 -0.896789 0)
(0.258616 -0.676342 0)
(0.229647 -0.51576 0)
(0.205653 -0.400621 0)
(0.185599 -0.316345 0)
(0.168689 -0.25294 0)
(0.154263 -0.2039 0)
(0.141802 -0.165002 0)
(0.130921 -0.133477 0)
(0.121329 -0.107473 0)
(0.112802 -0.0857206 0)
(0.105163 -0.0673267 0)
(0.0982674 -0.0516458 0)
(0.0919919 -0.0381964 0)
(0.0862349 -0.0266071 0)
(0.0809132 -0.0165822 0)
(0.0759595 -0.00788021 0)
(0.0713183 -0.000301096 0)
(0.0669407 0.00632167 0)
(0.0627838 0.0121297 0)
(0.0588094 0.017245 0)
(0.0549834 0.0217726 0)
(0.051275 0.0258031 0)
(0.0476548 0.029414 0)
(0.0440932 0.0326713 0)
(0.0405589 0.0356307 0)
(0.0370174 0.0383393 0)
(0.0334306 0.0408369 0)
(0.0297556 0.0431582 0)
(0.0259442 0.0453354 0)
(0.0219411 0.0474012 0)
(0.0176831 0.0493929 0)
(0.0131395 0.0513484 0)
(0.00830091 0.0532308 0)
(0.00369358 0.0536626 0)
(1.15323 1.04188 0)
(1.14498 -0.0667855 0)
(1.00446 -0.941191 0)
(0.783339 -1.20904 0)
(0.603036 -1.07248 0)
(0.477574 -0.832953 0)
(0.386097 -0.62939 0)
(0.320416 -0.481066 0)
(0.272753 -0.374412 0)
(0.236769 -0.295942 0)
(0.208684 -0.236573 0)
(0.18615 -0.190424 0)
(0.167637 -0.153671 0)
(0.152124 -0.123789 0)
(0.138913 -0.0990753 0)
(0.127512 -0.0783556 0)
(0.117557 -0.0607995 0)
(0.10877 -0.0458053 0)
(0.100936 -0.0329229 0)
(0.0938823 -0.0218042 0)
(0.0874757 -0.0121713 0)
(0.0816088 -0.00379666 0)
(0.0761937 0.00350797 0)
(0.0711565 0.00990059 0)
(0.0664339 0.0155168 0)
(0.061971 0.020474 0)
(0.0577202 0.0248738 0)
(0.0536392 0.0288046 0)
(0.049689 0.0323428 0)
(0.045832 0.0355543 0)
(0.04203 0.038496 0)
(0.0382435 0.0412168 0)
(0.0344304 0.0437592 0)
(0.0305456 0.0461616 0)
(0.0265404 0.04846 0)
(0.0223608 0.0506911 0)
(0.0179473 0.0528945 0)
(0.0132758 0.055108 0)
(0.00834258 0.0572866 0)
(0.00366822 0.0579668 0)
(1.48758 1.08647 0)
(1.51694 0.0422267 0)
(1.42581 -0.773518 0)
(1.11771 -1.02006 0)
(0.830135 -0.906832 0)
(0.630981 -0.713393 0)
(0.494533 -0.547948 0)
(0.400021 -0.424453 0)
(0.333051 -0.333562 0)
(0.283642 -0.26534 0)
(0.245869 -0.212845 0)
(0.216141 -0.171476 0)
(0.192155 -0.138171 0)
(0.172394 -0.110856 0)
(0.155829 -0.0881064 0)
(0.141739 -0.0689214 0)
(0.129599 -0.0525856 0)
(0.119019 -0.0385748 0)
(0.109697 -0.0264932 0)
(0.101402 -0.0160316 0)
(0.0939519 -0.00694119 0)
(0.0872025 0.000983276 0)
(0.0810366 0.00791253 0)
(0.0753569 0.0139923 0)
(0.0700806 0.0193488 0)
(0.0651376 0.0240919 0)
(0.0604674 0.0283179 0)
(0.0560171 0.0321113 0)
(0.0517385 0.0355461 0)
(0.0475864 0.0386871 0)
(0.0435167 0.0415909 0)
(0.0394849 0.0443075 0)
(0.0354457 0.046881 0)
(0.0313518 0.0493521 0)
(0.0271541 0.0517595 0)
(0.0227997 0.0541424 0)
(0.018232 0.0565412 0)
(0.0134323 0.0589918 0)
(0.00840142 0.0614392 0)
(0.00365323 0.0623292 0)
(1.77744 0.910065 0)
(1.87932 0.0909956 0)
(1.69656 -0.585194 0)
(1.30542 -0.764774 0)
(0.965968 -0.689171 0)
(0.732675 -0.559869 0)
(0.573571 -0.443919 0)
(0.462415 -0.352232 0)
(0.382795 -0.28151 0)
(0.323751 -0.226473 0)
(0.27856 -0.182887 0)
(0.24305 -0.147747 0)
(0.214503 -0.118936 0)
(0.191103 -0.0949616 0)
(0.171602 -0.0747551 0)
(0.155118 -0.0575474 0)
(0.141006 -0.0427752 0)
(0.128787 -0.030018 0)
(0.118095 -0.0189526 0)
(0.108645 -0.0093218 0)
(0.100218 -0.000915001 0)
(0.0926365 0.00644301 0)
(0.0857588 0.0129015 0)
(0.0794662 0.0185899 0)
(0.0736589 0.0236215 0)
(0.0682529 0.0280967 0)
(0.0631762 0.0321046 0)
(0.0583661 0.0357241 0)
(0.0537664 0.0390257 0)
(0.049325 0.0420718 0)
(0.0449921 0.0449178 0)
(0.0407191 0.0476136 0)
(0.0364575 0.050204 0)
(0.0321586 0.052731 0)
(0.0277725 0.0552349 0)
(0.0232472 0.0577558 0)
(0.0185288 0.0603341 0)
(0.0136024 0.0630022 0)
(0.00847298 0.0656937 0)
(0.00364644 0.0667596 0)
(1.92828 0.616956 0)
(1.94305 0.014452 0)
(1.68535 -0.360822 0)
(1.31914 -0.483674 0)
(1.00598 -0.463923 0)
(0.780912 -0.39963 0)
(0.621011 -0.33169 0)
(0.50534 -0.27206 0)
(0.42006 -0.222561 0)
(0.35557 -0.18187 0)
(0.305578 -0.148245 0)
(0.265974 -0.120209 0)
(0.23399 -0.0966024 0)
(0.207717 -0.0765299 0)
(0.185816 -0.0593126 0)
(0.16732 -0.0444371 0)
(0.151514 -0.031513 0)
(0.137863 -0.0202394 0)
(0.125953 -0.0103773 0)
(0.115466 -0.00173061 0)
(0.106152 0.00586531 0)
(0.0978086 0.0125516 0)
(0.0902731 0.0184521 0)
(0.0834094 0.0236765 0)
(0.0771039 0.0283229 0)
(0.0712606 0.0324801 0)
(0.0657976 0.036228 0)
(0.0606439 0.0396392 0)
(0.055736 0.0427791 0)
(0.0510159 0.0457068 0)
(0.0464289 0.0484756 0)
(0.0419227 0.0511341 0)
(0.0374463 0.0537272 0)
(0.0329494 0.0562972 0)
(0.0283819 0.0588848 0)
(0.0236923 0.0615302 0)
(0.0188286 0.0642727 0)
(0.0137793 0.0671402 0)
(0.00855258 0.0700534 0)
(0.00364562 0.0712656 0)
(1.82868 0.608686 0)
(1.75652 0.191137 0)
(1.5239 -0.0987072 0)
(1.23788 -0.234328 0)
(0.984675 -0.265535 0)
(0.788891 -0.251144 0)
(0.641403 -0.222122 0)
(0.52989 -0.190558 0)
(0.444707 -0.160822 0)
(0.378574 -0.134137 0)
(0.326324 -0.110606 0)
(0.284357 -0.0899842 0)
(0.250133 -0.071926 0)
(0.221833 -0.0560836 0)
(0.198137 -0.0421463 0)
(0.178068 -0.0298533 0)
(0.160894 -0.01899 0)
(0.146054 -0.00937899 0)
(0.133113 -0.000871343 0)
(0.121732 0.00666324 0)
(0.111641 0.0133403 0)
(0.102622 0.0192642 0)
(0.0944956 0.0245302 0)
(0.0871141 0.0292261 0)
(0.0803525 0.0334332 0)
(0.0741058 0.0372267 0)
(0.0682839 0.0406767 0)
(0.0628089 0.0438478 0)
(0.0576112 0.0467995 0)
(0.0526278 0.0495866 0)
(0.0478001 0.0522595 0)
(0.0430726 0.0548649 0)
(0.0383923 0.0574468 0)
(0.0337077 0.0600469 0)
(0.0289683 0.0627056 0)
(0.0241233 0.0654624 0)
(0.0191221 0.0683544 0)
(0.0139559 0.0714046 0)
(0.00863548 0.0745197 0)
(0.0036486 0.0758522 0)
(1.61347 0.643558 0)
(1.52361 0.323845 0)
(1.34275 0.0905747 0)
(1.12996 -0.0429335 0)
(0.933076 -0.102314 0)
(0.770506 -0.121484 0)
(0.641119 -0.121381 0)
(0.538847 -0.112369 0)
(0.4578 -0.0995949 0)
(0.393035 -0.0855855 0)
(0.34072 -0.0715845 0)
(0.297982 -0.0582007 0)
(0.262675 -0.0457061 0)
(0.233193 -0.0341935 0)
(0.208326 -0.0236692 0)
(0.187153 -0.0140976 0)
(0.168962 -0.00542904 0)
(0.153202 0.00239545 0)
(0.139437 0.00943748 0)
(0.127323 0.015762 0)
(0.116582 0.0214351 0)
(0.106986 0.0265228 0)
(0.0983481 0.0310909 0)
(0.0905118 0.0352038 0)
(0.0833451 0.0389248 0)
(0.0767362 0.0423151 0)
(0.0705893 0.0454335 0)
(0.0648209 0.048336 0)
(0.0593569 0.0510755 0)
(0.0541303 0.0537017 0)
(0.0490792 0.0562615 0)
(0.0441461 0.0587989 0)
(0.0392761 0.0613562 0)
(0.034417 0.063974 0)
(0.0295179 0.0666917 0)
(0.0245286 0.0695472 0)
(0.0194 0.072575 0)
(0.0141252 0.0757925 0)
(0.00871703 0.0790917 0)
(0.00365328 0.080522 0)
(1.36869 0.67147 0)
(1.3002 0.42186 0)
(1.17084 0.229656 0)
(1.01644 0.10265 0)
(0.866715 0.0282534 0)
(0.735788 -0.0121431 0)
(0.626047 -0.0322374 0)
(0.535455 -0.0402836 0)
(0.461014 -0.0412275 0)
(0.399753 -0.0380513 0)
(0.349091 -0.0325682 0)
(0.30692 -0.0258927 0)
(0.27156 -0.0187078 0)
(0.241683 -0.011428 0)
(0.216248 -0.00430558 0)
(0.194432 0.00250858 0)
(0.175583 0.00892462 0)
(0.159182 0.0148956 0)
(0.144813 0.0204041 0)
(0.132139 0.0254536 0)
(0.120884 0.0300623 0)
(0.110821 0.034259 0)
(0.10176 0.0380799 0)
(0.0935402 0.0415664 0)
(0.0860264 0.0447634 0)
(0.0791031 0.0477174 0)
(0.0726707 0.0504757 0)
(0.0666421 0.0530853 0)
(0.0609399 0.0555917 0)
(0.0554942 0.0580391 0)
(0.0502412 0.0604701 0)
(0.0451213 0.0629258 0)
(0.040079 0.0654461 0)
(0.0350611 0.0680699 0)
(0.030017 0.0708349 0)
(0.0248971 0.0737772 0)
(0.0196532 0.0769282 0)
(0.0142802 0.0802989 0)
(0.00879273 0.0837663 0)
(0.00365765 0.0852749 0)
(1.14779 0.68959 0)
(1.10479 0.490754 0)
(1.01687 0.329099 0)
(0.90729 0.210719 0)
(0.795421 0.130262 0)
(0.692075 0.0777727 0)
(0.601093 0.0445174 0)
(0.522818 0.0242823 0)
(0.456219 0.0127942 0)
(0.399801 0.00714081 0)
(0.352017 0.00534486 0)
(0.311455 0.00606206 0)
(0.276895 0.0083793 0)
(0.247311 0.0116757 0)
(0.221857 0.0155266 0)
(0.199834 0.0196405 0)
(0.180674 0.0238177 0)
(0.16391 0.0279243 0)
(0.149158 0.0318741 0)
(0.136101 0.0356162 0)
(0.124476 0.0391252 0)
(0.114061 0.0423954 0)
(0.10467 0.0454352 0)
(0.0961443 0.0482638 0)
(0.0883473 0.0509081 0)
(0.0811627 0.0534003 0)
(0.0744891 0.055776 0)
(0.0682378 0.0580727 0)
(0.0623295 0.0603286 0)
(0.0566928 0.0625819 0)
(0.0512624 0.0648707 0)
(0.045978 0.0672325 0)
(0.0407832 0.0697045 0)
(0.0356251 0.0723235 0)
(0.030453 0.0751251 0)
(0.0252181 0.0781432 0)
(0.0198733 0.0814055 0)
(0.0144147 0.0849168 0)
(0.00885829 0.0885383 0)
(0.00365979 0.0901084 0)
(0.964576 0.695991 0)
(0.941191 0.534964 0)