/*--------------------------------*- C++ -*----------------------------------*\
  =========                 |
  \\      /  F ield         | OpenFOAM: The Open Source CFD Toolbox
   \\    /   O peration     | Website:  https://openfoam.org
    \\  /    A nd           | Version:  7
     \\/     M anipulation  |
\*---------------------------------------------------------------------------*/
FoamFile
{
    version     2.0;
    format      ascii;
    class       scalarField;
    location    "0.004/lagrangian/dsmc";
    object      Ei;
}
// * * * * * * * * * * * * * * * * * * * * * * * * * * * * * * * * * * * * * //


5190
(
3.151404001e-21
1.607394065e-21
8.907177424e-21
1.896543688e-21
3.730186001e-21
1.026398784e-21
3.113991915e-21
7.002947986e-21
8.491987097e-22
2.314676302e-21
1.215033922e-21
5.437150256e-22
3.094465175e-21
4.604618783e-22
3.823392063e-21
8.377322852e-22
1.381974005e-20
2.799420168e-21
2.270707059e-21
3.056346382e-21
9.913823425e-21
1.591085081e-21
7.00649557e-22
5.317054149e-22
1.327679527e-20
4.987946813e-22
3.497157894e-21
1.858425654e-21
4.047987284e-22
1.297977228e-21
7.161176234e-22
1.026935239e-21
9.383160443e-22
2.803888854e-22
4.98529633e-21
5.705740582e-21
8.366242504e-21
2.386334292e-21
5.27710885e-22
3.09389359e-21
1.017324004e-20
1.415033236e-22
6.494836773e-21
2.577696902e-21
1.557793695e-21
3.24814941e-21
2.650038789e-21
1.302964883e-20
1.077636167e-21
1.109964632e-20
1.356485507e-21
2.788964009e-21
3.275801216e-21
2.64796021e-21
1.547874606e-21
9.418299775e-22
8.402574704e-21
2.979782218e-21
9.403662869e-22
4.427692562e-21
7.586695822e-22
3.87322076e-22
4.283823892e-21
1.714031202e-21
7.085653636e-21
1.86527468e-21
4.124842458e-22
1.162169104e-20
7.99804968e-21
1.565851828e-21
9.86968738e-22
5.487863021e-21
8.739817152e-22
3.439919713e-21
4.955573046e-21
6.93999764e-21
1.034870775e-21
7.320272084e-21
1.652798853e-21
4.232314916e-22
1.073358108e-21
5.199301779e-21
9.819878524e-22
2.788112388e-21
6.963756375e-22
6.111843314e-21
1.905811892e-21
2.670611914e-21
2.884329762e-21
7.062509491e-21
5.428113167e-21
6.910554848e-22
2.106139759e-21
4.026631161e-21
8.48352519e-21
6.456600851e-23
4.86854954e-21
1.44897871e-21
2.184817936e-21
3.72165877e-21
2.194255893e-21
7.04250132e-21
6.548603894e-21
3.993825035e-21
7.418820438e-21
2.185015837e-21
1.420804663e-21
8.682864994e-22
1.068533482e-20
2.912016044e-21
2.271368178e-21
3.632664887e-22
1.137484345e-21
6.054519582e-22
5.643009645e-22
1.998147582e-21
3.519666877e-21
5.583871297e-21
5.784111537e-21
3.90802961e-21
1.006824173e-21
1.583572752e-21
7.352825219e-21
3.547188184e-21
3.245553599e-21
6.74868251e-21
3.743702789e-21
5.351589098e-21
2.910649897e-21
6.931719906e-21
4.827734758e-21
1.221173337e-20
2.098527323e-21
8.417387023e-23
2.231943499e-22
5.228975936e-22
1.633260568e-21
3.795445922e-21
1.659388976e-20
1.34268622e-20
1.083380323e-22
1.224012502e-21
2.96042709e-21
3.909556616e-21
9.910226199e-22
9.126074804e-21
1.752435998e-21
9.089701158e-22
1.087386473e-22
1.978310903e-20
5.608464337e-21
9.422213974e-21
1.596463274e-21
6.667588165e-22
4.666775728e-21
5.497488306e-21
2.447695003e-21
1.240711164e-21
9.611622361e-22
6.562529496e-21
1.447182386e-21
3.275024238e-21
4.811584639e-21
1.586848538e-21
6.625381894e-21
1.514212093e-21
9.788136802e-22
1.116364454e-20
7.401689086e-22
3.012886373e-21
4.303345465e-21
2.367219199e-21
3.942041379e-21
3.278725785e-21
6.836478355e-21
1.558859574e-21
2.997364469e-21
2.522443164e-21
2.134992128e-20
1.62646545e-22
2.090569071e-22
4.795425463e-21
3.515118147e-21
1.111128584e-20
9.607427282e-21
9.344340109e-22
1.573156603e-20
5.610276738e-21
3.329010841e-21
5.670296891e-21
1.483466515e-22
1.564049538e-21
2.030746789e-21
3.944876959e-21
1.09378659e-21
3.791768965e-21
1.32117034e-21
6.933497334e-23
2.28157953e-21
1.383479079e-21
2.726896107e-21
6.172624849e-22
1.271785433e-21
2.068068168e-21
1.745097657e-21
7.880487965e-22
5.376349153e-21
1.601447321e-21
2.831060891e-21
7.734393495e-21
5.354943494e-21
5.513993349e-21
2.99906088e-21
5.535091277e-21
1.760876433e-21
1.672531758e-21
1.078208085e-20
5.940908633e-21
2.485854077e-21
1.828775582e-21
2.07154228e-20
1.178169639e-20
2.767245277e-22
2.892684433e-21
1.140083746e-20
2.248015903e-21
3.288419297e-21
6.950518603e-21
3.490869404e-21
3.468410326e-21
2.611901514e-21
1.065928211e-21
5.375086886e-21
5.696132252e-21
6.99558363e-21
4.791934795e-22
1.341029961e-20
5.465327089e-21
3.504157915e-22
1.390423519e-20
9.221464346e-21
3.844428737e-21
4.129794438e-22
7.614227212e-21
4.424729388e-21
8.205814625e-21
6.122755573e-21
3.607481998e-21
2.483914782e-21
1.174955206e-20
5.066373313e-21
2.539784737e-21
5.872109347e-22
9.728721604e-22
5.210725716e-21
2.444451455e-21
5.030692267e-22
2.252563498e-22
5.810605999e-21
2.288004618e-21
5.427229246e-21
1.573182614e-21
3.709786797e-21
1.36035114e-21
9.338319858e-22
5.546289151e-21
4.696731835e-21
2.15510792e-21
1.848799226e-20
7.192648889e-21
1.782885837e-22
2.795706307e-21
5.217256309e-23
2.431963243e-22
4.928354581e-21
6.953930087e-21
1.168254546e-20
2.407614994e-21
8.370110589e-21
1.757844577e-22
2.083192902e-21
3.361277242e-21
1.335313714e-21
1.521160956e-21
7.784726307e-21
2.730477264e-22
4.294185338e-21
3.850105603e-21
7.563719543e-21
1.935778051e-21
6.448136659e-21
1.104434796e-20
8.009442154e-21
8.434816856e-21
1.451236739e-21
2.884177513e-22
5.688398332e-21
1.807996577e-21
5.057404736e-21
2.79409569e-21
1.322021584e-23
8.309034922e-22
1.813631325e-20
1.007718721e-21
1.194544827e-20
1.452134846e-20
1.217028038e-21
2.984807718e-21
9.112645641e-21
7.257839408e-24
1.624837229e-21
8.764292182e-21
4.984672547e-21
1.731892953e-20
9.820321689e-23
2.446859694e-21
5.589233409e-21
2.234683808e-21
7.727293942e-21
6.518770324e-21
1.056351236e-20
1.001658264e-20
2.159737957e-22
6.173449706e-21
5.142432584e-21
1.641804665e-21
6.114098259e-21
3.506342891e-22
2.057970864e-21
6.685518652e-21
2.205559215e-21
2.955878886e-21
2.24419448e-21
5.869223113e-21
1.14991692e-20
1.161183099e-21
3.23435003e-21
5.437696021e-21
3.482404477e-22
3.072486709e-22
2.904003263e-21
2.044102839e-21
3.235042043e-22
3.665670518e-21
5.653157748e-21
9.488210056e-22
5.363378158e-21
3.749941978e-21
2.074856227e-21
1.367254987e-20
2.044892085e-21
6.203033577e-21
1.316695099e-21
6.820619719e-22
1.192903168e-20
6.025175329e-21
4.220732305e-21
1.576690766e-21
4.438130581e-22
1.241874486e-21
1.695051289e-21
8.960666873e-21
4.184840541e-21
2.966697581e-22
1.296374376e-20
4.215260996e-21
1.319699715e-21
1.679825987e-21
2.340291986e-20
1.632045365e-21
1.139422268e-21
4.010251627e-22
7.08899931e-22
2.001523269e-21
1.180622649e-20
3.820054284e-21
5.548239848e-21
2.565027021e-22
1.221247148e-22
5.856679405e-21
1.31752097e-21
2.310856744e-22
4.889084135e-21
4.723174896e-22
4.75005587e-22
2.340531056e-21
1.07986467e-20
3.859917928e-21
3.525328042e-22
9.636127556e-22
6.424830299e-21
2.920276146e-21
9.678694961e-21
1.917501155e-21
8.052797377e-22
9.733377505e-21
3.77295346e-23
1.291452085e-21
2.506105426e-20
1.036732157e-21
1.55122769e-21
7.816467559e-21
5.137308311e-22
5.036426312e-21
5.945281508e-21
9.891898738e-22
1.060645539e-20
5.541497537e-21
9.013120098e-21
1.493856821e-21
1.586856972e-20
4.538847829e-21
5.64815696e-21
5.713079111e-21
3.592742784e-21
4.71279228e-21
4.165899493e-20
2.12495601e-21
5.256489347e-21
5.209880244e-21
1.648135314e-20
7.316375854e-22
3.850119947e-21
1.548384753e-20
7.738047934e-21
1.361245931e-20
4.584259497e-22
1.323130626e-21
1.594152257e-22
1.54180122e-21
1.025855318e-21
1.199659964e-20
3.539634805e-21
1.8597191e-21
2.691466131e-22
1.263084058e-21
5.376542586e-21
2.731479487e-21
2.077205733e-21
8.844170023e-21
1.891689386e-21
6.996538246e-21
1.061066414e-20
2.448864182e-21
1.212594264e-20
1.54486658e-21
1.340429349e-21
6.212948785e-21
5.574024626e-22
9.973054622e-21
2.665759376e-23
1.502363303e-20
1.07986123e-21
3.074337614e-21
3.320138097e-21
8.751990462e-23
6.601379406e-21
4.87275239e-22
4.439345411e-21
2.258599497e-21
1.323069468e-20
8.372732503e-21
4.866460649e-21
9.465471204e-22
1.823163591e-21
4.427310991e-21
4.733280709e-21
1.255718631e-21
2.663170094e-20
1.303349292e-20
3.436730048e-21
1.002587981e-21
7.712426052e-21
3.167087811e-22
8.912383194e-22
2.067784209e-21
4.909667194e-21
2.756159074e-21
1.165019957e-20
3.967527133e-21
3.641974256e-21
3.361904268e-21
1.839837358e-22
2.186922799e-22
1.047786883e-20
2.75196698e-22
1.624610322e-20
3.944406162e-21
3.492816091e-21
1.052548445e-20
6.46255728e-21
2.075509605e-21
4.523724794e-21
6.870465752e-21
2.693778936e-21
1.07280249e-21
3.502085823e-21
1.208517185e-21
4.471854881e-21
1.061785816e-20
1.787591317e-22
4.032503208e-21
3.311253021e-21
2.338465597e-20
4.846186178e-21
7.762619336e-22
3.779071388e-21
2.622351438e-21
6.533774548e-22
5.120851415e-21
8.743413583e-22
4.829851935e-21
8.314584845e-22
5.322494732e-22
2.028764298e-21
3.59369693e-21
4.295179593e-22
1.088858594e-21
7.978335046e-21
2.731199178e-21
2.692281013e-21
1.908680399e-21
2.838856448e-21
7.749824075e-21
3.606568879e-22
8.556812588e-21
2.763897035e-21
1.239872264e-21
2.480881177e-21
3.534906043e-21
6.888869041e-22
2.0961471e-21
1.1378101e-20
1.324869175e-21
2.490741527e-21
1.285103552e-20
2.945513962e-21
7.546633798e-22
5.924663113e-21
9.461067898e-21
2.393236495e-21
9.332249574e-21
6.009041e-21
1.713051359e-21
7.992589034e-23
3.343737497e-22
1.661199066e-20
3.978654922e-21
4.98878963e-21
1.450674588e-21
2.113651402e-21
7.09169984e-21
7.353807991e-22
2.893060064e-22
4.742113369e-23
1.161759266e-21
5.38358685e-21
4.767903877e-22
2.346976127e-21
1.36640895e-21
1.112224631e-21
9.383108847e-21
2.63182912e-21
1.598754668e-20
9.522848821e-21
1.497920805e-21
3.187775513e-21
2.391996849e-21
9.929028107e-21
3.32128318e-21
5.710772811e-22
2.748212119e-21
9.455130403e-21
2.988515188e-21
7.708278102e-21
1.165367521e-21
5.620499008e-22
3.120167822e-21
1.48454293e-20
3.865871969e-22
5.37047488e-21
3.115914356e-21
6.706520174e-21
5.547320006e-21
3.564286997e-21
3.739198773e-22
3.720268187e-22
4.589927516e-21
5.926769591e-21
6.42170397e-21
1.25804323e-20
5.69268398e-21
1.94294389e-21
7.828731023e-21
1.392914345e-20
7.146363151e-21
2.823453692e-21
9.66842676e-23
9.26877925e-21
6.588547193e-21
5.091600516e-22
2.23899327e-20
1.684763928e-21
1.178491011e-21
3.080290558e-21
2.857306662e-21
6.83123266e-21
1.330839068e-20
5.348521219e-21
3.253264193e-21
4.64821006e-21
4.256423229e-21
4.723061081e-22
7.499420238e-21
5.402602142e-22
1.148075627e-20
1.390276742e-22
1.520624943e-21
8.075211338e-21
4.222735898e-21
1.342897008e-21
1.048169613e-21
4.621155362e-21
3.784816907e-21
8.92651303e-21
2.906528182e-21
1.136944089e-20
2.138652716e-21
1.306385126e-21
2.712791325e-22
5.401884861e-21
2.251991074e-21
1.376772338e-21
1.055185916e-20
2.121086545e-21
6.555865233e-21
6.031082445e-22
2.749524287e-21
7.253761144e-21
2.841931963e-21
1.877310006e-21
5.751544203e-22
1.919934243e-21
3.420447815e-21
2.522651113e-21
1.471653523e-21
4.291069268e-22
8.217833061e-22
5.779011647e-22
4.328188343e-21
7.986006967e-22
4.897087036e-21
4.893873357e-22
4.439782177e-21
3.468727277e-21
3.649735195e-22
1.779524447e-22
1.270940232e-22
1.526588446e-22
5.146567848e-21
1.440828168e-20
1.817086184e-21
1.591997109e-21
6.019883245e-21
3.070425983e-21
7.402209658e-22
2.691386949e-22
2.21429366e-21
7.369793801e-23
1.113712348e-20
1.472312514e-21
4.256522323e-21
9.032028347e-21
1.109493604e-21
2.071915093e-21
5.000568137e-22
1.249328671e-21
5.444839502e-21
3.272777285e-21
8.112308414e-21
8.464561435e-21
3.833863296e-21
9.963814189e-21
2.53700057e-22
2.086020874e-21
4.873746404e-21
1.732317931e-21
1.783429926e-22
1.360367409e-21
3.699258178e-21
1.016678082e-20
2.015048882e-21
8.43537833e-21
6.783349372e-22
5.533652075e-22
4.011543559e-21
1.054526663e-20
9.231870273e-21
1.901510482e-21
5.456226271e-21
1.022343578e-20
5.942442551e-21
5.413564374e-21
1.442384917e-21
1.597192691e-20
2.064878384e-22
2.500960107e-21
2.359774437e-21
1.402262083e-21
1.512279635e-20
1.829348375e-20
2.322082136e-21
1.769081766e-20
2.691322456e-22
9.552587016e-21
6.868502924e-22
9.946514236e-21
4.412324485e-21
8.055317138e-21
6.288629181e-23
1.095475795e-21
1.70108406e-22
8.13731773e-22
9.795400571e-22
5.79630927e-21
9.670835331e-21
1.01698466e-20
5.188641444e-22
2.289559598e-21
8.291069804e-22
2.634141452e-21
1.391631573e-21
4.073711097e-21
9.48822108e-22
6.737490515e-22
4.370303722e-21
5.241562475e-21
2.07768492e-21
9.622920205e-22
4.788790112e-21
6.102256948e-22
6.790218436e-21
7.179681531e-21
4.850426188e-21
4.982623894e-21
1.641859467e-21
2.347401128e-21
3.246104788e-21
3.8604825e-21
1.589064655e-21
1.243526781e-22
8.71186489e-21
7.977459046e-21
1.354413862e-21
2.071435865e-21
6.904089733e-22
5.39817334e-21
4.067303189e-21
4.425480786e-21
9.286707319e-22
6.261388754e-22
4.956375348e-22
4.920849795e-22
3.170444815e-21
5.547101277e-21
1.367135132e-21
1.684354781e-22
1.004328793e-20
1.004921104e-20
1.387879706e-21
5.62047137e-21
6.477605803e-22
2.483719084e-22
3.022562702e-21
9.78011188e-21
1.260942726e-22
4.723372139e-21
3.923941148e-22
4.495266256e-21
1.342455466e-21
5.308116829e-21
2.677315817e-21
7.395554708e-21
1.004505883e-20
4.656797952e-21
2.091303709e-21
2.736875459e-21
5.242218003e-21
2.096129203e-21
3.033373163e-21
9.702116111e-21
2.405679429e-21
1.520412171e-20
2.976944625e-22
1.4434554e-20
6.87245417e-22
1.897021507e-22
2.618497525e-21
9.324860907e-22
2.663450633e-21
1.353415904e-21
2.288401397e-22
5.264186677e-22
5.669049642e-22
1.430002282e-21
1.84944442e-22
2.685224859e-21
1.685418668e-21
2.862634022e-22
1.198859519e-21
8.334804434e-22
2.748876385e-21
5.973916369e-21
1.106578903e-21
6.984576546e-22
3.438528764e-21
7.519460053e-21
2.448305377e-21
6.578894652e-21
1.629106333e-21
8.160618256e-21
4.961794514e-21
5.492452726e-22
7.386126237e-21
8.94324593e-22
8.021463827e-21
2.172413156e-22
1.814457349e-21
1.136771107e-21
2.355972053e-21
5.435000993e-21
2.89903073e-22
8.552152659e-22
4.456758625e-21
1.036154203e-21
8.677829877e-22
1.52836334e-21
8.449269471e-21
5.028013963e-21
3.781364364e-21
1.203057031e-22
5.223051989e-22
2.342370009e-21
1.030645954e-20
8.163239444e-21
7.106081319e-22
1.317792334e-21
1.133113303e-21
1.563028108e-21
6.675036596e-21
1.658744839e-22
1.100679051e-21
1.070998231e-20
4.984942842e-22
8.475143332e-22
1.173911406e-21
6.438083367e-22
4.339574577e-21
5.890184007e-21
2.1868445e-21
1.071378559e-21
9.798398715e-21
1.885879001e-21
1.320872818e-21
3.426980319e-21
2.738397729e-21
1.211945334e-20
1.664066435e-21
4.399210185e-21
6.154130226e-21
1.684006688e-20
3.066952842e-21
2.716951091e-21
2.48282603e-21
8.930171997e-21
1.521563349e-21
1.310060139e-21
2.691853861e-21
5.225848691e-21
5.676126204e-21
2.731837428e-21
5.298358049e-21
5.454204679e-21
3.2444253e-22
6.290551179e-21
5.092399336e-21
1.225366704e-20
1.808819537e-21
6.004886702e-21
1.578648428e-20
3.763293528e-21
4.233066203e-21
2.06516361e-21
6.081529155e-21
7.237250086e-21
1.449546586e-20
7.889554981e-22
1.554808861e-20
1.591265222e-21
1.177889644e-21
4.475061673e-22
6.963535988e-21
2.660610121e-21
6.597123659e-21
5.197585983e-21
6.095190188e-21
4.097241585e-22
5.140269604e-21
6.375626894e-21
4.7665174e-21
8.070758328e-22
3.043188278e-21
7.969212636e-21
6.771451395e-22
7.224307037e-21
3.238234946e-22
2.399901864e-21
3.812434045e-21
2.687108265e-21
1.347313489e-21
3.219908988e-22
1.986206014e-21
4.098447667e-21
6.756096653e-21
1.771441273e-21
8.168240632e-21
1.293480186e-20
9.156229775e-21
1.061247958e-20
7.689621862e-22
8.321001309e-21
6.423430099e-21
6.961546972e-21
1.175880325e-21
1.352509935e-21
2.543819623e-22
4.391942126e-21
8.350595902e-22
2.740047409e-21
6.717768586e-22
2.670770089e-21
1.497259357e-21
2.093432211e-22
4.804985613e-21
4.304645636e-21
8.566366159e-21
4.163923613e-22
1.350557357e-20
2.144850355e-20
3.667439336e-21
8.588454037e-22
6.20562285e-23
9.770162675e-21
3.394820675e-21
5.351528739e-22
1.209603784e-21
2.087216912e-21
2.179057572e-21
1.193165024e-20
9.480922537e-21
4.440204531e-22
5.142632366e-21
9.179893065e-21
2.155717144e-21
9.748150162e-21
4.127273811e-21
8.237017401e-21
1.743374495e-21
6.450813863e-22
1.331607991e-22
8.104869148e-22
1.323401905e-20
1.633472255e-21
1.043258442e-20
8.145524643e-21
3.623129427e-21
4.477088748e-21
1.325247972e-21
1.235913492e-21
1.433224132e-21
3.713539539e-21
6.539371909e-21
4.077323365e-21
9.534506069e-21
4.341448296e-21
2.483798413e-21
1.318764037e-20
2.224225065e-21
2.326648244e-21
2.580017675e-21
8.888466926e-22
9.309792218e-23
5.018501072e-21
3.997119075e-21
2.300821314e-22
1.761325766e-21
2.480660107e-21
1.347973333e-20
4.858376389e-21
7.477948219e-21
9.367131775e-22
1.068738743e-20
1.468344528e-21
4.862138753e-21
1.136178206e-21
6.415477754e-21
4.083649043e-23
1.367128548e-21
3.96341656e-22
2.616334118e-21
3.897220886e-21
1.465068588e-20
7.480614852e-21
2.005620584e-21
1.814001983e-21
6.824350948e-21
9.038865714e-21
2.398770161e-21
1.047625707e-20
5.126411188e-21
4.248201683e-22
3.84180793e-22
2.692493352e-21
2.963935941e-21
2.577173887e-21
3.862349417e-21
4.390643176e-21
2.570055002e-21
3.226609322e-21
1.976621767e-21
2.395256453e-21
2.90438422e-21
7.93438763e-21
1.02330869e-21
1.889516991e-21
2.471609544e-21
8.439517419e-21
7.690352953e-22
6.011843293e-22
6.928591619e-21
1.10891267e-20
5.765433682e-21
1.633320188e-21
4.820380272e-22
1.288706188e-21
3.431530428e-21
1.162562442e-20
1.710577506e-20
9.417929388e-21
2.402695608e-21
8.654863782e-21
6.718172004e-21
6.404991614e-21
5.490102649e-21
9.954821243e-21
3.571129074e-21
1.714694012e-21
2.884925985e-21
3.82011187e-21
1.368744346e-21
3.321593388e-21
1.177450741e-22
3.885434253e-21
1.894548897e-20
8.018717409e-23
1.068914488e-20
1.203877424e-22
3.988981733e-21
5.750051939e-21
2.786407178e-21
1.552275285e-21
8.948338639e-21
1.073468355e-21
5.623589092e-21
1.815363216e-21
5.117855012e-22
3.612619223e-21
8.676720999e-21
4.819594078e-21
8.695955588e-21
8.891453e-22
1.147588257e-21
4.698695782e-21
1.023525117e-20
5.199467589e-21
5.434073204e-21
3.258983189e-22
7.935805861e-21
1.519503269e-21
5.557013247e-21
5.2183332e-21
3.168010986e-21
5.471113111e-21
1.032575724e-21
9.093043345e-22
7.578347526e-22
2.557962507e-21
1.724937274e-22
1.089251877e-21
2.44278486e-21
2.843158688e-21
1.017799563e-20
1.233736874e-20
1.021359924e-20
4.117741652e-21
2.071246043e-21
2.060531104e-21
4.161002054e-22
1.359357049e-20
6.313563871e-21
8.058207838e-22
3.581856031e-21
8.086755105e-21
2.632710513e-22
7.721567796e-22
4.198241961e-21
4.42474805e-21
1.2431585e-21
1.392963749e-22
6.985273383e-21
1.541830092e-21
2.891458914e-21
9.431005903e-21
2.402634187e-22
3.166640335e-22
7.446770565e-22
2.086681705e-20
2.283855458e-21
4.624202908e-22
7.044803523e-21
7.886255517e-22
8.441483591e-22
3.149705619e-21
2.043805773e-21
7.772921138e-21
2.04478634e-21
6.000527791e-21
7.839172933e-21
3.206524849e-21
4.176276545e-21
2.511612409e-21
1.400316633e-20
2.603038094e-21
3.989987562e-21
2.914613646e-21
4.509453315e-21
1.078534307e-21
7.055411753e-22
8.34652673e-21
7.473221481e-21
2.116923066e-22
2.934840623e-21
6.570703254e-23
9.874801041e-22
3.11311051e-21
3.578475485e-22
5.584635948e-21
3.035633789e-21
2.291199761e-22
3.295804149e-21
6.376854487e-21
3.958452341e-21
4.269368752e-22
8.438007239e-22
2.893189143e-21
4.781406745e-21
4.652101837e-22
4.549889498e-23
1.313917459e-20
2.063723429e-21
3.597900293e-22
7.206602048e-21
3.385423001e-21
9.071640892e-21
9.352213212e-22
1.627470602e-20
4.836889649e-21
1.713390531e-21
2.260153826e-21
1.134009944e-20
4.858988807e-21
3.161519824e-21
4.376453772e-21
3.204644891e-21
6.802883612e-21
3.9098109e-21
1.302256931e-20
5.706190654e-21
3.180032338e-22
1.941153726e-20
2.536185866e-22
4.261022633e-22
4.13799778e-21
9.348399706e-21
5.541853433e-21
1.13711874e-21
2.64782925e-21
5.972922869e-21
2.926390293e-21
1.091716025e-20
2.313606273e-21
4.398185909e-21
7.242322189e-21
4.322983988e-21
4.842222417e-21
4.851364845e-21
1.59785082e-21
2.262602768e-21
1.262664003e-20
3.593449337e-21
3.195420018e-21
7.627058476e-23
8.485355042e-21
9.01272148e-21
2.336490205e-21
1.443244332e-21
2.026107085e-20
4.138563427e-22
8.747821796e-21
2.735587611e-21
2.419937281e-21
9.508488003e-21
2.466591084e-21
3.394120653e-21
7.404151154e-21
2.409277303e-22
7.307538283e-21
1.67054353e-21
1.973077198e-21
4.92547141e-22
2.611047619e-21
1.130065286e-20
5.173444509e-22
7.335102269e-21
4.076520834e-21
2.58326084e-21
4.454715943e-21
7.334981122e-21
2.858643609e-21
4.537148628e-21
7.43583665e-21
2.900665055e-21
5.660974021e-21
3.070746009e-21
1.827875631e-20
6.390553227e-22
1.022780336e-21
3.981079067e-21
2.9908169e-21
5.076159235e-22
3.71335016e-21
6.315849512e-21
2.12756132e-21
2.712157049e-22
1.235070989e-20
3.070810645e-21
5.39164192e-22
1.164732062e-20
6.845684001e-22
4.659444232e-22
2.693987776e-22
1.42675979e-21
2.829858467e-21
4.681018125e-21
3.244600712e-21
1.569401012e-21
4.710938544e-21
6.00279373e-22
7.863740923e-21
1.255579149e-21
2.526418774e-21
3.804702227e-21
2.213566773e-21
1.279237561e-21
4.782515838e-22
6.211155101e-22
3.837337087e-21
1.484467019e-21
1.812608392e-20
1.08644027e-20
2.192216397e-20
1.089254044e-20
1.260975073e-20
3.112205711e-21
2.712170976e-20
6.598335082e-22
4.869167942e-21
7.990174222e-21
6.101188458e-22
3.38178697e-21
3.275400068e-20
5.745681403e-21
1.573300191e-21
7.077980593e-22
6.064120288e-21
4.677644208e-21
4.074771482e-21
3.73283515e-21
6.515592493e-21
1.121955633e-20
1.327997838e-20
1.219929676e-21
6.881078177e-22
1.639416324e-21
3.971529611e-21
4.580877525e-21
2.928992631e-21
8.725824092e-22
7.340970361e-22
4.068562286e-21
4.684262612e-21
1.909091264e-21
1.958141825e-21
3.079138018e-21
1.668804913e-20
1.215794638e-21
1.192111958e-21
7.556425401e-21
1.930100786e-20
3.762293312e-22
1.228707022e-20
5.803465504e-22
3.129261937e-21
2.514808603e-21
6.63687006e-23
2.232984704e-21
8.884524951e-22
1.241325396e-21
1.313470494e-21
1.630169437e-20
3.109111969e-22
5.461910177e-21
2.618650946e-21
3.468629012e-22
6.03342345e-21
1.04458322e-21
3.207441866e-21
1.18351981e-21
1.24197819e-21
2.105857664e-21
6.839337434e-21
5.371972591e-21
6.478583352e-22
2.854406738e-21
3.119101492e-21
3.069668344e-21
6.114938925e-21
2.855786788e-21
4.031330985e-21
2.560944279e-21
6.034077342e-21
1.157088926e-20
3.099196667e-21
1.32430905e-20
1.064704662e-21
4.556491954e-21
5.503890229e-21
4.86767926e-21
2.986630347e-21
4.877700396e-21
4.712856282e-21
7.852853728e-21
3.565641227e-21
5.452080292e-21
7.222435532e-21
6.304271608e-21
1.562761111e-22
4.272726869e-21
6.70803352e-21
1.113754844e-21
1.654453777e-21
1.931317864e-21
4.76721699e-21
2.863578914e-20
1.138418146e-21
1.093452025e-21
9.284231288e-22
8.661647827e-21
1.025571887e-20
2.133041796e-21
8.450602085e-21
5.901520806e-22
1.823343776e-22
1.51620683e-21
6.37245001e-21
2.625087515e-22
5.503548773e-21
1.148910342e-20
1.184733715e-20
2.694825398e-21
3.384680207e-21
1.592203568e-20
9.744390732e-21
5.525341807e-22
1.811081606e-21
2.77690453e-21
5.123306494e-22
9.607694776e-23
4.020462418e-21
3.143712767e-21
4.331854974e-21
2.444272247e-20
8.224684442e-21
1.046952964e-22
3.437730413e-21
6.652943091e-21
4.833946697e-21
2.353247883e-21
1.691547067e-21
2.743163381e-21
1.546933012e-21
1.17012926e-21
1.647960324e-21
5.526473747e-22
3.584671673e-21
5.438779846e-21
1.50261132e-22
4.093247581e-21
3.261911092e-21
6.034394395e-22
8.471451813e-21
9.96208986e-21
8.160993108e-21
2.110626665e-21
4.781253017e-21
3.81965503e-21
4.331995946e-21
1.682560153e-21
1.33194905e-21
3.325275612e-22
9.088777073e-22
8.291401594e-21
6.523933414e-21
1.957047547e-20
1.227358721e-20
5.628031953e-21
2.460018353e-21
4.788673907e-21
3.746726012e-21
1.732616916e-21
1.735006002e-21
4.33072645e-21
3.44446754e-21
7.028213166e-21
5.289767236e-22
3.887035889e-21
1.446216694e-21
1.034785323e-21
1.694850363e-20
6.387740055e-22
3.459387838e-22
2.936765874e-21
3.099402589e-21
2.817912783e-21
4.214962961e-21
5.593508662e-21
2.278111513e-23
1.063703436e-21
2.0128802e-21
1.967996247e-20
7.809379587e-21
3.207652559e-21
2.993710505e-21
2.208172777e-21
9.711577953e-22
3.568046302e-21
1.839868142e-20
1.095711526e-21
2.288032759e-23
1.026203084e-21
7.13821807e-21
1.654240601e-21
3.502157501e-21
1.973530943e-21
1.007598113e-20
5.989842921e-21
1.808339839e-21
9.343527118e-21
1.067301334e-21
2.205148488e-21
7.768428244e-22
3.898946569e-21
2.091316396e-21
3.834303389e-21
3.600129355e-21
4.109771475e-23
2.722509865e-21
3.615439162e-22
2.384920811e-21
1.232403022e-21
6.581128943e-22
5.363456822e-21
6.447507166e-21
5.72422219e-21
3.462056107e-22
1.297804816e-21
1.451168489e-20
4.345087546e-21
8.707104075e-21
1.813650653e-21
7.243035188e-22
2.223774171e-21
1.50250615e-20
5.062848177e-21
1.723209451e-21
6.02129802e-21
9.338689436e-21
1.793600191e-21
1.191095716e-21
3.216168926e-21
7.304205951e-21
7.457898858e-21
8.141530705e-21
7.33531797e-21
7.865221186e-21
2.242392561e-22
3.3127376e-21
2.90601536e-21
7.153425629e-21
4.615132558e-21
6.126771028e-22
1.202507193e-20
9.583259188e-22
7.962187799e-21
9.26027922e-21
3.259800261e-21
9.048405138e-22
2.610315312e-21
4.456803091e-21
4.00627254e-21
1.239550868e-20
1.154420288e-22
1.967365385e-20
5.700223591e-22
8.031779118e-22
1.690885777e-21
7.344199866e-22
1.918971796e-21
4.836418752e-21
3.55848122e-21
4.828271183e-21
2.052493063e-20
1.453418832e-21
3.719361758e-21
2.020634417e-21
2.079026702e-21
1.101674965e-21
6.39331162e-22
3.976005803e-24
1.189403992e-20
6.418274913e-21
9.572305129e-22
1.421144811e-21
9.995040454e-22
6.86114545e-21
4.085755349e-21
6.078153781e-21
8.029772096e-21
2.176851416e-20
1.202193629e-21
1.531784751e-20
3.077643719e-21
6.404896509e-22
4.761718515e-21
3.220657696e-21
3.000922772e-21
2.074787266e-20
5.078697482e-23
2.234373887e-21
4.436742513e-21
1.102654173e-21
3.957121946e-21
1.229076785e-21
7.726006796e-22
5.512651008e-21
1.617741193e-21
4.435024644e-22
1.769927339e-21
3.421407328e-21
2.070357048e-21
6.165136512e-21
1.297726519e-21
9.830693032e-22
2.338836333e-21
4.972977316e-21
3.073075287e-21
1.121813872e-21
3.359748842e-21
5.01741618e-22
3.839655653e-21
6.458945344e-22
2.722945877e-22
2.196739144e-21
3.365821925e-21
8.983425032e-21
6.257690885e-21
5.933234614e-21
3.01499555e-21
8.377547123e-21
9.477686912e-21
6.44764157e-21
6.368024813e-21
5.257600334e-22
2.026624749e-21
1.257946177e-20
1.761341316e-21
2.620977576e-21
6.120299165e-21
5.47523283e-22
1.049741671e-20
2.210098704e-21
4.320880969e-21
3.934627411e-21
4.982585639e-21
3.36048633e-21
2.90906351e-21
2.94650145e-21
5.691292857e-21
4.973672286e-21
3.137140765e-21
8.984670146e-21
2.092716052e-21
1.133661391e-20
6.530557821e-21
1.808337983e-21
7.356643e-21
3.477198396e-21
1.618329867e-21
1.1463223e-21
4.557632675e-21
8.756215103e-21
3.532034815e-21
1.1709461e-22
3.560903692e-21
5.79669784e-21
1.261738737e-21
5.791171226e-21
7.363304651e-21
2.346593039e-21
1.749934915e-21
2.060979963e-21
4.788114409e-22
2.51740291e-22
1.516648319e-21
8.719672215e-21
1.634834086e-21
2.094147323e-21
3.117564803e-21
1.228760775e-21
1.27053116e-22
9.967264182e-22
3.990199955e-21
1.969694389e-21
1.441365782e-22
1.213326779e-22
6.740935409e-23
2.899659346e-21
8.4670938e-21
2.508684277e-21
7.116264282e-22
5.652727323e-21
2.267071406e-22
4.519480609e-22
1.600816648e-22
2.646528511e-21
4.301946497e-21
6.531248467e-21
7.123858586e-21
2.658305934e-21
7.271612261e-22
6.329016196e-21
9.360160898e-21
3.237375369e-21
3.715492525e-22
7.543182556e-22
3.221741302e-21
1.272503421e-21
2.594348371e-21
1.667547007e-20
4.035085219e-22
1.559912042e-21
2.599585054e-21
5.921562022e-22
2.523585767e-21
2.905549158e-21
1.433424299e-21
3.347116462e-21
2.055154074e-21
1.096548836e-21
8.923427949e-21
5.844223353e-21
4.319603797e-21
1.826867668e-22
1.933644696e-21
2.211209673e-21
4.391757567e-21
8.393239266e-22
8.33931945e-21
1.181117e-20
5.882928545e-21
4.448007009e-22
1.436241525e-21
2.484666461e-22
8.979681854e-21
4.417076011e-22
1.140146106e-21
4.260645462e-21
5.856170453e-22
1.518598295e-20
2.629576546e-21
1.597155004e-21
8.752606851e-21
6.565358605e-21
4.324302544e-21
1.233243311e-21
1.794784892e-21
5.353707004e-21
1.238901492e-20
2.801883591e-21
1.115067883e-21
2.557896256e-21
1.864278307e-21
5.319875941e-21
3.266571191e-21
4.36011585e-21
8.29353483e-21
2.775295928e-21
5.446014727e-21
2.581891915e-21
1.074797722e-20
4.369101996e-21
6.816160034e-21
4.207666899e-21
8.987955083e-22
1.101757459e-21
4.75860361e-21
7.634938894e-23
9.521213709e-22
2.713373567e-21
2.376991857e-22
2.972476505e-21
3.832923545e-22
3.369901787e-21
1.124515155e-21
5.455687615e-21
5.27264911e-22
3.36467532e-21
4.789882757e-21
4.879245407e-21
6.294951157e-21
3.62007348e-21
2.797442748e-22
1.489441678e-20
1.139777549e-20
1.746984273e-21
2.793966449e-21
5.261671186e-21
1.296858684e-21
3.503258339e-21
2.428464289e-21
6.890516075e-21
6.531120415e-21
5.127270966e-22
1.37953658e-21
1.937351258e-21
1.166817609e-21
8.661916164e-22
3.216275532e-22
2.523129955e-21
8.800684557e-21
2.864057846e-22
2.079771592e-21
2.958528664e-22
4.290559052e-22
2.996163525e-21
1.767694373e-21
3.333146918e-21
5.225797097e-21
5.577347493e-21
3.373205535e-21
3.528758459e-22
2.934979342e-22
4.415695853e-21
8.518236614e-21
5.023962369e-21
1.806740947e-21
1.59574698e-21
1.848833403e-21
3.699227259e-22
3.058306835e-21
2.977106369e-22
1.677420085e-20
2.902793709e-21
4.004607172e-21
2.33468138e-21
5.934087383e-21
4.705119848e-21
3.690028577e-21
9.703022155e-22
4.178128503e-22
4.387065497e-21
4.033308049e-22
4.323056628e-21
1.701665165e-21
5.691404777e-21
2.122245565e-21
8.884191002e-21
1.788022165e-22
1.05454012e-20
7.267206827e-21
3.637471687e-21
1.471115251e-21
1.32617608e-21
3.599391706e-21
2.761876767e-22
2.429134053e-21
1.509006402e-21
3.914321951e-21
9.862809366e-22
2.395047478e-21
7.656960928e-22
8.994867098e-21
2.466762184e-21
7.379961545e-22
8.778418807e-21
8.558162719e-21
1.237992282e-22
1.241687196e-21
1.442698694e-20
2.281487371e-22
2.25775259e-21
1.09532966e-22
5.862862381e-22
2.122188926e-22
3.752327913e-22
3.519690725e-21
5.814593415e-21
1.245321371e-22
7.223314256e-21
1.31661657e-21
2.798368595e-21
9.609528967e-21
3.056856586e-21
1.947221011e-21
3.112330563e-21
8.767019933e-22
1.956510943e-21
1.61305255e-20
2.770216442e-21