/*--------------------------------*- C++ -*----------------------------------*\
  =========                 |
  \\      /  F ield         | OpenFOAM: The Open Source CFD Toolbox
   \\    /   O peration     | Website:  https://openfoam.org
    \\  /    A nd           | Version:  7
     \\/     M anipulation  |
\*---------------------------------------------------------------------------*/
FoamFile
{
    version     2.0;
    format      ascii;
    class       volScalarField;
    location    "0.00036";
    object      dsmcSigmaTcRMax;
}
// * * * * * * * * * * * * * * * * * * * * * * * * * * * * * * * * * * * * * //

dimensions      [0 3 -1 0 0 0 0];

internalField   nonuniform List<scalar> 
125
(
8.73293e-16
8.60818e-16
8.77538e-16
8.50094e-16
8.61568e-16
8.40255e-16
9.395e-16
8.25741e-16
8.11441e-16
7.90494e-16
8.13362e-16
7.85023e-16
8.28264e-16
8.08959e-16
7.98611e-16
7.58943e-16
7.58082e-16
6.86635e-16
6.82756e-16
7.11e-16
6.92815e-16
7.05066e-16
7.37351e-16
7.40316e-16
7.44542e-16
6.80223e-16
7.19437e-16
6.92871e-16
7.04416e-16
7.02663e-16
6.8798e-16
6.65483e-16
6.71099e-16
6.59597e-16
6.87869e-16
6.79703e-16
7.16668e-16
7.05302e-16
6.91509e-16
6.75027e-16
6.78389e-16
6.78545e-16
6.92867e-16
6.82388e-16
6.7668e-16
6.96868e-16
6.78344e-16
6.74183e-16
6.72163e-16
6.89612e-16
6.83786e-16
6.96494e-16
6.91369e-16
6.66137e-16
6.79588e-16
6.83464e-16
6.80802e-16
6.80537e-16
6.92934e-16
7.01498e-16
6.82864e-16
6.9882e-16
6.77894e-16
6.80644e-16
7.13599e-16
6.86114e-16
6.7305e-16
6.60458e-16
6.74963e-16
6.96786e-16
6.78598e-16
6.80019e-16
6.76773e-16
7.205e-16
7.37256e-16
7.04104e-16
6.95994e-16
6.71326e-16
6.96583e-16
7.098e-16
6.66394e-16
7.02315e-16
6.74788e-16
6.68696e-16
6.87184e-16
6.78411e-16
6.86056e-16
6.99238e-16
6.98994e-16
6.63574e-16
6.80795e-16
6.81345e-16
7.18641e-16
6.83204e-16
6.97687e-16
6.94336e-16
6.92671e-16
6.96731e-16
6.89645e-16
6.92063e-16
6.96828e-16
6.78452e-16
7.24603e-16
6.97198e-16
6.83651e-16
6.81376e-16
6.8278e-16
6.73264e-16
6.70707e-16
7.0853e-16
6.84363e-16
6.95347e-16
7.10811e-16
7.03404e-16
6.79301e-16
6.50367e-16
6.753e-16
6.90435e-16
6.64976e-16
6.92372e-16
7.07074e-16
6.99009e-16
6.93376e-16
6.91962e-16
7.1368e-16
)
;

boundaryField
{
    sides
    {
        type            symmetry;
    }
    empty
    {
        type            empty;
    }
    procBoundary2to1
    {
        type            processor;
        value           uniform 9.27624e-16;
    }
    procBoundary2to3
    {
        type            processor;
        value           uniform 6.98895e-16;
    }
}


// ************************************************************************* //
