/*--------------------------------*- C++ -*----------------------------------*\
  =========                 |
  \\      /  F ield         | OpenFOAM: The Open Source CFD Toolbox
   \\    /   O peration     | Website:  https://openfoam.org
    \\  /    A nd           | Version:  7
     \\/     M anipulation  |
\*---------------------------------------------------------------------------*/
FoamFile
{
    version     2.0;
    format      ascii;
    class       volScalarField;
    location    "0.00036";
    object      internalE;
}
// * * * * * * * * * * * * * * * * * * * * * * * * * * * * * * * * * * * * * //

dimensions      [1 -1 -2 0 0 0 0];

internalField   nonuniform List<scalar> 
125
(
459.492
398.971
372.945
374.668
346.38
418.324
497.77
426.889
339.049
361.894
416.205
350.395
409.709
444.331
342.897
365.519
417.233
216.438
140.2
115.861
121.733
113.263
137.952
105.48
133.483
69.1997
124.82
90.2505
105.57
135.729
107.003
82.1513
77.7714
102.344
138.029
123.496
124.247
94.7864
123.89
101.483
77.3193
117.752
73.938
108.194
89.7765
108.615
98.7307
114.213
120.318
87.8619
116.005
125.437
117.054
102.608
134.456
107.09
93.2292
78.6279
93.7446
112.135
139.691
92.5348
115.95
120.38
105.494
130.074
106.396
101.184
133.884
107.247
106.871
115.056
130.694
81.6251
110.807
100.075
76.014
118.737
135.273
132.226
99.6987
108.367
109.398
96.941
121.146
97.6289
131.041
70.8819
105.292
112.564
103.122
82.6657
130.042
85.4579
104.262
95.8571
126.166
128.367
78.0731
104.193
108.002
104.467
144.78
95.5079
92.5324
106.601
126.731
125.457
111.644
104.448
119.334
109.117
102.564
130.41
116.401
97.8813
100.866
105.064
128.291
142.994
89.4847
94.9017
129.114
101.317
139.993
)
;

boundaryField
{
    sides
    {
        type            symmetry;
    }
    empty
    {
        type            empty;
    }
    procBoundary2to1
    {
        type            processor;
        value           uniform 431.727;
    }
    procBoundary2to3
    {
        type            processor;
        value           uniform 117.425;
    }
}


// ************************************************************************* //
