/*--------------------------------*- C++ -*----------------------------------*\
  =========                 |
  \\      /  F ield         | OpenFOAM: The Open Source CFD Toolbox
   \\    /   O peration     | Website:  https://openfoam.org
    \\  /    A nd           | Version:  7
     \\/     M anipulation  |
\*---------------------------------------------------------------------------*/
FoamFile
{
    version     2.0;
    format      ascii;
    class       scalarField;
    location    "0.0125/lagrangian/dsmc";
    object      Ei;
}
// * * * * * * * * * * * * * * * * * * * * * * * * * * * * * * * * * * * * * //


244311
(
1.17384e-21
7.66785e-23
1.54482e-21
1.04705e-21
1.6196e-21
7.7113e-23
1.10901e-21
1.48012e-21
7.95787e-22
2.28199e-21
2.01099e-21
6.44586e-22
6.50075e-22
4.61487e-21
5.01232e-21
2.4156e-21
4.93655e-22
3.26574e-21
1.27511e-21
2.54511e-21
8.03509e-23
1.66771e-21
1.65641e-21
2.39524e-22
1.89077e-22
9.33284e-22
5.74746e-21
3.61597e-21
2.3584e-22
6.66074e-21
3.27182e-21
1.69725e-21
4.56635e-21
2.73333e-23
6.76031e-21
4.64313e-23
1.42121e-21
5.04956e-22
2.49227e-21
1.18709e-21
9.75706e-22
7.92272e-22
2.00194e-21
5.08048e-21
2.06066e-22
2.63033e-21
6.95957e-22
3.34793e-21
1.03459e-21
3.71601e-21
2.70386e-22
2.75886e-21
4.23015e-21
7.13596e-22
1.21916e-21
1.50631e-21
8.12156e-22
8.74166e-22
5.6813e-22
2.76418e-22
4.39574e-22
4.20488e-21
1.74222e-21
1.02251e-21
3.14663e-22
3.18587e-22
2.52421e-21
4.33998e-21
1.14748e-22
5.46123e-22
1.26226e-21
3.44942e-22
5.62955e-22
7.80909e-21
1.21158e-21
4.75764e-23
3.763e-22
1.6394e-22
1.04655e-21
7.54851e-22
5.55421e-21
1.68247e-21
2.0067e-21
3.65811e-22
4.88263e-22
8.35176e-22
6.45209e-22
1.33658e-21
2.53971e-22
7.41122e-21
6.33101e-21
2.77167e-22
8.57233e-22
2.41492e-21
2.81113e-21
2.96692e-22
1.66127e-21
1.98158e-22
2.3812e-21
1.22153e-21
3.5083e-22
2.14913e-21
1.94215e-22
2.15633e-21
1.78499e-22
2.80522e-22
7.57026e-22
1.44477e-21
4.05187e-21
3.63488e-22
1.7782e-21
2.55427e-22
4.27481e-21
2.5234e-22
2.93299e-21
3.41462e-22
7.41847e-22
8.80238e-22
3.69569e-22
6.64457e-22
6.10155e-21
3.40065e-21
3.34082e-21
1.2132e-21
1.41865e-22
3.52182e-22
6.818e-23
1.80324e-21
1.58747e-21
5.0754e-22
3.18283e-21
1.05697e-21
6.9331e-22
6.63074e-23
3.05863e-22
1.8005e-21
1.04571e-21
3.721e-22
2.14871e-21
5.42021e-22
4.46375e-21
6.74267e-22
1.7352e-21
2.25246e-21
1.49607e-21
2.24153e-21
3.67266e-21
4.29505e-21
1.69361e-21
4.32862e-22
2.98105e-22
1.08298e-21
9.94414e-22
1.89543e-21
7.91777e-22
2.03343e-21
1.61729e-23
2.73065e-22
4.28846e-21
6.83212e-22
1.15539e-21
1.9775e-21
2.2641e-21
1.93447e-21
4.64982e-22
9.05845e-22
2.64781e-21
1.33905e-21
6.93757e-22
1.4793e-21
2.4339e-21
6.39646e-22
1.90377e-21
1.88213e-21
1.69457e-22
1.01394e-21
1.45734e-21
1.41893e-21
1.15662e-21
6.06119e-22
6.19687e-22
9.24174e-22
1.74174e-21
2.04008e-21
4.69224e-22
6.25106e-22
3.04552e-21
9.83754e-22
1.23199e-21
7.71009e-21
3.09307e-21
7.28406e-22
2.12577e-21
5.47272e-21
2.27968e-21
1.56339e-23
2.47352e-21
9.74488e-23
3.77498e-22
1.07805e-22
2.02606e-23
8.18083e-22
6.03759e-23
4.54014e-22
3.53415e-22
1.33176e-21
1.80477e-21
7.85625e-22
3.24628e-21
3.58781e-21
1.59141e-22
8.80343e-22
3.23885e-22
3.09977e-21
1.03526e-21
1.56517e-21
3.23006e-21
8.29255e-22
5.07681e-22
8.71905e-22
6.38257e-22
5.905e-22
3.56221e-21
5.54162e-22
1.81083e-22
2.53872e-23
8.71256e-22
1.27562e-21
2.70925e-21
4.90035e-21
1.83197e-21
5.64457e-21
4.74313e-21
1.20122e-21
1.89742e-21
7.17702e-22
3.54287e-22
6.30862e-23
7.979e-23
2.25728e-21
1.43372e-21
2.82469e-21
1.73288e-21
3.61645e-22
5.59457e-22
3.67667e-21
6.99764e-21
3.47185e-21
2.64354e-22
4.92892e-21
5.19221e-22
3.1517e-21
2.22411e-21
8.08963e-22
4.43313e-21
4.65405e-22
4.95589e-22
2.73727e-21
1.08911e-22
8.74744e-22
3.01115e-23
3.01405e-21
9.48799e-22
1.19249e-21
1.52274e-21
2.35175e-21
2.61788e-21
6.20955e-22
3.38456e-21
2.14835e-22
4.1159e-22
3.05082e-21
2.17923e-22
9.68337e-22
4.71494e-21
6.89705e-21
5.14659e-22
1.57025e-21
1.2149e-21
7.14009e-22
1.06863e-21
2.51991e-21
7.72295e-22
9.37199e-22
1.31252e-22
2.88378e-21
5.26779e-22
2.5228e-22
7.25524e-22
3.60911e-22
4.51287e-21
2.86391e-21
5.98468e-22
7.92347e-22
4.9308e-22
7.71253e-23
1.10907e-21
1.15023e-21
2.7791e-21
8.13793e-22
8.23129e-23
2.25348e-22
3.72145e-22
2.2001e-21
1.45777e-21
5.05726e-21
8.65078e-22
1.21329e-22
4.32388e-22
5.13523e-23
1.7938e-21
6.20458e-22
1.71699e-21
3.31925e-22
3.06566e-21
2.84373e-22
5.49562e-21
1.50742e-21
3.46456e-21
1.52855e-21
2.06578e-21
1.93818e-21
2.85296e-22
1.68679e-22
1.20344e-21
4.77675e-22
2.67738e-21
1.42319e-21
8.43873e-22
4.70474e-22
2.63655e-21
4.83995e-22
2.18251e-21
1.44459e-21
3.27576e-22
1.1395e-21
3.83267e-21
2.57172e-21
2.68519e-21
1.12357e-21
1.54625e-21
2.7567e-21
4.13062e-21
1.27627e-21
1.08759e-21
8.97423e-22
6.33941e-22
7.42008e-22
1.41745e-21
2.36332e-22
3.56949e-21
5.71964e-23
1.28816e-22
2.96692e-21
5.20979e-22
6.72631e-23
1.10816e-21
9.60725e-22
4.49181e-24
1.89667e-21
8.48566e-23
3.95382e-22
5.28327e-22
1.98679e-21
2.70225e-22
1.40493e-21
5.41934e-22
4.93045e-22
1.05615e-21
2.98382e-21
1.80166e-21
3.25617e-21
2.32277e-22
5.99492e-22
2.4457e-21
7.19525e-22
1.51432e-23
3.19653e-23
1.90029e-21
7.35835e-22
1.1824e-21
1.17004e-22
1.47572e-22
1.18003e-21
4.32428e-22
7.3679e-22
1.50617e-21
4.5426e-21
1.15476e-22
2.856e-21
1.26772e-22
1.2399e-21
2.66735e-22
8.05274e-21
3.31352e-22
1.00874e-22
1.48611e-22
2.09704e-21
4.32287e-21
3.24032e-21
2.12838e-22
5.7918e-22
5.00035e-21
1.68633e-21
3.67724e-22
1.02103e-22
8.15676e-21
9.59607e-22
2.52624e-21
5.79931e-22
1.75352e-22
1.39318e-21
1.47253e-22
3.50422e-22
3.17185e-22
1.40173e-21
5.61472e-22
1.18839e-21
4.35782e-22
2.0844e-22
6.76435e-22
3.5e-22
1.81547e-21
8.01711e-23
2.57563e-21
1.00552e-21
9.2295e-22
6.17028e-21
1.36931e-21
7.70123e-22
3.0903e-22
1.84677e-21
8.67731e-22
1.83639e-21
2.11364e-21
1.8997e-21
1.02055e-22
1.15992e-21
6.61826e-22
3.5605e-23
1.26403e-21
8.80686e-23
9.78667e-22
1.407e-21
1.93961e-21
7.57953e-22
1.79058e-21
7.66755e-23
1.16509e-22
1.99777e-21
6.59828e-21
9.85825e-22
8.36593e-22
2.43729e-21
3.47294e-21
3.17164e-22
9.37168e-23
1.66734e-21
8.78795e-22
4.63729e-22
5.68153e-22
4.09141e-21
1.76528e-22
2.77728e-21
3.80094e-22
1.95475e-21
1.414e-21
1.77185e-21
2.58887e-21
8.61958e-22
3.58029e-21
1.64767e-21
1.75273e-22
1.2953e-21
1.45652e-21
2.6579e-21
2.85428e-21
1.67474e-21
3.27544e-21
2.89145e-21
1.64475e-21
7.23682e-22
7.31453e-22
2.09732e-21
7.61408e-22
3.69804e-21
3.46039e-22
4.56855e-22
1.00181e-22
5.34407e-22
1.72902e-21
5.82108e-22
5.88748e-22
8.11173e-22
1.15417e-21
3.64013e-21
3.76425e-21
1.3326e-21
2.54468e-21
4.92436e-21
1.75659e-22
1.31613e-22
1.76675e-21
5.71391e-21
1.2721e-21
4.2601e-22
7.02303e-22
3.18534e-21
3.88633e-23
2.18992e-21
3.17751e-22
7.2155e-22
1.2937e-21
8.32108e-22
9.29479e-22
3.09802e-21
9.28541e-22
1.50958e-21
6.42041e-22
1.33672e-21
1.2491e-22
1.10322e-22
6.05932e-21
2.4143e-21
3.12064e-22
9.86497e-22
7.10749e-22
3.10663e-21
3.50068e-22
1.6673e-21
5.55643e-21
2.23692e-22
1.19568e-22
2.32812e-21
6.60243e-22
2.13464e-21
5.0164e-21
1.07365e-21
4.22536e-22
6.78333e-22
2.7436e-21
1.17024e-21
4.77976e-22
3.05098e-21
2.51254e-21
5.63946e-23
1.3842e-21
1.70274e-21
4.66611e-22
1.26244e-22
1.02476e-21
3.26985e-22
5.59318e-22
1.98753e-21
1.37792e-21
1.62213e-22
2.29057e-21
1.44034e-21
1.95854e-21
2.62912e-22
1.21211e-23
1.31276e-21
6.05682e-22
1.10129e-22
8.54079e-22
1.62074e-21
2.51235e-22
3.81407e-21
9.36191e-22
2.56166e-21
1.1675e-21
2.7119e-21
6.73852e-22
4.74433e-22
3.97967e-21
1.14211e-22
2.85329e-24
4.04328e-21
8.20587e-23
5.75311e-21
4.46869e-21
1.44912e-21
4.01352e-21
1.52434e-22
5.01561e-23
1.34677e-21
1.58511e-21
8.30847e-21
2.66048e-22
2.68625e-21
8.65931e-22
6.50049e-22
2.65931e-21
5.72619e-21
4.00011e-22
2.04625e-22
1.79573e-21
3.54472e-21
1.36873e-21
4.29814e-23
4.36785e-21
9.64948e-22
8.56434e-22
2.90906e-22
1.2711e-21
6.71393e-22
2.15636e-21
1.8287e-21
6.33208e-22
6.10476e-22
2.07216e-21
3.56124e-21
3.86286e-21
1.06933e-21
1.53045e-21
1.55195e-21
9.50405e-22
4.13406e-21
2.93068e-22
1.11045e-21
9.17335e-23
1.19201e-21
1.00864e-21
1.59746e-22
2.36634e-21
5.97766e-22
4.98426e-22
2.1648e-22
4.43575e-22
2.61535e-22
2.04534e-21
7.23085e-22
1.4768e-21
2.81869e-22
9.16689e-22
1.94811e-22
7.03487e-22
2.82373e-22
4.32676e-25
1.75339e-21
4.00442e-21
1.3329e-21
3.51593e-22
6.44551e-22
1.16344e-22
3.15729e-22
1.77802e-22
2.60822e-22
1.56567e-21
1.07996e-22
5.45546e-21
1.23811e-22
1.18578e-21
1.25559e-22
3.15196e-21
4.74083e-22
8.01666e-22
1.28253e-21
5.28519e-22
7.73123e-22
2.89401e-22
1.99221e-22
1.13343e-21
4.01972e-22
5.62917e-22
3.3923e-22
9.90937e-22
1.53585e-23
5.75315e-23
1.28021e-21
3.20238e-22
1.78748e-21
2.98232e-21
1.02258e-21
6.346e-22
9.50114e-22
1.6305e-21
4.54121e-21
1.81547e-21
5.81479e-23
2.01763e-21
2.23725e-21
1.10139e-21
8.23087e-21
9.59834e-22
4.57797e-22
3.08596e-23
2.96576e-21
2.62125e-21
2.86892e-21
4.36298e-21
2.09333e-21
1.01907e-22
7.40562e-22
5.05385e-23
5.8135e-22
6.09357e-22
1.55465e-21
1.14695e-21
1.95375e-21
5.18595e-21
8.51874e-22
5.80709e-22
3.66203e-21
2.43751e-21
3.52445e-21
5.98607e-22
3.42484e-22
1.36185e-21
2.13977e-23
1.39533e-21
1.24251e-21
7.49763e-22
1.29465e-21
3.43427e-22
3.60778e-22
1.49235e-21
3.3001e-21
2.45721e-21
5.85203e-21
1.31372e-21
7.94816e-22
1.62197e-22
2.42617e-21
6.11829e-22
2.92843e-21
1.94943e-21
1.66117e-21
4.71079e-22
1.01851e-21
1.06805e-21
2.81335e-21
8.66041e-22
8.44856e-22
2.40583e-22
6.37947e-21
4.33204e-21
7.13564e-22
6.26323e-22
4.19161e-22
1.18862e-21
8.19298e-22
3.9326e-22
2.48213e-22
8.62781e-22
2.68582e-22
5.51782e-22
1.96624e-21
6.00983e-22
5.46428e-22
4.32613e-21
3.71976e-22
4.3907e-22
1.0811e-21
2.64434e-21
1.52882e-21
1.10875e-21
8.20992e-22
2.03044e-21
1.08488e-21
3.91553e-21
3.4982e-21
2.22508e-22
1.93093e-21
1.59401e-21
2.95652e-21
1.66712e-21
2.38246e-21
9.21158e-22
1.25548e-21
4.1304e-21
3.3667e-22
2.35492e-21
6.31885e-23
1.84577e-21
4.37671e-21
1.78015e-21
1.73134e-21
1.87069e-21
2.27759e-21
9.27908e-22
3.39746e-22
3.11432e-22
8.77504e-23
2.50354e-21
1.37218e-21
4.47128e-22
2.86973e-21
5.74128e-22
9.8883e-23
5.3985e-22
1.59346e-21
5.48518e-22
1.26262e-21
8.72905e-22
3.49466e-22
1.95519e-22
4.97523e-21
6.32677e-22
1.79123e-21
5.70822e-21
7.41931e-23
2.67596e-22
3.51857e-21
1.97266e-21
6.20585e-22
2.63613e-22
2.44451e-21
2.28486e-22
1.53346e-22
1.37515e-21
1.77629e-21
1.37282e-21
1.30292e-21
3.98917e-22
1.07455e-21
2.4828e-21
4.20105e-22
1.50239e-21
1.23123e-21
7.91739e-22
1.04218e-21
2.37316e-21
1.42767e-21
2.53196e-21
9.3337e-22
7.32134e-22
2.46046e-21
2.37923e-21
2.4919e-22
2.22687e-21
1.06352e-21
7.98922e-22
2.02069e-21
7.42844e-21
3.35167e-22
7.00121e-22
1.76797e-21
2.1867e-21
1.83006e-21
2.76217e-21
2.02477e-21
6.40694e-21
2.9223e-21
7.68667e-22
8.11239e-22
2.05892e-22
6.58328e-22
7.83885e-22
6.54246e-21
2.75072e-22
8.49724e-22
1.38308e-21
1.57266e-21
3.09878e-22
4.42322e-21
6.30255e-22
1.72299e-21
2.63054e-21
1.05835e-21
1.54904e-21
1.29635e-21
6.04325e-21
7.8253e-22
9.60119e-22
1.26067e-21
8.119e-22
4.87164e-22
4.14646e-22
9.26735e-21
3.11437e-21
3.03255e-22
6.18057e-22
2.20934e-22
2.53136e-22
1.01671e-21
3.31931e-21
4.38099e-23
7.34593e-22
7.55811e-22
1.42197e-21
9.73956e-22
1.36228e-21
4.12161e-23
1.23345e-21
1.05585e-21
6.14538e-22
2.24667e-22
4.76429e-21
1.47034e-21
1.65858e-21
5.51157e-22
2.6849e-22
5.19073e-22
1.60561e-21
1.83323e-21
4.55821e-21
1.49939e-21
2.56223e-21
4.656e-21
2.72489e-22
8.1847e-22
3.82856e-21
5.21041e-23
2.62848e-21
1.63781e-21
3.13808e-21
1.05417e-21
2.19948e-22
3.83198e-22
8.15723e-25
4.96789e-21
1.25295e-22
3.30936e-22
1.55086e-21
4.7264e-21
9.18655e-22
1.13719e-21
6.70803e-23
7.39172e-22
1.33024e-21
3.02686e-21
7.63492e-22
6.67024e-23
2.17782e-21
3.84214e-22
9.46102e-22
1.45729e-21
6.01468e-22
1.39744e-21
7.14787e-22
1.80079e-25
1.48141e-21
8.16982e-24
1.49538e-21
2.23518e-22
2.34503e-21
1.01901e-22
1.60159e-21
1.36606e-21
2.08809e-21
1.4435e-22
5.30452e-22
2.35635e-21
3.10884e-22
3.38827e-22
5.0786e-22
2.24564e-21
3.72416e-22
1.3202e-21
3.25471e-21
9.43594e-23
2.4159e-22
1.42301e-21
1.85411e-21
3.70281e-22
2.38836e-21
1.8803e-21
5.31209e-22
8.09448e-22
5.25905e-22
6.31442e-23
2.27962e-21
9.67664e-23
2.3564e-21
6.84696e-23
2.63324e-22
1.17621e-22
1.32716e-21
3.75583e-22
1.73466e-21
3.12289e-22
1.49644e-21
1.20811e-21
2.0997e-21
1.70896e-21
1.07147e-21
2.21127e-21
4.6996e-22
5.6654e-22
3.81321e-23
5.90104e-21
5.75425e-22
3.58153e-21
1.4468e-22
3.71566e-21
2.76977e-21
2.41724e-22
3.7987e-21
3.00803e-22
2.10366e-22
1.09752e-21
4.7136e-21
2.63252e-23
9.62324e-22
3.599e-22
6.71479e-22
5.32475e-22
2.78889e-22
5.99794e-22
6.12716e-22
5.41915e-22
6.41763e-22
8.51652e-22
5.49571e-22
8.11388e-22
1.19386e-21
7.89598e-22
1.14227e-21
2.10653e-21
1.53201e-21
6.92647e-22
1.33462e-22
1.37973e-21
2.66764e-21
8.72176e-22
1.61627e-21
1.61007e-21
2.14971e-21
1.33706e-22
2.21681e-21
7.29573e-22
2.26059e-21
1.19008e-21
4.26261e-21
3.79601e-21
9.73635e-22
2.74126e-21
4.80396e-22
7.84178e-22
3.83519e-21
1.89427e-22
3.01345e-22
1.47817e-22
2.38146e-21
9.74746e-22
1.10436e-22
2.59931e-22
2.26127e-21
2.12586e-21
8.25916e-23
2.64343e-21
1.82599e-21
1.82528e-21
2.16644e-21
4.15244e-21
1.45707e-21
2.46708e-21
2.65889e-23
6.35481e-21
1.21991e-23
1.38814e-21
3.03733e-21
2.04096e-21
1.83667e-21
9.7632e-23
8.74877e-23
6.16644e-22
1.47359e-21
2.27749e-21
1.01661e-21
1.10685e-21
2.25469e-21
7.41469e-21
9.85764e-22
8.84811e-22
1.16294e-21
2.64932e-21
2.12477e-21
1.15687e-21
1.47813e-21
1.21677e-23
2.07441e-21
3.90261e-22
3.37591e-21
2.90301e-21
3.17246e-21
4.81981e-22
8.95518e-22
9.52139e-22
7.14819e-22
1.57627e-21
2.10362e-22
4.65957e-22
1.02748e-21
1.87894e-22
3.00423e-22
7.24263e-22
2.29397e-21
2.36695e-22
1.42473e-22
2.76144e-21
2.04369e-21
8.35709e-22
2.23879e-23
3.65085e-21
1.50576e-22
4.9784e-21
6.94372e-21
2.62869e-21
6.44616e-23
1.99206e-21
3.50809e-22
4.13096e-24
2.61116e-21
5.47288e-21
6.74063e-22
6.06851e-21
2.4325e-23
9.6917e-22
2.50284e-21
7.34961e-22
9.77569e-22
9.43945e-22
3.19586e-21
5.34145e-22
9.55683e-22
3.54821e-23
3.60524e-22
3.61174e-22
3.9847e-23
1.26414e-21
1.73792e-21
1.07473e-21
4.66441e-21
1.29183e-21
2.83357e-21
1.56535e-21
8.04451e-22
2.69909e-21
1.48466e-21
1.76622e-22
1.24365e-22
2.02454e-21
1.6118e-21
3.25391e-22
9.03914e-22
2.39231e-21
2.2876e-21
2.24695e-21
5.8465e-23
1.86102e-21
3.96302e-22
5.30356e-22
1.50731e-21
1.3797e-21
2.48159e-21
4.14145e-21
2.18633e-23
5.33514e-22
1.37028e-21
2.83593e-22
2.38844e-22
4.33208e-21
5.77962e-22
2.06261e-21
5.80753e-22
3.64976e-21
1.59313e-21
1.17936e-21
3.23123e-23
2.10109e-22
6.02604e-23
9.24432e-22
3.94287e-22
1.04583e-22
1.11971e-21
8.89321e-22
1.0229e-22
1.67565e-23
7.41049e-22
2.50067e-21
7.45868e-22
1.0948e-21
1.32301e-21
2.86263e-21
3.99276e-21
3.37884e-21
5.40905e-22
6.66973e-22
8.59814e-22
5.60756e-21
1.05551e-20
6.4909e-22
1.76883e-21
5.05394e-22
1.15258e-21
1.51669e-21
8.46464e-22
1.09073e-21
6.12749e-23
6.81681e-22
1.01315e-22
1.2174e-21
1.18999e-21
1.95063e-22
6.64355e-22
3.67434e-21
5.30141e-22
2.12221e-21
1.98977e-22
9.35733e-22
7.94768e-21
2.16032e-22
8.05459e-22
1.37732e-22
2.07593e-22
2.13729e-22
9.08849e-22
2.48023e-22
2.98553e-22
4.25839e-22
2.77196e-22
1.26116e-21
3.88066e-22
8.99068e-22
1.18257e-21
2.98622e-22
9.28581e-22
6.00329e-22
2.46997e-21
3.07563e-22
4.2812e-21
9.78933e-22
1.3942e-23
6.41291e-22
6.54234e-22
2.07953e-21
1.46489e-22
1.47654e-21
2.70665e-21
1.11279e-22
1.15499e-22
1.39961e-21
5.21402e-22
3.5105e-21
4.94661e-22
4.26694e-21
9.43857e-22
7.93286e-22
6.88047e-22
3.62553e-22
3.89668e-21
9.5916e-24
6.87219e-22
7.31175e-22
2.91908e-21
7.36078e-22
1.93659e-21
1.51971e-21
6.25256e-22
1.64373e-21
2.225e-22
2.05866e-21
1.07668e-21
5.65592e-22
4.1449e-22
1.83812e-21
1.48446e-21
4.41005e-22
1.1247e-21
2.54597e-21
4.43599e-23
1.33236e-21
7.95726e-22
1.611e-21
8.13981e-22
8.1698e-23
1.41915e-21
5.15221e-21
7.76741e-22
7.5117e-21
3.0544e-21
1.25129e-22
1.35442e-21
3.72529e-21
6.35647e-22
2.07264e-22
5.12599e-22
6.31937e-22
1.21348e-21
1.53583e-22
6.55353e-21
1.0208e-21
6.13066e-22
3.19099e-21
3.90069e-22
1.10395e-21
6.87142e-22
3.12222e-22
1.30161e-21
6.51805e-22
3.08969e-22
2.15e-21
2.31828e-21
4.67421e-22
6.05078e-22
1.84169e-21
8.43608e-22
6.31449e-21
3.25877e-21
6.58715e-21
2.82434e-21
1.69743e-21
5.05845e-22
1.09312e-21
2.65934e-21
7.6993e-22
8.95511e-22
3.07566e-22
1.66402e-21
2.26075e-21
3.52733e-21
3.25278e-22
1.23368e-21
3.42338e-21
2.34291e-21
6.96228e-22
5.24397e-23
6.24275e-21
1.69351e-21
9.52782e-23
1.27072e-21
1.60072e-21
4.10532e-21
4.74294e-23
4.43951e-22
1.09907e-21
4.1733e-22
3.33217e-23
1.12539e-21
1.45928e-23
1.26793e-21
3.38431e-21
1.23413e-21
3.25759e-22
4.09812e-23
8.3831e-22
1.86139e-22
8.44893e-22
6.25061e-22
2.47005e-21
2.27918e-21
5.1761e-21
3.85494e-22
2.29856e-21
2.47221e-21
3.43335e-22
2.02799e-21
6.51698e-23
4.19143e-21
1.24726e-21
1.08074e-21
2.98363e-21
1.35158e-22
3.2517e-21
3.96048e-21
1.51054e-21
2.90396e-22
4.93139e-21
1.17356e-21
1.15686e-21
4.30627e-23
3.51291e-22
8.798e-22
6.29608e-22
1.16382e-21
4.78731e-22
6.63545e-22
1.04288e-21
1.59585e-21
7.79047e-22
6.76895e-22
1.01423e-22
5.26578e-22
4.36377e-22
6.00587e-21
9.26657e-22
4.8266e-22
4.1129e-21
2.74497e-21
3.53654e-21
6.57624e-23
4.51275e-21
5.73663e-23
1.08105e-21
1.2945e-21
1.87861e-22
1.31656e-21
1.37594e-22
4.3456e-22
7.55536e-22
2.61473e-21
1.24082e-21
3.21113e-21
3.37973e-22
8.12908e-22
2.52122e-21
7.73163e-23
5.21462e-22
1.80065e-21
1.28939e-23
1.363e-22
8.97611e-22
1.58959e-21
2.40341e-21
2.60107e-21
1.17697e-21
1.07635e-21
7.32102e-21
2.80921e-22
1.25506e-21
2.6791e-21
1.1414e-21
1.33424e-21
6.92928e-22
7.28654e-22
4.4196e-22
3.64466e-21
4.03431e-22
4.33958e-23
1.13555e-21
1.09473e-21
3.00711e-21
2.46482e-22
1.98797e-23
4.08992e-22
1.97734e-22
8.50175e-22
5.39176e-23
4.52791e-22
1.90716e-21
1.39035e-21
9.05008e-22
1.36848e-21
8.29091e-22
7.97977e-22
1.3943e-21
1.72394e-21
2.64228e-21
7.21537e-22
1.56874e-21
9.35199e-23
5.09815e-23
1.8978e-21
6.65595e-22
3.29667e-21
3.51689e-22
7.30569e-22
8.59105e-23
4.18135e-22
1.25359e-21
5.93264e-22
4.11858e-22
7.22703e-22
1.78206e-21
1.43491e-21
1.51706e-22
4.2803e-21
8.09085e-22
9.26952e-24
1.90809e-22
1.89344e-22
9.43303e-22
3.55264e-21
3.8288e-21
8.86241e-22
8.54964e-25
8.33909e-23
3.39274e-22
1.57913e-21
8.92074e-21
2.78982e-21
4.26251e-22
1.24986e-21
1.20826e-21
2.16374e-21
6.8032e-23
1.01353e-21
1.64872e-22
7.50786e-22
4.71956e-22
2.90266e-22
1.63479e-21
2.20067e-21
1.30616e-21
1.4221e-21
2.41773e-21
1.16759e-22
9.55207e-22
1.17172e-21
2.25111e-22
7.65902e-22
1.53107e-21
2.19934e-21
1.27736e-21
1.24394e-21
1.01505e-21
3.70369e-22
6.2632e-22
4.16131e-22
6.90875e-22
2.77527e-22
1.76172e-22
1.2678e-21
6.89481e-22
8.91832e-22
1.93946e-21
1.72928e-22
1.06725e-21
1.41365e-21
4.81695e-22
5.05425e-22
7.77548e-22
3.81772e-22
9.7683e-22
2.42926e-21
7.97968e-22
3.4533e-21
7.97216e-22
4.04284e-22
2.54445e-21
2.41765e-22
7.19315e-22
9.59643e-23
8.17799e-22
1.30948e-21
3.03504e-21
1.7935e-21
5.64459e-22
8.85924e-22
2.97589e-22
3.86879e-22
3.76944e-22
5.67133e-22
1.34348e-21
4.27623e-22
1.62614e-21
1.7325e-23
1.62251e-22
4.41326e-22
7.88891e-22
1.85769e-22
4.67493e-23
5.54209e-22
5.50905e-21
3.71126e-22
5.92836e-22
5.29148e-22
7.37838e-22
8.00125e-22
9.25028e-23
3.16531e-21
1.61988e-22
1.42205e-22
1.86676e-21
5.07286e-22
7.55348e-22
7.76655e-22
1.33168e-21
2.44005e-22
4.51951e-22
3.45155e-22
1.01699e-21
1.28952e-21
4.42351e-22
2.52896e-23
4.05571e-21
4.48616e-22
6.89929e-22
1.63678e-21
6.1184e-22
3.82147e-22
1.51003e-21
1.17678e-21
6.12593e-23
3.1719e-21
2.31045e-21
7.7614e-22
5.39432e-22
1.05852e-21
3.20703e-21
2.70725e-22
6.26334e-22
7.31482e-22
6.89864e-22
1.75255e-21
8.11836e-22
1.02956e-21
3.73347e-22
3.44607e-21
4.59235e-21
7.90337e-22
5.89053e-21
2.02979e-21
9.2767e-23
1.77252e-21
2.00648e-22
3.16122e-22
2.10174e-21
2.53587e-21
5.04579e-21
2.39527e-21
6.42473e-22
1.28925e-21
3.18265e-21
7.30613e-21
7.15491e-21
4.46672e-22
2.28119e-21
3.16134e-21
2.12263e-21
2.91387e-21
1.17467e-21
2.71093e-21
3.01675e-22
6.01148e-22
1.8587e-21
7.88139e-22
3.187e-22
1.53275e-21
6.85716e-22
6.7877e-22
1.57085e-21
1.59829e-21
3.20734e-22
8.61966e-22
1.1596e-21
2.21303e-22
1.84309e-21
1.19676e-21
1.18463e-21
1.74057e-21
6.9447e-22
5.99318e-23
4.8495e-21
1.5714e-21
9.71014e-22
1.50525e-21
8.80525e-23
9.30049e-22
1.5284e-21
1.27735e-21
3.19663e-21
1.0345e-21
1.01383e-21
2.74926e-22
2.63779e-21
1.4261e-21
1.00793e-21
9.63309e-22
1.13029e-21
4.06423e-22
6.43848e-22
1.28938e-21
1.18559e-22
1.32563e-21
1.5093e-22
7.1738e-22
1.63347e-22
4.88526e-22
1.08594e-21
8.47522e-21
4.02249e-22
2.29568e-21
9.81832e-22
2.90948e-21
2.88126e-21
1.5028e-21
3.68037e-22
3.41529e-23
5.78919e-22
2.02459e-21
2.95114e-21
1.49957e-21
8.51289e-22
4.01492e-21
4.03286e-21
6.51711e-22
1.77227e-21
3.22568e-22
5.32959e-22
1.07807e-23
3.4229e-22
4.3185e-21
3.04823e-22
9.28121e-22
1.21389e-21
9.13053e-22
1.6771e-21
8.0764e-22
7.70346e-22
1.26596e-22
2.29445e-22
1.60344e-21
5.2963e-21
3.22675e-21
2.83886e-22
7.82584e-22
4.29476e-21
1.89216e-21
2.48547e-23
4.04445e-22
1.08964e-21
2.31801e-22
1.40611e-22
1.13816e-21
1.30847e-21
1.99174e-21
1.529e-21
8.16339e-22
6.62289e-22
5.92419e-22
2.21698e-23
3.00408e-22
2.91818e-22
1.11949e-21
1.10388e-21
2.49908e-21
2.20939e-21
1.30804e-21
5.37416e-21
3.88412e-21
1.29145e-22
2.33629e-21
9.10388e-22
3.03986e-21
5.27423e-21
2.47884e-22
2.85315e-21
2.38131e-21
1.61408e-21
2.99956e-21
1.14141e-22
4.32485e-22
1.01347e-21
6.38258e-22
1.33568e-21
1.11756e-22
2.11418e-21
1.87268e-21
1.80325e-21
1.00291e-22
1.47625e-21
1.57523e-21
2.13973e-21
2.82533e-21
1.9205e-21
1.3235e-21
1.82673e-22
9.06786e-22
6.03694e-21
1.85555e-21
1.71197e-21
4.72777e-21
1.54153e-21
7.339e-21
4.1189e-22
7.70863e-22
5.48754e-22
5.57076e-22
7.29566e-22
2.41973e-21
1.85414e-21
1.83734e-21
2.22636e-21
2.87387e-21
5.91469e-22
1.56724e-21
3.46791e-22
8.08697e-22
1.41018e-21
1.35758e-22
6.90848e-23
1.97567e-22
2.04546e-22
5.84937e-21
2.19081e-21
5.19321e-21
3.03544e-22
1.56616e-22
7.03071e-22
5.24174e-23
5.59748e-22
2.18881e-22
1.51759e-21
6.41762e-22
3.7178e-21
2.27012e-21
7.99808e-22
1.9219e-23
3.04662e-23
6.99417e-22
2.86125e-21
1.65432e-21
2.72241e-22
1.4279e-21
2.27881e-22
3.8369e-22
3.74364e-21
1.34775e-21
4.19453e-22
1.07046e-21
2.61441e-21
2.75943e-22
6.1106e-22
2.55446e-22
2.9555e-21
3.56057e-22
7.73188e-22
8.09868e-22
3.47696e-22
4.40571e-22
5.14869e-22
1.09914e-21
1.77959e-21
8.22489e-22
9.09958e-22
4.35974e-23
8.01642e-22
2.23112e-22
3.49272e-22
6.03042e-23
3.81652e-22
3.91305e-22
1.68014e-21
1.71961e-21
1.60314e-21
2.25194e-21
2.6277e-21
2.57242e-21
3.57139e-22
3.41213e-22
2.25665e-21
1.50256e-21
1.49663e-21
1.24266e-21
2.33944e-22
1.63866e-21
1.0334e-22
4.18323e-22
7.63128e-22
1.50756e-21
2.89489e-22
2.13639e-22
9.58398e-23
1.5778e-21
9.06828e-22
4.55878e-21
1.92916e-21
1.76529e-22
1.61389e-22
3.14017e-22
1.0533e-22
2.10686e-21
2.82988e-22
1.65189e-21
7.15448e-22
1.28588e-21
2.23167e-21
1.64609e-21
7.02587e-22
1.376e-21
4.07124e-21
4.65522e-21
4.81982e-22
8.08893e-22
2.48479e-21
7.60971e-22
3.80768e-22
9.29782e-22
7.75237e-22
1.11385e-21
4.00585e-21
1.49165e-22
4.35203e-22
2.67958e-22
1.13253e-21
3.14055e-21
4.7953e-23
6.34323e-22
3.50356e-21
1.2766e-21
1.70219e-21
4.52464e-23
6.86726e-22
1.06338e-21
3.54371e-22
1.07607e-21
8.64858e-22
3.59183e-21
2.70582e-22
4.91323e-21
1.0854e-21
1.16695e-21
4.19052e-22
8.89721e-22
1.6106e-22
5.18351e-22
1.69873e-21
1.20251e-21
2.46407e-22
3.27778e-22
9.90523e-22
3.34516e-22
1.54514e-21
5.97479e-22
4.33894e-22
1.32325e-21
1.34985e-21
5.02401e-22
4.11549e-22
1.32937e-21
2.07868e-21
1.01854e-21
1.73568e-21
2.76545e-22
8.95431e-23
1.22353e-21
7.27717e-22
5.99334e-22
4.84667e-22
3.54066e-21
1.42848e-21
1.17925e-22
6.44221e-23
1.25985e-21
3.17391e-21
2.81734e-23
1.06811e-22
1.19451e-21
6.69931e-22
4.64561e-22
4.87335e-22
1.30167e-21
4.13024e-22
1.93587e-22
1.37968e-21
1.61459e-22
3.76264e-21
1.00378e-21
3.86046e-21
2.85491e-21
4.98412e-21
6.00627e-22
2.73396e-22
4.01195e-21
3.24307e-21
4.2475e-22
2.6082e-21
2.09592e-21
6.9183e-22
1.21533e-22
1.40419e-21
1.12066e-21
5.6703e-21
1.06261e-21
1.40768e-21
1.49818e-22
9.84087e-22
1.76081e-22
3.31841e-21
1.58723e-21
1.26522e-21
7.64521e-22
2.83969e-21
7.35242e-22
2.77675e-21
4.51303e-22
1.50311e-22
1.24358e-21
6.46958e-22
8.83282e-22
6.16516e-22
9.75133e-22
2.37413e-21
1.08138e-21
4.7184e-22
3.42888e-22
2.81539e-21
2.34637e-21
4.92791e-21
1.65872e-21
1.0231e-21
8.64061e-22
2.85122e-22
9.69457e-22
1.8818e-22
4.6454e-22
4.18329e-22
1.25576e-21
2.43453e-22
4.28059e-22
6.60429e-22
1.88499e-22
2.42142e-21
1.71637e-21
9.44223e-23
3.88076e-21
7.90343e-22
3.02536e-23
6.68019e-22
2.57376e-21
7.6278e-22
5.89715e-23
2.82608e-21
1.06316e-21
5.07271e-21
2.34152e-24
2.25109e-21
2.63589e-22
3.80604e-22
6.28198e-22
1.19254e-21
9.09483e-23
4.20326e-22
5.74221e-21
2.40623e-21
6.51414e-22
2.33946e-21
2.40583e-21
1.82782e-22
1.06291e-20
6.66754e-22
5.69491e-22
7.03221e-22
3.67844e-21
3.19334e-21
1.99109e-21
1.45472e-22
4.09165e-22
3.6721e-21
3.14214e-22
1.60994e-22
1.7065e-21
3.4042e-22
8.12503e-23
3.02784e-21
2.1221e-22
4.23234e-22
6.49707e-22
3.98258e-22
2.65829e-23
2.84318e-21
6.62898e-24
8.86885e-22
2.96192e-22
4.12981e-22
8.61959e-22
3.51879e-21
3.3036e-21
1.38862e-21
7.45899e-22
5.88144e-23
2.56447e-22
3.15003e-21
8.682e-23
1.48946e-21
2.3149e-21
8.87255e-23
5.32657e-22
8.59144e-22
1.72136e-21
1.06761e-21
1.76665e-21
3.99907e-21
1.98458e-21
8.9392e-22
5.10175e-22
3.84953e-21
2.01557e-21
4.74133e-23
6.76362e-22
6.27443e-22
2.78634e-21
9.19124e-22
3.7817e-22
3.45077e-21
1.44794e-21
1.16216e-21
5.13753e-22
2.28151e-21
1.89794e-21
2.2504e-21
9.7753e-22
1.30234e-21
2.76146e-21
4.99253e-21
4.70433e-22
3.42023e-21
2.96405e-21
1.37416e-21
4.37231e-21
3.80374e-23
2.38136e-22
3.10095e-21
2.05437e-22
3.50664e-22
2.63824e-22
6.66005e-21
1.53456e-21
8.03778e-22
6.43934e-22
2.23389e-21
2.4193e-21
1.07205e-21
2.89108e-21
7.22095e-22
6.50839e-22
3.7204e-21
1.30397e-21
4.52216e-22
2.06726e-21
3.29191e-22
1.02087e-21
5.49775e-22
3.48403e-21
1.67069e-21
8.69597e-22
1.49854e-21
2.9818e-21
1.40115e-21
2.07849e-21
2.25192e-23
3.78664e-22
1.18077e-21
3.37189e-21
1.34591e-22
4.79819e-23
9.28828e-22
6.8088e-22
4.86255e-22
1.29123e-22
4.04039e-23
1.59118e-21
2.33845e-21
4.25055e-22
5.72376e-21
1.30611e-21
2.621e-21
8.96205e-22
1.18556e-21
1.04573e-22
8.13066e-22
2.10162e-21
1.23434e-21
2.6442e-23
1.21798e-21
4.18439e-22
2.11132e-21
8.27218e-22
2.11869e-21
3.00481e-22
2.02743e-21
1.32836e-21
2.75207e-22
4.28023e-22
6.67004e-22
3.85842e-21
1.17728e-21
6.24815e-22
1.34514e-21
6.74422e-21
2.12171e-21
8.97575e-22
4.44882e-21
2.16516e-22
5.51319e-22
4.66751e-22
3.13383e-21
8.36206e-22
4.1687e-22
5.99086e-23
9.52851e-22
3.5432e-21
3.07458e-21
9.97139e-23
5.006e-21
8.40948e-24
1.69404e-21
9.45878e-22
9.4104e-22
1.36701e-21
2.0969e-23
3.68271e-21
5.97505e-23
2.09295e-21
8.15928e-22
8.63832e-22
1.32271e-21
3.11779e-21
2.55908e-21
9.59059e-23
1.79907e-21
9.51046e-23
1.10962e-21
1.41663e-21
1.19322e-21
3.38919e-22
1.07773e-21
1.81373e-21
1.99592e-21
8.26122e-22
7.08764e-22
2.84072e-23
5.91643e-22
1.23931e-21
4.74746e-22
3.9894e-22
7.10519e-22
1.22649e-21
1.3919e-21
5.07411e-22
2.28245e-21
2.9217e-21
1.31183e-22
2.61135e-21
2.43967e-22
3.87093e-23
8.08068e-21
2.92727e-21
1.53846e-21
8.763e-22
2.67186e-23
7.65535e-22
1.20237e-21
3.59619e-22
8.93658e-22
1.25843e-22
3.31075e-22
2.23832e-21
4.41203e-21
4.42412e-21
1.90711e-22
5.33014e-22
1.71736e-21
2.463e-22
3.96673e-22
7.38854e-21
3.95583e-22
6.81076e-22
5.69336e-23
1.25519e-21
9.44521e-22
1.87238e-21
4.70009e-21
7.05072e-22
2.31529e-22
1.13135e-21
5.58571e-21
2.97446e-21
1.07729e-21
3.49888e-22
1.34031e-21
1.51084e-21
1.691e-21
1.33344e-22
4.68377e-22
1.44119e-22
1.49079e-21
7.02018e-22
5.83294e-22
2.3622e-23
1.75546e-21
6.58975e-22
2.35673e-21
3.32624e-22
1.07999e-21
4.79319e-23
5.28183e-22
1.86145e-21
1.19586e-21
1.97646e-21
1.72437e-21
1.61531e-22
4.22707e-22
1.46058e-21
4.72046e-21
9.17882e-22
5.73703e-22
2.42654e-21
6.92117e-23
8.11143e-22
6.03447e-21
4.89014e-22
4.80452e-23
1.33319e-22
3.08442e-22
4.2651e-21
5.95004e-22
1.53317e-22
4.57609e-22
8.2941e-22
1.75482e-21
2.95921e-21
3.11225e-21
8.62211e-21
5.14407e-21
3.69037e-22
9.14822e-22
9.07936e-22
6.16161e-22
2.53524e-22
5.73519e-22
1.10914e-21
2.01298e-21
5.73031e-24
9.50502e-22
3.38094e-22
8.88629e-22
5.74686e-21
8.96126e-23
4.53357e-22
3.32753e-24
2.48179e-21
1.57068e-21
2.65557e-21
3.16522e-21
2.56049e-22
1.95384e-22
1.27556e-21
2.51413e-22
2.38527e-21
2.46432e-23
1.06942e-21
9.34391e-22
3.26472e-21
7.34476e-22
8.84743e-22
2.44143e-22
2.63188e-21
3.61197e-21
3.52096e-21
2.94482e-21
2.54039e-21
7.02611e-25
1.38494e-21
4.11845e-22
4.12118e-21
2.55191e-21
1.50903e-21
9.71744e-22
3.57462e-21
9.55357e-22
2.93618e-22
1.9736e-21
2.40573e-21
1.3564e-21
6.09705e-22
4.22324e-22
2.34753e-21
7.23574e-22
4.27068e-21
1.97254e-22
3.78918e-22
4.15934e-23
2.78805e-21
2.4059e-21
4.45802e-22
5.60461e-22
4.23476e-22
1.17135e-22
2.14783e-21
4.53004e-21
4.5959e-22
4.62612e-22
2.60007e-21
5.65174e-21
1.32433e-21
5.91e-21
1.06214e-21
1.48233e-21
1.0833e-21
1.66798e-22
1.83087e-21
1.42729e-21
2.2071e-21
4.7229e-22
8.80124e-22
1.85021e-21
1.29162e-21
5.17e-22
2.66127e-22
2.59456e-22
2.9745e-22
2.83858e-22
5.43677e-22
3.57799e-22
8.82367e-22
1.0237e-21
1.98457e-22
3.11515e-21
1.95728e-22
8.77767e-22
5.35071e-22
2.29152e-22
1.91216e-21
3.31189e-21
1.53694e-21
2.08178e-21
1.76605e-21
3.05722e-21
1.95163e-22
2.90515e-22
5.08123e-21
5.27575e-22
3.67958e-21
3.83039e-22
6.85165e-22
1.05203e-21
1.88065e-21
1.95648e-21
4.25741e-24
5.16717e-22
1.5189e-22
2.28042e-22
1.22792e-21
1.88351e-21
2.82148e-21
3.83408e-22
1.38794e-21
3.3544e-21
4.29103e-23
6.22585e-22
7.84717e-22
3.46553e-22
5.46981e-22
1.89341e-21
2.96246e-21
3.39119e-21
5.6641e-22
7.43751e-22
1.12026e-21
5.18669e-21
1.8066e-21
2.85339e-21
5.92113e-22
5.762e-23
1.81742e-21
5.24608e-22
1.23153e-21
2.5096e-23
2.16372e-22
7.11254e-21
9.08963e-22
4.11022e-23
9.51917e-22
7.494e-21
4.27006e-23
5.02609e-22
5.23368e-22
1.39201e-21
2.78394e-21
8.53417e-23
1.01683e-21
4.25745e-21
1.40526e-22
6.1468e-22
7.22783e-22
3.86627e-21
1.21744e-21
1.27749e-21
3.27934e-22
3.54723e-21
1.27271e-22
2.09466e-22
7.74977e-22
1.6399e-21
1.4226e-21
1.50842e-21
4.51316e-21
2.02913e-21