/*--------------------------------*- C++ -*----------------------------------*\
  =========                 |
  \\      /  F ield         | OpenFOAM: The Open Source CFD Toolbox
   \\    /   O peration     | Website:  https://openfoam.org
    \\  /    A nd           | Version:  7
     \\/     M anipulation  |
\*---------------------------------------------------------------------------*/
FoamFile
{
    version     2.0;
    format      ascii;
    class       labelField;
    location    "0.0125/lagrangian/dsmc";
    object      origId;
}
// * * * * * * * * * * * * * * * * * * * * * * * * * * * * * * * * * * * * * //


244311
(
0
5
13
18
19
20
24
29
34
35
40
41
42
44
45
48
50
55
57
61
65
66
67
69
71
74
75
76
78
82
83
85
86
87
88
90
93
94
95
96
97
98
99
100
101
103
105
106
109
110
113
118
122
123
128
129
131
133
135
139
143
146
147
148
149
150
151
152
154
156
160
161
164
165
168
171
172
174
175
176
178
185
186
188
189
191
192
195
201
207
212
219
220
223
224
226
230
234
235
237
238
239
240
241
242
244
247
249
252
255
256
257
258
260
263
265
266
267
270
274
277
281
283
285
287
291
292
294
301
304
305
306
307
313
314
315
316
319
321
324
325
331
334
335
337
338
339
344
347
348
351
353
354
357
359
360
365
366
372
373
380
381
382
385
386
388
391
392
393
396
404
405
406
408
410
414
430
434
440
441
442
444
446
447
448
450
453
456
457
459
462
464
465
466
468
471
472
473
474
476
479
483
484
486
488
500
504
506
507
508
515
517
519
522
525
526
531
534
539
540
542
546
549
550
555
564
566
567
569
570
572
576
577
579
580
582
587
588
590
592
593
594
596
599
609
613
614
617
618
622
625
629
632
635
636
637
640
644
646
647
654
656
657
662
663
674
676
679
681
683
684
685
697
698
701
703
706
708
710
711
713
714
715
716
717
719
725
726
729
734
735
737
740
741
746
747
748
750
752
753
757
763
764
765
767
772
773
775
777
780
781
782
787
788
790
795
796
797
798
799
804
806
808
813
814
817
818
822
823
824
825
827
828
829
835
836
843
845
851
853
857
858
859
863
865
866
868
871
875
878
879
884
887
889
891
893
894
895
902
904
907
910
915
916
920
923
924
926
927
929
932
934
935
937
940
947
948
953
958
960
961
964
966
969
970
971
975
979
984
985
996
998
1001
1005
1006
1009
1015
1017
1021
1023
1026
1029
1031
1032
1033
1034
1037
1038
1042
1046
1049
1050
1052
1054
1058
1059
1061
1062
1063
1065
1066
1071
1075
1078
1083
1084
1086
1087
1090
1091
1092
1099
1106
1107
1113
1114
1118
1121
1122
1123
1127
1128
1131
1133
1135
1137
1143
1146
1148
1151
1153
1155
1159
1161
1170
1171
1173
1175
1180
1181
1187
1191
1195
1196
1197
1199
1200
1202
1203
1205
1206
1208
1209
1210
1213
1214
1215
1216
1217
1219
1221
1223
1225
1227
1230
1231
1233
1235
1237
1238
1242
1244
1246
1250
1254
1256
1258
1259
1260
1263
1264
1265
1266
1270
1272
1274
1278
1279
1283
1286
1287
1288
1289
1290
1295
1297
1300
1301
1302
1303
1306
1311
1321
1322
1324
1325
1330
1332
1334
1335
1338
1339
1340
1341
1344
1345
1347
1348
1349
1351
1355
1365
1366
1372
1373
1375
1379
1380
1381
1382
1383
1389
1393
1396
1400
1401
1403
1404
1406
1410
1411
1413
1417
1420
1422
1424
1428
1432
1434
1436
1437
1442
1448
1450
1451
1453
1454
1455
1459
1461
1463
1465
1466
1467
1470
1472
1473
1474
1481
1484
1487
1489
1490
1491
1492
1493
1498
1499
1504
1505
1507
1509
1510
1513
1514
1517
1520
1530
1536
1544
1549
1550
1551
1552
1553
1554
1557
1558
1562
1568
1571
1572
1574
1583
1588
1595
1599
1604
1605
1606
1608
1609
1612
1616
1617
1620
1621
1624
1625
1628
1629
1638
1642
1644
1646
1647
1650
1653
1654
1657
1662
1665
1666
1667
1668
1669
1671
1672
1679
1680
1683
1684
1686
1688
1689
1690
1697
1699
1704
1705
1707
1708
1711
1712
1718
1719
1722
1724
1726
1734
1736
1737
1739
1740
1744
1745
1746
1747
1748
1749
1751
1752
1753
1754
1755
1759
1762
1764
1766
1767
1772
1775
1776
1777
1778
1779
1780
1783
1784
1786
1787
1790
1793
1794
1797
1798
1808
1809
1816
1818
1821
1822
1826
1829
1833
1836
1837
1840
1841
1845
1849
1850
1851
1863
1868
1869
1871
1872
1875
1877
1879
1880
1885
1889
1890
1891
1898
1902
1905
1906
1909
1911
1912
1915
1917
1919
1921
1922
1931
1933
1934
1935
1938
1945
1946
1951
1954
1955
1961
1971
1972
1973
1976
1978
1985
1987
1992
1993
1997
1998
1999
2000
2001
2002
2003
2006
2008
2009
2010
2018
2019
2024
2025
2028
2029
2031
2032
2034
2035
2036
2037
2038
2039
2046
2051
2052
2053
2056
2058
2059
2061
2062
2066
2069
2075
2076
2078
2081
2083
2084
2087
2088
2091
2093
2100
2102
2104
2105
2106
2107
2109
2110
2113
2115
2117
2125
2126
2127
2129
2135
2138
2142
2143
2144
2146
2147
2149
2154
2155
2156
2159
2160
2161
2162
2170
2172
2173
2176
2177
2178
2180
2183
2184
2189
2190
2196
2197
2200
2201
2202
2207
2208
2209
2211
2215
2216
2217
2222
2224
2225
2229
2233
2236
2237
2240
2241
2242
2244
2245
2247
2250
2254
2257
2260
2261
2263
2265
2272
2274
2275
2276
2279
2280
2282
2285
2286
2291
2292
2301
2302
2304
2307
2309
2312
2313
2314
2319
2320
2323
2328
2331
2332
2333
2336
2343
2345
2346
2347
2350
2351
2352
2355
2358
2360
2365
2366
2371
2373
2375
2377
2380
2383
2386
2389
2390
2391
2392
2395
2397
2399
2402
2403
2405
2407
2411
2412
2416
2417
2419
2423
2424
2425
2428
2431
2433
2445
2449
2451
2453
2454
2461
2464
2465
2466
2467
2472
2476
2480
2481
2483
2486
2488
2491
2493
2495
2496
2503
2505
2507
2513
2518
2519
2520
2521
2525
2526
2528
2531
2541
2544
2547
2551
2555
2557
2558
2560
2562
2564
2567
2569
2577
2582
2583
2588
2597
2600
2602
2605
2609
2614
2616
2617
2620
2622
2626
2629
2631
2632
2633
2635
2636
2639
2640
2641
2642
2645
2647
2651
2653
2654
2657
2659
2664
2665
2671
2675
2679
2680
2683
2684
2685
2687
2688
2693
2694
2695
2696
2697
2699
2703
2704
2705
2707
2718
2721
2724
2727
2728
2729
2731
2732
2738
2744
2745
2747
2749
2750
2751
2752
2754
2756
2761
2770
2771
2773
2779
2782
2784
2787
2789
2791
2792
2794
2795
2796
2797
2798
2799
2800
2805
2813
2821
2823
2824
2826
2829
2831
2833
2837
2838
2839
2841
2843
2846
2847
2849
2852
2853
2858
2860
2863
2864
2870
2874
2875
2879
2885
2888
2892
2893
2894
2896
2898
2899
2909
2912
2917
2918
2919
2921
2922
2925
2937
2938
2940
2941
2943
2944
2946
2947
2949
2950
2954
2961
2967
2970
2976
2977
2978
2983
2986
2988
2989
2991
2993
2997
3000
3001
3004
3005
3006
3008
3009
3010
3019
3020
3024
3029
3030
3031
3034
3036
3047
3051
3054
3055
3058
3060
3063
3064
3065
3068
3070
3071
3073
3075
3077
3078
3079
3082
3084
3086
3088
3089
3090
3097
3107
3113
3115
3119
3122
3125
3126
3137
3141
3143
3148
3149
3150
3153
3155
3157
3167
3169
3171
3172
3175
3176
3179
3182
3183
3184
3185
3186
3188
3202
3205
3206
3211
3212
3213
3215
3218
3219
3225
3226
3227
3230
3231
3232
3235
3243
3245
3246
3249
3250
3255
3265
3268
3269
3270
3271
3273
3274
3275
3276
3282
3286
3288
3289
3291
3292
3293
3295
3296
3299
3300
3302
3304
3308
3309
3311
3314
3315
3321
3323
3326
3327
3328
3329
3331
3334
3337
3341
3343
3346
3347
3348
3350
3355
3357
3360
3361
3364
3369
3371
3375
3376
3380
3381
3388
3389
3391
3395
3396
3397
3404
3406
3411
3412
3414
3418
3420
3421
3422
3424
3432
3433
3436
3439
3445
3446
3448
3452
3453
3454
3455
3457
3461
3469
3477
3480
3491
3493
3495
3498
3499
3503
3505
3513
3517
3518
3523
3531
3535
3536
3541
3542
3543
3544
3545
3547
3548
3553
3556
3559
3560
3563
3564
3565
3566
3567
3571
3572
3573
3574
3579
3584
3586
3587
3590
3591
3594
3596
3599
3601
3607
3609
3611
3613
3616
3617
3620
3625
3630
3632
3633
3636
3637
3638
3639
3641
3645
3646
3648
3649
3650
3653
3658
3666
3670
3676
3681
3683
3685
3686
3688
3691
3692
3693
3698
3699
3701
3702
3704
3707
3708
3709
3710
3716
3720
3725
3728
3729
3730
3732
3737
3738
3741
3751
3752
3757
3764
3766
3767
3768
3771
3773
3774
3776
3777
3778
3782
3785
3792
3797
3806
3808
3819
3820
3822
3824
3825
3826
3828
3832
3836
3838
3839
3840
3841
3842
3847
3848
3849
3851
3852
3853
3858
3862
3864
3869
3873
3874
3876
3877
3880
3885
3886
3888
3894
3895
3899
3902
3903
3908
3910
3912
3915
3918
3920
3929
3931
3934
3936
3938
3939
3940
3942
3944
3948
3950
3953
3954
3957
3958
3959
3960
3972
3976
3978
3981
3984
3986
3987
3991
3994
3995
3998
4002
4008
4009
4010
4012
4013
4016
4017
4018
4019
4020
4023
4025
4026
4029
4030
4031
4032
4033
4034
4035
4036
4037
4045
4048
4056
4057
4061
4064
4065
4066
4067
4069
4072
4075
4078
4079
4080
4081
4088
4089
4093
4094
4095
4097
4098
4100
4101
4102
4103
4104
4106
4107
4108
4114
4121
4123
4128
4132
4135
4137
4142
4147
4152
4156
4158
4159
4164
4165
4173
4177
4178
4179
4180
4183
4185
4188
4192
4193
4194
4198
4199
4200
4204
4210
4213
4214
4217
4221
4223
4225
4227
4230
4233
4235
4237
4242
4245
4247
4248
4252
4254
4258
4261
4269
4271
4273
4281
4284
4285
4287
4290
4291
4292
4295
4296
4300
4303
4304
4306
4308
4309
4310
4313
4320
4321
4325
4327
4328
4329
4331
4332
4334
4341
4345
4347
4348
4349
4352
4353
4355
4356
4369
4372
4377
4382
4396
4400
4406
4416
4417
4418
4419
4420
4421
4433
4434
4438
4446
4448
4450
4461
4462
4467
4472
4474
4476
4478
4481
4483
4488
4489
4492
4497
4499
4503
4507
4508
4511
4512
4517
4520
4523
4527
4529
4530
4534
4536
4539
4540
4543
4551
4553
4556
4561
4565
4567
4568
4570
4574
4575
4576
4577
4579
4584
4590
4595
4596
4600
4601
4603
4604
4605
4606
4616
4621
4624
4628
4631
4632
4636
4638
4641
4642
4645
4649
4652
4658
4659
4660
4661
4663
4666
4667
4671
4675
4677
4678
4682
4698
4699
4702
4707
4710
4711
4715
4719
4721
4722
4723
4726
4727
4729
4734
4735
4738
4739
4740
4746
4747
4749
4751
4752
4754
4756
4757
4758
4762
4764
4765
4767
4776
4778
4779
4782
4787
4788
4789
4790
4791
4796
4798
4799
4801
4806
4811
4812
4813
4817
4818
4821
4825
4826
4828
4829
4833
4835
4836
4842
4845
4847
4848
4849
4850
4851
4852
4857
4861
4862
4863
4864
4866
4870
4871
4872
4876
4879
4880
4884
4887
4889
4892
4893
4896
4897
4902
4903
4905
4907
4913
4915
4916
4920
4921
4923
4924
4925
4926
4927
4928
4930
4936
4938
4941
4943
4948
4951
4961
4963
4966
4967
4968
4970
4974
4981
4987
4988
4989
4990
4992
4993
4996
4999
5004
5005
5006
5007
5008
5009
5011
5012
5013
5018
5021
5022
5024
5025
5026
5027
5030
5031
5033
5036
5039
5040
5044
5046
5048
5054
5055
5056
5057
5062
5065
5066
5068
5071
5074
5076
5077
5078
5081
5083
5087
5089
5090
5091
5094
5096
5097
5098
5103
5104
5105
5109
5114
5120
5123
5126
5129
5132
5133
5134
5141
5144
5148
5153
5156
5163
5169
5172
5175
5177
5179
5181
5183
5186
5187
5191
5194
5196
5200
5201
5207
5210
5211
5213
5218
5219
5220
5223
5226
5230
5235
5236
5238
5245
5249
5250
5255
5267
5271
5273
5277
5282
5287
5289
5293
5294
5296
5299
5300
5301
5303
5306
5311
5312
5314
5315
5317
5321
5324
5325
5327
5328
5330
5332
5337
5342
5350
5352
5354
5355
5360
5362
5363
5364
5365
5368
5372
5373
5374
5380
5383
5386
5387
5388
5390
5396
5401
5403
5404
5407
5411
5412
5416
5423
5425
5427
5430
5432
5433
5441
5446
5447
5449
5451
5452
5457
5458
5460
5461
5462
5465
5468
5469
5470
5471
5474
5475
5476
5478
5483
5488
5491
5498
5502
5505
5506
5508
5510
5513
5514
5517
5519
5521
5527
5528
5530
5535
5541
5544
5546
5547
5548
5552
5560
5565
5567
5569
5570
5574
5576
5578
5580
5585
5587
5592
5600
5602
5606
5608
5609
5614
5615
5621
5628
5629
5633
5639
5643
5645
5647
5648
5651
5653
5667
5669
5670
5671
5673
5674
5676
5679
5682
5684
5689
5692
5695
5696
5697
5703
5704
5706
5710
5714
5716
5718
5720
5726
5727
5730
5731
5733
5741
5748
5749
5754
5755
5756
5757
5759
5769
5772
5778
5779
5781
5782
5786
5788
5789
5790
5791
5794
5795
5798
5801
5802
5805
5806
5807
5808
5816
5818
5819
5821
5823
5825
5826
5829
5831
5834
5839
5844
5845
5846
5848
5850
5851
5860
5861
5862
5864
5867
5868
5870
5872
5876
5877
5878
5879
5880
5882
5884
5888
5897
5900
5902
5906
5911
5914
5915
5917
5918
5919
5921
5923
5924
5928
5933
5935
5937
5940
5941
5944
5945
5947
5949
5951
5959
5966
5973
5976
5977
5983
5986
5987
5993
5995
5996
6001
6004
6006
6009
6014
6015
6017
6020
6022
6025
6026
6027
6031
6032
6034
6035
6037
6045
6050
6052
6053
6054
6055
6056
6057
6060
6064
6067
6070
6071
6077
6086
6087
6088
6093
6095
6107
6108
6109
6113
6114
6115
6118
6120
6126
6129
6131
6133
6135
6136
6139
6143
6144
6148
6149
6153
6155
6156
6158
6159
6160
6162
6163
6168
6169
6175
6176
6186
6187
6188
6191
6193
6195
6198
6202
6203
6205
6207
6208
6209
6212
6214
6217
6219
6221
6222
6231
6235
6245
6246
6247
6250
6252
6253
6255
6257
6260
6264
6268
6271
6272
6274
6276
6280
6282
6283
6284
6285
6286
6289
6291
6297
6303
6306
6309
6314
6319
6320
6321
6325
6326
6330
6334
6335
6338
6342
6346
6347
6350
6351
6355
6356
6358
6359
6360
6362
6364
6366
6372
6373
6376
6377
6379
6380
6382
6383
6384
6388
6396
6398
6399
6400
6405
6409
6413
6414
6417
6418
6421
6422
6423
6428
6431
6432
6433
6434
6437
6438
6445
6449
6452
6459
6463
6464
6466
6467
6468
6469
6471
6473
6474
6476
6477
6478
6479
6484
6485
6486
6490
6493
6494
6498
6499
6500
6502
6503
6505
6506
6507
6508
6513
6514
6515
6519
6522
6524
6526
6528
6529
6539
6542
6544
6546
6548
6550
6552
6555
6557
6563
6566
6567
6570
6571
6579
6582
6583
6588
6589
6591
6594
6595
6607
6608
6609
6612
6613
6616
6618
6620
6625
6626
6628
6629
6632
6634
6640
6641
6644
6647
6650
6651
6652
6658
6668
6670
6671
6672
6674
6678
6680
6683
6685
6687
6689
6693
6695
6696
6699
6701
6704
6707
6710
6712
6713
6714
6717
6718
6722
6724
6725
6727
6728
6731
6734
6739
6741
6743
6748
6749
6750
6754
6755
6756
6757
6758
6759
6760
6761
6763
6765
6772
6774
6782
6783
6784
6787
6793
6800
6806
6807
6809
6810
6812
6814
6818
6822
6823
6824
6825
6833
6835
6839
6841
6842
6844
6848
6849
6853
6855
6857
6858
6859
6864
6866
6867
6868
6870
6871
6879
6881
6882
6888
6892
6896
6898
6899
6904
6905
6907
6909
6910
6916
6917
6919
6920
6924
6929
6931
6932
6935
6937
6939
6943
6947
6949
6955
6957
6958
6967
6971
6976
6978
6980
6981
6983
6989
6997
6998
6999
7001
7003
7006
7008
7009
7010
7012
7014
7018
7020
7021
7023
7027
7029
7034
7038
7039
7042
7044
7046
7047
7050
7055
7056
7059
7060
7061
7066
7067
7068
7069
7079
7086
7088
7089
7090
7091
7097
7099
7101
7103
7105
7106
7110
7111
7112
7113
7114
7115
7119
7121
7122
7124
7137
7139
7140
7144
7145
7149
7154
7155
7156
7157
7159
7160
7162
7163
7167
7171
7173
7178
7180
7186
7190
7191
7196
7197
7198
7199
7201
7202
7203
7204
7206
7209
7217
7224
7226
7228
7233
7236
7238
7239
7242
7243
7248
7249
7250
7251
7252
7255
7261
7262
7265
7266
7268
7271
7279
7280
7282
7283
7284
7287
7289
7293
7294
7295
7296
7297
7301
7305
7306
7310
7311
7312
7319
7320
7323
7324
7325
7326
7331
7333
7336
7339
7340
7341
7343
7344
7345
7350
7353
7355
7356
7359
7364
7367
7369
7372
7375
7377
7379
7380
7384
7385
7387
7388
7390
7391
7392
7393
7401
7405
7407
7408
7410
7412
7413
7415
7416
7418
7419
7427
7432
7439
7442
7443
7447
7448
7450
7451
7452
7458
7459
7460
7461
7462
7463
7464
7468
7470
7478
7480
7482
7485
7486
7492
7494
7496
7498
7501
7502
7503
7504
7506
7507
7510
7512
7513
7514
7519
7521
7524
7525
7526
7527
7531
7532
7533
7538
7541
7546
7548
7551
7552
7554
7555
7561
7565
7570
7571
7580
7583
7585
7586
7593
7594
7600
7603
7604
7606
7607
7608
7611
7612
7613
7616
7617
7619
7623
7627
7630
7637
7640
7641
7645
7649
7650
7652
7653
7658
7660
7661
7663
7665
7666
7670
7672
7675
7678
7679
7683
7684
7685
7691
7698
7701
7702
7704
7705
7706
7707
7709
7712
7714
7722
7725
7726
7727
7728
7729
7731
7735
7738
7743
7744
7748
7749
7750
7751
7758
7764
7765
7768
7771
7774
7775
7776
7777
7780
7786
7787
7792
7798
7799
7802
7803
7804
7805
7806
7807
7808
7809
7810
7812
7813
7817
7820
7821
7823
7824
7825
7827
7829
7830
7832
7836
7838
7839
7842
7845
7846
7849
7854
7858
7862
7863
7866
7869
7877
7880
7883
7888
7889
7890
7896
7904
7905
7907
7909
7911
7917
7918
7919
7920
7921
7922
7924
7925
7928
7930
7932
7944
7945
7946
7950
7953
7954
7957
7958
7961
7962
7964
7965
7966
7970
7971
7972
7973
7975
7977
7982
7983
7984
7996
7998
8002
8004
8005
8006
8007
8008
8009
8011
8012
8015
8018
8023
8028
8031
8032
8034
8036
8038
8039
8040
8044
8045
8048
8050
8061
8062
8063
8066
8070
8072
8073
8075
8083
8093
8094
8099
8103
8105
8106
8113
8118
8121
8126
8128
8131
8132
8136
8137
8150
8152
8153
8156
8159
8164
8165
8167
8171
8172
8177
8181
8186
8190
8193
8194
8196
8197
8199
8202
8203
8205
8209
8211
8213
8216
8218
8222
8223
8227
8231
8236
8237
8238
8240
8241
8243
8248
8252
8253
8254
8257
8258
8261
8264
8267
8270
8274
8281
8282
8286
8288
8292
8295
8300
8304
8305
8308
8309
8311
8313
8317
8322
8326
8327
8329
8336
8340
8342
8350
8352
8356
8361
8362
8363
8365
8366
8368
8370
8373
8376
8377
8378
8384
8385
8386
8388
8392
8393
8403
8404
8410
8411
8415
8416
8417
8418
8422
8424
8430
8433
8437
8438
8443
8444
8445
8446
8447
8448
8454
8461
8463
8466
8471
8474
8475
8479
8481
8484
8485
8488
8489
8490
8491
8497
8502
8509
8515
8516
8525
8528
8531
8532
8537
8538
8539
8543
8545
8549
8550
8551
8552
8557
8558
8560
8564
8565
8566
8567
8568
8569
8573
8574
8577
8580
8587
8590
8592
8596
8597
8598
8599
8605
8606
8607
8609
8611
8612
8614
8615
8618
8621
8623
8626
8627
8631
8632
8633
8637
8639
8641
8642
8644
8646
8648
8649
8651
8653
8655
8656
8657
8663
8664
8665
8668
8674
8675
8676
8678
8686
8687
8688
8690
8693
8696
8698
8699
8701
8702
8703
8706
8709
8718
8719
8722
8723
8727
8729
8730
8731
8732
8733
8736
8737
8738
8741
8744
8745
8747
8748
8749
8754
8755
8756
8757
8758
8759
8765
8773
8774
8784
8786
8787
8792
8795
8796
8798
8799
8800
8804
8805
8810
8813
8814
8816
8818
8819
8820
8821
8822
8831
8833
8836
8838
8839
8840
8842
8844
8846
8849
8850
8851
8853
8855
8858
8859
8860
8862
8863
8865
8866
8870
8871
8872
8875
8877
8880
8882
8885
8886
8889
8891
8895
8897
8898
8899
8901
8905
8911
8915
8917
8918
8920
8923
8924
8925
8928
8936
8939
8942
8944
8950
8953
8955
8956
8958
8959
8963
8964
8965
8967
8969
8971
8972
8980
8984
8988
8989
8991
8993
8995
8996
8997
8998
9002
9004
9005
9007
9012
9014
9016
9018
9019
9020
9023
9024
9029
9030
9031
9035
9036
9039
9044
9046
9047
9049
9055
9056
9059
9060
9062
9063
9066
9067
9068
9069
9070
9074
9075
9076
9077
9078
9080
9083
9085
9086
9087
9089
9091
9099
9100
9101
9103
9109
9111
9112
9116
9117
9118
9121
9123
9125
9128
9131
9135
9136
9138
9139
9145
9146
9155
9157
9158
9159
9161
9163
9172
9174
9179
9180
9181
9186
9189
9191
9192
9193
9196
9202
9203
9204
9205
9206
9207
9208
9209
9210
9211
9212
9214
9217
9219
9221
9222
9226
9229
9232
9240
9242
9246
9249
9251
9254
9257
9262
9263
9265
9267
9269
9271
9276
9280
9281
9282
9283
9286
9287
9289
9290
9296
9298
9301
9302
9303
9306
9308
9310
9311
9315
9316
9319
9320
9325
9327
9330
9333
9338
9339
9347
9348
9351
9354
9358
9362
9368
9369
9371
9372
9382
9383
9387
9389
9391
9396
9398
9399
9402
9403
9407
9411
9412
9413
9414
9417
9418
9420
9424
9425
9429
9430
9431
9433
9438
9440
9449
9451
9452
9453
9457
9461
9463
9464
9465
9466
9468
9472
9475
9480
9483
9485
9488
9490
9493
9494
9495
9501
9503
9507
9510
9511
9513
9514
9516
9519
9522
9523
9525
9527
9529
9530
9531
9536
9540
9542
9543
9545
9550
9553
9556
9557
9560
9566
9567
9568
9569
9571
9572
9574
9575
9576
9577
9578
9584
9586
9591
9594
9597
9601
9603
9606
9609
9612
9616
9617
9620
9625
9626
9627
9629
9631
9638
9641
9642
9644
9649
9654
9656
9657
9660
9662
9664
9667
9671
9676
9677
9678
9680
9685
9688
9689
9692
9693
9694
9696
9698
9699
9700
9702
9703
9709
9710
9711
9715
9716
9718
9722
9725
9734
9735
9741
9742
9747
9750
9751
9753
9755
9756
9759
9761
9762
9763
9764
9765
9766
9770
9776
9779
9783
9794
9796
9797
9799
9800
9801
9802
9805
9807
9809
9810
9818
9819
9821
9828
9829
9831
9832
9833
9838
9839
9844
9848
9849
9855
9864
9867
9868
9873
9874
9875
9877
9878
9879
9882
9883
9891
9894
9895
9898
9900
9901
9902
9903
9904
9905
9908
9910
9911
9918
9920
9924
9925
9926
9930
9934
9935
9936
9938
9942
9947
9949
9950
9952
9953
9957
9958
9973
9977
9979
9980
9983
9984
9986
9989
9994
9996
9999
10000
10001
10004
10006
10007
10010
10012
10013
10020
10021
10025
10027
10028
10032
10034
10037
10038
10039
10040
10041
10045
10046
10050
10052
10054
10055
10056
10057
10058
10059
10060
10061
10063
10064
10067
10069
10070
10073
10074
10075
10077
10078
10089
10093
10102
10105
10111
10119
10121
10122
10123
10126
10131
10132
10142
10150
10151
10153
10155
10156
10159
10161
10162
10164
10165
10172
10173
10174
10176
10177
10180
10181
10183
10185
10186
10188
10189
10190
10192
10194
10196
10202
10204
10206
10209
10210
10212
10213
10217
10218
10221
10222
10229
10231
10238
10239
10240
10244
10249
10255
10256
10257
10258
10259
10264
10266
10267
10273
10275
10276
10278
10279
10280
10288
10290
10295
10304
10307
10308
10309
10310
10312
10314
10317
10318
10321
10322
10326
10327
10328
10334
10335
10341
10342
10343
10344
10347
10350
10353
10357
10368
10369
10373
10374
10377
10380
10383
10384
10385
10387
10389
10391
10393
10394
10395
10396
10401
10402
10403
10404
10410
10413
10416
10417
10421
10422
10424
10428
10430
10431
10433
10439
10440
10444
10448
10449
10450
10451
10453
10454
10456
10458
10459
10460
10461
10463
10464
10467
10468
10475
10476
10479
10480
10482
10483
10484
10487
10488
10490
10497
10500
10508
10510
10511
10515
10518
10519
10522
10523
10524
10525
10526
10529
10531
10534
10535
10537
10538
10540
10541
10542
10545
10547
10551
10555
10556
10558
10559
10563
10564
10570
10574
10577
10579
10580
10585
10588
10589
10591
10592
10595
10597
10600
10602
10603
10605
10606
10607
10608
10610
10611
10614
10617
10621
10624
10628
10630
10631
10633
10634
10638
10640
10644
10646
10647
10652
10653
10654
10655
10656
10657
10659
10660
10661
10671
10672
10674
10675
10676
10677
10681
10682
10683
10684
10686
10687
10688
10692
10693
10694
10695
10696
10699
10701
10702
10704
10705
10707
10708
10711
10712
10714
10716
10717
10718
10720
10723
10725
10727
10728
10731
10733
10734
10744
10746
10747
10755
10756
10760
10763
10770
10771
10781
10784
10786
10788
10791
10794
10795
10796
10798
10802
10805
10812
10814
10818
10820
10821
10822
10823
10832
10833
10836
10837
10838
10839
10842
10844
10846
10851
10854
10862
10866
10867
10871
10875
10879
10882
10883
10885
10891
10895
10896
10898
10901
10903
10908
10910
10913
10916
10917
10925
10930
10931
10934
10935
10937
10940
10942
10944
10949
10961
10965
10966
10970
10972
10978
10980
10982
10983
10985
10988
10989
10991
10994
10997
11001
11002
11003
11007
11008
11013
11016
11017
11019
11021
11022
11026
11028
11029
11030
11032
11033
11034
11038
11043
11044
11047
11051
11053
11056
11057
11058
11059
11060
11062
11064
11066
11067
11068
11070
11073
11075
11077
11079
11082
11085
11087
11088
11089
11090
11093
11099
11100
11101
11105
11106
11109
11112
11114
11115
11117
11119
11120
11124
11128
11131
11132
11134
11135
11139
11140
11141
11143
11145
11147
11149
11150
11152
11156
11162
11163
11166
11168
11171
11172
11173
11175
11176
11177
11183
11184
11186
11189
11197
11198
11199
11200
11202
11203
11204
11205
11207
11209
11210
11213
11214
11215
11216
11217
11224
11227
11228
11230
11231
11233
11235
11236
11237
11239
11240
11242
11244
11250
11251
11252
11257
11261
11266
11268
11269
11270
11275
11276
11278
11282
11286
11288
11292
11294
11296
11302
11306
11308
11309
11314
11317
11319
11327
11328
11331
11335
11343
11344
11346
11348
11349
11355
11357
11359
11360
11362
11364
11366
11369
11372
11374
11377
11381
11382
11384
11386
11389
11390
11391
11393
11397
11398
11401
11403
11404
11405
11409
11411
11417
11420
11421
11430
11431
11433
11440
11441
11448
11449
11455
11456
11461
11464
11466
11467
11468
11470
11471
11474
11475
11476
11483
11485
11487
11488
11489
11491
11496
11497
11500
11502
11507
11509
11511
11512
11513
11514
11518
11526
11528
11531
11536
11537
11540
11541
11543
11544
11549
11551
11558
11560
11564
11565
11567
11568
11571
11572
11573
11574
11579
11580
11583
11587
11588
11590
11591
11595
11598
11603
11604
11605
11608
11611
11614
11617
11624
11625
11629
11631
11635
11639
11644
11646
11648
11650
11656
11657
11659
11661
11666
11671
11672
11677
11681
11683
11687
11688
11691
11692
11693
11698
11703
11704
11708
11710
11712
11717
11718
11721
11722
11724
11727
11728
11730
11734
11735
11736
11738
11739
11741
11746
11754
11755
11756
11759
11760
11762
11764
11765
11771
11772
11775
11779
11780
11784
11787
11788
11793
11794
11797
11802
11805
11806
11808
11813
11817
11820
11830
11840
11842
11846
11847
11858
11863
11869
11872
11881
11886
11888
11897
11898
11904
11905
11907
11909
11916
11917
11919
11921
11923
11926
11927
11930
11935
11938
11942
11944
11946
11947
11950
11953
11954
11956
11961
11962
11963
11964
11966
11968
11970
11971
11972
11975
11977
11981
11982
11983
11985
11986
11988
11989
11991
11995
11997
11999
12002
12008
12017
12018
12019
12025
12029
12030
12035
12040
12041
12047
12049
12051
12054
12055
12058
12060
12063
12066
12068
12071
12074
12077
12079
12088
12093
12097
12098
12099
12101
12105
12106
12108
12112
12119
12122
12124
12128
12131
12132
12137
12139
12140
12142
12144
12147
12151
12157
12159
12161
12163
12173
12175
12177
12180
12181
12185
12187
12192
12197
12199
12201
12206
12207
12209
12212
12213
12222
12223
12224
12226
12228
12231
12232
12235
12236
12239
12244
12247
12249
12253
12254
12257
12263
12267
12269
12270
12272
12273
12274
12275
12276
12277
12278
12282
12283
12284
12291
12294
12300
12301
12308
12311
12312
12313
12315
12321
12323
12325
12329
12333
12335
12337
12341
12343
12345
12349
12351
12356
12357
12358
12362
12366
12367
12372
12374
12375
12377
12379
12385
12387
12389
12390
12393
12396
12397
12400
12404
12405
12407
12408
12410
12412
12416
12420
12421
12423
12427
12434
12436
12440
12444
12447
12450
12451
12452
12453
12454
12459
12460
12465
12466
12467
12473
12474
12476
12477
12478
12481
12483
12484
12489
12491
12492
12493
12494
12495
12496
12500
12502
12505
12508
12509
12511
12512
12514
12515
12519
12521
12522
12523
12524
12527
12528
12533
12536
12540
12542
12544
12547
12548
12551
12553
12554
12558
12560
12561
12566
12568
12569
12575
12577
12582
12584
12588
12592
12593
12594
12597
12598
12600
12604
12607
12612
12613
12616
12617
12623
12628
12631
12635
12636
12639
12641
12642
12646
12647
12649
12652
12653
12655
12657
12658
12660
12661
12663
12664
12665
12667
12668
12674
12676
12678
12680
12681
12685
12687
12692
12695
12697
12701
12702
12706
12709
12710
12711
12713
12714
12716
12718
12719
12728
12730
12731
12732
12734
12742
12746
12747
12748
12751
12752
12762
12764
12765
12766
12767
12769
12771
12775
12776
12777
12778
12780
12784
12790
12791
12793
12795
12798
12801
12802
12804
12805
12808
12810
12812
12816
12824
12826
12830
12831
12833
12835
12836
12842
12843
12845
12849
12852
12866
12867
12868
12875
12876
12877
12878
12879
12885
12887
12891
12892
12897
12899
12900
12903
12904
12905
12907
12910
12911
12912
12913
12918
12920
12926
12927
12929
12932
12933
12934
12938
12943
12945
12947
12949
12952
12954
12956
12957
12960
12962
12966
12969
12972
12973
12975
12976
12977
12978
12981
12982
12985
12986
12987
12990
12991
12993
12994
12996
12998
12999
13002
13007
13012
13014
13016
13019
13020
13022
13024
13029
13030
13031
13033
13035
13037
13040
13045
13049
13050
13051
13053
13057
13060
13061
13062
13063
13066
13067
13072
13074
13077
13083
13084
13085
13086
13087
13088
13090
13091
13093
13095
13097
13108
13109
13112
13113
13115
13118
13120
13123
13124
13125
13129
13130
13131
13133
13136
13139
13141
13143
13144
13148
13150
13151
13153
13156
13162
13163
13170
13179
13180
13183
13185
13186
13187
13189
13192
13193
13195
13196
13202
13204
13208
13213
13217
13220
13222
13223
13226
13228
13236
13238
13242
13243
13245
13246
13248
13250
13251
13252
13253
13260
13263
13264
13266
13267
13268
13273
13275
13279
13280
13281
13282
13287
13288
13289
13293
13295
13297
13298
13302
13310
13311
13312
13313
13314
13317
13318
13321
13324
13325
13326
13330
13332
13333
13334
13338
13341
13349
13350
13355
13358
13368
13371
13374
13375
13376
13382
13383
13385
13386
13388
13394
13396
13397
13400
13401
13403
13404
13405
13409
13419
13420
13421
13422
13429
13431
13436
13438
13443
13444
13445
13447
13449
13450
13452
13454
13456
13457
13460
13469
13470
13474
13475
13477
13478
13479
13480
13483
13484
13488
13490
13491
13494
13496
13502
13504
13506
13507
13512
13517
13520
13521
13522
13523
13524
13526
13528
13533
13535
13539
13542
13548
13549
13551
13552
13556
13558
13562
13573
13574
13575
13577
13584
13589
13590
13591
13595
13597
13598
13600
13602
13604
13609
13611
13612
13613
13617
13618
13628
13631
13633
13634
13635
13636
13640
13643
13644
13645
13650
13653
13654
13657
13659
13663
13664
13665
13666
13670
13674
13677
13678
13680
13682
13686
13687
13693
13695
13697
13698
13699
13701
13702
13704
13706
13708
13709
13710
13712
13718
13721
13722
13724
13725
13728
13731
13733
13734
13735
13737
13739
13741
13744
13746
13748
13751
13752
13753
13755
13756
13757
13758
13762
13766
13767
13769
13771
13773
13775
13779
13780
13789
13793
13794
13795
13800
13801
13805
13807
13810
13814
13817
13821
13822
13826
13831
13833
13834
13835
13836
13840
13842
13845
13846
13850
13854
13856
13857
13858
13862
13864
13867
13870
13871
13875
13878
13879
13880
13882
13883
13887
13891
13895
13898
13899
13904
13905
13909
13911
13913
13923
13924
13925
13926
13928
13932
13933
13935
13938
13940
13941
13944
13945
13950
13958
13959
13960
13962
13963
13966
13968
13970
13971
13973
13980
13981
13985
13989
13990
13992
13994
13996
13999
14002
14006
14009
14010
14013
14019
14020
14024
14029
14032
14033
14036
14038
14040
14041
14045
14047
14055
14057
14058
14060
14061
14062
14063
14065
14068
14069
14071
14073
14074
14075
14082
14084
14089
14090
14095
14100
14103
14104
14105
14107
14112
14114
14116
14118
14120
14122
14125
14132
14136
14140
14146
14149
14152
14153
14160
14161
14162
14163
14168
14169
14170
14171
14176
14177
14178
14184
14187
14192
14195
14199
14204
14206
14208
14211
14212
14215
14222
14228
14229
14230
14233
14235
14236
14239
14243
14245
14247
14250
14252
14255
14260
14261
14267
14270
14271
14277
14281
14292
14293
14294
14296
14297
14299
14301
14302
14303
14305
14306
14307
14308
14309
14313
14316
14320
14322
14323
14324
14325
14327
14331
14333
14342
14345
14347
14349
14351
14354
14356
14365
14366
14367
14374
14379
14380
14387
14388
14390
14394
14395
14396
14398
14400
14403
14405
14409
14412
14418
14419
14420
14426
14429
14438
14439
14440
14445
14448
14450
14452
14455
14456
14457
14461
14463
14464
14466
14470
14474
14475
14477
14479
14480
14481
14483
14485
14486
14489
14490
14492
14493
14495
14497
14498
14502
14507
14508
14509
14510
14512
14514
14519
14520
14523
14525
14526
14529
14532
14535
14538
14539
14543
14547
14551
14552
14554
14556
14563
14564
14568
14571
14572
14573
14574
14576
14581
14582
14588
14589
14594
14598
14599
14601
14602
14603
14607
14610
14613
14614
14615
14617
14623
14627
14628
14629
14633
14638
14639
14640
14642
14646
14647
14648
14649
14652
14653
14666
14667