/*--------------------------------*- C++ -*----------------------------------*\
  =========                 |
  \\      /  F ield         | OpenFOAM: The Open Source CFD Toolbox
   \\    /   O peration     | Website:  https://openfoam.org
    \\  /    A nd           | Version:  7
     \\/     M anipulation  |
\*---------------------------------------------------------------------------*/
FoamFile
{
    version     2.0;
    format      ascii;
    class       Cloud<dsmcParcel>;
    location    "0.001/lagrangian/dsmc";
    object      positions;
}
// * * * * * * * * * * * * * * * * * * * * * * * * * * * * * * * * * * * * * //

6987
(
(0.416535066 0.291732467 0.1282852889 0.163447178) 464 906 2
(0.01617554714 0.1587042007 0.4919122264 0.3332080258) 448 874 1
(0.3470142901 0.00554864892 0.3264928549 0.320944206) 486 949 2
(0.02582313213 0.3990691184 0.4870884339 0.08801931552) 489 952 1
(0.7826212513 0.04836888866 0.06032048567 0.1086893743) 446 872 1
(0.7383763179 0.1308118411 0.09017037926 0.0406414618) 547 1046 1
(0.1018880113 0.4490559944 0.2158417036 0.2332142908) 539 1049 1
(0.06706481846 0.4664675908 0.4104095324 0.05605805835) 449 2616 2
(0.07904960825 0.4604751959 0.2332907466 0.2271844493) 458 896 1
(0.2458495573 0.08176116446 0.3770752214 0.2953140569) 447 875 2
(0.3145524864 0.03496853449 0.3077552223 0.3427237568) 458 895 1
(0.6053764988 0.05857685754 0.1973117506 0.1387348931) 538 1048 2
(0.2087613083 0.05127385416 0.3956193459 0.3443454917) 478 931 1
(0.6310045417 0.07801872754 0.1064790016 0.1844977292) 525 1004 2
(0.3770612234 0.15365159 0.3114693883 0.1578177983) 448 874 1
(0.1876888231 0.3670484312 0.03910715725 0.4061555885) 466 910 1
(0.4840138735 0.02145743793 0.2365356253 0.2579930633) 508 972 2
(0.2464913268 0.1231753702 0.3767543366 0.2535789664) 469 916 2
(0.4491520544 0.2754239728 0.1420041446 0.1334198282) 446 870 2
(0.2636207888 0.04279827448 0.3253913311 0.3681896056) 466 892 2
(0.05048534127 0.4747573294 0.1458995419 0.3288577875) 449 2616 2
(0.164116048 0.3377546881 0.417941976 0.08018728786) 457 894 2
(0.4857505876 0.2571247062 0.1381552771 0.1189694291) 446 1304 2
(0.02222783163 0.4888860842 0.138403164 0.3504829202) 468 896 1
(0.2422118735 0.161168903 0.3788940633 0.2177251602) 476 927 1
(0.3881526193 0.3059236903 0.1122936625 0.1936300279) 533 1038 1
(0.1323519824 0.06805071428 0.3657732945 0.4338240088) 508 972 2
(0.07440324504 0.4627983775 0.1856133783 0.2771849992) 508 972 1
(0.4665658718 0.2599648621 0.2667170641 0.006752202001) 458 893 1
(0.1938442459 0.3345157416 0.06856213548 0.4030778771) 448 1306 1
(0.2148085781 0.3411748497 0.05142086125 0.3925957109) 468 896 2
(0.4977670784 0.2511164608 0.2096645674 0.04145189339) 445 870 2
(0.000992513101 0.448142711 0.4995037434 0.05136103248) 449 878 2
(0.4465387585 0.2767306208 0.196360206 0.08037041476) 442 864 2
(0.1505920883 0.4247039558 0.3086251056 0.1160788502) 454 887 2
(0.2525263482 0.3737368259 0.09167978007 0.2820570458) 467 913 1
(0.7332634843 0.1333682578 0.1035035179 0.02986473995) 448 876 2
(0.4268739341 0.06840346932 0.2181595636 0.286563033) 455 871 2
(0.1768586105 0.4115706948 0.01916234426 0.3924083505) 449 2616 2
(0.6176276736 0.08629515537 0.1911861632 0.1048910078) 456 892 2
(0.01312227349 0.2327758831 0.2606629801 0.4934388633) 455 889 1
(0.1769719779 0.2326154102 0.1788986009 0.4115140111) 447 874 1
(0.009465641783 0.03948004583 0.4952671791 0.4557871333) 478 931 1
(0.001179675056 0.4994101625 0.4161315728 0.08327858967) 469 914 2
(0.5776111382 0.2111944309 0.00888838631 0.2023060446) 469 897 1
(0.6757272361 0.1621363819 0.1599684629 0.002167919028) 496 949 1
(0.8472060158 0.001592414409 0.07480457767 0.07639699208) 618 1199 1
(0.4495294362 0.1098343841 0.2752352819 0.1654008978) 459 897 2
(0.1823474438 0.4088262781 0.1731945727 0.2356317054) 506 984 2
(0.6615521244 0.05782598667 0.1113979511 0.1692239378) 557 1083 1
(0.1964947186 0.07804826629 0.4017526407 0.3237043744) 474 926 2
(0.004645761193 0.4976771194 0.08320884194 0.4144682775) 449 878 1
(0.6667030067 0.1666484966 0.008450110528 0.1581983861) 495 966 1
(0.639762751 0.1801186245 0.1685541858 0.0115644387) 478 931 2
(0.286914343 0.35013003 0.00641279849 0.3565428285) 455 871 2
(0.01309186562 0.0481780854 0.4452759818 0.4934540672) 459 2617 1
(0.2310358765 0.3844820618 0.1025483399 0.2819337218) 446 873 1
(0.4543504493 0.2728247754 0.08343836686 0.1893864085) 527 1027 1
(0.4234455639 0.01347927352 0.288277218 0.2747979445) 459 895 1
(0.3455028596 0.3272485702 0.1450384292 0.182210141) 499 2621 2
(0.05548953007 0.2217077621 0.472255235 0.2505474728) 549 1068 2
(0.3670315939 0.06559637776 0.316484203 0.2508878253) 495 966 2
(0.925085899 0.03745705052 0.007414987918 0.0300420626) 469 897 1
(0.07952500779 0.04093071974 0.4602374961 0.4193067764) 447 872 1
(0.6713533237 0.07588601025 0.1643233382 0.08843732792) 455 890 2
(0.2946842354 0.3526578823 0.1123362404 0.240321642) 448 876 2
(0.6611154075 0.1133643059 0.0560779904 0.1694422963) 448 1306 1
(0.2849103559 0.2492364772 0.1083083449 0.3575448221) 547 1046 2
(0.4877991693 0.08198161839 0.2561004153 0.1741187969) 489 954 2
(0.1073814551 0.4463092724 0.3594111582 0.08689811424) 467 894 1
(0.3653925543 0.08344551192 0.2338582109 0.3173037228) 447 874 1
(0.194437165 0.4027814175 0.07950954127 0.3232718763) 559 1068 1
(0.4089595565 0.008907779619 0.2955202217 0.2866124421) 458 893 1
(0.191830655 0.389068008 0.4040846725 0.01501666451) 539 1047 1
(0.4872701338 0.2563649331 0.1056223351 0.150742598) 468 896 1
(0.03127831404 0.484360843 0.078123685 0.406237158) 479 916 1
(0.6936537874 0.00894677306 0.1531731063 0.1442263332) 455 890 2
(0.7757240825 0.0533998402 0.1121379588 0.05873811857) 469 914 1
(0.4566312251 0.0289568158 0.2716843874 0.2427275716) 457 894 2
(0.6867028441 0.02700369055 0.1566485779 0.1296448874) 497 970 2
(0.05497924381 0.4725103781 0.3040266119 0.1684837662) 479 2619 2
(0.3868881186 0.2233732281 0.08318271255 0.3065559407) 483 942 1
(0.09153931749 0.09499658062 0.4542303413 0.3592337606) 469 914 1
(0.3043967089 0.3478016456 0.1676728122 0.1801288334) 469 914 2
(0.1311315632 0.1919933889 0.2424408295 0.4344342184) 447 874 1
(0.1418913693 0.04929383671 0.4290543154 0.3797604786) 499 973 2
(0.3331789027 0.2026301028 0.3334105486 0.1307804458) 446 873 2
(0.7946032517 0.1026983742 0.06932888278 0.03336949139) 519 1009 2
(0.4881908782 0.1057036203 0.2559045609 0.1502009406) 445 868 1
(0.08151291176 0.4592435441 0.3081847493 0.1510587949) 468 896 1
(0.1997490627 0.1165677705 0.2835576981 0.4001254687) 466 892 2
(0.2203281 0.385684378 0.38983595 0.004151572044) 447 872 1
(0.3820747387 0.3089626307 0.2324079242 0.07655470644) 453 883 2
(0.02728417654 0.3269515322 0.1594063795 0.4863579117) 488 934 2
(0.05467850104 0.4726607495 0.3156469458 0.1570138037) 485 928 1
(0.01629839858 0.4918508007 0.03259251647 0.4592582842) 443 1301 2
(0.1588764087 0.3424948751 0.4205617956 0.07806692058) 447 872 1
(0.3139206609 0.3430396696 0.2878966287 0.05514304083) 549 1068 1
(0.2448782576 0.3775608712 0.05418240296 0.3233784682) 499 2621 2
(0.05736103156 0.3776394208 0.4713194842 0.0936800634) 447 872 1
(0.2938720378 0.181426793 0.1716371882 0.3530639811) 499 954 2
(0.3425873676 0.3287063162 0.09564910233 0.2330572139) 459 2617 2
(0.3091485477 0.09064167889 0.2547840472 0.3454257261) 478 915 2
(0.3147726962 0.3426136519 0.06950356623 0.2731100857) 39 38 1
(0.8108389009 0.07382419592 0.09458054956 0.02075635364) 452 884 2
(0.698098565 0.1509507175 0.1453233259 0.0056273916) 456 892 1
(0.7537174314 0.001295812564 0.1231412843 0.1218454717) 444 866 1
(0.1031988559 0.448400572 0.3371703522 0.1112302198) 455 890 1
(0.003153579925 0.1092342077 0.3891890023 0.49842321) 465 890 2
(0.4655898228 0.2546702032 0.01253488538 0.2672050886) 489 2620 1
(0.3066364314 0.1388538675 0.3466817843 0.2078279168) 628 1219 2
(0.5340446282 0.02866804291 0.2329776859 0.204309643) 470 159 1
(0.08753335314 0.03060092767 0.4562333234 0.4256323958) 506 987 2
(0.7582571519 0.1208714241 0.05668860146 0.06418282261) 528 1010 1
(0.3067518577 0.2120795293 0.3466240711 0.1345445419) 456 889 1
(0.3102863999 0.3448568 0.2082248696 0.1366319305) 456 889 2
(0.09618175648 0.4519091218 0.4299588642 0.02195025758) 517 1005 2
(0.0174598098 0.4912700951 0.09585865852 0.3954114366) 449 1307 2
(0.3897288189 0.3051355905 0.2415207157 0.06361487482) 447 872 2
(0.1129270628 0.1342558224 0.3092806463 0.4435364686) 537 1045 1
(0.6133190094 0.07708629339 0.1933404953 0.1162542019) 453 886 2
(0.01714842748 0.121865435 0.4914257863 0.3695603513) 444 869 2
(0.4814845322 0.2592577339 0.08689089557 0.1723668383) 456 892 1
(0.5450770814 0.2251739442 0.002287515084 0.2274614593) 455 889 1
(0.04311706194 0.4349660629 0.478441469 0.04347540613) 482 938 1
(0.2510792627 0.3744603687 0.1541015533 0.2203588154) 456 873 1
(0.1630153493 0.4184923253 0.3809065935 0.03758573184) 479 933 2
(0.2620376596 0.01664259379 0.3689811702 0.3523385764) 456 892 2
(0.266246215 0.0668912333 0.3668768925 0.2999856592) 527 1027 2
(0.5200359427 0.2399820286 0.08676250004 0.1532195286) 489 952 2
(0.0004896063908 0.1342175991 0.4997551968 0.3655375977) 459 897 2
(0.06274457639 0.4686277118 0.376208058 0.09241965378) 457 894 1
(0.4499804038 0.2750097981 0.07548649451 0.1995233036) 609 2632 2
(0.2179525635 0.3910237182 0.2948651262 0.09615859208) 478 915 1
(0.06137960126 0.4693101994 0.1447912703 0.3245189291) 488 934 1
(0.01107522373 0.2621319609 0.2323304272 0.4944623881) 514 1001 1
(0.05515223868 0.3474514112 0.1249724695 0.4724238807) 446 872 1
(0.1669996929 0.1454405221 0.2710596314 0.4165001536) 446 1304 1
(0.3254135912 0.3372932044 0.1002096613 0.2370835431) 456 889 2
(0.032378863 0.4838105685 0.3281449592 0.1556656093) 473 921 2
(0.301349784 0.349325108 0.02540810786 0.3239170002) 453 867 1
(0.1910187219 0.404490639 0.2846124941 0.1198781449) 467 913 1
(0.225157392 0.2820408729 0.1053804311 0.387421304) 447 874 1
(0.1568283075 0.4079845864 0.01360125982 0.4215858463) 468 896 2
(0.5429809329 0.2285095336 0.2138371042 0.01467242934) 509 992 1
(0.01132833375 0.4943358331 0.1608548205 0.3334810127) 513 1000 1
(0.4534165071 0.01603492383 0.2732917464 0.2572568226) 519 1011 2
(0.2499041934 0.2356781132 0.1393697901 0.3750479033) 485 928 2
(0.4340089281 0.2829955359 0.2125310375 0.07046449849) 198 396 2
(0.02745284093 0.4862735795 0.4066760841 0.0795974954) 515 985 1
(0.3317284513 0.3341357744 0.2594547147 0.07468105967) 528 1026 2
(0.09516644005 0.45241678 0.3632929465 0.0891238335) 456 891 2
(0.09651720349 0.4517413983 0.223188682 0.2285527162) 477 913 1
(0.1462466425 0.4268766787 0.2177391876 0.2091374911) 488 952 2
(0.7417962139 0.129101893 0.09948152455 0.0296203685) 476 929 2
(0.6423218056 0.01605727047 0.1788390972 0.1627818267) 449 876 1
(0.2651335461 0.199247404 0.1681858229 0.3674332269) 499 2621 1
(0.07388866274 0.4630556686 0.4200780191 0.04297764956) 446 1304 2
(0.8513355499 0.07433222507 0.004849119896 0.06948310517) 456 889 2
(0.1469241112 0.2322506139 0.1942873305 0.4265379444) 449 1307 1
(0.123659393 0.4381703035 0.1717985146 0.2663717889) 478 933 2
(0.4918344171 0.2347186371 0.01936415439 0.2540827915) 468 896 2
(0.05715174215 0.2145349492 0.2568891798 0.4714241289) 468 896 2
(0.4376686177 0.2811656911 0.06169255323 0.2194731379) 495 963 2
(0.02603228817 0.4869838559 0.3534581444 0.1335257115) 474 925 2
(0.3895282494 0.1956831944 0.3052358753 0.1095526809) 446 873 2
(0.4487255244 0.2756372378 0.2340458661 0.04159137167) 448 874 2
(0.7205376143 0.1397311929 0.06852235158 0.07120884127) 499 2621 2
(0.371713239 0.07438966878 0.2397537117 0.3141433805) 445 870 1
(0.3131270548 0.3054789274 0.03795754513 0.3434364726) 510 975 2
(0.5458713669 0.2270643166 0.01588690614 0.2111774104) 462 900 2
(0.7918163813 0.1040918093 0.004523125609 0.09956868374) 557 1065 1
(0.3911894829 0.2641887527 0.3044052586 0.04021650583) 445 868 1
(0.2405984512 0.3797007744 0.0284409246 0.3512598498) 469 916 1
(0.374285114 0.312857443 0.08711011817 0.2257473249) 465 890 1
(0.5968139247 0.2015930376 0.1975370724 0.004055965253) 478 933 2
(0.1717466326 0.4141266837 0.3777084906 0.03641819315) 537 1043 2
(0.2141457885 0.2914480586 0.1014790471 0.3929271057) 468 914 1
(0.02448690058 0.4877565497 0.4671750757 0.02058147403) 469 2618 2
(0.1320886729 0.4339556636 0.004107629333 0.4298480342) 469 914 2
(0.3827441936 0.3086279032 0.03918038962 0.2694475136) 579 1125 1
(0.1671772069 0.1622927515 0.254118645 0.4164113965) 459 878 2
(0.1009620127 0.4495189937 0.09041118551 0.3591078081) 457 891 2
(0.5954184797 0.2022907602 0.08068022762 0.1216105326) 445 870 2
(0.2197778447 0.3901110776 0.2358006428 0.1543104348) 489 2620 2
(0.4550829551 0.1487416811 0.2724585225 0.1237168414) 453 886 2
(0.0718634995 0.4640682503 0.4002719552 0.06379629504) 464 904 2
(0.4101167137 0.1239580364 0.1709836067 0.2949416432) 444 1302 1
(0.5531712932 0.1768848079 0.2234143534 0.0465295455) 448 874 1
(0.1994796064 0.2277218935 0.1725383033 0.4002601968) 499 2621 1
(0.4518320199 0.1313176877 0.2740839901 0.1427663023) 480 937 2
(0.4574976002 0.2614455388 0.009805661121 0.2712511999) 476 929 1
(0.7988141228 0.0157285651 0.1005929386 0.08486437348) 457 894 2
(0.6912537251 0.008598435859 0.1543731375 0.1457747016) 456 889 1
(0.2205730976 0.3886376051 0.3897134512 0.001075846079) 539 1049 2
(0.191506338 0.1552426329 0.2490041981 0.404246831) 489 2620 1
(0.3405400885 0.1757999195 0.1539300362 0.3297299558) 518 1009 1
(0.005507167083 0.4972464165 0.4802677413 0.01697867518) 479 2619 2
(0.5391392672 0.09625734354 0.2304303664 0.1341730229) 486 946 1
(0.6453314544 0.1773342728 0.08411331266 0.09322096014) 488 952 2
(0.3221668781 0.1337219369 0.338916561 0.2051946241) 455 890 2
(0.6601059649 0.1699470175 0.1094731104 0.06047390712) 514 1002 1
(0.4225450216 0.1361253544 0.1526021348 0.2887274892) 475 909 2
(0.1212326039 0.3473141321 0.09206956597 0.439383698) 477 931 1
(0.09203236276 0.154289474 0.4539838186 0.2996943446) 459 897 2
(0.4370188534 0.2814905733 0.2080567222 0.07343385109) 506 984 2
(0.09674537185 0.4516273141 0.2168052797 0.2348220344) 454 887 2
(0.06805779732 0.224354639 0.4659711013 0.2416164624) 458 893 1
(0.4580663952 0.2709668024 0.2407670241 0.03019977827) 444 866 2
(0.8084289967 0.01848919141 0.09578550165 0.07729631024) 466 908 1
(0.1584819956 0.4207590022 0.1549727694 0.2657862328) 518 1007 2
(0.275105878 0.158161526 0.362447061 0.204285535) 447 872 1
(0.1628188097 0.4185905951 0.3549054529 0.06368514218) 498 971 2
(0.4029230511 0.2985384744 0.182031059 0.1165074155) 196 390 2
(0.2960994584 0.1274832307 0.3519502708 0.2244670401) 489 952 1
(0.83271337 0.08364331499 0.07013629898 0.01350701601) 478 931 2
(0.4674334127 0.006998016924 0.2662832936 0.2592852767) 505 982 1
(0.08348570395 0.458257148 0.01311101616 0.4451461319) 477 932 1
(0.1629343668 0.4185328166 0.06650624536 0.3520265712) 448 1306 2
(0.6100972465 0.03546251845 0.1594888583 0.1949513767) 505 984 1
(0.02429515256 0.4878524237 0.01094251065 0.4769099131) 497 951 1
(0.3290177414 0.3354911293 0.2980077457 0.03748338356) 449 878 1
(0.02724285795 0.486378571 0.3405272169 0.1458513542) 448 874 2
(0.159382956 0.420308522 0.2743521511 0.1459563709) 529 1028 2
(0.3517709907 0.3241145046 0.2449803773 0.07913412736) 587 1140 2
(0.1043026501 0.09247179317 0.4478486749 0.3553768818) 586 1136 1
(0.4707503343 0.2646248329 0.01524297088 0.249381862) 58 116 2
(0.39121072 0.2101400179 0.09425462213 0.30439464) 477 913 2
(0.2440509594 0.0688257594 0.3779745203 0.3091487609) 488 950 1
(0.1648378166 0.4175810917 0.3741874617 0.04339363002) 457 875 1
(0.06879344901 0.4656032755 0.3059523231 0.1596509524) 448 876 2
(0.6606574383 0.0009260574509 0.1687452234 0.1696712808) 456 873 2
(0.6548678329 0.009279265323 0.1632868182 0.1725660835) 469 897 2
(0.2736738023 0.2399773438 0.1231857551 0.3631630989) 479 2619 1
(0.09505306726 0.1354839851 0.4524734664 0.3169894813) 466 911 2
(0.8313278598 0.08410727899 0.0002287910996 0.08433607009) 472 921 1
(0.09285588449 0.1852636784 0.4535720578 0.2683083794) 497 970 2
(0.01724884967 0.3733470362 0.118028539 0.4913755752) 447 874 1
(0.146661652 0.3139141579 0.1127550161 0.426669174) 498 953 2
(0.2202748582 0.3898625709 0.06640465431 0.3234579166) 509 973 1
(0.3309164418 0.3345417791 0.3253588363 0.009182942752) 448 877 1
(0.2043239526 0.3071045823 0.09073344137 0.3978380237) 507 970 2
(0.1557249587 0.4221375206 0.2432995621 0.1788379585) 528 1010 1
(0.5860642552 0.2069678724 0.2003444736 0.006623398803) 529 1028 2
(0.05382002157 0.3638603525 0.1092296367 0.4730899892) 534 1021 2
(0.5902149853 0.2048925074 0.1719951213 0.03289738605) 479 2619 2
(0.1932707893 0.4033646053 0.04484761487 0.3585169905) 455 890 1
(0.4042410142 0.09200055526 0.2058789377 0.2978794929) 477 913 2
(0.1527404319 0.1672073503 0.2564224338 0.423629784) 453 885 1
(0.3054984852 0.04762086558 0.2996298918 0.3472507574) 454 887 1
(0.4202750058 0.04168007837 0.2898624971 0.2481824187) 494 964 2
(0.2109897332 0.3827181746 0.3945051334 0.01178695885) 448 874 1
(0.3219928188 0.2859119387 0.3390035906 0.05309165194) 477 932 2
(0.3315730354 0.3342134823 0.1269152073 0.207298275) 459 897 1
(0.9253242375 0.006611890984 0.03733788127 0.03072599029) 445 871 2
(0.7042854982 0.1478572509 0.05999114653 0.08786610437) 529 1030 1
(0.7790408834 0.1104795583 0.1021271681 0.00835239015) 468 914 2
(0.2671235361 0.366438232 0.2768198935 0.08961833843) 458 877 1
(0.250719379 0.3746403105 0.1890541233 0.1855861871) 447 874 2
(0.3268261316 0.3365869342 0.08281460521 0.253772329) 448 877 1
(0.233374209 0.3833128955 0.1159586886 0.2673542069) 516 1005 2
(0.4681599134 0.1191464672 0.2659200433 0.1467735762) 447 872 1
(0.1132428413 0.4433785794 0.3818525633 0.06152601608) 535 1039 2
(0.7630408348 0.06376991919 0.1184795826 0.05470966341) 639 1237 1
(0.1490548221 0.425472589 0.1256625726 0.2998100164) 616 1195 2
(0.1110658945 0.2896520015 0.4444670527 0.1548150513) 19 38 2
(0.3176141344 0.3411929328 0.2830056922 0.05818724058) 457 875 1
(0.525965802 0.02886676243 0.237017099 0.2081503365) 478 934 2
(0.4035721797 0.2982139102 0.006305864846 0.2919080453) 469 916 1
(0.198024231 0.2251852198 0.4009878845 0.1758026647) 527 1024 1
(0.5445511609 0.02551641267 0.2277244195 0.2022080069) 462 903 2
(0.1513744695 0.4243127652 0.3505072235 0.07380554168) 476 911 1
(0.1566716647 0.4216641677 0.01098115494 0.4106830127) 549 2626 2
(0.8881558799 0.03554947239 0.02037258766 0.05592206005) 444 868 1
(0.4980643479 0.03338972207 0.217578104 0.250967826) 478 915 2
(0.1088178399 0.2794640114 0.1661270686 0.44559108) 498 971 1
(0.15665705 0.421671475 0.1704145686 0.2512569064) 454 885 2
(0.1854425952 0.4072787024 0.08655150641 0.320727196) 459 2617 2
(0.2456495739 0.377175213 0.08922995705 0.287945256) 446 872 2
(0.08017723725 0.2973222539 0.1625891275 0.4599113814) 473 923 1
(0.2441311489 0.3779344256 0.3708176208 0.00711680481) 568 1104 2
(0.4158959147 0.1777541437 0.1142978989 0.2920520426) 599 1144 2
(0.6235839299 0.15050236 0.03770567504 0.1882080351) 507 988 1
(0.2480742379 0.03749102103 0.3759628811 0.33847186) 628 1216 1
(0.3427534229 0.3286232885 0.01902778932 0.3095954992) 455 889 2
(0.3915065922 0.0496853357 0.2545613682 0.3042467039) 442 864 1
(0.7159669802 0.08373786575 0.05827864415 0.1420165099) 493 943 2
(0.2403826678 0.3798086661 0.1144391042 0.2653695619) 468 912 2
(0.5893061302 0.04531953175 0.1600274031 0.2053469349) 39 38 2
(0.2180991875 0.2191676182 0.3909504063 0.1717827881) 468 912 1
(0.07992674662 0.4600366267 0.3705055069 0.08953111975) 549 1049 1
(0.270637065 0.00182073128 0.3628607362 0.3646814675) 478 933 1
(0.4282030439 0.05226466635 0.2858984781 0.2336338117) 448 877 2
(0.2151227945 0.09831968809 0.2941189146 0.3924386027) 505 966 2
(0.569057358 0.215471321 0.1156770417 0.0997942793) 629 1218 2
(0.7795374035 0.01994307178 0.1102312983 0.09028822647) 469 916 2
(0.2625507315 0.3687246342 0.2813142732 0.08741036104) 487 951 1
(0.4350068797 0.2824965602 0.0692748005 0.2132217597) 468 915 1
(0.3452846156 0.3078248629 0.3273576922 0.01953282936) 466 911 2
(0.5699529002 0.2150235499 0.1082880443 0.1067355056) 479 935 1
(0.2203812862 0.3311654508 0.05864390607 0.3898093569) 536 1025 2
(0.2970602064 0.3514698968 0.1344582743 0.2170116225) 442 862 2
(0.275187386 0.362406307 0.3495748389 0.01283146814) 479 2619 2
(0.4885908631 0.07566295013 0.2557045685 0.1800416183) 467 913 2
(0.2143174859 0.06047889407 0.332362363 0.392841257) 518 991 2
(0.2706215764 0.1616330952 0.2030561166 0.3646892118) 447 874 1
(0.0248065205 0.4875967397 0.1979885964 0.2896081433) 515 1003 2
(0.3572633431 0.3213683284 0.3133088157 0.008059512715) 564 1097 1
(0.332838617 0.1918972572 0.1416834343 0.3335806915) 516 987 2
(0.2913783569 0.3543108215 0.3306181152 0.02369270631) 617 1195 2
(0.3466876998 0.3266561501 0.1686442234 0.1580119267) 519 1011 1
(0.6703479547 0.1648260227 0.1052662214 0.05955980124) 445 871 1
(0.001680951574 0.4991595242 0.008839273419 0.4903202508) 517 989 1
(0.3417376481 0.3291311759 0.3033848112 0.02574636472) 589 1125 1
(0.32332974 0.33833513 0.2106869554 0.1276481746) 455 871 1
(0.1079289163 0.4460355419 0.3700158118 0.07601973003) 457 893 2
(0.2994179016 0.1950023622 0.3502910492 0.155288687) 468 912 1
(0.1924977187 0.4037511407 0.2449048093 0.1588463314) 477 931 2
(0.9655673041 0.01721634794 0.007138175638 0.0100781723) 488 952 2
(0.3935528288 0.1544826494 0.1487409361 0.3032235856) 517 989 2
(0.2928620223 0.3535689889 0.3125265718 0.04104241706) 447 875 1
(0.391332501 0.2812656552 0.02306809428 0.3043337495) 496 949 2
(0.5695759544 0.2134976222 0.001714400533 0.2152120228) 447 1305 1
(0.7688268072 0.1155865964 0.04151835224 0.07406824416) 199 358 1
(0.3839204161 0.1068395067 0.3080397919 0.2012002852) 441 863 2
(0.0183345868 0.1171903597 0.3736423469 0.4908327066) 558 1085 1
(0.6440743851 0.1369460691 0.04101673828 0.1779628074) 471 919 1
(0.02957990045 0.4852100498 0.2931090358 0.192101014) 529 1011 1
(0.2272175262 0.3126914407 0.3863912369 0.07369979616) 478 931 1
(0.3172066033 0.1603723676 0.1810243307 0.3413966983) 507 970 2
(0.7002763974 0.1145328301 0.03532897117 0.1498618013) 487 950 1
(0.06674682354 0.4666265882 0.3636623795 0.1029642088) 557 1083 2
(0.33550213 0.3290806969 0.332248935 0.003168238063) 587 1138 1
(0.5748716475 0.2125641762 0.08148846413 0.1310757121) 628 1216 2
(0.7675322228 0.0867593021 0.1162338886 0.02947458648) 607 1179 2
(0.1600193726 0.3546059351 0.06538437865 0.4199903137) 624 1210 1
(0.3654907972 0.101920487 0.2153341144 0.3172546014) 499 954 2
(0.2926248013 0.3536875994 0.2156585836 0.1380290157) 448 877 1
(0.2321626752 0.03682529577 0.3470933667 0.3839186624) 79 159 1
(0.1333335302 0.344440883 0.4333332349 0.08889235192) 497 970 2
(0.567124115 0.2164379425 0.1972234723 0.01921447018) 99 198 1
(0.1853317632 0.2161569267 0.1911771917 0.4073341184) 479 916 2
(0.3312375316 0.3343812342 0.2532023178 0.08117891637) 468 896 1
(0.6824954343 0.1493956065 0.1587522829 0.009356676325) 461 898 1
(0.575475692 0.09317306133 0.1190890927 0.212262154) 449 2616 1
(0.09939190432 0.002042533185 0.4503040478 0.4482615147) 446 870 1
(0.1243464248 0.3589834519 0.4378267876 0.07884333573) 450 880 2
(0.1219032433 0.4390483783 0.1237150786 0.3153332997) 497 970 1
(0.2713840782 0.3643079609 0.07024238642 0.2940655745) 447 872 2
(0.7844083382 0.06181588874 0.04597994217 0.1077958309) 489 935 2
(0.4736206025 0.2631896987 0.03808536679 0.2251043319) 445 870 2
(0.6681922366 0.05950314005 0.1659038817 0.1064007416) 467 910 1
(0.835883764 0.002591161171 0.07946695681 0.08205811798) 539 2625 1
(0.4309159939 0.2845420031 0.2314149925 0.05312701051) 446 872 2
(0.004975053288 0.3475947325 0.1499177408 0.4975124734) 454 869 2
(0.1969618102 0.4015190949 0.1246201422 0.2768989527) 513 1000 1
(0.477702526 0.1887617741 0.261148737 0.0723869629) 455 887 1
(0.527089528 0.0121351694 0.236455236 0.2243200666) 508 991 2
(0.4474186947 0.1856695439 0.09062110876 0.2762906527) 459 878 2
(0.4921320366 0.2539339817 0.1657300692 0.0882039125) 447 874 2
(0.8968961646 0.02519237069 0.05155191768 0.02635954699) 468 912 1
(0.002942843276 0.4985285784 0.4805848543 0.01794372411) 486 948 2
(0.06739293331 0.07121734832 0.4663035333 0.395086185) 469 916 2
(0.341862605 0.3290686975 0.3252178689 0.003850828566) 578 1123 2
(0.1254662446 0.4372668777 0.05023159849 0.3870352792) 578 1123 2
(0.5526328137 0.2236835932 0.08725385112 0.136429742) 509 990 2
(0.1758311581 0.412084421 0.2780308315 0.1340535894) 38 77 1
(0.1269918844 0.4365040578 0.07874753968 0.3577565181) 549 1068 1
(0.3607439782 0.3196280109 0.04840330774 0.2712247032) 478 933 2
(0.04655393053 0.4767230347 0.4196428829 0.05708015182) 509 2622 2
(0.2720506897 0.3639746552 0.2048016583 0.1591729969) 447 874 2
(0.6259480031 0.1870259985 0.1023869535 0.08463904497) 458 896 1
(0.1292624247 0.002950622002 0.4324181657 0.4353687877) 538 1029 2
(0.6296596353 0.1851701824 0.05103255944 0.1341376229) 467 913 1
(0.285798889 0.05402060085 0.3571005555 0.3030799546) 489 952 1
(0.03922656486 0.4803867176 0.2640110835 0.216375634) 479 2619 2
(0.2179855789 0.293608884 0.09739832653 0.3910072106) 449 1307 1
(0.5651370108 0.1542988554 0.06313263925 0.2174314946) 458 895 1
(0.01146957308 0.4942652135 0.07056000704 0.4237052064) 456 889 2
(0.3119016881 0.180796019 0.163253137 0.344049156) 468 896 2
(0.1854916806 0.1970982625 0.4072541597 0.2101558972) 508 988 1
(0.2249238735 0.3875380632 0.1982295376 0.1893085256) 449 878 1
(0.2241578891 0.0506424856 0.3372785699 0.3879210555) 556 1081 1
(0.03256962331 0.4837151883 0.4687242049 0.01499098346) 519 1009 2
(0.4020500443 0.115280357 0.1836946208 0.2989749778) 489 935 2
(0.001377108077 0.192185113 0.499311446 0.307126333) 589 1144 2
(0.3808189555 0.3095905222 0.2616719539 0.04791856838) 546 1063 1
(0.3284545925 0.29380599 0.3357727038 0.04196671379) 629 1220 2
(0.5918466297 0.2040766852 0.139040934 0.06503575119) 588 1142 2
(0.1843666583 0.175586608 0.2322300628 0.4078166709) 459 2617 1
(0.04608559165 0.1133292331 0.4769572042 0.3636279711) 549 1066 1
(0.4738163814 0.005276164798 0.2630918093 0.2578156445) 519 1009 1
(0.9499452321 0.02502738394 0.0154867382 0.00954064574) 455 871 1
(0.4467360094 0.07350864778 0.2031233475 0.2766319953) 465 908 1
(0.203974367 0.004665386804 0.3933474297 0.3980128165) 481 938 1
(0.0857137351 0.3127692122 0.4571431324 0.1443739203) 499 973 2
(0.5938794622 0.04519325077 0.2030602689 0.1578670181) 457 894 2
(0.1650745666 0.4174627167 0.009936292536 0.4075264241) 444 868 2
(0.02493977252 0.4875301137 0.1490883582 0.3384417555) 486 949 1
(0.1923561729 0.4038219135 0.1835839294 0.2202379842) 447 875 1
(0.3242230161 0.3378884919 0.2179270288 0.1199614631) 519 2623 2
(0.353842445 0.3230787775 0.09460266738 0.2284761101) 467 910 2
(0.1496544654 0.1313638741 0.2938088932 0.4251727673) 514 983 2
(0.09167260091 0.4541636995 0.01545159832 0.4387121012) 449 878 1
(0.2422551136 0.01353864671 0.3653337965 0.3788724432) 499 954 2
(0.07355503962 0.4632224802 0.3876391665 0.07558331371) 458 893 2
(0.1865624459 0.406718777 0.2498403589 0.1568784182) 497 951 1
(0.8884500496 0.0557749752 0.02168794995 0.03408702525) 599 1144 1
(0.02956363846 0.05552399993 0.4852181808 0.4296941808) 548 1064 1
(0.4109602328 0.1133616358 0.1811582478 0.2945198836) 567 1102 1
(0.03860561246 0.1581069706 0.3225902232 0.4806971938) 529 2624 1
(0.3105730792 0.1320481407 0.2126653197 0.3447134604) 559 1068 2
(0.7274913881 0.1349390767 0.001315229277 0.136254306) 549 1049 2
(0.02215021047 0.2612433721 0.2276815226 0.4889248948) 618 1199 1
(0.03735317814 0.1899550765 0.4813234109 0.2913683344) 559 1085 1
(0.2217124707 0.1331990731 0.3891437646 0.2559446916) 616 1193 1
(0.08279694336 0.4586015283 0.1680937037 0.2905078246) 493 962 1
(0.5016719076 0.06596351951 0.2491640462 0.1832005267) 453 886 2
(0.2591795045 0.3003367053 0.07007354243 0.3704102478) 442 1300 1
(0.5137480232 0.1805999185 0.06252606992 0.2431259884) 487 932 2
(0.3383201331 0.3308399334 0.2894364636 0.04140346989) 507 970 1
(0.8386245772 0.01588856412 0.06479914729 0.08068771142) 19 1297 1
(0.3354883079 0.193751168 0.3322558461 0.1385046781) 498 972 2
(0.149199516 0.425400242 0.07216472959 0.3532355124) 498 969 2
(0.3555113341 0.1284247837 0.322244333 0.1938195493) 477 929 1
(0.6161546974 0.0786855016 0.1919226513 0.1132371497) 453 883 1
(0.7754939676 0.1046063462 0.007646670007 0.1122530162) 468 914 1
(0.3775415243 0.3112292378 0.04230314191 0.2689260959) 505 984 2
(0.3993222195 0.2274867733 0.0728521169 0.3003388902) 488 952 1
(0.3359438545 0.3320280727 0.07701750112 0.2550105716) 459 2617 2
(0.273094096 0.363452952 0.04386909801 0.319583854) 464 888 1
(0.4362066747 0.02667410889 0.2818966627 0.2552225538) 508 991 2
(0.7386177763 0.0652230526 0.1306911119 0.06546805927) 458 896 2
(0.3072431826 0.3463784087 0.0964503568 0.2499280519) 456 892 1
(0.04303173951 0.4376394086 0.4784841302 0.04084472164) 464 907 2
(0.749814014 0.125092993 0.02714616863 0.09794682437) 523 1019 1
(0.3017145356 0.03621858024 0.3491427322 0.312924152) 518 1010 2
(0.547760846 0.04899950023 0.1771200768 0.226119577) 519 2623 1
(0.5188489834 0.2405755083 0.02667046139 0.2139050469) 567 1102 2
(0.5537259681 0.01215841018 0.2231370159 0.2109786058) 617 1195 1
(0.1038377062 0.4480811469 0.4112190702 0.03686207676) 577 1122 1
(0.04286460418 0.2779017443 0.4785676979 0.2006659536) 619 1201 2
(0.2647713036 0.3561684438 0.01144590439 0.3676143482) 447 1305 1
(0.3891418028 0.02196803082 0.2834610678 0.3054290986) 517 1007 1
(0.2083921349 0.2389952063 0.3958039325 0.1568087262) 444 866 1
(0.2553517791 0.0875060409 0.2848180696 0.3723241105) 504 964 2
(0.8865931407 0.05670342967 0.02883637288 0.02786705679) 486 930 1
(0.2697471651 0.05684080873 0.3082856087 0.3651264174) 457 875 2
(0.4664869085 0.2667565457 0.2312295756 0.03552697011) 448 877 1
(0.333699212 0.2089097098 0.1242406842 0.333150394) 458 877 2
(0.07174046663 0.2601320334 0.4641297667 0.2039977333) 499 973 2
(0.2146164446 0.365933451 0.02675832672 0.3926917777) 478 933 1