/*--------------------------------*- C++ -*----------------------------------*\
  =========                 |
  \\      /  F ield         | OpenFOAM: The Open Source CFD Toolbox
   \\    /   O peration     | Website:  https://openfoam.org
    \\  /    A nd           | Version:  7
     \\/     M anipulation  |
\*---------------------------------------------------------------------------*/
FoamFile
{
    version     2.0;
    format      ascii;
    class       Cloud<dsmcParcel>;
    location    "0.001/lagrangian/dsmc";
    object      positions;
}
// * * * * * * * * * * * * * * * * * * * * * * * * * * * * * * * * * * * * * //

4146
(
(0.210332053 0.3948339735 0.2372087203 0.1576252532) 612 1187 2
(0.1157145956 0.1944951027 0.4421427022 0.2476475995) 214 429 2
(0.5768051763 0.2115974118 0.01382827577 0.1977691361) 168 336 2
(0.1076402789 0.1206212492 0.3255586113 0.4461798605) 123 246 1
(0.2636647732 0.2245630884 0.3681676134 0.143604525) 34 66 1
(0.1089077417 0.162419588 0.2831265412 0.4455461292) 643 1246 1
(0.280463383 0.3597683085 0.2396714646 0.1200968439) 233 466 2
(0.05789350833 0.4710532458 0.3558286978 0.115224548) 173 346 2
(0.1023384429 0.4488307785 0.3248981288 0.1239326497) 515 1001 2
(0.8053747901 0.09731260494 0.06327429979 0.03403830515) 273 544 2
(0.1392974385 0.4303512807 0.2633948504 0.1669564304) 349 699 1
(0.2022554697 0.3988722652 0.1681691172 0.230703148) 286 573 1
(0.2864393971 0.3106104941 0.04616980733 0.3567803014) 336 672 1
(0.333386234 0.1363275792 0.1969793038 0.333306883) 97 155 2
(0.01292451125 0.01257993324 0.4809578111 0.4935377444) 179 359 1
(0.03700550834 0.4814972458 0.1109060471 0.3705911987) 229 456 2
(0.4083924625 0.2958037688 0.2860761877 0.00972758101) 579 1106 1
(0.7774694004 0.1112652998 0.01567886737 0.09558643242) 544 1056 2
(0.1376975559 0.4311512221 0.2330200725 0.1981311496) 448 877 1
(0.08565762659 0.4571711867 0.1426193632 0.3145518235) 538 1045 2
(0.6146893027 0.0462634204 0.1926553487 0.1463919283) 460 899 2
(0.02805314673 0.4859734266 0.3269493602 0.1590240665) 472 922 1
(0.1922463232 0.4038768384 0.2347599579 0.1691168805) 219 439 2
(0.2690104189 0.3654947905 0.06582814546 0.2996666451) 296 553 1
(0.1674127245 0.4162936378 0.2291843354 0.1871093024) 100 200 2
(0.744137057 0.1279314715 0.1108779023 0.01705356916) 163 324 2
(0.4138809825 0.2638910737 0.02916843507 0.2930595088) 396 753 2
(0.4782146084 0.05455154822 0.2063411476 0.2608926958) 478 915 2
(0.712208202 0.143895899 0.121343772 0.02255212703) 231 463 1
(0.3010643126 0.3494678437 0.3213276611 0.02814018259) 55 110 2
(0.1320103478 0.4339948261 0.2569620708 0.1770327553) 130 261 1
(0.2620118453 0.3689940773 0.3340654384 0.03492863897) 541 1034 1
(0.7124473527 0.1166272973 0.1437763237 0.0271490264) 620 759 1
(0.5618586105 0.129054001 0.09001669369 0.2190706947) 362 685 2
(0.6827063717 0.1586468142 0.03918612919 0.119460685) 271 542 2
(0.8025556552 0.09872217239 0.03846715057 0.06025502182) 429 848 2
(0.04446218686 0.2347626019 0.2430063047 0.4777689066) 507 988 1
(0.1903831129 0.4007709102 0.004037533415 0.4048084436) 279 518 2
(0.4959750904 0.09634500446 0.1556674503 0.2520124548) 334 668 1
(0.3382020655 0.3308989673 0.327512734 0.0033862333) 307 615 1
(0.3916112148 0.3041943926 0.2176839246 0.08651046797) 359 716 2
(0.1127304035 0.01880229522 0.4436347983 0.424832503) 608 1181 2
(0.7854373664 0.1041242979 0.1072813168 0.003157018872) 46 93 2
(0.2881731016 0.2943593139 0.3559134492 0.06155413529) 480 199 1
(0.2167643924 0.3916178038 0.137859817 0.2537579868) 505 984 2
(0.8189176749 0.03435161647 0.09054116254 0.05618954607) 294 586 1
(0.4971783506 0.140468235 0.1109425897 0.2514108247) 445 870 1
(0.006109181297 0.3949163178 0.1020290915 0.4969454094) 442 1300 1
(0.6754945153 0.06787761301 0.1622527423 0.09437512931) 569 1104 1
(0.2774957281 0.2424199743 0.3612521359 0.1188321616) 570 559 1
(0.04634412456 0.4301590132 0.4768279377 0.04666892455) 543 1057 2
(0.09983516699 0.4377372814 0.01234513507 0.4500824165) 295 590 1
(0.6914964224 0.1542517888 0.05229990652 0.1019518823) 58 116 2
(0.364947615 0.02374711999 0.3175261925 0.2937790725) 620 759 1
(0.06241621999 0.46879189 0.4583110622 0.01048082778) 256 473 1
(0.01245497287 0.4937725136 0.04971489145 0.4440576221) 208 417 1
(0.01099028858 0.4945048557 0.3498630177 0.144641838) 538 1048 1
(0.6355024226 0.1822487887 0.1501955529 0.03205323576) 592 1150 1
(0.1844592841 0.01502704902 0.3927433089 0.4077703579) 195 351 2
(0.1704591344 0.2994110481 0.4147704328 0.1153593847) 221 443 2
(0.2023163527 0.3988418236 0.3703270445 0.02851477909) 495 947 1
(0.04531523038 0.4773423848 0.02779098316 0.4495514017) 266 532 2
(0.04144215222 0.4792789239 0.42345085 0.0558280739) 543 1056 2
(0.3366058681 0.331697066 0.2517256735 0.07997139248) 505 966 1
(0.3391441522 0.3304279239 0.2151608047 0.1152671192) 390 780 2
(0.5284671546 0.22515419 0.01061223274 0.2357664227) 276 552 1
(0.1437336326 0.1940734109 0.2340597728 0.4281331837) 222 444 1
(0.214584191 0.3927079045 0.09700690698 0.2957009975) 298 596 2
(0.5663962652 0.2168018674 0.1050872637 0.1117146037) 191 380 2
(0.09724374753 0.151883812 0.2994943142 0.4513781262) 306 612 1
(0.2523422416 0.3738288792 0.2953505724 0.07847830682) 572 1112 1
(0.5906661668 0.2046669166 0.1805798489 0.02408706767) 276 513 1
(0.1773679827 0.2274845297 0.1838314789 0.4113160086) 505 984 1
(0.5225641959 0.2387179021 0.2363374266 0.002380475424) 563 1094 2
(0.004164599961 0.3589706713 0.1389470287 0.4979177) 277 554 1
(0.4430172226 0.2784913887 0.270601317 0.007890071736) 449 878 1
(0.5681420925 0.2159289538 0.06857483543 0.1473541183) 573 1095 1
(0.3907949668 0.1375825396 0.3046025166 0.167019977) 295 588 1
(0.2759026203 0.3620486899 0.1350229908 0.227025699) 494 945 1
(0.1889295961 0.0653317001 0.3402035018 0.4055352019) 12 1290 1
(0.4178300269 0.2910849865 0.03526786258 0.255817124) 343 686 2
(0.06184641883 0.4690767906 0.4650803992 0.003996391413) 480 918 1
(0.02117632922 0.4894118354 0.0435850218 0.4458268136) 91 183 1
(0.4069416138 0.2901367266 0.2965291931 0.006392466478) 455 890 2
(0.06935310398 0.1925220769 0.465323448 0.2728013711) 560 1089 2
(0.4052113546 0.2973943227 0.2777776967 0.01961662603) 531 1033 2
(0.123512967 0.1506492171 0.4382435165 0.2875942994) 584 1132 1
(0.003263781369 0.4983681093 0.1491624979 0.3492056114) 480 937 1
(0.2969686152 0.01814957249 0.3333661199 0.3515156924) 559 2627 1
(0.6731203779 0.1192667251 0.04417308597 0.163439811) 407 814 1
(0.7025953621 0.03488094936 0.1138213696 0.1487023189) 292 545 2
(0.3865982476 0.06598091144 0.2407199647 0.3067008762) 94 188 1
(0.6329571632 0.04859791044 0.134923508 0.1835214184) 117 234 1
(0.3990875327 0.3004562336 0.08754973291 0.2129065007) 546 1063 1
(0.1919042613 0.04905174613 0.3549961232 0.4040478694) 157 275 2
(0.5715214997 0.2142392501 0.1597965886 0.05444266158) 525 1023 1
(0.1113113809 0.1857925931 0.2585517165 0.4443443096) 234 429 2
(0.1471491161 0.426425442 0.1710127454 0.2554126966) 69 136 2
(0.5903626085 0.08736164555 0.2048186958 0.1174570502) 622 1204 1
(0.6983064693 0.08262151982 0.06822524555 0.1508467654) 580 1108 2
(0.6992340513 0.03267948025 0.1177034941 0.1503829743) 152 265 2
(0.06537869498 0.4673106525 0.1352923327 0.3320183198) 187 374 2
(0.261538862 0.369230569 0.02284395258 0.3463866164) 250 501 1
(0.3803412863 0.1055611237 0.2042682331 0.3098293569) 247 494 1
(0.2796880716 0.3601559642 0.1999266508 0.1602293134) 493 943 1
(0.1739221297 0.01650715251 0.3965317826 0.4130389351) 462 902 1
(0.1392912224 0.4303543888 0.1604036737 0.269950715) 504 982 2
(0.4658028651 0.2393926951 0.02770587233 0.2670985674) 499 954 2
(0.598189087 0.2009054565 0.06385352041 0.1370519361) 257 514 2
(0.4190092062 0.2904953969 0.2526299755 0.03786542138) 114 189 1
(0.429855584 0.285072208 0.2058585387 0.07921366933) 199 396 2
(0.2674951407 0.3662524297 0.3157427148 0.05050971484) 438 857 2
(0.5379043978 0.1954792872 0.03556851388 0.2310478011) 410 820 1
(0.0780766178 0.3410652458 0.4609616911 0.1198964453) 331 660 1
(0.1306756243 0.347507066 0.4346621878 0.08715512185) 573 1111 1
(0.5079950612 0.2292820159 0.01672045349 0.2460024694) 208 416 1
(0.1432510377 0.06502608684 0.4283744811 0.3633483943) 172 345 2
(0.4858279723 0.1267079343 0.2570860138 0.1303780796) 96 190 1
(0.3967931002 0.1719596897 0.1296437601 0.3016034499) 358 716 1
(0.1168941027 0.07437889939 0.4415529487 0.3671740493) 216 433 2
(0.3653723803 0.1678552509 0.1494585589 0.3173138099) 29 19 2
(0.5914500125 0.2042749938 0.01521370472 0.189061289) 386 770 2
(0.03692805231 0.4815359738 0.3039888091 0.1775471648) 616 1196 1
(0.2553842371 0.0435630963 0.3287447851 0.3723078814) 291 582 1
(0.41076532 0.29461734 0.2445759186 0.05004142143) 236 433 1
(0.7717171445 0.1141414278 0.008223860275 0.1059175675) 526 1022 2
(0.4118454115 0.2940772943 0.02922562025 0.264851674) 293 584 2
(0.5194927022 0.2128617478 0.2402536489 0.02739190114) 63 127 2
(0.8014616212 0.04402694068 0.0552422487 0.09926918938) 216 393 2
(0.2730739901 0.1299810887 0.2334819162 0.3634630049) 369 699 2
(0.3488491085 0.1666778856 0.3255754458 0.1588975602) 435 854 1
(0.5830105114 0.2084947443 0.0880978485 0.1203968958) 561 1072 1
(0.02028612776 0.2970460357 0.1928109004 0.4898569361) 451 881 1
(0.09500259525 0.4524987024 0.2924319637 0.1600667387) 336 673 1
(0.4521737325 0.01843256769 0.2739131337 0.255480566) 642 1245 2
(0.2731441637 0.03878411681 0.3246438013 0.3634279181) 296 553 2
(0.5989664731 0.2005167634 0.01619894137 0.1843178221) 316 633 1
(0.03110778232 0.2681460634 0.4844461088 0.2163000454) 313 627 2
(0.2267104223 0.3866447889 0.1829305463 0.2037142426) 581 1126 2
(0.188613817 0.2970749784 0.1086181131 0.4056930915) 239 438 2
(0.3461564634 0.1215611671 0.2053606012 0.3269217683) 69 138 1
(0.4751826837 0.2624086582 0.2197739209 0.04263473724) 239 438 1
(0.1158880169 0.4420559915 0.4213025666 0.02075342489) 175 311 1
(0.06759445757 0.1652205269 0.4662027712 0.3009822443) 158 314 1
(0.140662283 0.4296688585 0.09165837737 0.3380104811) 497 970 1
(0.1573620238 0.2798842422 0.4213189881 0.1414347459) 55 108 1
(0.1260535303 0.01357117832 0.4234020565 0.4369732349) 107 214 1
(0.1323048734 0.1465525792 0.4338475633 0.2872949842) 114 229 2
(0.3670468158 0.3164765921 0.1999936543 0.1164829378) 315 630 2
(0.610979898 0.1012667144 0.09324333657 0.194510051) 150 300 1
(0.2364412497 0.08612654315 0.3817793751 0.295652832) 638 1235 1
(0.323166013 0.10591703 0.3384169935 0.2324999635) 492 957 1
(0.2518831764 0.3740584118 0.2103051406 0.1637532712) 374 746 2
(0.1199842711 0.1208987098 0.3191091547 0.4400078645) 556 1081 1
(0.04747007196 0.3281020157 0.1481629483 0.476264964) 462 884 2
(0.5888401445 0.04571783909 0.2055799277 0.1598620886) 59 118 2
(0.3882551062 0.2638404654 0.3058724469 0.04203198152) 317 635 2
(0.1774269555 0.1531748476 0.2581116746 0.4112865223) 593 1151 1
(0.008594750975 0.3786443967 0.4957026245 0.1170582278) 308 617 2
(0.02690393778 0.4865480311 0.3093079651 0.177240066) 173 346 2
(0.01134382977 0.4943280851 0.2171787192 0.2771493659) 577 1122 1
(0.02891704673 0.2876149901 0.1979264865 0.4855414766) 19 1297 1
(0.01492448923 0.4925377554 0.0736554499 0.4188823055) 197 355 1
(0.153118289 0.1660201351 0.4234408555 0.2574207204) 514 1002 2
(0.6506489526 0.173595355 0.001080168709 0.1746755237) 58 116 1
(0.1866838633 0.4066580683 0.3727117624 0.03394630593) 243 447 1
(0.2911188216 0.1666311477 0.1878094416 0.3544405892) 628 1218 1
(0.368536102 0.315731949 0.2032899809 0.1124419681) 274 546 2
(0.01310441725 0.4621288424 0.4934477914 0.03131894896) 179 358 2
(0.6972544969 0.1513727516 0.01970073706 0.1316720145) 396 792 2
(0.1473116901 0.4263441549 0.3894714221 0.03687273283) 194 388 2
(0.3057808073 0.3471095964 0.2925206885 0.05458890788) 554 1078 1
(0.1492951876 0.4253524062 0.1810973804 0.2442550258) 445 871 1
(0.3636133084 0.3181933458 0.1378903977 0.1803029481) 258 516 2
(0.05527103673 0.4723644816 0.1364934173 0.3358710643) 497 970 1
(0.01188859329 0.1302153821 0.3638403213 0.4940557034) 596 1139 2
(0.3936498233 0.03949507064 0.2636800177 0.3031750884) 595 1155 1
(0.2484927039 0.09243585938 0.2833177887 0.375753648) 480 936 1
(0.08245562644 0.4587721868 0.209492787 0.2492793998) 273 546 2
(0.9431776994 0.02841115031 0.01398241192 0.01442873839) 195 388 2
(0.1636034482 0.2126943294 0.2055039465 0.4181982759) 209 418 1
(0.3439513102 0.3280243449 0.1854018802 0.1426224647) 319 639 2
(0.3227066732 0.1926665442 0.3386466634 0.1459801192) 195 391 2
(0.1292796553 0.4353601723 0.1526106344 0.282749538) 486 948 2
(0.4682390666 0.2658804667 0.0380855829 0.2277948838) 271 540 2
(0.8278113401 0.07297197464 0.08609432993 0.01312235529) 134 269 2
(0.07836640628 0.4608167969 0.07761511544 0.3832016814) 387 735 1
(0.4065416313 0.1795245782 0.1172046062 0.2967291844) 353 706 1
(0.4403897279 0.0941622764 0.1856428597 0.2798051361) 612 1187 1
(0.7707042434 0.1146478783 0.07169017798 0.04295770032) 501 976 2
(0.7190880818 0.1330144034 0.007441555686 0.1404559591) 606 1176 1
(0.08656310855 0.398313995 0.05840445068 0.4567184457) 279 518 2
(0.2410059348 0.3794970326 0.3045498012 0.07494723138) 594 1154 1
(0.4403184472 0.2798407764 0.2210205126 0.05882026382) 290 578 2
(0.08082568307 0.3441731179 0.4595871585 0.1154140405) 210 421 2
(0.602765536 0.198617232 0.0839781361 0.1146390959) 268 536 2
(0.7384758494 0.006301505005 0.1244605703 0.1307620753) 56 73 2
(0.1004234221 0.449788289 0.3792028919 0.07058539706) 597 1159 2
(0.134787592 0.432606204 0.0992259894 0.3333802146) 319 638 1
(0.4444703984 0.2777648008 0.1432577436 0.1345070572) 311 623 1
(0.2767678464 0.1429214443 0.2186946325 0.3616160768) 52 104 1
(0.6192424451 0.1903787774 0.01109116823 0.1792876092) 473 924 1
(0.5306943915 0.2346528042 0.05148401242 0.1831687918) 387 735 1
(0.3138219316 0.2548993154 0.3430890342 0.08818971885) 10 21 2
(0.2687852558 0.3656073721 0.0189770909 0.3466302812) 520 359 2
(0.1963894664 0.4018052668 0.08721933711 0.3145859297) 329 659 1
(0.06667209374 0.3933439739 0.07331997921 0.4666639531) 542 1036 2
(0.3427355585 0.001752356788 0.326879864 0.3286322208) 581 1128 1
(0.6878689658 0.1560655171 0.1139478079 0.04211770916) 544 1059 1
(0.1159408106 0.2063840953 0.4420295947 0.2356454994) 139 278 2
(0.4886327867 0.2556836066 0.01545677606 0.2402268306) 165 291 1
(0.4707021719 0.2646489141 0.2141365467 0.05051236734) 154 308 2
(0.5759660167 0.1630664144 0.04895057721 0.2120169916) 589 2630 1
(0.8534914659 0.05617640899 0.01707785803 0.07325426703) 278 556 1
(0.31637803 0.341810985 0.3146852153 0.02712576969) 222 444 2
(0.2687951207 0.224947033 0.3656024396 0.1406554066) 272 545 2
(0.4645015414 0.2677492293 0.05719355105 0.2105556782) 566 1082 1
(0.7201925994 0.02796451331 0.1399037003 0.111939187) 418 837 2
(0.5904988254 0.2047505873 0.1233100716 0.0814405157) 172 342 2
(0.136451508 0.431774246 0.3740123795 0.05776186654) 592 1150 1
(0.0357255905 0.1547540063 0.4821372047 0.3273831984) 418 834 1
(0.1020207482 0.3736104889 0.4489896259 0.07537913706) 580 1127 2
(0.03785886157 0.2656781884 0.4810705692 0.2153923808) 603 1168 1
(0.3525700981 0.05593162334 0.2677833276 0.3237149509) 530 1031 1
(0.176157336 0.411921332 0.2576703374 0.1542509946) 552 1055 1
(0.6108229271 0.008088532995 0.1865000034 0.1945885364) 597 1141 2
(0.4351748676 0.09100422022 0.191408346 0.2824125662) 561 1072 2
(0.07498463134 0.097484302 0.3650233823 0.4625076843) 590 1145 1
(0.3504969633 0.3247515183 0.06485482972 0.2598966886) 563 1094 2
(0.1575654141 0.4212172929 0.2106278529 0.2105894401) 207 375 1
(0.06332008105 0.4683399595 0.4218838644 0.04645609508) 332 662 2
(0.8009410916 0.09952945419 0.01596979397 0.08355966022) 118 234 2
(0.3836677212 0.124130826 0.1840353134 0.3081661394) 477 913 2
(0.6625074956 0.01094231235 0.1687462522 0.1578039399) 193 384 1
(0.435063824 0.282468088 0.1566673427 0.1258007453) 131 263 1
(0.04568520479 0.4771573976 0.1852592452 0.2918981524) 540 1051 1
(0.02662722895 0.2415122515 0.4866863855 0.245174134) 195 388 1
(0.6050504981 0.1974747509 0.02357732917 0.1738974218) 21 42 2
(0.1520644823 0.4239677589 0.2624025594 0.1615651994) 88 137 1
(0.2372819197 0.2835502315 0.3813590402 0.09780880861) 296 593 2
(0.2847594583 0.1087823389 0.248837932 0.3576202709) 598 1161 1
(0.29963283 0.350183585 0.3187445534 0.03143903165) 578 1105 1
(0.327802638 0.1746463663 0.1614523147 0.336098681) 554 1059 2
(0.6872438207 0.1563780896 0.1386261423 0.01775194738) 546 1044 1
(0.3779530646 0.1610969452 0.3110234677 0.1499265225) 507 986 1
(0.1313832392 0.05191841197 0.4343083804 0.3823899685) 135 271 2
(0.1509191768 0.4245404116 0.2573446184 0.1671957932) 18 1296 2
(0.5293374924 0.1224465999 0.1128846539 0.2353312538) 485 928 2
(0.0878720674 0.4560639663 0.05526987467 0.4007940916) 596 1155 2
(0.2668014193 0.3665992904 0.03871634907 0.3278829413) 35 71 1
(0.2481594218 0.0150154572 0.3609048319 0.3759202891) 523 1000 2
(0.5929998476 0.06546645239 0.1380336238 0.2035000762) 298 557 2
(0.5871141284 0.2064429358 0.02739007425 0.1790528616) 496 949 1
(0.5907161527 0.04974527149 0.2046419236 0.1548966521) 598 1162 2
(0.8253789621 0.08731051895 0.04815859461 0.03915192434) 579 1125 1
(0.255351822 0.2047914099 0.1675326791 0.372324089) 232 464 1
(0.1963137087 0.4018431456 0.3052603889 0.0965827567) 108 216 2
(0.02334024998 0.3230657011 0.488329875 0.1652641739) 571 1110 2
(0.06103773266 0.4694811337 0.219048551 0.2504325827) 615 1193 2
(0.676335059 0.1618324705 0.08909451131 0.07273795917) 316 593 1
(0.1172448753 0.2980236146 0.1433539477 0.4413775623) 502 960 2
(0.01844584647 0.202404248 0.4907770768 0.2883728288) 148 294 1
(0.04495974605 0.1304506775 0.3470694495 0.477520127) 210 381 2
(0.3990394014 0.297591867 0.3004802993 0.002888432294) 219 438 2
(0.5642745235 0.2178627383 0.08454366423 0.133319074) 598 1161 2
(0.1598002177 0.4200998911 0.1885476944 0.2315521967) 452 865 1
(0.9380432617 0.03097836914 0.01772292543 0.01325544371) 470 899 1
(0.7447521348 0.1257677205 0.1276239326 0.001856212086) 116 233 2
(0.3713564258 0.0850780788 0.2292437083 0.3143217871) 167 295 2
(0.4440111633 0.233578401 0.2779944183 0.04441601738) 576 1117 1
(0.4227476632 0.1459290558 0.1426971126 0.2886261684) 223 446 1
(0.5946008803 0.2026995599 0.1753792826 0.02732027726) 513 997 2
(0.02481052789 0.02315819412 0.4875947361 0.4644365419) 551 1072 2
(0.4480974717 0.2759512642 0.02898606408 0.2469652001) 512 995 2
(0.1984410301 0.400779485 0.2284511849 0.1723283001) 536 1041 2
(0.2474716999 0.3384090868 0.37626415 0.03785506326) 492 957 1
(0.4903280583 0.1692078424 0.08562812845 0.2548359708) 375 711 2
(0.440418292 0.279790854 0.01378520458 0.2660056494) 530 1031 2
(0.8121856222 0.0939071889 0.0508165717 0.04309061719) 337 672 2
(0.549762615 0.08788110344 0.2251186925 0.137237589) 527 1027 2
(0.1499902182 0.4250048909 0.06320695201 0.3617979389) 195 391 1
(0.9566496384 0.02167518078 0.01349010861 0.008185072172) 166 332 2
(0.2096569613 0.3951715194 0.2324273271 0.1627441922) 44 88 2
(0.427755484 0.286122258 0.2111075278 0.07501473023) 51 63 1
(0.02543108305 0.4872844585 0.05920386602 0.4280805925) 136 273 1
(0.03133178911 0.1956675537 0.2886665518 0.4843341054) 323 646 1
(0.1435015515 0.4282492243 0.3039392171 0.1243100072) 90 141 1
(0.05230455819 0.004651891525 0.4738477209 0.4691958294) 72 145 2
(0.8658725378 0.06706373111 0.03843997565 0.02862375546) 607 1178 2
(0.7047002568 0.05349150363 0.1476498716 0.09415836798) 197 392 1
(0.494615956 0.1852169221 0.252692022 0.06747509996) 87 172 1
(0.1731576739 0.4134211631 0.1449028145 0.2685183485) 395 791 1
(0.1709081479 0.1693258809 0.4145459261 0.2452200451) 346 690 1
(0.5786774163 0.2063684312 0.2106612919 0.004292860648) 284 566 1
(0.4961280756 0.01952441524 0.2519359622 0.232411547) 23 44 1
(0.6260536917 0.007759145128 0.1869731541 0.179214009) 480 199 1
(0.1561923114 0.3596771985 0.06222664582 0.4219038443) 137 235 2
(0.3390982361 0.3304508819 0.2319314405 0.0985194414) 502 960 1
(0.1083946122 0.4458026939 0.2749765067 0.1708261872) 640 839 2
(0.4309281149 0.1937156774 0.0908202651 0.2845359425) 309 579 2
(0.3280680485 0.2243261768 0.1116397989 0.3359659757) 267 495 2
(0.2884727274 0.3557636363 0.09043625487 0.2653273814) 455 890 1
(0.08369088057 0.4581545597 0.04635604011 0.4117985196) 515 1001 2
(0.4014479268 0.2499444539 0.2992760366 0.04933158276) 629 1220 2
(0.3154106714 0.07798129455 0.3422946643 0.2643133697) 238 477 2
(0.3279360793 0.3360319603 0.3062297768 0.02980218352) 587 1141 1
(0.1214100198 0.4392949901 0.01337513634 0.4259198538) 451 879 2
(0.6287616707 0.1856191647 0.17453491 0.01108425469) 523 1018 2
(0.1457393394 0.4271303303 0.4154365846 0.01169374571) 506 987 1
(0.1634897515 0.3756072488 0.4182551243 0.04264787547) 271 543 2
(0.1229065705 0.4385467148 0.1861371971 0.2524095176) 75 111 1
(0.07257984912 0.4637100754 0.3882431964 0.07546687902) 544 1040 1
(0.1568266066 0.1137018985 0.3078847982 0.4215866967) 522 1016 1
(0.01050040284 0.4947497986 0.2904958392 0.2042539594) 640 1241 1
(0.06498478135 0.1233977872 0.3441098221 0.4675076093) 189 378 1
(0.05990243365 0.4700487832 0.4463487191 0.02370006403) 358 714 2
(0.4534287248 0.1543309923 0.2732856376 0.1189546453) 248 497 2
(0.1192788978 0.4403605511 0.3009673728 0.1393931783) 170 301 1
(0.3675998035 0.3162000983 0.1903913726 0.1258087257) 366 733 1
(0.003381456887 0.4983092716 0.06560700642 0.4327022651) 307 615 1
(0.1950143205 0.1825436331 0.2199492066 0.4024928397) 244 449 2
(0.532160269 0.1312642914 0.2339198655 0.102655574) 584 1135 2
(0.2933179628 0.2974693511 0.05587166748 0.3533410186) 610 1183 1
(0.1661967542 0.4169016229 0.222375244 0.1945263789) 468 915 1
(0.1614756807 0.4192621597 0.4094704293 0.009791730382) 470 917 2
(0.3017071797 0.3491464101 0.1340794811 0.2150669291) 400 800 2
(0.1566783039 0.4216608481 0.3776437487 0.04401709934) 602 1166 2
(0.8889742896 0.05551285522 0.0355667647 0.01994609052) 127 255 1
(0.3205361343 0.3397319328 0.02084781157 0.3188841213) 289 539 1
(0.07225480356 0.4638725982 0.314846454 0.1490261442) 488 952 2
(0.5805379992 0.2097310004 0.07531376638 0.134417234) 565 1096 2
(0.1478827131 0.06233155154 0.3637270919 0.4260586434) 550 1069 1
(0.5490754912 0.1294370766 0.09602517784 0.2254622544) 116 193 2
(0.3079551671 0.2886716157 0.05735080075 0.3460224164) 94 149 2
(0.5040196867 0.07532595565 0.2479901566 0.172664201) 368 737 2
(0.5725024303 0.2029724689 0.2137487848 0.010776316) 372 745 2
(0.3554151898 0.3222924051 0.1006005533 0.2216918518) 541 1050 2
(0.2334766964 0.3832616518 0.08018786698 0.3030737848) 462 900 2
(0.4593703608 0.2703148196 0.1659186868 0.1043961328) 503 981 1
(0.09172881258 0.4541355937 0.1911760288 0.2629595649) 131 223 1
(0.8672251033 0.06313584102 0.00325160733 0.06638744835) 367 695 2
(0.01999719743 0.4900014013 0.2027570776 0.2872443237) 580 1127 1
(0.1430619994 0.4284690003 0.3119635986 0.1165054017) 165 331 1
(0.7009598822 0.09042087219 0.1495200589 0.05909918671) 257 512 1
(0.1063724516 0.4468137742 0.02401316942 0.4228006048) 560 1070 1
(0.6433600642 0.1419646655 0.0363553024 0.1783199679) 203 367 2
(0.704278233 0.1478608835 0.1027663587 0.04509452478) 553 1073 2
(0.3279659258 0.04547132389 0.2905457132 0.3360170371) 92 145 2
(0.4649268588 0.1690205138 0.09851605678 0.2675365706) 438 858 1
(0.3331184746 0.08025582256 0.2531849402 0.3334407627) 325 611 2
(0.0219640508 0.4890179746 0.1836185799 0.3053993947) 382 765 1
(0.6593948513 0.1703025744 0.02269069036 0.147611884) 573 1095 1
(0.4504000189 0.1212775903 0.2747999906 0.1535224003) 288 574 1
(0.2283116809 0.3858441596 0.352490557 0.03335360261) 133 266 2
(0.03954928502 0.4802253575 0.1744241918 0.3058011657) 148 294 2
(0.4306392991 0.2846803505 0.01180053877 0.2728798117) 357 675 1
(0.2724873117 0.3637563441 0.3597874541 0.003968890015) 602 1169 1
(0.2530964818 0.03154402887 0.3734517591 0.3419077303) 289 576 1
(0.03406629139 0.2954319019 0.1875349524 0.4829668543) 172 344 1
(0.3106868931 0.3446565535 0.1268242833 0.2178322701) 651 1253 2
(0.5207197946 0.2139215362 0.02571856647 0.2396401027) 111 222 1
(0.08271284362 0.3948512974 0.4586435782 0.06379228083) 533 1035 1
(0.155448463 0.4222757685 0.1349833268 0.2872924417) 298 597 1
(0.08631075764 0.4568446212 0.3508467728 0.1059978483) 75 148 2
(0.674495361 0.0757986747 0.1627523195 0.08695364482) 125 251 2
(0.1103215935 0.4448392033 0.3321876161 0.1126515872) 553 1073 2
(0.2955984795 0.3522007602 0.294122981 0.05807777928) 532 1033 2
(0.6726083699 0.163695815 0.124965161 0.03873065404) 492 959 2
(0.1759958503 0.1500645889 0.4120020749 0.261937486) 458 896 2
(0.04310255198 0.478448724 0.1175058058 0.3609429182) 77 152 2
(0.3951859033 0.1394633334 0.3024070483 0.162943715) 544 1059 2
(0.3901787675 0.1903639469 0.3049106163 0.1145466694) 252 505 2
(0.7517346942 0.1241326529 0.04705174831 0.07708090459) 466 911 1
(0.1506684602 0.4246657699 0.2751374029 0.149528367) 335 631 1
(0.1263469773 0.4244420315 0.4368265113 0.01238447988) 362 722 1
(0.1274214487 0.4362892757 0.2513470754 0.1849422002) 517 989 1
(0.001430929418 0.3072734987 0.1920110366 0.4992845353) 490 955 1
(0.3324104501 0.3337947749 0.2993515553 0.0344432196) 234 468 2
(0.1442879483 0.4278560259 0.2488715395 0.1789844863) 419 836 2
(0.1488405412 0.04102164045 0.4255797294 0.3845580889) 190 381 2
(0.1317316559 0.4341341721 0.2468851694 0.1872490027) 193 386 2
(0.1879453081 0.004658738836 0.406027346 0.4013686071) 232 465 2
(0.5733865346 0.2133067327 0.1567007249 0.05660600777) 76 150 2
(0.1923240604 0.3728721849 0.03096578495 0.4038379698) 545 1060 1
(0.5368723784 0.01742158054 0.2141422303 0.2315638108) 270 540 1
(0.008616393566 0.4956918032 0.366670114 0.1290216892) 292 585 1
(0.4284804954 0.1812573539 0.2857597523 0.1045023984) 487 948 1
(0.4104963021 0.002816469614 0.2947518489 0.2919353793) 271 543 2
(0.1296532994 0.4351733503 0.3755845781 0.05958877218) 322 644 2
(0.07531150031 0.4623442498 0.3405670528 0.121777197) 335 670 2
(0.1785014265 0.1353614021 0.4107492868 0.2753878847) 539 1049 2
(0.1653000681 0.2488324376 0.4173499659 0.1685175283) 449 878 2
(0.1328247086 0.1997823646 0.4335876457 0.2338052811) 214 429 2
(0.05729544056 0.4713522797 0.2621326025 0.2092196773) 118 236 2
(0.5392298263 0.2303850869 0.1226228664 0.1077622205) 576 1119 2
(0.5600604528 0.2199697736 0.1741541074 0.04581566622) 541 1052 2
(0.1192441706 0.4403779147 0.0063127236 0.4340651911) 585 1137 1
(0.4887105995 0.2556447003 0.1379099522 0.1177347481) 175 348 2
(0.1230857437 0.3039363533 0.4384571282 0.1345207748) 632 1223 1
(0.4415689363 0.2792155318 0.1839862599 0.09522927193) 578 1124 1
(0.215315036 0.2876537338 0.1046887482 0.392342482) 352 704 1
(0.2518830542 0.1067426222 0.3740584729 0.2673158507) 193 384 1
(0.375126386 0.312436807 0.1913395565 0.1210972505) 570 1107 2
(0.06653381122 0.06103151303 0.4667330944 0.4057015814) 495 963 1
(0.6994761888 0.06042655009 0.1502619056 0.0898353555) 252 502 1
(0.05608904919 0.2032280267 0.2687274487 0.4719554754) 460 898 1
(0.08748143528 0.4562592824 0.0630725327 0.3931867497) 529 2624 2
(0.0546734101 0.4685198572 0.004143437712 0.472663295) 257 475 2
(0.2843724438 0.3578137781 0.3574065803 0.0004071978354) 592 1149 2
(0.5638775729 0.2065622856 0.2180612136 0.01149892793) 291 580 1
(0.3121779805 0.3439110098 0.2536747795 0.09023623026) 217 432 2
(0.6512948698 0.1743525651 0.0634177028 0.1109348623) 454 869 1
(0.4118221694 0.2940889153 0.09587054678 0.1982183685) 521 1015 1
(0.01743615611 0.2408943107 0.2503876112 0.4912819219) 494 945 2
(0.1487242836 0.4256378582 0.4057678163 0.01987004191) 312 624 2
(0.0655403156 0.4672298422 0.01800306204 0.4492267802) 573 1111 2
(0.2939497918 0.2225054388 0.3530251041 0.1305196653) 538 1048 2
(0.4494778028 0.2752610986 0.108406643 0.1668544556) 373 744 2
(0.3191349806 0.3404325097 0.2422825364 0.09814997327) 203 404 2
(0.08929904684 0.006859185235 0.4484912913 0.4553504766) 111 222 1
(0.1363943715 0.02522723066 0.4065755836 0.4318028142) 438 858 1
(0.2689491681 0.2979989808 0.0675264351 0.3655254159) 498 971 1
(0.5138357074 0.2430821463 0.1584901666 0.08459197966) 70 140 2
(0.07477873046 0.4626106348 0.1932692677 0.2693413671) 473 921 2
(0.06609498301 0.4669525085 0.2068899511 0.2600625574) 112 224 2
(0.3060052182 0.1127798751 0.2342175158 0.3469973909) 77 154 1
(0.2455195901 0.06015097159 0.3772402049 0.3170892334) 620 759 1
(0.07318407076 0.2267108862 0.4634079646 0.2366970784) 531 1034 2
(0.09404982715 0.1900700173 0.4529750864 0.2629050691) 556 1079 1
(0.4123784524 0.2938107738 0.1170077643 0.1768030095) 326 650 2
(0.531026593 0.2344867035 0.1642893048 0.07019739864) 157 315 1
(0.6944489342 0.1527755329 0.03367366099 0.1191018719) 536 1041 2
(0.2274006879 0.03003962747 0.3862996561 0.3562600286) 577 1119 1
(0.3893494974 0.3007758317 0.3053252513 0.004549419632) 131 260 1
(0.2556011072 0.0160746484 0.356124798 0.3721994464) 222 405 2
(0.125176501 0.4287419276 0.4374117495 0.008669821857) 214 429 2
(0.254299554 0.372850223 0.1831743028 0.1896759202) 250 461 1
(0.3837375211 0.2413709891 0.06676025036 0.3081312394) 140 241 2
(0.4399371071 0.2184729112 0.2800314465 0.06155853531) 612 1188 2
(0.07982529096 0.1222297306 0.4600873545 0.337857624) 524 1021 2
(0.2551239089 0.2731186947 0.09931935081 0.3724380455) 623 1208 1
(0.1516025297 0.09093186673 0.3332668684 0.4241987352) 597 1141 2
(0.2881937911 0.3559031045 0.3286365221 0.02726658234) 174 309 1
(0.2210137608 0.3894931196 0.1954473726 0.194045747) 217 395 1
(0.6894045641 0.1552977179 0.08805670828 0.06724100964) 250 498 2
(0.4851765667 0.2574117166 0.2542509062 0.003160810431) 368 734 2
(0.6638270541 0.1680864729 0.1423405246 0.02574594835) 48 57 1
(0.2103954136 0.03283684338 0.3948022932 0.3619654498) 484 945 2
(0.3986533338 0.02065471383 0.3006733331 0.2800186192) 153 307 2
(0.8612789766 0.06278399913 0.006576512557 0.06936051169) 571 1109 1
(0.6531299511 0.1734350244 0.133646527 0.03978849747) 559 1087 1
(0.3804425136 0.3097787432 0.189072394 0.1207063491) 533 1019 1
(0.1047365343 0.4476317329 0.3936367423 0.05399499055) 333 664 2