/*--------------------------------*- C++ -*----------------------------------*\
  =========                 |
  \\      /  F ield         | OpenFOAM: The Open Source CFD Toolbox
   \\    /   O peration     | Website:  https://openfoam.org
    \\  /    A nd           | Version:  7
     \\/     M anipulation  |
\*---------------------------------------------------------------------------*/
FoamFile
{
    version     2.0;
    format      ascii;
    class       labelField;
    location    "0.025/lagrangian/dsmc";
    object      origId;
}
// * * * * * * * * * * * * * * * * * * * * * * * * * * * * * * * * * * * * * //


274662
(
0
19
29
40
41
44
57
69
71
74
75
76
82
86
87
88
93
95
97
99
100
103
105
110
113
118
122
128
131
149
151
160
164
168
171
172
185
188
201
212
224
226
234
235
238
239
241
242
249
256
258
260
265
270
281
283
285
287
291
292
294
301
304
305
307
315
316
331
335
337
348
351
359
366
382
388
434
440
441
446
447
453
456
462
465
473
474
486
488
500
507
517
522
531
534
546
549
550
566
576
579
582
590
599
617
636
640
646
654
656
662
683
708
710
714
715
726
735
737
741
746
748
763
764
773
777
790
795
796
822
823
827
835
843
845
859
865
866
868
871
887
891
893
904
915
916
920
923
924
926
927
929
948
958
961
964
970
975
984
985
996
998
1006
1015
1017
1021
1031
1034
1038
1049
1050
1052
1058
1059
1061
1071
1075
1083
1086
1092
1106
1107
1113
1114
1123
1127
1131
1135
1153
1175
1195
1197
1199
1205
1206
1213
1219
1221
1223
1225
1230
1237
1242
1250
1256
1258
1259
1260
1264
1272
1274
1289
1290
1300
1302
1311
1322
1325
1330
1332
1338
1341
1344
1345
1349
1351
1366
1372
1373
1375
1380
1383
1393
1400
1410
1411
1413
1422
1432
1434
1442
1453
1454
1455
1463
1466
1470
1473
1481
1484
1487
1489
1490
1492
1493
1510
1513
1514
1536
1544
1549
1550
1551
1552
1554
1558
1562
1568
1571
1595
1599
1604
1608
1609
1612
1616
1621
1625
1628
1644
1647
1654
1657
1662
1667
1669
1671
1672
1688
1704
1707
1711
1712
1722
1724
1726
1734
1736
1737
1739
1740
1746
1748
1755
1759
1762
1764
1772
1776
1777
1778
1797
1822
1826
1833
1841
1849
1850
1868
1872
1875
1885
1889
1890
1905
1906
1917
1919
1933
1934
1935
1945
1955
1973
1976
1978
1985
1987
1992
1998
2000
2010
2018
2053
2056
2059
2078
2083
2084
2087
2088
2091
2100
2104
2105
2106
2113
2115
2129
2138
2143
2146
2159
2160
2161
2162
2172
2173
2178
2180
2183
2200
2202
2209
2236
2237
2241
2244
2247
2250
2260
2263
2265
2272
2279
2286
2292
2302
2307
2314
2320
2328
2333
2336
2343
2350
2365
2371
2375
2383
2386
2390
2411
2412
2417
2419
2423
2425
2431
2449
2464
2481
2486
2491
2493
2507
2518
2520
2521
2525
2541
2544
2555
2558
2560
2562
2567
2582
2583
2597
2602
2605
2609
2617
2620
2631
2633
2636
2640
2641
2645
2654
2657
2665
2683
2687
2695
2697
2699
2703
2705
2727
2732
2744
2751
2754
2770
2779
2784
2787
2791
2794
2798
2805
2823
2824
2831
2833
2837
2838
2843
2847
2852
2893
2898
2912
2917
2921
2922
2925
2937
2938
2940
2943
2947
2950
2961
2978
2986
3008
3010
3019
3030
3031
3034
3058
3068
3070
3075
3082
3088
3097
3113
3119
3125
3137
3141
3143
3148
3153
3155
3157
3169
3171
3172
3175
3179
3182
3186
3188
3206
3215
3219
3230
3245
3246
3268
3274
3276
3282
3292
3293
3296
3299
3302
3304
3309
3314
3329
3334
3337
3341
3350
3355
3360
3361
3369
3371
3375
3376
3381
3389
3391
3406
3420
3424
3432
3436
3445
3448
3452
3453
3455
3457
3461
3469
3477
3495
3498
3499
3503
3513
3517
3535
3541
3543
3547
3548
3559
3563
3564
3565
3566
3572
3573
3574
3584
3599
3601
3607
3617
3620
3632
3633
3636
3639
3648
3649
3650
3653
3670
3685
3686
3688
3691
3692
3693
3698
3699
3709
3720
3725
3730
3764
3766
3767
3768
3773
3774
3778
3782
3785
3797
3806
3832
3847
3849
3851
3853
3858
3869
3874
3885
3894
3895
3902
3903
3920
3929
3931
3939
3944
3948
3953
3957
3960
3978
3981
3984
3991
3998
4009
4010
4012
4019
4023
4025
4026
4032
4034
4035
4048
4056
4061
4066
4069
4072
4080
4081
4088
4093
4094
4097
4103
4106
4114
4121
4128
4132
4135
4147
4152
4158
4159
4173
4188
4194
4199
4200
4204
4214
4221
4227
4235
4245
4247
4248
4261
4269
4285
4287
4291
4295
4300
4303
4304
4320
4321
4329
4331
4334
4341
4349
4356
4372
4377
4382
4396
4417
4419
4420
4421
4448
4450
4461
4472
4476
4478
4481
4483
4489
4499
4503
4507
4511
4517
4520
4534
4536
4539
4543
4551
4553
4556
4574
4577
4579
4584
4600
4603
4604
4616
4621
4624
4642
4652
4658
4666
4667
4671
4677
4699
4702
4710
4719
4721
4722
4726
4729
4735
4739
4740
4746
4747
4749
4758
4778
4782
4787
4790
4791
4796
4799
4812
4813
4818
4825
4835
4836
4845
4848
4850
4852
4862
4866
4872
4876
4880
4887
4889
4892
4902
4905
4913
4915
4920
4924
4926
4928
4938
4941
4963
4970
4992
4993
4996
4999
5011
5013
5022
5024
5027
5030
5031
5040
5044
5046
5055
5056
5057
5065
5066
5074
5077
5078
5090
5091
5097
5109
5114
5120
5126
5129
5132
5133
5172
5191
5196
5207
5210
5218
5219
5220
5226
5245
5255
5287
5289
5294
5296
5300
5303
5306
5311
5312
5314
5317
5321
5328
5332
5342
5354
5360
5362
5363
5364
5368
5373
5380
5388
5390
5403
5404
5411
5432
5433
5446
5451
5452
5460
5461
5465
5471
5478
5483
5491
5506
5513
5517
5528
5530
5535
5541
5546
5547
5548
5552
5560
5569
5574
5576
5578
5585
5592
5621
5628
5629
5648
5653
5667
5670
5671
5674
5676
5679
5697
5716
5718
5727
5733
5749
5755
5757
5769
5772
5778
5782
5786
5789
5798
5808
5816
5818
5823
5825
5829
5839
5845
5877
5878
5882
5884
5900
5906
5917
5918
5921
5933
5935
5937
5940
5944
5945
5966
5976
5977
6001
6017
6020
6027
6032
6034
6037
6060
6086
6095
6107
6118
6120
6126
6139
6148
6149
6156
6159
6160
6162
6176
6191
6193
6202
6207
6208
6212
6245
6246
6247
6250
6255
6264
6274
6282
6283
6284
6291
6297
6309
6320
6334
6338
6342
6346
6359
6364
6372
6377
6383
6384
6388
6396
6398
6417
6421
6422
6431
6432
6434
6437
6445
6452
6466
6467
6468
6484
6485
6490
6493
6494
6498
6499
6500
6505
6506
6519
6529
6539
6542
6544
6550
6555
6557
6566
6571
6594
6608
6609
6612
6613
6616
6620
6626
6629
6632
6647
6652
6671
6672
6680
6683
6693
6695
6701
6707
6710
6713
6725
6727
6734
6739
6743
6748
6750
6754
6760
6761
6763
6783
6806
6807
6810
6812
6818
6823
6824
6835
6841
6855
6867
6870
6879
6882
6892
6899
6904
6907
6910
6919
6920
6937
6943
6947
6955
6978
6981
6983
7006
7008
7010
7020
7021
7029
7038
7039
7044
7046
7047
7050
7056
7059
7066
7067
7068
7069
7089
7106
7111
7112
7113
7115
7122
7137
7144
7145
7149
7154
7156
7157
7167
7190
7196
7198
7201
7202
7226
7238
7239
7248
7249
7251
7252
7261
7262
7265
7266
7282
7289
7294
7297
7312
7325
7326
7331
7336
7339
7343
7355
7359
7375
7380
7388
7390
7393
7401
7412
7413
7416
7419
7439
7450
7458
7460
7461
7462
7463
7470
7480
7482
7485
7492
7498
7504
7506
7510
7512
7519
7521
7524
7526
7527
7531
7532
7538
7546
7551
7561
7570
7585
7594
7603
7604
7608
7613
7616
7617
7627
7637
7640
7641
7645
7649
7652
7666
7683
7685
7705
7706
7712
7722
7728
7744
7751
7758
7764
7768
7771
7774
7777
7787
7792
7799
7802
7803
7804
7805
7806
7809
7813
7823
7827
7829
7832
7836
7839
7842
7846
7877
7880
7896
7917
7921
7924
7928
7930
7944
7950
7954
7957
7958
7961
7962
7965
7970
7975
7977
7983
7984
7996
7998
8002
8005
8006
8007
8008
8023
8031
8036
8038
8040
8044
8048
8050
8063
8073
8075
8083
8099
8105
8113
8121
8126
8152
8165
8167
8177
8190
8196
8197
8211
8216
8222
8237
8238
8240
8243
8248
8254
8258
8274
8281
8282
8288
8292
8295
8300
8304
8305
8309
8313
8326
8327
8329
8340
8342
8350
8352
8356
8361
8363
8366
8377
8415
8422
8433
8438
8443
8444
8446
8471
8474
8475
8490
8497
8502
8509
8515
8532
8539
8543
8549
8550
8564
8565
8569
8573
8587
8590
8596
8599
8609
8618
8631
8632
8641
8642
8646
8649
8651
8664
8674
8686
8687
8690
8693
8696
8698
8701
8703
8709
8722
8723
8727
8729
8730
8732
8733
8736
8744
8747
8756
8758
8774
8784
8786
8792
8796
8798
8799
8810
8813
8818
8819
8821
8822
8840
8846
8850
8851
8853
8855
8860
8865
8866
8870
8871
8872
8898
8911
8918
8920
8923
8924
8928
8936
8950
8956
8958
8959
8963
8964
8967
8971
8988
8989
8993
8995
8997
9002
9007
9012
9014
9018
9023
9024
9029
9030
9031
9047
9049
9055
9059
9060
9063
9067
9074
9077
9078
9085
9100
9116
9121
9131
9146
9155
9158
9172
9179
9181
9186
9192
9193
9196
9204
9205
9207
9219
9222
9240
9249
9262
9263
9267
9271
9280
9282
9286
9287
9296
9298
9303
9311
9319
9325
9333
9338
9347
9362
9369
9372
9382
9391
9396
9403
9418
9425
9430
9431
9440
9451
9453
9457
9466
9480
9483
9485
9493
9501
9503
9511
9516
9522
9523
9560
9566
9567
9568
9569
9571
9575
9576
9584
9586
9591
9616
9620
9626
9627
9638
9649
9654
9656
9667
9677
9685
9688
9692
9694
9698
9709
9711
9722
9725
9735
9741
9742
9747
9750
9751
9761
9766
9796
9797
9800
9802
9821
9828
9831
9839
9844
9848
9849
9855
9868
9874
9879
9882
9891
9895
9903
9904
9910
9911
9918
9924
9925
9926
9930
9935
9942
9947
9958
9973
9986
9994
9996
9999
10004
10007
10010
10025
10027
10034
10037
10052
10054
10055
10058
10060
10070
10073
10075
10077
10078
10111
10119
10121
10122
10126
10131
10132
10142
10174
10188
10192
10209
10210
10213
10217
10239
10257
10258
10259
10264
10267
10288
10304
10307
10309
10314
10318
10322
10326
10327
10328
10334
10341
10342
10343
10344
10368
10373
10391
10394
10401
10402
10410
10413
10422
10428
10430
10431
10433
10440
10444
10448
10450
10451
10454
10456
10460
10468
10475
10480
10483
10484
10488
10490
10508
10510
10515
10518
10524
10529
10535
10537
10545
10547
10551
10558
10559
10564
10574
10580
10585
10589
10602
10621
10628
10630
10631
10634
10644
10646
10647
10660
10672
10674
10675
10683
10702
10704
10707
10711
10712
10716
10717
10718
10720
10725
10728
10734
10744
10746
10755
10756
10763
10781
10788
10798
10812
10814
10823
10832
10836
10837
10854
10867
10871
10885
10898
10901
10910
10925
10930
10934
10937
10949
10961
10966
10970
10978
10985
11001
11002
11013
11022
11029
11032
11034
11038
11044
11047
11058
11062
11068
11070
11085
11087
11089
11090
11093
11099
11100
11105
11109
11114
11117
11119
11124
11128
11132
11134
11135
11139
11140
11147
11150
11156
11162
11166
11172
11173
11183
11189
11197
11199
11200
11205
11207
11214
11215
11216
11217
11224
11227
11228
11231
11237
11240
11252
11266
11269
11270
11275
11276
11282
11286
11294
11306
11309
11317
11327
11331
11343
11344
11348
11359
11360
11362
11364
11382
11384
11389
11390
11398
11404
11405
11433
11441
11448
11449
11455
11456
11470
11489
11497
11511
11526
11531
11543
11544
11549
11558
11564
11567
11568
11579
11587
11598
11604
11608
11614
11617
11635
11644
11650
11656
11659
11661
11672
11683
11691
11693
11708
11717
11718
11722
11734
11741
11754
11759
11764
11771
11780
11784
11787
11788
11793
11805
11806
11830
11846
11858
11905
11921
11926
11944
11946
11947
11950
11953
11961
11963
11977
11981
11985
11997
11999
12002
12040
12041
12051
12058
12068
12071
12077
12088
12093
12097
12098
12099
12106
12119
12132
12140
12144
12147
12161
12163
12173
12192
12197
12199
12201
12206
12209
12228
12235
12239
12244
12257
12267
12269
12272
12274
12291
12300
12323
12335
12337
12341
12356
12358
12367
12385
12387
12390
12393
12397
12400
12405
12408
12410
12427
12444
12447
12450
12452
12453
12454
12460
12474
12478
12481
12483
12484
12492
12493
12494
12496
12508
12511
12514
12515
12521
12528
12533
12536
12540
12542
12548
12560
12561
12577
12582
12588
12593
12597
12604
12613
12623
12636
12639
12642
12646
12647
12649
12657
12658
12661
12667
12676
12678
12681
12692
12695
12706
12714
12716
12718
12719
12728
12730
12734
12762
12764
12777
12778
12790
12793
12798
12802
12804
12810
12812
12816
12830
12833
12842
12843
12849
12867
12877
12892
12904
12905
12913
12927
12933
12934
12947
12960
12962
12966
12972
12976
12977
12978
12981
12990
12994
12998
13002
13007
13019
13029
13030
13035
13045
13051
13057
13060
13061
13063
13067
13072
13085
13086
13087
13088
13093
13095
13097
13108
13109
13112
13113
13115
13120
13124
13125
13129
13130
13131
13133
13143
13153
13163
13170
13179
13185
13186
13192
13193
13195
13196
13204
13208
13226
13228
13246
13248
13250
13251
13252
13253
13264
13266
13275
13279
13288
13293
13295
13302
13310
13311
13321
13324
13330
13332
13350
13368
13376
13382
13386
13388
13396
13404
13409
13419
13420
13421
13431
13443
13445
13450
13454
13456
13457
13470
13477
13480
13488
13490
13491
13502
13512
13522
13523
13528
13535
13539
13548
13551
13558
13562
13573
13577
13598
13600
13604
13609
13612
13613
13618
13634
13635
13640
13643
13659
13664
13666
13674
13677
13693
13695
13697
13699
13701
13702
13706
13708
13712
13721
13722
13724
13734
13737
13739
13746
13748
13751
13753
13755
13756
13757
13758
13766
13767
13773
13795
13800
13805
13814
13817
13821
13822
13831
13835
13836
13842
13845
13856
13858
13870
13871
13878
13880
13883
13887
13905
13909
13911
13923
13924
13926
13933
13963
13971
13973
13985
13990
13992
14019
14029
14032
14033
14036
14040
14047
14055
14058
14060
14068
14074
14082
14084
14090
14095
14103
14104
14105
14107
14120
14136
14140
14146
14153
14162
14169
14177
14184
14195
14199
14206
14208
14211
14212
14215
14233
14235
14236
14239
14243
14245
14250
14260
14261
14271
14292
14301
14303
14305
14306
14313
14320
14333
14349
14356
14366
14380
14394
14396
14398
14418
14426
14438
14440
14450
14452
14456
14457
14475
14477
14485
14486
14490
14492
14493
14495
14507
14509
14525
14529
14532
14539
14551
14552
14554
14564
14568
14571
14574
14582
14588
14598
14599
14601
14602
14603
14613
14617
14638
14642
14646
14648
14652
14653
14667
14694
14697
14700
14708
14717
14721
14732
14737
14755
14758
14766
14767
14788
14790
14800
14810
14830
14834
14838
14845
14855
14856
14861
14866
14869
14872
14899
14902
14904
14920
14926
14929
14941
14948
14951
14952
14969
14976
14987
14989
14990
14991
15009
15016
15022
15038
15045
15048
15062
15085
15108
15124
15127
15139
15157
15160
15161
15167
15172
15185
15199
15210
15212
15213
15222
15231
15237
15239
15245
15250
15252
15254
15259
15262
15265
15270
15291
15298
15299
15305
15308
15317
15322
15326
15335
15337
15345
15357
15363
15366
15373
15374
15383
15388
15391
15401
15417
15431
15432
15439
15451
15456
15459
15473
15482
15489
15503
15506
15508
15512
15515
15527
15529
15530
15533
15534
15538
15539
15540
15542
15546
15549
15554
15562
15567
15572
15574
15590
15591
15593
15607
15615
15627
15629
15638
15652
15657
15663
15664
15670
15673
15674
15683
15692
15696
15720
15721
15724
15728
15736
15739
15763
15793
15829
15843
15847
15851
15867
15893
15896
15899
15904
15926
15936
15938
15941
15942
15950
15951
15958
15967
15969
15979
15982
15985
16002
16006
16007
16008
16014
16053
16071
16075
16087
16088
16089
16094
16098
16109
16113
16114
16119
16120
16128
16131
16133
16138
16143
16145
16154
16157
16170
16172
16179
16181
16183
16186
16190
16202
16203
16211
16224
16225
16231
16237
16244
16255
16257
16262
16263
16264
16271
16281
16283
16286
16287
16292
16295
16303
16304
16305
16307
16309
16316
16331
16332
16333
16335
16337
16344
16360
16362
16363
16367
16400
16419
16420
16426
16438
16439
16442
16452
16453
16470
16472
16475
16477
16483
16484
16485
16488
16497
16501
16502
16503
16519
16521
16533
16535
16537
16538
16540
16543
16544
16551
16560
16565
16566
16567
16574
16586
16595
16598
16600
16603
16608
16619
16621
16634
16640
16645
16648
16653
16660
16667
16668
16669
16674
16678
16690
16691
16699
16704
16705
16711
16713
16721
16730
16735
16736
16744
16791
16793
16802
16810
16818
16827
16831
16836
16838
16840
16857
16860
16862
16865
16874
16881
16884
16893
16901
16903
16909
16911
16935
16941
16952
16957
16965
16966
16978
16981
16985
16987
16988
16997
16999
17009
17018
17023
17033
17040
17044
17046
17063
17076
17078
17079
17092
17094
17098
17100
17102
17104
17118
17139
17142
17143
17150
17154
17156
17167
17171
17173
17174
17181
17182
17189
17196
17201
17202
17203
17205
17206
17207
17208
17217
17221
17226
17228
17229
17232
17238
17251
17268
17270
17271
17272
17275
17279
17282
17284
17297
17303
17309
17312
17313
17333
17348
17352
17353
17363
17365
17366
17370
17393
17397
17398
17399
17416
17424
17430
17443
17446
17450
17458
17468
17469
17470
17471
17477
17486
17487
17491
17492
17493
17496
17498
17504
17514
17526
17536
17554
17555
17558
17561
17567
17574
17577
17583
17584
17588
17593
17598
17606
17609
17610
17614
17622
17632
17633
17635
17637
17638
17639
17651
17663
17670
17675
17685
17694
17709
17711
17713
17718
17719
17720
17727
17731
17744
17745
17748
17750
17754
17757
17758
17760
17769
17770
17772
17781
17788
17789
17797
17802
17803
17825
17829
17848
17850
17857
17858
17859
17865
17869
17870
17892
17897
17920
17926
17930
17933
17949
17961
17963
17967
17973
17974
17982
17987
17991
17993
17995
18010
18016
18019
18021
18025
18029
18031
18034
18053
18057
18062
18067
18069
18071
18076
18084
18089
18091
18094
18097
18116
18126
18129
18133
18138
18151
18154
18159
18168
18169
18176
18185
18191
18198
18207
18219
18253
18254
18265
18266
18269
18273
18274
18279
18283
18299
18304
18309
18310
18319
18327
18329
18331
18338
18344
18346
18355
18358
18363
18368
18376
18385
18389
18400
18404
18405
18407
18413
18424
18426
18427
18428
18438
18439
18445
18447
18450
18456
18457
18458
18459
18469
18498
18499
18513
18515
18525
18527
18535
18551
18553
18554
18557
18561
18563
18565
18567
18576
18578
18580
18588
18591
18594
18595
18597
18618
18620
18621
18624
18632
18634
18639
18645
18651
18656
18661
18668
18672
18674
18675
18684
18688
18690
18691
18693
18699
18709
18722
18726
18731
18754
18758
18763
18778
18788
18800
18806
18823
18826
18827
18831
18840
18846
18856
18859
18865
18871
18875
18881
18885
18890
18892
18896
18903
18904
18909
18912
18923
18928
18935
18941
18950
18962
18976
18980
18992
18998
19007
19010
19012
19013
19014
19021
19025
19028
19029
19037
19038
19048
19057
19062
19080
19084
19087
19099
19107
19112
19115
19122
19127
19134
19137
19146
19150
19152
19157
19158
19166
19169
19170
19176
19187
19191
19193
19201
19208
19211
19228
19243
19247
19254
19261
19262
19268
19274
19283
19285
19295
19306
19311
19319
19321
19323
19324
19334
19340
19342
19346
19347
19348
19350
19354
19362
19366
19389
19391
19406
19410
19414
19416
19423
19431
19433
19435
19436
19441
19442
19446
19447
19448
19456
19462
19469
19471
19481
19483
19484
19486
19495
19496
19500
19515
19524
19533
19534
19536
19542
19548
19552
19553
19556
19558
19560
19561
19566
19577
19593
19630
19638
19641
19643
19649
19650
19651
19654
19656
19658
19663
19674
19689
19690
19698
19700
19703
19720
19722
19723
19729
19734
19739
19762
19772
19773
19775
19779
19785
19790
19800
19802
19808
19812
19816
19817
19818
19821
19822
19847
19849
19855
19874
19887
19900
19913
19914
19915
19930
19934
19941
19949
19952
19953
19964
19970
19982
19987
19990
19991
19994
19996
19998
20004
20006
20008
20011
20019
20025
20036
20047
20048
20056
20059
20061
20062
20068
20080
20085
20094
20100
20105
20107
20124
20135
20148
20154
20155
20169
20170
20175
20191
20203
20204
20208
20212
20219
20223
20225
20227
20247
20250
20254
20263
20269
20276
20282
20283
20288
20290
20294
20301
20310
20314
20334
20341
20346
20349
20353
20356
20362
20364
20365
20370
20371
20372
20376
20393
20411
20417
20418
20422
20430
20433
20445
20457
20463
20466
20476
20478
20481
20483
20493
20496
20501
20522
20530
20531
20532
20548
20553
20557
20567
20577
20579
20582
20591
20596
20600
20602
20612
20634
20640
20645
20646
20649
20651
20656
20657
20672
20673
20675
20686
20687
20688
20689
20690
20698
20701
20708
20709
20746
20750
20754
20764
20765
20770
20772
20782
20785
20786
20788
20790
20794
20802
20808
20809
20810
20815
20825
20843
20845
20854
20862
20863
20865
20889
20890
20903
20905
20916
20921
20929
20938
20939
20941
20945
20949
20952
20954
20971
20985
20993
20995
20996
20997
20998
21005
21040
21043
21046
21047
21051
21066
21073
21079
21086
21087
21088
21094
21103
21122
21128
21136
21140
21149
21154
21156
21158
21163
21165
21169
21173
21181
21210
21215
21218
21219
21220
21222
21224
21238
21242
21243
21262
21269
21283
21284
21301
21311
21328
21330
21339
21355
21364
21370
21376
21377
21383
21387
21389
21393
21400
21408
21418
21439
21460
21488
21495
21497
21499
21507
21509
21513
21528
21539
21547
21549
21553
21558
21573
21579
21600
21621
21642
21648
21653
21654
21658
21662
21671
21673
21674
21676
21680
21691
21694
21700
21701
21705
21720
21722
21729
21733
21739
21753
21769
21784
21786
21792
21796
21797
21802
21804
21811
21815
21819
21821
21837
21852
21855
21857
21869
21880
21882
21885
21893
21894
21918
21919
21922
21930
21937
21946
21947
21950
21951
21957
21973
21978
21980
22006
22022
22028
22029
22042
22043
22052
22057
22059
22061
22064
22069
22076
22080
22097
22112
22123
22134
22138
22143
22146
22156
22158
22168
22171
22174
22176
22186
22191
22194
22195
22199
22208
22209
22218
22226
22233
22236
22258
22259
22263
22270
22273
22275
22280
22281
22290
22291
22296
22298
22312
22319
22320
22339
22341
22343
22347
22349
22355
22358
22362
22363
22365
22368
22394
22395
22404
22405
22407
22413
22416
22427
22430
22432
22435
22439
22442
22443
22446
22456
22457
22459
22494
22495
22499
22516
22518
22531
22532
22541
22548
22554
22566
22573
22582
22590
22592
22594
22601
22603
22617
22629
22630
22631
22632
22634
22635
22654
22656
22657
22659
22670
22674
22691
22708
22718
22720
22735
22736
22748
22749
22752
22757
22764
22769
22781
22788
22789
22809
22816
22817
22818
22824
22826
22827
22830
22833
22842
22853
22854
22862
22866
22886
22895
22898
22902
22912
22914
22915
22916
22917
22920
22921
22942
22954
22971
22982
22983
22997
23012
23021
23029
23038
23052
23056
23066
23072
23076
23079
23080
23082
23088
23096
23106
23115
23116
23134
23157
23168
23172
23180
23181
23183
23187
23191
23195
23204
23216
23218
23227
23235
23254
23273
23283
23294
23296
23305
23307
23314
23324
23325
23329
23332
23340
23359
23363
23364
23369
23385
23388
23391
23412
23415
23422
23424
23433
23435
23436
23439
23445
23446
23455
23457
23458
23460
23464
23474
23477
23482
23485
23488
23489
23490
23503
23505
23514
23516
23525
23530
23532
23539
23552
23554
23557
23562
23572
23574
23578
23579
23590
23596
23598
23599
23605
23615
23642
23680
23681
23683
23686
23702
23714
23715
23716
23726
23729
23730
23747
23751
23756
23766
23772
23784
23785
23786
23788
23803
23806
23819
23821
23827
23828
23833
23841
23846
23848
23853
23866
23872
23884
23895
23903
23906
23909
23911
23916
23927
23934
23945
23953
23954
23973
23985
23996
23998
23999
24001
24003
24004
24005
24009
24013
24028
24035
24036
24038
24040
24051
24052
24054
24078
24083
24093
24111
24115
24117
24127
24129
24134
24139
24145
24161
24167
24177
24186
24194
24198
24206
24210
24225
24231
24249
24250
24252
24259
24265
24270
24284
24287
24296
24299
24303
24315
24329
24335
24341
24363
24364
24367
24369
24372
24374
24383
24392
24402
24404
24408
24411
24414
24424
24432
24444
24448
24459
24474
24477
24489
24497
24498
24500
24505
24519
24522
24543
24548
24550
24551
24552
24554
24578
24588
24590
24597
24599
24605
24619
24621
24638
24665
24668
24669
24690
24691
24694
24707
24708
24712
24714
24715
24726
24729
24735
24738
24740
24744
24751
24765
24770
24771
24773
24783
24786
24794
24818
24821
24830
24835
24845
24849
24858
24862
24863
24871
24874
24879
24883
24884
24886
24889
24900
24902
24908
24909
24910
24923
24924
24930
24931
24933
24956
24961
24967
24968
24974
24977
24978
24986
24997
25004
25009
25016
25018
25038
25040
25044
25063
25065
25067
25079
25089
25103
25116
25122
25123
25125
25127
25128
25134
25139
25151
25155
25165
25169
25190
25193
25199
25201
25209
25217
25218
25223
25225
25226
25227
25237
25239
25244
25246
25247
25249
25250
25255
25259
25266
25267
25271
25273
25274
25278
25281
25286
25288
25290
25297
25304
25306
25311
25318
25322
25323
25326
25327
25331
25336
25340
25341
25350
25352
25366
25374
25392
25410
25415
25418
25419
25424
25439
25441
25465
25469
25478
25483
25492
25497
25499
25505
25511
25529
25536
25555
25561
25575
25578
25597
25599
25602
25612
25621
25626
25632
25634
25642
25643
25656
25665
25674
25682
25688
25696
25700
25708
25714
25729
25731
25734
25735
25736
25737
25740
25741
25744
25749
25755
25776
25777
25781
25782
25792
25802
25821
25827
25837
25841
25856
25858
25860
25861
25874
25883
25885
25889
25892
25897
25912
25913
25914
25916
25920
25925
25926
25934
25955
25959
25970
25980
25983
25984
25985
25993
26010
26015
26017
26019
26021
26025
26028
26036
26039
26042
26043
26051
26055
26057
26062
26072
26085
26093
26098
26111
26117
26135
26149
26152
26153
26154
26155
26171
26173
26174
26191
26196
26199
26206
26207
26217
26235
26248
26267
26272
26278
26280
26289
26292
26308
26315
26348
26350
26356
26357
26360
26364
26373
26394
26397
26410
26414
26415
26422
26436
26440
26449
26451
26455
26472
26473
26474
26481
26482
26485
26487
26488
26495
26496
26515
26520
26525
26532
26538
26539
26540
26541
26542
26550
26552
26556
26558
26564
26566
26567
26574
26577
26578
26582
26585
26599
26603
26606
26607
26622
26624
26638
26645
26655
26667
26668
26674
26681
26693
26696
26706
26708
26716
26721
26725
26727
26746
26749
26751
26752
26765
26766
26772
26775
26787
26790
26795
26802
26814
26815
26819
26822
26824
26826
26831
26839
26842
26844
26855
26857
26860
26865
26872
26881
26883
26904
26919
26923
26928
26930
26933
26941
26943
26965
26968
26978
26979
26986
26993
26998
27003
27004
27006
27017
27033
27043
27057
27061
27068
27069
27077
27082
27091
27097
27104
27110
27122
27128
27146
27152
27156
27164
27166
27173
27176
27183
27186
27201
27212
27226
27233
27235
27243
27244
27246
27247
27248
27250
27276
27296
27297
27301
27307
27313
27315
27319
27320
27328
27335
27341
27343
27345
27346
27357
27364
27367
27372
27373
27376
27388
27390
27403
27442
27449
27451
27455
27456
27462
27464
27471
27474
27475
27488
27492
27496
27501
27507
27515
27531
27539
27552
27554
27556
27566
27569
27581
27582
27599
27606
27619
27620
27639
27641
27645
27650
27661
27664
27665
27678
27691
27699
27706
27712
27715
27724
27726
27735
27741
27744
27759
27778
27784
27811
27814
27834
27843
27846
27850
27858
27864
27865
27877
27881
27890
27894
27905
27922
27935
27938
27941
27944
27965
27971
27975
27976
27981
27984
27992
27993
27994
28000
28007
28010
28028
28029
28037
28057
28061
28069
28072
28085
28088
28092
28094
28109
28116
28117
28125
28134
28135
28138
28142
28148
28154
28163
28165
28173
28174
28180
28182
28184
28186
28201
28219
28226
28229
28232
28236
28241
28243
28270
28272
28284
28286
28288
28300
28310
28315
28319
28325
28335
28338
28343
28344
28356
28364
28370
28401
28403
28419
28423
28425
28430
28444
28446
28453
28457
28460
28462
28487
28497
28501
28502
28506
28509
28517
28518
28529
28533
28538
28539
28556
28560
28565
28578
28595
28602
28606
28609
28611
28613
28644
28656
28666
28674
28687
28688
28696
28699
28702
28707
28713
28714
28723
28726
28729
28732
28737
28748
28752
28755
28757
28764
28773
28796
28810
28811
28817
28819
28827
28830
28834
28837
28842
28873
28884
28898
28899
28921
28925
28937
28938
28941
28947
28948
28951
28971
28975
28980
28986
28995
29002
29010
29013
29016
29018
29023
29029
29033
29037
29049
29069
29079
29093
29094
29100
29105
29106
29115
29121
29123
29124
29125
29137
29139
29141
29149
29157
29175
29183
29190
29194
29208
29214
29216
29218
29226
29243
29248
29250
29272
29273
29275
29277
29278
29281
29283
29289
29303
29305
29313
29314
29325
29335
29337
29347
29367
29375
29379
29381
29409
29428
29439
29442
29447
29449
29458
29460
29463
29465
29466
29468
29471
29473
29489
29501
29503
29511
29518
29519
29528
29531
29538
29540
29547
29552
29554
29556
29557
29559
29600
29601
29627
29628
29631
29636
29642
29643
29644
29649
29652
29653
29655
29656
29659
29667
29672
29677
29682
29683
29686
29689
29690
29715
29717
29719
29742
29745
29748
29749
29759
29761
29799
29807
29811
29817
29833
29835
29843
29849
29857
29860
29879
29880
29896
29899
29902
29916
29917
29929
29936
29938
29940
29941
29947
29955
29956
29958
29966
29971
29975
29978
29981
29985
29987
30000
30002
30008
30037
30045
30049
30052
30054
30059
30074
30087
30088
30090
30091
30092
30093
30095
30106
30113
30120
30123
30126
30139
30144
30146
30152
30162
30169
30173
30180
30181
30186
30190
30204
30207
30211
30212
30213
30224
30233
30247
30248
30249
30257
30258
30260
30262
30282
30284
30287
30290
30294
30311
30317
30320
30325
30329
30331
30337
30338
30341
30350
30364
30376
30378
30389
30407
30411
30415
30423
30426
30440
30444
30446
30447
30448
30451
30457
30458
30479
30487
30508
30519
30521
30528
30533
30537
30539
30553
30555
30568
30575
30579
30587
30591
30597
30600
30623
30625
30629
30637
30639
30644
30645
30655
30665
30668
30674
30677
30684
30691
30705
30706
30713
30728
30749
30771
30773
30774
30776
30778
30783
30788
30797
30803
30806
30819
30821
30830
30841
30858
30890
30892
30894
30899
30906
30908
30914
30922
30928
30930
30931
30938
30949
30951
30965
30975
30987
30989
30999
31002
31025
31028
31036
31039
31045
31066
31067
31092
31099
31100
31104
31119
31120
31121
31129
31131
31145
31181
31184
31192
31198
31213
31220
31223
31232
31240
31244
31252
31270
31274
31294
31302
31303
31305
31311
31314
31323
31327
31336
31337
31339
31344
31360
31361
31362
31364
31365
31377
31379
31392
31397
31411
31417
31433
31452
31458
31461
31483
31484
31490
31491
31495
31499
31505
31524
31527
31530
31547
31558
31561
31567
31572
31576
31579
31580
31588
31591
31596
31613
31622
31628
31631
31635
31636
31653
31654
31658
31661
31690
31701
31705
31707
31731
31733
31734
31743
31750
31751
31781
31782
31785
31786
31803
31804
31808
31816
31828
31842
31843
31853
31860
31870
31874
31888
31907
31915
31917
31918
31924
31925
31927
31930
31940
31944
31948
31950
31969
31971
31972
31974
31978
31980
31989
31991
31994
31997
32005
32014
32032
32034
32035
32040
32048
32060
32078
32079
32087
32091
32092
32097
32113
32117
32133
32135
32148
32149
32163
32171
32179
32184
32185
32186
32191
32215
32222
32237
32246
32247
32251
32256
32260
32274
32276
32282
32292
32294
32295
32297
32310
32322
32328
32333
32338
32344
32356
32358
32367
32369
32381
32389
32404
32422
32426
32429
32438
32458
32466
32470
32476
32480
32486
32492
32506
32508
32520
32527
32534
32536
32538
32539
32540
32541
32551
32561
32562
32567
32581
32583
32617
32637
32646
32661
32668
32669
32671
32694
32699
32700
32705
32709
32716
32721
32725
32732
32733
32742
32743
32749
32750
32769
32773
32775
32776
32782
32783
32788
32789
32816
32817
32820
32828
32833
32834
32837
32846
32852
32853
32854
32855
32856
32858
32860
32898
32900
32901
32904
32909
32915
32922
32929
32931
32945
32949
32951
32962
32964
32984
32987
32995
33001
33012
33017
33021
33022
33024
33031
33043
33050
33070
33077
33082
33088
33097
33098
33101
33107
33113
33127
33139
33140
33149