/*--------------------------------*- C++ -*----------------------------------*\
  =========                 |
  \\      /  F ield         | OpenFOAM: The Open Source CFD Toolbox
   \\    /   O peration     | Website:  https://openfoam.org
    \\  /    A nd           | Version:  7
     \\/     M anipulation  |
\*---------------------------------------------------------------------------*/
FoamFile
{
    version     2.0;
    format      ascii;
    class       volScalarField;
    location    "0.008";
    object      dsmcRhoNMean;
}
// * * * * * * * * * * * * * * * * * * * * * * * * * * * * * * * * * * * * * //

dimensions      [0 -3 0 0 0 0 0];

internalField   nonuniform List<scalar> 
1000
(
16.5801
16.0266
15.7979
16.1224
16.602
16.4244
16.565
16.6861
17.6577
17.1868
17.1164
17.1992
16.95
16.834
17.08
16.8914
17.708
17.5501
17.4761
17.6888
17.2106
17.4606
17.3051
17.4025
17.2089
17.0596
16.8738
17.0295
16.4547
15.9939
15.6156
15.7681
16.0424
16.1945
16.3525
16.2412
15.8559
16.3804
16.0599
16.7514
16.428
16.5078
16.0559
16.4675
16.258
16.6804
16.919
16.87
16.5624
16.8359
16.9383
16.8223
16.8614
17.367
17.2985
17.6246
17.5449
17.3514
17.3034
17.2115
17.2443
17.0221
16.9511
16.7216
16.5074
17.0846
16.6811
16.3938
16.9321
16.895
17.063
16.9924
16.7171
16.7869
16.633
17.5914
17.6515
17.8542
17.7021
17.7538
17.8431
17.8361
18.0231
18.1318
17.6196
17.5424
17.7164
17.1127
16.5081
16.2025
16.5955
16.2894
16.4351
16.1945
16.0661
15.8875
16.0532
16.0596
15.43
15.8769
16.4195
16.1136
16.1276
15.7867
16.9624
17.3451
16.9241
16.926
17.6246
17.2034
18.0168
17.8369
17.4731
17.1611
17.2131
17.6162
16.9451
17.2374
16.9978
17.3384
17.1435
17.5983
17.8161
17.1821
17.6484
17.3431
17.8048
16.9452
17.4049
17.7434
17.0847
17.4434
17.1567
16.9037
17.2264
17.6185
17.6243
17.6129
17.4725
17.6926
17.9184
17.7042
18.043
17.2685
16.994
16.5341
16.9476
16.2614
16.4524
16.4782
16.339
16.6349
16.3535
16.4599
16.6286
16.5366
16.8232
16.4137
15.7678
15.8351
15.872
15.408
15.967
15.7959
16.493
16.4124
16.6432
16.872
16.632
16.924
16.5224
17.231
16.8316
16.8814
16.675
17.1316
16.5855
16.1539
16.263
16.6784
16.7374
16.2402
16.4516
15.7851
16.0243
16.2707
16.9225
16.3519
16.4402
16.3334
16.2324
16.2211
16.3785
16.3844
16.2708
16.5456
16.2036
16.4406
16.3796
17.0901
16.5851
16.3525
16.42
16.8527
16.6274
16.3179
16.4883
16.7397
16.4963
16.7561
16.5514
16.91
16.9047
17.8209
17.3699
17.2636
17.2142
17.3601
16.9831
17.2561
17.4624
16.8528
16.3607
16.9212
16.4965
17.4255
17.658
17.2372
17.3439
17.3528
17.4421
17.4556
17.3907
16.6835
17.0131
16.7548
16.4004
16.8671
16.2701
16.7508
16.61
16.7791
16.7908
16.6301
17.2839
16.7114
17.1706
17.0428
17.1009
16.6243
16.856
17.2765
16.5494
16.3384
16.4213
16.5102
16.7626
16.748
16.4741
16.1558
16.2202
16.1924
16.1111
16.0577
15.6369
16.2206
16.1111
15.8765
16.3338
15.6626
15.4295
15.1475
15.8249
15.8869
15.617
15.4633
15.2291
15.299
15.3409
16.132
15.858
15.304
15.5851
14.8948
14.7201
15.1973
15.6268
15.805
15.6846
15.257
14.798
15.7175
16.162
16.1439
16.0565
16.0685
16.2064
16.585
16.1485
16.0754
15.4318
15.7836
15.7242
15.3167
15.2765
15.4156
15.6269
16.2388
15.8468
15.2785
15.6638
15.467
15.7865
15.6055
15.3273
15.9148
15.094
15.7486
15.7278
15.5218
16.0356
15.436
15.5086
15.4058
14.8309
14.6978
15.1433
14.9833
14.3734
15.1373
15.0599
14.9755
15.0263
14.6884
14.5455
14.6556
14.7306
14.24
14.541
14.5405
14.7728
14.6856
14.6529
15.2859
15.3353
15.4184
15.1426
15.1711
14.9975
15.459
15.1171
15.2804
14.841
14.9145
14.7063
14.232
14.3463
14.4536
14.8249
14.9749
14.6935
14.5609
14.112
14.1654
14.282
14.2821
14.0893
14.1918
14.5739
14.9674
14.6775
14.3635
13.9863
13.723
13.8961
13.7299
13.7666
14.2508
13.938
13.6655
13.3458
13.6403
14.1743
14.2753
13.696
13.8404
13.8774
13.8285
14.1174
13.3554
13.2803
13.2394
13.2299
13.3649
13.3029
13.5156
13.4513
13.481
13.1776
13.7945
13.54
13.0445
13.1879
13.728
13.6583
12.9448
12.8674
13.449
13.0689
12.8194
12.5655
13.0679
12.9066
12.7061
12.5731
12.3664
13.173
12.5003
12.6259
13.1836
13.2219
12.7034
12.3773
12.4739
12.456
12.4516
11.8741
11.9835
12.1001
12.1001
12.0364
12.1891
11.9746
12.0569
12.2736
12.0721
12.0966
12.4115
12.4528
12.2978
12.0796
11.8919
12.4806
12.0508
12.1474
11.9755
12.312
11.7139
11.3853
11.7585
11.6236
11.9064
11.6695
11.9213
11.9864
11.5936
11.4795
11.9388
12.0138
11.7789
11.639
11.1784
11.064
11.0164
10.9349
11.0053
11.7393
11.7964
11.1988
11.5693
11.1139
10.9606
10.907
11.225
11.1796
11.0267
10.9953
11.1299
11.053
11.105
11.6138
10.9339
10.8761
10.9179
11.3682
10.8688
10.7676
10.6999
10.9395
10.8872
11.0064
10.7405
10.415
11.0391
10.7132
10.8846
10.649
10.3664
10.3942
10.1444
10.1629
10.4527
10.8695
10.7807
10.386
10.4421
10.3366
10.1146
10.3187
9.85813
10.1705
10.3739
9.8485
9.78138
9.918
10.2601
10.0997
10.3455
9.92225
9.87563
9.59487
9.84287
9.62812
9.64212
9.50762
9.51238
9.64437
9.79887
9.47962
9.64375
9.62262
9.89275
9.47262
9.59437
9.72962
9.73
9.64075
9.63125
9.27787
9.39012
9.4295
9.672
9.5515
10.0072
9.76962
9.639
9.86187
9.4565
9.11
9.286
9.55662
9.4695
9.46212
8.99425
9.34562
9.28012
9.12237
9.07137
9.1295
9.02887
9.60387
9.07112
8.637
8.69512
8.96162
8.88187
8.76425
8.95237
9.30712
9.1675
8.664
8.24625
8.36662
8.38762
8.49362
8.48987
8.46675
8.63875
8.284
8.14237
8.01712
7.897
7.91787
8.43162
8.02775
7.62475
8.10037
8.039
7.731
7.85125
7.89012
8.11637
7.53937
7.65837
7.78287
7.9
7.54312
7.56562
7.87
7.7805
7.459
7.51412
7.393
7.68337
7.4235
7.15075
7.205
7.20462
7.64662
7.41375
7.629
7.45637
7.28987
7.08587
7.312
7.22337
7.22437
7.21825
7.345
7.53112
7.5475
7.19237
7.32362
7.08212
6.90225
6.93525
7.10725
7.07012
6.69075
6.98212
6.87662
6.92175
6.83287
6.98462
7.10237
6.886
6.92875
6.941
6.782
6.57062
6.73862
6.55275
6.77475
6.588
6.58975
6.38437
6.41325
6.50525
6.5205
6.58912
6.66362
6.6135
6.891
7.16325
6.99425
7.11125
6.9215
6.71087
6.95112
6.54087
6.80612
6.46337
6.618
6.721
6.68
6.19787
6.46625
6.42412
6.09025
6.22637
6.26875
6.39212
6.17487
6.24
6.0555
6.1865
6.41025
6.30612
6.06375
6.19125
6.24362
6.053
5.90162
6.11212
6.01675
6.14237
6.08612
6.41637
6.25387
6.29862
6.26362
5.93512
6.07912
6.03312
6.17837
6.06825
6.42512
6.73562
6.2025
6.25762
6.29262
6.49137
6.081
6.21762
5.95962
6.07287
6.199
6.28
6.48425
6.565
6.1965
6.565
6.53162
6.3575
6.50462
6.60625
6.14737
5.86487
6.06875
6.3145
6.37125
6.19175
6.11262
6.2745
6.47325
6.32875
5.9485
5.62725
5.89537
6.26812
6.041
5.9165
5.92612
5.70225
6.1965
6.2775
6.18837
6.19912
6.10937
6.44275
5.9325
6.00862
6.375
6.4165
6.25875
6.43862
6.55125
6.39437
6.19787
6.33087
6.14937
6.086
6.25362
6.22187
5.9985
6.21937
6.22537
6.19712
5.938
5.98112
6.4065
6.35612
6.32162
5.82437
5.91275
6.05962
6.26412
6.4575
6.31837
6.3585
6.42625
6.0615
5.95637
6.11925
5.99212
6.05862
6.13287
5.87187
5.89537
5.79725
5.91675
5.824
5.77637
6.00175
5.81937
5.799
5.96587
5.56
5.62525
5.59137
5.45
5.91912
5.83087
5.91275
5.69587
5.96025
5.76575
5.7175
5.529
5.64362
5.77387
5.48087
5.42
5.69237
5.36237
5.24187
5.35837
5.39975
5.49662
5.01875
5.01275
5.31425
5.46962
5.46725
5.58287
5.73662
5.27112
5.62975
5.4395
5.21425
5.28975
5.26275
5.33687
5.3585
5.27275
5.18425
4.95387
5.28225
5.35912
5.27362
5.30587
5.3915
5.07
5.271
5.01
5.32237
5.16987
4.96587
4.98387
4.97237
5.1785
5.52562
5.58662
5.57113
5.39337
5.44662
5.43612
5.21575
5.09275
4.99325
5.19162
5.29512
5.2805
5.37425
5.14737
5.187
5.15887
5.39512
5.18037
4.942
4.83225
4.99337
5.03125
5.00312
5.015
4.97575
4.80462
4.6445
4.62688
4.90012
4.99862
4.80212
4.99537
5.01037
5.1435
4.82287
4.98462
4.54212
4.93987
4.91637
4.5555
4.6455
4.58512
4.53375
5.0395
4.81812
5.01538
4.98112
4.80212
4.91625
4.92375
5.0845
5.05862
4.8545
4.988
5.22337
4.88163
4.83975
4.7535
4.80062
4.61187
4.74362
4.92687
4.79512
4.91337
4.7365
4.72512
4.62525
4.87275
4.79637
4.92325
4.75263
4.88837
4.7915
4.72812
4.93887
4.73563
4.52762
4.60112
4.858
4.96112
4.73425
4.45475
4.66487
4.793
4.519
4.39725
4.72825
4.69087
4.77787
4.905
4.77363
4.8055
4.87437
5.14687
5.08925
4.90225
5.03825
4.9515
4.965
4.93363
4.9945
4.86
4.84562
4.96325
4.867
4.72737
4.98162
5.26125
4.88612
4.60737
4.78925
4.80375
4.51962
4.528
4.448
4.46187
4.35975
4.60588
4.26962
4.42812
4.51438
4.50175
4.43175
4.57925
4.9255
4.9575
4.57937
4.553
4.52287
4.61362
4.92737
4.6975
4.82
4.71375
4.62425
4.49438
4.29825
4.45937
5.10512
5.2285
5.43887
5.32262
5.23075
5.33125
5.38413
5.26588
5.34712
5.08825
5.3095
5.49037
5.13225
5.29187
5.13562
5.01025
5.21075
5.20775
5.16925
5.28087
5.1575
)
;

boundaryField
{
    sides
    {
        type            symmetry;
    }
    empty
    {
        type            empty;
    }
}


// ************************************************************************* //
