/*--------------------------------*- C++ -*----------------------------------*\
  =========                 |
  \\      /  F ield         | OpenFOAM: The Open Source CFD Toolbox
   \\    /   O peration     | Website:  https://openfoam.org
    \\  /    A nd           | Version:  7
     \\/     M anipulation  |
\*---------------------------------------------------------------------------*/
FoamFile
{
    version     2.0;
    format      ascii;
    class       volScalarField;
    location    "0.008";
    object      iDofMean;
}
// * * * * * * * * * * * * * * * * * * * * * * * * * * * * * * * * * * * * * //

dimensions      [0 -3 0 0 0 0 0];

internalField   nonuniform List<scalar> 
1000
(
8.29006e+20
8.01331e+20
7.89894e+20
8.06119e+20
8.301e+20
8.21219e+20
8.2825e+20
8.34306e+20
8.82888e+20
8.59338e+20
8.55819e+20
8.59963e+20
8.475e+20
8.417e+20
8.54e+20
8.44569e+20
8.854e+20
8.77506e+20
8.73806e+20
8.84437e+20
8.60531e+20
8.73031e+20
8.65256e+20
8.70125e+20
8.60444e+20
8.52981e+20
8.43688e+20
8.51475e+20
8.22737e+20
7.99694e+20
7.80781e+20
7.88406e+20
8.02119e+20
8.09725e+20
8.17625e+20
8.12062e+20
7.92794e+20
8.19019e+20
8.02994e+20
8.37569e+20
8.214e+20
8.25388e+20
8.02794e+20
8.23375e+20
8.129e+20
8.34019e+20
8.4595e+20
8.435e+20
8.28119e+20
8.41794e+20
8.46913e+20
8.41113e+20
8.43069e+20
8.6835e+20
8.64925e+20
8.81231e+20
8.77244e+20
8.67569e+20
8.65169e+20
8.60575e+20
8.62212e+20
8.51106e+20
8.47556e+20
8.36081e+20
8.25369e+20
8.54231e+20
8.34056e+20
8.19688e+20
8.46606e+20
8.4475e+20
8.5315e+20
8.49619e+20
8.35856e+20
8.39344e+20
8.3165e+20
8.79569e+20
8.82575e+20
8.92712e+20
8.85106e+20
8.87688e+20
8.92156e+20
8.91806e+20
9.01156e+20
9.06588e+20
8.80981e+20
8.77119e+20
8.85819e+20
8.55637e+20
8.25406e+20
8.10125e+20
8.29775e+20
8.14469e+20
8.21756e+20
8.09725e+20
8.03306e+20
7.94375e+20
8.02662e+20
8.02981e+20
7.715e+20
7.93844e+20
8.20975e+20
8.05681e+20
8.06381e+20
7.89337e+20
8.48119e+20
8.67256e+20
8.46206e+20
8.463e+20
8.81231e+20
8.60169e+20
9.00838e+20
8.91844e+20
8.73656e+20
8.58056e+20
8.60656e+20
8.80812e+20
8.47256e+20
8.61869e+20
8.49888e+20
8.66919e+20
8.57175e+20
8.79912e+20
8.90806e+20
8.59106e+20
8.82419e+20
8.67156e+20
8.90237e+20
8.47263e+20
8.70244e+20
8.87169e+20
8.54237e+20
8.72169e+20
8.57837e+20
8.45188e+20
8.61319e+20
8.80925e+20
8.81212e+20
8.80644e+20
8.73625e+20
8.84631e+20
8.95919e+20
8.85213e+20
9.0215e+20
8.63425e+20
8.497e+20
8.26706e+20
8.47381e+20
8.13069e+20
8.22619e+20
8.23913e+20
8.1695e+20
8.31744e+20
8.17675e+20
8.22994e+20
8.31431e+20
8.26831e+20
8.41163e+20
8.20687e+20
7.88388e+20
7.91756e+20
7.936e+20
7.704e+20
7.9835e+20
7.89794e+20
8.2465e+20
8.20619e+20
8.32163e+20
8.436e+20
8.316e+20
8.462e+20
8.26119e+20
8.6155e+20
8.41581e+20
8.44069e+20
8.3375e+20
8.56581e+20
8.29275e+20
8.07694e+20
8.1315e+20
8.33919e+20
8.36869e+20
8.12013e+20
8.22581e+20
7.89256e+20
8.01212e+20
8.13538e+20
8.46125e+20
8.17594e+20
8.22012e+20
8.16669e+20
8.11619e+20
8.11056e+20
8.18925e+20
8.19219e+20
8.13537e+20
8.27281e+20
8.10181e+20
8.22031e+20
8.18981e+20
8.54506e+20
8.29256e+20
8.17625e+20
8.21e+20
8.42637e+20
8.31369e+20
8.15894e+20
8.24413e+20
8.36987e+20
8.24813e+20
8.37806e+20
8.27569e+20
8.455e+20
8.45238e+20
8.91044e+20
8.68494e+20
8.63181e+20
8.60713e+20
8.68006e+20
8.49156e+20
8.62806e+20
8.73119e+20
8.42637e+20
8.18038e+20
8.46062e+20
8.24825e+20
8.71275e+20
8.829e+20
8.61863e+20
8.67194e+20
8.67638e+20
8.72106e+20
8.72781e+20
8.69537e+20
8.34175e+20
8.50656e+20
8.37738e+20
8.20019e+20
8.43356e+20
8.13506e+20
8.37538e+20
8.305e+20
8.38956e+20
8.39537e+20
8.31506e+20
8.64194e+20
8.35569e+20
8.58531e+20
8.52138e+20
8.55044e+20
8.31213e+20
8.428e+20
8.63825e+20
8.27469e+20
8.16919e+20
8.21063e+20
8.25512e+20
8.38131e+20
8.374e+20
8.23706e+20
8.07787e+20
8.11013e+20
8.09619e+20
8.05556e+20
8.02887e+20
7.81844e+20
8.11031e+20
8.05556e+20
7.93825e+20
8.16688e+20
7.83131e+20
7.71475e+20
7.57375e+20
7.91244e+20
7.94344e+20
7.8085e+20
7.73163e+20
7.61456e+20
7.6495e+20
7.67044e+20
8.066e+20
7.929e+20
7.652e+20
7.79256e+20
7.44738e+20
7.36006e+20
7.59863e+20
7.81337e+20
7.9025e+20
7.84231e+20
7.6285e+20
7.399e+20
7.85875e+20
8.081e+20
8.07194e+20
8.02825e+20
8.03425e+20
8.10319e+20
8.2925e+20
8.07425e+20
8.03769e+20
7.71587e+20
7.89181e+20
7.86213e+20
7.65838e+20
7.63825e+20
7.70781e+20
7.81344e+20
8.11938e+20
7.92337e+20
7.63925e+20
7.83188e+20
7.7335e+20
7.89325e+20
7.80275e+20
7.66363e+20
7.95738e+20
7.547e+20
7.87431e+20
7.86388e+20
7.76088e+20
8.01781e+20
7.718e+20
7.75431e+20
7.70288e+20
7.41544e+20
7.34888e+20
7.57163e+20
7.49163e+20
7.18669e+20
7.56863e+20
7.52994e+20
7.48775e+20
7.51313e+20
7.34419e+20
7.27275e+20
7.32781e+20
7.36531e+20
7.12e+20
7.2705e+20
7.27025e+20
7.38638e+20
7.34281e+20
7.32644e+20
7.64294e+20
7.66763e+20
7.70919e+20
7.57131e+20
7.58556e+20
7.49875e+20
7.7295e+20
7.55856e+20
7.64019e+20
7.4205e+20
7.45725e+20
7.35313e+20
7.116e+20
7.17313e+20
7.22681e+20
7.41244e+20
7.48744e+20
7.34675e+20
7.28044e+20
7.056e+20
7.08269e+20
7.141e+20
7.14106e+20
7.04463e+20
7.09588e+20
7.28694e+20
7.48369e+20
7.33875e+20
7.18175e+20
6.99313e+20
6.8615e+20
6.94806e+20
6.86494e+20
6.88331e+20
7.12538e+20
6.969e+20
6.83275e+20
6.67288e+20
6.82012e+20
7.08713e+20
7.13762e+20
6.848e+20
6.92019e+20
6.93869e+20
6.91425e+20
7.05869e+20
6.67769e+20
6.64013e+20
6.61969e+20
6.61494e+20
6.68244e+20
6.65144e+20
6.75781e+20
6.72563e+20
6.7405e+20
6.58881e+20
6.89725e+20
6.77e+20
6.52225e+20
6.59394e+20
6.864e+20
6.82913e+20
6.47238e+20
6.43369e+20
6.7245e+20
6.53444e+20
6.40969e+20
6.28275e+20
6.53394e+20
6.45331e+20
6.35306e+20
6.28656e+20
6.18319e+20
6.5865e+20
6.25013e+20
6.31294e+20
6.59181e+20
6.61094e+20
6.35169e+20
6.18863e+20
6.23694e+20
6.228e+20
6.22581e+20
5.93706e+20
5.99175e+20
6.05006e+20
6.05006e+20
6.01819e+20
6.09456e+20
5.98731e+20
6.02844e+20
6.13681e+20
6.03606e+20
6.04831e+20
6.20575e+20
6.22638e+20
6.14887e+20
6.03981e+20
5.94594e+20
6.24031e+20
6.02538e+20
6.07369e+20
5.98775e+20
6.156e+20
5.85694e+20
5.69263e+20
5.87925e+20
5.81181e+20
5.95319e+20
5.83475e+20
5.96063e+20
5.99319e+20
5.79681e+20
5.73975e+20
5.96938e+20
6.00687e+20
5.88944e+20
5.8195e+20
5.58919e+20
5.532e+20
5.50819e+20
5.46744e+20
5.50263e+20
5.86963e+20
5.89819e+20
5.59938e+20
5.78463e+20
5.55694e+20
5.48031e+20
5.4535e+20
5.6125e+20
5.58981e+20
5.51338e+20
5.49763e+20
5.56494e+20
5.5265e+20
5.5525e+20
5.80688e+20
5.46694e+20
5.43806e+20
5.45894e+20
5.68412e+20
5.43438e+20
5.38381e+20
5.34994e+20
5.46975e+20
5.44363e+20
5.50319e+20
5.37025e+20
5.2075e+20
5.51956e+20
5.35662e+20
5.44231e+20
5.3245e+20
5.18319e+20
5.19712e+20
5.07219e+20
5.08144e+20
5.22637e+20
5.43475e+20
5.39037e+20
5.193e+20
5.22106e+20
5.16831e+20
5.05731e+20
5.15938e+20
4.92906e+20
5.08525e+20
5.18694e+20
4.92425e+20
4.89069e+20
4.959e+20
5.13006e+20
5.04987e+20
5.17275e+20
4.96112e+20
4.93781e+20
4.79744e+20
4.92144e+20
4.81406e+20
4.82106e+20
4.75381e+20
4.75619e+20
4.82219e+20
4.89944e+20
4.73981e+20
4.82187e+20
4.81131e+20
4.94637e+20
4.73631e+20
4.79719e+20
4.86481e+20
4.865e+20
4.82037e+20
4.81562e+20
4.63894e+20
4.69506e+20
4.71475e+20
4.836e+20
4.77575e+20
5.00362e+20
4.88481e+20
4.8195e+20
4.93094e+20
4.72825e+20
4.555e+20
4.643e+20
4.77831e+20
4.73475e+20
4.73106e+20
4.49712e+20
4.67281e+20
4.64006e+20
4.56119e+20
4.53569e+20
4.56475e+20
4.51444e+20
4.80194e+20
4.53556e+20
4.3185e+20
4.34756e+20
4.48081e+20
4.44094e+20
4.38212e+20
4.47619e+20
4.65356e+20
4.58375e+20
4.332e+20
4.12312e+20
4.18331e+20
4.19381e+20
4.24681e+20
4.24494e+20
4.23337e+20
4.31937e+20
4.142e+20
4.07119e+20
4.00856e+20
3.9485e+20
3.95894e+20
4.21581e+20
4.01387e+20
3.81237e+20
4.05019e+20
4.0195e+20
3.8655e+20
3.92562e+20
3.94506e+20
4.05819e+20
3.76969e+20
3.82919e+20
3.89144e+20
3.95e+20
3.77156e+20
3.78281e+20
3.935e+20
3.89025e+20
3.7295e+20
3.75706e+20
3.6965e+20
3.84169e+20
3.71175e+20
3.57537e+20
3.6025e+20
3.60231e+20
3.82331e+20
3.70687e+20
3.8145e+20
3.72819e+20
3.64494e+20
3.54294e+20
3.656e+20
3.61169e+20
3.61219e+20
3.60912e+20
3.6725e+20
3.76556e+20
3.77375e+20
3.59619e+20
3.66181e+20
3.54106e+20
3.45112e+20
3.46762e+20
3.55362e+20
3.53506e+20
3.34537e+20
3.49106e+20
3.43831e+20
3.46088e+20
3.41644e+20
3.49231e+20
3.55119e+20
3.443e+20
3.46437e+20
3.4705e+20
3.391e+20
3.28531e+20
3.36931e+20
3.27637e+20
3.38737e+20
3.294e+20
3.29487e+20
3.19219e+20
3.20662e+20
3.25263e+20
3.26025e+20
3.29456e+20
3.33181e+20
3.30675e+20
3.4455e+20
3.58162e+20
3.49712e+20
3.55562e+20
3.46075e+20
3.35544e+20
3.47556e+20
3.27044e+20
3.40306e+20
3.23169e+20
3.309e+20
3.3605e+20
3.34e+20
3.09894e+20
3.23312e+20
3.21206e+20
3.04512e+20
3.11319e+20
3.13437e+20
3.19606e+20
3.08744e+20
3.12e+20
3.02775e+20
3.09325e+20
3.20512e+20
3.15306e+20
3.03187e+20
3.09562e+20
3.12181e+20
3.0265e+20
2.95081e+20
3.05606e+20
3.00837e+20
3.07119e+20
3.04306e+20
3.20819e+20
3.12694e+20
3.14931e+20
3.13181e+20
2.96756e+20
3.03956e+20
3.01656e+20
3.08919e+20
3.03412e+20
3.21256e+20
3.36781e+20
3.10125e+20
3.12881e+20
3.14631e+20
3.24569e+20
3.0405e+20
3.10881e+20
2.97981e+20
3.03644e+20
3.0995e+20
3.14e+20
3.24213e+20
3.2825e+20
3.09825e+20
3.2825e+20
3.26581e+20
3.17875e+20
3.25231e+20
3.30312e+20
3.07369e+20
2.93244e+20
3.03438e+20
3.15725e+20
3.18563e+20
3.09587e+20
3.05631e+20
3.13725e+20
3.23663e+20
3.16438e+20
2.97425e+20
2.81363e+20
2.94769e+20
3.13406e+20
3.0205e+20
2.95825e+20
2.96306e+20
2.85113e+20
3.09825e+20
3.13875e+20
3.09419e+20
3.09956e+20
3.05469e+20
3.22137e+20
2.96625e+20
3.00431e+20
3.1875e+20
3.20825e+20
3.12937e+20
3.21931e+20
3.27562e+20
3.19719e+20
3.09894e+20
3.16544e+20
3.07469e+20
3.043e+20
3.12681e+20
3.11094e+20
2.99925e+20
3.10969e+20
3.11269e+20
3.09856e+20
2.969e+20
2.99056e+20
3.20325e+20
3.17806e+20
3.16081e+20
2.91219e+20
2.95638e+20
3.02981e+20
3.13206e+20
3.22875e+20
3.15919e+20
3.17925e+20
3.21313e+20
3.03075e+20
2.97819e+20
3.05962e+20
2.99606e+20
3.02931e+20
3.06644e+20
2.93594e+20
2.94769e+20
2.89863e+20
2.95837e+20
2.912e+20
2.88819e+20
3.00088e+20
2.90969e+20
2.8995e+20
2.98294e+20
2.78e+20
2.81262e+20
2.79569e+20
2.725e+20
2.95956e+20
2.91544e+20
2.95638e+20
2.84794e+20
2.98013e+20
2.88287e+20
2.85875e+20
2.7645e+20
2.82181e+20
2.88694e+20
2.74044e+20
2.71e+20
2.84619e+20
2.68119e+20
2.62094e+20
2.67919e+20
2.69987e+20
2.74831e+20
2.50937e+20
2.50638e+20
2.65712e+20
2.73481e+20
2.73362e+20
2.79144e+20
2.86831e+20
2.63556e+20
2.81487e+20
2.71975e+20
2.60712e+20
2.64488e+20
2.63137e+20
2.66844e+20
2.67925e+20
2.63638e+20
2.59213e+20
2.47694e+20
2.64113e+20
2.67956e+20
2.63681e+20
2.65294e+20
2.69575e+20
2.535e+20
2.6355e+20
2.505e+20
2.66119e+20
2.58494e+20
2.48294e+20
2.49194e+20
2.48619e+20
2.58925e+20
2.76281e+20
2.79331e+20
2.78556e+20
2.69669e+20
2.72331e+20
2.71806e+20
2.60788e+20
2.54637e+20
2.49663e+20
2.59581e+20
2.64756e+20
2.64025e+20
2.68712e+20
2.57369e+20
2.5935e+20
2.57944e+20
2.69756e+20
2.59019e+20
2.471e+20
2.41613e+20
2.49669e+20
2.51562e+20
2.50156e+20
2.5075e+20
2.48787e+20
2.40231e+20
2.32225e+20
2.31344e+20
2.45006e+20
2.49931e+20
2.40106e+20
2.49769e+20
2.50519e+20
2.57175e+20
2.41144e+20
2.49231e+20
2.27106e+20
2.46994e+20
2.45819e+20
2.27775e+20
2.32275e+20
2.29256e+20
2.26688e+20
2.51975e+20
2.40906e+20
2.50769e+20
2.49056e+20
2.40106e+20
2.45813e+20
2.46187e+20
2.54225e+20
2.52931e+20
2.42725e+20
2.494e+20
2.61169e+20
2.44081e+20
2.41988e+20
2.37675e+20
2.40031e+20
2.30594e+20
2.37181e+20
2.46344e+20
2.39756e+20
2.45669e+20
2.36825e+20
2.36256e+20
2.31263e+20
2.43638e+20
2.39819e+20
2.46162e+20
2.37631e+20
2.44419e+20
2.39575e+20
2.36406e+20
2.46944e+20
2.36781e+20
2.26381e+20
2.30056e+20
2.429e+20
2.48056e+20
2.36712e+20
2.22737e+20
2.33244e+20
2.3965e+20
2.2595e+20
2.19863e+20
2.36412e+20
2.34544e+20
2.38894e+20
2.4525e+20
2.38681e+20
2.40275e+20
2.43719e+20
2.57344e+20
2.54462e+20
2.45113e+20
2.51912e+20
2.47575e+20
2.4825e+20
2.46681e+20
2.49725e+20
2.43e+20
2.42281e+20
2.48162e+20
2.4335e+20
2.36369e+20
2.49081e+20
2.63063e+20
2.44306e+20
2.30369e+20
2.39463e+20
2.40187e+20
2.25981e+20
2.264e+20
2.224e+20
2.23094e+20
2.17988e+20
2.30294e+20
2.13481e+20
2.21406e+20
2.25719e+20
2.25087e+20
2.21588e+20
2.28962e+20
2.46275e+20
2.47875e+20
2.28969e+20
2.2765e+20
2.26144e+20
2.30681e+20
2.46369e+20
2.34875e+20
2.41e+20
2.35688e+20
2.31213e+20
2.24719e+20
2.14912e+20
2.22969e+20
2.55256e+20
2.61425e+20
2.71944e+20
2.66131e+20
2.61538e+20
2.66563e+20
2.69206e+20
2.63294e+20
2.67356e+20
2.54413e+20
2.65475e+20
2.74519e+20
2.56613e+20
2.64594e+20
2.56781e+20
2.50512e+20
2.60538e+20
2.60387e+20
2.58462e+20
2.64044e+20
2.57875e+20
)
;

boundaryField
{
    sides
    {
        type            symmetry;
    }
    empty
    {
        type            empty;
    }
}


// ************************************************************************* //
