/*--------------------------------*- C++ -*----------------------------------*\
  =========                 |
  \\      /  F ield         | OpenFOAM: The Open Source CFD Toolbox
   \\    /   O peration     | Website:  https://openfoam.org
    \\  /    A nd           | Version:  7
     \\/     M anipulation  |
\*---------------------------------------------------------------------------*/
FoamFile
{
    version     2.0;
    format      ascii;
    class       volScalarField;
    location    "0.008";
    object      linearKEMean;
}
// * * * * * * * * * * * * * * * * * * * * * * * * * * * * * * * * * * * * * //

dimensions      [1 -1 -2 0 0 0 0];

internalField   nonuniform List<scalar> 
1000
(
3.47071
3.38607
3.34763
3.39764
3.42214
3.38023
3.43136
3.41775
3.51694
3.44661
3.45621
3.34856
3.36777
3.43056
3.4051
3.39607
3.46672
3.41428
3.40635
3.44212
3.43531
3.37277
3.40928
3.46489
3.41246
3.38794
3.38538
3.49607
3.39161
3.34552
3.34625
3.36054
3.3352
3.35459
3.39008
3.39422
3.3527
3.44159
3.41916
3.40934
3.40601
3.42384
3.39078
3.41398
3.42414
3.42173
3.38096
3.3792
3.3725
3.38313
3.47856
3.44289
3.44812
3.41172
3.46274
3.52887
3.39199
3.41494
3.3976
3.4059
3.36343
3.39926
3.39828
3.45036
3.42356
3.50287
3.35854
3.37344
3.40822
3.43753
3.47562
3.44378
3.42983
3.40753
3.36985
3.4205
3.39092
3.43926
3.37474
3.40458
3.41559
3.41042
3.42335
3.39216
3.41467
3.37264
3.44893
3.43055
3.32622
3.29381
3.39384
3.34769
3.38029
3.35479
3.37361
3.33385
3.38992
3.41251
3.36602
3.38412
3.44333
3.41132
3.38554
3.40935
3.47855
3.44366
3.41251
3.3948
3.45122
3.42549
3.54836
3.52032
3.35944
3.39266
3.41954
3.45525
3.39229
3.48749
3.43629
3.4912
3.45939
3.4714
3.48165
3.39503
3.46562
3.36501
3.47505
3.40902
3.42532
3.42242
3.35756
3.39613
3.4215
3.38796
3.46585
3.44673
3.43522
3.46357
3.41688
3.47915
3.52866
3.47944
3.42645
3.37925
3.38694
3.40752
3.45658
3.36811
3.45813
3.50976
3.39684
3.43656
3.43393
3.42259
3.47595
3.38079
3.45672
3.46268
3.3541
3.41573
3.46129
3.37936
3.41427
3.42776
3.51645
3.51554
3.44408
3.49518
3.40684
3.48675
3.41076
3.41817
3.45016
3.40227
3.37632
3.41503
3.37027
3.42404
3.40943
3.45005
3.4067
3.3445
3.37768
3.35925
3.31503
3.36782
3.41497
3.33563
3.38539
3.36837
3.40151
3.41728
3.45919
3.37037
3.40677
3.39766
3.37628
3.41251
3.41299
3.44974
3.42467
3.33947
3.32961
3.40485
3.36947
3.28441
3.35447
3.34993
3.35763
3.37155
3.34948
3.34828
3.37775
3.4461
3.42347
3.37113
3.39613
3.40142
3.39572
3.39918
3.44211
3.3793
3.39707
3.32786
3.36644
3.45136
3.38289
3.39614
3.405
3.36647
3.32224
3.39318
3.38901
3.32033
3.46158
3.36183
3.37242
3.35458
3.30504
3.37708
3.38894
3.35396
3.30124
3.24703
3.36358
3.31652
3.3428
3.34712
3.34562
3.26506
3.35525
3.36252
3.24044
3.29646
3.31957
3.35695
3.36018
3.32965
3.29287
3.24672
3.27786
3.31446
3.2701
3.28711
3.26344
3.26496
3.29329
3.19346
3.34248
3.28622
3.30756
3.22928
3.26147
3.30456
3.18404
3.21932
3.19067
3.26123
3.2601
3.28483
3.22618
3.17006
3.23181
3.21731
3.18228
3.21691
3.25879
3.24739
3.13292
3.16819
3.13233
3.18703
3.24025
3.25381
3.21937
3.21555
3.21466
3.23505
3.20229
3.2639
3.14465
3.10163
3.19733
3.09957
3.13334
3.17578
3.1948
3.23886
3.17665
3.06769
3.1085
3.05545
3.07406
3.07557
3.07355
3.14887
3.08128
3.15157
3.08177
3.08017
3.10526
3.05164
3.09496
3.09441
3.02442
2.9901
3.02724
2.99261
2.96133
3.07087
3.08115
2.98145
3.00748
2.95916
2.95544
2.97941
3.01923
2.89931
2.89931
2.97559
2.93135
2.85602
2.87462
2.94216
2.95566
2.91834
2.88011
2.90972
2.84574
2.90893
2.87648
2.96021
2.92177
2.89996
2.92307
2.85177
2.87391
2.89168
2.87225
2.90723
2.9241
2.86569
2.7824
2.81818
2.78069
2.76852
2.74452
2.76979
2.78464
2.8581
2.8233
2.804
2.7472
2.7088
2.73891
2.76474
2.74133
2.81334
2.74151
2.786
2.73238
2.69577
2.77543
2.77373
2.69197
2.65841
2.65315
2.73049
2.76495
2.65733
2.66007
2.72507
2.70258
2.69931
2.68192
2.66422
2.63821
2.60815
2.61353
2.61998
2.62223
2.55938
2.57068
2.67455
2.61212
2.50849
2.56037
2.62077
2.58174
2.55032
2.51657
2.56459
2.59457
2.54723
2.51853
2.45873
2.59333
2.51114
2.49782
2.5099
2.54915
2.42908
2.41039
2.38992
2.43518
2.40698
2.40689
2.3776
2.39167
2.40241
2.39121
2.41637
2.45343
2.35816
2.34088
2.33044
2.36869
2.39178
2.39668
2.36997
2.34077
2.35606
2.41139
2.40569
2.30176
2.31507
2.3839
2.32178
2.26818
2.27572
2.24247
2.26288
2.23687
2.26833
2.23626
2.18254
2.16983
2.22672
2.26252
2.25095
2.23089
2.20743
2.18373
2.15758
2.19563
2.14598
2.21128
2.22398
2.14376
2.22814
2.17545
2.15915
2.11191
2.13555
2.16544
2.13627
2.11785
2.15963
2.16603
2.15928
2.2058
2.08406
2.09977
2.07595
2.10563
2.06469
2.0525
2.07559
2.06255
2.08063
2.0958
2.05189
2.02944
2.0844
2.03146
2.10153
2.09653
1.99784
1.96497
1.96459
1.97647
1.99338
2.04325
2.06674
2.02218
1.97979
1.97048
1.94935
1.96695
1.90556
1.95366
1.95839
1.91615
1.94851
1.96099
1.99611
2.02091
2.01437
1.95504
1.94477
1.94768
1.97136
1.93007
1.94353
1.86949
1.91097
1.87428
1.90214
1.9105
1.88028
1.93427
2.00608
1.93085
1.94495
1.96145
1.95183
1.94092
1.90937
1.87635
1.92004
1.95872
1.96456
1.87252
1.93481
1.93974
1.95801
2.00079
1.89572
1.87387
1.92948
1.9563
1.94007
1.92946
1.88835
1.90659
1.87432
1.87511
1.88543
1.85007
1.86032
1.90397
1.89069
1.83879
1.85208
1.86842
1.87021
1.81521
1.86413
1.8665
1.94083
1.81049
1.76869
1.80063
1.79969
1.78068
1.87422
1.83772
1.86049
1.81136
1.79905
1.82677
1.7774
1.78573
1.84262
1.78333
1.73159
1.83273
1.85959
1.74726
1.79064
1.83535
1.8063
1.72095
1.76089
1.77032
1.79885
1.74592
1.77342
1.80536
1.83287
1.80936
1.75191
1.79014
1.80445
1.74404
1.71428
1.74067
1.69348
1.75261
1.75707
1.8123
1.83977
1.78082
1.69767
1.73472
1.71117
1.72081
1.7016
1.72061
1.77515
1.7618
1.72524
1.79478
1.75663
1.68705
1.67527
1.70514
1.71618
1.61663
1.67786
1.61705
1.68945
1.68589
1.6854
1.73733
1.73372
1.68787
1.67443
1.69131
1.68936
1.68288
1.58586
1.68187
1.6359
1.66683
1.62248
1.60584
1.57958
1.60883
1.65413
1.61964
1.61338
1.65677
1.68061
1.67046
1.64803
1.68862
1.68096
1.69175
1.63665
1.75312
1.67914
1.65794
1.66036
1.63412
1.54287
1.64026
1.55383
1.53629
1.5633
1.5773
1.59735
1.573
1.581
1.55081
1.5692
1.58271
1.54853
1.5287
1.54253
1.52215
1.54608
1.55449
1.54272
1.53855
1.53684
1.59821
1.61102
1.55341
1.61957
1.55772
1.5203
1.52948
1.53785
1.54782
1.49321
1.55451
1.6273
1.50651
1.52305
1.55115
1.53915
1.49413
1.53564
1.45392
1.47477
1.50464
1.49607
1.49519
1.51633
1.4522
1.49074
1.52488
1.4516
1.50058
1.53211
1.48014
1.46095
1.41902
1.45993
1.50839
1.49588
1.47652
1.53358
1.4844
1.48346
1.4501
1.41321
1.39603
1.48962
1.41317
1.41401
1.3763
1.34261
1.43496
1.46806
1.42424
1.4553
1.45471
1.49309
1.3948
1.38452
1.43017
1.41063
1.43291
1.49592
1.50547
1.48278
1.42998
1.42681
1.37396
1.38672
1.43794
1.40434
1.39307
1.45852
1.4271
1.43365
1.43521
1.40515
1.44586
1.40105
1.43192
1.31356
1.31943
1.33593
1.41559
1.4294
1.40363
1.37873
1.40383
1.34637
1.3575
1.33394
1.27964
1.34661
1.3228
1.31572
1.31115
1.29177
1.34205
1.34139
1.32984
1.35233
1.31345
1.3283
1.3935
1.33082
1.30364
1.27908
1.3074
1.36013
1.31772
1.33823
1.29923
1.30947
1.30634
1.30272
1.23221
1.26337
1.32195
1.30886
1.28144
1.2834
1.22466
1.24934
1.24738
1.27963
1.29833
1.24328
1.2154
1.27011
1.28499
1.28876
1.30611
1.35225
1.27384
1.30166
1.25837
1.23637
1.25117
1.19032
1.22742
1.22772
1.20515
1.22154
1.14799
1.2535
1.31585
1.22285
1.21436
1.24445
1.17286
1.2362
1.14996
1.22163
1.25789
1.18887
1.20903
1.18286
1.18144
1.18411
1.22898
1.19972
1.17321
1.18051
1.22641
1.23769
1.21587
1.20131
1.17836
1.20462
1.184
1.22931
1.18521
1.15896
1.17004
1.22274
1.18042
1.13004
1.13403
1.15975
1.10799
1.13016
1.13317
1.09126
1.08663
1.08992
1.04562
1.10212
1.11009
1.13246
1.1578
1.11966
1.14459
1.06044
1.10543
1.04286
1.11705
1.1338
1.10264
1.15307
1.0844
1.07861
1.14412
1.07628
1.07276
1.07168
1.08391
1.11995
1.04742
1.08507
1.08149
1.0468
1.07323
1.08451
1.07183
1.05598
1.05598
1.07573
1.02437
1.05855
1.1002
1.07201
1.07736
1.05434
1.06921
1.02597
1.0334
1.04414
1.06721
1.10155
1.10704
1.11858
1.06345
1.06559
1.04138
1.00581
1.06095
1.03906
1.058
1.00283
0.975826
1.00528
1.02207
1.00319
0.992969
1.04853
1.02713
0.997055
1.02692
1.02553
1.00406
1.03526
1.05465
1.0212
0.986626
1.01021
0.99235
0.976901
0.97837
0.98051
0.990292
0.981861
0.996115
0.980353
0.947713
1.00755
1.01715
1.00158
0.997708
1.03466
1.0465
1.02024
1.03583
1.01916
1.0189
1.00095
1.00652
0.937429
0.923374
0.966088
0.988359
0.96344
0.991108
1.02594
1.04861
0.983225
0.965606
0.986649
1.00493
1.01206
0.989597
1.02863
0.989973
0.931426
0.904957
0.947863
0.938626
1.02027
1.03689
1.03541
0.979672
0.967074
0.998509
1.01924
1.01596
1.01829
1.01236
0.994039
1.01719
0.952913
1.00811
0.990513
0.948974
0.961307
0.975519
0.985567
0.981708
1.00778
)
;

boundaryField
{
    sides
    {
        type            symmetry;
    }
    empty
    {
        type            empty;
    }
}


// ************************************************************************* //
