/*--------------------------------*- C++ -*----------------------------------*\
  =========                 |
  \\      /  F ield         | OpenFOAM: The Open Source CFD Toolbox
   \\    /   O peration     | Website:  https://openfoam.org
    \\  /    A nd           | Version:  7
     \\/     M anipulation  |
\*---------------------------------------------------------------------------*/
FoamFile
{
    version     2.0;
    format      ascii;
    class       volVectorField;
    location    "0.008";
    object      momentum;
}
// * * * * * * * * * * * * * * * * * * * * * * * * * * * * * * * * * * * * * //

dimensions      [1 -2 -1 0 0 0 0];

internalField   nonuniform List<vector> 
1000
(
(0.0039703 0.000486132 0.0027164)
(0.000981675 0.00029099 0.000731218)
(0.000149568 0.00171502 -0.00125345)
(-0.000630413 -0.000122296 -0.0017579)
(-0.00254184 -0.00110623 -0.000397505)
(0.00199298 0.000749242 0.00475481)
(-0.000159906 -0.00077496 -0.00100653)
(5.73014e-05 0.000946509 -0.000569618)
(0.00194276 0.000674249 -0.00173399)
(0.000785885 0.00140251 -0.00142636)
(-0.00277867 -0.00146548 -0.00179369)
(0.000580373 -0.00161266 0.000315203)
(0.00127575 -0.000980659 0.00349761)
(0.00251548 -0.000681104 -0.000503334)
(0.000696231 -5.16099e-05 -0.000486988)
(-0.0019522 -0.000858055 -7.58155e-05)
(0.000495032 -0.000724466 -0.00228948)
(-0.000962345 9.90067e-05 -0.00295778)
(0.0017943 4.2495e-06 0.000992851)
(0.00020088 -5.32011e-05 -0.000407447)
(-0.000493424 0.00318978 -0.0025445)
(-0.00215047 -0.00136767 0.000786325)
(0.0010362 0.00107945 0.000584284)
(-0.000318244 0.00160126 0.000400892)
(0.00140858 0.00211347 0.00501795)
(0.00155467 -0.00106278 -0.000151571)
(0.000535546 -0.000336396 0.00225255)
(-0.00390684 0.0013235 -0.00121608)
(0.000626198 0.000418525 -0.00090944)
(-0.000831661 -0.000779112 -0.000690633)
(4.80331e-05 0.000232637 -0.00239569)
(-0.00209566 -0.00325919 0.00121254)
(-0.00208668 -0.00199061 0.00202591)
(-0.00146792 4.08625e-05 -0.000528693)
(0.00117348 0.000148574 -0.000870151)
(0.00302364 0.000863723 0.00161787)
(4.12226e-05 0.000220281 -0.00118935)
(0.00115784 0.00158775 -0.00087411)
(-0.00229907 0.00073536 0.00108033)
(-0.0015761 -0.00149569 0.00168899)
(-0.0015945 0.00367134 -0.000963542)
(-0.000440033 -0.000613546 0.000407203)
(0.00120624 0.00262935 0.000679325)
(0.00128845 0.000891162 0.000635117)
(-0.0014083 -0.000760708 -0.00186776)
(0.000964271 0.00112253 -0.00196693)
(-9.15293e-05 -0.000956997 0.000653202)
(-0.00233721 0.0028475 0.000215685)
(0.00153567 0.00137705 0.000710227)
(0.00181225 0.00221459 -0.00050078)
(-3.43441e-05 0.00118131 -0.00114657)
(0.00180408 0.000389268 -0.000676188)
(0.00209649 0.000228499 -0.000940046)
(-0.000899882 -0.000687416 -5.37124e-05)
(-0.000416504 -4.66305e-05 0.000341844)
(-0.00118095 -0.00141707 -0.00153667)
(-2.67941e-06 0.00298337 -0.000854123)
(0.000502495 -0.000432038 -0.000121948)
(-0.00019057 0.00211529 0.000203759)
(-0.00277765 -0.00161382 0.000804169)
(-0.00230994 -0.00024931 -0.00186699)
(-0.00172668 0.00227242 -0.00119798)
(-0.00136325 -0.000459663 0.00183486)
(0.00127724 -0.00332338 -0.00248893)
(0.00173212 0.00150096 0.00317153)
(-0.00120283 -0.0010792 5.01562e-05)
(-0.00037376 -0.00178833 -0.00100764)
(0.00208439 0.00159877 0.00332297)
(-0.000621573 0.00186496 -0.0004125)
(0.0012612 -0.00044571 0.0016123)
(-0.000992828 0.000859252 0.00097562)
(0.000823179 -0.000368007 -0.000300662)
(-0.00244973 0.00206731 -0.00130705)
(-0.000357054 0.000663167 0.00105825)
(0.00187496 0.00204572 0.00107766)
(0.00261883 -4.32425e-05 -0.00117563)
(-0.00126881 -0.00277928 0.000477109)
(0.000809776 0.00019465 0.000143963)
(0.00369383 -0.0032927 -0.0013422)
(0.00133775 0.000135533 -0.000224)
(0.0017758 0.000731993 -6.69317e-05)
(0.00260285 7.30218e-05 0.00133889)
(0.00169955 -0.000293827 0.000946594)
(0.000287325 -0.000279677 -0.00125997)
(-0.00035857 -0.000770975 0.00146087)
(-0.00136058 -0.00443127 -0.000937129)
(-0.00244502 0.000575097 0.000637532)
(0.000395875 0.000644356 -0.000766774)
(0.0017207 -0.00168271 -0.00115649)
(-0.00124885 -0.00204829 -0.000765013)
(-0.000275247 -0.000987538 0.00248464)
(-0.00118693 7.19811e-05 0.0013186)
(-0.00251137 0.00151724 0.000553159)
(0.00141641 0.00104885 0.00134976)
(-0.0015557 -0.00063193 0.000995273)
(-0.000849925 0.000876457 -0.00417046)
(-0.000275707 0.00237784 5.60793e-06)
(0.00169858 -0.00231706 -5.74636e-05)
(-0.00138694 0.00147623 0.000594283)
(3.21271e-05 -0.00070671 0.000529232)
(0.00104708 0.00142535 0.000177321)
(0.00260037 -0.00114856 0.000763785)
(0.00163497 -0.000920645 -0.00014021)
(-0.00276362 -0.000459665 -8.33522e-05)
(0.000889313 -0.0011831 -0.000241449)
(0.0022192 0.00241794 0.00154167)
(-0.00225674 -0.0005831 0.00466335)
(-0.0014575 -0.00287318 -0.00169125)
(-9.69706e-05 0.000671222 0.00192415)
(-0.000467889 -0.00134411 0.000353486)
(-0.00151443 0.000165525 -0.000131075)
(0.000954894 -0.00147013 0.000384996)
(0.0018711 -0.00132779 -0.00101637)
(0.000656814 0.00148327 0.00106975)
(-0.00176073 0.0026536 0.00237452)
(-0.00203216 -0.00234769 0.000722455)
(0.000599454 -0.00253937 -0.000544929)
(-0.00107107 -0.00120533 1.98371e-05)
(-0.000710361 0.000607108 0.00112352)
(-0.000375574 0.000591809 -0.000223717)
(-0.00181767 0.00127983 -0.00111111)
(0.00162157 0.000229607 -0.0014542)
(0.000194113 0.000846069 -0.00107813)
(0.00256237 0.00103796 -0.000273991)
(-0.00337797 0.00145601 0.00238714)
(0.00139065 0.00198448 0.000378177)
(-0.000489176 0.00188341 -0.00124232)
(-0.00107671 -0.00152911 0.00405842)
(-0.000336288 -0.00127713 0.00128149)
(-0.0024701 0.000415436 0.00256489)
(-0.00124548 0.000150839 0.00166173)
(0.00127882 -0.000811281 -0.000541812)
(3.14427e-05 -0.000370408 0.000558961)
(-0.000861294 -0.000808669 -0.00209013)
(0.000353515 -0.0013699 0.000357614)
(0.00234717 -0.000283345 -0.00204368)
(-0.000782297 -0.00142793 -0.00284334)
(0.00186185 0.00183642 0.000523561)
(0.00150997 -0.00111637 0.00120581)
(0.00151457 0.000763656 0.000282534)
(0.00131986 -0.00168145 0.00154463)
(-0.000666405 0.000360646 -0.000229587)
(-0.000873734 -0.00153548 -0.00182428)
(-0.00150356 -0.00269535 0.000874921)
(-0.00237978 3.61535e-05 -0.00213932)
(0.00232902 -0.000630559 0.00160903)
(0.00121553 -0.00204876 0.000278507)
(0.0021755 -0.000183084 0.00272199)
(-0.000157577 0.000492329 0.00102122)
(-0.00042342 -0.0004356 0.000460081)
(-0.00127442 -0.00474461 -0.00184819)
(1.2288e-05 0.00115032 0.00296029)
(0.00108121 -0.000973421 -0.00135828)
(0.00132922 -0.00285397 0.000999938)
(-0.0014633 -0.000130554 -0.0012624)
(0.00255923 -0.000293864 -0.00178613)
(-0.000338921 -0.000978212 -0.00151254)
(0.00121811 0.00105822 -0.000384189)
(0.000419988 -0.000159979 0.000122485)
(0.000933803 -0.000950641 -0.000935505)
(0.003314 0.00272619 -0.00335039)
(8.42009e-05 0.00214554 5.76817e-05)
(0.00190202 0.000817197 -0.00431677)
(-0.000755017 0.000224 -0.00342014)
(0.000599352 0.00224095 -0.000561895)
(-0.000828639 0.00335106 -0.00251175)
(-0.000720693 0.0020143 0.0011272)
(-0.00227555 0.00111865 0.000157805)
(-0.00103592 0.00268127 0.00118373)
(0.00271842 0.000179431 0.00073163)
(4.39224e-05 -0.00108332 -2.41713e-05)
(0.00223453 -0.00111514 -0.000531087)
(-0.00112855 0.000443733 -0.000695915)
(-0.00134451 0.00169861 0.000126772)
(0.000584199 -0.000447618 0.00207076)
(0.00127253 0.00039572 -0.00202041)
(0.00248901 -0.000149249 0.00210683)
(0.00162801 -0.00218024 0.000536279)
(0.000883915 9.25656e-05 0.00033161)
(0.00400034 -0.000537261 -0.00255275)
(-0.00186753 0.000794917 0.000281719)
(2.1305e-05 0.00257296 -0.00103121)
(8.33115e-05 0.000317952 0.00139453)
(-0.000852181 0.0013346 0.00133238)
(0.000383054 -0.00156445 -0.0016307)
(0.00105728 -0.000491355 -0.00122236)
(0.00202483 0.000319022 -0.00180442)
(-0.00230601 0.00334785 -0.000497561)
(-0.00122546 -0.00125623 -0.000722973)
(0.000297852 0.00135114 0.00142486)
(-0.000183529 0.00184689 0.000889011)
(0.000139583 -0.000377157 0.00117503)
(0.000497444 -0.000794494 0.00154157)
(0.000660669 -0.000455096 0.000171885)
(0.00169054 0.00203508 0.00112365)
(0.00127934 -0.000564571 0.000292323)
(0.000751672 -0.00112305 -0.00121451)
(0.000724036 0.000240879 0.000221674)
(0.00217405 -0.00212894 -0.00192334)
(-0.000261301 -0.000484084 -0.00137976)
(-0.000806896 0.00058877 0.00252646)
(0.000496872 0.000841528 -5.47231e-05)
(-0.00197449 0.00136368 0.00111088)
(0.00311964 0.00157416 -0.00174047)
(0.00108455 0.000537726 -0.00166648)
(-0.000296619 -0.000142126 0.00196335)
(-0.0033027 0.000264285 0.00270992)
(-0.00169012 0.000460615 -0.00114692)
(-0.0013106 -0.00108712 -0.00178744)
(-0.00308956 -0.00120666 0.00103962)
(0.00117401 0.00165358 -0.00121885)
(0.00163032 -0.000568665 -0.00031565)
(-0.0021185 -0.000479324 -0.0002019)
(-0.000645487 0.000123151 0.00217603)
(0.00048537 0.000446179 -0.00177397)
(0.00149763 -0.000313822 -0.0012892)
(0.00132384 0.00126966 0.00175443)
(0.000351095 0.00278035 0.00158705)
(0.000303739 -0.0026715 0.000999937)
(-0.000996929 -0.00118142 -0.00162647)
(0.00127448 0.000523579 -0.00260207)
(-0.000893659 0.000617846 5.04605e-06)
(0.000436292 -0.0003561 -0.000565664)
(0.00321977 -0.000921182 -0.000381732)
(-0.000964256 -0.000430929 -0.00219608)
(0.000847722 -0.00235334 -0.000273259)
(0.00159799 -0.000977859 -0.00143886)
(0.00082414 0.00219652 -6.31801e-05)
(0.00213885 -0.00247436 -0.00249454)
(0.00195885 0.000575805 0.0010815)
(0.000171574 0.000629767 -0.002911)
(-7.53141e-05 0.00261964 0.000702263)
(0.000568572 0.0015894 0.000418401)
(5.31845e-05 0.000606016 -0.00133019)
(0.000605165 0.0013581 0.00247324)
(-0.00156549 0.00126949 -0.000755627)
(0.00416391 0.00162093 0.00218278)
(0.00111898 -0.000560777 -0.001539)
(0.00207824 -0.00126862 2.88595e-05)
(0.00189749 0.00157294 0.00269101)
(0.00126702 -0.000482 -0.00171743)
(0.00236252 -0.00332238 0.00143835)
(0.000324363 0.000620307 0.00121886)
(-0.000377047 -0.000555068 -4.51567e-05)
(-0.000171599 0.00118278 -0.000611509)
(0.00149857 0.00102263 -2.5707e-05)
(-0.000648768 -0.00217302 0.000764565)
(-0.000948296 -0.00101392 -0.000868609)
(0.000307475 -0.0016274 -0.0020673)
(7.28662e-05 -0.00248509 0.00208651)
(0.000724733 -0.000389773 -1.91389e-05)
(0.00122201 -0.000524151 -0.000979101)
(0.00078496 -0.00404024 0.00116818)
(0.000779631 0.000283967 0.00047334)
(-0.000726939 0.000631048 -0.000124773)
(0.00123383 0.0020831 -0.00145269)
(-0.000856723 0.00112977 -0.000445486)
(0.00352048 0.000364385 0.00351772)
(0.00114749 -2.12908e-05 0.00101061)
(0.000906882 -0.00114267 -0.00217422)
(0.00263333 -4.32057e-05 -0.00147317)
(0.00260486 -0.0002727 -0.00198562)
(0.00355774 -0.00128104 0.00157185)
(0.0015631 0.0015039 0.00232181)
(0.00270934 -0.000774023 -0.00143916)
(0.000457295 -0.00237596 0.000348249)
(0.00205681 -0.001734 0.00103645)
(0.000945105 0.00158821 -0.000301284)
(0.000510891 0.00228938 -0.00151326)
(0.0028892 -0.00089681 0.000399052)
(0.00200478 0.00041878 0.000113733)
(0.00265846 0.00135911 -0.00119738)
(0.000762632 0.000499622 -0.00185753)
(0.00447352 -0.00255312 0.00219073)
(0.00083882 -0.00121219 -6.10552e-05)
(-0.000717523 7.20782e-05 -0.000540755)
(0.0035948 -0.00102631 0.00185176)
(0.00121205 0.00187893 -0.00133014)
(0.00260706 -0.00181802 -0.000753339)
(0.00259162 0.0014115 2.32489e-05)
(0.00103859 -0.000495338 -0.00270841)
(0.00201375 0.000436149 0.00192477)
(0.00341279 -0.0013683 -0.00062114)
(0.00403073 -0.000518893 0.00122914)
(0.00146949 -0.000570912 -0.00192608)
(0.00247588 0.00111329 0.00199296)
(0.00082312 0.000890516 -0.000827327)
(0.00313694 0.0006568 0.000739289)
(0.000901951 0.00193794 -0.000871558)
(-0.000883645 0.00130624 -0.00165401)
(0.00157295 0.00150427 -0.000185702)
(0.00424293 -0.000377079 -0.000799186)
(-6.69854e-05 -0.000880611 0.000370089)
(0.000845519 -0.000318022 -0.00069538)
(0.00439226 -0.00140523 -0.000804704)
(0.00233834 0.00256722 0.00104802)
(0.000201473 7.98127e-05 -0.000325199)
(0.00222281 -0.00315747 0.00214255)
(0.00155568 6.27509e-05 -0.00163558)
(0.00234927 -0.000440432 -0.00211509)
(0.00310416 -4.18336e-05 -0.00123214)
(0.000982759 0.00024023 0.000136322)
(0.00271308 0.00175544 -0.00204649)
(0.0024412 -0.000850683 0.00245713)
(0.00114413 -0.000828099 0.00152398)
(0.00198202 -3.09181e-05 -0.00115663)
(0.000951459 -0.000782465 -0.0024267)
(0.00422751 -5.47292e-05 0.000712105)
(0.000449086 -0.000798213 0.00110246)
(0.00126945 -0.00289482 -0.000726115)
(0.00132608 -0.00128198 8.70867e-06)
(0.00259439 -0.00199796 0.00119974)
(0.000654003 -0.000746713 -0.00127252)
(0.00252779 0.000656316 -0.000260395)
(0.00123932 -0.000528068 0.00157592)
(0.00180513 -0.00185386 0.00131989)
(0.000643566 0.000687184 -0.000424678)
(0.00373698 0.000161498 -0.000324498)
(-0.000983906 0.00176434 0.00219274)
(0.00147067 0.000576148 0.000622626)
(0.00123073 0.000359049 -0.00140338)
(0.00269153 -0.000707662 0.000965997)
(0.00297339 -0.00101687 0.000153267)
(0.00172469 -2.02218e-06 0.00113645)
(0.00395367 -0.000290423 -0.000945139)
(0.00508272 0.00115273 -0.00222717)
(0.0053563 0.00175107 0.00122143)
(0.00308976 0.00142461 0.000418513)
(0.00329423 9.12953e-05 0.000186022)
(0.00209032 -0.00100077 0.000147734)
(0.0044541 0.00114278 -1.11187e-05)
(0.00261092 0.0010358 0.000134293)
(0.000617986 -0.0029442 -0.000414108)
(0.00041214 -0.000340213 -0.00120095)
(0.0041946 7.41559e-05 0.000555285)
(0.00114587 0.000337254 -0.0011842)
(0.00163493 0.000109839 0.00164599)
(0.000940816 -0.00139031 0.000659936)
(0.00215939 -0.000282902 -0.00153104)
(0.00283108 -0.00261915 0.00214884)
(0.00301917 0.00255624 -0.000727639)
(0.00108623 0.000244345 -0.00020183)
(0.00153544 0.000860421 0.00037968)
(0.00154544 -0.000342545 -0.00164406)
(0.000962406 -0.002392 -0.0020039)
(0.00295746 -0.00128205 -1.54725e-05)
(0.00104026 -0.00176277 0.000235521)
(0.00220137 0.000285456 -0.000904082)
(-0.000121477 -0.00132349 -0.000746915)
(0.000507767 0.00130705 -0.000380867)
(0.00303318 -0.00120555 0.00118739)
(0.00135524 0.000403875 -0.00143252)
(-0.000323614 -0.000164022 0.000540136)
(0.000908663 -0.00125879 -0.00208873)
(0.00185649 -0.000465279 6.8655e-05)
(0.00179553 -0.00120741 -0.00083804)
(0.00181255 -0.000892617 -0.000174097)
(0.00170835 -0.000637829 -3.66633e-05)
(0.00281278 0.000943998 -0.000462098)
(0.00202783 0.000595789 -0.000109103)
(0.00208927 -0.000542784 -0.00218861)
(0.00176131 0.000355069 0.00129677)
(0.000429689 -0.0013276 0.000969747)
(0.00102962 0.000295799 -0.000898671)
(-0.0013611 -0.000496754 0.000944343)
(0.00347708 0.000602279 0.000776978)
(0.00167601 0.00205033 -0.000346144)
(0.00351976 -0.000290368 -0.000459071)
(0.00160318 -0.000443831 0.00196244)
(0.00332263 0.000637785 0.000642084)
(0.00279878 -0.000507669 0.00185946)
(0.00458627 -0.000562104 -0.000767196)
(0.00211799 1.72661e-05 -0.00187846)
(0.00356543 5.93332e-05 0.000166109)
(0.000754801 0.000560043 -0.00121317)
(0.00020855 -0.000499951 0.0011257)
(0.0015417 0.00154128 -0.00215838)
(0.00135664 0.000495038 0.000650905)
(0.00220955 0.000726179 4.32601e-05)
(0.00301216 -0.00090903 0.000671708)
(0.00213235 0.000297137 0.000532546)
(0.00198244 -0.00127283 0.000988854)
(0.00311933 0.000910036 -0.00100219)
(0.00318413 0.000117973 0.0018884)
(0.00188815 -0.000410148 -0.000467363)
(0.000941244 -0.000333181 0.000259637)
(0.00414415 -0.00147123 -0.00124666)
(0.00433217 -0.00018974 0.00123114)
(0.00214158 -0.000731323 -0.00192768)
(0.00046743 -0.00100295 4.72881e-05)
(0.00497248 0.00295244 -0.000281737)
(0.00175569 -0.00108666 0.00035136)
(0.00248823 -0.00246985 0.00213646)
(0.00182086 0.000176 -0.000419409)
(0.00104795 -0.000329314 0.00129159)
(0.000749369 0.000496444 -0.00196194)
(0.00255399 0.000923961 -0.00083561)
(0.00271682 -0.000301907 -0.00246376)
(0.00382052 0.00115905 0.000340889)
(0.00173154 -0.00101682 0.000551844)
(0.00244431 -1.97029e-06 -0.000641702)
(0.00572179 0.000331876 0.002006)
(0.0024538 4.41105e-05 -0.00082334)
(0.00318931 -0.000539989 0.000332381)
(0.00299582 0.000395686 -0.00142749)
(0.00503753 -0.00173766 -0.000980346)
(0.00175638 9.31135e-05 7.07523e-05)
(0.0021809 0.000645143 -0.000443359)
(0.00218247 -0.000862843 -0.00186668)
(0.000213589 0.000444569 0.00137056)
(0.00247169 0.000647449 0.000756535)
(0.000650945 0.000415281 -0.000465599)
(0.00237764 0.000442348 0.00011842)
(-0.000383849 1.70092e-05 -0.000211971)
(0.00156062 0.000453355 0.000973389)
(0.000523202 -0.000353019 -0.00112452)
(0.00174738 0.000248991 -0.000579408)
(0.00467826 0.00219453 -0.000763386)
(0.000904974 -0.000862089 -0.00125371)
(0.00383443 0.00103946 -0.000971562)
(0.00600332 0.00240686 -0.00146731)
(0.00454746 -2.36921e-05 0.00221831)
(0.00292738 0.000247971 -0.00235667)
(0.000513379 0.000126699 0.000845272)
(0.00500121 -0.00175372 -0.00218476)
(0.00341286 0.000936264 -0.000697707)
(0.00435911 0.00136909 3.08562e-05)
(0.00401902 0.00212156 0.00187419)
(0.00197265 -0.000140083 0.000412879)
(0.00159521 0.00133807 -0.00126921)
(0.00119905 -0.000386554 0.000459388)
(-0.000417522 1.52373e-05 1.66667e-05)
(0.00342723 -8.51783e-05 -0.00141579)
(0.00108039 -4.9042e-05 0.00219044)
(0.00263795 -0.00139095 -0.000281662)
(0.00186325 0.000160065 0.000164829)
(0.00199588 -7.1854e-06 0.000150908)
(0.00394288 -0.000949073 0.000525357)
(0.000773236 0.00137214 0.000963196)
(0.0016135 0.00125535 -0.00145927)
(0.00234618 -0.000125067 0.000175682)
(0.00218146 -0.000353262 -0.00355)
(0.000838166 -0.000953953 0.000714167)
(0.00081563 -0.00125368 0.000292739)
(0.00315189 0.0013764 0.0012446)
(0.00306792 -0.00104004 0.000988342)
(0.00158148 -0.000776609 0.000261717)
(0.00106313 0.000471586 0.0006262)
(0.0024332 0.00118487 -0.000710269)
(0.000969996 0.000309285 -0.000429094)
(0.00273899 0.000680918 -0.00145949)
(0.00123839 0.00114021 -0.000186681)
(0.00134485 0.000449597 0.00103851)
(0.00266497 0.000641252 0.0021242)
(0.00426389 0.00114028 -0.0019437)
(0.0047212 0.000773557 -0.000232001)
(0.00190969 -0.00038337 0.00136578)
(0.00393378 -0.00157837 0.0021148)
(0.00192676 0.000447543 0.00105585)
(0.00155799 -0.000880355 -0.000148802)
(0.00483504 0.000732853 -0.00116905)
(0.00296034 0.00093313 -0.000131096)
(0.00278477 -0.00102247 -0.000277113)
(0.000843015 -0.000660001 -0.0012219)
(0.00211385 -0.00115823 0.00181617)
(5.73609e-05 -0.00140379 -0.00147978)
(0.00186843 -0.00142747 -0.000769288)
(0.00242546 -0.000768078 0.00215907)
(0.0019767 -0.00202241 0.00201871)
(0.00669835 -0.0034761 0.00100091)
(0.00217952 6.61155e-05 -0.00100003)
(0.00125498 -0.00146838 0.00244686)
(0.00206926 -0.000595984 0.000124472)
(0.000622395 -0.00123584 -0.000307555)
(0.000526307 -0.000252315 -0.000520289)
(0.00237896 0.00107671 -0.000638831)
(0.00240354 -0.000900223 -6.31534e-05)
(0.000150382 -6.68716e-05 -7.23714e-05)
(0.00105778 0.0013726 0.000495949)
(0.000475768 -0.00168148 -0.000161212)
(0.000520598 0.00134124 -0.00155058)
(0.00278604 -0.000649954 0.00085885)
(0.00141277 -0.00216138 0.000173971)
(0.00124647 3.40616e-05 0.00150237)
(0.00120584 -0.000138518 -0.00041124)
(0.00161623 0.000766058 -0.000699518)
(0.00463249 0.00160162 -0.00326828)
(0.00211137 -0.000261701 0.00052683)
(0.00277214 -0.000471917 0.0011173)
(0.00411566 -0.000697267 0.000415288)
(0.00212515 0.000878484 -0.000326926)
(0.00179251 0.00169286 -0.000211328)
(0.00469498 -0.000438262 -0.00292926)
(0.00318887 -1.75561e-05 -0.00152512)
(0.00189588 -0.000680188 0.00208724)
(0.00215271 0.000177589 0.000604179)
(0.00023917 -0.000868283 -0.000928899)
(0.00276341 -0.00260453 0.00201984)
(0.00131768 -0.00180174 0.000990557)
(0.0017548 -0.000134665 -0.000956643)
(0.00265535 -0.00121659 0.000130492)
(0.000474757 0.000848599 -0.00181059)
(0.00320385 -0.00141806 -0.000823447)
(0.00157005 0.00148931 -0.000881159)
(0.00258805 0.000438889 -0.00156668)
(-1.04878e-07 0.00114087 -0.000500495)
(0.000716765 0.00176116 0.00112375)
(0.00400734 -0.000493796 -0.000812697)
(0.00369721 0.000361635 0.00103443)
(0.00189727 0.000827675 -0.00035493)
(0.00175782 -0.000592888 -0.000211727)
(0.00236516 0.00160217 0.00242087)
(0.00344484 -0.00110108 0.000115959)
(0.0039261 0.000683967 -0.00054273)
(0.00146577 0.000932338 -0.000921223)
(0.00351387 0.00100561 -0.00388659)
(0.000788558 -0.000285086 0.000249875)
(0.00128387 0.000605102 -0.000479404)
(0.00324225 0.00161575 0.000406022)
(0.00295519 0.000102615 -0.000538608)
(-0.00042576 0.000679982 -0.00101799)
(0.00512037 -0.00073798 -0.00112684)
(0.00215835 -0.000379618 0.00066105)
(0.00363861 0.000438383 0.00118633)
(0.00261128 -0.000839998 -0.00216244)
(0.00296572 0.000607929 0.000549079)
(0.0011038 -0.000934909 0.000102014)
(0.00169582 0.000113496 0.000950964)
(0.0016425 0.00366603 -0.000569366)
(0.00225552 -0.000708309 0.000801488)
(0.000247735 -5.59207e-05 -0.000988886)
(0.00211676 -0.00168882 -0.0012406)
(0.00336898 0.00323104 -0.00135435)
(-0.000297385 0.000209043 -0.00079264)
(0.00332839 -6.10609e-05 -0.00110322)
(0.00294771 0.00109937 7.69048e-05)
(0.00264874 -0.000377419 0.0011549)
(-0.000538652 -0.00174392 0.000496373)
(0.000705735 0.000471019 0.000566287)
(-0.000415013 0.00172034 -0.000169822)
(0.00360126 -0.00160495 -0.000669276)
(0.000602999 -0.0013721 0.000570908)
(0.00177476 0.00101747 0.000571686)
(0.0012849 0.000567405 -0.000234916)
(0.00606628 -0.000352807 0.00015863)
(0.000581983 0.00235914 0.00028906)
(0.00522167 0.0023452 0.000618721)
(0.00232063 0.00188067 0.00047098)
(0.00107487 -0.00102272 0.000787311)
(0.000231334 -5.82626e-05 0.00112333)
(0.00306588 -0.000399202 0.000316447)
(0.00109352 -0.00272519 -0.00276941)
(0.0039501 5.72344e-05 0.00136272)
(0.00109377 -0.000726137 0.000880825)
(0.000187741 6.558e-05 0.000764504)
(0.00275621 0.00316665 0.000322872)
(0.00211821 0.000929083 0.000792954)
(0.00273533 -0.00170793 -0.000817405)
(0.00211491 -0.0002414 0.00195115)
(0.00431462 0.00154709 -0.00163026)
(0.000568319 -0.000204417 -0.000168987)
(0.00277624 0.000238009 -0.000572813)
(0.004079 0.000145133 -1.18833e-05)
(0.000363626 -0.000695296 -0.000201836)
(0.00237844 -0.000216123 -0.000660004)
(0.00247139 -0.000568065 -0.00283462)
(0.00170446 -8.38496e-05 -0.000236034)
(0.00299623 -0.0013158 0.00112287)
(0.00216127 -0.000240063 -0.000869079)
(0.00100564 0.000578105 0.000411584)
(0.00269845 0.00207797 9.11592e-05)
(0.00206607 -0.000446072 -0.000349259)
(0.00667048 -0.000773281 -0.0015057)
(0.00172844 0.000679508 0.000954242)
(0.0048141 -0.00154648 0.00134844)
(0.00238385 -0.00147442 -2.26566e-05)
(0.00237281 -0.00216385 -0.000170388)
(0.00251409 0.000402488 -0.000940954)
(0.00248948 -0.00131381 -9.23251e-05)
(0.00536575 -0.00103564 -0.00239868)
(0.00428859 0.000904967 -0.0024287)
(0.00051177 0.000541428 -0.00160751)
(0.00288966 0.000588179 0.000192491)
(0.00327951 0.00119557 0.000991288)
(0.000815446 -0.00250891 0.000631632)
(0.00253035 -0.000762306 -9.90132e-05)
(0.00157642 0.00167655 -0.000552944)
(0.00364868 -0.000358059 -0.000165349)
(0.000381088 0.00111294 -0.000693154)
(0.00148935 -0.000735119 0.00237136)
(0.00191912 0.000967683 -0.00107782)
(0.0025602 -0.00134511 -0.000570947)
(0.00268203 0.000320297 0.000301853)
(0.000790715 -0.000194698 0.00150675)
(0.00280938 -0.000847524 0.00103246)
(0.000830417 -0.000152372 -0.000634879)
(0.00258758 -0.000273611 -0.0017636)
(0.00253954 0.000354143 0.000402112)
(0.00455006 0.000144656 -0.00150434)
(0.00366358 0.00241668 -0.00083221)
(0.00106413 0.00135135 8.75636e-05)
(0.00328344 -0.00152533 -0.00209019)
(-0.000139111 0.000196187 -0.00114546)
(0.00183744 -0.00022271 0.000115583)
(0.000669665 -0.000871605 0.000146569)
(0.00187804 -0.000497784 0.000283784)
(-0.000161598 0.00138989 0.00102271)
(0.000852957 0.00145022 0.00222434)
(0.000734461 -0.000345171 -0.000856399)
(0.00287799 0.000325161 -0.00165679)
(0.00359368 -0.000950404 0.000758974)
(0.00186559 0.0010164 0.000489711)
(-0.000472053 -0.00119369 -0.000273571)
(0.0022907 0.000934657 1.39912e-05)
(0.00392432 0.00144685 -0.000199182)
(0.00277031 0.000896827 1.63533e-06)
(0.003747 -0.000517852 0.000693875)
(0.00380617 -7.16992e-05 0.000409913)
(0.00423766 -0.00130762 0.00139864)
(0.0016223 -0.000753071 -0.000174116)
(0.00223104 0.000502865 0.00150148)
(0.00226446 0.00127198 8.43407e-05)
(0.00216744 -0.00171172 -0.00100274)
(0.00151808 -0.000587144 0.00076486)
(0.00109008 -0.00061391 0.00130768)
(0.00264904 0.00044371 0.000779009)
(0.00316168 -0.00152525 0.000227938)
(0.000725366 2.34215e-06 0.000123318)
(0.00473695 0.000524351 -0.00058466)
(0.00453139 0.00265379 -0.000564577)
(0.0017562 -0.000257133 0.000853617)
(0.000162981 -0.000680167 0.00100011)
(0.00100125 0.0010072 -0.000647522)
(0.00171345 -0.0029264 -0.000242866)
(0.00110363 0.000217589 -0.000313518)
(0.00182554 0.0011518 -0.00102955)
(0.000395847 2.12791e-05 -0.000499825)
(0.00204668 -0.000642613 -0.000509214)
(0.00146344 -0.000636295 -0.000768388)
(-0.000319965 -4.70632e-06 0.0013703)
(0.00290005 0.000996524 0.000335843)
(0.00144721 -9.58975e-05 -0.00145562)
(0.00267528 0.00314037 0.0011009)
(0.000412597 0.000304825 -0.00172553)
(0.00104652 0.000513577 -0.00233888)
(0.000404164 0.000180257 -0.000424621)
(0.00152399 -0.00162538 0.000262889)
(0.00243008 -0.0012211 -0.00118554)
(0.000591391 -1.64143e-05 0.000283922)
(0.00107631 -0.00242853 -0.000310083)
(0.00186963 4.04495e-05 -0.00165246)
(0.00112072 -0.000124733 -7.0612e-05)
(0.00319417 0.00168349 0.00158582)
(0.00317343 -0.00156955 -0.000866521)
(0.00153629 -0.000245921 0.000900012)
(0.000808923 -8.17924e-05 -0.000395224)
(0.00347839 0.00046016 -0.0014647)
(0.00203913 -0.00110468 3.63213e-05)
(0.000187179 -0.000165918 0.000958339)
(0.00228008 0.000219612 -0.000172014)
(0.00171417 0.00466853 -0.0004425)
(0.00355982 -0.00129312 -0.000395807)
(0.00163916 -0.000366915 0.00158169)
(0.00197327 0.000193759 -0.00164882)
(0.00421782 0.00119257 -0.00090242)
(0.00104108 0.000131923 0.00044429)
(0.00230374 -0.00124929 -0.000182141)
(0.00169397 2.50325e-05 0.0018)
(0.00425377 -0.000897259 -0.00232688)
(0.00110147 -0.00016655 0.000804731)
(-0.000709141 2.61081e-05 0.000279331)
(0.000729818 -0.00135027 -0.000841136)
(0.00351751 -2.7607e-05 0.00175957)
(0.000871148 0.000142829 -0.000376007)
(0.000838452 -0.00076924 0.000129873)
(0.00135631 -7.48517e-05 0.00123528)
(0.00171636 -1.38561e-05 -0.00117435)
(0.000338028 -0.000440104 0.000409587)
(-0.000914334 0.00232126 -3.99943e-05)
(0.00363137 -0.00207021 0.00183162)
(0.00221028 0.00228819 -0.000529471)
(0.00189081 0.000211682 -0.00027397)
(0.00217192 0.00105016 -0.000335849)
(0.00383224 0.000662519 0.00167357)
(-0.00141095 0.00211728 -0.000988878)
(0.00196723 0.000973055 0.000598548)
(0.000894255 -0.0011573 0.000306263)
(0.00244992 0.000490866 -0.000295476)
(0.00273893 -0.00135905 -0.000485911)
(0.00126399 0.00215535 0.000798218)
(0.00210154 0.000108019 0.00115456)
(0.000290866 -0.00205423 0.00138934)
(0.00183948 0.00023805 -0.000195503)
(0.00292949 0.000180059 0.00146365)
(0.00321715 -0.00137763 0.000959139)
(-6.2796e-06 0.0003458 0.00096195)
(0.00103694 -0.00110164 -0.000983588)
(3.5221e-05 0.00033168 0.00166497)
(0.000405174 -3.09169e-05 0.000703821)
(0.00042535 0.00149586 0.0016167)
(0.000467896 0.00148136 -0.000642369)
(0.00287967 -0.000712656 -0.000396261)
(0.00166558 0.000433996 0.00259292)
(0.0033789 0.000563738 -0.00117405)
(0.00293617 0.000125826 5.12229e-05)
(-0.00050831 0.00113633 0.000376788)
(0.00294682 -0.000200185 0.000307985)
(0.00267275 0.000964208 0.00133753)
(0.00305107 -0.000312871 0.000418902)
(0.00278766 0.000959089 -0.000833371)
(-7.00677e-06 -0.000360848 0.00247554)
(0.00247069 -0.00213164 0.00221908)
(0.00190959 0.00214428 1.67005e-05)
(0.000527584 0.00167216 -0.00237595)
(0.000255525 0.000147473 -0.000943146)
(0.00273786 -0.00031944 -0.00102753)
(0.00181384 0.00147554 -0.00140778)
(-0.000490161 0.000534699 -0.000588561)
(-0.00015949 -0.000788795 0.000875747)
(0.00220644 -0.00207646 -0.000825461)
(0.00115307 3.48755e-06 0.00150004)
(0.000705415 0.000309086 1.88523e-05)
(0.00155756 -0.000477702 0.000511799)
(0.0027359 -0.000217982 -0.000680779)
(0.0032906 0.00128604 -0.000242801)
(0.000767494 0.000594617 -0.000584574)
(0.000148851 0.000639964 -0.000571414)
(0.00153306 -0.00140224 0.000938263)
(0.00261392 -0.00136305 0.00185699)
(0.00288151 0.000398326 0.00102059)
(0.00471644 -0.000523466 -0.00113083)
(0.00112805 -0.000433232 -0.000840317)
(0.0021741 -0.000280668 0.00100996)
(0.0008054 -0.000591245 0.00091356)
(0.00112988 -0.00104942 -0.000114364)
(0.00292539 0.000223496 0.000101666)
(-0.00100032 -0.00154413 -0.000666334)
(0.000532379 0.00133446 -0.00169289)
(-0.000194162 0.00174788 0.000669913)
(0.000813219 -0.00060775 0.00160807)
(0.00124456 0.000734577 0.000810235)
(0.00176369 -0.000834697 0.000968607)
(-9.51097e-05 0.00170224 -0.000366875)
(0.00150589 0.00161238 0.000962011)
(0.0012948 -0.000213106 0.000251883)
(0.00181242 0.00166409 0.00179309)
(0.00286548 0.00104464 -0.00109929)
(0.00315199 0.000569938 -0.000319022)
(0.00379857 -0.000336667 0.00327832)
(0.000157219 -8.7253e-06 0.000692485)
(0.00201993 0.000104074 -0.000312068)
(0.00130634 0.000426974 0.00118779)
(-0.000203663 -0.0018794 -0.00277806)
(0.00015424 -0.000294556 -0.000305033)
(0.000242522 -0.00116677 -0.000385237)
(0.00131364 0.00286751 -0.000214265)
(0.0021589 -0.00197822 -0.000570141)
(0.00522594 0.000998605 0.0017869)
(0.00189575 0.000799189 -0.00103678)
(0.00265816 0.00195462 0.00139248)
(0.00326859 -0.00110308 3.52945e-05)
(0.000241138 9.61551e-05 -0.000879286)
(0.00237503 -0.00178741 -0.00145082)
(0.000941728 -0.000496567 -0.00101628)
(0.00203282 -0.000812771 0.000936705)
(-0.00173781 -0.000963615 9.92481e-05)
(-0.00143094 -0.000823841 -0.000915244)
(0.0013466 -1.6338e-05 -0.000184242)
(0.00231724 -0.000720782 0.00127957)
(0.00202355 0.000632776 -0.00200189)
(0.00250992 0.000811214 -0.000582943)
(0.00218128 -0.000803893 -0.000997008)
(-0.000283592 -0.00027656 -0.00114528)
(0.000966593 -0.000174851 0.000234237)
(0.00505202 -0.000763348 0.00126809)
(0.00244108 0.000110419 0.000120968)
(0.00183028 0.00236779 0.000104472)
(0.000664206 -0.00132188 0.00133511)
(0.000737855 -0.00109118 -0.00104789)
(0.0013593 -0.00131886 -0.00129205)
(-3.34486e-07 -0.000893574 -0.00157882)
(0.000646174 -0.000234688 -0.000596587)
(0.00220421 0.000810826 -0.000117519)
(-0.00107941 0.000294962 -0.000658388)
(0.000564703 0.000971484 -0.000383996)