/*--------------------------------*- C++ -*----------------------------------*\
  =========                 |
  \\      /  F ield         | OpenFOAM: The Open Source CFD Toolbox
   \\    /   O peration     | Website:  https://openfoam.org
    \\  /    A nd           | Version:  7
     \\/     M anipulation  |
\*---------------------------------------------------------------------------*/
FoamFile
{
    version     2.0;
    format      ascii;
    class       volScalarField;
    location    "0.008";
    object      p;
}
// * * * * * * * * * * * * * * * * * * * * * * * * * * * * * * * * * * * * * //

dimensions      [1 -1 -2 0 0 0 0];

internalField   nonuniform List<scalar> 
1000
(
2.31137
2.25251
2.22779
2.26462
2.28132
2.25317
2.28345
2.27444
2.34012
2.29753
2.30148
2.23152
2.24426
2.28575
2.26703
2.26148
2.29877
2.2691
2.26648
2.28501
2.28424
2.24357
2.2629
2.29941
2.26769
2.24997
2.2558
2.32851
2.25379
2.22543
2.22901
2.23823
2.22012
2.23408
2.25639
2.26165
2.23427
2.29137
2.27662
2.27074
2.26934
2.28184
2.25405
2.26748
2.25946
2.25317
2.22804
2.22771
2.22957
2.24535
2.30236
2.28863
2.28577
2.26448
2.29148
2.33139
2.23269
2.25435
2.2508
2.26675
2.24094
2.26459
2.26491
2.29927
2.27978
2.33309
2.23858
2.24767
2.27173
2.29138
2.31367
2.29003
2.28095
2.26885
2.23918
2.26675
2.24895
2.28186
2.23729
2.26434
2.27039
2.25863
2.27491
2.24081
2.25302
2.23992
2.27991
2.27435
2.21557
2.19082
2.25899
2.23174
2.25143
2.23469
2.24736
2.21747
2.25723
2.27111
2.24248
2.25511
2.28837
2.26466
2.24884
2.26275
2.30926
2.28683
2.25909
2.25452
2.29253
2.27628
2.36103
2.34017
2.2331
2.26101
2.27928
2.30251
2.25374
2.31468
2.27944
2.31228
2.29489
2.30055
2.31003
2.26148
2.30968
2.24276
2.3116
2.26851
2.28122
2.27803
2.236
2.26285
2.28087
2.25783
2.30649
2.28971
2.28017
2.29441
2.25419
2.30277
2.31993
2.29203
2.26648
2.24142
2.24375
2.25942
2.29289
2.23982
2.29886
2.32699
2.25373
2.27874
2.28453
2.27798
2.30151
2.23419
2.2896
2.29567
2.21852
2.25827
2.29073
2.22221
2.24624
2.26189
2.31269
2.31221
2.28534
2.32489
2.26727
2.31778
2.26556
2.27533
2.29607
2.26384
2.24718
2.27581
2.24666
2.28185
2.26625
2.29627
2.26909
2.22945
2.24937
2.23375
2.20873
2.24346
2.27509
2.2211
2.25618
2.24421
2.262
2.2719
2.30341
2.24526
2.26705
2.2594
2.25009
2.27338
2.27072
2.29617
2.28016
2.22085
2.21611
2.26523
2.24299
2.18547
2.23157
2.22966
2.23436
2.24465
2.22567
2.22692
2.24716
2.29717
2.28023
2.24531
2.25971
2.26255
2.26058
2.25908
2.28389
2.2464
2.26059
2.21742
2.24169
2.29858
2.25386
2.26071
2.26462
2.23228
2.20468
2.24244
2.25399
2.21121
2.30473
2.2372
2.24615
2.23239
2.1999
2.24956
2.25662
2.23418
2.19999
2.16357
2.23939
2.20702
2.22766
2.22891
2.22751
2.17399
2.23444
2.2367
2.15687
2.19083
2.20847
2.23424
2.23607
2.21697
2.1922
2.16255
2.18351
2.20605
2.17803
2.18755
2.16814
2.16959
2.18361
2.12186
2.22026
2.18449
2.19688
2.14763
2.16737
2.19865
2.1177
2.14003
2.12204
2.16941
2.16756
2.18283
2.14124
2.1065
2.14777
2.14036
2.11454
2.13694
2.1643
2.1572
2.07824
2.09818
2.07141
2.10413
2.13536
2.14734
2.13302
2.13102
2.12953
2.13463
2.11973
2.16755
2.08865
2.05237
2.12164
2.05916
2.08303
2.11112
2.12428
2.15348
2.11151
2.0393
2.06564
2.0303
2.04129
2.03462
2.03182
2.08753
2.04449
2.07907
2.0339
2.03275
2.05812
2.01817
2.03701
2.04016
1.99599
1.97964
2.0073
1.98444
1.9627
2.03442
2.04185
1.97603
1.99518
1.96196
1.95984
1.97575
1.99943
1.91971
1.91986
1.97105
1.9424
1.8922
1.90472
1.94867
1.95873
1.92957
1.90492
1.92639
1.88223
1.92542
1.89879
1.95742
1.92871
1.91635
1.93069
1.88118
1.89489
1.90755
1.89326
1.91204
1.92394
1.88358
1.82404
1.85196
1.82953
1.8233
1.80564
1.8238
1.83543
1.88245
1.86049
1.84477
1.80805
1.78184
1.80081
1.81477
1.80021
1.84885
1.79568
1.82465
1.78963
1.76581
1.8202
1.81705
1.76224
1.74237
1.73778
1.7877
1.80932
1.73235
1.73172
1.77613
1.76133
1.76004
1.7474
1.73767
1.71368
1.69778
1.70433
1.70771
1.70443
1.6644
1.67237
1.74359
1.702
1.62908
1.66345
1.70514
1.67738
1.65432
1.62892
1.6625
1.68117
1.64838
1.6278
1.58729
1.67918
1.62133
1.61377
1.62262
1.64866
1.56526
1.54942
1.53554
1.56258
1.54744
1.54471
1.52548
1.53501
1.53966
1.53124
1.54949
1.57026
1.50781
1.49794
1.48946
1.51316
1.53047
1.53444
1.5152
1.49308
1.50161
1.54051
1.53095
1.46411
1.46952
1.51816
1.47342
1.43521
1.44168
1.41763
1.43121
1.41239
1.43407
1.41084
1.37243
1.36203
1.40278
1.42714
1.41626
1.40183
1.37847
1.36137
1.34458
1.36866
1.33575
1.38447
1.39276
1.33317
1.39201
1.35119
1.33821
1.30435
1.32195
1.33898
1.31809
1.30501
1.33392
1.33656
1.33082
1.3657
1.27771
1.28585
1.26874
1.29292
1.25964
1.24889
1.26328
1.25683
1.26725
1.27785
1.24375
1.22376
1.26701
1.22767
1.27362
1.26688
1.1957
1.17399
1.16805
1.17627
1.1933
1.23187
1.24684
1.2146
1.18813
1.1791
1.16396
1.17946
1.13305
1.17028
1.17728
1.14432
1.16586
1.17632
1.20495
1.22426
1.22329
1.17939
1.17246
1.16965
1.19172
1.16241
1.17155
1.12282
1.15051
1.12833
1.15108
1.15324
1.13825
1.17427
1.22664
1.17362
1.18525
1.19807
1.1921
1.18415
1.16453
1.13849
1.16877
1.19666
1.20416
1.14274
1.18906
1.19167
1.20405
1.23578
1.16249
1.1467
1.18533
1.20851
1.19854
1.19233
1.16043
1.17604
1.15473
1.15385
1.16292
1.13958
1.14625
1.1824
1.1684
1.1282
1.13935
1.15345
1.15415
1.1166
1.15113
1.15711
1.206
1.11456
1.08398
1.10826
1.10946
1.09899
1.15929
1.13676
1.15627
1.11994
1.11127
1.12963
1.09567
1.10446
1.14843
1.10609
1.06876
1.14259
1.16066
1.08312
1.11242
1.14157
1.12851
1.06638
1.09451
1.10361
1.1235
1.08575
1.10535
1.12956
1.14939
1.13089
1.09356
1.11956
1.13246
1.08936
1.06703
1.08647
1.05413
1.09881
1.09838
1.1404
1.15845
1.11794
1.0616
1.08845
1.07418
1.0813
1.06523
1.08361
1.1232
1.11585
1.08521
1.13434
1.10672
1.06213
1.05609
1.0767
1.08439
1.01623
1.05966
1.0206
1.06844
1.06766
1.06848
1.10415
1.10195
1.07016
1.06181
1.07263
1.06937
1.06865
1.00454
1.07032
1.0391
1.05999
1.02914
1.01688
1.00064
1.018
1.05137
1.02972
1.02508
1.055
1.07493
1.06652
1.05144
1.07782
1.07183
1.0805
1.039
1.11863
1.06935
1.05452
1.06317
1.0466
0.982872
1.04924
0.99087
0.979156
0.998326
1.00432
1.02011
1.00354
1.01168
0.989027
1.00296
1.01276
0.990532
0.975156
0.984851
0.971014
0.986177
0.992224
0.98847
0.985085
0.984907
1.0259
1.03532
0.998782
1.03991
1.00071
0.974167
0.981624
0.988867
0.996314
0.959085
0.999142
1.04863
0.967749
0.979871
1.00044
0.994795
0.961033
0.991005
0.933967
0.950783
0.971947
0.96693
0.967082
0.981628
0.937559
0.96546
0.986871
0.93708
0.968397
0.993207
0.954753
0.934928
0.9135
0.939872
0.975607
0.960589
0.951026
0.989767
0.961399
0.957645
0.934648
0.90823
0.900311
0.96441
0.913078
0.915312
0.889877
0.865743
0.928799
0.953874
0.925481
0.947447
0.943916
0.970081
0.904045
0.899626
0.931581
0.91824
0.930491
0.972116
0.979477
0.964442
0.928521
0.928685
0.891428
0.897165
0.925866
0.904831
0.892813
0.941481
0.925293
0.933595
0.931486
0.910866
0.943797
0.91214
0.933691
0.856547
0.855834
0.871583
0.921288
0.927368
0.913376
0.897477
0.919568
0.879387
0.887665
0.872522
0.836489
0.881827
0.864165
0.857611
0.858013
0.845402
0.878313
0.876452
0.868767
0.886151
0.857343
0.870084
0.914274
0.872006
0.853876
0.836561
0.855338
0.889525
0.864684
0.877734
0.850818
0.859596
0.854098
0.849781
0.801665
0.826771
0.866709
0.856196
0.838141
0.838514
0.803241
0.818657
0.818406
0.841159
0.852944
0.811173
0.792883
0.834405
0.843452
0.848885
0.861166
0.891594
0.835642
0.851364
0.825735
0.809031
0.8218
0.782643
0.8049
0.808481
0.788497
0.801222
0.751619
0.820698
0.86602
0.805525
0.799359
0.821665
0.77428
0.815104
0.756642
0.80326
0.828076
0.784595
0.796449
0.77795
0.771973
0.776411
0.799799
0.786487
0.76227
0.766057
0.801282
0.80528
0.79751
0.784862
0.766052
0.784504
0.774789
0.807126
0.781743
0.757893
0.764872
0.801999
0.778504
0.739916
0.745125
0.760248
0.73014
0.74648
0.74861
0.722746
0.720344
0.723063
0.692826
0.731497
0.735002
0.748478
0.766166
0.742534
0.759145
0.704638
0.734712
0.692627
0.742645
0.753562
0.729006
0.76358
0.717376
0.712953
0.759363
0.715211
0.711312
0.708448
0.714054
0.739392
0.695881
0.720068
0.71778
0.694726
0.712395
0.720238
0.712966
0.701929
0.702699
0.715186
0.680438
0.702424
0.72914
0.709826
0.715386
0.696161
0.710033
0.680535
0.684661
0.695398
0.709653
0.725261
0.730339
0.740975
0.691707
0.69848
0.684079
0.665265
0.703981
0.68762
0.703605
0.666411
0.649769
0.669025
0.679254
0.668607
0.661812
0.697554
0.681441
0.659711
0.682645
0.679343
0.668444
0.688858
0.696945
0.67826
0.656506
0.670948
0.653174
0.645168
0.650227
0.653115
0.657614
0.648962
0.661889
0.653381
0.624792
0.656852
0.669501
0.6635
0.662069
0.681915
0.692391
0.678917
0.690401
0.678077
0.675198
0.667015
0.667082
0.624334
0.613992
0.6427
0.657996
0.639987
0.656158
0.674491
0.683401
0.639036
0.635139
0.649333
0.6597
0.664558
0.651488
0.675901
0.649788
0.614605
0.598893
0.629782
0.625313
0.678223
0.690858
0.689746
0.651883
0.642402
0.664249
0.674599
0.6736
0.671944
0.665109
0.658792
0.670506
0.630354
0.660225
0.647817
0.61949
0.624648
0.628431
0.630348
0.632843
0.640866
)
;

boundaryField
{
    sides
    {
        type            symmetry;
    }
    empty
    {
        type            empty;
    }
}


// ************************************************************************* //
