/*--------------------------------*- C++ -*----------------------------------*\
  =========                 |
  \\      /  F ield         | OpenFOAM: The Open Source CFD Toolbox
   \\    /   O peration     | Website:  https://openfoam.org
    \\  /    A nd           | Version:  7
     \\/     M anipulation  |
\*---------------------------------------------------------------------------*/
FoamFile
{
    version     2.0;
    format      ascii;
    class       volScalarField;
    location    "0.015";
    object      iDof;
}
// * * * * * * * * * * * * * * * * * * * * * * * * * * * * * * * * * * * * * //

dimensions      [0 -3 0 0 0 0 0];

internalField   nonuniform List<scalar> 
250
(
2.997e+20
2.868e+20
2.997e+20
3.159e+20
2.925e+20
2.994e+20
2.964e+20
2.895e+20
3.132e+20
2.997e+20
3.069e+20
2.949e+20
2.973e+20
2.913e+20
3.12e+20
3.108e+20
2.964e+20
2.988e+20
3.159e+20
3.072e+20
3.123e+20
2.967e+20
3.081e+20
3.12e+20
2.916e+20
3.141e+20
2.988e+20
3.15e+20
3.006e+20
3.195e+20
3.216e+20
3.117e+20
2.949e+20
3.096e+20
3.111e+20
3.186e+20
3.15e+20
3.213e+20
3.231e+20
3.225e+20
3.255e+20
3.183e+20
3.246e+20
3.216e+20
3.297e+20
3.255e+20
3.252e+20
3.183e+20
3.057e+20
3.306e+20
3.24e+20
3.096e+20
3.423e+20
3.168e+20
3.24e+20
3.366e+20
3.021e+20
3.234e+20
3.291e+20
3.342e+20
3.144e+20
3.18e+20
3.384e+20
3.267e+20
3.207e+20
3.354e+20
3.492e+20
3.192e+20
3.348e+20
3.315e+20
3.207e+20
3.39e+20
3.27e+20
3.378e+20
3.531e+20
3.327e+20
3.27e+20
3.447e+20
3.24e+20
3.258e+20
3.372e+20
3.336e+20
3.189e+20
3.27e+20
3.39e+20
3.249e+20
3.252e+20
3.183e+20
3.357e+20
3.261e+20
3.387e+20
3.411e+20
3.408e+20
3.3e+20
3.207e+20
3.351e+20
3.411e+20
3.423e+20
3.495e+20
3.234e+20
3.369e+20
3.309e+20
3.177e+20
3.435e+20
3.519e+20
3.186e+20
3.255e+20
3.297e+20
3.288e+20
3.342e+20
3.378e+20
3.345e+20
3.324e+20
3.378e+20
3.378e+20
3.606e+20
3.345e+20
3.384e+20
3.465e+20
3.459e+20
3.336e+20
3.579e+20
3.402e+20
3.369e+20
3.396e+20
3.273e+20
3.525e+20
3.48e+20
3.399e+20
3.303e+20
3.498e+20
3.357e+20
3.3e+20
3.3e+20
3.45e+20
3.39e+20
3.303e+20
3.387e+20
3.42e+20
3.279e+20
3.474e+20
3.426e+20
3.351e+20
3.504e+20
3.378e+20
3.357e+20
3.33e+20
3.465e+20
3.6e+20
3.372e+20
3.456e+20
3.627e+20
3.426e+20
3.501e+20
3.597e+20
3.45e+20
3.354e+20
3.366e+20
3.435e+20
3.588e+20
3.36e+20
3.417e+20
3.303e+20
3.483e+20
3.354e+20
3.366e+20
3.282e+20
3.366e+20
3.39e+20
3.339e+20
3.498e+20
3.309e+20
3.45e+20
3.462e+20
3.315e+20
3.249e+20
3.414e+20
3.396e+20
3.426e+20
3.207e+20
3.366e+20
3.492e+20
3.504e+20
3.573e+20
3.432e+20
3.42e+20
3.345e+20
3.384e+20
3.588e+20
3.294e+20
3.501e+20
3.615e+20
3.516e+20
3.234e+20
3.276e+20
3.456e+20
3.477e+20
3.258e+20
3.438e+20
3.453e+20
3.507e+20
3.258e+20
3.369e+20
3.432e+20
3.3e+20
3.375e+20
3.354e+20
3.636e+20
3.327e+20
3.522e+20
3.405e+20
3.372e+20
3.33e+20
3.708e+20
3.258e+20
3.399e+20
3.171e+20
3.315e+20
3.378e+20
3.231e+20
3.324e+20
3.327e+20
3.408e+20
3.252e+20
3.393e+20
3.216e+20
3.378e+20
3.228e+20
3.318e+20
3.408e+20
3.312e+20
3.237e+20
3.378e+20
3.42e+20
3.36e+20
3.285e+20
3.18e+20
3.456e+20
3.417e+20
3.528e+20
3.258e+20
3.573e+20
3.522e+20
3.288e+20
3.297e+20
3.264e+20
3.357e+20
3.312e+20
3.213e+20
3.507e+20
)
;

boundaryField
{
    sides
    {
        type            symmetry;
    }
    empty
    {
        type            empty;
    }
    procBoundary1to0
    {
        type            processor;
        value           uniform 3.081e+20;
    }
    procBoundary1to2
    {
        type            processor;
        value           uniform 3.318e+20;
    }
}


// ************************************************************************* //
