/*--------------------------------*- C++ -*----------------------------------*\
  =========                 |
  \\      /  F ield         | OpenFOAM: The Open Source CFD Toolbox
   \\    /   O peration     | Website:  https://openfoam.org
    \\  /    A nd           | Version:  7
     \\/     M anipulation  |
\*---------------------------------------------------------------------------*/
FoamFile
{
    version     2.0;
    format      ascii;
    class       volVectorField;
    location    "0.015";
    object      momentum;
}
// * * * * * * * * * * * * * * * * * * * * * * * * * * * * * * * * * * * * * //

dimensions      [1 -2 -1 0 0 0 0];

internalField   nonuniform List<vector> 
250
(
(-0.00028192 8.7979e-06 1.52322e-05)
(-0.000278199 3.06414e-05 -5.56044e-05)
(-0.000333376 7.49816e-05 1.13608e-05)
(-0.000354068 -4.30257e-06 -6.43305e-06)
(-0.000291411 -2.56371e-06 5.51624e-05)
(-0.000342761 -9.77235e-06 -4.97678e-06)
(-0.000227397 2.42502e-05 6.48049e-05)
(-0.000332837 8.59198e-05 8.76709e-06)
(-0.000333994 3.35554e-05 -5.06409e-05)
(-0.000277117 -2.17926e-06 4.23713e-05)
(-0.000316889 -8.4574e-05 6.64321e-05)
(-0.000304635 1.97045e-05 -1.69653e-05)
(-0.000283706 1.88105e-06 6.765e-05)
(-0.000264559 -3.84403e-05 1.61021e-05)
(-0.000357383 4.35921e-05 -5.07768e-05)
(-0.000313677 2.01585e-05 -4.05384e-05)
(-0.000381829 -2.12938e-05 -1.14007e-05)
(-0.000329023 -3.95284e-05 6.81712e-07)
(-0.000352119 -3.51834e-06 1.16988e-06)
(-0.000252611 2.09489e-05 2.23015e-05)
(-0.000357634 2.61191e-05 1.86423e-05)
(-0.000312904 -3.54465e-05 -2.71986e-05)
(-0.000344486 -6.51832e-06 1.26241e-05)
(-0.000297062 1.76641e-05 8.74349e-06)
(-0.000366332 7.88706e-05 3.54949e-05)
(-0.000426633 1.72372e-06 0.000107429)
(-0.000308261 -9.87272e-06 7.23196e-05)
(-0.000379772 -1.32244e-06 -1.31442e-05)
(-0.00033255 -8.19668e-06 4.053e-05)
(-0.00038532 -9.87699e-06 -1.67221e-05)
(-0.00036382 -4.78948e-06 -1.43807e-05)
(-0.0003803 1.70723e-05 4.9786e-05)
(-0.000395499 8.23311e-06 1.34872e-05)
(-0.000411199 -9.36456e-06 -4.33213e-05)
(-0.000405179 1.77064e-06 -2.58624e-05)
(-0.000378052 2.87342e-05 -2.06869e-06)
(-0.000486888 -1.26669e-05 1.54492e-06)
(-0.000428051 -1.50892e-05 4.69821e-06)
(-0.000385287 -4.58769e-05 2.5343e-05)
(-0.000410888 -2.16945e-05 2.43309e-05)
(-0.000347379 -9.26478e-05 3.09635e-05)
(-0.000321577 3.88001e-05 7.92654e-06)
(-0.00034743 1.68921e-05 -2.58489e-05)
(-0.0003265 7.44289e-06 -3.87242e-05)
(-0.000306654 2.99583e-05 4.66599e-05)
(-0.00036361 -2.19946e-05 1.77636e-05)
(-0.000399542 3.3114e-05 2.07845e-05)
(-0.000399188 -2.03617e-05 1.19489e-05)
(-0.000354043 -3.08549e-06 -2.10288e-05)
(-0.000425922 0.000126972 -2.52107e-05)
(-0.000408798 -1.09696e-05 2.12065e-05)
(-0.000461361 1.18828e-05 -7.56298e-06)
(-0.000374195 4.37476e-05 -7.04141e-05)
(-0.000415813 7.86422e-06 -8.66428e-05)
(-0.000432141 -5.04823e-06 -2.76134e-05)
(-0.000368107 3.76936e-05 2.35363e-05)
(-0.000350129 -5.38793e-05 -2.41547e-05)
(-0.000382716 4.63992e-05 5.2577e-05)
(-0.000420754 -1.74516e-05 2.51077e-05)
(-0.000453791 9.4574e-05 -3.03476e-05)
(-0.000441637 8.69467e-06 -0.000104231)
(-0.000437656 4.76422e-05 -3.13763e-05)
(-0.000434426 -2.68322e-07 3.83814e-05)
(-0.000395454 -3.09823e-05 2.22048e-05)
(-0.000369568 4.21256e-05 2.04231e-05)
(-0.000420865 5.0032e-05 -3.79423e-05)
(-0.000493461 2.23439e-05 3.0511e-05)
(-0.00042127 -8.50836e-05 -3.64572e-06)
(-0.000456892 -1.85513e-05 -2.14274e-05)
(-0.000446501 3.53593e-05 2.69737e-05)
(-0.00042836 2.17607e-05 -5.33379e-05)
(-0.000401022 1.5893e-05 -5.87396e-05)
(-0.000416875 -4.40499e-05 3.90335e-05)
(-0.000464766 -2.07408e-05 2.95258e-06)
(-0.000466116 -7.97738e-06 2.75472e-06)
(-0.000378376 3.30983e-05 3.38213e-05)
(-0.000439919 5.02053e-05 -5.20763e-05)
(-0.000410225 1.64733e-05 -3.49071e-05)
(-0.000441247 -8.70358e-05 -4.67379e-05)
(-0.000381055 -8.74375e-06 3.62758e-05)
(-0.000433657 -4.88008e-05 -3.9656e-05)
(-0.000448995 1.73753e-05 -4.1207e-05)
(-0.000392637 -4.05539e-06 6.98603e-05)
(-0.000408956 -7.75998e-06 -4.19099e-05)
(-0.000494117 3.05412e-05 9.30607e-05)
(-0.000458786 5.62899e-06 5.21926e-05)
(-0.000407 9.48724e-05 3.10562e-05)
(-0.000399105 5.64901e-05 4.0809e-05)
(-0.000415462 -1.22152e-05 -5.67812e-05)
(-0.000394733 1.26532e-05 7.62147e-06)
(-0.000397368 -7.89574e-05 -2.09971e-05)
(-0.000514042 -5.4332e-05 4.9159e-06)
(-0.000512189 5.67883e-05 -8.74857e-05)
(-0.000434145 -9.88987e-05 -2.5901e-05)
(-0.000414983 5.13409e-05 -1.33584e-05)
(-0.00036329 -1.8447e-05 -7.52816e-05)
(-0.000433049 7.65538e-05 -2.93015e-05)
(-0.00046762 8.81365e-06 -6.8988e-05)
(-0.000421344 -6.22849e-05 7.79206e-05)
(-0.000458486 -4.27238e-05 3.62513e-05)
(-0.000451995 0.000113882 -9.73216e-06)
(-0.000394432 2.80222e-05 7.91731e-06)
(-0.000403042 1.69129e-05 -1.96661e-06)
(-0.000390218 -5.0749e-05 -6.33863e-05)
(-0.000473549 -1.72739e-05 -5.35973e-05)
(-0.000412226 -2.99391e-05 9.04303e-06)
(-0.000470971 8.11944e-05 -3.44746e-05)
(-0.000376657 -9.91828e-05 -9.60467e-06)
(-0.000444744 -2.38238e-05 8.35695e-05)
(-0.000454916 3.3539e-05 4.72078e-05)
(-0.000493996 -1.20473e-05 -0.000113584)
(-0.00038912 2.70034e-05 6.73009e-05)
(-0.000471948 -2.53054e-05 -3.72795e-06)
(-0.000437471 -4.31466e-06 -5.07266e-05)
(-0.00045874 -2.56483e-06 -1.38471e-05)
(-0.000486579 -5.81814e-05 -2.17203e-05)
(-0.000407124 -4.80696e-05 2.35437e-07)
(-0.000426663 2.92525e-05 1.54966e-05)
(-0.000423958 -7.06085e-06 -1.98691e-05)
(-0.000471137 -4.23864e-05 4.55261e-05)
(-0.000435508 -5.96938e-05 -1.76907e-05)
(-0.000484273 4.07635e-05 3.04665e-05)
(-0.000402222 -4.09955e-06 3.99686e-05)
(-0.000366759 4.44578e-05 -5.09652e-05)
(-0.000404475 -3.10236e-05 1.60994e-05)
(-0.000461422 -5.43112e-06 -2.83017e-05)
(-0.000464414 3.98295e-05 1.20727e-05)
(-0.000404042 6.04798e-06 3.91389e-05)
(-0.000412948 4.13354e-05 -3.87448e-05)
(-0.000392518 -7.26931e-05 -2.22987e-06)
(-0.000424026 -4.75119e-05 -3.14792e-05)
(-0.000393777 4.40452e-05 9.43977e-05)
(-0.000412767 9.27686e-06 2.81255e-05)
(-0.000381619 -6.85858e-05 4.8558e-05)
(-0.000458497 -1.02723e-05 -2.65994e-05)
(-0.000410556 -0.00010158 6.69724e-07)
(-0.000343857 -4.94336e-06 3.53256e-05)
(-0.000425249 8.15356e-06 -8.03847e-05)
(-0.000406644 -4.9606e-05 -9.81519e-05)
(-0.000387433 -6.41289e-05 -9.13424e-06)
(-0.000472245 2.41514e-05 -1.75963e-05)
(-0.000417799 -3.32591e-05 4.29312e-05)
(-0.000394375 -3.63257e-05 3.28128e-05)
(-0.000392622 -1.91816e-05 6.46303e-06)
(-0.00046157 -4.22509e-05 8.70003e-06)
(-0.000405139 2.28017e-06 -6.82827e-05)
(-0.000454028 -3.49114e-05 -6.19898e-05)
(-0.000447553 -3.19212e-05 8.37874e-05)
(-0.00044315 2.91612e-05 7.61592e-06)
(-0.000454587 -5.2459e-05 -7.11382e-05)
(-0.000491354 -4.47929e-05 -3.00055e-05)
(-0.000419637 1.55637e-05 -1.20986e-05)
(-0.000461799 3.41548e-05 -3.41606e-05)
(-0.000504282 6.9854e-06 9.40057e-06)
(-0.000372085 0.00011728 -1.86051e-05)
(-0.00046834 5.74131e-05 3.22867e-05)
(-0.00037398 -5.18583e-05 -5.75361e-05)
(-0.000486278 8.65119e-05 5.7827e-06)
(-0.000300149 -5.65303e-05 2.61291e-05)
(-0.000455145 2.75855e-05 -1.10674e-05)
(-0.000399612 -2.6379e-05 -2.24946e-05)
(-0.000471747 9.80186e-05 -9.12371e-06)
(-0.000451213 -3.13434e-06 -5.19115e-05)
(-0.000437466 5.11994e-06 1.74677e-05)
(-0.000414343 7.25374e-05 1.85722e-05)
(-0.000434986 -3.42075e-05 5.66155e-07)
(-0.000370488 -6.74095e-06 2.3877e-05)
(-0.00035181 -9.30928e-05 -3.22202e-05)
(-0.000420906 -3.61383e-05 -2.24826e-05)
(-0.000423841 -3.77991e-05 -9.25757e-05)
(-0.000365568 0.000113851 -2.26607e-05)
(-0.000488489 1.5936e-05 -4.69262e-05)
(-0.000377453 -2.92019e-05 9.25345e-06)
(-0.000443938 4.87942e-05 -7.12038e-05)
(-0.000376094 2.32899e-05 -2.6826e-07)
(-0.00034938 1.52923e-05 6.64041e-06)
(-0.000432154 5.97085e-05 -5.1256e-06)
(-0.000410526 6.02325e-05 -2.7404e-05)
(-0.000435098 -5.96469e-05 -4.7424e-06)
(-0.000371912 -4.63762e-05 -6.00177e-06)
(-0.000367308 -9.92496e-06 6.23698e-05)
(-0.000419378 -6.60001e-05 3.94494e-05)
(-0.000420977 -9.42839e-05 8.46208e-05)
(-0.000482238 -1.33125e-05 3.34447e-05)
(-0.000382276 -3.07796e-05 2.13313e-05)
(-0.000352409 5.99688e-05 2.5538e-05)
(-0.000364366 -5.77885e-05 -1.9181e-05)
(-0.000405844 -3.77939e-05 2.41835e-05)
(-0.000496415 -2.62322e-05 -2.38095e-05)
(-0.000401613 1.82411e-05 -9.53406e-06)
(-0.000453068 -1.18384e-05 -7.1891e-06)
(-0.000380568 -6.28947e-05 -1.55787e-05)
(-0.000445804 1.43765e-05 -7.63895e-05)
(-0.000339827 -1.44596e-06 1.86916e-05)
(-0.000357356 -1.45992e-06 6.29095e-05)
(-0.000389975 4.49598e-05 -5.416e-06)
(-0.000381985 8.23787e-05 6.24454e-05)
(-0.000345078 4.00566e-05 -8.18425e-06)
(-0.000390652 2.3052e-05 1.37421e-05)
(-0.000423413 9.22225e-07 -6.81977e-07)
(-0.000501262 3.7097e-05 2.39672e-05)
(-0.000420063 1.15151e-05 -3.10664e-06)
(-0.00039878 3.10138e-05 1.52248e-05)
(-0.00041012 -3.79502e-05 4.79887e-05)
(-0.000366226 8.40844e-05 -1.36473e-05)
(-0.00032249 -3.98465e-06 4.92402e-05)
(-0.000299935 -6.42385e-05 1.03353e-05)
(-0.000364682 -1.52098e-05 -3.49764e-06)
(-0.000366528 4.81874e-05 -8.84409e-05)
(-0.00036807 -2.37001e-05 8.71608e-05)
(-0.000379154 7.46136e-05 -5.77275e-05)
(-0.000404571 -1.13534e-05 7.5861e-06)
(-0.000341914 4.1902e-05 -6.10755e-05)
(-0.000387163 -1.74836e-05 0.000101065)
(-0.000327397 -6.67727e-06 4.49526e-05)
(-0.000417921 -3.70426e-05 -3.87854e-05)
(-0.00036646 -1.47747e-05 -2.11739e-05)
(-0.000349873 -2.33403e-05 -6.17536e-06)
(-0.000371379 -1.4264e-05 4.73082e-05)
(-0.000407674 7.43785e-05 2.32301e-05)
(-0.000347265 -3.28389e-05 -4.67867e-05)
(-0.000333656 -3.18344e-05 -7.88463e-05)
(-0.000336656 -7.43253e-05 6.78266e-05)
(-0.000368029 -4.40788e-05 2.38236e-05)
(-0.000371221 3.53554e-05 -3.20529e-05)
(-0.000354852 1.31816e-06 2.72222e-05)
(-0.000376701 0.000145102 6.09056e-05)
(-0.000294181 -2.20786e-05 -2.84578e-05)
(-0.000432068 -6.46018e-05 -2.60761e-06)
(-0.000410951 5.01101e-05 8.448e-06)
(-0.000303067 -7.62936e-05 3.81203e-05)
(-0.000374288 7.87341e-05 1.58468e-05)
(-0.000345895 5.53642e-05 -3.48355e-05)
(-0.000372254 -2.79616e-05 -1.57473e-05)
(-0.000390025 -3.04572e-05 6.00257e-05)
(-0.000406286 8.88616e-05 -1.30128e-05)
(-0.000392278 -3.99356e-05 0.000103514)
(-0.00039556 1.70354e-05 -6.78423e-05)
(-0.000354579 -4.1426e-05 2.89142e-05)
(-0.000380928 -4.38701e-05 -2.36031e-05)
(-0.00038629 2.78029e-05 9.64561e-06)
(-0.000421168 2.82693e-05 -5.26668e-05)
(-0.000372466 -4.25596e-06 1.71555e-05)
(-0.000374307 -1.83053e-05 -2.33008e-05)
(-0.000339838 3.96815e-05 -5.87384e-06)
(-0.000356261 -4.23786e-05 -2.33021e-05)
(-0.000401978 2.83159e-05 8.59758e-06)
(-0.000310777 -4.56048e-05 -3.67398e-06)
(-0.000249926 5.34675e-05 6.44683e-05)
(-0.000386587 4.67268e-05 2.62944e-05)
)
;

boundaryField
{
    sides
    {
        type            symmetry;
    }
    empty
    {
        type            empty;
    }
    procBoundary1to0
    {
        type            processor;
        value           uniform (-0.000264871 -5.19626e-06 2.60189e-05);
    }
    procBoundary1to2
    {
        type            processor;
        value           uniform (-0.000393701 -1.03507e-05 -5.73966e-05);
    }
}


// ************************************************************************* //
