/*--------------------------------*- C++ -*----------------------------------*\
  =========                 |
  \\      /  F ield         | OpenFOAM: The Open Source CFD Toolbox
   \\    /   O peration     | Website:  https://openfoam.org
    \\  /    A nd           | Version:  7
     \\/     M anipulation  |
\*---------------------------------------------------------------------------*/
FoamFile
{
    version     2.0;
    format      ascii;
    class       volScalarField;
    location    "0.0125";
    object      dsmcRhoN;
}
// * * * * * * * * * * * * * * * * * * * * * * * * * * * * * * * * * * * * * //

dimensions      [0 -3 0 0 0 0 0];

internalField   nonuniform List<scalar> 
1000
(
954
988
1026
1011
979
1007
996
924
912
980
1057
988
949
961
964
961
955
912
998
962
971
961
943
926
968
970
956
959
959
1002
941
990
977
929
1003
998
922
977
937
988
1052
975
973
1011
949
963
1015
984
1012
970
952
952
1019
973
1009
919
1054
985
973
974
997
961
967
1024
942
1031
1039
1076
953
951
939
950
1003
970
1001
995
1011
945
1004
1001
1002
988
994
1023
988
954
971
1018
998
989
986
981
995
972
994
973
974
957
991
966
977
1009
959
986
989
963
1008
951
959
932
985
956
990
1008
948
1005
969
938
981
1023
1018
991
967
958
971
980
963
905
1020
977
995
966
935
991
953
963
998
980
992
970
986
977
988
977
988
987
1003
967
959
1036
995
997
974
1013
940
978
977
996
954
977
967
978
960
960
945
990
969
1040
941
1030
987
1035
978
1007
983
985
1018
947
1020
1001
957
934
948
958
1004
998
993
979
991
935
901
955
996
1029
987
1016
971
957
974
943
940
969
962
960
963
1023
965
958
976
928
967
981
980
954
981
1016
988
926
928
984
969
933
994
968
953
944
951
1019
982
926
964
1004
1010
1007
964
987
990
926
911
965
960
991
991
946
1018
991
1028
963
920
973
966
953
991
1002
943
1006
985
970
990
936
989
1003
965
928
917
952
962
989
983
1024
972
953
975
956
969
952
968
974
1002
1021
966
968
942
961
934
934
1010
933
952
1021
1013
1003
925
993
978
999
951
891
940
910
894
955
911
948
968
995
934
933
992
955
996
947
973
978
991
896
989
957
1007
1002
976
988
956
991
988
979
987
997
1013
949
972
971
935
961
960
945
995
964
965
961
907
994
930
950
926
990
921
911
998
943
910
944
950
957
941
937
966
959
935
975
959
947
964
996
998
1023
949
993
937
992
984
934
911
953
930
976
917
950
917
945
983
901
950
981
977
957
965
1012
986
951
975
971
961
946
965
958
975
895
899
956
931
967
959
965
968
961
947
996
970
917
961
966
940
947
912
887
982
897
989
967
986
895
984
1038
945
946
986
964
959
905
972
983
949
928
891
949
971
947
910
935
984
965
935
935
952
892
1003
932
941
968
931
930
944
939
961
919
921
940
1008
910
928
1005
955
986
967
913
903
914
923
941
956
930
868
919
927
906
944
954
862
883
906
915
956
883
909
914
940
928
853
914
1004
879
921
922
864
923
963
899
888
931
936
869
920
881
897
943
897
977
909
940
926
985
959
894
925
889
951
914
910
936
916
940
914
856
900
965
912
896
943
891
904
938
929
904
901
915
918
910
899
940
920
886
926
886
915
927
891
933
828
944
847
915
918
934
907
875
902
885
901
852
945
899
838
859
886
959
896
915
866
888
911
860
908
924
921
877
888
934
861
854
902
878
854
863
885
875
840
844
860
880
859
853
923
886
878
904
843
836
821
835
850
842
880
903
828
845
905
880
809
878
904
799
869
849
846
827
786
915
867
898
858
841
835
830
862
901
867
868
906
886
868
843
844
856
846
863
793
845
899
899
861
837
849
910
889
868
910
879
802
842
890
910
871
826
887
869
872
829
860
877
848
902
848
845
852
878
854
855
869
864
874
868
845
870
871
847
850
868
858
883
837
875
865
847
785
901
843
852
896
855
871
870
852
850
901
861
854
842
935
907
916
834
879
901
943
889
869
865
873
823
883
907
910
795
854
921
859
929
909
922
896
886
887
931
888
975
853
916
909
939
924
948
911
878
899
942
955
919
889
949
969
951
908
963
932
932
928
989
935
940
902
943
963
952
1003
993
974
1014
1044
958
908
940
939
925
989
934
994
1026
982
1021
981
972
937
961
997
1021
1018
1018
1079
971
1053
1027
1041
1017
1042
1022
1068
1064
1002
1002
1011
1083
977
1078
983
1050
1026
1126
1007
1026
1026
1026
1033
1013
1035
1055
1025
1019
1010
1059
1060
1065
1074
1060
1019
1060
1073
1021
1098
1059
1041
1044
1133
1072
1066
1111
1020
1077
1044
1078
1059
1048
1058
1129
1052
993
1056
1031
1123
1078
1118
1069
1136
1088
1005
1061
1033
1085
1074
1147
1056
1084
1072
1058
1077
1086
1087
1077
1063
1135
1086
1080
1045
1090
1126
1039
1036
1085
1009
1031
1112
1077
1107
1083
1072
1061
1125
1053
1066
1144
1072
1047
1017
1039
1096
1054
1083
1050
1100
1078
1169
1043
1049
1099
1074
1066
1099
1132
1054
1033
1077
1111
1015
1084
1057
1068
1016
1058
1037
1121
1063
1096
1099
1047
1087
1042
1051
1053
1100
1140
1048
1117
1043
1060
1038
1040
1036
1083
1063
1046
1017
1065
992
1063
1035
1035
1086
1070
1056
1049
1129
1059
1099
1088
1040
1081
1054
1093
1070
1034
1098
1107
1044
1044
1041
1082
1102
1058
993
1034
1097
1076
1055
1063
1049
1114
1065
1093
1065
1046
1039
1042
1060
1097
1035
1057
1035
1059
1025
1093
1084
1058
1014
1068
1033
1047
1014
1018
1058
1091
966
1047
1089
1110
1033
1050
1104
1099
1104
1128
)
;

boundaryField
{
    sides
    {
        type            symmetry;
    }
    empty
    {
        type            empty;
    }
}


// ************************************************************************* //
