/*--------------------------------*- C++ -*----------------------------------*\
  =========                 |
  \\      /  F ield         | OpenFOAM: The Open Source CFD Toolbox
   \\    /   O peration     | Website:  https://openfoam.org
    \\  /    A nd           | Version:  7
     \\/     M anipulation  |
\*---------------------------------------------------------------------------*/
FoamFile
{
    version     2.0;
    format      ascii;
    class       volScalarField;
    location    "0.0125";
    object      internalE;
}
// * * * * * * * * * * * * * * * * * * * * * * * * * * * * * * * * * * * * * //

dimensions      [1 -1 -2 0 0 0 0];

internalField   nonuniform List<scalar> 
1000
(
0.209992
0.224795
0.224376
0.224107
0.220462
0.221211
0.217258
0.206737
0.197522
0.222458
0.246528
0.209919
0.220454
0.218029
0.221055
0.217703
0.2135
0.18704
0.214596
0.215619
0.207362
0.218133
0.202877
0.198559
0.215237
0.219288
0.211659
0.218723
0.213627
0.213112
0.218125
0.230142
0.208251
0.196149
0.218196
0.226374
0.205622
0.218445
0.209531
0.218916
0.232798
0.199755
0.228519
0.226343
0.219664
0.210633
0.221597
0.22532
0.228864
0.22787
0.202845
0.216929
0.216449
0.216663
0.213178
0.207219
0.222145
0.209853
0.225526
0.211939
0.227931
0.208379
0.221569
0.227471
0.217514
0.229748
0.224423
0.248527
0.215654
0.207862
0.208607
0.221522
0.2176
0.213529
0.213427
0.213449
0.227993
0.214403
0.218133
0.225806
0.212573
0.212959
0.206184
0.235512
0.224027
0.204777
0.219192
0.235654
0.210231
0.230165
0.228899
0.213274
0.213614
0.2216
0.213598
0.218956
0.217756
0.21995
0.229304
0.221929
0.220195
0.213051
0.20776
0.210528
0.206727
0.211979
0.238279
0.220889
0.200134
0.208175
0.216399
0.20611
0.221232
0.221658
0.201177
0.224606
0.198593
0.214835
0.218561
0.226177
0.228965
0.219196
0.218669
0.205598
0.207248
0.21631
0.207137
0.212232
0.222468
0.215895
0.220613
0.212085
0.20948
0.222349
0.214564
0.213035
0.224117
0.216773
0.21877
0.209686
0.212917
0.221162
0.221822
0.220629
0.217003
0.218308
0.229552
0.219259
0.204578
0.23541
0.227544
0.22114
0.226379
0.233744
0.208499
0.208087
0.226506
0.227869
0.218891
0.21202
0.218898
0.202256
0.224082
0.2111
0.203288
0.216111
0.210787
0.227635
0.208008
0.222231
0.21575
0.222614
0.219087
0.232604
0.21933
0.223845
0.233932
0.190102
0.23231
0.215906
0.216958
0.204525
0.210299
0.216826
0.219362
0.226101
0.209446
0.221102
0.234704
0.218137
0.197994
0.215914
0.217516
0.236199
0.218936
0.229234
0.224876
0.215282
0.205625
0.207626
0.204157
0.212166
0.208737
0.217864
0.206666
0.231748
0.213325
0.203996
0.223575
0.197305
0.207251
0.208834
0.216807
0.212425
0.220008
0.223815
0.21927
0.210367
0.212904
0.220033
0.204559
0.199592
0.217089
0.220759
0.207764
0.193624
0.210594
0.229653
0.229659
0.201827
0.218091
0.216306
0.219448
0.222067
0.209574
0.217606
0.212958
0.202884
0.198344
0.219683
0.220765
0.22112
0.230837
0.211533
0.227667
0.230927
0.236487
0.214095
0.21136
0.209855
0.208834
0.21323
0.227019
0.230815
0.201298
0.22314
0.216294
0.217978
0.224209
0.216076
0.233101
0.226443
0.22179
0.193526
0.198706
0.223181
0.209487
0.209262
0.206131
0.222691
0.1982
0.206426
0.202576
0.205762
0.214238
0.216051
0.220633
0.210079
0.211122
0.224804
0.210788
0.214548
0.20593
0.211823
0.20945
0.203822
0.227632
0.199324
0.204938
0.228918
0.227918
0.22158
0.211844
0.219931
0.229122
0.218071
0.215865
0.191535
0.211291
0.206431
0.193276
0.207863
0.198049
0.216125
0.224732
0.220631
0.219119
0.208422
0.209068
0.225601
0.22046
0.21671
0.212292
0.211798
0.223739
0.197663
0.217879
0.209345
0.228337
0.216226
0.209946
0.222006
0.216796
0.220404
0.217934
0.210165
0.210155
0.217445
0.218749
0.202245
0.211287
0.210006
0.203729
0.215145
0.2127
0.204973
0.225812
0.210401
0.203986
0.206548
0.185879
0.222512
0.205501
0.214499
0.221599
0.221104
0.209165
0.20041
0.229584
0.204141
0.195549
0.204492
0.209469
0.210873
0.204387
0.209011
0.200897
0.210777
0.21077
0.207255
0.208482
0.216305
0.211198
0.221458
0.224242
0.2233
0.210916
0.20466
0.205018
0.226724
0.213887
0.194562
0.21402
0.209369
0.206266
0.214972
0.200963
0.208158
0.194339
0.207045
0.219367
0.197888
0.224105
0.224296
0.21741
0.215014
0.214399
0.222513
0.220842
0.208752
0.226597
0.208579
0.230646
0.207881
0.220972
0.208974
0.218419
0.200995
0.206397
0.217416
0.20718
0.213424
0.211
0.216503
0.219812
0.214537
0.214882
0.224243
0.211506
0.207727
0.221135
0.2114
0.208441
0.212618
0.208916
0.200224
0.225262
0.202388
0.23488
0.206218
0.211284
0.195424
0.220914
0.234624
0.206253
0.211553
0.213278
0.224311
0.223572
0.201464
0.223586
0.233114
0.21849
0.198055
0.20148
0.206086
0.216299
0.219454
0.198678
0.211176
0.212856
0.216425
0.22938
0.215401
0.221162
0.198146
0.236564
0.207686
0.211948
0.23365
0.202011
0.219925
0.220097
0.204254
0.219368
0.205001
0.203815
0.212885
0.220369
0.205175
0.202538
0.223326
0.203969
0.234152
0.20381
0.215304
0.205394
0.207517
0.218372
0.208597
0.227434
0.211622
0.197307
0.220754
0.217159
0.202576
0.209384
0.211738
0.20398
0.204922
0.202682
0.211145
0.228407
0.194953
0.206755
0.205388
0.206651
0.217594
0.193839
0.204968
0.226382
0.191205
0.207963
0.210869
0.19589
0.212449
0.223679
0.206843
0.206329
0.207481
0.208414
0.205449
0.226345
0.191547
0.206948
0.210249
0.214117
0.228784
0.213324
0.219713
0.210562
0.223538
0.204177
0.202106
0.22831
0.215802
0.221399
0.202557
0.215883
0.214051
0.223612
0.221074
0.191145
0.202207
0.20713
0.211598
0.206601
0.204348
0.211551
0.200287
0.205922
0.214872
0.215799
0.208352
0.207473
0.211864
0.219666
0.205646
0.213299
0.22353
0.211661
0.202248
0.213256
0.209614
0.213234
0.217121
0.205994
0.220124
0.187123
0.230683
0.183823
0.222573
0.211824
0.228874
0.20798
0.197548
0.211463
0.215814
0.207537
0.198101
0.226719
0.208482
0.203296
0.196624
0.197995
0.209735
0.2066
0.217347
0.201607
0.195296
0.218325
0.203703
0.211693
0.220815
0.219292
0.204668
0.203071
0.21665
0.20654
0.189931
0.201263
0.213439
0.201257
0.204353
0.215499
0.205641
0.199909
0.189726
0.195409
0.209647
0.209119
0.200791
0.233099
0.20178
0.211703
0.207827
0.196414
0.212147
0.198291
0.191866
0.189908
0.205176
0.210957
0.206255
0.189328
0.192083
0.210985
0.201261
0.195129
0.220027
0.223328
0.201506
0.206985
0.189308
0.206689
0.202566
0.180689
0.21715
0.20859
0.230596
0.200894
0.197826
0.202103
0.190189
0.213382
0.225749
0.200514
0.206751
0.217159
0.21281
0.215327
0.2122
0.20774
0.208621
0.208039
0.202886
0.196148
0.206841
0.228536
0.22214
0.213772
0.199463
0.20903
0.233364
0.21475
0.215377
0.220188
0.218645
0.208814
0.187033
0.213856
0.207511
0.215685
0.191251
0.22439
0.205109
0.219672
0.198923
0.206182
0.205817
0.220321
0.207178
0.210165
0.214846
0.214315
0.226758
0.219721
0.20987
0.216941
0.210007
0.212771
0.226185
0.207771
0.213616
0.20897
0.215443
0.204113
0.220251
0.21295
0.218693
0.214855
0.209748
0.218055
0.21156
0.206538
0.229782
0.204845
0.221095
0.234804
0.225561
0.22607
0.210415
0.226776
0.218732
0.235008
0.220296
0.229896
0.21084
0.222296
0.224398
0.243081
0.22515
0.226495
0.229377
0.234006
0.226332
0.218038
0.224212
0.223633
0.209362
0.219005
0.236924
0.231752
0.21054
0.220775
0.232407
0.233365
0.240293
0.241176
0.245747
0.228756
0.230432
0.231042
0.258656
0.236523
0.272862
0.239549
0.244066
0.24858
0.256566
0.240903
0.254433
0.246063
0.243633
0.230055
0.256421
0.251249
0.24461
0.246529
0.281602
0.265027
0.269273
0.254847
0.282976
0.259773
0.264444
0.251921
0.271106
0.263607
0.268772
0.243452
0.25844
0.276895
0.279737
0.29103
0.275945
0.284855
0.281474
0.30698
0.277559
0.264175
0.263031
0.278677
0.245296
0.291664
0.263274
0.29127
0.281543
0.266731
0.307071
0.295218
0.289646
0.283419
0.256434
0.282368
0.299618
0.293489
0.313418
0.318528
0.278446
0.304643
0.291754
0.299062
0.295851
0.314801
0.313805
0.322691
0.338526
0.299074
0.308501
0.313333
0.32825
0.311914
0.340116
0.299619
0.328601
0.303197
0.339094
0.327854
0.325226
0.318857
0.311921
0.324916
0.322565
0.31645
0.322083
0.329325
0.31976
0.327049
0.330554
0.334952
0.327795
0.343743
0.348971
0.328914
0.320583
0.341158
0.319427
0.352612
0.319223
0.330229
0.346004
0.378041
0.335584
0.32964
0.342802
0.321742
0.33579
0.343977
0.348311
0.355063
0.346796
0.352602
0.379785
0.361823
0.326461
0.330696
0.362148
0.371349
0.357847
0.383047
0.350137
0.370774
0.350165
0.328523
0.36472
0.332021
0.358949
0.358024
0.395699
0.34083
0.374954
0.361131
0.360478
0.373289
0.367928
0.374866
0.357897
0.366398
0.394761
0.389257
0.349038
0.34905
0.37092
0.398431
0.346991
0.360427
0.380003
0.329294
0.348042
0.375517
0.362653
0.399148
0.384549
0.363456
0.363646
0.400732
0.358953
0.355897
0.384913
0.360441
0.377174
0.35459
0.365223
0.389196
0.352426
0.389715
0.368642
0.39433
0.388189
0.452675
0.376755
0.364892
0.374668
0.391502
0.380986
0.386506
0.392686
0.372971
0.35802
0.375008
0.387317
0.363378
0.379698
0.360168
0.397229
0.353227
0.380303
0.366716
0.417625
0.37776
0.393556
0.391295
0.390988
0.381356
0.370518
0.379715
0.370246
0.420471
0.430629
0.370974
0.421681
0.355629
0.385143
0.390922
0.364909
0.377488
0.393416
0.371701
0.386347
0.362165
0.394676
0.374901
0.364107
0.383056
0.355226
0.4058
0.398189
0.371854
0.387977
0.401969
0.370819
0.413504
0.400197
0.383262
0.406286
0.349531
0.406409
0.389463
0.385513
0.400352
0.413413
0.365924
0.379195
0.394834
0.392662
0.401824
0.382532
0.375676
0.375915
0.416036
0.389029
0.422305
0.415765
0.393468
0.388652
0.398759
0.400792
0.376343
0.392103
0.378716
0.397835
0.391021
0.392458
0.390416
0.400941
0.394681
0.385129
0.375873
0.41795
0.398859
0.385849
0.37024
0.380442
0.357506
0.388287
0.374343
0.372558
0.397859
0.435454
0.35552
0.384725
0.38759
0.39578
0.400752
0.365748
0.411806
0.410424
0.406003
0.401613
)
;

boundaryField
{
    sides
    {
        type            symmetry;
    }
    empty
    {
        type            empty;
    }
}


// ************************************************************************* //
