/*--------------------------------*- C++ -*----------------------------------*\
  =========                 |
  \\      /  F ield         | OpenFOAM: The Open Source CFD Toolbox
   \\    /   O peration     | Website:  https://openfoam.org
    \\  /    A nd           | Version:  7
     \\/     M anipulation  |
\*---------------------------------------------------------------------------*/
FoamFile
{
    version     2.0;
    format      ascii;
    class       Cloud<dsmcParcel>;
    location    "0.00252/lagrangian/dsmc";
    object      positions;
}
// * * * * * * * * * * * * * * * * * * * * * * * * * * * * * * * * * * * * * //

9220
(
(0.303907 0.348046 0 0.348046) 3 2 2
(0.0678067 0.466097 0.466097 0) 2 1 1
(0.13426 0.43287 0 0.43287) 3 2 2
(0.410364 0.294818 0.294818 0) 6 6 2
(0.317178 0.341411 0.341411 0) 1 0 1
(0.976086 0.0119569 0.0119569 0) 4 3 1
(0.388631 0.305685 0 0.305685) 0 0 1
(0.0991735 0.450413 0 0.450413) 6 5 2
(0.404591 0.297705 0.297705 0) 0 625 2
(0.194246 0.402877 0 0.402877) 8 7 2
(0.691301 0.154349 0.154349 0) 6 6 2
(0.87678 0.0616098 0.0616098 0) 1 1 2
(0.71845 0.140775 0.140775 0) 1 0 1
(0.13307 0.433465 0.433465 0) 2 2 2
(0.936582 0.0317088 0 0.0317088) 3 2 2
(0.212348 0.393826 0.393826 0) 6 6 2
(0.457064 0.271468 0.271468 0) 6 5 1
(0.458514 0.270743 0.270743 0) 6 5 1
(0.401697 0.299152 0 0.299152) 1 0 2
(0.375637 0.312181 0 0.312181) 4 3 2
(0.790043 0.104979 0 0.104979) 3 3 1
(0.313284 0.343358 0 0.343358) 2 1 2
(0.535419 0.232291 0 0.232291) 2 2 1
(0.727272 0.136364 0.136364 0) 2 1 1
(0.154223 0.422889 0 0.422889) 5 5 1
(0.019749 0.490125 0 0.490125) 4 4 1
(0.585288 0.207356 0 0.207356) 4 4 1
(0.697924 0.151038 0.151038 0) 7 6 1
(0.30971 0.345145 0.345145 0) 2 1 1
(0.473962 0.263019 0.263019 0) 2 1 1
(0.432327 0.283836 0.283836 0) 3 3 2
(0.266823 0.366588 0 0.366588) 6 5 2
(0.00588673 0.497057 0.497057 0) 3 3 2
(0.0312983 0.484351 0 0.484351) 8 7 2
(0.809945 0.0950273 0 0.0950273) 2 1 2
(0.777345 0.111327 0 0.111327) 3 2 2
(0.978617 0.0106915 0 0.0106915) 3 2 2
(0.652591 0.173705 0 0.173705) 1 1 1
(0.0756335 0.462183 0.462183 0) 5 5 2
(0.986928 0.00653596 0.00653596 0) 1 1 2
(0.420686 0.289657 0 0.289657) 0 625 1
(0.663974 0.168013 0 0.168013) 7 7 1
(0.87992 0.0600398 0 0.0600398) 5 4 2
(0.618841 0.190579 0.190579 0) 4 4 2
(0.0755867 0.462207 0.462207 0) 6 5 1
(0.281044 0.359478 0.359478 0) 5 4 1
(0.281579 0.359211 0.359211 0) 3 3 2
(0.804495 0.0977523 0.0977523 0) 3 2 1
(0.843541 0.0782296 0.0782296 0) 3 3 2
(0.512117 0.243942 0 0.243942) 3 3 1
(0.512701 0.243649 0 0.243649) 4 4 1
(0.970455 0.0147725 0 0.0147725) 5 4 2
(0.619645 0.190177 0 0.190177) 2 2 1
(0.029829 0.485085 0.485085 0) 9 8 1
(0.262754 0.368623 0 0.368623) 3 3 1
(0.150689 0.424655 0 0.424655) 2 2 1
(0.487077 0.256462 0.256462 0) 1 0 1
(0.443263 0.278369 0 0.278369) 6 6 1
(0.390233 0.304884 0.304884 0) 7 7 2
(0.691006 0.154497 0.154497 0) 1 1 2
(0.744101 0.12795 0 0.12795) 2 2 1
(0.115985 0.442008 0 0.442008) 3 3 1
(0.0756817 0.462159 0 0.462159) 3 3 1
(0.262465 0.368768 0 0.368768) 4 3 2
(0.107689 0.446156 0.446156 0) 5 4 1
(0.149775 0.425112 0.425112 0) 4 3 1
(0.669633 0.165183 0 0.165183) 5 4 2
(0.559645 0.220177 0 0.220177) 3 3 1
(0.828167 0.0859167 0.0859167 0) 2 2 2
(0.00414009 0.49793 0.49793 0) 3 2 1
(0.0529168 0.473542 0 0.473542) 0 0 1
(0.374582 0.312709 0.312709 0) 4 4 2
(0.729393 0.135304 0 0.135304) 2 1 2
(0.740336 0.129832 0 0.129832) 1 1 1
(0.93084 0.0345799 0.0345799 0) 0 0 2
(0.268406 0.365797 0 0.365797) 8 7 2
(0.544441 0.227779 0 0.227779) 8 8 1
(0.722698 0.138651 0.138651 0) 6 5 1
(0.245098 0.377451 0 0.377451) 3 2 2
(0.214031 0.392985 0.392985 0) 3 3 2
(0.97659 0.0117051 0.0117051 0) 6 6 2
(0.378205 0.310897 0 0.310897) 6 5 2
(0.703589 0.148205 0 0.148205) 4 3 2
(0.744396 0.127802 0 0.127802) 2 2 1
(0.702559 0.14872 0 0.14872) 4 4 1
(0.794177 0.102911 0 0.102911) 2 2 1
(0.71234 0.14383 0.14383 0) 10 10 2
(0.229365 0.385318 0 0.385318) 3 2 2
(0.88579 0.0571052 0.0571052 0) 3 3 2
(0.465225 0.267387 0 0.267387) 6 6 1
(0.0641523 0.467924 0.467924 0) 3 3 2
(0.879223 0.0603886 0 0.0603886) 0 0 1
(0.73864 0.13068 0 0.13068) 6 5 2
(0.244385 0.377807 0.377807 0) 1 1 2
(0.638674 0.180663 0.180663 0) 3 3 2
(0.882217 0.0588915 0.0588915 0) 5 5 2
(0.302253 0.348874 0.348874 0) 2 2 2
(0.255694 0.372153 0 0.372153) 5 4 2
(0.451888 0.274056 0 0.274056) 8 8 1
(0.0509734 0.474513 0 0.474513) 1 0 2
(0.175065 0.412467 0.412467 0) 8 7 1
(0.778311 0.110844 0 0.110844) 6 6 1
(0.0118999 0.49405 0.49405 0) 1 1 2
(0.463279 0.268361 0.268361 0) 2 2 2
(0.351595 0.324202 0.324202 0) 6 5 1
(0.111375 0.444312 0 0.444312) 8 7 2
(0.00246546 0.498767 0.498767 0) 4 3 1
(0.690239 0.154881 0 0.154881) 6 6 1
(0.530869 0.234565 0 0.234565) 6 5 2
(0.84901 0.0754952 0.0754952 0) 8 7 1
(0.319061 0.34047 0 0.34047) 4 3 2
(0.602091 0.198954 0 0.198954) 9 8 2
(0.345982 0.327009 0 0.327009) 5 5 1
(0.154997 0.422502 0 0.422502) 2 2 1
(0.468874 0.265563 0.265563 0) 1 1 2
(0.148358 0.425821 0.425821 0) 7 6 1
(0.889303 0.0553486 0.0553486 0) 4 3 1
(0.259112 0.370444 0 0.370444) 6 5 2
(0.897372 0.0513139 0.0513139 0) 3 3 2
(0.0351179 0.482441 0.482441 0) 6 5 1
(0.518445 0.240777 0 0.240777) 6 6 1
(0.212375 0.393813 0.393813 0) 7 6 1
(0.699219 0.150391 0.150391 0) 4 3 1
(0.477738 0.261131 0.261131 0) 3 3 2
(0.372652 0.313674 0.313674 0) 7 7 2
(0.880169 0.0599155 0.0599155 0) 7 6 1
(0.30149 0.349255 0.349255 0) 6 5 1
(0.954049 0.0229757 0 0.0229757) 2 2 1
(0.283328 0.358336 0 0.358336) 3 3 1
(0.715719 0.14214 0 0.14214) 1 1 1
(0.38554 0.30723 0 0.30723) 1 1 1
(0.981148 0.00942597 0 0.00942597) 9 9 1
(0.193191 0.403405 0.403405 0) 5 4 1
(0.0556754 0.472162 0.472162 0) 5 4 1
(0.880256 0.059872 0.059872 0) 4 4 2
(0.487027 0.256487 0 0.256487) 1 1 1
(0.777548 0.111226 0 0.111226) 2 2 1
(0.403506 0.298247 0.298247 0) 4 3 1
(0.625079 0.18746 0 0.18746) 5 5 1
(0.897933 0.0510335 0 0.0510335) 1 1 1
(0.849207 0.0753964 0 0.0753964) 8 8 1
(0.272333 0.363833 0.363833 0) 7 7 2
(0.597648 0.201176 0.201176 0) 7 7 2
(0.425992 0.287004 0 0.287004) 3 2 2
(0.0320998 0.48395 0.48395 0) 1 1 2
(0.912897 0.0435517 0 0.0435517) 5 4 2
(0.913147 0.0434264 0 0.0434264) 3 2 2
(0.714908 0.142546 0 0.142546) 9 8 2
(0.19141 0.404295 0.404295 0) 0 0 2
(0.654007 0.172996 0.172996 0) 4 3 1
(0.542437 0.228781 0.228781 0) 4 3 1
(0.690113 0.154944 0 0.154944) 6 6 1
(0.414811 0.292594 0 0.292594) 7 6 2
(0.616905 0.191548 0.191548 0) 6 5 1
(0.793395 0.103303 0.103303 0) 0 0 2
(0.221935 0.389033 0.389033 0) 1 0 1
(0.105184 0.447408 0 0.447408) 3 2 2
(0.28357 0.358215 0 0.358215) 2 2 1
(0.016385 0.491808 0 0.491808) 2 1 2
(0.671903 0.164049 0 0.164049) 6 5 2
(0.14226 0.42887 0.42887 0) 4 3 1
(0.782215 0.108893 0 0.108893) 6 6 1
(0.715293 0.142353 0 0.142353) 3 2 2
(0.59533 0.202335 0 0.202335) 5 5 1
(0.332655 0.333673 0.333673 0) 2 2 2
(0.976108 0.0119462 0.0119462 0) 6 5 1
(0.978601 0.0106996 0.0106996 0) 8 8 2
(0.481488 0.259256 0 0.259256) 7 6 2
(0.53098 0.23451 0 0.23451) 2 2 1
(0.37436 0.31282 0.31282 0) 3 3 2
(0.539381 0.230309 0 0.230309) 3 3 1
(0.110768 0.444616 0 0.444616) 5 4 2
(0.780104 0.109948 0 0.109948) 8 8 1
(0.261048 0.369476 0.369476 0) 1 0 1
(0.00729609 0.496352 0 0.496352) 2 1 2
(0.46245 0.268775 0.268775 0) 1 0 1
(0.88899 0.0555052 0.0555052 0) 1 1 2
(0.445105 0.277448 0 0.277448) 1 1 1
(0.96721 0.0163951 0 0.0163951) 4 4 1
(0.829201 0.0853994 0.0853994 0) 4 3 1
(0.101714 0.449143 0 0.449143) 10 10 1
(0.0612292 0.469385 0 0.469385) 4 3 2
(0.965586 0.017207 0 0.017207) 1 1 1
(0.832049 0.0839756 0.0839756 0) 9 8 1
(0.360805 0.319598 0 0.319598) 6 5 2
(0.378325 0.310838 0.310838 0) 1 1 2
(0.426622 0.286689 0.286689 0) 7 6 1
(0.013246 0.493377 0 0.493377) 2 1 2
(0.36137 0.319315 0.319315 0) 6 5 1
(0.506984 0.246508 0 0.246508) 7 7 1
(0.394788 0.302606 0 0.302606) 4 4 1
(0.0294742 0.485263 0.485263 0) 4 3 1
(0.538745 0.230627 0.230627 0) 3 3 2
(0.297942 0.351029 0.351029 0) 8 7 1
(0.213735 0.393132 0.393132 0) 4 3 1
(0.288586 0.355707 0 0.355707) 0 625 1
(0.215428 0.392286 0.392286 0) 6 6 2
(0.206481 0.39676 0.39676 0) 4 3 1
(0.685003 0.157499 0 0.157499) 6 5 2
(0.157899 0.42105 0.42105 0) 3 3 2
(0.917836 0.041082 0.041082 0) 2 1 1
(0.605836 0.197082 0 0.197082) 9 9 1
(0.764661 0.11767 0 0.11767) 5 5 1
(0.286336 0.356832 0.356832 0) 5 4 1
(0.711437 0.144282 0 0.144282) 5 4 2
(0.752409 0.123796 0 0.123796) 7 7 1
(0.155728 0.422136 0.422136 0) 8 8 2
(0.144228 0.427886 0 0.427886) 7 7 1
(0.338466 0.330767 0 0.330767) 10 9 2
(0.381297 0.309352 0.309352 0) 5 5 2
(0.175976 0.412012 0.412012 0) 8 8 2
(0.134907 0.432547 0 0.432547) 4 3 2
(0.341869 0.329066 0 0.329066) 4 3 2
(0.931207 0.0343964 0 0.0343964) 10 9 2
(0.691763 0.154119 0 0.154119) 9 9 1
(0.157262 0.421369 0 0.421369) 7 7 1
(0.140552 0.429724 0.429724 0) 7 7 2
(0.877671 0.0611647 0 0.0611647) 7 6 2
(0.617044 0.191478 0.191478 0) 5 5 2
(0.586748 0.206626 0.206626 0) 8 8 2
(0.981169 0.00941563 0 0.00941563) 6 5 2
(0.464512 0.267744 0 0.267744) 5 4 2
(0.607347 0.196327 0 0.196327) 2 1 2
(0.0394534 0.480273 0.480273 0) 2 2 2
(0.537986 0.231007 0.231007 0) 7 7 2
(0.499666 0.250167 0 0.250167) 7 7 1
(0.219371 0.390314 0.390314 0) 2 2 2
(0.489945 0.255027 0 0.255027) 6 6 1
(0.370864 0.314568 0 0.314568) 7 6 2
(0.666471 0.166764 0 0.166764) 7 6 2
(0.180463 0.409769 0 0.409769) 6 5 2
(0.503858 0.248071 0 0.248071) 5 4 2
(0.582343 0.208829 0 0.208829) 7 7 1
(0.615802 0.192099 0.192099 0) 6 6 2
(0.205695 0.397153 0.397153 0) 1 1 2
(0.166558 0.416721 0 0.416721) 4 3 2
(0.400488 0.299756 0 0.299756) 0 0 1
(0.655262 0.172369 0 0.172369) 4 4 1
(0.400756 0.299622 0.299622 0) 7 7 2
(0.229539 0.385231 0 0.385231) 5 5 1
(0.119566 0.440217 0.440217 0) 7 6 1
(0.873852 0.0630742 0.0630742 0) 0 0 2
(0.706235 0.146883 0 0.146883) 7 7 1
(0.463627 0.268187 0.268187 0) 6 6 2
(0.911873 0.0440637 0.0440637 0) 7 6 1
(0.679439 0.160281 0.160281 0) 1 1 2
(0.349127 0.325437 0.325437 0) 8 8 2
(0.66681 0.166595 0 0.166595) 3 2 2
(0.171189 0.414406 0.414406 0) 2 1 1
(0.900206 0.0498968 0 0.0498968) 2 2 1
(0.415973 0.292013 0.292013 0) 7 6 1
(0.296439 0.351781 0.351781 0) 9 8 1
(0.032325 0.483838 0 0.483838) 7 6 2
(0.240063 0.379969 0.379969 0) 6 5 1
(0.842754 0.078623 0 0.078623) 8 8 1
(0.820594 0.0897031 0.0897031 0) 5 4 1
(0.0171851 0.491407 0 0.491407) 11 10 2
(0.0415779 0.479211 0 0.479211) 0 0 1
(0.829028 0.0854862 0.0854862 0) 4 3 1
(0.789916 0.105042 0.105042 0) 8 7 1
(0.875488 0.0622562 0.0622562 0) 2 1 1
(0.334539 0.33273 0 0.33273) 5 5 1
(0.864953 0.0675234 0.0675234 0) 3 2 1
(0.212658 0.393671 0 0.393671) 4 3 2
(0.547561 0.226219 0.226219 0) 5 5 2
(0.0538963 0.473052 0.473052 0) 4 4 2
(0.200476 0.399762 0 0.399762) 10 9 2
(0.188392 0.405804 0 0.405804) 7 6 2
(0.250671 0.374665 0.374665 0) 6 6 2
(0.80217 0.0989148 0 0.0989148) 4 3 2
(0.0170574 0.491471 0.491471 0) 5 4 1
(0.985032 0.00748416 0.00748416 0) 3 2 1
(0.463567 0.268216 0.268216 0) 5 5 2
(0.72966 0.13517 0.13517 0) 4 4 2
(0.562697 0.218651 0.218651 0) 3 2 1
(0.557111 0.221444 0 0.221444) 8 8 1
(0.370602 0.314699 0.314699 0) 7 7 2
(0.650477 0.174762 0.174762 0) 7 7 2
(0.617657 0.191172 0.191172 0) 12 11 1
(0.967488 0.016256 0 0.016256) 9 8 2
(0.919727 0.0401366 0 0.0401366) 3 2 2
(0.9313 0.0343498 0 0.0343498) 7 7 1
(0.195105 0.402447 0.402447 0) 10 10 2
(0.0124395 0.49378 0.49378 0) 4 4 2
(0.293873 0.353063 0 0.353063) 5 4 2
(0.416063 0.291969 0 0.291969) 5 5 1
(0.923824 0.0380878 0 0.0380878) 7 7 1
(0.0618865 0.469057 0 0.469057) 6 6 1
(0.374553 0.312723 0.312723 0) 7 6 1
(0.586583 0.206708 0.206708 0) 5 5 2
(0.665663 0.167168 0.167168 0) 6 5 1
(0.97989 0.0100548 0.0100548 0) 4 3 1
(0.533852 0.233074 0 0.233074) 7 6 2
(0.570557 0.214721 0.214721 0) 3 3 2
(0.462236 0.268882 0 0.268882) 6 5 2
(0.11395 0.443025 0 0.443025) 2 2 1
(0.956255 0.0218726 0 0.0218726) 5 4 2
(0.242643 0.378679 0.378679 0) 8 8 2
(0.0871944 0.456403 0.456403 0) 4 4 2
(0.322318 0.338841 0 0.338841) 5 4 2
(0.0833285 0.458336 0.458336 0) 6 5 1
(0.374689 0.312656 0 0.312656) 5 4 2
(0.48214 0.25893 0 0.25893) 7 6 2
(0.523032 0.238484 0.238484 0) 4 3 1
(0.491437 0.254282 0 0.254282) 6 6 1
(0.468195 0.265903 0.265903 0) 4 4 2
(0.38986 0.30507 0.30507 0) 1 1 2
(0.137116 0.431442 0.431442 0) 6 5 1
(0.311425 0.344288 0 0.344288) 6 5 2
(0.00220053 0.4989 0.4989 0) 9 8 1
(0.675284 0.162358 0.162358 0) 9 8 1
(0.472353 0.263824 0.263824 0) 4 4 2
(0.54156 0.22922 0.22922 0) 4 3 1
(0.354089 0.322955 0 0.322955) 6 6 1
(0.711575 0.144213 0 0.144213) 9 8 2
(0.499406 0.250297 0 0.250297) 3 3 1
(0.758518 0.120741 0.120741 0) 7 6 1
(0.126347 0.436827 0.436827 0) 9 8 1
(0.286607 0.356697 0.356697 0) 10 9 1
(0.401265 0.299367 0.299367 0) 11 10 1
(0.715425 0.142288 0.142288 0) 5 4 1
(0.199037 0.400481 0.400481 0) 7 6 1
(0.00650692 0.496747 0 0.496747) 6 5 2
(0.785361 0.107319 0.107319 0) 8 7 1
(0.694231 0.152884 0.152884 0) 0 0 2
(0.147762 0.426119 0.426119 0) 7 6 1
(0.519354 0.240323 0.240323 0) 8 8 2
(0.854672 0.0726642 0.0726642 0) 12 12 2
(0.561339 0.219331 0.219331 0) 7 7 2
(0.416274 0.291863 0 0.291863) 8 7 2
(0.776865 0.111567 0 0.111567) 4 4 1
(0.438905 0.280547 0 0.280547) 6 6 1
(0.69656 0.15172 0 0.15172) 9 8 2
(0.592535 0.203733 0 0.203733) 2 2 1
(0.0679047 0.466048 0.466048 0) 3 3 2
(0.505237 0.247382 0.247382 0) 5 4 1
(0.651069 0.174466 0 0.174466) 5 5 1
(0.348397 0.325801 0 0.325801) 2 1 2
(0.345565 0.327218 0 0.327218) 5 4 2
(0.409633 0.295183 0.295183 0) 3 3 2
(0.116613 0.441694 0 0.441694) 8 7 2
(0.0493311 0.475334 0 0.475334) 6 5 2
(0.862738 0.068631 0 0.068631) 10 10 1
(0.217699 0.39115 0 0.39115) 9 9 1
(0.504136 0.247932 0.247932 0) 4 3 1
(0.0648068 0.467597 0 0.467597) 11 11 1
(0.974074 0.0129631 0 0.0129631) 7 6 2
(0.90862 0.0456898 0.0456898 0) 8 7 1
(0.895309 0.0523456 0 0.0523456) 6 6 1
(0.257016 0.371492 0.371492 0) 9 8 1
(0.456764 0.271618 0.271618 0) 7 7 2
(0.924538 0.0377309 0.0377309 0) 10 10 2
(0.51375 0.243125 0 0.243125) 3 2 2
(0.330363 0.334819 0.334819 0) 6 5 1
(0.478288 0.260856 0.260856 0) 7 7 2
(0.241234 0.379383 0 0.379383) 5 4 2
(0.0460154 0.476992 0 0.476992) 10 9 2
(0.0142358 0.492882 0.492882 0) 11 11 2
(0.625967 0.187016 0.187016 0) 9 8 1
(0.451001 0.274499 0 0.274499) 10 9 2
(0.49735 0.251325 0 0.251325) 11 11 1
(0.405302 0.297349 0 0.297349) 4 3 2
(0.498502 0.250749 0.250749 0) 7 7 2
(0.2531 0.37345 0 0.37345) 8 7 2
(0.720575 0.139712 0 0.139712) 7 6 2
(0.105411 0.447295 0 0.447295) 9 8 2
(0.462708 0.268646 0 0.268646) 9 8 2
(0.53621 0.231895 0.231895 0) 9 8 1
(0.768368 0.115816 0.115816 0) 7 6 1
(0.417912 0.291044 0.291044 0) 6 6 2
(0.566301 0.216849 0 0.216849) 1 1 1
(0.690983 0.154508 0.154508 0) 9 8 1
(0.79433 0.102835 0.102835 0) 9 8 1
(0.417603 0.291198 0 0.291198) 7 7 1
(0.615991 0.192004 0 0.192004) 11 10 2
(0.946408 0.0267961 0.0267961 0) 9 8 1
(0.0466012 0.476699 0 0.476699) 8 7 2
(0.298691 0.350655 0.350655 0) 3 3 2
(0.107105 0.446447 0 0.446447) 12 11 2
(0.256443 0.371779 0.371779 0) 3 3 2
(0.440258 0.279871 0 0.279871) 11 10 2
(0.838536 0.0807319 0.0807319 0) 8 8 2
(0.568844 0.215578 0.215578 0) 11 10 1
(0.464393 0.267804 0.267804 0) 3 2 1
(0.983688 0.00815577 0 0.00815577) 8 7 2
(0.796483 0.101759 0 0.101759) 7 7 1
(0.583536 0.208232 0.208232 0) 2 2 2
(0.721311 0.139345 0 0.139345) 14 13 2
(0.839696 0.0801519 0.0801519 0) 12 11 1
(0.243791 0.378104 0 0.378104) 10 10 1
(0.973659 0.0131704 0.0131704 0) 7 7 2
(0.718047 0.140976 0 0.140976) 10 9 2
(0.0622568 0.468872 0.468872 0) 9 8 1
(0.868062 0.0659692 0.0659692 0) 9 8 1
(0.304033 0.347983 0 0.347983) 9 8 2
(0.644602 0.177699 0 0.177699) 9 8 2
(0.178947 0.410526 0 0.410526) 8 7 2
(0.514465 0.242768 0.242768 0) 7 7 2
(0.209674 0.395163 0.395163 0) 10 9 1
(0.0822165 0.458892 0.458892 0) 13 13 2
(0.254294 0.372853 0.372853 0) 8 7 1
(0.050421 0.474789 0.474789 0) 5 4 1
(0.00111325 0.499443 0.499443 0) 9 8 1
(0.027008 0.486496 0.486496 0) 14 13 1
(0.738415 0.130793 0.130793 0) 9 8 1
(0.487603 0.256199 0.256199 0) 10 9 1
(0.452899 0.27355 0 0.27355) 6 6 1
(0.523645 0.238177 0.238177 0) 5 4 1
(0.713033 0.143483 0.143483 0) 7 7 2
(0.889519 0.0552404 0 0.0552404) 9 8 2
(0.173374 0.413313 0.413313 0) 9 9 2
(0.767799 0.116101 0.116101 0) 9 9 2
(0.228104 0.385948 0 0.385948) 0 0 1
(0.519622 0.240189 0.240189 0) 9 8 1
(0.487446 0.256277 0.256277 0) 11 10 1
(0.823966 0.0880172 0.0880172 0) 9 8 1
(0.96176 0.0191202 0.0191202 0) 7 6 1
(0.330271 0.334864 0.334864 0) 12 12 2
(0.600499 0.19975 0 0.19975) 8 7 2
(0.833683 0.0831587 0.0831587 0) 6 6 2
(0.821635 0.0891824 0 0.0891824) 12 12 1
(0.40622 0.29689 0.29689 0) 8 7 1
(0.078661 0.460669 0.460669 0) 12 12 2
(0.851463 0.0742684 0.0742684 0) 7 7 2
(0.0120474 0.493976 0 0.493976) 11 10 2
(0.28442 0.35779 0 0.35779) 7 6 2
(0.7464 0.1268 0 0.1268) 3 3 1
(0.189125 0.405438 0.405438 0) 9 9 2
(0.323217 0.338391 0 0.338391) 8 7 2
(0.392085 0.303958 0.303958 0) 9 9 2
(0.393475 0.303262 0 0.303262) 8 7 2
(0.754209 0.122895 0 0.122895) 9 8 2
(0.319438 0.340281 0.340281 0) 4 4 2
(0.725841 0.13708 0 0.13708) 5 4 2
(0.755276 0.122362 0 0.122362) 8 8 1
(0.280919 0.359541 0 0.359541) 8 7 2
(0.0606366 0.469682 0.469682 0) 8 8 2
(0.01828 0.49086 0 0.49086) 9 8 2
(0.884966 0.0575171 0.0575171 0) 6 6 2
(0.680304 0.159848 0.159848 0) 9 8 1
(0.288282 0.355859 0.355859 0) 7 7 2
(0.259678 0.370161 0 0.370161) 8 8 1
(0.15561 0.422195 0 0.422195) 8 8 1
(0.652464 0.173768 0 0.173768) 9 9 1
(0.706934 0.146533 0 0.146533) 9 9 1
(0.4841 0.25795 0 0.25795) 13 12 2
(0.699235 0.150382 0.150382 0) 8 7 1
(0.712863 0.143569 0.143569 0) 8 8 2
(0.552091 0.223954 0 0.223954) 8 8 1
(0.64705 0.176475 0.176475 0) 7 7 2
(0.605913 0.197044 0.197044 0) 11 10 1
(0.278182 0.360909 0 0.360909) 10 9 2
(0.547204 0.226398 0.226398 0) 9 8 1
(0.303531 0.348235 0.348235 0) 9 9 2
(0.958403 0.0207987 0 0.0207987) 5 4 2
(0.567364 0.216318 0.216318 0) 14 13 1
(0.0473755 0.476312 0 0.476312) 10 9 2
(0.110287 0.444857 0 0.444857) 14 13 2
(0.840791 0.0796047 0 0.0796047) 8 7 2
(0.0993669 0.450317 0.450317 0) 9 9 2
(0.0382777 0.480861 0 0.480861) 9 9 1
(0.743257 0.128372 0.128372 0) 4 3 1
(0.692511 0.153744 0.153744 0) 10 9 1
(0.800924 0.099538 0.099538 0) 6 6 2
(0.12468 0.43766 0 0.43766) 3 3 1
(0.5898 0.2051 0 0.2051) 11 10 2
(0.205501 0.39725 0 0.39725) 10 10 1
(0.982423 0.00878864 0.00878864 0) 14 13 1
(0.39494 0.30253 0.30253 0) 7 6 1
(0.345912 0.327044 0 0.327044) 7 7 1
(0.187875 0.406062 0 0.406062) 4 4 1
(0.601994 0.199003 0 0.199003) 10 9 2
(0.493336 0.253332 0 0.253332) 8 7 2
(0.0616546 0.469173 0 0.469173) 6 5 2
(0.860511 0.0697443 0.0697443 0) 10 10 2
(0.0989317 0.450534 0 0.450534) 12 11 2
(0.894337 0.0528317 0.0528317 0) 8 7 1
(0.882712 0.0586438 0 0.0586438) 11 11 1
(9.4245e-05 0.499953 0.499953 0) 11 11 2
(0.211913 0.394044 0.394044 0) 10 9 1
(0.579859 0.210071 0.210071 0) 4 4 2
(0.856005 0.0719976 0.0719976 0) 5 4 1
(0.552621 0.223689 0 0.223689) 7 7 1
(0.730179 0.134911 0.134911 0) 6 5 1
(0.16256 0.41872 0.41872 0) 4 3 1
(0.337912 0.331044 0.331044 0) 10 9 1
(0.59523 0.202385 0 0.202385) 13 12 2
(0.574722 0.212639 0.212639 0) 12 12 2
(0.552251 0.223875 0.223875 0) 2 1 1
(0.241345 0.379328 0.379328 0) 7 6 1
(0.171447 0.414276 0 0.414276) 9 8 2
(0.515557 0.242221 0 0.242221) 15 14 2
(0.862776 0.0686119 0.0686119 0) 6 6 2
(0.189783 0.405109 0 0.405109) 6 6 1
(0.923341 0.0383293 0.0383293 0) 5 5 2
(0.250039 0.374981 0.374981 0) 7 6 1
(0.846077 0.0769614 0.0769614 0) 9 9 2
(0.803079 0.0984607 0.0984607 0) 9 8 1
(0.219703 0.390148 0 0.390148) 10 9 2
(0.900872 0.0495639 0 0.0495639) 7 7 1
(0.925626 0.0371871 0.0371871 0) 9 9 2
(0.488458 0.255771 0.255771 0) 7 7 2
(0.675175 0.162412 0 0.162412) 9 9 1
(0.0553138 0.472343 0.472343 0) 13 12 1
(0.612411 0.193795 0.193795 0) 9 9 2
(0.708732 0.145634 0 0.145634) 15 14 2
(0.195434 0.402283 0.402283 0) 3 3 2
(0.570599 0.214701 0 0.214701) 13 12 2
(0.123634 0.438183 0 0.438183) 9 8 2
(0.324028 0.337986 0.337986 0) 10 9 1
(0.565242 0.217379 0 0.217379) 12 11 2
(0.0352052 0.482397 0 0.482397) 3 3 1
(0.795307 0.102347 0 0.102347) 9 8 2
(0.126464 0.436768 0.436768 0) 10 10 2
(0.568182 0.215909 0 0.215909) 13 12 2
(0.681642 0.159179 0.159179 0) 11 11 2
(0.155532 0.422234 0.422234 0) 10 10 2
(0.452372 0.273814 0 0.273814) 10 9 2
(0.580202 0.209899 0 0.209899) 13 13 1
(0.0041018 0.497949 0 0.497949) 11 10 2
(0.192152 0.403924 0 0.403924) 12 11 2
(0.333783 0.333108 0 0.333108) 6 5 2
(0.675006 0.162497 0.162497 0) 11 11 2
(0.167669 0.416166 0 0.416166) 11 10 2
(0.495627 0.252187 0 0.252187) 4 4 1
(0.592251 0.203874 0 0.203874) 9 8 2
(0.282457 0.358771 0 0.358771) 10 9 2
(0.71372 0.14314 0 0.14314) 12 12 1
(0.604989 0.197506 0.197506 0) 11 10 1
(0.810364 0.0948179 0.0948179 0) 7 6 1
(0.598151 0.200925 0.200925 0) 11 10 1
(0.913259 0.0433705 0 0.0433705) 11 10 2
(0.898753 0.0506234 0.0506234 0) 7 7 2
(0.840476 0.079762 0 0.079762) 7 6 2
(0.567489 0.216255 0.216255 0) 9 9 2
(0.630253 0.184873 0 0.184873) 9 9 1
(0.0894588 0.455271 0 0.455271) 11 11 1
(0.0300863 0.484957 0.484957 0) 9 8 1
(0.0538068 0.473097 0.473097 0) 7 6 1
(0.0213688 0.489316 0 0.489316) 10 10 1
(0.599393 0.200304 0 0.200304) 8 8 1
(0.382708 0.308646 0.308646 0) 10 10 2
(0.0210941 0.489453 0.489453 0) 11 11 2
(0.435358 0.282321 0.282321 0) 5 5 2
(0.940264 0.0298681 0.0298681 0) 8 7 1
(0.795685 0.102157 0.102157 0) 16 15 1
(0.19593 0.402035 0.402035 0) 5 5 2
(0.44233 0.278835 0 0.278835) 10 10 1
(0.644076 0.177962 0.177962 0) 16 15 1
(0.772314 0.113843 0.113843 0) 7 6 1
(0.62011 0.189945 0.189945 0) 11 10 1
(0.705899 0.14705 0 0.14705) 14 13 2
(0.372298 0.313851 0 0.313851) 11 11 1
(0.466857 0.266572 0.266572 0) 7 6 1
(0.00578323 0.497108 0.497108 0) 10 10 2
(0.531428 0.234286 0 0.234286) 13 13 1
(0.141983 0.429009 0 0.429009) 11 10 2
(0.0589873 0.470506 0 0.470506) 9 9 1
(0.502835 0.248583 0 0.248583) 6 6 1
(0.363462 0.318269 0 0.318269) 7 7 1
(0.637101 0.181449 0.181449 0) 11 10 1
(0.0875217 0.456239 0.456239 0) 7 6 1
(0.918105 0.0409476 0 0.0409476) 7 6 2
(0.450879 0.274561 0 0.274561) 14 14 1
(0.448434 0.275783 0 0.275783) 7 6 2
(0.412239 0.293881 0 0.293881) 6 5 2
(0.702069 0.148965 0 0.148965) 10 10 1
(0.456465 0.271767 0 0.271767) 11 10 2
(0.741311 0.129344 0.129344 0) 14 14 2
(0.285228 0.357386 0.357386 0) 10 9 1
(0.707275 0.146362 0 0.146362) 7 7 1
(0.982268 0.00886581 0.00886581 0) 10 9 1
(0.266984 0.366508 0 0.366508) 9 9 1
(0.489579 0.25521 0.25521 0) 11 11 2
(0.576088 0.211956 0 0.211956) 10 9 2
(0.695303 0.152348 0.152348 0) 13 12 1
(0.398175 0.300912 0 0.300912) 13 12 2
(0.949847 0.0250767 0 0.0250767) 10 9 2
(0.179442 0.410279 0.410279 0) 12 11 1
(0.785347 0.107326 0 0.107326) 6 6 1
(0.318152 0.340924 0 0.340924) 11 11 1
(0.284255 0.357872 0 0.357872) 11 11 1
(0.623253 0.188374 0.188374 0) 11 11 2
(0.302495 0.348753 0 0.348753) 8 7 2
(0.760927 0.119536 0 0.119536) 17 17 1
(0.928123 0.0359384 0.0359384 0) 12 11 1
(0.463225 0.268387 0 0.268387) 11 10 2
(0.15705 0.421475 0.421475 0) 11 11 2
(0.180954 0.409523 0 0.409523) 8 7 2
(0.47432 0.26284 0.26284 0) 15 15 2
(0.433552 0.283224 0.283224 0) 9 9 2
(0.279934 0.360033 0.360033 0) 11 10 1
(0.649253 0.175373 0 0.175373) 6 6 1
(0.261591 0.369204 0.369204 0) 8 8 2
(0.266441 0.366779 0 0.366779) 13 12 2
(0.463679 0.26816 0 0.26816) 15 14 2
(0.580309 0.209846 0 0.209846) 13 12 2
(0.161492 0.419254 0 0.419254) 9 9 1
(0.854154 0.0729232 0 0.0729232) 12 11 2
(0.157595 0.421203 0 0.421203) 14 13 2
(0.866762 0.0666191 0 0.0666191) 10 9 2
(0.794981 0.102509 0.102509 0) 6 6 2
(0.247017 0.376492 0.376492 0) 11 11 2
(0.119238 0.440381 0 0.440381) 11 11 1
(0.559983 0.220008 0.220008 0) 9 8 1
(0.00865954 0.49567 0.49567 0) 7 6 1
(0.84886 0.0755702 0.0755702 0) 12 11 1
(0.557061 0.22147 0 0.22147) 10 9 2
(0.139807 0.430096 0 0.430096) 11 10 2
(0.644257 0.177872 0.177872 0) 12 11 1
(0.548677 0.225661 0.225661 0) 10 10 2
(0.225583 0.387209 0.387209 0) 9 8 1
(0.936182 0.031909 0 0.031909) 4 4 1
(0.883603 0.0581987 0.0581987 0) 8 7 1
(0.620243 0.189879 0.189879 0) 9 8 1
(0.627689 0.186156 0.186156 0) 16 15 1
(0.839873 0.0800635 0 0.0800635) 9 9 1
(0.0843843 0.457808 0.457808 0) 7 7 2
(0.000567065 0.499716 0 0.499716) 8 8 1
(0.614675 0.192662 0 0.192662) 17 17 1
(0.333331 0.333335 0.333335 0) 8 7 1
(0.651553 0.174224 0.174224 0) 14 14 2
(0.302057 0.348972 0 0.348972) 8 8 1
(0.657846 0.171077 0 0.171077) 11 10 2
(0.982162 0.00891877 0 0.00891877) 10 10 1
(0.979231 0.0103844 0.0103844 0) 9 8 1
(0.558924 0.220538 0 0.220538) 14 13 2
(0.999635 0.000182391 0.000182391 0) 11 10 1
(0.673018 0.163491 0 0.163491) 6 5 2
(0.507166 0.246417 0 0.246417) 10 10 1
(0.973637 0.0131816 0 0.0131816) 10 10 1
(0.36478 0.31761 0.31761 0) 8 7 1
(0.703844 0.148078 0 0.148078) 6 6 1
(0.408652 0.295674 0.295674 0) 7 6 1
(0.702137 0.148932 0.148932 0) 8 8 2
(0.550179 0.224911 0 0.224911) 7 6 2
(0.985191 0.00740432 0 0.00740432) 11 10 2
(0.19563 0.402185 0 0.402185) 8 8 1
(0.965935 0.0170326 0.0170326 0) 6 6 2
(0.65126 0.17437 0.17437 0) 10 10 2
(0.676521 0.16174 0.16174 0) 6 6 2
(0.478648 0.260676 0.260676 0) 11 10 1
(0.160653 0.419674 0 0.419674) 15 14 2
(0.381172 0.309414 0.309414 0) 10 9 1
(0.786454 0.106773 0.106773 0) 12 11 1
(0.580188 0.209906 0.209906 0) 10 9 1
(0.903754 0.0481229 0.0481229 0) 13 13 2
(0.516864 0.241568 0.241568 0) 7 6 1
(0.964215 0.0178924 0.0178924 0) 13 12 1
(0.515598 0.242201 0.242201 0) 12 12 2
(0.299115 0.350443 0.350443 0) 11 11 2
(0.0602771 0.469861 0.469861 0) 13 13 2
(0.622321 0.188839 0.188839 0) 9 9 2
(0.406435 0.296783 0.296783 0) 11 11 2
(0.553176 0.223412 0 0.223412) 14 13 2
(0.0769103 0.461545 0.461545 0) 14 13 1
(0.051526 0.474237 0.474237 0) 13 13 2
(0.13712 0.43144 0.43144 0) 14 14 2
(0.990502 0.00474909 0.00474909 0) 13 13 2
(0.407906 0.296047 0.296047 0) 11 11 2
(0.608364 0.195818 0 0.195818) 15 14 2
(0.618877 0.190561 0 0.190561) 9 8 2
(0.81775 0.0911248 0 0.0911248) 11 11 1
(0.838847 0.0805764 0.0805764 0) 13 13 2
(0.17182 0.41409 0.41409 0) 8 7 1
(0.240434 0.379783 0 0.379783) 10 10 1
(0.266163 0.366919 0 0.366919) 8 8 1
(0.179152 0.410424 0.410424 0) 14 13 1
(0.112036 0.443982 0.443982 0) 11 10 1
(0.684544 0.157728 0.157728 0) 12 12 2
(0.843303 0.0783483 0.0783483 0) 17 16 1
(0.857456 0.071272 0.071272 0) 10 10 2
(0.748845 0.125578 0.125578 0) 15 15 2
(0.314065 0.342967 0.342967 0) 12 12 2
(0.489376 0.255312 0 0.255312) 7 7 1
(0.769635 0.115182 0 0.115182) 5 4 2
(0.787764 0.106118 0.106118 0) 13 12 1
(0.405429 0.297285 0 0.297285) 10 10 1
(0.212432 0.393784 0.393784 0) 11 10 1
(0.0493127 0.475344 0.475344 0) 12 12 2
(0.296351 0.351825 0.351825 0) 9 8 1
(0.522638 0.238681 0.238681 0) 10 10 2
(0.296542 0.351729 0.351729 0) 10 9 1
(0.0771204 0.46144 0.46144 0) 9 8 1
(0.34319 0.328405 0.328405 0) 11 10 1
(0.185263 0.407368 0.407368 0) 15 14 1
(0.117438 0.441281 0 0.441281) 15 14 2
(0.272468 0.363766 0.363766 0) 11 11 2
(0.126691 0.436654 0 0.436654) 11 10 2
(0.545902 0.227049 0 0.227049) 12 11 2
(0.749957 0.125021 0.125021 0) 15 14 1
(0.843238 0.0783809 0.0783809 0) 15 15 2
(0.0959466 0.452027 0 0.452027) 12 12 1
(0.278226 0.360887 0.360887 0) 14 14 2
(0.533873 0.233064 0.233064 0) 12 11 1
(0.02415 0.487925 0.487925 0) 13 12 1
(0.584612 0.207694 0 0.207694) 17 17 1
(0.442491 0.278755 0.278755 0) 11 11 2
(0.673168 0.163416 0.163416 0) 10 10 2
(0.088812 0.455594 0.455594 0) 11 10 1
(0.943914 0.0280432 0.0280432 0) 8 7 1
(0.118898 0.440551 0 0.440551) 10 10 1
(0.621893 0.189053 0.189053 0) 12 11 1
(0.504801 0.2476 0 0.2476) 12 12 1
(0.667079 0.16646 0.16646 0) 12 11 1
(0.359637 0.320181 0 0.320181) 7 7 1
(0.671348 0.164326 0 0.164326) 9 9 1
(0.709321 0.14534 0 0.14534) 7 6 2
(0.591737 0.204131 0.204131 0) 3 2 1
(0.923748 0.0381259 0 0.0381259) 9 9 1
(0.167335 0.416333 0 0.416333) 9 9 1
(0.937439 0.0312803 0.0312803 0) 11 11 2
(0.153139 0.423431 0 0.423431) 11 10 2
(0.336532 0.331734 0.331734 0) 17 16 1
(0.358174 0.320913 0 0.320913) 11 10 2
(0.988836 0.00558198 0.00558198 0) 8 8 2
(0.341124 0.329438 0 0.329438) 13 13 1
(0.640051 0.179975 0 0.179975) 14 13 2
(0.404824 0.297588 0 0.297588) 12 11 2
(0.477664 0.261168 0.261168 0) 11 10 1
(0.169556 0.415222 0 0.415222) 12 12 1
(0.881853 0.0590737 0 0.0590737) 14 14 1
(0.787451 0.106274 0.106274 0) 12 12 2
(0.433971 0.283014 0.283014 0) 14 14 2
(0.170162 0.414919 0 0.414919) 12 12 1
(0.554929 0.222535 0.222535 0) 9 8 1
(0.0900843 0.454958 0 0.454958) 9 8 2
(0.159425 0.420288 0 0.420288) 14 13 2
(0.202252 0.398874 0 0.398874) 13 12 2
(0.347184 0.326408 0 0.326408) 15 15 1
(0.589326 0.205337 0.205337 0) 10 9 1
(0.282076 0.358962 0 0.358962) 13 12 2
(0.322757 0.338621 0.338621 0) 18 17 1
(0.452879 0.27356 0 0.27356) 11 10 2
(0.182188 0.408906 0.408906 0) 12 11 1
(0.144267 0.427867 0.427867 0) 13 13 2
(0.688665 0.155667 0.155667 0) 7 7 2
(0.525105 0.237447 0.237447 0) 15 14 1
(0.135748 0.432126 0 0.432126) 13 12 2
(0.776613 0.111693 0 0.111693) 13 12 2
(0.793977 0.103012 0.103012 0) 15 14 1
(0.537301 0.23135 0 0.23135) 19 18 2
(0.018455 0.490773 0.490773 0) 9 9 2
(0.770934 0.114533 0.114533 0) 9 9 2
(0.810707 0.0946467 0 0.0946467) 12 11 2
(0.992232 0.00388382 0.00388382 0) 10 9 1
(0.335542 0.332229 0 0.332229) 6 6 1
(0.425293 0.287354 0.287354 0) 16 15 1
(0.980434 0.00978296 0.00978296 0) 6 6 2
(0.586458 0.206771 0 0.206771) 6 6 1
(0.943809 0.0280957 0 0.0280957) 14 13 2
(0.506472 0.246764 0.246764 0) 8 8 2
(0.82103 0.0894849 0.0894849 0) 12 12 2
(0.899129 0.0504357 0 0.0504357) 11 11 1
(0.154852 0.422574 0 0.422574) 15 14 2
(0.962263 0.0188685 0 0.0188685) 12 12 1
(0.314753 0.342624 0.342624 0) 15 14 1
(0.104745 0.447628 0 0.447628) 5 5 1
(0.104423 0.447788 0.447788 0) 14 14 2
(0.184513 0.407744 0 0.407744) 12 12 1
(0.945399 0.0273003 0 0.0273003) 16 15 2
(0.971021 0.0144894 0.0144894 0) 13 13 2
(0.950449 0.0247755 0.0247755 0) 12 12 2
(0.808126 0.0959369 0 0.0959369) 14 13 2
(0.763677 0.118162 0 0.118162) 7 7 1
(0.501599 0.2492 0.2492 0) 17 16 1
(0.960023 0.0199883 0 0.0199883) 11 11 1
(0.265756 0.367122 0 0.367122) 15 14 2
(0.239623 0.380189 0 0.380189) 14 14 1
(0.907108 0.0464458 0.0464458 0) 10 9 1
(0.225943 0.387029 0.387029 0) 13 12 1
(0.134716 0.432642 0 0.432642) 12 11 2
(0.600943 0.199528 0.199528 0) 16 16 2
(0.13033 0.434835 0 0.434835) 14 13 2
(0.982412 0.00879424 0.00879424 0) 10 10 2
(0.734917 0.132541 0 0.132541) 12 12 1