/*--------------------------------*- C++ -*----------------------------------*\
  =========                 |
  \\      /  F ield         | OpenFOAM: The Open Source CFD Toolbox
   \\    /   O peration     | Website:  https://openfoam.org
    \\  /    A nd           | Version:  7
     \\/     M anipulation  |
\*---------------------------------------------------------------------------*/
FoamFile
{
    version     2.0;
    format      ascii;
    class       volScalarField;
    location    "0.3";
    object      k;
}
// * * * * * * * * * * * * * * * * * * * * * * * * * * * * * * * * * * * * * //

dimensions      [0 2 -2 0 0 0 0];

internalField   nonuniform List<scalar> 
2268
(
0.00614272
0.011004
0.0172095
0.0225383
0.0271315
0.0314713
0.0357737
0.0401115
0.0444605
0.0487337
0.0528031
0.0565117
0.0596795
0.062103
0.0635486
0.0636725
0.0626077
0.0604955
0.0571242
0.0526197
0.0470749
0.037714
0.0284166
0.00943341
0.0234094
0.0359368
0.0462336
0.0552846
0.0637603
0.0720208
0.0802011
0.0882648
0.0960638
0.103384
0.109977
0.115579
0.119942
0.122873
0.124251
0.123753
0.121942
0.119757
0.118504
0.117525
0.105532
0.056877
0.0111957
0.0297375
0.0442752
0.0568056
0.0680592
0.0786386
0.088902
0.0989806
0.108831
0.118293
0.127141
0.135112
0.141946
0.147422
0.151427
0.154032
0.155352
0.155921
0.15631
0.157176
0.157574
0.145911
0.0838489
0.0130065
0.0339212
0.04973
0.06357
0.0762256
0.0882153
0.099839
0.111194
0.122224
0.132769
0.142607
0.151492
0.159191
0.165534
0.170499
0.174311
0.1774
0.180495
0.183965
0.187484
0.188706
0.17847
0.109612
0.0144959
0.0371931
0.0538067
0.0684767
0.0821182
0.0951683
0.107843
0.120191
0.132134
0.143514
0.154126
0.16375
0.172192
0.179342
0.185265
0.190302
0.19508
0.200496
0.206908
0.213414
0.216342
0.208384
0.130373
0.0156483
0.0397776
0.0569586
0.07221
0.0865936
0.100484
0.114012
0.127173
0.13987
0.151948
0.16322
0.1735
0.182639
0.19059
0.19749
0.203768
0.210167
0.217701
0.226826
0.236494
0.242386
0.238264
0.150845
0.0165278
0.0417311
0.0593664
0.0750935
0.0900865
0.104672
0.118913
0.132758
0.146095
0.158774
0.170632
0.181516
0.19133
0.200084
0.207977
0.215492
0.223438
0.232888
0.244471
0.257302
0.267403
0.269525
0.172868
0.0171688
0.0431374
0.0611539
0.0773241
0.09286
0.108046
0.122895
0.137323
0.15121
0.164416
0.176801
0.188251
0.198719
0.208274
0.217161
0.22589
0.235286
0.24645
0.260181
0.275913
0.290947
0.30194
0.20043
0.0106288
0.0159248
0.0204366
0.0232357
0.0250146
0.0258361
0.0255186
0.0244561
0.0229103
0.021116
0.0193331
0.0177879
0.0164158
0.0151271
0.0138723
0.0124634
0.010955
0.0106644
0.00793454
0.0188352
0.0372957
0.044435
0.049193
0.0520933
0.0530691
0.0524666
0.0506387
0.0479372
0.0447383
0.0413813
0.0381864
0.0353175
0.0326823
0.0300412
0.0270778
0.0232926
0.0178544
0.00929659
0.0277911
0.0519802
0.0602801
0.0652903
0.0679002
0.0684491
0.0672817
0.0647378
0.0612122
0.0571309
0.0528767
0.0487974
0.0451178
0.0417527
0.0384298
0.0347403
0.0300458
0.0232673
0.0113059
0.036102
0.0649955
0.0739483
0.0788866
0.0810056
0.0808716
0.0789345
0.0755798
0.0712415
0.0663658
0.0613454
0.0565454
0.0522054
0.048248
0.0443953
0.0401886
0.0349081
0.0272894
0.0130503
0.0444661
0.0780442
0.0875191
0.0922957
0.0938095
0.0927297
0.0897467
0.0853723
0.0800959
0.0743672
0.0685637
0.0630682
0.0580935
0.0535672
0.0492165
0.0445544
0.0387993
0.0305165
0.0145024
0.0533998
0.0919919
0.102429
0.106982
0.107595
0.105149
0.100696
0.0949738
0.08854
0.0818236
0.075165
0.0689513
0.0633253
0.0582161
0.0533606
0.0482548
0.0420656
0.0332036
0.0157306
0.0636895
0.108173
0.121021
0.12498
0.123892
0.119212
0.11254
0.104934
0.0970005
0.0890842
0.0814723
0.0744831
0.0681673
0.0624445
0.0570621
0.051503
0.0448902
0.0354972
0.0167946
0.0798677
0.133046
0.148663
0.150204
0.14521
0.136467
0.126179
0.115772
0.105793
0.0963686
0.0876793
0.0798273
0.0727692
0.0663944
0.0604608
0.0544324
0.0473928
0.0374981
0.0177346
0.0177851
0.0443556
0.0628303
0.0796483
0.0959483
0.111949
0.127607
0.142809
0.157433
0.17136
0.184486
0.196758
0.208212
0.219009
0.229474
0.240143
0.251818
0.265414
0.281914
0.301247
0.322425
0.341424
0.280178
0.0184663
0.0451759
0.0641518
0.0818054
0.0990249
0.115929
0.13243
0.148412
0.163776
0.178442
0.19236
0.205546
0.218132
0.230381
0.242665
0.255441
0.269276
0.284666
0.3022
0.321667
0.341667
0.357466
0.343382
0.0192416
0.045757
0.065212
0.0837007
0.101804
0.119513
0.136704
0.153283
0.169197
0.184423
0.19896
0.212877
0.22637
0.239782
0.253505
0.267866
0.283165
0.29959
0.317085
0.33535
0.352881
0.366796
0.36889
0.020417
0.0463203
0.0663198
0.0858804
0.105034
0.123555
0.141331
0.158354
0.174665
0.190323
0.205387
0.219961
0.234276
0.248704
0.263655
0.279365
0.295952
0.313368
0.331198
0.349045
0.365578
0.378803
0.385146
0.0227644
0.0467423
0.0676253
0.089014
0.109595
0.128951
0.147192
0.16453
0.181155
0.19722
0.212858
0.228219
0.243525
0.259101
0.275375
0.292649
0.311048
0.33042
0.350161
0.369308
0.386704
0.40028
0.40766
0.0281408
0.048131
0.0709187
0.095024
0.117111
0.137097
0.155629
0.173213
0.190167
0.206714
0.223084
0.23952
0.256251
0.273471
0.291493
0.311058
0.332509
0.355698
0.379953
0.403605
0.424267
0.438445
0.443461
0.0378775
0.0549555
0.0811468
0.107011
0.129613
0.149624
0.168145
0.185815
0.202983
0.219907
0.236957
0.254559
0.272987
0.292166
0.312663
0.335549
0.361295
0.38997
0.421171
0.453494
0.482311
0.499368
0.496159
0.0480911
0.0756215
0.102261
0.125527
0.144159
0.162483
0.180123
0.197194
0.213998
0.230765
0.247712
0.26522
0.283865
0.303703
0.325416
0.349217
0.375073
0.403144
0.43309
0.463838
0.493548
0.519187
0.533366
0.0554465
0.103194
0.128183
0.142017
0.155683
0.171231
0.187222
0.203003
0.218517
0.233872
0.249196
0.264758
0.281135
0.298994
0.318594
0.339735
0.36221
0.386142
0.411791
0.43934
0.468476
0.497164
0.523378
0.054768
0.105754
0.134078
0.148769
0.162686
0.177698
0.193136
0.208353
0.223114
0.237425
0.251424
0.265403
0.279866
0.295418
0.312427
0.330889
0.3507
0.371926
0.394883
0.420203
0.448781
0.48053
0.51103
0.0515931
0.0991409
0.12876
0.148305
0.164977
0.180974
0.196613
0.211705
0.226097
0.239788
0.252929
0.265829
0.278952
0.29284
0.307937
0.324476
0.342563
0.362339
0.384103
0.40844
0.436239
0.467693
0.499376
0.0513721
0.0954125
0.124701
0.146291
0.164652
0.181542
0.19752
0.212638
0.226842
0.240151
0.252714
0.264829
0.276932
0.289541
0.303152
0.318166
0.334898
0.353647
0.374776
0.398782
0.426237
0.456978
0.488031
0.0523285
0.0948704
0.123079
0.144751
0.163447
0.180526
0.196468
0.211368
0.22521
0.238017
0.249926
0.261211
0.272276
0.283619
0.295769
0.309232
0.324474
0.341936
0.36205
0.385217
0.411679
0.440906
0.470241
0.0536086
0.0957863
0.122826
0.143745
0.161953
0.1786
0.194049
0.208363
0.221519
0.233532
0.24452
0.254729
0.264535
0.274418
0.284923
0.296612
0.310032
0.325692
0.344027
0.365301
0.389446
0.415706
0.441948
0.0547263
0.0970684
0.12304
0.142965
0.160325
0.17617
0.19079
0.204206
0.21638
0.227314
0.237108
0.245986
0.254304
0.262532
0.271222
0.280959
0.292317
0.305809
0.321814
0.34045
0.361419
0.383891
0.406555
0.0554451
0.0980437
0.123126
0.142106
0.158537
0.173432
0.187047
0.199385
0.210397
0.220075
0.228508
0.235911
0.24263
0.249134
0.25598
0.263759
0.273044
0.284322
0.297922
0.313894
0.331894
0.351265
0.371763
0.0556793
0.0983358
0.122724
0.140914
0.156473
0.170413
0.182986
0.194197
0.203996
0.212377
0.219426
0.225357
0.230518
0.235383
0.240514
0.246504
0.253915
0.263221
0.274754
0.288634
0.304722
0.322781
0.343575
0.0553805
0.097791
0.121646
0.139179
0.153971
0.167029
0.178618
0.188755
0.197405
0.204566
0.210332
0.214921
0.21869
0.222119
0.225775
0.230251
0.23611
0.243836
0.253829
0.266403
0.281791
0.300266
0.323138
0.0544214
0.0963606
0.119753
0.136756
0.150901
0.16319
0.173905
0.183084
0.190712
0.196804
0.201466
0.204926
0.207545
0.209804
0.212275
0.215553
0.220206
0.226759
0.235719
0.247638
0.263154
0.282989
0.308511
0.0528906
0.0940718
0.116996
0.13354
0.147137
0.158775
0.168751
0.177129
0.183913
0.189139
0.192924
0.195503
0.197239
0.198612
0.200188
0.202565
0.206326
0.21205
0.220352
0.231998
0.247961
0.269308
0.297281
0.0509014
0.0910167
0.113418
0.12953
0.142647
0.153735
0.163102
0.170836
0.176964
0.181535
0.184678
0.186628
0.187743
0.188497
0.189449
0.191198
0.194347
0.199508
0.207378
0.21888
0.235232
0.25775
0.287492
0.0485811
0.0873396
0.109137
0.124804
0.137477
0.148088
0.156955
0.164185
0.169826
0.17394
0.176659
0.178212
0.178947
0.179321
0.179881
0.181223
0.183961
0.188735
0.196289
0.20762
0.224066
0.247118
0.277719
0.0460638
0.0832228
0.104321
0.119507
0.131741
0.141918
0.150363
0.157201
0.162494
0.166316
0.168795
0.170153
0.170715
0.170916
0.171281
0.172395
0.174871
0.179354
0.186597
0.197598
0.213713
0.236543
0.267136
0.0434822
0.0788698
0.0991756
0.113827
0.125604
0.135363
0.143434
0.149956
0.155006
0.158661
0.161047
0.162367
0.162924
0.163121
0.163454
0.164482
0.166803
0.17105
0.177947
0.188434
0.203803
0.225683
0.255353
0.0409582
0.0744877
0.0939214
0.10798
0.119267
0.128603
0.13632
0.142571
0.147442
0.151016
0.153409
0.154807
0.155482
0.155803
0.156226
0.157277
0.159524
0.163566
0.170073
0.179889
0.194168
0.214458
0.242246
0.0385941
0.0702705
0.0887771
0.102189
0.112946
0.121839
0.129202
0.135198
0.139923
0.143461
0.145921
0.147466
0.148339
0.148867
0.149465
0.150613
0.152839
0.156695
0.162781
0.171817
0.18477
0.202995
0.228024
0.0364678
0.0663852
0.0839424
0.0966657
0.106856
0.115278
0.122271
0.128009
0.132593
0.136109
0.138656
0.140378
0.141485
0.142264
0.143081
0.144369
0.146604
0.150284
0.155932
0.164134
0.175647
0.191545
0.213195
0.0346319
0.0629636
0.0795867
0.0915997
0.101194
0.109119
0.11572
0.12118
0.125609
0.129091
0.131718
0.133612
0.134953
0.135987
0.137034
0.138472
0.140725
0.144232
0.149436
0.156799
0.166868
0.180396
0.198428
0.0331184
0.0601005
0.0758424
0.0871455
0.0961264
0.103533
0.109718
0.114876
0.119124
0.122544
0.125219
0.127256
0.128804
0.130071
0.131328
0.132904
0.135165
0.138493
0.143258
0.149812
0.158512
0.169807
0.184348
0.0319487
0.0578592
0.0728054
0.0834198
0.0917849
0.0986583
0.104409
0.109239
0.113274
0.116594
0.119276
0.12141
0.123118
0.124574
0.126004
0.127686
0.129933
0.133072
0.137409
0.143203
0.150662
0.15997
0.171403
0.0311464
0.0562846
0.070541
0.0805031
0.0882606
0.0945961
0.0998965
0.104377
0.108167
0.111348
0.113989
0.116166
0.117979
0.11957
0.121123
0.12287
0.125074
0.128012
0.131935
0.137034
0.1434
0.151018
0.159845
0.0307516
0.0554183
0.0690949
0.0784454
0.0856089
0.0914065
0.0962477
0.10036
0.103877
0.10688
0.109434
0.111601
0.113462
0.11513
0.116754
0.118522
0.120653
0.123379
0.126908
0.131378
0.136805
0.143033
0.149777
0.0308329
0.0553136
0.068505
0.077275
0.0838546
0.0891148
0.0934899
0.0972186
0.100438
0.103231
0.105655
0.107763
0.10962
0.111312
0.112957
0.114707
0.116739
0.119245
0.122399
0.126306
0.13094
0.136056
0.141201
0.0314976
0.056046
0.0688098
0.0770053
0.0829979
0.0877156
0.0916166
0.0949484
0.0978505
0.100404
0.102663
0.104671
0.106477
0.108149
0.109776
0.111474
0.113388
0.115672
0.118473
0.121877
0.125838
0.130078
0.134037
0.0328987
0.0577151
0.0700495
0.0776367
0.0830172
0.0871767
0.0905914
0.0935127
0.0960793
0.0983703
0.100434
0.102308
0.104029
0.105645
0.107224
0.108851
0.110638
0.112707
0.11518
0.11813
0.121515
0.125054
0.128146
0.0352456
0.0604369
0.0722537
0.0791481
0.0838661
0.0874397
0.0903511
0.0928474
0.0950623
0.0970702
0.098915
0.100627
0.102235
0.103772
0.105283
0.106831
0.108495
0.110369
0.112547
0.115093
0.117972
0.120928
0.123369
0.0388235
0.0643246
0.0754158
0.0814791
0.0854631
0.088416
0.0908059
0.0928644
0.0947139
0.096422
0.0980274
0.0995553
0.101026
0.102464
0.103897
0.105367
0.106926
0.108638
0.110571
0.112773
0.11521
0.117661
0.11957
0.0439986
0.0694586
0.0794599
0.0845084
0.0876796
0.0899818
0.091839
0.0934532
0.0949294
0.0963249
0.097673
0.0989946
0.100306
0.101623
0.102965
0.104358
0.105833
0.107429
0.109186
0.111128
0.113211
0.115229
0.116669
0.0511697
0.075844
0.0842044
0.0880378
0.0903357
0.0919787
0.0933101
0.0944874
0.0955914
0.0966671
0.0977412
0.0988316
0.0999523
0.101117
0.10234
0.103639
0.105036
0.106552
0.108207
0.109999
0.111862
0.11358
0.114639
0.0607589
0.0833389
0.0893255
0.0917891
0.0932087
0.0942264
0.0950688
0.0958372
0.0965842
0.0973405
0.0981263
0.0989566
0.0998447
0.100804
0.101851
0.103002
0.104277
0.105697
0.107276
0.109005
0.110811
0.112457
0.113383
0.0734973
0.0914153
0.0943093
0.0954043
0.0960447
0.0965324
0.0969611
0.0973742
0.0977968
0.0982458
0.0987341
0.0992733
0.0998755
0.100554
0.101327
0.102212
0.103235
0.104424
0.105807
0.107402
0.109175
0.110943
0.112165
0.0913679
0.0984224
0.0984549
0.0985031
0.098602
0.0987167
0.0988384
0.0989692
0.0991141
0.0992779
0.0994658
0.0996836
0.0999381
0.100238
0.100594
0.101022
0.101538
0.10217
0.102951
0.103924
0.105134
0.106585
0.108076
0.25331
0.220197
0.180792
0.143912
0.317374
0.29297
0.275283
0.263289
0.358874
0.344146
0.326766
0.310253
0.382758
0.376861
0.366907
0.353393
0.407336
0.404426
0.398582
0.389392
0.441586
0.43829
0.433173
0.425839
0.489439
0.484024
0.478276
0.47148
0.533053
0.531085
0.529069
0.525852
0.533441
0.538667
0.543601
0.54945
0.525007
0.533453
0.540739
0.547489
0.516246
0.527234
0.536296
0.543763
0.505547
0.517562
0.527751
0.536164
0.487656
0.500311
0.511905
0.522479
0.458776
0.47213
0.486098
0.501143
0.423154
0.437936
0.455801
0.478018
0.389778
0.407448
0.430992
0.462632
0.364682
0.385883
0.415046
0.455289
0.347481
0.370787
0.402503
0.446493
0.335161
0.358412
0.388946
0.431091
0.32544
0.347419
0.374593
0.410911
0.316658
0.337461
0.361135
0.390361
0.307512
0.327752
0.349064
0.373188
0.29725
0.317189
0.336929
0.357052
0.285292
0.305109
0.324236
0.34221
0.271154
0.290684
0.309833
0.327563
0.254767
0.273401
0.292458
0.31086
0.236672
0.253533
0.271642
0.29024
0.217931
0.232254
0.248315
0.265764
0.19974
0.211179
0.224443
0.239502
0.183022
0.19168
0.201991
0.214117
0.168279
0.174532
0.182164
0.19145
0.155676
0.159988
0.165395
0.172237
0.145175
0.147994
0.151645
0.156507
0.136615
0.138335
0.140656
0.143971
0.129754
0.130701
0.132053
0.134201
0.124313
0.124732
0.125403
0.126698
0.120035
0.120086
0.120277
0.120955
0.116736
0.116496
0.116317
0.116523
0.114335
0.113819
0.113299
0.11308
0.112822
0.112059
0.111192
0.11053
0.111815
0.111082
0.110084
0.109089
0.108587
0.108497
0.108093
0.107587
0.147563
0.193543
0.21783
0.207682
0.189282
0.168996
0.149923
0.133452
0.11947
0.107417
0.0969871
0.0877837
0.0795953
0.0722345
0.0654435
0.0586579
0.0509388
0.040293
0.0190582
0.243167
0.249547
0.294323
0.324412
0.30105
0.249907
0.203434
0.168172
0.143014
0.12479
0.110618
0.0988797
0.0887719
0.0798353
0.0716802
0.0636936
0.0549321
0.0432774
0.0204985
0.285444
0.280431
0.297922
0.342338
0.384558
0.372188
0.300662
0.230032
0.179954
0.148145
0.12694
0.111236
0.09856
0.0877464
0.0779983
0.0686389
0.0586934
0.0459659
0.0218137
0.325001
0.305546
0.305132
0.328049
0.371048
0.41376
0.407413
0.329149
0.243011
0.184216
0.148802
0.126062
0.109571
0.0963549
0.0847449
0.0738186
0.0625128
0.0485716
0.0230692
0.366766
0.341001
0.32546
0.3288
0.353724
0.394343
0.429096
0.41522
0.331564
0.240679
0.180724
0.145231
0.122581
0.105991
0.0921281
0.0794323
0.0665923
0.0512595
0.0243324
0.408433
0.383367
0.359923
0.347588
0.35379
0.379154
0.415071
0.436113
0.402711
0.31269
0.226378
0.171348
0.138743
0.116996
0.100243
0.0855458
0.071025
0.0541277
0.025646
0.456575
0.432987
0.405848
0.382416
0.371927
0.379986
0.403984
0.430672
0.429704
0.372361
0.281764
0.206584
0.159043
0.129643
0.109069
0.0920904
0.0757853
0.0571969
0.0270184
0.514119
0.491696
0.462084
0.429566
0.404579
0.395639
0.404761
0.424639
0.434785
0.404044
0.32886
0.245263
0.182944
0.143875
0.118441
0.0988756
0.0807365
0.0604096
0.0284384
0.555992
0.547603
0.524015
0.482574
0.444938
0.420905
0.415328
0.424642
0.43479
0.418558
0.360107
0.279265
0.207495
0.158866
0.127966
0.105601
0.0856539
0.0636413
0.0298754
0.557871
0.565146
0.564358
0.53009
0.484321
0.448666
0.430755
0.429785
0.435597
0.425152
0.378794
0.305147
0.229624
0.173314
0.137065
0.111897
0.0902652
0.0667246
0.0312861
0.55429
0.56516
0.582011
0.562935
0.51511
0.47274
0.446088
0.436775
0.43724
0.428292
0.390049
0.323724
0.247826
0.18605
0.14512
0.117387
0.0942995
0.0694832
0.0326192
0.548118
0.560548
0.583904
0.578794
0.534621
0.489965
0.4582
0.443031
0.438886
0.429753
0.397072
0.336846
0.261751
0.196244
0.151596
0.121751
0.0975346
0.0717668
0.0338267
0.539619
0.557056
0.579286
0.582542
0.545001
0.500435
0.466141
0.44747
0.440194
0.430675
0.40201
0.346035
0.271399
0.203348
0.156105
0.124783
0.0998356
0.0734773
0.034874
0.529759
0.558377
0.578922
0.582433
0.549617
0.505289
0.470184
0.449998
0.44131
0.432139
0.406323
0.351997
0.276705
0.207102
0.158504
0.12644
0.101184
0.0745857
0.0357402
0.525217
0.571152
0.5875
0.582667
0.549869
0.506122
0.471467
0.451255
0.442854
0.435247
0.410403
0.354382
0.277655
0.207701
0.158996
0.126889
0.101686
0.0751322
0.0364189
0.533391
0.603342
0.611089
0.587902
0.54945
0.506244
0.472514
0.452734
0.445304
0.439739
0.412502
0.352517
0.27498
0.20604
0.158193
0.1265
0.101548
0.0752065
0.0369151
0.546859
0.651527
0.655516
0.606127
0.554914
0.510179
0.477242
0.457013
0.448119
0.441166
0.409448
0.347156
0.270666
0.203683
0.15701
0.125754
0.101013
0.0749095
0.0372378
0.547977
0.704706
0.725612
0.645529
0.573627
0.520604
0.487178
0.467464
0.452053
0.436489
0.401604
0.341148
0.267429
0.202397
0.156364
0.125079
0.100268
0.0743104
0.0373897
0.530463
0.7373
0.816631
0.709765
0.608676
0.53855
0.497984
0.480873
0.459492
0.433294
0.396009
0.338863
0.267996
0.203612
0.156854
0.124681
0.0993696
0.0734149
0.037361
0.496944
0.720962
0.892185
0.789283
0.65728
0.564926
0.509074
0.483607
0.466267
0.437322
0.398707
0.344199
0.274285
0.207923
0.158499
0.124433
0.0982017
0.0721579
0.0371294
0.456021
0.65706
0.922203
0.883793
0.719817
0.601488
0.5266
0.487014
0.468261
0.444924
0.4087
0.357269
0.285754
0.21444
0.160547
0.12385
0.096501
0.0704284
0.0366677
0.421228
0.572725
0.834484
0.959696
0.796787
0.648307
0.552731
0.498222
0.471244
0.452534
0.422491
0.374161
0.298822
0.220645
0.161561
0.122221
0.0939543
0.068126
0.0359573
0.392078
0.499624
0.698485
0.940374
0.872537
0.701651
0.585692
0.51638
0.479943
0.462203
0.438104
0.389615
0.308122
0.223131
0.159905
0.118887
0.0903512
0.0652329
0.0350041
0.368789
0.439245
0.577173
0.774147
0.884619
0.761274
0.623432
0.538966
0.492546
0.473122
0.453622
0.400147
0.309856
0.219475
0.154584
0.113593
0.0857261
0.0618662
0.0338456
0.350939
0.397119
0.481353
0.621743
0.783385
0.788467
0.6628
0.563092
0.505725
0.480569
0.463092
0.40329
0.302647
0.209244
0.14574
0.106646
0.0803971
0.0582709
0.0325458
0.334874
0.371536
0.419738
0.499627
0.614035
0.704451
0.68451
0.586241
0.517362
0.483396
0.46214
0.395166
0.286075
0.193469
0.134474
0.0988118
0.0748888
0.05476
0.0311801
0.315852
0.353178
0.388674
0.429349
0.489824
0.567557
0.607637
0.573726
0.514756
0.479088
0.450725
0.374756
0.26187
0.175076
0.122678
0.0911518
0.0697928
0.0515845
0.0299426
0.291378
0.331107
0.367894
0.398685
0.428628
0.466471
0.504697
0.512429
0.489598
0.462557
0.426257
0.339491
0.231811
0.156517
0.111858
0.0845428
0.0655913
0.0490015
0.0289082
0.262802
0.301124
0.339271
0.372557
0.399245
0.421452
0.443546
0.45702
0.452501
0.430036
0.380237
0.289679
0.199197
0.138952
0.102414
0.0791782
0.062374
0.0470338
0.0280493
0.233667
0.266789
0.300913
0.332545
0.359286
0.379867
0.395448
0.403103
0.396863
0.369815
0.314117
0.236589
0.168914
0.123582
0.0945787
0.0750405
0.0600702
0.0456222
0.0273367
0.20697
0.233577
0.260818
0.286063
0.307424
0.324284
0.335075
0.336825
0.32536
0.296122
0.247794
0.191231
0.144172
0.111086
0.0883597
0.0719589
0.0585007
0.0446546
0.0267427
0.184114
0.204653
0.22516
0.243478
0.258253
0.269188
0.2742
0.271163
0.257608
0.231874
0.195936
0.157682
0.125577
0.101434
0.0835598
0.0696917
0.0574497
0.0440046
0.0262431
0.165338
0.180847
0.195902
0.208654
0.218363
0.22422
0.224857
0.219113
0.206052
0.185715
0.160371
0.134539
0.112142
0.0941569
0.0798884
0.068
0.056723
0.043562
0.0258192
0.150355
0.161874
0.172795
0.181552
0.187728
0.190338
0.188627
0.182103
0.170686
0.155046
0.136924
0.118766
0.102488
0.0886943
0.0770628
0.0666908
0.0561774
0.0432468
0.0254574
0.13868
0.147097
0.154918
0.160925
0.16463
0.165346
0.162644
0.156384
0.146817
0.134691
0.121228
0.107818
0.095483
0.0845731
0.0748561
0.065631
0.0557249
0.0430092
0.0251488
0.129739
0.13579
0.141272
0.145291
0.147313
0.146929
0.14391
0.138275
0.130346
0.120763
0.11038
0.100047
0.090343
0.0814398
0.0731046
0.0647407
0.0553233
0.0428245
0.0248876
0.122923
0.127202
0.130967
0.133485
0.134347
0.133317
0.13028
0.12531
0.118706
0.110969
0.1027
0.0944442
0.0865404
0.0790392
0.0716965
0.0639795
0.0549604
0.0426832
0.0246704
0.117656
0.120574
0.123044
0.124449
0.124531
0.123148
0.120241
0.115888
0.110334
0.103955
0.0971779
0.0903627
0.0837057
0.0771867
0.0705581
0.0633302
0.0546396
0.0425841
0.0244942
0.113468
0.115225
0.116626
0.117196
0.116784
0.115275
0.112608
0.108838
0.104144
0.0988043
0.0931209
0.0873367
0.0815642
0.0757458
0.0696393
0.0627871
0.0543695
0.0425276
0.0243562
0.110101
0.110594
0.110944
0.110837
0.110144
0.108691
0.10637
0.103189
0.0992635
0.0947886
0.0899763
0.0849904
0.0798919
0.0746062
0.0689013
0.0623462
0.0541545
0.0425088
0.024252
0.107759
0.106291
0.105451
0.104789
0.10397
0.102687
0.100769
0.0981779
0.0949768
0.0912892
0.087254
0.0829731
0.0784693
0.073655
0.0683067
0.0620137
0.0540166
0.0425351
0.0241789
0.106864
0.102516
0.100736
0.0997386
0.0988494
0.0976634
0.096004
0.0938239
0.0911558
0.0880762
0.0846684
0.0809842
0.0770104
0.0726418
0.0676518
0.0616356
0.0538455
0.042542
0.0241145
)
;

boundaryField
{
    leftWall
    {
        type            kqRWallFunction;
        value           nonuniform List<scalar> 
50
(
0.00614272
0.00943341
0.0111957
0.0130065
0.0144959
0.0156483
0.0165278
0.0171688
0.0177851
0.0184663
0.0192416
0.020417
0.0227644
0.0281408
0.0378775
0.0480911
0.0554465
0.054768
0.0515931
0.0513721
0.0523285
0.0536086
0.0547263
0.0554451
0.0556793
0.0553805
0.0544214
0.0528906
0.0509014
0.0485811
0.0460638
0.0434822
0.0409582
0.0385941
0.0364678
0.0346319
0.0331184
0.0319487
0.0311464
0.0307516
0.0308329
0.0314976
0.0328987
0.0352456
0.0388235
0.0439986
0.0511697
0.0607589
0.0734973
0.0913679
)
;
    }
    rightWall
    {
        type            kqRWallFunction;
        value           nonuniform List<scalar> 
50
(
0.00793454
0.00929659
0.0113059
0.0130503
0.0145024
0.0157306
0.0167946
0.0177346
0.0190582
0.0204985
0.0218137
0.0230692
0.0243324
0.025646
0.0270184
0.0284384
0.0298754
0.0312861
0.0326192
0.0338267
0.034874
0.0357402
0.0364189
0.0369151
0.0372378
0.0373897
0.037361
0.0371294
0.0366677
0.0359573
0.0350041
0.0338456
0.0325458
0.0311801
0.0299426
0.0289082
0.0280493
0.0273367
0.0267427
0.0262431
0.0258192
0.0254574
0.0251488
0.0248876
0.0246704
0.0244942
0.0243562
0.024252
0.0241789
0.0241145
)
;
    }
    lowerWall
    {
        type            kqRWallFunction;
        value           nonuniform List<scalar> 
62
(
0.00614272
0.011004
0.0172095
0.0225383
0.0271315
0.0314713
0.0357737
0.0401115
0.0444605
0.0487337
0.0528031
0.0565117
0.0596795
0.062103
0.0635486
0.0636725
0.0626077
0.0604955
0.0571242
0.0526197
0.0470749
0.037714
0.0284166
0.0284166
0.056877
0.0838489
0.109612
0.130373
0.150845
0.172868
0.20043
0.25331
0.220197
0.180792
0.143912
0.0106288
0.0188352
0.0277911
0.036102
0.0444661
0.0533998
0.0636895
0.0798677
0.0106288
0.0159248
0.0204366
0.0232357
0.0250146
0.0258361
0.0255186
0.0244561
0.0229103
0.021116
0.0193331
0.0177879
0.0164158
0.0151271
0.0138723
0.0124634
0.010955
0.0106644
0.00793454
)
;
    }
    atmosphere
    {
        type            inletOutlet;
        inletValue      uniform 0.1;
        value           nonuniform List<scalar> 
46
(
0.1
0.1
0.1
0.1
0.1
0.1
0.1
0.1
0.1
0.1
0.1
0.1
0.1
0.1
0.1
0.1
0.1
0.1
0.1
0.1
0.1
0.1
0.1
0.1
0.1
0.1
0.1
0.1
0.102516
0.100736
0.0997386
0.0988494
0.0976634
0.096004
0.0938239
0.0911558
0.0880762
0.0846684
0.0809842
0.0770104
0.0726418
0.0676518
0.0616356
0.0538455
0.042542
0.0241145
)
;
    }
    defaultFaces
    {
        type            empty;
    }
}


// ************************************************************************* //
