/*--------------------------------*- C++ -*----------------------------------*\
  =========                 |
  \\      /  F ield         | OpenFOAM: The Open Source CFD Toolbox
   \\    /   O peration     | Website:  https://openfoam.org
    \\  /    A nd           | Version:  7
     \\/     M anipulation  |
\*---------------------------------------------------------------------------*/
FoamFile
{
    version     2.0;
    format      ascii;
    class       volVectorField;
    location    "0.3";
    object      U;
}
// * * * * * * * * * * * * * * * * * * * * * * * * * * * * * * * * * * * * * //

dimensions      [0 1 -1 0 0 0 0];

internalField   nonuniform List<vector> 
2268
(
(-0.0482972 0.0157588 0)
(-0.0633635 -0.00258306 0)
(-0.029622 -0.0159999 0)
(0.0200406 -0.0188955 0)
(0.0775876 -0.0198794 0)
(0.135956 -0.0195454 0)
(0.193897 -0.0189998 0)
(0.251088 -0.018577 0)
(0.307627 -0.0182663 0)
(0.363534 -0.017966 0)
(0.418485 -0.0175432 0)
(0.471722 -0.0168378 0)
(0.521927 -0.0156418 0)
(0.567018 -0.0136273 0)
(0.603436 -0.0102808 0)
(0.626757 -0.00392888 0)
(0.624574 0.00717682 0)
(0.580331 0.024177 0)
(0.482258 0.0455911 0)
(0.319446 0.0645399 0)
(0.118399 0.072835 0)
(-0.164907 0.0208144 0)
(-0.108062 -0.0850459 0)
(-0.0333534 0.0353003 0)
(-0.021069 -0.00638971 0)
(0.0151431 -0.0307082 0)
(0.065045 -0.0394791 0)
(0.121284 -0.0424808 0)
(0.179104 -0.0428211 0)
(0.23696 -0.0424358 0)
(0.294365 -0.0419968 0)
(0.351157 -0.0415647 0)
(0.407136 -0.0409737 0)
(0.461858 -0.0399614 0)
(0.514529 -0.0381862 0)
(0.563881 -0.0351807 0)
(0.607976 -0.0302229 0)
(0.643944 -0.0221724 0)
(0.667371 -0.00875405 0)
(0.675535 0.0129436 0)
(0.661901 0.0451991 0)
(0.612789 0.0873959 0)
(0.504873 0.131375 0)
(0.334705 0.160569 0)
(0.0542625 0.11625 0)
(0.0278006 -0.0873494 0)
(-0.0103034 0.0412876 0)
(0.00761347 -0.0191511 0)
(0.0463785 -0.0505433 0)
(0.0961352 -0.0634126 0)
(0.151022 -0.067777 0)
(0.207488 -0.0685127 0)
(0.264179 -0.0681043 0)
(0.320565 -0.0674691 0)
(0.376361 -0.0667232 0)
(0.431257 -0.0656468 0)
(0.484756 -0.0638623 0)
(0.536064 -0.0608609 0)
(0.583976 -0.0559382 0)
(0.626721 -0.0480488 0)
(0.661773 -0.035605 0)
(0.685476 -0.0162525 0)
(0.694089 0.0134139 0)
(0.683253 0.0569843 0)
(0.64697 0.116011 0)
(0.572988 0.183812 0)
(0.453236 0.238088 0)
(0.233639 0.20077 0)
(0.127206 -0.0282189 0)
(0.00435614 0.0367792 0)
(0.0284232 -0.0334901 0)
(0.0706536 -0.0719411 0)
(0.121042 -0.0880968 0)
(0.175051 -0.0936262 0)
(0.230253 -0.0946751 0)
(0.285653 -0.0942116 0)
(0.340793 -0.0933428 0)
(0.395354 -0.0922227 0)
(0.448976 -0.0905807 0)
(0.50114 -0.0879347 0)
(0.551072 -0.0836229 0)
(0.597649 -0.0767297 0)
(0.639276 -0.0659256 0)
(0.673748 -0.0492573 0)
(0.698024 -0.0240044 0)
(0.708632 0.0134561 0)
(0.701917 0.0669941 0)
(0.67403 0.139002 0)
(0.618136 0.224728 0)
(0.526681 0.302835 0)
(0.353715 0.288069 0)
(0.200579 0.0755896 0)
(0.011175 0.0264519 0)
(0.0427974 -0.0512293 0)
(0.0894298 -0.0946555 0)
(0.141177 -0.113065 0)
(0.194813 -0.11938 0)
(0.249003 -0.120631 0)
(0.303196 -0.120105 0)
(0.357084 -0.119013 0)
(0.410373 -0.117514 0)
(0.462697 -0.115288 0)
(0.513542 -0.111758 0)
(0.562172 -0.106132 0)
(0.607564 -0.0973158 0)
(0.648317 -0.0837476 0)
(0.682561 -0.0631829 0)
(0.7078 -0.0325984 0)
(0.721087 0.0117837 0)
(0.719442 0.0739291 0)
(0.699893 0.156538 0)
(0.657771 0.256394 0)
(0.583956 0.355903 0)
(0.443798 0.375722 0)
(0.260495 0.219313 0)
(0.0142362 0.0127224 0)
(0.0526431 -0.0720861 0)
(0.103752 -0.118728 0)
(0.157161 -0.138265 0)
(0.210729 -0.144838 0)
(0.264113 -0.146085 0)
(0.317217 -0.145439 0)
(0.369906 -0.144112 0)
(0.421947 -0.142231 0)
(0.472994 -0.13942 0)
(0.522558 -0.135019 0)
(0.569959 -0.128124 0)
(0.614281 -0.117501 0)
(0.654341 -0.101413 0)
(0.688621 -0.0773957 0)
(0.715146 -0.0421876 0)
(0.731543 0.00810239 0)
(0.735507 0.0774593 0)
(0.724703 0.168811 0)
(0.69575 0.280555 0)
(0.637517 0.399865 0)
(0.52655 0.462072 0)
(0.318647 0.395992 0)
(0.0161283 -0.00321178 0)
(0.0597762 -0.0955255 0)
(0.114714 -0.144112 0)
(0.169639 -0.163774 0)
(0.22319 -0.17007 0)
(0.27586 -0.171079 0)
(0.327948 -0.170218 0)
(0.379482 -0.168619 0)
(0.430298 -0.166341 0)
(0.480086 -0.162943 0)
(0.528392 -0.157691 0)
(0.574598 -0.149588 0)
(0.617907 -0.137298 0)
(0.657363 -0.118968 0)
(0.691824 -0.0919823 0)
(0.719832 -0.0528992 0)
(0.739605 0.00225047 0)
(0.749525 0.0774304 0)
(0.748022 0.175757 0)
(0.733106 0.297273 0)
(0.693051 0.434305 0)
(0.618828 0.545831 0)
(0.38736 0.603024 0)
(0.0179558 -0.0207134 0)
(0.065468 -0.120985 0)
(0.123269 -0.17054 0)
(0.179283 -0.189504 0)
(0.232685 -0.195072 0)
(0.284626 -0.19562 0)
(0.335714 -0.194438 0)
(0.386108 -0.19251 0)
(0.435704 -0.189805 0)
(0.484233 -0.185809 0)
(0.531286 -0.179717 0)
(0.576301 -0.17046 0)
(0.6186 -0.156641 0)
(0.657457 -0.136356 0)
(0.692123 -0.106913 0)
(0.721662 -0.0647495 0)
(0.744887 -0.00586545 0)
(0.760879 0.0736124 0)
(0.769082 0.176789 0)
(0.76938 0.304871 0)
(0.752993 0.454547 0)
(0.724643 0.612515 0)
(0.480189 0.880048 0)
(0.00722653 0.00275247 0)
(-0.0594473 0.0241439 0)
(-0.153355 0.0201489 0)
(-0.189741 0.00678861 0)
(-0.188523 -0.00293385 0)
(-0.163699 -0.00865726 0)
(-0.127991 -0.0108641 0)
(-0.0878599 -0.0113216 0)
(-0.0483901 -0.010518 0)
(-0.0130953 -0.00880396 0)
(0.015456 -0.00666402 0)
(0.0357957 -0.0043733 0)
(0.0477151 -0.00220397 0)
(0.0518499 -0.000197179 0)
(0.0492098 0.00140325 0)
(0.0411884 0.00255493 0)
(0.0293925 0.00324699 0)
(0.0169543 0.00317826 0)
(0.00499242 0.00194839 0)
(-0.0334527 0.0214456 0)
(-0.120809 0.0549428 0)
(-0.193284 0.0392087 0)
(-0.212253 0.010122 0)
(-0.201304 -0.00905557 0)
(-0.175114 -0.0204208 0)
(-0.138694 -0.0255953 0)
(-0.0984438 -0.0268478 0)
(-0.058755 -0.0251366 0)
(-0.0228587 -0.0213988 0)
(0.00670491 -0.0164474 0)
(0.0285483 -0.0109145 0)
(0.0421686 -0.00553443 0)
(0.0479544 -0.000668681 0)
(0.046993 0.0033339 0)
(0.0405967 0.00630766 0)
(0.0302597 0.00795786 0)
(0.0181279 0.00793953 0)
(0.00553901 0.00725249 0)
(-0.0727599 0.0663188 0)
(-0.160427 0.0857651 0)
(-0.210258 0.0529271 0)
(-0.220602 0.0100764 0)
(-0.205851 -0.0171564 0)
(-0.178209 -0.0333385 0)
(-0.141392 -0.0411176 0)
(-0.101376 -0.0429818 0)
(-0.0621042 -0.0403898 0)
(-0.0265246 -0.0347143 0)
(0.00294253 -0.0269919 0)
(0.0250764 -0.0183422 0)
(0.0393076 -0.0097641 0)
(0.0458906 -0.00195814 0)
(0.0457656 0.0045763 0)
(0.040228 0.00946494 0)
(0.0307198 0.0124353 0)
(0.0190141 0.0132368 0)
(0.00627137 0.0121231 0)
(-0.103605 0.12326 0)
(-0.193678 0.114601 0)
(-0.226174 0.0618815 0)
(-0.22788 0.00786003 0)
(-0.208716 -0.0264857 0)
(-0.179196 -0.0471521 0)
(-0.141481 -0.0572676 0)
(-0.101156 -0.059618 0)
(-0.0619622 -0.0560135 0)
(-0.0266394 -0.0483019 0)
(0.0025585 -0.0378088 0)
(0.0245549 -0.0260132 0)
(0.0388672 -0.0142222 0)
(0.0457135 -0.00342372 0)
(0.045951 0.00566583 0)
(0.040799 0.0125391 0)
(0.0316039 0.0168762 0)
(0.0199823 0.018452 0)
(0.00701125 0.0177221 0)
(-0.132362 0.192863 0)
(-0.226667 0.141458 0)
(-0.241916 0.0650365 0)
(-0.233649 0.00272371 0)
(-0.210123 -0.0372798 0)
(-0.178648 -0.0618801 0)
(-0.139651 -0.0740737 0)
(-0.0984945 -0.0767042 0)
(-0.0589516 -0.0719234 0)
(-0.0236856 -0.0620095 0)
(0.0052199 -0.0486728 0)
(0.0268242 -0.033705 0)
(0.0408088 -0.0187113 0)
(0.0474505 -0.00493736 0)
(0.0475783 0.00670222 0)
(0.0423444 0.0155838 0)
(0.0329994 0.0213449 0)
(0.0210837 0.0238169 0)
(0.00764182 0.0236504 0)
(-0.163571 0.276493 0)
(-0.259488 0.164483 0)
(-0.25427 0.0604985 0)
(-0.234566 -0.00515123 0)
(-0.208338 -0.0489499 0)
(-0.175823 -0.0771387 0)
(-0.135658 -0.0913134 0)
(-0.0933724 -0.0940624 0)
(-0.0531336 -0.0879289 0)
(-0.0177211 -0.0756467 0)
(0.0109014 -0.0593626 0)
(0.0319271 -0.0411916 0)
(0.0452353 -0.0230114 0)
(0.0512302 -0.00629907 0)
(0.0507735 0.00786327 0)
(0.0449821 0.0187536 0)
(0.03503 0.0259721 0)
(0.022422 0.0294129 0)
(0.00819804 0.0299254 0)
(-0.196899 0.367509 0)
(-0.279842 0.173717 0)
(-0.253258 0.0451042 0)
(-0.223251 -0.0142894 0)
(-0.199757 -0.0600488 0)
(-0.169012 -0.092307 0)
(-0.128674 -0.108859 0)
(-0.0853751 -0.111737 0)
(-0.0442822 -0.104034 0)
(-0.00859909 -0.0891448 0)
(0.0197221 -0.0697497 0)
(0.0399974 -0.0483075 0)
(0.052307 -0.0269359 0)
(0.0572234 -0.00730604 0)
(0.0557025 0.00935679 0)
(0.0488675 0.0222526 0)
(0.0378459 0.0309444 0)
(0.0241372 0.0353872 0)
(0.00878098 0.0365863 0)
(-0.248846 0.56611 0)
(-0.221748 0.15358 0)
(-0.212454 0.0215368 0)
(-0.186094 -0.0220638 0)
(-0.178219 -0.0709702 0)
(-0.155346 -0.107849 0)
(-0.117406 -0.127064 0)
(-0.0738663 -0.13021 0)
(-0.031894 -0.120832 0)
(0.00414684 -0.103002 0)
(0.0320566 -0.0801108 0)
(0.0513044 -0.0550988 0)
(0.0622285 -0.0303682 0)
(0.0656175 -0.00774373 0)
(0.0625407 0.01145 0)
(0.054157 0.0263704 0)
(0.0416009 0.0365589 0)
(0.0264051 0.0420244 0)
(0.00956635 0.043789 0)
(0.0212185 -0.0511333 0)
(0.073086 -0.164209 0)
(0.133697 -0.213425 0)
(0.190572 -0.230037 0)
(0.243441 -0.233835 0)
(0.294182 -0.233322 0)
(0.34375 -0.231441 0)
(0.392433 -0.228881 0)
(0.440207 -0.225428 0)
(0.486864 -0.220453 0)
(0.532056 -0.213049 0)
(0.575303 -0.202059 0)
(0.616084 -0.18606 0)
(0.654024 -0.163186 0)
(0.688997 -0.13075 0)
(0.72088 -0.0850587 0)
(0.749377 -0.0221218 0)
(0.774573 0.0614905 0)
(0.797722 0.168192 0)
(0.822339 0.299123 0)
(0.852747 0.453662 0)
(0.916389 0.636427 0)
(0.996803 0.98699 0)
(0.0263747 -0.0979445 0)
(0.0828311 -0.227289 0)
(0.145266 -0.273193 0)
(0.201427 -0.284756 0)
(0.252401 -0.285262 0)
(0.300918 -0.282873 0)
(0.348201 -0.279814 0)
(0.394605 -0.276277 0)
(0.440131 -0.271774 0)
(0.484608 -0.265518 0)
(0.527726 -0.256464 0)
(0.569033 -0.24338 0)
(0.608078 -0.224961 0)
(0.644832 -0.19972 0)
(0.679988 -0.165313 0)
(0.714429 -0.117921 0)
(0.74868 -0.0535912 0)
(0.783526 0.0302207 0)
(0.821234 0.133954 0)
(0.86678 0.255674 0)
(0.927878 0.390907 0)
(1.01349 0.535699 0)
(1.15288 0.709868 0)
(0.0312356 -0.152008 0)
(0.0930535 -0.293144 0)
(0.15727 -0.332001 0)
(0.211272 -0.336851 0)
(0.258997 -0.333651 0)
(0.30436 -0.329502 0)
(0.348772 -0.325517 0)
(0.392544 -0.321253 0)
(0.435607 -0.31594 0)
(0.477767 -0.308659 0)
(0.51872 -0.298217 0)
(0.557944 -0.283272 0)
(0.594849 -0.26274 0)
(0.629506 -0.235913 0)
(0.663374 -0.201289 0)
(0.698287 -0.154705 0)
(0.735228 -0.0918935 0)
(0.774972 -0.0109917 0)
(0.819308 0.0866203 0)
(0.871745 0.196168 0)
(0.936948 0.309856 0)
(1.01691 0.417907 0)
(1.12929 0.515369 0)
(0.031647 -0.215407 0)
(0.108138 -0.365192 0)
(0.17323 -0.390395 0)
(0.221724 -0.386323 0)
(0.264137 -0.379588 0)
(0.305257 -0.374365 0)
(0.346158 -0.370024 0)
(0.386815 -0.365383 0)
(0.426936 -0.359448 0)
(0.466257 -0.351253 0)
(0.504476 -0.33946 0)
(0.541006 -0.322522 0)
(0.575039 -0.299544 0)
(0.606495 -0.270956 0)
(0.637222 -0.236954 0)
(0.669701 -0.192653 0)
(0.705438 -0.13322 0)
(0.745475 -0.0570711 0)
(0.791322 0.0335353 0)
(0.845123 0.132293 0)
(0.908897 0.231995 0)
(0.984105 0.324428 0)
(1.07759 0.405535 0)
(0.0390842 -0.292897 0)
(0.143131 -0.447443 0)
(0.194592 -0.446677 0)
(0.229106 -0.431426 0)
(0.26451 -0.421919 0)
(0.301463 -0.416061 0)
(0.339065 -0.411226 0)
(0.376628 -0.405744 0)
(0.41362 -0.398563 0)
(0.449643 -0.388828 0)
(0.484306 -0.375115 0)
(0.51708 -0.355649 0)
(0.54751 -0.32965 0)
(0.575918 -0.29877 0)
(0.603175 -0.265456 0)
(0.630612 -0.223663 0)
(0.661219 -0.167952 0)
(0.697899 -0.0971388 0)
(0.742937 -0.0134777 0)
(0.797011 0.0770377 0)
(0.86019 0.166424 0)
(0.933554 0.246088 0)
(1.0184 0.312227 0)
(0.107318 -0.384198 0)
(0.215389 -0.532006 0)
(0.214392 -0.482603 0)
(0.226914 -0.459301 0)
(0.257815 -0.449859 0)
(0.293021 -0.443965 0)
(0.328793 -0.438347 0)
(0.364146 -0.431604 0)
(0.398634 -0.422762 0)
(0.431687 -0.411052 0)
(0.462578 -0.394859 0)
(0.490924 -0.371926 0)
(0.517086 -0.340927 0)
(0.542487 -0.303888 0)
(0.56517 -0.270545 0)
(0.582543 -0.230576 0)
(0.602278 -0.178531 0)
(0.631225 -0.114386 0)
(0.673933 -0.039243 0)
(0.732762 0.0428065 0)
(0.807787 0.122616 0)
(0.895013 0.190439 0)
(0.986905 0.245098 0)
(0.303232 -0.599646 0)
(0.334621 -0.598537 0)
(0.202592 -0.449953 0)
(0.21631 -0.453201 0)
(0.250659 -0.451314 0)
(0.287557 -0.448337 0)
(0.323277 -0.444534 0)
(0.357414 -0.439388 0)
(0.389893 -0.432145 0)
(0.41992 -0.422139 0)
(0.446526 -0.408173 0)
(0.470607 -0.389544 0)
(0.496522 -0.368514 0)
(0.535769 -0.348225 0)
(0.558217 -0.307014 0)
(0.565048 -0.258974 0)
(0.570048 -0.208618 0)
(0.581048 -0.149534 0)
(0.608812 -0.0803266 0)
(0.660716 -0.00622597 0)
(0.739051 0.0752805 0)
(0.84769 0.151986 0)
(0.956323 0.200151 0)
(0.240628 -0.935687 0)
(0.0681481 -0.421273 0)
(0.143456 -0.372212 0)
(0.214336 -0.513663 0)
(0.258533 -0.562909 0)
(0.306562 -0.566632 0)
(0.357533 -0.561412 0)
(0.407884 -0.553266 0)
(0.457266 -0.540957 0)
(0.506081 -0.523144 0)
(0.554649 -0.500694 0)
(0.602316 -0.476378 0)
(0.647293 -0.447196 0)
(0.689582 -0.40088 0)
(0.730182 -0.344919 0)
(0.771472 -0.292144 0)
(0.812304 -0.252447 0)
(0.852116 -0.226958 0)
(0.893049 -0.211663 0)
(0.937509 -0.199237 0)
(0.988143 -0.180162 0)
(1.0554 -0.138497 0)
(1.0154 0.0327001 0)
(-0.158817 -0.993853 0)
(-0.031341 -0.555372 0)
(0.0967303 -0.514411 0)
(0.201053 -0.565298 0)
(0.270114 -0.588321 0)
(0.328602 -0.586984 0)
(0.38528 -0.578102 0)
(0.440158 -0.567164 0)
(0.493354 -0.554262 0)
(0.545732 -0.538311 0)
(0.59802 -0.518666 0)
(0.650025 -0.495125 0)
(0.700904 -0.46599 0)
(0.751211 -0.427417 0)
(0.80395 -0.379739 0)
(0.861266 -0.329723 0)
(0.921649 -0.282371 0)
(0.982851 -0.238291 0)
(1.04329 -0.195155 0)
(1.10084 -0.148163 0)
(1.15115 -0.0904344 0)
(1.1925 -0.0160517 0)
(1.22387 0.0582395 0)
(-0.0609972 -0.758268 0)
(-0.00399566 -0.705855 0)
(0.10782 -0.654639 0)
(0.198335 -0.648773 0)
(0.267356 -0.647693 0)
(0.326157 -0.640771 0)
(0.382035 -0.630705 0)
(0.436347 -0.61928 0)
(0.489228 -0.606223 0)
(0.541104 -0.590532 0)
(0.592475 -0.571248 0)
(0.643563 -0.547523 0)
(0.694609 -0.518234 0)
(0.746895 -0.482101 0)
(0.802861 -0.439744 0)
(0.864065 -0.394716 0)
(0.929917 -0.35005 0)
(0.998796 -0.306486 0)
(1.06906 -0.262562 0)
(1.1394 -0.214505 0)
(1.20892 -0.155542 0)
(1.28167 -0.0762124 0)
(1.36684 0.0241295 0)
(0.00767193 -0.789248 0)
(0.0414737 -0.782728 0)
(0.115177 -0.741033 0)
(0.183942 -0.721582 0)
(0.244216 -0.71016 0)
(0.298834 -0.698815 0)
(0.351051 -0.686637 0)
(0.401953 -0.67368 0)
(0.451703 -0.659359 0)
(0.500466 -0.642733 0)
(0.548543 -0.622881 0)
(0.596333 -0.598999 0)
(0.64453 -0.570399 0)
(0.694521 -0.536791 0)
(0.748179 -0.499069 0)
(0.80685 -0.45938 0)
(0.870779 -0.419589 0)
(0.939559 -0.380161 0)
(1.01286 -0.339861 0)
(1.09096 -0.295601 0)
(1.17514 -0.242289 0)
(1.26972 -0.173803 0)
(1.37852 -0.0892745 0)
(0.0168676 -0.813693 0)
(0.0531112 -0.836841 0)
(0.104904 -0.801513 0)
(0.157475 -0.779309 0)
(0.207658 -0.763646 0)
(0.255462 -0.749799 0)
(0.301887 -0.736204 0)
(0.347369 -0.722143 0)
(0.391946 -0.706819 0)
(0.435659 -0.689363 0)
(0.478718 -0.669012 0)
(0.521568 -0.64522 0)
(0.565011 -0.617737 0)
(0.610305 -0.58678 0)
(0.658981 -0.553312 0)
(0.712336 -0.518836 0)
(0.771192 -0.484623 0)
(0.836138 -0.451033 0)
(0.908007 -0.417204 0)
(0.988373 -0.380898 0)
(1.0796 -0.338387 0)
(1.18605 -0.284796 0)
(1.31009 -0.216054 0)
(0.0178118 -0.845174 0)
(0.0486416 -0.876909 0)
(0.0846226 -0.846464 0)
(0.124635 -0.824927 0)
(0.164976 -0.808223 0)
(0.204772 -0.793403 0)
(0.244027 -0.779044 0)
(0.282732 -0.764229 0)
(0.320791 -0.748124 0)
(0.358191 -0.72998 0)
(0.395111 -0.709254 0)
(0.432 -0.685697 0)
(0.469633 -0.659433 0)
(0.509128 -0.631025 0)
(0.551807 -0.601501 0)
(0.598954 -0.572137 0)
(0.651724 -0.544011 0)
(0.711314 -0.517614 0)
(0.779298 -0.492626 0)
(0.858009 -0.467684 0)
(0.950471 -0.439974 0)
(1.0613 -0.404633 0)
(1.1933 -0.354522 0)
(0.0149137 -0.875745 0)
(0.0373771 -0.904158 0)
(0.0611226 -0.879258 0)
(0.0905227 -0.859987 0)
(0.121445 -0.84381 0)
(0.152821 -0.828977 0)
(0.184257 -0.814385 0)
(0.215513 -0.799161 0)
(0.246422 -0.782546 0)
(0.276957 -0.763958 0)
(0.307297 -0.743088 0)
(0.337883 -0.719977 0)
(0.369445 -0.695062 0)
(0.402981 -0.669173 0)
(0.439678 -0.643453 0)
(0.480789 -0.619173 0)
(0.527612 -0.597461 0)
(0.581623 -0.579095 0)
(0.644735 -0.564359 0)
(0.719609 -0.552756 0)
(0.80958 -0.542291 0)
(0.919476 -0.528003 0)
(1.0533 -0.500033 0)
(0.00907484 -0.898213 0)
(0.023507 -0.920289 0)
(0.0380415 -0.901879 0)
(0.0582238 -0.885512 0)
(0.0803288 -0.870606 0)
(0.103422 -0.85634 0)
(0.126994 -0.841926 0)
(0.150729 -0.826624 0)
(0.174449 -0.809819 0)
(0.198146 -0.791113 0)
(0.222022 -0.77043 0)
(0.246515 -0.748077 0)
(0.272309 -0.724754 0)
(0.300311 -0.701511 0)
(0.331593 -0.679635 0)
(0.367342 -0.660488 0)
(0.408848 -0.64535 0)
(0.457616 -0.635331 0)
(0.515552 -0.63131 0)
(0.585221 -0.633632 0)
(0.669803 -0.641172 0)
(0.773929 -0.649173 0)
(0.902439 -0.645632 0)
(0.00294171 -0.910767 0)
(0.0100122 -0.928387 0)
(0.0173705 -0.915956 0)
(0.029416 -0.902432 0)
(0.0434644 -0.889105 0)
(0.058788 -0.87576 0)
(0.0748935 -0.861853 0)
(0.0914753 -0.84681 0)
(0.108391 -0.830175 0)
(0.125676 -0.811746 0)
(0.143565 -0.791662 0)
(0.162497 -0.770461 0)
(0.183114 -0.749063 0)
(0.206233 -0.728701 0)
(0.232812 -0.710798 0)
(0.263911 -0.696829 0)
(0.300693 -0.688228 0)
(0.344477 -0.686388 0)
(0.396857 -0.692662 0)
(0.459891 -0.7081 0)
(0.536067 -0.732395 0)
(0.629205 -0.761258 0)
(0.744076 -0.781362 0)
(-0.00217793 -0.913377 0)
(-0.00159028 -0.930707 0)
(-0.000148059 -0.922674 0)
(0.00480231 -0.911694 0)
(0.0117087 -0.900061 0)
(0.0200352 -0.88786 0)
(0.0293615 -0.874734 0)
(0.0394398 -0.860269 0)
(0.0501898 -0.844181 0)
(0.0617039 -0.826449 0)
(0.0742492 -0.807406 0)
(0.088262 -0.787778 0)
(0.104331 -0.768659 0)
(0.123175 -0.751423 0)
(0.145606 -0.737595 0)
(0.172502 -0.728727 0)
(0.204783 -0.726344 0)
(0.243414 -0.731985 0)
(0.289443 -0.747265 0)
(0.344104 -0.773661 0)
(0.40879 -0.811503 0)
(0.48608 -0.857228 0)
(0.57999 -0.897495 0)
(-0.00588895 -0.908207 0)
(-0.0107519 -0.928081 0)
(-0.0143852 -0.922992 0)
(-0.0154543 -0.914313 0)
(-0.0146814 -0.904396 0)
(-0.0124384 -0.893472 0)
(-0.00905103 -0.88134 0)
(-0.00468675 -0.867742 0)
(0.000647281 -0.852553 0)
(0.00709868 -0.835917 0)
(0.0149588 -0.818325 0)
(0.0246451 -0.800648 0)
(0.036678 -0.784102 0)
(0.051651 -0.770148 0)
(0.0701995 -0.760358 0)
(0.0929631 -0.756296 0)
(0.120537 -0.759467 0)
(0.153427 -0.771383 0)
(0.192012 -0.793656 0)
(0.236582 -0.827884 0)
(0.287315 -0.874826 0)
(0.345477 -0.93194 0)
(0.4141 -0.987536 0)
(-0.00819187 -0.898332 0)
(-0.0174931 -0.92032 0)
(-0.0254985 -0.91791 0)
(-0.0314683 -0.911357 0)
(-0.0357974 -0.903103 0)
(-0.0386835 -0.893512 0)
(-0.0403488 -0.882525 0)
(-0.0408757 -0.870025 0)
(-0.0402027 -0.856031 0)
(-0.038138 -0.840819 0)
(-0.0343817 -0.825002 0)
(-0.0285534 -0.809549 0)
(-0.0202244 -0.79574 0)
(-0.00894881 -0.785065 0)
(0.00570224 -0.779078 0)
(0.0240963 -0.779271 0)
(0.0464666 -0.787016 0)
(0.0728376 -0.80363 0)
(0.102937 -0.830494 0)
(0.136191 -0.869072 0)
(0.171712 -0.920384 0)
(0.209593 -0.983155 0)
(0.251905 -1.04864 0)
(-0.0095854 -0.884763 0)
(-0.0222022 -0.90871 0)
(-0.0336734 -0.90855 0)
(-0.0435296 -0.903877 0)
(-0.0519769 -0.89717 0)
(-0.0590616 -0.888906 0)
(-0.0649085 -0.879149 0)
(-0.0695242 -0.867908 0)
(-0.0727927 -0.855317 0)
(-0.0744981 -0.841756 0)
(-0.0743537 -0.827915 0)
(-0.0720392 -0.81481 0)
(-0.0672373 -0.803732 0)
(-0.0596678 -0.796135 0)
(-0.0491206 -0.793495 0)
(-0.0355025 -0.797159 0)
(-0.0189152 -0.808286 0)
(0.000241919 -0.827876 0)
(0.0211562 -0.85692 0)
(0.0425965 -0.89655 0)
(0.0628617 -0.947934 0)
(0.0811162 -1.01108 0)
(0.0983595 -1.08064 0)
(-0.0102914 -0.868861 0)
(-0.0251978 -0.894226 0)
(-0.0392477 -0.895909 0)
(-0.0520646 -0.892843 0)
(-0.0637222 -0.887526 0)
(-0.0741396 -0.880532 0)
(-0.0833571 -0.872028 0)
(-0.0913213 -0.862125 0)
(-0.0978817 -0.851046 0)
(-0.102819 -0.839238 0)
(-0.10588 -0.827429 0)
(-0.106822 -0.816635 0)
(-0.105451 -0.808104 0)
(-0.101656 -0.803209 0)
(-0.0954373 -0.80329 0)
(-0.0869532 -0.809505 0)
(-0.0765923 -0.822735 0)
(-0.0650765 -0.843605 0)
(-0.0535719 -0.872646 0)
(-0.0437591 -0.910552 0)
(-0.0378463 -0.958457 0)
(-0.0372029 -1.01739 0)
(-0.042517 -1.08525 0)
(-0.0104799 -0.851649 0)
(-0.0267893 -0.877788 0)
(-0.0426131 -0.880888 0)
(-0.0575671 -0.879135 0)
(-0.0716225 -0.87502 0)
(-0.0845935 -0.869192 0)
(-0.0964522 -0.861902 0)
(-0.107103 -0.853336 0)
(-0.116382 -0.843776 0)
(-0.124084 -0.833702 0)
(-0.130007 -0.823843 0)
(-0.133994 -0.815171 0)
(-0.135975 -0.808856 0)
(-0.135997 -0.806143 0)
(-0.134248 -0.808208 0)
(-0.131094 -0.815993 0)
(-0.127133 -0.830093 0)
(-0.123294 -0.850753 0)
(-0.120932 -0.878026 0)
(-0.121933 -0.912123 0)
(-0.128733 -0.95391 0)
(-0.14309 -1.005 0)
(-0.167033 -1.06618 0)
(-0.0102904 -0.833944 0)
(-0.027263 -0.860197 0)
(-0.044171 -0.864271 0)
(-0.0605511 -0.863523 0)
(-0.0762958 -0.860399 0)
(-0.0911375 -0.855597 0)
(-0.104996 -0.849426 0)
(-0.117752 -0.84212 0)
(-0.129243 -0.833994 0)
(-0.139295 -0.825528 0)
(-0.147766 -0.817418 0)
(-0.154587 -0.810565 0)
(-0.159802 -0.806024 0)
(-0.163598 -0.804893 0)
(-0.166314 -0.808165 0)
(-0.168469 -0.816565 0)
(-0.1708 -0.830422 0)
(-0.174334 -0.849633 0)
(-0.180478 -0.873813 0)
(-0.191135 -0.90267 0)
(-0.208733 -0.936651 0)
(-0.235236 -0.977505 0)
(-0.273696 -1.02805 0)
(-0.00984381 -0.816367 0)
(-0.0268848 -0.842113 0)
(-0.0443084 -0.846722 0)
(-0.0615181 -0.846668 0)
(-0.0783493 -0.844309 0)
(-0.0944746 -0.840364 0)
(-0.109777 -0.835171 0)
(-0.124128 -0.82899 0)
(-0.137381 -0.822136 0)
(-0.149402 -0.815068 0)
(-0.160112 -0.808421 0)
(-0.169523 -0.803003 0)
(-0.177781 -0.799734 0)
(-0.185182 -0.799554 0)
(-0.192183 -0.803272 0)
(-0.199405 -0.811413 0)
(-0.207658 -0.824075 0)
(-0.217991 -0.840867 0)
(-0.231764 -0.861024 0)
(-0.250765 -0.883774 0)
(-0.277253 -0.909038 0)
(-0.313236 -0.938295 0)
(-0.362434 -0.97542 0)
(-0.00924518 -0.79936 0)
(-0.0258988 -0.824059 0)
(-0.0433839 -0.828784 0)
(-0.0609358 -0.829119 0)
(-0.0783513 -0.827296 0)
(-0.0952641 -0.82402 0)
(-0.111534 -0.819636 0)
(-0.127033 -0.814398 0)
(-0.141639 -0.808604 0)
(-0.155265 -0.802666 0)
(-0.16789 -0.797145 0)
(-0.1796 -0.792737 0)
(-0.19062 -0.790223 0)
(-0.201331 -0.790378 0)
(-0.212266 -0.79384 0)
(-0.224107 -0.800959 0)
(-0.237691 -0.811646 0)
(-0.254037 -0.825292 0)
(-0.274395 -0.840828 0)
(-0.300362 -0.85705 0)
(-0.333928 -0.873302 0)
(-0.377018 -0.890473 0)
(-0.433589 -0.912567 0)
(-0.00858185 -0.783214 0)
(-0.0245226 -0.806426 0)
(-0.0417173 -0.810888 0)
(-0.0592234 -0.811327 0)
(-0.0768132 -0.809815 0)
(-0.0940989 -0.807015 0)
(-0.110927 -0.80325 0)
(-0.12718 -0.79875 0)
(-0.142767 -0.793773 0)
(-0.157643 -0.788672 0)
(-0.171842 -0.783919 0)
(-0.185509 -0.780093 0)
(-0.198928 -0.777836 0)
(-0.212535 -0.777765 0)
(-0.226908 -0.780359 0)
(-0.242755 -0.785819 0)
(-0.260907 -0.793918 0)
(-0.282322 -0.803896 0)
(-0.308109 -0.81447 0)
(-0.339635 -0.824079 0)
(-0.378565 -0.831495 0)
(-0.426624 -0.836829 0)
(-0.487609 -0.843499 0)
(-0.00791792 -0.768082 0)
(-0.0229384 -0.789491 0)
(-0.0395817 -0.793364 0)
(-0.0567411 -0.79365 0)
(-0.074176 -0.79224 0)
(-0.0914917 -0.789728 0)
(-0.10853 -0.78639 0)
(-0.12519 -0.782413 0)
(-0.141409 -0.778002 0)
(-0.157187 -0.77344 0)
(-0.172602 -0.769105 0)
(-0.187843 -0.765461 0)
(-0.203233 -0.763013 0)
(-0.219235 -0.762232 0)
(-0.236444 -0.763455 0)
(-0.255567 -0.76676 0)
(-0.277404 -0.771821 0)
(-0.302835 -0.777789 0)
(-0.332826 -0.78325 0)
(-0.368494 -0.786391 0)
(-0.411165 -0.785485 0)
(-0.462249 -0.779822 0)
(-0.52506 -0.771804 0)
(-0.00728818 -0.754021 0)
(-0.0212839 -0.77343 0)
(-0.0371956 -0.776455 0)
(-0.0537829 -0.776369 0)
(-0.0708034 -0.774874 0)
(-0.0878671 -0.772474 0)
(-0.104819 -0.769379 0)
(-0.121575 -0.765718 0)
(-0.138106 -0.761631 0)
(-0.154446 -0.757325 0)
(-0.17071 -0.753087 0)
(-0.187118 -0.749269 0)
(-0.204009 -0.746251 0)
(-0.221854 -0.744372 0)
(-0.241238 -0.743845 0)
(-0.262841 -0.744646 0)
(-0.287414 -0.746381 0)
(-0.315757 -0.748161 0)
(-0.348692 -0.748521 0)
(-0.387103 -0.7455 0)
(-0.431977 -0.737003 0)
(-0.484352 -0.721587 0)
(-0.546819 -0.700528 0)
(-0.00669585 -0.741023 0)
(-0.0196458 -0.758333 0)
(-0.0347194 -0.760326 0)
(-0.0505742 -0.759696 0)
(-0.0669793 -0.757961 0)
(-0.0835594 -0.75552 0)
(-0.10017 -0.752503 0)
(-0.116746 -0.748967 0)
(-0.13329 -0.744983 0)
(-0.149865 -0.74068 0)
(-0.166615 -0.736258 0)
(-0.183774 -0.731968 0)
(-0.201685 -0.728077 0)
(-0.220802 -0.724811 0)
(-0.241683 -0.722275 0)
(-0.26496 -0.720363 0)
(-0.291322 -0.71864 0)
(-0.321477 -0.716209 0)
(-0.356118 -0.711618 0)
(-0.395918 -0.70286 0)
(-0.441563 -0.687619 0)
(-0.493717 -0.663898 0)
(-0.554177 -0.631967 0)
(-0.00611909 -0.729061 0)
(-0.0180649 -0.744222 0)
(-0.0322601 -0.745075 0)
(-0.0472759 -0.743784 0)
(-0.0629119 -0.741695 0)
(-0.0788169 -0.739091 0)
(-0.0948645 -0.736011 0)
(-0.111015 -0.732434 0)
(-0.127297 -0.72836 0)
(-0.143799 -0.723845 0)
(-0.160683 -0.719008 0)
(-0.178187 -0.714009 0)
(-0.196642 -0.709021 0)
(-0.216477 -0.704172 0)
(-0.238199 -0.69948 0)
(-0.262381 -0.694775 0)
(-0.289633 -0.689595 0)
(-0.320569 -0.683067 0)
(-0.355761 -0.673792 0)
(-0.395701 -0.659805 0)
(-0.440818 -0.638709 0)
(-0.49146 -0.608157 0)
(-0.5487 -0.567633 0)
(-0.00553064 -0.718115 0)
(-0.0165523 -0.731064 0)
(-0.0298842 -0.730745 0)
(-0.043994 -0.728741 0)
(-0.0587414 -0.726231 0)
(-0.0738093 -0.723378 0)
(-0.0891005 -0.720123 0)
(-0.104604 -0.716368 0)
(-0.120372 -0.712045 0)
(-0.136516 -0.707141 0)
(-0.153204 -0.701705 0)
(-0.17067 -0.695825 0)
(-0.189225 -0.689591 0)
(-0.209254 -0.683051 0)
(-0.231212 -0.676156 0)
(-0.255597 -0.668686 0)
(-0.282936 -0.66017 0)
(-0.313742 -0.649772 0)
(-0.348472 -0.636179 0)
(-0.387462 -0.617525 0)
(-0.430938 -0.591448 0)
(-0.479006 -0.555439 0)
(-0.53216 -0.50842 0)
(-0.00493062 -0.708161 0)
(-0.0151137 -0.718783 0)
(-0.0276377 -0.717341 0)
(-0.0407939 -0.714644 0)
(-0.0545512 -0.711701 0)
(-0.0686383 -0.70855 0)
(-0.082999 -0.705039 0)
(-0.0976558 -0.700996 0)
(-0.112686 -0.696293 0)
(-0.128212 -0.690861 0)
(-0.144404 -0.684693 0)
(-0.161485 -0.677813 0)
(-0.179733 -0.67025 0)
(-0.199489 -0.661989 0)
(-0.221145 -0.652927 0)
(-0.245124 -0.642812 0)
(-0.271862 -0.631174 0)
(-0.301773 -0.617225 0)
(-0.335205 -0.599754 0)
(-0.372363 -0.57703 0)
(-0.413314 -0.546808 0)
(-0.457989 -0.506553 0)
(-0.506469 -0.454818 0)
(-0.00437399 -0.699147 0)
(-0.0137725 -0.707279 0)
(-0.0255644 -0.704852 0)
(-0.0377122 -0.701559 0)
(-0.0503787 -0.698222 0)
(-0.0633484 -0.694761 0)
(-0.0766194 -0.690937 0)
(-0.0902511 -0.68652 0)
(-0.104342 -0.681334 0)
(-0.119022 -0.67527 0)
(-0.134455 -0.668275 0)
(-0.150842 -0.660328 0)
(-0.168429 -0.651408 0)
(-0.187506 -0.641454 0)
(-0.208402 -0.630324 0)
(-0.231464 -0.617748 0)
(-0.257041 -0.603266 0)
(-0.285453 -0.586146 0)
(-0.316943 -0.565283 0)
(-0.35161 -0.539103 0)
(-0.389395 -0.505516 0)
(-0.430114 -0.46206 0)
(-0.473568 -0.407057 0)
(-0.00393712 -0.69106 0)
(-0.0125582 -0.69646 0)
(-0.0237087 -0.693287 0)
(-0.0347595 -0.689564 0)
(-0.0462213 -0.685918 0)
(-0.0579381 -0.682156 0)
(-0.0699721 -0.677981 0)
(-0.0824208 -0.673121 0)
(-0.0953988 -0.667372 0)
(-0.109035 -0.660599 0)
(-0.12348 -0.652718 0)
(-0.138908 -0.643676 0)
(-0.15553 -0.633414 0)
(-0.173587 -0.621838 0)
(-0.193344 -0.608783 0)
(-0.21508 -0.593968 0)
(-0.239061 -0.576953 0)
(-0.265522 -0.557066 0)
(-0.294616 -0.533312 0)
(-0.326348 -0.504274 0)
(-0.360568 -0.468043 0)
(-0.397011 -0.422277 0)
(-0.435312 -0.365163 0)
(-0.00360468 -0.683993 0)
(-0.011419 -0.686247 0)
(-0.0220924 -0.682687 0)
(-0.0319125 -0.678769 0)
(-0.0420402 -0.674921 0)
(-0.0523699 -0.670879 0)
(-0.063034 -0.666317 0)
(-0.0741639 -0.660955 0)
(-0.085881 -0.654581 0)
(-0.0983053 -0.647047 0)
(-0.111566 -0.638253 0)
(-0.125812 -0.62812 0)
(-0.141212 -0.616564 0)
(-0.157963 -0.603468 0)
(-0.176277 -0.58865 0)
(-0.196368 -0.571834 0)
(-0.218433 -0.552605 0)
(-0.242631 -0.530352 0)
(-0.269038 -0.50419 0)
(-0.297587 -0.472855 0)
(-0.328056 -0.43462 0)
(-0.360126 -0.387295 0)
(-0.393341 -0.328985 0)
(-0.00335492 -0.677817 0)
(-0.0101663 -0.676408 0)
(-0.0207177 -0.673098 0)
(-0.0291215 -0.669313 0)
(-0.0377711 -0.665383 0)
(-0.0465864 -0.661073 0)
(-0.0557665 -0.656085 0)
(-0.0654651 -0.650165 0)
(-0.0757985 -0.643117 0)
(-0.0868681 -0.634793 0)
(-0.0987778 -0.625084 0)
(-0.111645 -0.613892 0)
(-0.125605 -0.601113 0)
(-0.140813 -0.586616 0)
(-0.157435 -0.57021 0)
(-0.175634 -0.551628 0)
(-0.195553 -0.530486 0)
(-0.21729 -0.50624 0)
(-0.240863 -0.478107 0)
(-0.266145 -0.444973 0)
(-0.292861 -0.405291 0)
(-0.320651 -0.357023 0)
(-0.349008 -0.298237 0)
(-0.00400099 -0.671821 0)
(-0.008816 -0.666437 0)
(-0.0196812 -0.664549 0)
(-0.0263496 -0.661336 0)
(-0.0333467 -0.657432 0)
(-0.0405297 -0.652839 0)
(-0.0481348 -0.647375 0)
(-0.0563146 -0.640849 0)
(-0.0651634 -0.633096 0)
(-0.0747545 -0.623978 0)
(-0.0851629 -0.613377 0)
(-0.096476 -0.601183 0)
(-0.108799 -0.587275 0)
(-0.122254 -0.571506 0)
(-0.136973 -0.553685 0)
(-0.15308 -0.533555 0)
(-0.170681 -0.51077 0)
(-0.189835 -0.484849 0)
(-0.210521 -0.455115 0)
(-0.23258 -0.4206 0)
(-0.255697 -0.379929 0)
(-0.279473 -0.33122 0)
(-0.303358 -0.272525 0)
(-0.00846241 -0.665784 0)
(-0.00811811 -0.656047 0)
(-0.0192594 -0.657172 0)
(-0.023586 -0.654966 0)
(-0.0287068 -0.651102 0)
(-0.0341592 -0.646162 0)
(-0.040128 -0.640159 0)
(-0.046726 -0.63299 0)
(-0.0540068 -0.624525 0)
(-0.0620076 -0.614636 0)
(-0.0707732 -0.603198 0)
(-0.0803648 -0.590084 0)
(-0.0908624 -0.575156 0)
(-0.102363 -0.558256 0)
(-0.114973 -0.539187 0)
(-0.128796 -0.517708 0)
(-0.143918 -0.493505 0)
(-0.160387 -0.466164 0)
(-0.178173 -0.435109 0)
(-0.197117 -0.399519 0)
(-0.216898 -0.358197 0)
(-0.237087 -0.309435 0)
(-0.257074 -0.2513 0)
(-0.0215298 -0.660788 0)
(-0.00863971 -0.646928 0)
(-0.0196443 -0.65186 0)
(-0.0207899 -0.650674 0)
(-0.0237881 -0.646624 0)
(-0.0274548 -0.641154 0)
(-0.0317674 -0.634514 0)
(-0.0367481 -0.626668 0)
(-0.0423934 -0.617505 0)
(-0.0487005 -0.606894 0)
(-0.0556859 -0.594693 0)
(-0.0633884 -0.580759 0)
(-0.071868 -0.564934 0)
(-0.0812028 -0.547044 0)
(-0.0914828 -0.526889 0)
(-0.102801 -0.504233 0)
(-0.115243 -0.478789 0)
(-0.128867 -0.450197 0)
(-0.143675 -0.417977 0)
(-0.159561 -0.381452 0)
(-0.176267 -0.339624 0)
(-0.193396 -0.291001 0)
(-0.210298 -0.233741 0)
(-0.0484241 -0.652353 0)
(-0.0085236 -0.645467 0)
(-0.0204112 -0.651472 0)