/*--------------------------------*- C++ -*----------------------------------*\
  =========                 |
  \\      /  F ield         | OpenFOAM: The Open Source CFD Toolbox
   \\    /   O peration     | Website:  https://openfoam.org
    \\  /    A nd           | Version:  7
     \\/     M anipulation  |
\*---------------------------------------------------------------------------*/
FoamFile
{
    version     2.0;
    format      ascii;
    class       volScalarField;
    location    "0.75";
    object      alpha.water;
}
// * * * * * * * * * * * * * * * * * * * * * * * * * * * * * * * * * * * * * //

dimensions      [0 0 0 0 0 0 0];

internalField   nonuniform List<scalar> 
2268
(
1
1
1
1
1
1
1
1
1
1
1
1
1
1
1
1
0.999999
0.999665
0.977366
0.96139
0.961386
0.977445
0.999725
1
1
1
1
1
1
1
1
1
1
1
1
1
1
1
1
1
0.999999
0.995204
0.970997
0.961585
0.964823
0.999727
1
1
1
1
1
1
1
1
1
1
1
1
1
0.999999
0.999999
1
1
1
1
0.998585
0.988389
0.987239
0.999728
1
1
1
1
1
1
1
1
1
1
1
1
1
1
1
1
1
1
1
1
1
1
0.999727
1
1
1
1
1
1
1
1
1
1
1
1
1
1
1
1
1
1
1
1
1
0.999986
0.999806
1
1
1
1
1
1
1
1
1
1
1
1
1
1
1
1
1
1
1
1
1
0.999928
0.999667
1
1
1
1
1
1
1
1
1
1
1
1
1
1
1
1
1
1
1
1
1
0.99992
0.999667
1
1
1
1
1
1
1
1
1
1
1
1
1
1
1
1
1
1
1
1
0.999999
0.999959
0.999827
0.997763
0.997841
0.99803
0.998087
0.998096
0.996646
0.984308
0.980913
0.980885
0.980975
0.984678
0.991023
0.989326
0.980054
0.975243
0.964595
0.966246
0.964678
0.924211
0.997882
0.99803
0.998087
0.9981
0.998096
0.9981
0.998062
0.997911
0.997982
0.99814
0.998143
0.998142
0.998123
0.998038
0.995797
0.942007
0.935056
0.959857
0.975884
0.997816
0.983044
0.891222
0.929456
0.977498
0.99351
0.997965
0.998125
0.998134
0.99814
0.99814
0.998119
0.998033
0.997833
0.997245
0.952511
0.874537
0.871796
0.931109
0.994628
0.83396
0.143428
0.11872
0.302648
0.661875
0.897294
0.968712
0.990176
0.998112
0.998056
0.998002
0.997854
0.99729
0.995503
0.991181
0.965264
0.867336
0.867336
0.969207
0.471994
0.0416597
0.041419
0.0377146
0.0326216
0.0965721
0.309363
0.608033
0.822253
0.946205
0.996814
0.997095
0.989872
0.964297
0.942634
0.96785
0.959906
0.867298
0.963514
0.100727
0.0463073
0.0417904
0.0461922
0.0309612
0.0309612
0.0276254
0.0182495
0.065075
0.386759
0.826162
0.993152
0.973361
0.772107
0.709891
0.96785
0.96439
0.867686
0.959865
0.138128
0.0553115
0.216226
0.629678
0.580554
0.0977888
0.0180382
0.0178382
0.0166151
0.0199119
0.363303
0.863774
0.945252
0.70358
0.703705
0.778471
0.954076
0.901246
0.755127
0.563832
0.587572
0.689809
0.712042
0.711922
0.590251
0.089093
0.0166671
0.0154932
0.0160146
0.176431
0.681489
0.860304
0.775174
0.703613
0.703842
0.919276
0.920724
0.675247
0.691888
0.708135
0.738075
0.791409
0.855198
0.916476
0.970922
1
1
1
1
1
1
1
1
1
1
1
0.999999
0.999997
0.99997
0.999943
0.0190081
0.026925
0.0364074
0.0512331
0.0792235
0.129541
0.207297
0.311339
0.446806
0.608072
0.759523
0.887097
0.970355
1
0.999949
0.999998
0.999996
0.999994
0.999991
0.999988
0.999979
0.999943
0.99991
1.02558e-05
1.74641e-05
2.96876e-05
3.68157e-05
4.43873e-05
5.2936e-05
6.17095e-05
7.26546e-05
0.00143839
0.0201279
0.0651734
0.132916
0.223057
0.36155
0.577448
0.780769
0.871994
0.896663
0.925701
0.959421
0.96803
0.977164
0.994936
2.47166e-07
5.51248e-07
1.12788e-06
1.45434e-06
1.69596e-06
1.92367e-06
2.1587e-06
2.58764e-06
3.10112e-06
5.54935e-06
7.06554e-06
6.15107e-06
3.66127e-06
2.05824e-07
8.4363e-05
0.00249214
0.0320312
0.113192
0.225678
0.308768
0.341712
0.384394
0.528065
5.70972e-09
1.62737e-08
3.96167e-08
5.49733e-08
6.46693e-08
6.83306e-08
7.18075e-08
7.97733e-08
1.02225e-07
1.71598e-07
1.94099e-07
1.34595e-07
6.06439e-08
3.1941e-11
3.1941e-11
3.18737e-11
3.7987e-11
1.17883e-10
1.69697e-09
4.46315e-08
1.25118e-06
3.52569e-05
0.000883297
1.24991e-10
4.38613e-10
1.25201e-09
1.89273e-09
2.31365e-09
2.44878e-09
2.42831e-09
2.59482e-09
3.37767e-09
5.06376e-09
4.94699e-09
2.88611e-09
1.04611e-09
1.23382e-10
2.38763e-10
2.93325e-09
5.81169e-09
2.01933e-09
8.45576e-09
1.58894e-07
2.97863e-06
4.29772e-05
0.000532961
-2.75861e-15
7.48338e-12
3.40871e-11
5.63002e-11
7.2403e-11
8.14707e-11
8.46188e-11
9.07075e-11
1.10903e-10
1.51597e-10
1.3726e-10
7.62625e-11
2.59356e-11
4.789e-12
3.3042e-11
2.81713e-10
2.11374e-10
1.8689e-10
2.11059e-09
4.99178e-08
9.06582e-07
1.23209e-05
0.000143768
-2.59766e-11
-1.02871e-14
-5.98462e-14
-1.35624e-13
-2.18819e-13
-2.80824e-13
-3.25786e-13
-4.24651e-13
-5.91641e-13
-7.21844e-13
-3.33476e-13
-2.83377e-14
-8.18825e-30
0
-1.85375e-10
-2.83796e-10
-3.08442e-10
-8.31907e-26
3.33744e-10
1.02242e-08
2.09698e-07
3.11841e-06
3.83673e-05
-1.19041e-11
-1.22484e-11
-1.92016e-11
-2.82636e-11
-3.84402e-11
-5.2365e-11
-7.3182e-11
-9.9226e-11
-1.23926e-10
-1.3242e-10
-1.40361e-10
-1.60295e-10
-1.75061e-10
-1.93879e-10
-2.50968e-10
-2.70774e-10
-2.5505e-10
-7.99453e-11
-2.61631e-13
1.26852e-09
3.11054e-08
5.23379e-07
7.9037e-06
-2.95165e-12
-3.3815e-12
-7.17678e-12
-1.296e-11
-2.04333e-11
-2.99705e-11
-4.26849e-11
-5.93131e-11
-7.9404e-11
-9.90158e-11
-1.14793e-10
-1.24259e-10
-1.2478e-10
-1.25606e-10
-1.31223e-10
-1.26081e-10
-1.10328e-10
-7.62171e-11
-6.27363e-15
1.14769e-10
3.33285e-09
6.62152e-08
1.17682e-06
-6.43444e-13
-6.71191e-13
-1.45701e-12
-2.87705e-12
-4.89789e-12
-7.57186e-12
-1.1175e-11
-1.60654e-11
-2.24833e-11
-2.99856e-11
-3.72301e-11
-4.21306e-11
-4.33125e-11
-4.33043e-11
-4.29931e-11
-3.98718e-11
-3.38318e-11
-2.53206e-11
2.43784e-13
7.52091e-12
2.94047e-10
6.55409e-09
1.27998e-07
-1.4915e-13
-1.36348e-13
-2.72808e-13
-5.50949e-13
-9.44154e-13
-1.44533e-12
-2.10628e-12
-3.01665e-12
-4.26909e-12
-5.88581e-12
-7.64752e-12
-9.11364e-12
-9.80271e-12
-9.98812e-12
-9.81627e-12
-9.05455e-12
-7.6198e-12
-5.52772e-12
-4.02997e-29
4.90309e-12
2.62463e-11
5.1983e-10
9.7435e-09
-3.90917e-14
-3.29428e-14
-6.01289e-14
-1.15991e-13
-1.84985e-13
-2.58825e-13
-3.44673e-13
-4.5795e-13
-6.15152e-13
-8.39411e-13
-1.10352e-12
-1.36502e-12
-1.55798e-12
-1.66197e-12
-1.64905e-12
-1.52248e-12
-1.25768e-12
-7.99518e-13
3.15437e-13
2.15924e-12
3.88607e-12
3.78752e-11
7.17939e-10
-1.03896e-14
-8.43594e-15
-1.45469e-14
-2.59303e-14
-3.71942e-14
-4.56025e-14
-5.22603e-14
-5.97201e-14
-6.95572e-14
-8.96058e-14
-1.17283e-13
-1.44303e-13
-1.78011e-13
-2.06949e-13
-2.10897e-13
-1.93254e-13
-1.48844e-13
-5.87115e-14
1.71123e-13
3.0771e-13
8.494e-13
3.56479e-12
5.6909e-11
-2.50146e-15
-1.95566e-15
-3.21816e-15
-5.2855e-15
-6.82184e-15
-7.29257e-15
-7.00483e-15
-6.54607e-15
-6.00673e-15
-7.22695e-15
-9.47669e-15
-1.10344e-14
-1.49872e-14
-1.98442e-14
-2.11133e-14
-1.88688e-14
-1.22642e-14
1.98808e-15
1.86994e-14
1.77688e-14
6.98189e-14
5.42235e-13
5.06282e-12
-5.15161e-16
-3.80701e-16
-5.94556e-16
-8.98391e-16
-1.04705e-15
-9.75409e-16
-7.72212e-16
-5.79312e-16
-3.98356e-16
-4.47538e-16
-5.96167e-16
-6.35691e-16
-9.59821e-16
-1.50287e-15
-1.69295e-15
-1.4558e-15
-7.10616e-16
6.80651e-16
5.0789e-16
8.04062e-16
3.39645e-15
5.23493e-14
5.61315e-13
-8.64224e-17
-5.89176e-17
-8.66116e-17
-1.20467e-16
-1.27244e-16
-1.03398e-16
-6.64849e-17
-4.03035e-17
-2.09131e-17
-2.1702e-17
-2.97015e-17
-2.87936e-17
-4.82863e-17
-9.18392e-17
-1.10886e-16
-9.12027e-17
-3.30159e-17
1.62985e-17
2.08514e-17
8.10594e-17
4.94668e-16
4.4392e-15
5.78305e-14
-1.10739e-17
-6.75991e-18
-9.28219e-18
-1.19168e-17
-1.15226e-17
-8.26349e-18
-4.32617e-18
-2.10106e-18
-8.25398e-19
-8.30406e-19
-1.1839e-18
-1.05524e-18
-1.95688e-18
-4.6009e-18
-6.01873e-18
-4.74665e-18
-1.4009e-18
8.06689e-19
7.40729e-18
5.74663e-17
4.73564e-16
3.67315e-15
3.52943e-14
-9.98026e-19
-5.18755e-19
-6.59062e-19
-7.88035e-19
-7.10824e-19
-4.65938e-19
-2.1313e-19
-8.47565e-20
-2.36843e-20
-2.51129e-20
-3.79926e-20
-3.17243e-20
-6.50932e-20
-1.90904e-19
-2.72408e-19
-2.06259e-19
-7.9574e-21
5.95397e-19
6.17346e-18
5.48653e-17
6.20005e-16
6.40491e-15
6.8492e-14
-5.85987e-20
-2.36127e-20
-2.72281e-20
-3.07583e-20
-2.67672e-20
-1.68997e-20
-7.20032e-21
-2.48765e-21
-5.07243e-22
-6.04133e-22
-9.86629e-22
-7.8925e-22
-1.80023e-21
-6.58318e-21
-1.02203e-20
-5.94285e-21
2.76176e-20
3.99164e-19
4.53947e-18
4.61066e-17
7.52333e-16
1.08141e-14
1.28562e-13
-2.52131e-21
-7.61533e-22
-7.87658e-22
-8.36884e-22
-7.03919e-22
-4.33664e-22
-1.74563e-22
-5.43434e-23
-8.62314e-24
-1.16976e-23
-2.08788e-23
-1.63318e-23
-4.15386e-23
-1.87093e-22
-2.80954e-22
5.94882e-22
1.42141e-20
2.0216e-19
2.42031e-18
2.886e-17
7.10296e-16
1.59109e-14
2.08879e-13
-8.66674e-23
-1.94565e-23
-1.79275e-23
-1.77319e-23
-1.42712e-23
-8.55156e-24
-3.25115e-24
-9.26733e-25
-1.20982e-25
-1.84408e-25
-3.63057e-25
-2.82906e-25
-7.8271e-25
-3.82926e-24
6.49735e-24
2.95039e-22
5.24236e-21
7.63028e-20
9.10605e-19
1.30795e-17
5.61972e-16
1.70814e-14
2.37509e-13
-2.51004e-24
-4.19561e-25
-3.42677e-25
-3.12104e-25
-2.37294e-25
-1.36986e-25
-4.89425e-26
-1.28172e-26
-1.38079e-27
-2.35966e-27
-5.18102e-27
-3.93184e-27
-6.72992e-27
8.91957e-26
4.01462e-24
8.70805e-23
1.63778e-21
2.31176e-20
2.69145e-19
4.94656e-18
3.92549e-16
1.61142e-14
2.26333e-13
-6.33077e-26
-7.93056e-27
-5.71643e-27
-4.74763e-27
-3.36703e-27
-1.85004e-27
-6.16745e-28
-1.48435e-28
-1.38032e-29
-2.50059e-29
-6.00513e-29
-7.7126e-30
1.25073e-27
3.94546e-26
9.91785e-25
2.26791e-23
4.30757e-22
5.92784e-21
7.1225e-20
2.01277e-18
2.73852e-16
1.34175e-14
1.85475e-13
-1.42077e-27
-1.3454e-28
-8.52534e-29
-6.40291e-29
-4.18643e-29
-2.16093e-29
-6.66307e-30
-1.46937e-30
-1.19833e-31
-2.18037e-31
-3.8417e-31
8.02882e-30
2.8153e-28
8.27443e-27
2.14087e-25
4.95143e-24
9.34893e-23
1.37108e-21
2.09496e-20
1.13268e-18
1.94222e-16
9.94678e-15
1.33966e-13
-2.87929e-29
-2.08097e-30
-1.15467e-30
-7.78808e-31
-4.645e-31
-2.22268e-31
-6.27513e-32
-1.25944e-32
-8.76437e-34
-8.98613e-34
3.20887e-32
1.42189e-30
4.98419e-29
1.52732e-27
3.92759e-26
8.79133e-25
1.75683e-23
3.33266e-22
8.86937e-21
7.95688e-19
1.33004e-16
6.62146e-15
9.03137e-14
-5.32507e-31
-2.96682e-32
-1.43568e-32
-8.6455e-33
-4.65871e-33
-2.03975e-33
-5.21398e-34
-9.4322e-35
-4.18491e-36
1.01215e-34
5.19718e-33
2.06021e-31
7.5891e-30
2.34488e-28
5.89527e-27
1.34943e-25
3.40364e-24
1.05812e-22
4.96903e-21
5.60115e-19
8.54823e-17
4.03958e-15
5.7067e-14
-9.05892e-33
-3.93014e-34
-1.65148e-34
-8.83404e-35
-4.26347e-35
-1.68663e-35
-3.85708e-36
-6.16047e-37
2.17279e-37
1.38061e-35
6.0325e-34
2.5202e-32
9.16129e-31
2.80404e-29
7.32984e-28
2.07219e-26
8.37779e-25
4.28812e-23
2.75817e-21
3.59295e-19
5.13485e-17
2.28446e-15
3.24616e-14
-1.42617e-34
-4.86815e-36
-1.76772e-36
-8.36232e-37
-3.58596e-37
-1.26646e-37
-2.55863e-38
-3.18144e-39
2.43696e-38
1.25416e-36
6.09955e-35
2.38876e-33
7.98755e-32
2.34859e-30
7.27312e-29
3.53593e-27
2.42777e-25
1.65317e-23
1.31113e-21
2.06677e-19
2.85471e-17
1.16624e-15
1.565e-14
-2.08728e-36
-5.66828e-38
-1.76902e-38
-7.37159e-39
-2.78852e-39
-8.69336e-40
-1.5292e-40
8.27816e-42
1.6809e-39
9.95607e-38
4.4457e-36
1.48241e-34
3.99156e-33
1.02727e-31
5.21438e-30
6.09403e-28
5.9188e-26
4.88075e-24
4.95406e-22
1.04211e-19
1.41719e-17
5.06935e-16
5.91793e-15
-2.84896e-38
-6.23318e-40
-1.66206e-40
-6.07991e-41
-2.01569e-41
-5.48866e-42
-8.12551e-43
1.57321e-42
1.11562e-40
5.24495e-39
1.14831e-37
1.50406e-36
1.42392e-34
1.43858e-32
1.28759e-30
1.0572e-28
9.72967e-27
9.34068e-25
1.33062e-22
3.99118e-20
5.36162e-18
1.69409e-16
1.69527e-15
-3.63314e-40
-6.50122e-42
-1.47221e-42
-4.71382e-43
-1.36163e-43
-3.20599e-44
-3.14671e-45
7.58035e-44
2.10475e-42
1.80484e-41
1.77057e-39
2.42936e-37
2.78518e-35
2.82269e-33
2.5679e-31
2.0891e-29
1.56355e-27
1.3578e-25
2.48387e-23
8.49305e-21
1.11594e-18
3.89435e-17
4.82036e-16
-4.33261e-42
-6.45502e-44
-1.23498e-44
-3.45274e-45
-8.64279e-46
-1.74079e-46
2.68603e-48
2.54121e-46
8.19362e-45
1.31414e-42
2.03571e-40
2.78049e-38
3.38052e-36
3.66966e-34
3.57156e-32
3.11292e-30
2.46943e-28
2.15901e-26
3.61655e-24
1.03721e-21
1.50724e-19
8.12327e-18
2.00261e-16
-4.83496e-44
-6.11748e-46
-9.86082e-47
-2.40268e-47
-5.18327e-48
-8.82279e-49
2.78331e-50
2.49263e-48
5.27019e-46
9.92555e-44
1.65999e-41
2.46844e-39
3.26854e-37
3.86052e-35
4.08835e-33
3.89965e-31
3.43068e-29
3.23307e-27
4.48842e-25
9.44214e-23
1.80152e-20
2.10854e-18
1.17367e-16
-5.05901e-46
-5.54064e-48
-7.53596e-49
-1.59791e-49
-2.95222e-50
-4.20082e-51
4.18971e-52
1.12577e-49
2.62457e-47
5.41874e-45
9.94569e-43
1.62349e-40
2.35283e-38
3.02475e-36
3.4659e-34
3.58937e-32
3.42454e-30
3.19763e-28
3.76218e-26
7.82697e-24
2.2318e-21
4.93117e-19
4.39863e-17
-4.98908e-48
-4.79509e-50
-5.54392e-51
-1.02237e-51
-1.60361e-52
-1.88688e-53
7.3856e-54
2.16468e-51
5.58584e-49
1.28648e-46
2.63923e-44
4.80324e-42
7.71142e-40
1.08661e-37
1.34374e-35
1.47884e-33
1.50762e-31
1.54801e-29
1.99616e-27
4.74943e-25
1.948e-22
5.9682e-20
6.07842e-18
-4.68659e-50
-3.95722e-52
-3.94981e-53
-6.47562e-54
-8.32969e-55
-8.00633e-56
6.13238e-56
1.99494e-53
5.87675e-51
1.55607e-48
3.66525e-46
7.60006e-44
1.37084e-41
2.11985e-39
2.7523e-37
2.93565e-35
2.66689e-33
2.57719e-31
4.30457e-29
1.64215e-26
1.10092e-23
5.53649e-21
7.72388e-19
-4.27081e-52
-3.13515e-54
-2.74408e-55
-4.26257e-56
-4.13804e-57
-3.12966e-58
5.48416e-59
2.2131e-56
8.49944e-54
2.9936e-51
9.4161e-49
2.6108e-46
6.39002e-44
1.38627e-41
2.19376e-39
9.92088e-38
2.68139e-37
3.17307e-35
8.19083e-33
3.36048e-28
4.22221e-25
2.70401e-22
5.26468e-20
-3.87035e-54
-2.45034e-56
-1.87714e-57
-3.0111e-58
-1.96156e-59
-1.16495e-60
4.49689e-63
6.2344e-61
6.29523e-59
6.60533e-57
3.67322e-57
9.46204e-55
7.55415e-52
5.52975e-49
4.09573e-46
2.58298e-43
1.92959e-40
1.12687e-37
5.10442e-34
5.62932e-29
1.03798e-26
7.84561e-24
2.35759e-21
-3.59297e-56
-1.90972e-58
-1.27179e-59
-2.23543e-60
-8.85655e-62
-4.11946e-63
9.29131e-66
7.13724e-64
2.49738e-62
3.60316e-61
6.10512e-61
1.5981e-59
1.93523e-56
2.82549e-53
2.98916e-50
4.65462e-47
5.30024e-44
5.30045e-41
2.69283e-37
1.26941e-31
4.82207e-29
5.66136e-27
1.73452e-24
-3.52382e-58
-1.48954e-60
-8.54042e-62
-1.65362e-62
-3.80141e-64
-1.37371e-65
2.15186e-68
1.161e-66
2.86658e-65
1.40176e-64
1.30509e-64
6.53501e-68
4.01921e-67
1.09271e-63
5.53019e-60
1.37014e-56
6.53933e-53
1.5236e-49
9.89486e-41
2.38802e-34
1.95067e-31
1.13749e-29
4.92002e-28
-3.71888e-60
-1.1556e-62
-5.66945e-64
-1.16917e-64
-1.55824e-66
-4.34073e-68
3.69231e-71
8.63142e-69
4.63611e-67
4.26677e-68
1.03991e-68
5.9231e-73
4.93695e-92
2.9424e-83
2.18302e-86
3.52142e-74
3.09488e-77
1.45702e-69
-7.44123e-65
1.82436e-46
4.12002e-39
7.38891e-35
4.96924e-33
0.999856
0.999794
0.999774
0.999774
0.99986
0.9998
0.999774
0.999694
0.999548
0.999748
0.99972
0.999337
0.815981
0.998568
0.998933
0.99047
0.238374
0.830164
0.993768
0.952154
0.00403701
0.241382
0.75843
0.914596
0.00111161
0.00899833
0.27109
0.610149
0.000347316
0.00293122
0.0376737
0.301085
6.99801e-05
0.000532515
0.00263669
0.0467785
1.2788e-05
7.20334e-05
0.000300648
0.00148172
1.38584e-06
6.81463e-06
3.89365e-05
0.000144156
1.1173e-07
5.87424e-07
3.12564e-06
1.28663e-05
9.56165e-09
5.17479e-08
2.61161e-07
1.25278e-06
7.7769e-10
4.45775e-09
2.34788e-08
1.18475e-07
6.0086e-11
3.40948e-10
1.93411e-09
1.03568e-08
4.97695e-12
2.56601e-11
1.46471e-10
8.23663e-10
4.83136e-13
2.45701e-12
1.12395e-11
6.40345e-11
8.97682e-14
3.91738e-13
1.5451e-12
6.91188e-12
1.75438e-13
3.16234e-13
5.63199e-13
1.50803e-12
3.30302e-13
5.76817e-13
1.01146e-12
1.61064e-12
5.47259e-13
9.66372e-13
1.72291e-12
2.59463e-12
6.40812e-13
1.17832e-12
2.23412e-12
3.41796e-12
6.19972e-13
1.16445e-12
2.22317e-12
3.59262e-12
5.21724e-13
1.02883e-12
1.97063e-12
4.54606e-12
3.8624e-13
8.06565e-13
1.73174e-12
3.98375e-12
2.73123e-13
6.1458e-13
1.52876e-12
3.26009e-12
1.85687e-13
4.49691e-13
1.20352e-12
2.45814e-12
1.12491e-13
2.82085e-13
7.27041e-13
1.42221e-12
5.53735e-14
1.33504e-13
3.08772e-13
5.19771e-13
2.01658e-14
4.44922e-14
8.96988e-14
1.1607e-13
5.28808e-15
1.08731e-14
2.24827e-14
4.13051e-14
1.78736e-15
4.60345e-15
1.00767e-14
2.51879e-14
1.26312e-15
5.01808e-15
1.20415e-14
1.80034e-14
1.10965e-15
6.30201e-15
1.51978e-14
1.62507e-14
5.75079e-16
4.1218e-15
1.22298e-14
1.06367e-14
8.87711e-17
8.53051e-16
3.30224e-15
2.30234e-15
1.21037e-17
1.07587e-16
3.67251e-16
1.41832e-16
1.00445e-18
1.13849e-17
3.79008e-17
7.91264e-18
5.04592e-20
5.24133e-19
1.52913e-18
1.61478e-19
5.13789e-23
1.63194e-21
8.25342e-21
4.31098e-22
1.56036e-26
1.77151e-24
1.69862e-23
6.73941e-25
6.5812e-33
8.43725e-29
7.86125e-27
1.70608e-28
0.864833
0.870235
0.86772
0.762404
0.293602
0.264272
0.56719
0.271775
0.0160943
0.0153927
0.0154077
0.148554
0.58947
0.734321
0.779002
0.755128
0.768328
0.918714
0.920752
0.999333
0.824609
0.346838
0.0462435
0.000639013
0.00146396
0.143508
0.278457
0.033322
0.0153859
0.0153787
0.343077
0.740897
0.601475
0.564297
0.625917
0.866687
0.920308
0.920724
0.837133
0.142611
7.44963e-05
9.18613e-05
0.000130228
0.00084817
0.00146444
0.0995406
0.0322754
0.0142708
0.0270373
0.563091
0.758016
0.758016
0.334462
0.113307
0.382864
0.872616
0.920308
0.58236
7.37352e-05
7.44994e-05
7.43092e-05
0.000470191
0.00167157
0.00660502
0.00531536
0.00644457
0.010618
0.112475
0.76367
0.762132
0.700618
0.149599
0.0745445
0.0745445
0.343097
0.917724
0.506872
7.77301e-05
6.25877e-05
7.3454e-05
0.000328871
0.00310876
0.00575444
0.00195017
0.00274969
0.0055858
0.220436
0.764531
0.76487
0.288925
0.0751427
0.074327
0.0753739
0.076677
0.535536
0.59238
0.0344675
5.19765e-05
5.4576e-05
0.000471114
0.00135511
0.00102825
0.000596273
0.000836275
0.021866
0.544931
0.76548
0.748352
0.104106
0.0751095
0.0753739
0.0766817
0.0770222
0.0787417
0.624824
0.24446
5.00165e-05
4.45963e-05
7.04031e-05
9.71264e-05
0.000128834
0.000140893
0.000196109
0.0574389
0.762554
0.764258
0.620469
0.0970925
0.0771967
0.21698
0.198724
0.0823787
0.0809178
0.548255
0.483652
0.13625
4.24549e-05
3.71278e-05
3.88484e-05
5.02133e-05
3.02057e-05
2.24063e-05
0.0661114
0.762116
0.721499
0.319431
0.210682
0.212288
0.256216
0.254646
0.219035
0.0814563
0.338667
0.518524
0.489741
0.043755
3.51058e-05
3.07596e-05
2.7758e-05
2.24063e-05
2.14338e-05
0.207901
0.762112
0.223292
0.105332
0.263361
0.263947
0.260866
0.252807
0.237763
0.182791
0.0706168
0.441593
0.508486
0.456866
0.0469634
3.04047e-05
2.5053e-05
2.14367e-05
2.14367e-05
0.684525
0.710307
0.0713293
0.055771
0.263789
0.228663
0.0595015
0.0913414
0.228807
0.228407
0.00076563
0.107499
0.46174
0.495253
0.479803
0.155614
3.03933e-05
0.00512674
0.329622
0.740953
0.323488
0.0906919
0.0467582
0.0761116
0.0125193
0.00462857
0.00968881
0.139015
0.225252
8.26398e-05
0.000577525
0.0869845
0.406581
0.488545
0.492089
0.45193
0.516019
0.527381
0.529597
0.0563282
0.0382198
0.0276145
3.5389e-05
0.000159522
0.000854538
0.0545991
0.156401
0.186055
8.01565e-06
5.58918e-05
0.000336614
0.0396421
0.244671
0.398865
0.438241
0.38361
0.3197
0.0452364
0.000949519
0.00841876
0.0140034
5.0303e-06
1.39893e-05
6.10525e-05
0.0570663
0.201433
0.199216
7.48191e-07
5.60445e-06
3.51515e-05
0.000129885
0.00352136
0.0367994
0.0570224
0.0327498
0.0057497
0.000197095
0.000812114
0.00976339
0.0113328
2.54685e-06
2.77725e-06
3.11602e-07
0.00288062
0.208161
0.207916
7.5808e-08
5.32823e-07
3.13896e-06
1.13008e-05
3.09922e-05
5.88504e-05
3.54944e-05
1.33879e-05
5.32869e-05
0.000161182
0.00171019
0.00392721
0.000996056
2.43776e-06
2.54685e-06
2.80342e-06
2.90017e-06
0.181709
0.208166
7.26307e-09
5.54686e-08
3.16545e-07
1.07376e-06
2.90712e-06
4.54018e-06
1.90745e-06
6.97069e-06
4.49016e-05
0.00047418
0.000725533
3.95665e-05
4.70456e-07
2.37174e-06
2.43766e-06
2.65748e-06
3.06898e-06
0.0341518
0.207817
6.43841e-10
5.27634e-09
3.08647e-08
1.00603e-07
2.64435e-07
5.98027e-07
4.19775e-07
6.9395e-06
0.000113555
0.000243167
3.01204e-06
7.63219e-08
1.5727e-07
5.54518e-06
3.29361e-05
3.06252e-06
4.59769e-06
0.00130192
0.206225
5.40839e-11
4.80782e-10
2.82931e-09
9.35498e-09
2.10263e-08
1.62376e-07
1.80897e-07
8.4242e-06
9.05669e-05
2.73128e-06
8.00933e-08
1.16522e-08
3.3398e-09
1.0089e-05
7.2267e-05
1.18689e-05
0.000100887
7.791e-05
0.205056
7.54764e-12
5.2046e-11
2.17333e-10
9.25927e-10
2.26008e-09
8.96965e-08
1.26462e-07
8.98711e-06
1.12629e-05
1.83259e-07
1.42658e-08
6.94861e-09
3.26024e-09
2.01013e-06
7.30798e-05
2.36662e-05
0.000171029
5.25668e-05
0.159323
4.25154e-12
9.80007e-12
3.37848e-11
1.1503e-10
3.73938e-10
2.01724e-07
4.12048e-07
2.17436e-06
1.23978e-07
4.82686e-08
1.25001e-08
1.15796e-08
3.16671e-09
3.26023e-09
6.6614e-05
5.06738e-05
8.3036e-05
4.03403e-05
0.0191154
8.25207e-12
1.53517e-11
1.96099e-11
3.34881e-11
1.16837e-10
2.67775e-07
2.93125e-07
2.17138e-08
2.17627e-08
2.80016e-08
2.63561e-08
1.94529e-08
2.36152e-09
2.86886e-09
4.56256e-05
5.68663e-05
5.0168e-06
1.28877e-05
4.31318e-05
1.74994e-11
2.57898e-11
2.96877e-11
3.16145e-11
3.95598e-11
8.19846e-08
2.32487e-08
3.79956e-09
4.35257e-09
7.19053e-09
2.20883e-08
1.59559e-08
1.66486e-09
2.20039e-09
4.05387e-05
5.68663e-05
4.62307e-06
7.09787e-05
0.000199662
4.2831e-11
4.53119e-11
4.13051e-11
3.98104e-11
1.12538e-09
8.94912e-10
1.1446e-09
1.40249e-09
1.42373e-09
1.98903e-09
8.09718e-09
4.77664e-09
1.50879e-09
5.33018e-06
5.07638e-05
3.5645e-05
2.4737e-06
0.000477735
0.0197507
5.7975e-11
6.33694e-11
5.39797e-11
4.79138e-11
1.15089e-09
5.50239e-10
7.81656e-10
8.2243e-10
8.84871e-10
1.45276e-09
2.06521e-09
1.46446e-09
1.47972e-09
1.7598e-05
5.07638e-05
1.11514e-05
2.23004e-06
0.00178039
0.0331841
5.2879e-11
9.34877e-11
7.8416e-11
1.03481e-10
5.02415e-10
4.98493e-10
6.04475e-10
7.26123e-10
8.02123e-10
1.09076e-09
1.38821e-09
1.42757e-09
1.46446e-09
2.23042e-05
5.07638e-05
1.40015e-05
2.0221e-06
0.00325595
0.033311
5.01718e-11
9.5472e-11
9.21462e-11
4.43997e-10
5.25325e-10
4.98493e-10
4.98493e-10
6.0581e-10
6.94572e-10
1.0727e-09
1.50428e-09
1.46446e-09
1.47973e-09
1.94308e-05
5.06991e-05
5.25318e-06
1.93295e-06
0.00386315
0.0329215
2.95519e-11
9.5472e-11
9.13064e-11
4.37764e-10
1.35103e-09
1.93428e-09
1.00449e-09
6.32582e-10
6.96554e-10
1.30612e-09
1.67215e-09
1.42017e-09
1.6622e-09
2.19127e-05
4.81674e-06
1.58506e-06
1.83627e-06
0.00288315
0.0121498
9.3766e-12
8.49614e-11
8.85864e-11
1.27251e-10
4.4574e-09
8.53617e-09
6.87876e-09
1.98555e-09
7.06885e-10
1.17584e-09
1.57242e-09
1.31952e-09
1.39211e-09
1.14121e-05
6.71064e-06
1.30726e-06
1.5784e-06
0.000349614
6.31546e-06
2.85847e-12
4.87114e-11
8.51514e-11
8.50838e-11
5.9666e-09
8.71445e-09
8.71392e-09
4.16721e-09
7.65861e-10
9.0542e-10
9.67905e-10
9.99947e-10
3.35922e-06
4.09751e-06
1.77064e-06
1.26109e-06
1.3035e-06
2.47702e-06
4.93198e-06
9.56663e-13
1.756e-11
6.96976e-11
1.02773e-10
3.56087e-09
7.14547e-09
7.94472e-09
5.9634e-09
9.61533e-09
5.99612e-09
1.19903e-09
1.04375e-09
1.54034e-06
1.88199e-06
8.99446e-07
7.94725e-07
1.11068e-06
3.85848e-06
1.07986e-05
7.49911e-13
5.96742e-12
6.85177e-11
4.2634e-10
9.88454e-10
3.61938e-09
5.20424e-09
1.68266e-08
1.79499e-08
1.76401e-08
3.98423e-09
2.85003e-08
1.10709e-08
1.89542e-07
2.14885e-07
2.99321e-07
0.00012064
0.000108602
1.63665e-05
8.8069e-13
4.63592e-12
7.91038e-11
5.5677e-10
3.03307e-10
9.10767e-09
8.10842e-09
1.55096e-08
1.79395e-08
1.56041e-08
4.81647e-09
5.78969e-09
6.09455e-09
2.87884e-07
2.76989e-07
2.19862e-05
0.000356584
0.000320798
1.15694e-05
1.41201e-12
6.18424e-12
4.36343e-11
4.75242e-10
3.03631e-10
1.16226e-08
1.11729e-08
6.12533e-09
5.96218e-09
4.21465e-09
3.99946e-09
4.04423e-09
1.63035e-07
1.73139e-07
1.93182e-07
0.00029736
0.000357836
0.000216088
2.98049e-06
3.00298e-12
1.62876e-11
4.67037e-11
2.18211e-10
1.48019e-10
5.82729e-09
3.51786e-08
4.26444e-09
4.02383e-09
3.99947e-09
4.01654e-09
6.46142e-08
1.24148e-07
1.34481e-07
9.41877e-05
0.000373414
0.00036579
3.7371e-05
2.62792e-07
4.19038e-12
4.10012e-11
1.06883e-10
1.8982e-10
1.48019e-10
2.21785e-10
4.27944e-10
1.4192e-07
2.62716e-06
5.99158e-06
5.92684e-06
2.11538e-06
1.34481e-07
2.2155e-07
0.000344909
0.000373414
0.000259394
3.15943e-06
4.55726e-08
2.97692e-12
4.29413e-11
1.79523e-10
2.99339e-10
1.62972e-10
1.62256e-10
1.62937e-10
3.73935e-06
6.52461e-06
6.53424e-06
6.53117e-06
1.18421e-06
2.25158e-07
0.000259163
0.000369377
0.000373414
5.64405e-05
4.22816e-08
2.90742e-09
6.424e-13
2.43184e-11
1.80502e-10
3.43196e-10
2.37266e-10
1.62023e-10
1.61978e-10
9.74782e-07
6.11479e-06
6.5296e-06
2.42295e-06
9.42952e-08
4.8384e-05
0.000353268
0.000363593
9.26751e-05
4.76652e-09
3.01315e-10
1.40645e-10
4.24124e-14
4.33273e-12
8.59936e-11
3.2508e-10
4.13846e-10
1.88928e-10
1.62799e-10
1.62799e-10
7.29368e-07
1.01498e-06
1.34546e-07
9.59663e-08
4.99582e-05
5.00249e-05
-1.85508e-10
1.08482e-10
-1.44455e-11
1.20102e-10
1.70446e-10
3.2905e-15
3.3832e-13
1.53735e-11
1.97748e-10
4.13962e-10
3.81394e-10
1.41519e-09
1.42896e-09
2.15234e-09
3.07953e-09
3.66651e-08
3.43031e-07
7.22882e-10
1.25633e-10
8.14812e-11
1.03778e-10
1.11044e-10
1.18536e-10
1.70148e-10
7.86069e-17
1.64718e-14
1.10397e-12
4.23439e-11
2.70391e-10
3.75389e-10
4.23505e-09
4.40197e-09
2.04804e-09
2.56635e-09
3.76423e-08
3.49039e-08
7.29624e-09
3.90881e-10
6.38558e-11
1.04315e-10
1.28808e-10
1.82447e-10
1.70828e-10
2.57851e-19
1.95077e-16
3.06515e-14
2.66576e-12
6.92827e-11
2.02761e-10
3.05925e-09
3.86924e-09
2.02715e-09
2.98003e-09
4.51665e-09
9.50957e-10
6.8466e-12
5.90312e-12
3.75046e-11
1.04436e-10
2.78089e-11
2.8594e-11
3.84238e-06
4.56752e-22
3.73525e-19
1.87145e-16
3.85462e-14
3.81359e-12
3.5402e-11
4.65657e-10
8.06468e-10
6.8401e-10
5.13564e-10
2.36999e-11
6.86814e-12
4.79567e-12
1.2617e-12
1.56874e-12
5.31e-12
0
2.13257e-09
6.12637e-06
)
;

boundaryField
{
    leftWall
    {
        type            zeroGradient;
    }
    rightWall
    {
        type            zeroGradient;
    }
    lowerWall
    {
        type            zeroGradient;
    }
    atmosphere
    {
        type            inletOutlet;
        inletValue      uniform 0;
        value           nonuniform List<scalar> 
46
(
-3.71888e-60
-1.1556e-62
-5.66945e-64
-1.16917e-64
-1.55824e-66
-4.34073e-68
3.69231e-71
8.63142e-69
4.63611e-67
4.26677e-68
0
0
0
0
0
0
0
0
0
0
0
0
0
0
0
0
0
0
0
0
3.85462e-14
3.81359e-12
3.5402e-11
4.65657e-10
8.06468e-10
6.8401e-10
5.13564e-10
2.36999e-11
6.86814e-12
4.79567e-12
0
0
0
0
0
6.12637e-06
)
;
    }
    defaultFaces
    {
        type            empty;
    }
}


// ************************************************************************* //
