/*--------------------------------*- C++ -*----------------------------------*\
  =========                 |
  \\      /  F ield         | OpenFOAM: The Open Source CFD Toolbox
   \\    /   O peration     | Website:  https://openfoam.org
    \\  /    A nd           | Version:  7
     \\/     M anipulation  |
\*---------------------------------------------------------------------------*/
FoamFile
{
    version     2.0;
    format      ascii;
    class       surfaceScalarField;
    location    "0.75";
    object      alphaPhi0.water;
}
// * * * * * * * * * * * * * * * * * * * * * * * * * * * * * * * * * * * * * //

dimensions      [0 3 -1 0 0 0 0];

internalField   nonuniform List<scalar> 
4432
(
-5.07104e-06
5.07104e-06
-8.95154e-06
3.8805e-06
-1.05526e-05
1.60102e-06
-1.11176e-05
5.65081e-07
-1.14923e-05
3.7467e-07
-1.19631e-05
4.70816e-07
-1.25718e-05
6.08656e-07
-1.32708e-05
6.9901e-07
-1.3993e-05
7.22204e-07
-1.46787e-05
6.85683e-07
-1.52821e-05
6.03392e-07
-1.57754e-05
4.93298e-07
-1.61478e-05
3.72427e-07
-1.63928e-05
2.4497e-07
-1.64973e-05
1.04566e-07
-1.64483e-05
-4.90104e-08
-1.62306e-05
-2.17703e-07
-1.57569e-05
-4.20887e-07
-1.44918e-05
-7.22886e-07
-1.31856e-05
-1.32713e-06
-1.05184e-05
-2.69319e-06
-5.98736e-06
-4.72631e-06
-5.98821e-06
-5.15968e-06
1.02307e-05
-7.66205e-06
6.38288e-06
-8.77505e-06
2.71402e-06
-9.55842e-06
1.34845e-06
-1.03292e-05
1.14542e-06
-1.11726e-05
1.31422e-06
-1.20847e-05
1.52083e-06
-1.30165e-05
1.6308e-06
-1.3914e-05
1.61963e-06
-1.47343e-05
1.50599e-06
-1.54443e-05
1.31338e-06
-1.60212e-05
1.07019e-06
-1.64503e-05
8.01572e-07
-1.67126e-05
5.0724e-07
-1.67781e-05
1.7011e-07
-1.66096e-05
-2.17516e-07
-1.61537e-05
-6.73606e-07
-1.53023e-05
-1.27232e-06
-1.36741e-05
-2.15664e-06
-1.12642e-05
-3.5199e-06
-8.21866e-06
-5.76762e-06
-4.5891e-06
-8.49826e-06
-1.05782e-05
-4.16982e-06
1.44005e-05
-6.0469e-06
8.25996e-06
-7.29372e-06
3.96084e-06
-8.39084e-06
2.44557e-06
-9.46048e-06
2.21506e-06
-1.05428e-05
2.39653e-06
-1.16304e-05
2.60841e-06
-1.26873e-05
2.68774e-06
-1.36758e-05
2.60812e-06
-1.4567e-05
2.39719e-06
-1.53346e-05
2.08096e-06
-1.59573e-05
1.69293e-06
-1.64185e-05
1.26273e-06
-1.66933e-05
7.82055e-07
-1.67414e-05
2.18193e-07
-1.6514e-05
-4.44905e-07
-1.59493e-05
-1.23834e-06
-1.49342e-05
-2.28743e-06
-1.3295e-05
-3.79579e-06
-1.07602e-05
-6.01746e-06
-7.4892e-06
-9.19199e-06
-3.57231e-06
-1.28846e-05
-1.41513e-05
-3.1351e-06
1.75356e-05
-4.72751e-06
9.85237e-06
-6.11872e-06
5.35205e-06
-7.48094e-06
3.80778e-06
-8.8083e-06
3.54242e-06
-1.00962e-05
3.68444e-06
-1.1331e-05
3.84322e-06
-1.24867e-05
3.84346e-06
-1.35407e-05
3.66209e-06
-1.44773e-05
3.33379e-06
-1.52763e-05
2.87994e-06
-1.59192e-05
2.33583e-06
-1.63908e-05
1.73436e-06
-1.66647e-05
1.05594e-06
-1.66951e-05
2.48632e-07
-1.64318e-05
-7.08214e-07
-1.58203e-05
-1.84991e-06
-1.4763e-05
-3.34467e-06
-1.31032e-05
-5.45565e-06
-1.06669e-05
-8.45379e-06
-7.30351e-06
-1.25553e-05
-3.08396e-06
-1.71042e-05
-1.72364e-05
-2.08976e-06
1.96254e-05
-3.56668e-06
1.13293e-05
-5.14335e-06
6.92872e-06
-6.76539e-06
5.42983e-06
-8.33024e-06
5.10726e-06
-9.8013e-06
5.1555e-06
-1.1164e-05
5.20591e-06
-1.24017e-05
5.08122e-06
-1.35061e-05
4.76641e-06
-1.44737e-05
4.30139e-06
-1.52889e-05
3.69512e-06
-1.59368e-05
2.98373e-06
-1.64068e-05
2.20441e-06
-1.66737e-05
1.32283e-06
-1.6689e-05
2.63936e-07
-1.64069e-05
-9.90357e-07
-1.57913e-05
-2.46547e-06
-1.47714e-05
-4.3646e-06
-1.32147e-05
-7.01236e-06
-1.0936e-05
-1.07325e-05
-7.66174e-06
-1.58296e-05
-3.22251e-06
-2.15424e-05
-2.04561e-05
-1.05769e-06
2.06831e-05
-2.53701e-06
1.28086e-05
-4.35569e-06
8.74741e-06
-6.24251e-06
7.31664e-06
-8.02825e-06
6.89301e-06
-9.66157e-06
6.78881e-06
-1.11332e-05
6.67752e-06
-1.24369e-05
6.38493e-06
-1.3578e-05
5.9075e-06
-1.45642e-05
5.28761e-06
-1.53823e-05
4.51326e-06
-1.6022e-05
3.62335e-06
-1.64803e-05
2.66271e-06
-1.67352e-05
1.57777e-06
-1.67363e-05
2.65009e-07
-1.64462e-05
-1.28047e-06
-1.58561e-05
-3.05549e-06
-1.49296e-05
-5.29116e-06
-1.35681e-05
-8.37382e-06
-1.16067e-05
-1.26939e-05
-8.71486e-06
-1.87214e-05
-4.27479e-06
-2.59801e-05
-2.47312e-05
-1.31408e-07
2.08145e-05
-1.6623e-06
1.43395e-05
-3.76442e-06
1.08495e-05
-5.91918e-06
9.4714e-06
-7.90941e-06
8.88324e-06
-9.68319e-06
8.56259e-06
-1.12432e-05
8.2375e-06
-1.25955e-05
7.73728e-06
-1.3759e-05
7.071e-06
-1.47508e-05
6.27936e-06
-1.55574e-05
5.31991e-06
-1.61746e-05
4.2405e-06
-1.66106e-05
3.09869e-06
-1.68477e-05
1.8149e-06
-1.68324e-05
2.49719e-07
-1.65385e-05
-1.57438e-06
-1.59908e-05
-3.60317e-06
-1.51916e-05
-6.09032e-06
-1.40848e-05
-9.48062e-06
-1.25754e-05
-1.42034e-05
-1.04734e-05
-2.08233e-05
-6.8331e-06
-2.96189e-05
-3.15646e-05
6.39317e-07
2.01752e-05
-9.63534e-07
1.59423e-05
-3.37275e-06
1.32587e-05
-5.7949e-06
1.18936e-05
-7.96979e-06
1.10581e-05
-9.85737e-06
1.04502e-05
-1.14818e-05
9.86188e-06
-1.2864e-05
9.1195e-06
-1.40339e-05
8.24089e-06
-1.50181e-05
7.26355e-06
-1.57968e-05
6.09864e-06
-1.63755e-05
4.81925e-06
-1.6778e-05
3.5011e-06
-1.69907e-05
2.02761e-06
-1.69539e-05
2.12927e-07
-1.66538e-05
-1.87448e-06
-1.61531e-05
-4.10381e-06
-1.54927e-05
-6.75076e-06
-1.46577e-05
-1.03156e-05
-1.36613e-05
-1.51999e-05
-1.27013e-05
-2.17833e-05
-1.12266e-05
-3.10934e-05
-4.27961e-05
-3.22502e-05
3.21998e-05
-7.70231e-05
4.4711e-05
-0.000100235
2.31318e-05
-0.000109971
9.69106e-06
-0.000113569
3.59622e-06
-0.000114843
1.7815e-06
-0.000115501
2.17044e-06
-0.000118096
2.56382e-06
-0.000120057
1.94067e-06
-0.000119141
-9.6928e-07
-0.000113666
-6.17936e-06
-0.000100827
-1.34086e-05
-8.0599e-05
-2.01025e-05
-5.81293e-05
-2.22962e-05
-3.82335e-05
-2.0156e-05
-2.03125e-05
-1.71019e-05
-4.84763e-06
-1.48682e-05
6.19251e-06
-1.14727e-05
5.94048e-06
-5.19395e-05
8.40919e-05
-9.04035e-05
8.30988e-05
-0.000105562
3.82453e-05
-0.000110699
1.48172e-05
-0.000112675
5.57739e-06
-0.000113816
2.9319e-06
-0.000115002
3.37349e-06
-0.000115856
3.45442e-06
-0.000115972
2.06148e-06
-0.000114595
-2.34413e-06
-0.000109462
-1.13094e-05
-9.80854e-05
-2.47825e-05
-8.07384e-05
-3.74456e-05
-6.13897e-05
-4.16377e-05
-4.32133e-05
-3.78917e-05
-2.70761e-05
-3.05407e-05
-1.33757e-05
-2.78889e-05
-2.41446e-06
-2.1238e-05
3.85815e-06
-4.69192e-05
0.000130965
-7.03991e-05
0.000101173
-8.7956e-05
2.97068e-05
-0.000101322
1.35333e-05
-0.000106816
5.80825e-06
-0.000108782
3.27386e-06
-0.000109844
4.16031e-06
-0.000110309
3.92001e-06
-0.000109804
1.55868e-06
-0.00010808
-4.06546e-06
-0.000103412
-1.59741e-05
-9.35017e-05
-3.46895e-05
-7.82077e-05
-5.2733e-05
-6.11513e-05
-5.86791e-05
-4.56487e-05
-5.33546e-05
-3.01542e-05
-4.49642e-05
-1.78214e-05
-4.00905e-05
-7.73211e-06
-3.09108e-05
-3.8594e-06
-2.89823e-05
0.000158215
-1.61087e-05
6.87157e-05
-1.31627e-05
9.25922e-06
-1.62657e-05
5.85795e-06
-4.44402e-05
3.02395e-06
-8.08528e-05
1.20668e-06
-9.80556e-05
3.57684e-06
-0.0001035
3.58332e-06
-0.000104258
7.10323e-07
-0.000101965
-6.53352e-06
-9.73384e-05
-2.05964e-05
-8.84432e-05
-4.35808e-05
-7.46261e-05
-6.65391e-05
-5.9275e-05
-7.39932e-05
-4.57309e-05
-6.67162e-05
-3.42909e-05
-5.58576e-05
-2.16231e-05
-5.23733e-05
-1.00562e-05
-4.24987e-05
-1.39333e-05
-6.40513e-06
0.00016244
-1.52967e-06
1.92516e-05
-1.15392e-06
4.98506e-06
-1.89121e-06
2.36536e-06
-3.54425e-06
1.9035e-06
-4.69507e-06
1.05319e-06
-1.49699e-05
1.42291e-06
-4.12665e-05
7.15793e-07
-6.91766e-05
4.22976e-07
-8.52473e-05
-3.38468e-06
-8.96374e-05
-2.09167e-05
-8.24451e-05
-5.07826e-05
-6.99e-05
-7.90441e-05
-5.5268e-05
-8.72258e-05
-4.22141e-05
-7.41518e-05
-3.3838e-05
-5.80455e-05
-2.41425e-05
-6.02694e-05
-1.15357e-05
-5.67526e-05
-2.54843e-05
1.4687e-05
0.000145557
4.98951e-06
2.18059e-05
2.14938e-06
5.35243e-06
2.48165e-06
5.78184e-06
3.6706e-06
1.09154e-05
1.08384e-06
2.45533e-06
-6.4192e-07
1.96406e-06
-1.9058e-06
9.69751e-07
-3.09848e-06
7.75954e-07
-1.49795e-05
-5.02018e-07
-5.13421e-05
-6.81961e-06
-7.2503e-05
-4.33018e-05
-6.33068e-05
-8.84064e-05
-4.71669e-05
-9.9202e-05
-3.0967e-05
-7.42017e-05
-3.0171e-05
-5.36276e-05
-2.39007e-05
-6.47403e-05
-1.20065e-05
-6.75194e-05
-3.75411e-05
2.30934e-05
0.000116315
3.88047e-06
4.14038e-05
7.54818e-06
1.80608e-05
3.27351e-05
2.75726e-05
4.68654e-05
2.19227e-05
3.47e-05
2.48164e-05
5.84862e-06
2.90688e-05
6.94444e-07
5.36925e-06
-1.13925e-06
1.59336e-06
-3.44702e-06
5.14074e-07
-9.57483e-06
-2.0237e-06
-4.54446e-05
-2.66415e-05
-5.21247e-05
-8.72291e-05
-3.87799e-05
-0.000108019
-2.70964e-05
-7.69688e-05
-2.4105e-05
-5.93875e-05
-2.07833e-05
-6.08842e-05
-1.08241e-05
-7.65318e-05
-5.16039e-05
2.32102e-05
6.17024e-05
3.50845e-05
4.44699e-05
4.89947e-05
2.94164e-05
5.49195e-05
3.7687e-05
5.78147e-05
2.63262e-05
5.99875e-05
2.99895e-05
2.97912e-05
5.22209e-05
3.65381e-06
2.68845e-05
-2.97837e-07
4.2666e-06
-2.70222e-06
1.5423e-06
-4.69929e-06
-1.30735e-06
-2.25485e-05
-1.99923e-05
-3.72064e-05
-8.09887e-05
-3.48295e-05
-0.0001127
-2.38764e-05
-8.71602e-05
-1.94428e-05
-6.65533e-05
-1.80548e-05
-6.50945e-05
-1.0744e-05
-8.41343e-05
-6.23331e-05
1.62822e-06
3.16524e-06
-6.13844e-07
3.80132e-06
-4.70823e-06
4.15637e-06
-9.28237e-06
4.57789e-06
-1.4143e-05
5.45098e-06
-1.90567e-05
6.56029e-06
-2.39425e-05
7.62661e-06
-2.8383e-05
8.48424e-06
-3.09185e-05
1.0437e-05
-3.2927e-05
9.27207e-06
-3.44212e-05
7.59281e-06
-3.54638e-05
5.86185e-06
-3.61705e-05
4.20787e-06
-3.65303e-05
2.3874e-06
-3.63629e-05
4.54962e-08
-3.56687e-05
-2.56867e-06
-3.47364e-05
-5.03607e-06
-3.37598e-05
-7.72742e-06
-3.27938e-05
-1.12815e-05
-3.21089e-05
-1.58847e-05
-3.23087e-05
-2.15832e-05
-3.45174e-05
-2.88818e-05
-3.47456e-05
-4.25616e-05
-6.8318e-08
2.90696e-09
-1.28208e-07
-2.93617e-09
-4.04474e-07
-5.06373e-09
-9.18549e-07
-9.99834e-09
-1.86196e-06
-1.92795e-08
-3.47554e-06
-3.09687e-08
-5.87011e-06
-3.71273e-08
-9.36359e-06
-3.7494e-08
-1.4685e-05
3.71321e-07
-2.10626e-05
1.71262e-06
-2.75988e-05
2.88468e-06
-3.29506e-05
3.47981e-06
-3.5716e-05
3.28548e-06
-3.60203e-05
2.13626e-06
-3.5624e-05
-3.33883e-07
-3.47034e-05
-3.4891e-06
-3.38503e-05
-5.8889e-06
-3.32777e-05
-8.29958e-06
-3.28949e-05
-1.16636e-05
-3.27995e-05
-1.59791e-05
-3.31148e-05
-2.12656e-05
-3.33829e-05
-2.86074e-05
-3.73139e-05
-3.08061e-05
5.07144e-10
8.18435e-11
-5.49944e-09
1.51308e-10
-1.44801e-08
1.91881e-10
-2.87698e-08
1.34859e-10
-5.24956e-08
5.00953e-11
-8.78271e-08
-7.50661e-11
-1.2913e-07
-2.04015e-10
-1.70708e-07
-5.12216e-10
-3.07778e-07
-4.70755e-09
-1.22011e-06
-1.28393e-08
-2.85217e-06
-1.49735e-08
-4.93259e-06
-9.20954e-09
-7.73139e-06
6.28732e-09
-1.32421e-05
1.79997e-08
-2.15225e-05
-2.868e-07
-2.66682e-05
-1.10174e-06
-2.78599e-05
-2.0062e-06
-2.85679e-05
-3.96705e-06
-2.98145e-05
-7.56785e-06
-3.07675e-05
-1.16103e-05
-3.29505e-05
-1.52939e-05
-3.62849e-05
-2.17089e-05
-3.49848e-05
-3.7155e-05
1.29065e-11
2.03036e-12
4.84696e-11
5.55806e-12
6.28916e-11
1.1805e-11
-4.23761e-12
1.21093e-11
-1.57644e-10
9.94387e-12
-4.01338e-10
5.48727e-12
-7.64907e-10
1.69831e-12
-1.45165e-09
1.87223e-13
-6.44167e-09
-4.71676e-12
-1.9645e-08
-2.2395e-11
-3.48053e-08
-2.50487e-11
-4.4012e-08
-3.71649e-12
-3.76442e-08
4.90539e-11
-1.94701e-08
1.81014e-11
-1.98878e-08
-1.26233e-16
-3.16838e-07
-1.22807e-14
-1.75111e-06
-1.34942e-13
-4.54283e-06
-2.40088e-12
-7.54467e-06
-6.63559e-11
-9.27582e-06
-1.85802e-09
-1.13766e-05
-5.07774e-08
-1.5474e-05
-8.39774e-07
-4.82119e-06
-3.13307e-05
2.21802e-13
5.02027e-14
1.81695e-12
1.81289e-13
6.29076e-12
4.6601e-13
9.43169e-12
5.82127e-13
1.02383e-11
5.45879e-13
8.24363e-12
3.90884e-13
3.76951e-12
2.61829e-13
-2.09431e-12
2.7872e-13
-1.50267e-11
5.50632e-13
-4.76778e-11
3.21269e-13
-7.34243e-11
-5.52439e-13
-7.21627e-11
-6.67189e-13
-1.80975e-11
-7.94824e-14
-6.84065e-16
4.22055e-15
-1.08034e-15
-8.01437e-17
-5.13919e-15
-8.58957e-15
-8.80987e-14
-5.31644e-14
-2.32061e-12
-1.85732e-13
-6.33544e-11
-5.76099e-12
-1.81424e-09
-1.18301e-10
-5.14801e-08
-1.39814e-09
-8.98788e-07
2.74158e-10
-7.00117e-10
-5.87565e-06
3.51333e-15
4.23785e-15
5.37074e-14
1.24988e-14
2.51092e-13
1.58578e-14
4.76657e-13
2.22791e-14
6.43663e-13
2.2463e-14
6.93299e-13
1.86453e-14
6.65732e-13
1.48731e-14
7.01627e-13
1.74806e-14
9.07548e-13
2.98009e-14
9.30097e-13
2.5762e-14
4.0623e-13
-1.78264e-14
-7.67141e-14
-3.15942e-14
-3.45039e-14
-1.23685e-14
-3.0625e-15
-2.42504e-15
-2.01042e-14
1.45208e-15
-8.02184e-14
8.52055e-15
6.13172e-14
-1.80115e-16
-7.54398e-13
-9.91879e-15
-8.90777e-12
-3.9909e-13
-1.75669e-10
-4.18761e-13
-2.8401e-09
4.45869e-10
-1.9614e-08
6.60945e-09
9.78714e-09
-1.40489e-07
1.73745e-16
4.06618e-15
1.68627e-15
5.35381e-15
8.12389e-15
1.70797e-15
1.65983e-14
2.92078e-15
2.46249e-14
3.8434e-15
2.93198e-14
4.11196e-15
3.14431e-14
4.08141e-15
3.62956e-14
4.5705e-15
5.03583e-14
6.33255e-15
6.01521e-14
7.79766e-15
3.8367e-14
3.53358e-15
1.06354e-14
1.82467e-16
1.0448e-15
-8.65434e-17
-3.25598e-17
-1.82298e-17
-1.87334e-15
3.75892e-16
-3.04041e-15
2.63418e-15
9.13617e-15
2.51635e-15
-7.15341e-14
1.39601e-14
-1.54841e-12
2.98113e-13
-2.64575e-11
7.78469e-12
-2.33092e-12
1.50799e-10
1.38584e-09
1.94195e-09
6.9323e-09
-2.88581e-08
-3.25295e-17
-3.89806e-16
8.3235e-17
2.65267e-16
4.43512e-16
1.3596e-15
9.43534e-16
2.44641e-15
1.46736e-15
3.35474e-15
1.81624e-15
3.80043e-15
2.03564e-15
3.90025e-15
2.4378e-15
4.21197e-15
3.46878e-15
5.36623e-15
4.29594e-15
6.99621e-15
2.67201e-15
5.13756e-15
6.93996e-16
2.15095e-15
6.1285e-17
5.46167e-16
8.84e-18
3.42152e-17
1.85677e-16
-3.06336e-15
2.17539e-15
-4.4487e-15
-1.01212e-14
-4.80615e-15
-7.60419e-15
1.14432e-14
1.14362e-14
1.09774e-13
1.92187e-12
2.18001e-12
4.59468e-11
3.98937e-11
5.41791e-10
5.57427e-10
3.79384e-09
-5.76059e-09
-1.51183e-17
-1.63515e-16
-3.61299e-17
-1.94527e-16
-9.54151e-17
-3.39743e-16
-2.03438e-16
-5.46131e-16
-3.63395e-16
-7.96909e-16
-6.05224e-16
-1.1464e-15
-9.80213e-16
-1.66951e-15
-1.47902e-15
-2.33131e-15
-1.98337e-15
-2.95902e-15
-2.18124e-15
-3.15794e-15
-2.25485e-15
-3.28344e-15
-2.34892e-15
-3.63252e-15
-2.14074e-15
-3.83075e-15
-1.70553e-15
-4.12333e-15
-1.08227e-15
-5.27278e-15
3.47401e-16
-5.78108e-15
6.76071e-16
-5.78368e-15
-4.33729e-14
-2.05112e-15
5.7213e-14
9.27362e-15
1.51705e-12
2.31902e-13
2.62611e-11
4.39951e-12
3.51362e-10
6.88427e-11
5.29759e-10
1.50548e-09
-3.36286e-18
-3.71808e-17
-8.9472e-18
-4.86095e-17
-3.1681e-17
-1.1429e-16
-8.26079e-17
-2.25024e-16
-1.71992e-16
-3.81857e-16
-3.12398e-16
-5.95998e-16
-5.24605e-16
-8.941e-16
-8.26375e-16
-1.29616e-15
-1.21049e-15
-1.79176e-15
-1.59026e-15
-2.28053e-15
-1.85921e-15
-2.66977e-15
-1.92842e-15
-2.9e-15
-1.7425e-15
-2.92449e-15
-1.44361e-15
-2.98175e-15
-1.05682e-15
-3.20831e-15
-4.50285e-16
-3.25699e-15
1.53645e-16
-3.11829e-15
-1.9516e-15
-2.45891e-15
6.39273e-15
6.96494e-16
1.74793e-13
1.49463e-14
3.04711e-12
2.81066e-13
4.47528e-11
5.00273e-12
3.53444e-11
1.83678e-10
-6.00139e-19
-7.50502e-18
-1.49358e-18
-8.78081e-18
-5.46077e-18
-2.09842e-17
-1.56815e-17
-4.50555e-17
-3.55794e-17
-8.2648e-17
-6.89535e-17
-1.36626e-16
-1.21742e-16
-2.14101e-16
-2.01523e-16
-3.24572e-16
-3.138e-16
-4.75567e-16
-4.49917e-16
-6.5922e-16
-5.7878e-16
-8.45713e-16
-6.51584e-16
-9.8664e-16
-6.36102e-16
-1.04888e-15
-5.69751e-16
-1.09423e-15
-4.66013e-16
-1.1508e-15
-3.07534e-16
-1.15463e-15
-1.29019e-16
-1.08815e-15
-9.85346e-18
-9.30909e-16
6.85544e-17
3.23707e-16
8.21356e-15
1.09888e-15
1.61631e-13
1.26916e-14
2.50597e-12
2.79028e-13
3.98617e-12
-8.86465e-12
-1.05102e-19
-1.63454e-18
-2.41658e-19
-1.63817e-18
-8.34989e-19
-3.57753e-18
-2.49298e-18
-7.82132e-18
-5.77435e-18
-1.44297e-17
-1.12376e-17
-2.36813e-17
-1.98783e-17
-3.68526e-17
-3.32822e-17
-5.61341e-17
-5.32699e-17
-8.41302e-17
-8.04848e-17
-1.22356e-16
-1.11016e-16
-1.67279e-16
-1.35908e-16
-2.0982e-16
-1.45025e-16
-2.38547e-16
-1.41026e-16
-2.59126e-16
-1.26331e-16
-2.75022e-16
-1.00171e-16
-2.78565e-16
-6.69353e-17
-2.62442e-16
-3.44266e-17
-2.17357e-16
1.10702e-17
7.73014e-18
1.73678e-16
2.44192e-16
4.19308e-16
2.85577e-15
1.02811e-14
7.71773e-14
1.24007e-12
-7.0651e-13
-1.91989e-20
-4.09207e-19
-4.42823e-20
-3.67689e-19
-1.45274e-19
-7.24064e-19
-4.24909e-19
-1.50194e-18
-9.33808e-19
-2.57103e-18
-1.68932e-18
-3.85804e-18
-2.7748e-18
-5.50546e-18
-4.37948e-18
-7.82885e-18
-6.76699e-18
-1.12386e-17
-1.03153e-17
-1.63686e-17
-1.47338e-17
-2.2965e-17
-1.92759e-17
-3.03757e-17
-2.26656e-17
-3.72486e-17
-2.42726e-17
-4.30233e-17
-2.35703e-17
-4.67151e-17
-2.07916e-17
-4.78088e-17
-1.60972e-17
-4.43952e-17
-9.52343e-18
-3.21479e-17
1.2698e-17
1.44757e-17
6.92295e-17
5.0017e-17
2.11461e-15
3.30705e-16
5.84735e-14
8.03888e-15
1.7101e-13
8.59618e-13
-3.2328e-21
-1.05523e-19
-8.21477e-21
-8.85669e-20
-2.69483e-20
-1.62388e-19
-7.53675e-20
-3.08435e-19
-1.52687e-19
-4.72367e-19
-2.46976e-19
-6.19981e-19
-3.5548e-19
-7.6231e-19
-4.91029e-19
-9.36135e-19
-6.69735e-19
-1.17296e-18
-9.82863e-19
-1.62723e-18
-1.42966e-18
-2.29752e-18
-1.91146e-18
-3.05874e-18
-2.51113e-18
-4.10277e-18
-3.05468e-18
-5.2219e-18
-3.211e-18
-5.87633e-18
-3.00648e-18
-6.00445e-18
-2.36123e-18
-5.20845e-18
-9.57996e-19
-2.33414e-18
4.79565e-18
4.19737e-18
1.1585e-17
3.91986e-18
1.58831e-16
3.33227e-17
6.57768e-15
5.501e-16
1.36731e-14
1.42027e-13
-4.33445e-22
-2.49729e-20
-1.32299e-21
-1.95477e-20
-4.47116e-21
-3.36304e-20
-1.20257e-20
-5.81879e-20
-2.25759e-20
-7.95831e-20
-3.25826e-20
-9.06965e-20
-4.01012e-20
-9.3374e-20
-4.61536e-20
-9.39336e-20
-5.05306e-20
-9.31129e-20
-7.0642e-20
-1.21394e-19
-1.05228e-19
-1.73048e-19
-1.3652e-19
-2.19897e-19
-2.03296e-19
-3.27553e-19
-2.91394e-19
-4.78511e-19
-3.32707e-19
-5.6561e-19
-3.17888e-19
-5.65708e-19
-2.21404e-19
-4.14375e-19
1.96978e-19
7.95876e-20
5.50797e-19
1.40784e-19
1.02178e-18
2.13774e-19
1.34662e-17
1.99347e-18
3.74806e-16
4.67985e-17
8.04592e-16
1.15935e-14
-4.07091e-23
-5.10231e-21
-1.73824e-22
-3.66153e-21
-6.13751e-22
-5.87094e-21
-1.59486e-21
-9.22293e-21
-2.79216e-21
-1.12815e-20
-3.59931e-21
-1.11329e-20
-3.72829e-21
-9.41478e-21
-3.51161e-21
-7.59824e-21
-2.93591e-21
-5.65389e-21
-3.90775e-21
-6.90808e-21
-6.03745e-21
-1.00543e-20
-7.33789e-21
-1.17681e-20
-1.24557e-20
-1.96011e-20
-2.17033e-20
-3.40387e-20
-2.70341e-20
-4.27673e-20
-2.56476e-20
-4.1246e-20
-1.38406e-20
-2.26885e-20
2.03137e-20
8.39662e-21
3.18483e-20
4.52266e-21
8.55115e-20
1.34644e-20
1.05571e-18
1.30978e-19
2.80411e-17
3.18494e-18
6.08714e-17
6.16294e-16
-2.17167e-24
-8.53781e-22
-1.83045e-23
-5.49832e-22
-6.73304e-23
-8.14822e-22
-1.68886e-22
-1.16148e-21
-2.76326e-22
-1.27307e-21
-3.18099e-22
-1.08658e-21
-2.73035e-22
-7.42086e-22
-2.11671e-22
-4.82463e-22
-1.35954e-22
-2.70701e-22
-1.70205e-22
-3.05864e-22
-2.75318e-22
-4.58541e-22
-3.10344e-22
-4.89595e-22
-5.97542e-22
-9.08983e-22
-1.29291e-21
-1.92368e-21
-1.76547e-21
-2.59679e-21
-1.63786e-21
-2.39819e-21
-6.68988e-22
-9.78053e-22
1.02569e-21
8.56778e-23
2.15061e-21
4.47573e-22
8.1737e-21
2.93413e-21
9.23684e-20
2.78564e-20
2.13919e-18
3.5018e-19
5.57487e-18
4.42984e-17
-1.02365e-25
-1.09298e-22
-1.56207e-24
-6.15844e-23
-5.70346e-24
-8.37654e-23
-1.36233e-23
-1.08595e-22
-2.08628e-23
-1.07593e-22
-2.15895e-23
-8.0211e-23
-1.53403e-23
-4.42498e-23
-9.67952e-24
-2.2922e-23
-4.78088e-24
-9.70574e-24
-5.89504e-24
-1.06184e-23
-1.00956e-23
-1.65864e-23
-1.06393e-23
-1.63023e-23
-2.30431e-23
-3.35248e-23
-6.27008e-23
-8.78476e-23
-9.43303e-23
-1.28642e-22
-8.52296e-23
-1.13977e-22
-2.87682e-23
-3.78859e-23
8.68825e-23
2.04817e-23
4.38169e-22
2.24295e-22
3.43111e-21
2.17273e-21
3.3845e-20
2.29992e-20
3.84562e-19
2.47155e-19
2.83715e-18
5.44161e-18
-1.88789e-26
-9.83141e-24
-1.06564e-25
-4.62912e-24
-3.48365e-25
-5.73453e-24
-7.73832e-25
-6.82386e-24
-1.11234e-24
-6.22302e-24
-1.06166e-24
-4.19018e-24
-6.66034e-25
-1.99957e-24
-3.48034e-25
-8.41501e-25
-1.23743e-25
-2.52012e-25
-1.62827e-25
-2.89499e-25
-2.99751e-25
-4.78858e-25
-2.9987e-25
-4.40531e-25
-7.282e-25
-1.00225e-24
-2.50391e-24
-3.27677e-24
-4.15962e-24
-5.23564e-24
-3.64799e-24
-4.45426e-24
-1.62417e-25
-1.9352e-25
2.84252e-23
1.28488e-23
3.09179e-22
1.63801e-22
3.13591e-21
1.8075e-21
4.09713e-20
2.65574e-20
4.86409e-19
3.21578e-19
3.88356e-18
5.34104e-18
-2.87727e-27
-5.74363e-25
-5.19291e-27
-2.0667e-25
-1.36872e-26
-2.29211e-25
-2.76448e-26
-2.54164e-25
-3.78223e-26
-2.20573e-25
-3.4669e-26
-1.41188e-25
-2.03085e-26
-6.20154e-26
-9.27009e-27
-2.24448e-26
-2.42264e-27
-4.86485e-27
-3.61125e-27
-6.2385e-27
-7.24311e-27
-1.109e-26
-7.00893e-27
-9.74482e-27
-1.91052e-26
-2.45999e-26
-8.26851e-26
-1.00176e-25
-1.50752e-25
-1.74049e-25
-1.02301e-25
-1.13695e-25
1.18206e-24
6.03403e-25
1.73518e-23
7.26314e-24
2.23571e-22
9.96638e-23
2.63116e-21
1.25446e-21
4.95877e-20
2.63348e-20
7.97929e-19
5.1264e-19
6.94574e-18
9.30762e-18
-2.32462e-28
-2.44801e-26
-1.99053e-28
-6.53631e-27
-4.08974e-28
-6.42748e-27
-7.3078e-28
-6.6191e-27
-9.38223e-28
-5.47704e-27
-8.27391e-28
-3.37363e-27
-4.55291e-28
-1.38124e-27
-1.87116e-28
-4.4493e-28
-3.81416e-29
-7.42514e-29
-6.50317e-29
-1.07501e-28
-1.43339e-28
-2.07418e-28
-1.36473e-28
-1.77295e-28
-4.17505e-28
-4.97217e-28
-2.23977e-27
-2.48768e-27
-3.97329e-27
-4.17468e-27
2.37954e-26
1.00697e-26
5.23943e-25
1.671e-25
8.5368e-24
2.70337e-24
1.16923e-22
3.75368e-23
1.62642e-21
5.67751e-22
4.64297e-20
2.10602e-20
1.14859e-18
5.86435e-19
8.85755e-18
1.45644e-17
-1.18937e-29
-8.2957e-28
-6.15424e-30
-1.63509e-28
-1.00671e-29
-1.41896e-28
-1.57114e-29
-1.34491e-28
-1.85953e-29
-1.0509e-28
-1.56074e-29
-6.20602e-29
-8.01236e-30
-2.36458e-29
-2.99617e-30
-6.87515e-30
-5.01259e-31
-9.31611e-31
-9.60529e-31
-1.4982e-30
-2.33981e-30
-3.15799e-30
-2.22599e-30
-2.66845e-30
-7.43461e-30
-8.09298e-30
-4.34886e-29
-4.37994e-29
2.24011e-28
8.39368e-29
9.05227e-27
2.47132e-27
1.86013e-25
4.40939e-26
3.10883e-24
7.27378e-25
4.28049e-23
9.79928e-24
7.22212e-22
1.86098e-22
3.57093e-20
1.31368e-20
1.18934e-18
5.26376e-19
8.21088e-18
1.59035e-17
-4.53775e-31
-2.35718e-29
-1.56985e-31
-3.44474e-30
-2.10806e-31
-2.62968e-30
-2.87121e-31
-2.27209e-30
-3.09437e-31
-1.65622e-30
-2.44117e-31
-9.28643e-31
-1.15874e-31
-3.273e-31
-3.93994e-32
-8.60314e-32
-5.40599e-33
-9.47097e-33
-1.15769e-32
-1.6832e-32
-3.1415e-32
-3.90702e-32
-2.91146e-32
-3.18123e-32
-6.02317e-32
-5.91875e-32
1.9736e-30
8.68648e-31
9.94344e-29
2.84775e-29
2.53556e-27
4.66577e-28
5.5421e-26
1.01978e-26
8.98088e-25
1.60489e-25
1.21974e-23
2.14442e-24
2.64712e-22
5.78868e-23
2.39816e-20
7.61985e-21
1.07074e-18
4.16805e-19
6.72157e-18
1.4451e-17
-1.37643e-32
-5.80752e-31
-3.3906e-33
-6.34458e-32
-3.82336e-33
-4.24881e-32
-4.56146e-33
-3.31763e-32
-4.44335e-33
-2.2292e-32
-3.2576e-33
-1.17254e-32
-1.41755e-33
-3.79283e-33
-4.37378e-34
-9.00106e-34
-5.13476e-35
-8.40005e-35
-1.15887e-34
-1.55508e-34
-3.42689e-34
-3.88463e-34
-5.36401e-35
-5.27749e-35
2.0847e-32
9.2425e-33
7.69295e-31
1.6295e-31
2.30761e-29
3.36143e-30
6.24205e-28
8.87301e-29
1.37337e-26
1.91059e-27
2.17634e-25
3.04424e-26
3.08139e-24
4.69777e-25
1.0276e-22
2.31713e-23
1.58619e-20
4.55383e-21
8.42329e-19
2.79304e-19
4.44153e-18
1.12361e-17
-3.48111e-34
-1.26852e-32
-6.31741e-35
-1.04613e-33
-6.09162e-35
-6.12773e-34
-6.3919e-35
-4.29263e-34
-5.59924e-35
-2.62967e-34
-3.77561e-35
-1.28101e-34
-1.49367e-35
-3.76813e-35
-4.16579e-36
-8.03838e-36
-4.24463e-37
-6.44521e-37
-9.54717e-37
-1.17354e-36
-2.05974e-36
-2.10757e-36
1.05827e-34
4.59238e-35
4.29155e-33
5.72377e-34
1.52029e-31
1.80319e-32
4.67778e-30
5.1705e-31
1.27123e-28
1.32017e-29
2.78954e-27
2.87415e-28
4.74577e-26
5.49688e-27
8.56388e-25
1.35617e-25
5.42211e-23
1.25937e-23
1.05323e-20
2.68618e-21
5.85375e-19
1.65638e-19
2.63959e-18
7.66681e-18
-7.61286e-36
-2.49461e-34
-1.04118e-36
-1.56898e-35
-8.64175e-37
-8.01292e-36
-7.99182e-37
-5.00491e-36
-6.26639e-37
-2.76775e-36
-3.84783e-37
-1.23268e-36
-1.3718e-37
-3.26332e-37
-3.43498e-38
-6.20819e-38
-2.9532e-39
-4.15109e-39
-3.70936e-39
-4.1552e-39
3.23806e-37
1.47941e-37
1.68354e-35
1.8494e-36
7.15421e-34
6.94713e-35
2.60613e-32
2.28879e-33
7.9214e-31
6.27284e-32
2.08691e-29
1.5408e-30
4.88032e-28
3.91503e-29
1.08242e-26
1.17146e-27
3.37987e-25
5.54844e-26
3.52505e-23
7.39364e-24
6.68277e-21
1.45856e-21
3.62707e-19
8.70572e-20
1.47412e-18
4.87069e-18
-1.47047e-37
-4.46658e-36
-1.54185e-38
-2.16462e-37
-1.10465e-38
-9.60435e-38
-9.00508e-39
-5.32057e-38
-6.2879e-39
-2.63238e-38
-3.48056e-39
-1.05848e-38
-1.10747e-39
-2.49377e-39
-2.46691e-40
-4.18594e-40
-1.33671e-41
-1.73992e-41
7.94259e-40
4.00193e-40
4.75628e-38
4.86324e-39
2.28854e-36
1.85406e-37
1.00353e-34
6.92183e-36
3.66643e-33
2.19254e-34
1.08711e-31
5.82653e-33
2.937e-30
1.59436e-31
8.71384e-29
6.11261e-30
3.16917e-27
3.25292e-28
1.73766e-25
2.46235e-26
2.27012e-23
3.87354e-24
3.93738e-21
7.10445e-22
2.04068e-19
4.12431e-20
7.49337e-19
2.88422e-18
-2.55759e-39
-7.34268e-38
-2.08024e-40
-2.77037e-39
-1.28604e-40
-1.06359e-39
-9.2254e-41
-5.20197e-40
-5.70265e-41
-2.284e-40
-2.81589e-41
-8.19255e-41
-7.91206e-42
-1.69758e-41
-1.53668e-42
-2.46095e-42
3.02752e-42
7.96726e-43
9.79817e-41
9.50937e-42
5.18104e-39
3.75154e-40
2.57068e-37
1.46022e-38
1.10453e-35
4.87539e-37
3.98102e-34
1.4291e-35
1.22604e-32
4.08962e-34
4.09236e-31
1.67846e-32
1.94342e-29
1.13944e-30
1.16149e-27
9.19724e-29
8.71169e-26
8.88156e-27
1.31545e-23
1.66864e-24
2.14132e-21
3.06523e-22
1.05025e-19
1.74157e-20
3.24011e-19
1.51601e-18
-4.0782e-41
-1.11519e-39
-2.59438e-42
-3.3113e-41
-1.37665e-42
-1.095e-41
-8.65834e-43
-4.7096e-42
-4.7065e-43
-1.82167e-42
-2.05095e-43
-5.76307e-43
-5.03004e-44
-1.03746e-43
-7.51525e-45
-1.14481e-44
1.44777e-43
1.30189e-44
8.39651e-42
5.70145e-43
4.80787e-40
2.47356e-41
2.21283e-38
7.78106e-40
8.68703e-37
2.0408e-38
3.00074e-35
5.03087e-37
1.09467e-33
1.86839e-35
6.24999e-32
1.63586e-33
5.01361e-30
1.74032e-31
3.98021e-28
1.73555e-29
3.68243e-26
2.16783e-27
6.73521e-24
5.67399e-25
1.0617e-21
1.1184e-22
4.79795e-20
6.14693e-21
1.09491e-19
6.61614e-19
-6.03484e-43
-1.5718e-41
-3.02226e-44
-3.7172e-43
-1.36527e-44
-1.05361e-43
-7.49113e-45
-3.97143e-44
-3.55483e-45
-1.34446e-44
-1.35247e-45
-3.7118e-45
-2.85556e-46
-5.72391e-46
3.46106e-46
2.75801e-47
8.92503e-45
6.15868e-46
6.13098e-43
2.98264e-44
3.18385e-41
8.50414e-43
1.2338e-39
1.72225e-41
3.87272e-38
4.16305e-40
1.17368e-36
1.6505e-38
6.97797e-35
9.87518e-37
9.47573e-33
8.37724e-35
1.06913e-30
8.24018e-33
1.02668e-28
1.07633e-30
1.2161e-26
2.49784e-28
2.97053e-24
1.25121e-25
4.617e-22
3.0005e-23
1.82818e-20
1.6196e-21
2.63343e-20
2.20884e-19
-8.37024e-45
-2.06165e-43
-3.31283e-46
-3.93958e-45
-1.26008e-46
-9.52247e-46
-5.99721e-47
-3.13674e-46
-2.46744e-47
-9.23925e-47
-8.1135e-48
-2.20402e-47
-1.42666e-48
-2.81586e-48
8.07536e-48
1.01285e-48
5.4175e-46
2.33826e-47
2.91959e-44
6.05174e-46
7.36846e-43
7.53808e-45
1.19112e-41
2.76649e-43
1.25067e-39
2.04048e-41
1.43524e-37
1.01529e-39
1.48118e-35
-5.78507e-38
1.40897e-33
-1.60764e-35
1.5054e-31
-1.79783e-33
1.68237e-29
-1.6522e-31
2.79714e-27
-1.91201e-29
9.75277e-25
4.23922e-27
1.50022e-22
3.69758e-24
5.24693e-21
2.62277e-22
4.79957e-21
5.44436e-20
-1.08483e-46
-2.52065e-45
-3.41873e-48
-3.96134e-47
-1.08293e-48
-8.12594e-48
-4.44908e-49
-2.33375e-48
-1.57758e-49
-5.94885e-49
-4.44315e-50
-1.21451e-49
-5.13286e-51
-1.0133e-50
2.97321e-49
1.13074e-50
9.38243e-48
1.21421e-49
1.18978e-46
2.38493e-48
1.08361e-44
2.61625e-46
1.60339e-42
3.74629e-44
2.09422e-40
1.35389e-42
2.42226e-38
-1.96093e-40
2.52009e-36
-4.82376e-38
2.35217e-34
-6.49449e-36
2.02948e-32
-6.58485e-34
2.04651e-30
-6.45317e-32
4.36448e-28
-1.06116e-29
1.73599e-25
-2.27735e-27
2.63083e-23
-5.73932e-26
1.03376e-21
2.11778e-23
1.04058e-21
1.36126e-20
-1.29628e-48
-2.87635e-47
-3.2938e-50
-3.79698e-49
-8.62424e-51
-6.5842e-50
-3.05119e-51
-1.64539e-50
-9.29035e-52
-3.61074e-51
-2.22289e-52
-6.24293e-52
1.80352e-52
8.37638e-54
1.31625e-51
1.32304e-53
4.49215e-50
1.13864e-51
6.02472e-48
2.28106e-49
1.04033e-45
3.00498e-47
1.59999e-43
1.67269e-45
2.19067e-41
-1.1815e-43
2.68263e-39
-5.1045e-41
2.9528e-37
-9.2699e-39
2.92041e-35
-1.23248e-36
2.64491e-33
-1.34843e-34
2.66507e-31
-1.45259e-32
5.18418e-29
-2.14208e-30
1.73011e-26
-4.15542e-28
2.91911e-24
-5.25088e-26
1.82144e-22
-6.43111e-25
2.86707e-22
5.00398e-21
-1.39193e-50
-3.07069e-49
-2.91127e-52
-3.4834e-51
-6.295e-53
-5.09695e-52
-1.92189e-53
-1.10619e-52
-5.02306e-54
-2.07779e-53
-1.0139e-54
-3.00526e-54
9.85536e-55
2.15198e-57
1.0206e-53
3.24667e-55
1.90725e-51
8.67749e-53
3.96868e-49
1.38296e-50
7.41248e-47
1.32125e-48
1.22717e-44
2.18857e-47
1.80713e-42
-2.1599e-44
2.37717e-40
-5.95049e-42
2.80761e-38
-1.04845e-39
2.99793e-36
-1.45857e-37
2.97325e-34
-1.71979e-35
3.19269e-32
-1.86037e-33
5.10808e-30
-2.37565e-31
1.24982e-27
-4.84051e-29
2.79342e-25
-1.12483e-26
3.84197e-23
-1.34713e-24
2.94705e-23
2.45252e-21
-1.29322e-52
-3.08368e-51
-2.28357e-54
-3.06818e-53
-4.12394e-55
-3.79351e-54
-1.09699e-55
-7.13426e-55
-2.47283e-56
-1.13886e-55
-4.20477e-57
-1.36233e-56
5.83869e-57
4.20059e-59
3.19651e-55
1.34686e-56
8.22357e-53
2.75357e-54
1.89192e-50
3.93839e-52
3.84222e-48
3.3474e-50
6.89843e-46
-1.34605e-48
1.09949e-43
-1.05086e-45
1.5514e-41
-2.68776e-43
1.95131e-39
-4.85623e-41
2.2252e-37
-7.05099e-39
2.35384e-35
-8.87319e-37
2.46598e-33
-1.0621e-34
3.30816e-31
-1.50231e-32
7.97656e-29
-3.62852e-30
2.67498e-26
-1.33916e-27
7.02489e-24
-2.99157e-25
-1.17217e-23
7.35268e-22
-9.65973e-55
-2.94444e-53
-1.48844e-56
-2.59936e-55
-2.31812e-57
-2.73106e-56
-5.51536e-58
-4.44058e-57
-1.0884e-58
-5.9629e-58
-1.56972e-59
-5.8302e-59
3.49067e-59
5.40854e-61
5.36046e-57
1.27884e-58
1.53843e-54
2.4981e-56
3.9034e-52
3.67396e-54
8.73798e-50
2.54291e-52
1.72697e-47
-4.5504e-50
3.01465e-45
-2.32393e-47
4.59391e-43
-5.99444e-45
6.12932e-41
-1.1016e-42
7.2878e-39
-1.5336e-40
8.07665e-37
-1.71799e-38
9.129e-35
-1.94777e-36
1.32102e-32
-3.62494e-34
3.60953e-30
-1.43333e-31
1.74123e-27
-9.15028e-29
6.40178e-25
-3.81463e-26
-3.25121e-24
7.80292e-23
-4.32365e-57
-2.72269e-55
-6.51534e-59
-2.11656e-57
-9.80953e-60
-1.91269e-58
-2.32383e-60
-2.74107e-59
-4.11354e-61
-2.98488e-60
-5.15602e-62
-2.35367e-61
1.84949e-61
2.07232e-63
4.37513e-59
4.83516e-61
1.40982e-56
9.8357e-59
4.04078e-54
1.50083e-56
1.02119e-51
6.45839e-55
2.28153e-49
-2.22376e-52
4.42914e-47
-1.24038e-49
7.30386e-45
-4.25909e-47
1.0051e-42
-9.33105e-45
1.13391e-40
-5.4465e-43
1.09438e-38