/*--------------------------------*- C++ -*----------------------------------*\
  =========                 |
  \\      /  F ield         | OpenFOAM: The Open Source CFD Toolbox
   \\    /   O peration     | Website:  https://openfoam.org
    \\  /    A nd           | Version:  7
     \\/     M anipulation  |
\*---------------------------------------------------------------------------*/
FoamFile
{
    version     2.0;
    format      ascii;
    class       volScalarField;
    location    "0.75";
    object      epsilon;
}
// * * * * * * * * * * * * * * * * * * * * * * * * * * * * * * * * * * * * * //

dimensions      [0 2 -3 0 0 0 0];

internalField   nonuniform List<scalar> 
2268
(
0.020852
0.0567774
0.0949029
0.133057
0.169692
0.20494
0.239434
0.27321
0.305931
0.336973
0.365356
0.389811
0.40897
0.421503
0.426168
0.422062
0.408828
0.385391
0.352518
0.311278
0.259654
0.184353
0.0852713
0.0269198
0.041356
0.0585956
0.0756536
0.0921748
0.10804
0.123476
0.138445
0.15273
0.166024
0.177936
0.188008
0.195744
0.20062
0.202127
0.199936
0.194071
0.184643
0.1725
0.158757
0.143457
0.124865
0.10775
0.0343181
0.0379806
0.0517578
0.0658805
0.0791957
0.0916125
0.103403
0.114659
0.125305
0.135166
0.144003
0.151541
0.157494
0.16157
0.163525
0.16329
0.161064
0.157352
0.153227
0.150062
0.148822
0.150171
0.166825
0.0374851
0.0367381
0.0496476
0.0630964
0.0754492
0.0866406
0.0970196
0.106786
0.115965
0.12446
0.132109
0.138733
0.144164
0.148249
0.15091
0.152256
0.152667
0.152939
0.154549
0.159654
0.170809
0.19084
0.240099
0.0374563
0.0363184
0.0494062
0.0628977
0.07492
0.0855009
0.0951139
0.104063
0.112445
0.120215
0.127258
0.133463
0.138748
0.143064
0.146453
0.149164
0.151742
0.155271
0.161781
0.174717
0.199635
0.245086
0.344334
0.0358652
0.0365688
0.0504487
0.06426
0.0761208
0.0862691
0.0953433
0.103744
0.111615
0.118936
0.125621
0.131617
0.136912
0.141539
0.145631
0.149544
0.153965
0.160259
0.171083
0.191566
0.232202
0.315874
0.514771
0.0348801
0.0377574
0.0526782
0.0668176
0.0784754
0.0881997
0.0968108
0.104789
0.112296
0.119308
0.125759
0.131647
0.137024
0.141984
0.14673
0.151697
0.15768
0.166284
0.180736
0.20787
0.264593
0.401873
0.815079
0.0364371
0.0405458
0.0562343
0.0704429
0.0817123
0.0909263
0.0990771
0.106699
0.113931
0.120712
0.126994
0.132826
0.138314
0.143599
0.148931
0.154806
0.162085
0.17254
0.189753
0.221553
0.289471
0.477829
1.33248
6.79318
14.1464
18.4361
19.0328
16.3357
12.1186
8.70824
6.87366
6.24294
6.29696
6.71883
7.18892
7.36941
6.891
5.76604
4.41676
3.15374
1.74131
0.384641
8.99551
13.159
14.8391
14.7861
12.829
9.60014
6.51374
4.4048
3.36518
2.99905
2.95108
3.00385
3.01666
2.84262
2.4598
1.99927
1.55021
1.04727
0.433923
12.5427
15.0883
18.4933
20.2141
19.2917
15.7052
10.8994
6.5713
3.93726
2.81706
2.46519
2.39837
2.37543
2.23587
1.95028
1.61907
1.31917
1.01152
0.665135
13.649
16.9796
24.1885
29.3497
30.8355
27.9759
20.7159
12.3323
6.25761
3.42811
2.51305
2.27296
2.18498
2.03269
1.77439
1.48605
1.24661
1.04614
0.853525
12.3929
16.7781
27.2984
38.2646
47.0026
50.383
39.3933
24.4336
11.6764
4.92292
2.86435
2.32915
2.13106
1.94134
1.69395
1.42599
1.21486
1.07834
0.986327
10.6554
14.9147
22.443
30.3944
40.505
53.869
58.2386
46.1546
23.0155
7.79427
3.52374
2.51404
2.1482
1.90049
1.65573
1.39527
1.19485
1.09536
1.08775
8.83967
12.6885
15.5697
18.5431
23.6761
32.6658
43.361
51.7069
38.5414
12.4746
4.49801
2.8122
2.21226
1.88775
1.63288
1.37114
1.17509
1.09492
1.16536
6.9408
9.63097
10.2486
11.2745
14.0742
20.0582
28.6375
38.1336
41.3319
17.8747
5.71813
3.18862
2.2982
1.88739
1.61132
1.34486
1.15065
1.07892
1.22067
0.0478515
0.0495819
0.064732
0.0780814
0.0881743
0.0962766
0.103593
0.110674
0.11754
0.124013
0.130075
0.135859
0.141531
0.147278
0.1534
0.160431
0.169282
0.181834
0.20172
0.236231
0.301962
0.440781
0.770585
0.083985
0.070442
0.0820581
0.0918872
0.0991504
0.105223
0.111399
0.118004
0.124608
0.130676
0.136416
0.142111
0.147936
0.1541
0.160943
0.169007
0.179269
0.19368
0.215661
0.251127
0.310267
0.407881
0.560964
0.127588
0.0945046
0.0965279
0.103402
0.110177
0.115838
0.121687
0.128383
0.134813
0.139723
0.144718
0.150064
0.155762
0.162019
0.169241
0.178012
0.189593
0.206318
0.232141
0.274009
0.343581
0.455814
0.619256
0.170111
0.109362
0.105008
0.107663
0.113085
0.119582
0.127434
0.136404
0.144458
0.150182
0.154751
0.159557
0.164753
0.170674
0.177923
0.187342
0.200705
0.221288
0.25464
0.311119
0.409356
0.572344
0.787194
0.188428
0.117805
0.110409
0.110726
0.113643
0.118468
0.125599
0.134641
0.143693
0.152025
0.158898
0.165132
0.171295
0.178012
0.186265
0.197054
0.213096
0.240221
0.287085
0.370219
0.524619
0.809681
1.08177
0.200698
0.12151
0.112598
0.112046
0.113942
0.117538
0.123062
0.130251
0.137988
0.145745
0.153739
0.162242
0.17117
0.180742
0.191694
0.20565
0.227526
0.265649
0.332074
0.446459
0.632825
0.890203
1.20755
0.206136
0.122751
0.112731
0.111927
0.113656
0.11676
0.121228
0.126977
0.133502
0.140492
0.148183
0.15687
0.166615
0.177726
0.191255
0.209763
0.23898
0.287554
0.364966
0.479313
0.630199
0.816571
1.08285
0.209031
0.122264
0.111235
0.110312
0.112223
0.115403
0.119566
0.124643
0.130427
0.13677
0.14385
0.151998
0.161517
0.172916
0.187493
0.20814
0.239964
0.290247
0.366189
0.47192
0.605714
0.776453
1.04418
0.210117
0.120609
0.108666
0.107543
0.109626
0.113071
0.117354
0.122313
0.127828
0.133833
0.140459
0.148023
0.156947
0.167887
0.182136
0.202314
0.232872
0.279386
0.347443
0.440286
0.55893
0.717748
0.976509
0.209737
0.118156
0.105459
0.104061
0.106188
0.109845
0.114351
0.119443
0.124986
0.130928
0.137357
0.144532
0.152879
0.163069
0.176275
0.194597
0.221553
0.261661
0.319163
0.397216
0.498778
0.638442
0.867016
0.20806
0.115122
0.101861
0.100167
0.102217
0.105958
0.110629
0.115893
0.121581
0.127619
0.134049
0.141061
0.149013
0.1585
0.170507
0.186671
0.209534
0.242558
0.289403
0.352789
0.436175
0.550963
0.73376
0.205162
0.11166
0.0980251
0.09605
0.0979412
0.101644
0.106368
0.111742
0.11757
0.123754
0.130293
0.13731
0.145077
0.154069
0.165071
0.179327
0.198695
0.225649
0.262978
0.313282
0.379694
0.470008
0.607405
0.201131
0.107895
0.094065
0.0918445
0.0935313
0.0971017
0.101771
0.10716
0.113063
0.119367
0.126042
0.133156
0.1409
0.149634
0.159954
0.172788
0.189493
0.211859
0.24197
0.281986
0.334478
0.404658
0.506016
0.196111
0.103935
0.0900747
0.0876566
0.0891213
0.0924969
0.0970228
0.102333
0.108225
0.114585
0.121367
0.128604
0.136423
0.145086
0.155035
0.166954
0.181831
0.200963
0.225893
0.258313
0.300251
0.355265
0.431321
0.190287
0.0998789
0.086138
0.0835762
0.0848202
0.0879643
0.0922837
0.0974356
0.103234
0.109572
0.116404
0.123739
0.131667
0.140376
0.15019
0.161613
0.175366
0.192394
0.213838
0.240996
0.275439
0.319665
0.378597
0.183861
0.0958187
0.0823315
0.0796804
0.0807168
0.0836122
0.087684
0.0926187
0.0982524
0.104495
0.111306
0.118692
0.126717
0.135521
0.145347
0.156572
0.169727
0.185515
0.204791
0.228556
0.258036
0.295054
0.342845
0.177038
0.091844
0.0787253
0.076035
0.0768826
0.0795253
0.0833263
0.088004
0.0934197
0.0995035
0.106229
0.113605
0.121689
0.130591
0.140503
0.151714
0.164632
0.179795
0.197865
0.219639
0.246107
0.278682
0.319657
0.170034
0.0880438
0.0753833
0.0726947
0.0733732
0.0757673
0.0792875
0.0836845
0.0888455
0.0947226
0.101306
0.108617
0.116711
0.125688
0.135709
0.147009
0.159916
0.174863
0.192393
0.213172
0.238049
0.268204
0.305431
0.163092
0.0845088
0.0723624
0.0697033
0.0702294
0.0723828
0.0756211
0.0797263
0.0846109
0.0902484
0.0966478
0.103845
0.111904
0.120922
0.131047
0.142483
0.155512
0.170504
0.187929
0.208385
0.232647
0.261777
0.297331
0.156465
0.0813258
0.06971
0.0670937
0.0674786
0.0693998
0.0723601
0.0761714
0.0807691
0.0861478
0.092335
0.0993829
0.107368
0.116394
0.126605
0.138193
0.151415
0.166606
0.1842
0.204759
0.229025
0.258019
0.29319
0.150375
0.0785662
0.0674624
0.0648876
0.065136
0.0668318
0.0695204
0.0730406
0.0773494
0.0824602
0.0884183
0.095293
0.103175
0.11218
0.122457
0.134196
0.147644
0.16312
0.18104
0.201948
0.226574
0.255922
0.291396
0.14499
0.0762781
0.0656426
0.0630958
0.0632058
0.0646799
0.0671026
0.0703375
0.0743601
0.0792008
0.0849215
0.091608
0.0993668
0.108328
0.118651
0.130531
0.144216
0.160017
0.178341
0.199718
0.22487
0.254779
0.290805
0.140414
0.0744885
0.0642601
0.0617189
0.0616828
0.0629352
0.0650964
0.0680515
0.0717926
0.0763647
0.0818448
0.0883339
0.095955
0.104854
0.115203
0.12721
0.141126
0.157261
0.176014
0.197901
0.223618
0.254105
0.29065
0.13671
0.0732044
0.0633118
0.0607475
0.060553
0.0615803
0.0634819
0.0661618
0.069626
0.0739319
0.0791698
0.0854548
0.0929256
0.101745
0.1121
0.124213
0.138343
0.154801
0.173976
0.19636
0.222607
0.253585
0.290469
0.133899
0.0724176
0.0627832
0.0601636
0.0597953
0.0605916
0.0622331
0.0646401
0.0678303
0.0718715
0.0768647
0.0829381
0.0902451
0.0989645
0.109302
0.121494
0.135809
0.152562
0.172129
0.194971
0.221681
0.253028
0.290028
0.131973
0.0721081
0.0626512
0.0599423
0.0593832
0.0599406
0.0613195
0.063454
0.0663709
0.0701462
0.0748898
0.0807409
0.0878663
0.0964611
0.106748
0.118981
0.133441
0.150447
0.170361
0.193609
0.220709
0.25231
0.289239
0.130898
0.0722449
0.0628854
0.0600535
0.0592864
0.0595964
0.0607091
0.0625695
0.0652113
0.0687165
0.0732017
0.078815
0.0857352
0.094172
0.104366
0.116589
0.131137
0.148337
0.16854
0.192135
0.219563
0.251338
0.288082
0.130632
0.0727926
0.0634519
0.0604646
0.0594735
0.0595278
0.0603701
0.0619537
0.0643167
0.0675446
0.0717586
0.0771133
0.0837969
0.0920328
0.102079
0.114224
0.128785
0.146098
0.166513
0.190388
0.21809
0.25
0.286535
0.131121
0.0737145
0.0643167
0.0611438
0.0599143
0.059706
0.0602743
0.0615779
0.063657
0.0665983
0.0705247
0.0755945
0.0820032
0.0899846
0.0998118
0.111793
0.126267
0.143588
0.164113
0.18818
0.2161
0.248136
0.28451
0.132321
0.0749774
0.0654494
0.0620634
0.0605832
0.0601071
0.0603992
0.0614203
0.0632103
0.0658542
0.069474
0.0742289
0.0803177
0.0879819
0.0975068
0.109219
0.12348
0.14067
0.161164
0.185304
0.213363
0.245516
0.281819
0.134209
0.0765601
0.0668296
0.063204
0.0614627
0.0607156
0.0607308
0.0614685
0.062965
0.0653012
0.0685949
0.0730026
0.0787225
0.0859996
0.0951274
0.106448
0.120343
0.137225
0.157504
0.181545
0.209618
0.241843
0.278155
0.136815
0.0784629
0.0684527
0.06456
0.0625475
0.0615275
0.0612674
0.0617228
0.0629238
0.0649436
0.0678929
0.0719214
0.0772228
0.0840399
0.092669
0.103463
0.116824
0.13319
0.153013
0.176709
0.204595
0.236776
0.273116
0.140257
0.0807216
0.0703399
0.066146
0.0638496
0.0625546
0.0620221
0.0621991
0.0631056
0.0648039
0.067394
0.071015
0.0758509
0.0821369
0.090167
0.100295
0.112937
0.128558
0.14765
0.170691
0.198066
0.229972
0.266242
0.144784
0.0834279
0.0725505
0.0680054
0.0654039
0.0638287
0.0630272
0.0629325
0.0635497
0.0649266
0.0671483
0.0703396
0.07467
0.0803615
0.087696
0.0970211
0.108755
0.123382
0.141436
0.163458
0.189929
0.221149
0.257093
0.15085
0.0867612
0.0752005
0.0702208
0.0672748
0.0654062
0.0643382
0.0639813
0.0643197
0.0653816
0.0672336
0.0699818
0.0737771
0.0788216
0.0853772
0.093775
0.104423
0.117811
0.1345
0.155097
0.180187
0.210218
0.245324
0.159245
0.0910433
0.0784876
0.0729235
0.0695597
0.0673715
0.0660377
0.0654323
0.0655091
0.0662705
0.0677603
0.0700628
0.073306
0.0776668
0.0833802
0.0907496
0.100159
0.112082
0.127092
0.14584
0.169017
0.197238
0.23086
0.171375
0.0968327
0.0827175
0.0762941
0.0723849
0.0698348
0.0682377
0.0674058
0.067248
0.0677335
0.0688792
0.070745
0.0734329
0.0770914
0.0819224
0.0881919
0.0962444
0.10652
0.119572
0.13607
0.156785
0.182502
0.213847
0.189919
0.10509
0.0883066
0.08053
0.0758781
0.0729181
0.0710761
0.0700595
0.0697121
0.0699604
0.0707919
0.0722415
0.0743848
0.0773399
0.0812717
0.0864015
0.0930219
0.101518
0.112392
0.126293
0.144025
0.166514
0.194668
0.219634
0.117229
0.0956665
0.085735
0.0800939
0.0767104
0.0746935
0.0735816
0.0731277
0.0732033
0.0737682
0.074834
0.0764548
0.0787197
0.0817552
0.0857334
0.0908858
0.0975239
0.106071
0.117101
0.131385
0.14991
0.173828
0.268232
0.134796
0.104826
0.0916755
0.0848562
0.0811484
0.0791367
0.0781205
0.0777387
0.0777737
0.0781664
0.0788978
0.0800271
0.081624
0.0837786
0.0866124
0.0902901
0.0950373
0.101169
0.109135
0.119576
0.133404
0.151853
0.342791
0.157645
0.114694
0.0974641
0.0895063
0.0857324
0.0840403
0.0834708
0.0835635
0.0838971
0.0844542
0.0849427
0.0856172
0.0865697
0.0878612
0.0895639
0.0917741
0.0946248
0.098305
0.103092
0.109405
0.11788
0.129496
0.427854
0.178809
0.122092
0.101364
0.0926788
0.0890819
0.0879222
0.0881152
0.089273
0.0906639
0.0932693
0.0936883
0.0939352
0.0942545
0.0946884
0.0952624
0.0960075
0.0969654
0.0981956
0.0997855
0.101869
0.104656
0.108489
1.69397
1.69413
1.83369
2.36766
0.761992
0.888555
1.04576
1.28347
0.799098
0.93197
1.09384
1.30103
0.972261
1.1106
1.2939
1.54671
1.18002
1.28762
1.47431
1.75927
1.34886
1.39631
1.55534
1.82443
1.3212
1.40363
1.53798
1.75855
1.2983
1.39198
1.4858
1.63716
1.26595
1.40323
1.47974
1.55548
1.15819
1.34971
1.49571
1.55133
0.972031
1.15712
1.35539
1.52348
0.779745
0.920765
1.09299
1.2902
0.62445
0.722109
0.842902
0.989259
0.514289
0.582369
0.664839
0.763433
0.439388
0.488751
0.547105
0.615083
0.390035
0.427936
0.471937
0.522271
0.358803
0.389928
0.425655
0.466205
0.340187
0.367588
0.398825
0.434215
0.330057
0.355687
0.384778
0.417736
0.325303
0.350313
0.378616
0.410669
0.323611
0.348568
0.376728
0.408571
0.32334
0.348397
0.376565
0.408322
0.323414
0.348468
0.376495
0.407948
0.323219
0.348047
0.37565
0.406434
0.322489
0.346855
0.373739
0.403494
0.321192
0.344913
0.370858
0.399318
0.31941
0.34239
0.367287
0.394328
0.317231
0.339473
0.363333
0.388978
0.314669
0.336258
0.359195
0.383594
0.3116
0.332679
0.354881
0.378271
0.307742
0.328476
0.350163
0.372827
0.30266
0.323201
0.344587
0.366804
0.295816
0.316265
0.337511
0.359516
0.286642
0.307014
0.328199
0.350138
0.274641
0.294846
0.315935
0.337838
0.259512
0.279338
0.300169
0.32193
0.241223
0.260317
0.280611
0.302002
0.22003
0.237922
0.257231
0.277913
0.196236
0.212327
0.230066
0.249477
0.169976
0.183336
0.198536
0.215737
0.141461
0.150572
0.161382
0.174252
0.112517
0.115651
0.119506
0.124358
4.11851
4.93074
4.97602
5.4315
6.78602
9.89936
15.4887
24.0363
36.7131
22.8269
7.68185
3.72072
2.40417
1.88932
1.58509
1.3104
1.11697
1.05146
1.25753
1.93989
2.7034
3.45929
4.58343
5.4203
7.10683
10.9782
18.5516
32.2271
23.0734
11.052
4.53726
2.53472
1.88864
1.56035
1.28032
1.08594
1.01714
1.27592
1.69109
2.65039
4.44856
5.86847
6.34262
8.22722
12.786
19.4418
29.2254
24.5827
14.076
5.18641
2.66142
1.9094
1.56666
1.30248
1.10594
1.00579
1.26841
2.00876
3.22278
4.90971
6.22897
7.70065
11.2394
16.7815
21.711
28.7427
31.2727
13.9104
5.13494
2.72096
1.97462
1.62588
1.40956
1.21116
1.0322
1.28079
2.26814
3.50165
5.25922
7.15855
9.56652
13.278
18.0064
23.6251
33.6743
33.4115
11.4437
4.61125
2.74412
2.08893
1.75029
1.61662
1.4475
1.12433
1.35671
2.3062
3.49835
5.34042
7.85026
10.731
14.3271
18.6443
25.2507
35.4394
20.2736
7.93233
4.03426
2.80531
2.25605
1.92779
1.8217
1.69793
1.31646
1.5297
2.15549
3.19028
4.86634
7.41184
10.5469
14.0396
17.4236
22.2768
25.4598
11.6198
5.75725
3.74532
2.96003
2.47068
2.14702
1.99014
1.82655
1.56249
1.56234
1.92367
2.71183
4.05227
6.22856
9.01127
11.8287
14.2763
15.6382
13.3613
7.74244
4.80198
3.75026
3.2269
2.74798
2.44975
2.27095
2.04552
1.77879
1.46641
1.72005
2.24595
3.18201
4.7333
7.19495
9.85169
11.7135
11.3016
9.6831
6.03641
4.42026
3.95595
3.59334
3.13984
2.93233
2.79904
2.49591
2.12907
1.65932
1.61273
1.91116
2.49836
3.4689
4.99429
7.25782
9.44072
9.28098
6.94636
4.90077
4.25069
4.21679
3.99874
3.74197
3.77644
3.69044
3.15578
2.60269
2.16867
1.63548
1.74445
2.06685
2.63719
3.5071
4.72282
6.17003
6.41228
4.95243
4.3127
4.27616
4.41026
4.3998
4.72894
5.28038
4.42976
3.81689
2.90617
2.90437
1.60084
1.7364
1.86338
2.17086
2.66441
3.32635
4.03395
4.31921
4.10341
4.19598
4.53329
4.67269
4.84149
6.33922
6.56373
5.19553
4.10441
2.96475
3.67987
1.27613
1.67521
1.81179
1.97243
2.26187
2.68386
3.16519
3.58289
3.91737
4.4281
5.05378
4.96098
5.01637
6.09641
5.88343
6.38675
4.29375
3.07046
4.39865
0.958062
1.29757
1.6582
1.86585
2.14129
2.48556
2.96267
3.54209
4.11233
4.88605
5.3758
4.94205
4.76382
5.12625
5.73805
6.92065
4.74141
3.25089
5.04459
0.746375
0.974177
1.25613
1.54712
1.86455
2.28879
2.87573
3.51047
4.20682
4.89725
4.95826
4.71609
4.59632
4.97312
6.10712
6.80849
4.86347
3.41716
5.60487
0.617515
0.774679
0.976067
1.23535
1.59228
2.06984
2.73868
3.5714
4.34483
4.60236
4.59337
4.47257
4.46222
5.04957
6.19792
6.3262
4.70228
3.52826
6.02712
0.542407
0.665099
0.826406
1.05395
1.40797
1.97131
2.78395
3.64051
4.19935
4.31311
4.26121
4.17597
4.26267
4.86767
5.71431
5.69706
4.50801
3.61588
6.26882
0.500874
0.608778
0.754389
0.968561
1.31019
1.85645
2.62259
3.41266
3.90676
4.00382
3.93528
3.87235
4.0079
4.49458
5.05963
5.0844
4.29788
3.67995
6.39245
0.480079
0.582648
0.723025
0.93055
1.25517
1.75396
2.42467
3.10811
3.54993
3.66392
3.61791
3.59213
3.73899
4.12568
4.52133
4.59176
4.1248
3.72878
6.41954
0.47146
0.572801
0.711453
0.912477
1.21415
1.65373
2.2185
2.7866
3.17344
3.31183
3.31838
3.34627
3.51289
3.8424
4.17565
4.27849
4.00262
3.76316
6.37483
0.468974
0.570263
0.707383
0.900197
1.17566
1.55508
2.02093
2.48372
2.81788
2.97793
3.04338
3.13269
3.33407
3.65665
3.98341
4.118
3.92863
3.7228
6.4946
0.46843
0.569145
0.703281
0.885735
1.13417
1.45868
1.84064
2.21628
2.50434
2.6785
2.79534
2.94362
3.18903
3.53137
3.87608
4.04967
3.90952
3.63737
6.65572
0.467228
0.565956
0.694971
0.864958
1.08673
1.36339
1.67753
1.98471
2.23464
2.41564
2.57103
2.76759
3.05367
3.42103
3.7905
4.0105
3.89529
3.52165
6.32698
0.464107
0.559178
0.680914
0.836702
1.0327
1.2682
1.52832
1.78277
2.00182
2.18373
2.36357
2.59219
2.90497
3.28832
3.67911
3.95123
3.85967
3.42434
5.85951
0.458817
0.548766
0.661516
0.802007
0.973469
1.17356
1.39044
1.60402
1.7978
1.97577
2.16664
2.4089
2.72828
3.10961
3.50764
3.83363
3.79358
3.36991
5.45838
0.45176
0.535609
0.638381
0.763278
0.91184
1.08141
1.26322
1.44448
1.61689
1.78699
1.97752
2.21625
2.52062
2.87698
3.25797
3.61932
3.66369
3.37667
5.19644
0.443656
0.52102
0.613613
0.723441
0.851172
0.994546
1.14757
1.30264
1.45637
1.61576
1.79763
2.01995
2.29131
2.60212
2.9352
3.28049
3.43219
3.44056
5.25108
0.435257
0.506323
0.589254
0.685257
0.794623
0.915783
1.04509
1.17854
1.31564
1.46267
1.63105
1.8304
2.06116
2.31618
2.58069
2.85835
3.08489
3.4665
5.6706
0.427142
0.492565
0.566915
0.650864
0.744601
0.847296
0.957141
1.07263
1.19487
1.32905
1.4823
1.65814
1.85208
2.05619
2.26065
2.476
2.72067
3.28317
6.31122
0.419584
0.480349
0.547569
0.621553
0.702504
0.790247
0.884343
0.984938
1.09402
1.21573
1.3542
1.50937
1.67458
1.84203
2.00744
2.18649
2.4273
2.99734
6.54151
0.412494
0.469768
0.5315
0.597724
0.668686
0.744712
0.826317
0.914693
1.01225
1.12233
1.24719
1.38498
1.52861
1.67076
1.81004
1.9629
2.18018
2.70839
6.11899
0.405419
0.460413
0.518331
0.578967
0.64257
0.709799
0.781774
0.860285
0.947882
1.04727
1.15961
1.28222
1.40795
1.52934
1.64543
1.76879
1.95195
2.42875
5.46913
0.397598
0.451439
0.507124
0.564191
0.622824
0.683843
0.748682
0.819403
0.898486
0.988108
1.0887
1.19714
1.30614
1.40768
1.49918
1.59256
1.7482
2.17206
4.82517
0.38806
0.441681
0.496504
0.551777
0.607533
0.664586
0.724456
0.789227
0.86115
0.941894
1.03134
1.12608
1.21864
1.30028
1.36749
1.43838
1.5709
1.93988
4.23575
0.375768
0.429813
0.48484
0.53977
0.594393
0.649373
0.70613
0.76659
0.832675
0.90554
0.984531
1.06596
1.14227
1.20385
1.24973
1.30364
1.41553
1.72637
3.70207
0.359802
0.414567
0.470494
0.526138
0.58096
0.635359
0.690521
0.748103
0.809672
0.875894
0.945564
1.01451
1.07436
1.11668
1.14579
1.18367
1.27201
1.52686
3.21568
0.33953
0.394977
0.452135
0.509123
0.565009
0.619842
0.674495
0.730304
0.788484
0.849305
0.91104
0.968668
1.01318
1.03839
1.05099
1.07027
1.12944
1.33402
2.76139
0.314645
0.37055
0.429077
0.487719
0.545077
0.600833
0.655509
0.710093
0.765456
0.821504
0.876022
0.923239
0.953416
0.961575
0.954425
0.949422
0.978313
1.13974
2.32487
0.284759
0.340998
0.401445
0.462192
0.52117
0.577872
0.63255
0.685829
0.738189
0.789132
0.835921
0.871954
0.885995
0.872416
0.841162
0.809922
0.810599
0.933872
1.8926
0.248107
0.304625
0.369284
0.434305
0.495363
0.552823
0.607143
0.658661
0.707391
0.752316
0.790019
0.812483
0.805177
0.759336
0.69826
0.640668
0.615333
0.70543
1.45129
0.199977
0.25328
0.326913
0.406425
0.47166
0.529867
0.583513
0.632988
0.677816
0.716279
0.743861
0.749787
0.711339
0.601763
0.504209
0.428584
0.389084
0.453346
1.07072
0.134894
0.164448
0.233555
0.380135
0.455
0.514278
0.567383
0.615453
0.657688
0.691604
0.711006
0.700158
0.616944
0.328105
0.232369
0.19133
0.17363
0.208413
0.896404
)
;

boundaryField
{
    leftWall
    {
        type            epsilonWallFunction;
        value           nonuniform List<scalar> 
50
(
0.020852
0.0269198
0.0343181
0.0374851
0.0374563
0.0358652
0.0348801
0.0364371
0.0478515
0.083985
0.127588
0.170111
0.188428
0.200698
0.206136
0.209031
0.210117
0.209737
0.20806
0.205162
0.201131
0.196111
0.190287
0.183861
0.177038
0.170034
0.163092
0.156465
0.150375
0.14499
0.140414
0.13671
0.133899
0.131973
0.130898
0.130632
0.131121
0.132321
0.134209
0.136815
0.140257
0.144784
0.15085
0.159245
0.171375
0.189919
0.219634
0.268232
0.342791
0.427854
)
;
    }
    rightWall
    {
        type            epsilonWallFunction;
        value           nonuniform List<scalar> 
50
(
0.384641
0.433923
0.665135
0.853525
0.986327
1.08775
1.16536
1.22067
1.25753
1.27592
1.26841
1.28079
1.35671
1.5297
1.56234
1.46641
1.65932
2.16867
2.90437
3.67987
4.39865
5.04459
5.60487
6.02712
6.26882
6.39245
6.41954
6.37483
6.4946
6.65572
6.32698
5.85951
5.45838
5.19644
5.25108
5.6706
6.31122
6.54151
6.11899
5.46913
4.82517
4.23575
3.70207
3.21568
2.76139
2.32487
1.8926
1.45129
1.07072
0.896404
)
;
    }
    lowerWall
    {
        type            epsilonWallFunction;
        value           nonuniform List<scalar> 
62
(
0.020852
0.0567774
0.0949029
0.133057
0.169692
0.20494
0.239434
0.27321
0.305931
0.336973
0.365356
0.389811
0.40897
0.421503
0.426168
0.422062
0.408828
0.385391
0.352518
0.311278
0.259654
0.184353
0.0852713
0.0852713
0.10775
0.166825
0.240099
0.344334
0.514771
0.815079
1.33248
1.69397
1.69413
1.83369
2.36766
6.79318
8.99551
12.5427
13.649
12.3929
10.6554
8.83967
6.9408
6.79318
14.1464
18.4361
19.0328
16.3357
12.1186
8.70824
6.87366
6.24294
6.29696
6.71883
7.18892
7.36941
6.891
5.76604
4.41676
3.15374
1.74131
0.384641
)
;
    }
    atmosphere
    {
        type            inletOutlet;
        inletValue      uniform 0.1;
        value           nonuniform List<scalar> 
46
(
0.427854
0.178809
0.122092
0.101364
0.0926788
0.0890819
0.0879222
0.0881152
0.089273
0.0906639
0.1
0.1
0.1
0.1
0.1
0.1
0.1
0.1
0.1
0.1
0.1
0.1
0.1
0.1
0.1
0.1
0.1
0.1
0.1
0.1
0.380135
0.455
0.514278
0.567383
0.615453
0.657688
0.691604
0.711006
0.700158
0.616944
0.1
0.1
0.1
0.1
0.1
0.896404
)
;
    }
    defaultFaces
    {
        type            empty;
    }
}


// ************************************************************************* //
