/*--------------------------------*- C++ -*----------------------------------*\
  =========                 |
  \\      /  F ield         | OpenFOAM: The Open Source CFD Toolbox
   \\    /   O peration     | Website:  https://openfoam.org
    \\  /    A nd           | Version:  7
     \\/     M anipulation  |
\*---------------------------------------------------------------------------*/
FoamFile
{
    version     2.0;
    format      ascii;
    class       volScalarField;
    location    "0.75";
    object      p_rgh;
}
// * * * * * * * * * * * * * * * * * * * * * * * * * * * * * * * * * * * * * //

dimensions      [1 -1 -2 0 0 0 0];

internalField   nonuniform List<scalar> 
2268
(
596.92
594.599
596.579
602.55
611.922
623.813
637.719
653.277
670.187
688.193
707.076
726.627
746.651
766.97
787.382
807.6
827.271
845.953
861.849
874.474
883.504
888.099
887.523
596.961
594.14
596.06
602.289
611.947
624.075
638.192
653.908
670.901
688.913
707.743
727.198
747.095
767.262
787.501
807.538
827.02
845.513
861.899
873.12
880.271
882.896
884.076
594.98
592.797
595.472
602.076
611.966
624.331
638.687
654.602
671.718
689.773
708.577
727.94
747.692
767.664
787.665
807.429
826.588
844.68
861.057
874.111
880.427
881.711
880.664
591.64
590.595
594.37
601.455
611.632
624.244
638.84
654.97
672.245
690.387
709.221
728.551
748.203
768.023
787.833
807.367
826.258
844.036
860.038
873.005
880.995
882.142
877.519
587.538
587.791
592.707
600.299
610.793
623.665
638.51
654.885
672.36
690.641
709.574
728.943
748.56
768.296
788.006
807.418
826.166
843.838
859.815
872.903
881.299
882.556
874.898
582.839
584.467
590.504
598.615
609.448
622.597
637.712
654.375
672.095
690.561
709.654
729.129
748.772
768.485
788.192
807.598
826.324
844.071
860.334
873.986
883.59
885.648
871.336
577.487
580.372
587.494
596.153
607.386
620.902
636.389
653.461
671.52
690.215
709.516
729.15
748.857
768.593
788.385
807.887
826.685
844.639
861.424
876.158
888.243
891.596
864.367
571.139
574.832
582.39
591.366
603.126
617.39
633.722
651.716
670.494
689.575
709.197
729.052
748.837
768.599
788.525
808.185
827.126
845.373
862.852
879.214
894.784
899.977
863.573
1300.25
1002.62
753.343
591.694
537.883
544.628
566.559
590.37
616.136
661.113
759.718
930.822
1128.34
1269.58
1326.53
1330.37
1311.78
1268.33
1236.53
1354.68
1000
729.632
573.344
530.062
548.309
573.354
592.746
610.581
644.156
726.531
877.557
1063.86
1207.12
1273.59
1286.06
1278.98
1251.8
1236.46
1320.97
902.92
637.785
521.204
505.144
542.881
573.505
591.947
603.583
624.7
688.423
820.874
998.979
1143.92
1217.93
1242.48
1245.5
1235.07
1227.07
1207.3
722.06
414.338
343.149
370.039
476.42
552.585
582.883
591.13
599.99
646.585
768.386
949.706
1099.21
1174.22
1210.58
1237.18
1229.47
1210.64
1103.8
530.199
345.538
313.337
304.478
330.171
373.787
427.244
488.228
538.779
599.866
722.99
913.599
1068.95
1136.84
1166.36
1213.98
1242.54
1202.41
1065.3
413.93
331.729
302.378
289.78
341.994
376.127
343.82
309.953
318.493
433.304
652.323
891.153
1044.87
1058.2
1072.34
1190.82
1231.26
1191.04
1078.77
455.586
338.293
365.96
493.888
521.887
382.75
331.626
314.462
306.369
313.488
493.279
842.052
1020.82
1008.39
1043.31
1101.01
1210.58
1188.04
1015.45
668.926
553.499
553.249
515.844
534.734
541.722
347.835
311.683
305.416
312.213
418.865
771.772
978.244
1008.09
1010.14
1043.69
1176.03
1179.18
406.332
418.688
432.878
455.421
492.921
538.841
586.129
632.209
666.745
687.14
707.945
728.571
748.586
768.359
788.572
808.571
827.745
846.401
865.057
884.183
903.659
914.717
918.468
14.3914
20.1109
27.2734
38.3235
58.8672
95.4631
151.815
227.263
325.745
444.567
558.997
658.564
729.407
767.127
788.641
810.26
828.981
846.742
865.854
886.295
906.599
922.146
935.409
0.624308
0.61496
0.659336
0.692632
0.702904
0.680884
0.648794
0.645632
1.85996
17.7633
55.8149
112.988
189.004
305.443
486.384
658.156
740.222
772.276
811.767
856.822
883.919
915.696
959.543
0.573013
0.559889
0.546887
0.532689
0.51875
0.507155
0.501233
0.507837
0.527443
0.528096
0.466968
0.424208
0.410316
0.387317
0.470379
2.88958
31.5739
109.951
219.082
301.754
338.825
389.637
557.711
0.541109
0.53754
0.535341
0.531355
0.52472
0.5161
0.50806
0.502368
0.49279
0.466827
0.445835
0.440747
0.448797
0.465035
0.491384
0.520465
0.530919
0.493515
0.517333
0.620157
0.84537
1.83614
6.54961
0.512617
0.512088
0.513115
0.513068
0.510378
0.504908
0.498273
0.491758
0.483083
0.468182
0.456724
0.453601
0.458841
0.471272
0.491423
0.524872
0.562852
0.609215
0.675981
0.768516
0.899555
1.17328
2.12115
0.486249
0.486428
0.486927
0.486704
0.485047
0.48187
0.477885
0.473804
0.469189
0.462809
0.45756
0.457077
0.463098
0.47609
0.4972
0.527989
0.566002
0.616591
0.687031
0.785111
0.922852
1.09294
1.33902
0.461792
0.46234
0.462786
0.462582
0.461534
0.459711
0.457476
0.455227
0.453033
0.450785
0.449963
0.45278
0.460794
0.474908
0.496094
0.525064
0.561862
0.609188
0.67179
0.752688
0.851968
0.956839
1.05083
0.438419
0.439211
0.439796
0.439818
0.439273
0.438324
0.437239
0.436314
0.435774
0.435883
0.437628
0.442369
0.451282
0.465277
0.485165
0.511528
0.544694
0.585766
0.636162
0.695199
0.758782
0.814416
0.852265
0.416147
0.416926
0.417505
0.417622
0.417357
0.416934
0.416596
0.416596
0.417178
0.418647
0.421638
0.427028
0.435716
0.448503
0.46601
0.488571
0.516212
0.548941
0.586307
0.626273
0.664428
0.690466
0.692683
0.394895
0.395515
0.395972
0.396049
0.395869
0.395688
0.395739
0.396237
0.397389
0.399427
0.402742
0.407911
0.415612
0.426477
0.440906
0.458928
0.480196
0.504025
0.529021
0.552704
0.571082
0.576333
0.558197
0.374566
0.374973
0.375239
0.375186
0.374949
0.374788
0.374926
0.37554
0.376778
0.378782
0.381773
0.386124
0.392334
0.400853
0.411855
0.4251
0.439919
0.455222
0.469275
0.479426
0.482177
0.471825
0.440912
0.35509
0.355279
0.35532
0.355077
0.354671
0.354354
0.354333
0.354752
0.355704
0.357242
0.359466
0.362617
0.367051
0.373041
0.380539
0.389081
0.397823
0.405466
0.410229
0.409721
0.401034
0.379665
0.341004
0.336403
0.3364
0.336216
0.335743
0.335084
0.334472
0.3341
0.334088
0.334478
0.335252
0.336431
0.338168
0.340709
0.344172
0.348311
0.352472
0.35571
0.356765
0.353953
0.345251
0.328287
0.299794
0.256407
0.318444
0.318288
0.317903
0.317183
0.316215
0.315213
0.314358
0.313748
0.313386
0.313209
0.313193
0.313441
0.314109
0.315169
0.316214
0.316461
0.314924
0.31047
0.30167
0.28683
0.264036
0.230878
0.184804
0.301156
0.300889
0.300341
0.299379
0.298076
0.296633
0.295215
0.293905
0.292685
0.291471
0.290223
0.289008
0.287912
0.286785
0.28507
0.281894
0.276311
0.267365
0.253934
0.234627
0.207875
0.171908
0.124655
0.284482
0.284143
0.283472
0.282285
0.28065
0.278748
0.27673
0.274671
0.272552
0.270297
0.267863
0.265286
0.26258
0.259499
0.255381
0.249286
0.240337
0.227793
0.210849
0.188402
0.15909
0.121656
0.0744781
0.268364
0.267977
0.267224
0.265844
0.263898
0.261547
0.258924
0.256106
0.253099
0.249853
0.246322
0.242506
0.238357
0.233556
0.227372
0.218848
0.207178
0.191831
0.172283
0.147705
0.116912
0.0789139
0.0325634
0.25271
0.252345
0.251528
0.249994
0.247783
0.245027
0.241837
0.238302
0.234473
0.230327
0.22581
0.220882
0.215434
0.209105
0.201147
0.190622
0.176803
0.159338
0.137937
0.111976
0.0804682
0.0426233
-0.00244355
0.237492
0.237155
0.236304
0.234661
0.232252
0.229175
0.225516
0.22138
0.216858
0.21195
0.206584
0.200672
0.194049
0.186332
0.176807
0.164612
0.14911
0.130074
0.107405
0.0806507
0.0489681
0.0117651
-0.0315897
0.222664
0.22235
0.221476
0.219762
0.217223
0.213928
0.209941
0.205378
0.20035
0.19486
0.188811
0.182059
0.17439
0.165402
0.154456
0.140822
0.123991
0.103822
0.0803245
0.0532018
0.0217712
-0.0144093
-0.0557643
0.208192
0.207893
0.206996
0.205232
0.202622
0.199208
0.195038
0.190227
0.184887
0.179007
0.172454
0.165028
0.156456
0.146325
0.134085
0.119185
0.101289
0.0803481
0.0564135
0.0292794
-0.00157391
-0.036418
-0.0755291
0.194072
0.193775
0.192856
0.191072
0.18845
0.18501
0.180776
0.175857
0.170351
0.164228
0.157327
0.149392
0.140079
0.128954
0.115567
0.0995719
0.0808407
0.0594391
0.035444
0.00868855
-0.0212372
-0.0544672
-0.0911276
0.180317
0.180014
0.179084
0.177324
0.174766
0.171394
0.167201
0.162267
0.15667
0.150378
0.143224
0.134913
0.125026
0.113098
0.0987687
0.0819032
0.0625975
0.041046
0.0173486
-0.00865122
-0.0372917
-0.0686181
-0.102658
0.166962
0.166647
0.165719
0.164032
0.161613
0.158409
0.154354
0.149474
0.143814
0.137361
0.129985
0.12138
0.111074
0.0985695
0.0835781
0.0661521
0.0465963
0.0252307
0.00217837
-0.0227235
-0.0497751
-0.0789637
-0.110255
0.154054
0.153725
0.152811
0.151221
0.148987
0.146018
0.142185
0.137418
0.131708
0.12508
0.117476
0.108625
0.0980308
0.0851877
0.0698693
0.052272
0.0328612
0.0120519
-0.0100204
-0.033529
-0.0587525
-0.0856433
-0.114128
0.141652
0.141314
0.140419
0.138917
0.136851
0.134119
0.130536
0.125918
0.120181
0.113387
0.105569
0.0965221
0.0857743
0.0728395
0.0575524
0.0402083
0.0213671
0.00148796
-0.0193048
-0.0412012
-0.064462
-0.0890096
-0.114725
0.129805
0.129478
0.128609
0.127163
0.125189
0.12261
0.119218
0.11473
0.108999
0.102101
0.0941484
0.0850134
0.0742814
0.061518
0.0466163
0.0299266
0.0120351
-0.00661233
-0.0259287
-0.0461238
-0.0674374
-0.0897584
-0.112921
0.118542
0.11825
0.117423
0.115995
0.114006
0.111433
0.108087
0.103656
0.0979621
0.0910871
0.0831732
0.0741423
0.0636464
0.0513213
0.0371136
0.0213894
0.00470589
-0.0125484
-0.0303393
-0.0488909
-0.0684113
-0.0887547
-0.109725
0.107851
0.107616
0.106847
0.105404
0.103303
0.100576
0.0971019
0.092626
0.0870142
0.0803453
0.0727307
0.0640803
0.0540829
0.0424387
0.0291399
0.0145452
-0.000845383
-0.0167144
-0.033072
-0.0501364
-0.0680717
-0.0867039
-0.105824
0.0976841
0.0975117
0.0967978
0.0953146
0.0930435
0.0900571
0.0863249
0.0817405
0.0762833
0.0700344
0.0630179
0.0550578
0.0458215
0.0350422
0.0227451
0.00927855
-0.00490648
-0.019541
-0.0346448
-0.0503984
-0.0669105
-0.0839957
-0.101443
0.0879671
0.0878405
0.0871505
0.0856017
0.0831545
0.0798971
0.0758991
0.0712424
0.0660565
0.0604255
0.0542519
0.0472201
0.0389226
0.0290885
0.0177641
0.00530295
-0.0078563
-0.0214482
-0.03546
-0.0500078
-0.0651418
-0.0806832
-0.096449
0.0786249
0.0785072
0.0777858
0.0761474
0.073562
0.0701271
0.0660031
0.0614401
0.056688
0.0518116
0.0465825
0.0405387
0.0331854
0.0242369
0.0137682
0.00216737
-0.0101004
-0.0227362
-0.0356746
-0.0489692
-0.0626338
-0.0765131
-0.0904907
0.0695949
0.069443
0.0686369
0.0668959
0.0642402
0.0607961
0.0567978
0.0525899
0.0484509
0.044376
0.0400178
0.0348136
0.0282289
0.0200007
0.0102625
-0.000536487
-0.0118858
-0.0234548
-0.0351506
-0.0470066
-0.0590419
-0.0711474
-0.0832909
0.0608298
0.0606138
0.0597007
0.0578737
0.0552341
0.0519716
0.0483731
0.0447789
0.0413793
0.038047
0.0343499
0.0297126
0.0236528
0.0159953
0.0069634
-0.00293216
-0.0131624
-0.0234142
-0.0336283
-0.0438726
-0.0542043
-0.0645749
-0.0750177
0.0522939
0.0520029
0.0510058
0.0491526
0.0466313
0.0437169
0.0407185
0.0378791
0.0352129
0.0324579
0.0291653
0.0248541
0.0191866
0.0121189
0.00395192
-0.00479637
-0.013651
-0.0223851
-0.0310206
-0.0396766
-0.048434
-0.0572836
-0.0662829
0.0439558
0.0435796
0.0425585
0.0407812
0.0384986
0.0360548
0.0337318
0.031611
0.029517
0.0271119
0.0240331
0.0199864
0.0148206
0.00859387
0.00159715
-0.00574841
-0.0130996
-0.0203427
-0.0275586
-0.0348625
-0.0422966
-0.0498386
-0.0575387
0.0357918
0.0352813
0.0343158
0.0327436
0.0308367
0.028944
0.0272552
0.025675
0.0239104
0.0216707
0.0187835
0.0151772
0.0108418
0.00582279
0.00026678
-0.00559375
-0.0115573
-0.0175574
-0.0236336
-0.0298115
-0.0360457
-0.0422669
-0.0485273
0.0277137
0.0271018
0.0262272
0.0249931
0.0235915
0.0222827
0.021114
0.0198637
0.0182534
0.0161641
0.0136561
0.0108177
0.00765752
0.00407222
-2.09904e-05
-0.00456788
-0.00941127
-0.0144043
-0.0194566
-0.0244891
-0.0294046
-0.0341147
-0.038703
0.0197095
0.0190311
0.0183179
0.0175196
0.0166748
0.015905
0.0151267
0.0141031
0.0126867
0.0109772
0.0091912
0.00737755
0.00547955
0.00321461
0.000333273
-0.0031579
-0.00702156
-0.0109792
-0.0148533
-0.0185562
-0.0220195
-0.0251819
-0.0281359
0.0118216
0.0112015
0.0107144
0.0103218
0.00992899
0.00955932
0.00910646
0.00842182
0.00750451
0.00659752
0.0057772
0.00489666
0.00396086
0.00266414
0.000759762
-0.00169511
-0.00441047
-0.00708992
-0.00959024
-0.0118911
-0.0139786
-0.0158304
-0.0174679
0.00408001
0.00369582
0.00342482
0.00325589
0.00311511
0.00300295
0.00287762
0.00269523
0.00249608
0.00243906
0.00240163
0.00211024
0.00179367
0.00130013
0.000526945
-0.0004764
-0.0015657
-0.0026103
-0.00355983
-0.0044231
-0.00521084
-0.00590682
-0.00651842
984.826
1005.01
1014.21
1018.2
955.13
959.385
954.447
949.745
978.24
977.33
968.238
953.184
865.359
1040.68
1031.07
1010.46
277.77
914.357
1094.2
1054.98
6.61422
286.876
894.952
1092.59
2.39509
12.0103
344.665
781.456
1.40661
4.75556
51.7145
416.686
0.952857
1.63532
4.46826
69.3943
0.710361
0.834427
1.18128
2.645
0.530594
0.535241
0.60096
0.727314
0.401997
0.379866
0.367626
0.380443
0.301934
0.278748
0.253582
0.228949
0.215039
0.189948
0.163819
0.128679
0.140981
0.111319
0.0811269
0.0454897
0.0798172
0.0471827
0.0119693
-0.0251527
0.0299036
-0.00353098
-0.0406161
-0.0789206
-0.0107288
-0.0435985
-0.0802539
-0.117603
-0.0439212
-0.0753096
-0.110177
-0.145278
-0.0708804
-0.100355
-0.132705
-0.164912
-0.0926229
-0.119934
-0.149474
-0.178518
-0.109721
-0.134652
-0.161245
-0.187098
-0.122481
-0.144925
-0.168538
-0.19131
-0.131147
-0.151176
-0.171988
-0.19196
-0.135985
-0.153825
-0.172205
-0.189767
-0.137166
-0.153011
-0.169336
-0.184948
-0.13513
-0.149145
-0.163732
-0.177822
-0.130974
-0.143407
-0.156487
-0.169255
-0.125914
-0.137063
-0.148792
-0.160209
-0.12055
-0.130624
-0.141072
-0.151078
-0.114821
-0.123824
-0.132938
-0.141534
-0.108381
-0.116204
-0.123928
-0.131201
-0.100931
-0.107619
-0.114146
-0.120333
-0.0923896
-0.0982348
-0.10399
-0.109427
-0.0830185
-0.0883188
-0.0935662
-0.0983928
-0.073359
-0.078136
-0.0826992
-0.0867031
-0.0636536
-0.0676683
-0.0712115
-0.0741692
-0.0534278
-0.0564969
-0.0590714
-0.0611998
-0.0422106
-0.0444784
-0.046555
-0.0483301
-0.0303594
-0.0320693
-0.0338929
-0.0354774
-0.0185345
-0.0195797
-0.0209048
-0.0221757
-0.00683828
-0.00726219
-0.00797892
-0.00878857
1033.35
825.547
657.013
546.711
278.324
273.37
482.193
392.42
293.666
297.168
304.712
404.056
735.163
912.756
972.606
977.26
1025.24
1143.02
1153.81
965.313
693.378
327.655
131.034
103.197
105.832
207.792
331.954
250.405
266.9
278.675
516.808
851.007
825.141
801.448
817.554
1014.86
1107.56
1128.96
791.889
204.749
99.7107
101.757
102.4
102.744
101.129
177.846
187.371
221.654
239.975
673.799
890.898
936.137
593.144
401.786
618.659
1048.73
1120.43
625.194
100.971
101.623
101.854
102.165
102.72
103.83
101.798
132.395
175.468
268.507
871.518
932.774
908.439
408.942
344.906
342.475
588.42
1134.46
613.222
101.394
101.677
101.769
101.878
104.469
105.887
102.586
115.682
135.882
360.284
936.232
992.847
530.056
324.53
332.907
331.924
322.61
793.433
756.747
140.691
101.843
102.047
102.384
103.168
102.038
102.033
107.649
131.593
728.827
1005.58
1045.34
330.22
316.731
325.623
324.414
314.991
300.383
832.336
404.125
101.927
102.349
102.232
101.816
101.053
100.66
102.021
169.683
1047.8
1083.84
955.446
316.12
306.043
490.436
470.295
314.845
299.767
767.483
727.4
286.444
101.988
102.308
101.737
100.907
100.095
98.1862
181.045
1110.86
1100.67
572.503
455.572
467.144
532.428
546.331
499.479
296.649
508.192
804.748
809.186
163.855
101.661
101.694
100.863
100.446
98.0442
391.001
1174.28
395.077
240.203
508.059
515.564
511.767
540.852
539.971
445.651
114.217
723.087
854.479
815.211
173.013
100.884
100.727
100.383
96.4879
1162.48
1175.33
151.711
137.27
487.649
427.619
150.781
250.866
523.038
531.156
1.33254
188.262
813.337
889.209
898.576
358.929
99.692
106.635
629.693
1309
579.619
179.658
101.482
150.449
34.2196
35.905
67.7429
336.693
536.811
0.453951
0.730766
161.631
765.238
922.859
946.853
890.295
996.081
980.652
1003.18
111.96
78.8893
56.4718
3.40687
4.86422
12.7101
124.695
345.268
451.635
0.208893
0.214817
0.130968
77.1565
489.231
796.023
871.974
758.761
637.355
91.66
2.80351
18.6807
29.1719
1.03569
1.36718
1.99994
122.858
431.806
460.848
0.0613817
0.00242111
0.04271
-0.427512
5.23083
74.4445
115.968
64.6571
9.96421
-0.0520586
1.78629
20.8548
24.2989
0.23639
0.216312
-0.481372
7.32368
458.713
481.111
-0.0289927
-0.149606
-0.233456
-0.380206
-0.707882
-1.37729
-2.18698
-1.81558
-0.949249
-0.381762
3.22148
8.2073
1.56031
-0.346472
-0.289905
-0.86786
-0.765295
415.261
491.027
-0.0943639
-0.221201
-0.36625
-0.528407
-0.682274
-0.795583
-0.948035
-0.960602
-0.862982
0.223373
0.782493
-0.887046
-0.86987
-0.675317
-0.678967
-1.01914
-1.50227
81.1241
504.806
-0.144192
-0.254406
-0.388265
-0.546513
-0.702151
-0.812111
-0.919894
-0.937828
-0.66925
-0.342191
-0.992729
-1.01234
-0.94883
-0.84709
-0.81553
-1.10845
-1.43077
1.79599
520.842
-0.178939
-0.275219
-0.38673
-0.513384
-0.641864
-0.751591
-0.841054
-0.862714
-0.669425
-0.940748
-0.992144
-1.01767
-0.998664
-0.9349
-0.790359
-1.05292
-0.908774
-1.148
543.08
-0.201596
-0.286643
-0.381997
-0.483998
-0.584301
-0.673852
-0.750304
-0.783766
-0.833572
-0.924412
-0.981004
-1.01801
-1.02188
-0.998255
-0.797514
-0.968562
-0.531853
-0.985404
441.169
-0.215871
-0.290844
-0.373578
-0.460066
-0.543911
-0.620105
-0.689643
-0.749919
-0.824269
-0.893562
-0.956659
-0.999548
-1.01113
-0.997235
-0.787626
-0.841512
-0.716634
-0.759587
54.588
-0.224107
-0.290165
-0.362198
-0.437007
-0.510123
-0.578433
-0.64458
-0.711457
-0.780825
-0.850448
-0.912817
-0.954607
-0.965789
-0.950295
-0.787449
-0.740131
-0.874064
-0.89762
-0.687235
-0.22757
-0.285801
-0.34868
-0.413743
-0.477948
-0.540004
-0.601783
-0.664723
-0.730147
-0.794962
-0.851255
-0.887429
-0.89411
-0.873999
-0.711675
-0.620139
-0.746382
-0.628977
0.369502
-0.227103
-0.278469
-0.333478
-0.390189
-0.446522
-0.502133
-0.557996
-0.61531
-0.674148
-0.731264
-0.779426
-0.808573
-0.810758
-0.770055
-0.578108
-0.56325
-0.599377
0.899513
64.5022
-0.223557
-0.26889
-0.317115
-0.36666
-0.416032
-0.465184
-0.514759
-0.56531
-0.616429
-0.66514
-0.705529
-0.729335
-0.730188
-0.648032
-0.487587
-0.545159
-0.498801
5.57326
112.679
-0.217643
-0.257711
-0.300064
-0.343442
-0.386658
-0.429713
-0.47297
-0.5166
-0.56015
-0.601304
-0.635481
-0.656916
-0.660927
-0.566638
-0.423211
-0.478588
-0.460419
11.1599
116.706
-0.209758
-0.245302
-0.282565
-0.32055
-0.358264
-0.395664
-0.432952
-0.470171
-0.506928
-0.541864
-0.571919
-0.593511
-0.604046
-0.53018
-0.389636
-0.5041
-0.497221
13.9762
118.891
-0.200239
-0.231897
-0.264732
-0.297922
-0.330655
-0.362839
-0.394604
-0.426083
-0.457043
-0.486827
-0.514032
-0.536819
-0.554469
-0.483348
-0.548213
-0.550543
-0.590063
10.6014
45.3942
-0.189585
-0.217748
-0.246604
-0.27544
-0.303612
-0.331035
-0.35776
-0.383976
-0.409762
-0.434959
-0.45922
-0.482141
-0.504411
-0.482413
-0.525067
-0.581863
-0.656086
0.756506
-0.806796
-0.17834
-0.203173
-0.228276
-0.253058
-0.277009
-0.300113
-0.322303
-0.343666
-0.364546
-0.385264
-0.405879
-0.42629
-0.434393
-0.455952
-0.495503
-0.540937
-0.607175
-0.625248
-0.544843
-0.166847
-0.188494
-0.210075
-0.231098
-0.251173
-0.270333
-0.288475
-0.30552
-0.32178
-0.337805
-0.35382
-0.36959
-0.379519
-0.395766
-0.419942
-0.445528
-0.479171
-0.457269
-0.294482
-0.155068
-0.17385
-0.192349
-0.21006
-0.226706
-0.24233
-0.256795
-0.269904
-0.282003
-0.293424
-0.304308
-0.314199
-0.323228
-0.329685
-0.333667
-0.338125
0.174857
0.177697
-0.0768942
-0.142871
-0.159224
-0.175165
-0.190098
-0.203819
-0.216294
-0.227439
-0.23707
-0.245367
-0.252556
-0.258599
-0.263099
-0.26491
-0.260842
-0.252401
-0.152782
1.33598
1.26753
0.0363547
-0.130471
-0.144725
-0.158448
-0.171024
-0.182276
-0.192027
-0.200164
-0.206735
-0.211752
-0.21532
-0.217411
-0.217514
-0.212886
-0.202761
-0.192381
1.15924
1.46195
0.919568
0.0775655
-0.118195
-0.130475
-0.142101
-0.152533
-0.161633
-0.169108
-0.174541
-0.17856
-0.180894
-0.181685
-0.181044
-0.17773
-0.169366
-0.156578
0.287699
1.59236
1.60459
0.170525
0.105974
-0.105823
-0.11617
-0.125804
-0.13425
-0.141456
-0.147094
-0.1507
-0.151848
-0.140396
-0.123369
-0.121424
-0.134779
-0.13361
-0.12305
1.52504
1.67527
1.18329
0.0462138
0.122696
-0.0927615
-0.10132
-0.109237
-0.115991
-0.121627
-0.125857
-0.128163
-0.110366
-0.0959893
-0.094241
-0.0915931
-0.113313
-0.110447
1.16594
1.70713
1.75179
0.248011
0.0461561
0.123919
-0.0789099
-0.0860034
-0.0926245
-0.0980979
-0.102489
-0.105639
-0.107104
-0.102066
-0.0748115
-0.0705504
-0.0887942
-0.0981897
0.145264
1.68052
1.74486
0.409972
-0.0111758
0.0471303
0.113946
-0.0649124
-0.0708796
-0.0765984
-0.0811144
-0.0844155
-0.0865905
-0.0873104
-0.0865317
-0.0808272
-0.0766039
-0.0783967
-0.0772403
0.178635
0.179819
-0.0624693
-0.0365525
-0.00460526
0.0399677
0.0961665
-0.0513329
-0.0563561
-0.061523
-0.0652817
-0.0674013
-0.0685404
-0.0684898
-0.0670581
-0.0643887
-0.0607971
-0.0567088
-0.0518596
-0.0508602
-0.0460353
-0.0372287
-0.0236781
-0.00399155
0.0279535
0.07314
-0.0379203
-0.0422148
-0.047703
-0.0513981
-0.0520089
-0.0520373
-0.0512679
-0.0492716
-0.0459426
-0.0413203
-0.0354667
-0.0291855
-0.021972
-0.0193448
-0.0185367
-0.0141692
-0.00610661
0.0134539
0.046937
-0.0242945
-0.0285989
-0.0368622
-0.0423403
-0.0405104
-0.0394136
-0.0381727
-0.0357035
-0.0314914
-0.0251292
-0.0162545
-0.00452855
0.0122916
0.0106534
-0.00203484
-0.00751015
-0.010963
-0.00296162
0.0397758
-0.0103179
-0.0158267
-0.0299077
-0.0320382
-0.0271216
-0.0254751
-0.0243894
-0.0222218
-0.0181756
-0.0115314
-0.000980157
0.0176871
0.046859
0.0482621
0.00978711
-0.00553847
-0.0167507
-0.0195749
0.0221447
)
;

boundaryField
{
    leftWall
    {
        type            fixedFluxPressure;
        gradient        uniform 0;
        value           nonuniform List<scalar> 
50
(
596.92
596.961
594.98
591.64
587.538
582.839
577.487
571.139
406.332
14.3914
0.624308
0.573013
0.541109
0.512617
0.486249
0.461792
0.438419
0.416147
0.394895
0.374566
0.35509
0.336403
0.318444
0.301156
0.284482
0.268364
0.25271
0.237492
0.222664
0.208192
0.194072
0.180317
0.166962
0.154054
0.141652
0.129805
0.118542
0.107851
0.0976841
0.0879671
0.0786249
0.0695949
0.0608298
0.0522939
0.0439558
0.0357918
0.0277137
0.0197095
0.0118216
0.00408001
)
;
    }
    rightWall
    {
        type            fixedFluxPressure;
        gradient        uniform 0;
        value           nonuniform List<scalar> 
50
(
1236.53
1236.46
1227.07
1210.64
1202.41
1191.04
1188.04
1179.18
1153.81
1128.96
1120.43
1134.46
793.433
300.383
299.767
296.649
445.651
531.156
536.811
451.635
460.848
481.111
491.027
504.806
520.842
543.08
441.169
54.588
-0.687235
0.369502
64.5022
112.679
116.706
118.891
45.3942
-0.806796
-0.544843
-0.294482
-0.0768942
0.0363547
0.0775655
0.105974
0.122696
0.123919
0.113946
0.0961665
0.07314
0.046937
0.0397758
0.0221447
)
;
    }
    lowerWall
    {
        type            fixedFluxPressure;
        gradient        uniform 0;
        value           nonuniform List<scalar> 
62
(
596.92
594.599
596.579
602.55
611.922
623.813
637.719
653.277
670.187
688.193
707.076
726.627
746.651
766.97
787.382
807.6
827.271
845.953
861.849
874.474
883.504
888.099
887.523
887.523
884.076
880.664
877.519
874.898
871.336
864.367
863.573
984.826
1005.01
1014.21
1018.2
1300.25
1354.68
1320.97
1207.3
1103.8
1065.3
1078.77
1015.45
1300.25
1002.62
753.343
591.694
537.883
544.628
566.559
590.37
616.136
661.113
759.718
930.822
1128.34
1269.58
1326.53
1330.37
1311.78
1268.33
1236.53
)
;
    }
    atmosphere
    {
        type            totalPressure;
        rho             rho;
        psi             none;
        gamma           1;
        p0              uniform 0;
        value           nonuniform List<scalar> 
46
(
0
0
0
0
0
0
0
0
0
0
0
-2.10782e-06
-1.20943e-05
-3.07911e-05
-5.78335e-05
-9.38122e-05
-0.000141047
-0.000201339
-0.000272392
-0.000346029
-0.000409159
-0.00044489
-0.000433314
-0.000387583
-0.000356531
-0.000326612
-0.000297417
-0.000243661
-0.000103052
-7.89227e-08
0
0
0
0
0
0
0
0
0
0
-0.000725577
-0.00281154
-0.00578566
-0.00690904
-0.0029009
0
)
;
    }
    defaultFaces
    {
        type            empty;
    }
}


// ************************************************************************* //
