/*--------------------------------*- C++ -*----------------------------------*\
  =========                 |
  \\      /  F ield         | OpenFOAM: The Open Source CFD Toolbox
   \\    /   O peration     | Website:  https://openfoam.org
    \\  /    A nd           | Version:  7
     \\/     M anipulation  |
\*---------------------------------------------------------------------------*/
FoamFile
{
    version     2.0;
    format      ascii;
    class       volScalarField;
    location    "0.007";
    object      iDofMean;
}
// * * * * * * * * * * * * * * * * * * * * * * * * * * * * * * * * * * * * * //

dimensions      [0 -3 0 0 0 0 0];

internalField   nonuniform List<scalar> 
654
(
1.532464449e+20
1.97764799e+20
1.983122777e+20
1.96854318e+20
1.981099486e+20
1.964972666e+20
1.970090402e+20
1.963901512e+20
1.961223627e+20
1.968483671e+20
1.970923522e+20
1.971637625e+20
1.974613053e+20
1.967174483e+20
1.979492755e+20
1.972351728e+20
1.979552264e+20
2.028111249e+20
2.143260313e+20
2.700141422e+20
1.542402378e+20
1.98217064e+20
1.99335825e+20
1.995322032e+20
2.010139664e+20
2.009306544e+20
2.003772248e+20
2.004843402e+20
2.018946931e+20
2.011270326e+20
2.006628659e+20
2.002820111e+20
1.998595003e+20
2.002998636e+20
1.988954616e+20
2.01234148e+20
2.020375136e+20
2.051795656e+20
2.19836524e+20
2.576423125e+20
1.551388171e+20
1.991334959e+20
2.003831756e+20
1.997226306e+20
1.995262524e+20
1.99085889e+20
1.991037416e+20
1.982408674e+20
1.973422882e+20
1.978005041e+20
1.981218503e+20
1.979254721e+20
1.989668719e+20
1.993417758e+20
2.006033573e+20
2.019125456e+20
2.030075031e+20
2.082145022e+20
2.181940878e+20
2.389090177e+20
1.562040203e+20
1.99746434e+20
2.011210818e+20
2.015852485e+20
2.012877057e+20
2.012400989e+20
2.012103446e+20
2.023350564e+20
2.021743833e+20
2.019661033e+20
2.011984429e+20
2.009187527e+20
2.012460497e+20
2.001986991e+20
1.998654511e+20
2.011389343e+20
2.030729626e+20
2.066553779e+20
2.138499629e+20
2.268287799e+20
1.551090628e+20
1.99704778e+20
1.999666157e+20
2.000142225e+20
2.002522568e+20
2.00121338e+20
1.992584638e+20
1.990382822e+20
1.997166797e+20
1.994905472e+20
2.002225025e+20
2.024481227e+20
2.016983148e+20
2.019006439e+20
2.001094362e+20
2.008413915e+20
2.018827913e+20
2.043226423e+20
2.09833135e+20
2.171169828e+20
1.553530479e+20
1.994964981e+20
2.01442428e+20
1.992287095e+20
1.989252159e+20
1.992227587e+20
1.992822673e+20
1.989906753e+20
1.987347885e+20
1.991394467e+20
1.984372457e+20
1.992644147e+20
2.005855047e+20
2.017042657e+20
2.022160393e+20
2.032336357e+20
2.032990951e+20
2.046023326e+20
2.074825469e+20
2.120944603e+20
1.553054411e+20
1.980385383e+20
2.007997355e+20
2.009961138e+20
2.016447571e+20
1.998535494e+20
2.010556224e+20
2.028111249e+20
2.02311253e+20
2.004367333e+20
2.006628659e+20
1.992882181e+20
1.997345323e+20
1.988240513e+20
1.996036135e+20
1.98919265e+20
2.00448635e+20
2.017875776e+20
2.04334544e+20
2.088393421e+20
1.549900457e+20
1.99621466e+20
1.991870536e+20
1.983479829e+20
1.991394467e+20
1.987645428e+20
1.98508656e+20
1.97389895e+20
1.98425344e+20
2.004367333e+20
2.003474705e+20
2.004605367e+20
2.010258681e+20
1.994488912e+20
2.012817549e+20
2.029777489e+20
2.021624816e+20
2.015316908e+20
2.028289775e+20
2.047749074e+20
1.553113919e+20
2.00740227e+20
2.005974064e+20
2.00079682e+20
2.000082717e+20
2.017280691e+20
2.024243192e+20
2.02311253e+20
2.021743833e+20
2.010734749e+20
2.006866693e+20
2.002820111e+20
1.998416477e+20
1.992227587e+20
1.986217222e+20
1.972887305e+20
1.98919265e+20
2.018768405e+20
2.034538173e+20
2.05947226e+20
1.554661142e+20
1.998595003e+20
2.017875776e+20
2.028825352e+20
2.023648107e+20
2.002344042e+20
1.994369895e+20
1.995262524e+20
1.988240513e+20
1.98467e+20
1.978838161e+20
1.995500558e+20
1.99252513e+20
1.9978809e+20
1.994131861e+20
2.01234148e+20
2.013293617e+20
2.00823539e+20
2.024481227e+20
2.027040095e+20
1.54853176e+20
1.979076195e+20
1.979314229e+20
1.978124058e+20
1.973958459e+20
1.993774809e+20
1.98175408e+20
1.988240513e+20
1.977945532e+20
1.987823953e+20
1.993120215e+20
1.98877609e+20
1.989430685e+20
1.9999637e+20
2.015138383e+20
1.990204296e+20
2.003355688e+20
2.017042657e+20
2.016566588e+20
2.034776208e+20
1.552935394e+20
2.007164236e+20
2.014483789e+20
2.005200453e+20
2.011329835e+20
2.005914556e+20
1.995143506e+20
2.004545859e+20
2.003058145e+20
2.008175881e+20
2.008116373e+20
2.003772248e+20
2.013948211e+20
2.016269045e+20
2.019184965e+20
2.022755478e+20
2.00615259e+20
2.000142225e+20
2.003831756e+20
2.019006439e+20
1.542283361e+20
1.987704936e+20
2.000499277e+20
1.989371176e+20
1.996869255e+20
1.996036135e+20
2.007580796e+20
2.020851204e+20
2.034657191e+20
2.019482508e+20
2.019184965e+20
2.011389343e+20
2.011686886e+20
2.012877057e+20
1.996928763e+20
2.005021927e+20
2.01442428e+20
2.012639023e+20
2.026504518e+20
2.034478665e+20
1.559659861e+20
2.000142225e+20
2.010913275e+20
2.019720542e+20
2.020791696e+20
2.020910713e+20
2.017459217e+20
2.009485069e+20
1.998059426e+20
2.011746395e+20
2.007283253e+20
2.013472143e+20
1.998952054e+20
1.99829746e+20
2.006331116e+20
2.013769686e+20
2.011865412e+20
2.015852485e+20
2.028706334e+20
2.026325992e+20
1.545258789e+20
1.991513484e+20
1.998535494e+20
1.989490193e+20
2.000558785e+20
1.99002577e+20
1.987764445e+20
1.993655792e+20
1.988835599e+20
1.976695853e+20
1.981932606e+20
2.00573603e+20
2.008354407e+20
2.011032292e+20
2.02186285e+20
2.013769686e+20
2.021089239e+20
2.012400989e+20
2.010080155e+20
2.018054302e+20
1.549305371e+20
1.995024489e+20
2.002582076e+20
2.002582076e+20
1.985027051e+20
1.998118934e+20
2.013234109e+20
2.011270326e+20
2.01275804e+20
2.011270326e+20
2.015197891e+20
2.002344042e+20
2.00573603e+20
2.016209537e+20
1.993417758e+20
1.9999637e+20
1.98591968e+20
1.993477267e+20
2.010972783e+20
1.99871402e+20
1.537582185e+20
1.972887305e+20
1.981456537e+20
1.977290938e+20
1.994786455e+20
1.996333678e+20
1.994250878e+20
2.000558785e+20
2.019661033e+20
2.009247035e+20
1.994845964e+20
1.989668719e+20
1.984431965e+20
1.993596284e+20
1.990799381e+20
2.002344042e+20
2.011508361e+20
2.001034854e+20
1.998059426e+20
2.000677803e+20
1.564718089e+20
1.988121496e+20
1.998059426e+20
2.002879619e+20
1.998475986e+20
1.989549702e+20
1.984610491e+20
1.980444892e+20
1.948488795e+20
1.96854318e+20
1.975862733e+20
1.997821392e+20
1.997821392e+20
1.994250878e+20
2.001689448e+20
1.995560066e+20
1.982349166e+20
2.011686886e+20
2.011686886e+20
2.022934004e+20
1.538117762e+20
1.990561347e+20
2.002165517e+20
2.00490291e+20
1.987288376e+20
1.990204296e+20
1.982765726e+20
1.9978809e+20
1.997821392e+20
2.00490291e+20
2.005855047e+20
1.993715301e+20
1.991572993e+20
1.992406113e+20
1.998118934e+20
2.007104727e+20
2.015495434e+20
1.994369895e+20
1.985146068e+20
1.97806455e+20
1.566919905e+20
2.021565307e+20
2.032157831e+20
2.024838278e+20
2.021565307e+20
2.02311253e+20
2.017816268e+20
2.024957295e+20
2.013531652e+20
2.020494153e+20
2.010377698e+20
2.009544578e+20
2.005081436e+20
1.996690729e+20
2.004129299e+20
1.99252513e+20
1.991037416e+20
1.996095643e+20
2.002641585e+20
1.992703655e+20
1.547222572e+20
1.968602688e+20
1.985027051e+20
1.99127545e+20
1.995857609e+20
2.000201734e+20
1.993536775e+20
1.998118934e+20
2.005617013e+20
1.996036135e+20
2.009485069e+20
2.007461778e+20
2.004129299e+20
2.011032292e+20
2.002641585e+20
1.990382822e+20
1.995738592e+20
2.002701094e+20
2.003058145e+20
2.00573603e+20
1.546448961e+20
1.990977907e+20
1.997523849e+20
1.987526411e+20
1.991811027e+20
1.996393186e+20
1.997345323e+20
1.996571712e+20
1.990918399e+20
1.979016686e+20
1.980504401e+20
1.980801943e+20
1.994191369e+20
1.999666157e+20
2.017399708e+20
2.020434645e+20
2.034716699e+20
2.018173319e+20
2.003593722e+20
1.999249597e+20
4.85012675e+20
5.613698268e+20
5.999860958e+20
6.075712437e+20
6.031186255e+20
6.11841028e+20
6.136447868e+20
6.224925355e+20
6.223715161e+20
6.256147869e+20
3.296700696e+20
3.911050638e+20
4.419232572e+20
4.803234999e+20
4.997940469e+20
5.234290909e+20
5.319263615e+20
5.372904655e+20
5.474761963e+20
5.533432984e+20
2.766271269e+20
3.218470632e+20
3.600461493e+20
4.011678553e+20
4.326198706e+20
4.548277585e+20
4.715358032e+20
4.88326714e+20
4.98619887e+20
5.148850419e+20
2.498190016e+20
2.697081398e+20
3.040587493e+20
3.347302782e+20
3.643712505e+20
3.940789449e+20
4.213016696e+20
4.439539022e+20
4.516839705e+20
4.695674208e+20
2.325003196e+20
2.476944619e+20
2.688206537e+20
2.899061009e+20
3.179307546e+20
3.469638348e+20
3.728484904e+20
3.997943307e+20
4.197574402e+20
4.342016055e+20
2.190454953e+20
2.30569372e+20
2.440752762e+20
2.640736683e+20
2.797726784e+20
2.986677547e+20
3.288788333e+20
3.51213157e+20
3.771992608e+20
3.990839488e+20
2.145724978e+20
2.236664215e+20
2.313060077e+20
2.439052274e+20
2.561349327e+20
2.716662213e+20
2.91908454e+20
3.116946999e+20
3.383428919e+20
3.555607066e+20
2.088573328e+20
2.138351288e+20
2.20365245e+20
2.291812895e+20
2.389070063e+20
2.493823815e+20
2.651380881e+20
2.841051594e+20
3.02512405e+20
3.235991212e+20
2.089349682e+20
2.109127994e+20
2.138443808e+20
2.211578106e+20
2.316007942e+20
2.409733854e+20
2.510585816e+20
2.610689279e+20
2.756016372e+20
2.891813997e+20
2.044798867e+20
2.09199088e+20
2.137838344e+20
2.178289204e+20
2.228885962e+20
2.285268348e+20
2.345006839e+20
2.454459351e+20
2.573642226e+20
2.693541451e+20
2.050352788e+20
2.085376553e+20
2.09920964e+20
2.12835585e+20
2.138509956e+20
2.20587753e+20
2.247303409e+20
2.339811293e+20
2.424180074e+20
2.514485306e+20
2.024076167e+20
2.026388797e+20
2.041932599e+20
2.06336323e+20
2.094734078e+20
2.128650796e+20
2.162614658e+20
2.215504717e+20
2.266000362e+20
2.349746028e+20
2.033213265e+20
2.047975554e+20
2.051135683e+20
2.065862947e+20
2.093874515e+20
2.136750633e+20
2.183786836e+20
2.205093537e+20
2.254503252e+20
2.293496682e+20
2.026524664e+20
2.035227928e+20
2.054889547e+20
2.075313087e+20
2.085585965e+20
2.084194406e+20
2.103892948e+20
2.140619701e+20
2.169791188e+20
2.190860717e+20
2.028973185e+20
2.033424038e+20
2.03539357e+20
2.024343279e+20
2.044265971e+20
2.049074496e+20
2.06248265e+20
2.088501261e+20
2.108073316e+20
2.140338139e+20
1.995052442e+20
1.996924988e+20
2.00820818e+20
2.019343847e+20
2.023329668e+20
2.038563251e+20
2.041621816e+20
2.05363016e+20
2.087353273e+20
2.10254164e+20
2.006339445e+20
2.01406209e+20
2.009600723e+20
2.022697111e+20
2.03100426e+20
2.030030579e+20
2.044610831e+20
2.048926357e+20
2.056968125e+20
2.075435059e+20
2.012669722e+20
2.004982439e+20
2.010751135e+20
2.01019853e+20
2.006875327e+20
2.014511035e+20
2.018892833e+20
2.021769555e+20
2.025761742e+20
2.03763856e+20
1.998695351e+20
2.002456969e+20
2.007299968e+20
2.007515922e+20
2.007796292e+20
2.013212587e+20
2.025618131e+20
2.03418767e+20
2.019128792e+20
2.052337213e+20
2.004070101e+20
2.009011164e+20
2.001971871e+20
2.003065194e+20
2.002147791e+20
2.004556281e+20
2.014596138e+20
2.0311145e+20
2.054188609e+20
2.03496608e+20
1.997799543e+20
1.992595598e+20
1.996583227e+20
2.007698828e+20
2.013383395e+20
2.009255412e+20
2.005255466e+20
1.998563999e+20
1.991459989e+20
2.001941866e+20
2.001561878e+20
2.00865037e+20
2.012385879e+20
2.011844699e+20
)
;

boundaryField
{
    flow
    {
        type            calculated;
        value           nonuniform List<scalar> 
42
(
1.532464449e+20
1.542402378e+20
1.551388171e+20
1.562040203e+20
1.551090628e+20
1.553530479e+20
1.553054411e+20
1.549900457e+20
1.553113919e+20
1.554661142e+20
1.54853176e+20
1.552935394e+20
1.542283361e+20
1.559659861e+20
1.545258789e+20
1.549305371e+20
1.537582185e+20
1.564718089e+20
1.538117762e+20
1.566919905e+20
1.547222572e+20
1.546448961e+20
1.532464449e+20
1.97764799e+20
1.983122777e+20
1.96854318e+20
1.981099486e+20
1.964972666e+20
1.970090402e+20
1.963901512e+20
1.961223627e+20
1.968483671e+20
1.970923522e+20
1.971637625e+20
1.974613053e+20
1.967174483e+20
1.979492755e+20
1.972351728e+20
1.979552264e+20
2.028111249e+20
2.143260313e+20
2.700141422e+20
)
;
    }
    obstacle
    {
        type            calculated;
        value           nonuniform List<scalar> 10(271.520455 293.9411936 306.3879558 285.3182854 278.5980372 275.5866146 281.7941998 292.2823984 285.3816634 286.474843);
    }
    frontAndBack
    {
        type            empty;
    }
    procBoundary0to1
    {
        type            processor;
        value           nonuniform List<scalar> 
21
(
6.17015634e+20
5.492139725e+20
5.107430348e+20
4.823865826e+20
4.519662113e+20
4.150912865e+20
3.778125503e+20
3.439629969e+20
3.091840391e+20
2.827633119e+20
2.645662124e+20
2.446000404e+20
2.360174689e+20
2.220764012e+20
2.207944655e+20
2.125964752e+20
2.087122053e+20
2.052637955e+20
2.071226046e+20
2.022640609e+20
2.035011318e+20
)
;
    }
    procBoundary0to2
    {
        type            processor;
        value           nonuniform List<scalar> 
31
(
1.55472065e+20
1.989073633e+20
2.005855047e+20
1.996988272e+20
1.996928763e+20
1.994607929e+20
1.996393186e+20
2.007580796e+20
2.021624816e+20
2.015435925e+20
2.024600244e+20
2.02721862e+20
2.007699813e+20
1.994548421e+20
1.994250878e+20
1.97348239e+20
1.966936449e+20
1.979195212e+20
1.991930044e+20
1.998475986e+20
2.006077183e+20
2.001464724e+20
2.012790261e+20
2.004773043e+20
2.007631718e+20
2.022303616e+20
1.998934216e+20
1.995361602e+20
1.972364605e+20
2.006077183e+20
1.958314179e+20
)
;
    }
}


// ************************************************************************* //
