/*--------------------------------*- C++ -*----------------------------------*\
  =========                 |
  \\      /  F ield         | OpenFOAM: The Open Source CFD Toolbox
   \\    /   O peration     | Website:  https://openfoam.org
    \\  /    A nd           | Version:  7
     \\/     M anipulation  |
\*---------------------------------------------------------------------------*/
FoamFile
{
    version     2.0;
    format      ascii;
    class       volScalarField;
    location    "0.007";
    object      iDof;
}
// * * * * * * * * * * * * * * * * * * * * * * * * * * * * * * * * * * * * * //

dimensions      [0 -3 0 0 0 0 0];

internalField   nonuniform List<scalar> 
654
(
2.499359539e+20
1.666239693e+20
2.499359539e+20
1.041399808e+20
2.915919462e+20
2.291079578e+20
2.707639501e+20
2.291079578e+20
2.082799616e+20
3.124199424e+20
1.457959731e+20
8.331198464e+19
1.24967977e+20
3.124199424e+20
1.666239693e+20
2.915919462e+20
1.041399808e+20
1.666239693e+20
2.707639501e+20
1.24967977e+20
2.082799616e+20
1.457959731e+20
2.915919462e+20
1.24967977e+20
1.24967977e+20
1.666239693e+20
8.331198464e+19
2.291079578e+20
1.874519654e+20
1.457959731e+20
2.499359539e+20
1.457959731e+20
2.291079578e+20
1.041399808e+20
2.291079578e+20
1.24967977e+20
1.457959731e+20
1.874519654e+20
1.874519654e+20
1.24967977e+20
1.666239693e+20
1.041399808e+20
8.331198464e+19
1.24967977e+20
2.915919462e+20
1.24967977e+20
1.041399808e+20
1.874519654e+20
2.291079578e+20
1.24967977e+20
2.707639501e+20
2.499359539e+20
1.666239693e+20
1.24967977e+20
1.666239693e+20
2.707639501e+20
1.874519654e+20
2.291079578e+20
1.874519654e+20
1.24967977e+20
1.24967977e+20
1.457959731e+20
2.707639501e+20
1.666239693e+20
8.331198464e+19
1.666239693e+20
1.457959731e+20
1.666239693e+20
1.457959731e+20
2.707639501e+20
1.24967977e+20
2.707639501e+20
1.874519654e+20
1.457959731e+20
1.041399808e+20
1.457959731e+20
1.457959731e+20
2.291079578e+20
8.331198464e+19
1.24967977e+20
2.082799616e+20
1.041399808e+20
2.082799616e+20
2.082799616e+20
2.082799616e+20
2.915919462e+20
1.666239693e+20
2.499359539e+20
2.291079578e+20
8.331198464e+19
1.666239693e+20
2.082799616e+20
2.082799616e+20
2.082799616e+20
2.082799616e+20
6.248398848e+19
8.331198464e+19
1.041399808e+20
2.082799616e+20
1.666239693e+20
1.874519654e+20
2.499359539e+20
1.24967977e+20
1.666239693e+20
2.499359539e+20
2.291079578e+20
2.499359539e+20
1.041399808e+20
1.666239693e+20
1.666239693e+20
1.24967977e+20
2.291079578e+20
1.666239693e+20
1.24967977e+20
1.457959731e+20
2.499359539e+20
6.248398848e+19
2.082799616e+20
1.041399808e+20
2.082799616e+20
1.24967977e+20
1.874519654e+20
1.874519654e+20
2.707639501e+20
2.499359539e+20
1.457959731e+20
2.915919462e+20
1.041399808e+20
2.291079578e+20
2.082799616e+20
2.082799616e+20
3.540759347e+20
2.291079578e+20
1.24967977e+20
1.457959731e+20
2.291079578e+20
1.666239693e+20
2.499359539e+20
2.082799616e+20
1.874519654e+20
8.331198464e+19
2.499359539e+20
1.666239693e+20
1.457959731e+20
1.457959731e+20
1.666239693e+20
1.457959731e+20
1.457959731e+20
1.666239693e+20
1.874519654e+20
1.24967977e+20
1.24967977e+20
2.707639501e+20
2.915919462e+20
2.082799616e+20
2.082799616e+20
1.457959731e+20
1.457959731e+20
1.457959731e+20
1.874519654e+20
2.291079578e+20
2.915919462e+20
2.291079578e+20
2.082799616e+20
2.082799616e+20
1.457959731e+20
1.24967977e+20
1.24967977e+20
1.457959731e+20
2.499359539e+20
1.666239693e+20
1.666239693e+20
1.24967977e+20
1.666239693e+20
1.041399808e+20
8.331198464e+19
1.874519654e+20
1.041399808e+20
2.082799616e+20
8.331198464e+19
2.082799616e+20
1.874519654e+20
1.457959731e+20
2.082799616e+20
3.540759347e+20
1.666239693e+20
1.666239693e+20
2.291079578e+20
2.082799616e+20
2.499359539e+20
2.082799616e+20
1.041399808e+20
1.874519654e+20
1.24967977e+20
1.457959731e+20
1.666239693e+20
1.457959731e+20
1.457959731e+20
2.082799616e+20
1.041399808e+20
3.749039309e+20
2.499359539e+20
2.082799616e+20
2.082799616e+20
1.457959731e+20
2.707639501e+20
1.666239693e+20
1.666239693e+20
3.124199424e+20
1.874519654e+20
1.874519654e+20
1.874519654e+20
1.666239693e+20
3.540759347e+20
2.082799616e+20
1.666239693e+20
1.457959731e+20
8.331198464e+19
1.457959731e+20
1.666239693e+20
1.666239693e+20
2.707639501e+20
2.707639501e+20
1.24967977e+20
1.24967977e+20
1.457959731e+20
1.666239693e+20
1.666239693e+20
1.874519654e+20
2.082799616e+20
2.291079578e+20
2.082799616e+20
2.082799616e+20
1.457959731e+20
1.457959731e+20
2.499359539e+20
8.331198464e+19
2.082799616e+20
1.874519654e+20
1.874519654e+20
1.666239693e+20
2.291079578e+20
3.332479385e+20
2.291079578e+20
1.041399808e+20
2.082799616e+20
1.666239693e+20
2.291079578e+20
1.874519654e+20
1.24967977e+20
1.666239693e+20
1.457959731e+20
1.666239693e+20
8.331198464e+19
1.24967977e+20
2.499359539e+20
1.874519654e+20
1.666239693e+20
1.457959731e+20
1.041399808e+20
2.082799616e+20
1.666239693e+20
1.041399808e+20
2.707639501e+20
3.124199424e+20
8.331198464e+19
1.666239693e+20
2.291079578e+20
1.041399808e+20
2.082799616e+20
1.457959731e+20
2.291079578e+20
1.457959731e+20
1.666239693e+20
6.248398848e+19
2.291079578e+20
1.24967977e+20
1.24967977e+20
1.874519654e+20
2.082799616e+20
2.291079578e+20
1.24967977e+20
1.874519654e+20
3.540759347e+20
2.499359539e+20
3.124199424e+20
1.666239693e+20
2.707639501e+20
1.666239693e+20
1.874519654e+20
8.331198464e+19
1.041399808e+20
1.874519654e+20
1.874519654e+20
1.666239693e+20
6.248398848e+19
1.24967977e+20
1.874519654e+20
1.041399808e+20
1.666239693e+20
1.874519654e+20
1.24967977e+20
2.291079578e+20
1.874519654e+20
1.666239693e+20
1.041399808e+20
1.24967977e+20
1.874519654e+20
2.291079578e+20
2.082799616e+20
1.666239693e+20
1.457959731e+20
1.24967977e+20
6.248398848e+19
2.707639501e+20
1.24967977e+20
1.041399808e+20
1.041399808e+20
2.291079578e+20
1.041399808e+20
1.666239693e+20
2.499359539e+20
2.915919462e+20
1.874519654e+20
2.499359539e+20
2.499359539e+20
1.041399808e+20
1.041399808e+20
2.291079578e+20
2.915919462e+20
1.457959731e+20
1.666239693e+20
2.707639501e+20
2.499359539e+20
1.457959731e+20
1.24967977e+20
2.082799616e+20
8.331198464e+19
1.457959731e+20
1.041399808e+20
1.874519654e+20
2.499359539e+20
1.666239693e+20
1.457959731e+20
2.291079578e+20
2.082799616e+20
1.041399808e+20
2.707639501e+20
1.24967977e+20
2.082799616e+20
8.331198464e+19
1.457959731e+20
1.457959731e+20
1.874519654e+20
2.291079578e+20
1.666239693e+20
1.666239693e+20
1.457959731e+20
1.041399808e+20
1.24967977e+20
3.124199424e+20
1.457959731e+20
1.666239693e+20
6.248398848e+19
1.24967977e+20
1.874519654e+20
1.874519654e+20
1.041399808e+20
3.332479385e+20
1.666239693e+20
2.499359539e+20
1.874519654e+20
2.499359539e+20
2.291079578e+20
1.666239693e+20
1.874519654e+20
1.666239693e+20
2.707639501e+20
1.041399808e+20
1.666239693e+20
2.915919462e+20
2.707639501e+20
2.291079578e+20
2.291079578e+20
2.082799616e+20
1.666239693e+20
2.707639501e+20
2.082799616e+20
1.24967977e+20
1.24967977e+20
1.666239693e+20
2.707639501e+20
1.874519654e+20
1.24967977e+20
1.457959731e+20
1.041399808e+20
1.874519654e+20
3.540759347e+20
1.041399808e+20
1.041399808e+20
1.874519654e+20
1.666239693e+20
1.874519654e+20
1.24967977e+20
1.874519654e+20
1.874519654e+20
1.041399808e+20
1.666239693e+20
2.291079578e+20
1.666239693e+20
2.082799616e+20
3.332479385e+20
1.666239693e+20
1.457959731e+20
8.331198464e+19
2.291079578e+20
2.082799616e+20
1.041399808e+20
1.24967977e+20
2.291079578e+20
1.457959731e+20
2.082799616e+20
1.24967977e+20
1.24967977e+20
2.707639501e+20
2.291079578e+20
2.082799616e+20
2.082799616e+20
2.291079578e+20
1.24967977e+20
1.24967977e+20
8.331198464e+19
1.874519654e+20
1.874519654e+20
1.874519654e+20
1.666239693e+20
1.874519654e+20
8.331198464e+19
1.874519654e+20
1.457959731e+20
6.27055727e+19
1.052279049e+20
1.695303565e+20
6.401711999e+19
1.289331603e+20
6.49223962e+19
4.35898026e+19
1.317072859e+20
8.843914278e+19
1.336239882e+20
1.045092879e+20
3.788204575e+20
1.271477675e+20
1.2803424e+20
2.148886006e+20
1.082039937e+20
8.717960526e+19
8.780485732e+19
8.843914278e+19
1.55894653e+20
1.254111454e+20
4.209116193e+19
8.476517826e+19
1.4937328e+20
8.595544028e+19
6.49223962e+19
8.71796052e+19
1.756097146e+20
1.989880713e+20
2.004359824e+20
2.299204332e+20
1.262734859e+20
1.059564729e+20
1.2803424e+20
2.148886004e+19
1.731263899e+20
1.743592105e+20
2.63414572e+20
4.421957139e+19
8.908265883e+19
1.672148605e+20
8.418232386e+19
2.54295535e+20
1.280342401e+20
1.289331604e+20
1.082039937e+20
1.525643092e+20
1.756097146e+20
1.105489286e+20
6.681199417e+19
1.045092878e+20
2.525469716e+20
1.271477674e+20
6.401711998e+19
2.148886004e+19
1.731263898e+20
1.089745064e+20
1.756097144e+20
4.421957136e+19
1.113533236e+20
1.46313003e+20
2.104558097e+20
8.476517832e+19
1.066952001e+20
8.595544028e+19
1.7312639e+20
2.179490132e+20
2.414633576e+20
1.768782856e+20
6.681199412e+19
1.46313003e+20
1.052279049e+20
8.476517832e+19
1.2803424e+20
1.289331602e+20
1.298447924e+20
2.397439145e+20
1.756097146e+20
1.768782856e+20
2.672479765e+20
6.27055727e+19
2.525469716e+20
1.695303565e+20
2.347294401e+20
1.504220205e+20
1.514855911e+20
1.307694078e+20
8.780485732e+19
1.989880713e+20
8.908265883e+19
1.672148606e+20
1.683646478e+20
2.119129458e+20
6.401712002e+19
1.289331603e+20
1.298447925e+20
2.833337171e+20
1.31707286e+20
2.432076426e+20
8.908265883e+19
1.881167181e+20
1.683646477e+20
1.695303565e+20
1.920513601e+20
1.504220204e+20
4.328159747e+19
2.17949013e+20
1.975609288e+20
1.105489285e+20
1.55894653e+20
1.46313003e+20
1.683646478e+20
1.907216512e+20
1.493732799e+20
3.008440408e+20
1.514855912e+20
2.397439153e+20
1.756097158e+20
1.326587148e+20
1.558946536e+20
1.672148605e+20
1.473190672e+20
1.271477679e+20
1.707123201e+20
2.363774596e+20
1.298447922e+20
8.717960508e+19
2.195121415e+20
1.989880704e+20
8.908265883e+19
1.045092875e+20
1.683646467e+20
1.48339061e+20
1.707123195e+20
1.933997406e+20
1.514855908e+20
1.961541108e+20
2.19512143e+20
6.63293568e+19
2.004359809e+20
1.045092884e+20
2.104558102e+20
1.695303565e+20
8.535616032e+19
1.289331613e+20
4.328159768e+19
1.525643094e+20
6.585364336e+19
1.768782861e+20
8.908265883e+19
2.508222905e+20
1.894102292e+20
2.542955365e+20
1.920513607e+20
1.289331604e+20
2.813303849e+20
1.961541121e+20
1.53658499e+20
1.10548928e+20
2.227066471e+20
1.881167178e+20
1.052279044e+20
1.695303554e+20
2.133903993e+20
1.074443004e+20
1.947671882e+20
1.743592108e+20
1.317072867e+20
2.210978576e+20
2.449773118e+20
1.672148603e+20
2.315013913e+20
1.907216524e+20
8.535615974e+19
1.504220195e+20
2.380487856e+20
1.307694072e+20
2.634145716e+20
8.843914303e+19
1.336239882e+20
2.299204345e+20
2.315013913e+20
2.542955348e+20
6.401712024e+19
6.446658021e+19
2.164079869e+19
2.179490135e+20
1.317072858e+20
8.84391424e+19
1.781653189e+20
1.463130028e+20
2.104558102e+20
6.35738837e+19
1.493732795e+20
2.148886007e+20
2.596895861e+20
1.089745067e+20
2.414633573e+20
1.105489288e+20
8.908265883e+19
2.299204329e+20
1.894102279e+20
1.48339062e+20
1.707123206e+20
8.595544028e+19
4.328159738e+19
2.615388162e+20
1.317072867e+20
1.989880718e+20
1.336239882e+20
8.360743015e+19
2.946381323e+20
1.48339062e+20
1.493732806e+20
)
;

boundaryField
{
    flow
    {
        type            zeroGradient;
    }
    obstacle
    {
        type            calculated;
        value           nonuniform List<scalar> 10(2.225073859e-308 2.225073859e-308 2.225073859e-308 2.225073859e-308 2.225073859e-308 2.225073859e-308 2.225073859e-308 204.0988753 2.225073859e-308 2.225073859e-308);
    }
    frontAndBack
    {
        type            empty;
    }
    procBoundary0to1
    {
        type            processor;
        value           nonuniform List<scalar> 
21
(
1.570373148e+20
1.121695106e+20
1.121695106e+20
1.346034127e+20
1.794712169e+20
2.243390214e+20
1.570373148e+20
1.346034127e+20
8.973560851e+19
1.570373148e+20
8.973560845e+19
2.467729241e+20
1.570373143e+20
1.570373143e+20
2.243390221e+20
8.973560819e+19
1.346034123e+20
8.973560883e+19
6.730170662e+19
8.973560819e+19
1.570373155e+20
)
;
    }
    procBoundary0to2
    {
        type            processor;
        value           nonuniform List<scalar> 
31
(
2.082799616e+20
8.331198464e+19
1.24967977e+20
2.291079578e+20
1.874519654e+20
2.291079578e+20
1.874519654e+20
1.874519654e+20
1.666239693e+20
1.24967977e+20
2.707639501e+20
1.457959731e+20
2.082799616e+20
2.707639501e+20
1.24967977e+20
1.24967977e+20
2.082799616e+20
1.457959731e+20
2.082799616e+20
1.041399808e+20
1.719108806e+20
8.656319476e+19
2.179490119e+20
1.756097144e+20
1.326587145e+20
1.781653177e+20
2.508222905e+20
2.525469723e+20
1.48339062e+20
1.719108806e+20
1.920513594e+20
)
;
    }
}


// ************************************************************************* //
