/*--------------------------------*- C++ -*----------------------------------*\
  =========                 |
  \\      /  F ield         | OpenFOAM: The Open Source CFD Toolbox
   \\    /   O peration     | Website:  https://openfoam.org
    \\  /    A nd           | Version:  7
     \\/     M anipulation  |
\*---------------------------------------------------------------------------*/
FoamFile
{
    version     2.0;
    format      ascii;
    class       volScalarField;
    location    "0.007";
    object      internalT;
}
// * * * * * * * * * * * * * * * * * * * * * * * * * * * * * * * * * * * * * //

dimensions      [1 2 -2 0 0 0 0];

internalField   nonuniform List<scalar> 
654
(
296.1577868
303.2771398
311.443194
301.328817
309.1706257
319.7020582
314.6495113
309.0743222
320.8073863
319.8670895
318.1589354
323.0671086
307.0643748
314.6998962
330.1431302
325.5938801
324.4516649
330.3419391
352.7979384
381.0242225
307.9906123
310.5916731
308.500135
309.1697322
314.9114551
316.4762814
310.6080623
309.4644961
314.2483586
334.0321529
319.6674426
318.7740072
317.5301306
325.9184343
343.4040917
349.3249656
343.4914409
335.8164624
359.2282307
391.5786224
312.2034274
315.5047431
315.6921798
314.8445575
309.745911
313.6380507
315.6654961
308.5092871
317.9263713
323.7499806
314.7953489
319.2840857
321.2833909
342.6261619
347.6617121
351.2619047
347.1107172
368.9858863
364.8058553
376.3813601
307.2394318
322.3875281
306.4998732
312.4384522
314.5262168
310.7285165
307.9116967
314.2733862
319.6795777
327.7566404
324.8705524
328.8879831
331.1197994
344.4185132
346.4663249
348.5248235
347.7041669
373.1638868
378.6805034
379.2104189
310.7412728
310.0997158
319.6017076
311.0710806
315.9726622
313.8188028
318.4616671
319.4067426
315.0918137
316.0091434
326.2701199
342.5261383
340.7072134
349.2345181
343.8640234
353.3125937
358.4977233
367.47666
370.5494842
387.3604026
311.9599657
314.9032678
302.4602676
304.4024124
315.1408647
317.0415797
312.53242
324.9384059
327.336434
323.4805514
332.0802179
352.348558
349.3206042
331.8285613
340.9701093
352.8976009
365.2807767
371.0063876
372.0664332
391.546695
318.9392062
309.1669466
307.6615912
311.1216895
320.8281306
323.4903069
318.7480685
335.2977344
327.5851929
334.9310894
333.8951973
336.3053368
334.3755476
345.7016567
349.6874954
352.0489098
376.7284225
369.2154248
374.0033175
404.7651426
304.3697625
314.8300846
313.3457962
321.6081099
318.6257954
310.1863523
324.2975243
324.9877816
334.2450483
337.5758066
335.9470429
330.7192866
345.9519699
339.1076639
349.1512751
349.5727452
348.1778773
352.3695379
375.910152
386.7884078
307.6246136
318.191115
312.9704488
318.5327
315.0625881
322.2739346
320.82157
331.4102243
344.5921551
330.6625088
335.0196129
337.2192543
337.3286515
355.9869692
358.430467
363.1556605
350.6522446
354.8773111
381.2173464
390.5121468
314.1097638
313.1773624
313.9859921
325.8550581
323.8782797
319.9758599
318.2699425
322.1750434
322.047532
330.7874967
347.4625541
347.2567077
336.7786207
350.0638068
360.3412566
351.043031
364.3936129
368.2029744
389.764832
387.7603647
304.7110369
315.1860799
315.7946987
324.6467629
313.1287505
310.996438
305.8661425
318.8211028
322.7243604
340.6877241
349.313147
355.4712187
346.9744169
357.3289551
359.4087141
352.4209889
358.1138004
370.5308935
378.6028852
376.412185
304.0318028
307.2497166
321.7327766
321.6825773
306.7793653
317.6034416
313.0105124
322.896574
330.6480962
333.9286294
335.0914043
346.1878774
353.2934536
356.5107974
362.4512392
350.5750314
360.1782386
375.970294
375.3572456
384.1818954
309.4424135
300.0096461
311.3179618
318.6656315
312.339739
320.3045506
327.6342739
334.4546248
326.048031
332.6053611
338.3227621
328.4748387
354.6479676
352.6104489
353.727081
356.2669374
371.1561987
359.32002
363.4577708
373.9523165
296.6659901
315.2217119
318.5638423
307.6184237
319.2007368
329.5368238
314.2358992
331.9987774
327.4249185
328.4340571
337.8736182
348.058969
357.3076336
346.2666592
352.2872545
369.1367718
373.2992018
358.1163702
367.971587
377.6381528
297.0741744
314.6732966
295.1174556
310.3666892
322.3708352
315.9150669
320.8319593
327.558251
327.0634382
324.3090069
342.4101825
336.6161739
347.6745621
341.556511
354.2346913
366.3024138
362.2202764
356.8642934
366.0434468
362.6944011
305.5773205
309.2564638
293.6555287
312.4095255
321.4805277
312.2294603
319.977999
323.9841367
338.7299637
326.8027013
338.713545
334.9750133
338.314709
349.4327285
361.0324576
362.9474494
348.5880315
361.5291379
358.5667609
357.9938727
300.8704589
309.9569313
301.0894644
318.0985705
316.6249858
322.682022
326.7262977
328.2662356
315.069362
316.7085798
343.0270609
349.4866689
350.6153685
354.9594579
355.7384245
365.6871403
359.5744518
361.3129283
366.6881903
368.5550159
302.0107981
309.9935381
301.6930261
315.2795815
323.4841993
317.3514641
333.9100397
332.3722412
327.8465998
329.3629334
330.8090585
339.0291052
345.78691
346.2641949
363.8514991
347.3404858
364.1289204
358.6998885
361.1362235
371.2965528
307.5512426
310.3698634
305.632839
314.661986
323.5794837
321.2526486
321.5415455
330.880542
325.067759
317.7759136
321.6295919
334.6814854
352.48217
341.7328332
352.5713538
353.5636918
362.8110923
360.7500194
358.695919
359.0620273
308.5878952
304.1671348
319.524239
316.9453999
312.2234488
323.5687599
324.7379555
335.1586903
317.1395869
320.0555089
324.4533388
332.3030467
323.0335136
333.3550136
340.8463616
355.247568
353.24687
357.670306
351.2552958
363.111539
306.9844704
309.2286543
311.5644116
322.2481029
336.6341018
323.3838139
326.4915341
331.6789361
329.4849465
326.2474905
319.177126
335.0204816
334.3215518
338.0437817
348.9289059
345.5211332
353.7787686
353.7812555
351.9089572
363.7158558
304.5168493
314.1518231
321.2360805
317.2340661
326.7989858
328.1935859
328.7739252
329.5284847
324.5774943
328.6431289
339.1944557
340.3826134
330.3299235
345.8356906
354.8467582
361.6654607
365.7114971
352.8972881
366.3003877
368.8802901
454.6787529
457.2627985
477.1300919
477.957016
489.1364658
475.1883185
491.1576893
503.5286958
506.5477585
495.73455
423.2303367
437.7883943
438.7139329
464.085436
444.3079271
459.7580982
487.720781
510.9379749
493.4495014
500.0860444
405.8552897
409.4546375
438.1292117
451.615614
465.9149686
460.752049
477.8024787
484.3523099
467.9170639
480.949382
402.3775814
411.7382799
418.1383565
445.560544
459.1914166
457.1641926
459.9525651
449.4110451
472.1433964
467.0392076
409.3775798
404.1930105
418.3136243
432.0360796
451.2210103
451.7034868
449.1240486
454.0235499
462.5378662
448.9011318
411.0032766
410.8921133
428.9137615
434.4274091
425.7083619
426.9462933
445.1419014
457.3508056
444.4050531
438.2778889
402.3615073
422.5362702
415.426191
435.3568257
420.6864541
434.5597878
432.9754982
439.2425065
439.6557222
452.041145
409.0960927
410.9713882
405.1551192
413.6895651
427.7414872
427.9031839
448.2050436
436.152064
437.3307162
444.097757
389.5948703
397.3957269
397.5677756
411.7026228
414.7194666
418.9421294
457.9036713
439.4600622
442.5202743
444.9514571
374.2054234
394.2650778
397.7197793
402.553313
425.7831121
405.0628086
427.3366265
446.6610202
421.5385403
432.9756257
380.7299846
395.843786
388.9253276
401.6350401
416.1083695
415.4937717
430.6149638
440.0143133
419.6892861
430.9351359
368.9350754
374.9286813
392.4551379
397.1674843
418.6928877
411.0105795
421.2516724
431.9701204
417.1908545
425.8920513
389.4656259
375.8242998
387.1589734
392.6124417
414.8184621
405.062996
399.8853967
422.1905209
415.4561403
415.1484868
388.6611136
388.5916463
386.1562418
398.1988096
410.3755964
404.2971608
412.6818325
422.6210616
411.2924408
423.6228741
373.2110112
365.5172496
381.5371346
383.6800041
395.5485346
399.5651116
402.2022435
405.8988857
407.9753971
416.1859576
376.421942
380.7253505
392.5171367
381.2594498
393.4244196
411.0561824
398.9950101
390.4504055
407.8055032
426.4008932
365.6403842
374.9576471
381.0140235
388.0938138
397.335053
400.0719568
391.1768689
396.1619486
390.5041348
402.9672981
376.3989662
384.2660076
393.6143573
376.9418552
404.5811621
389.8318179
381.8930221
391.9254782
390.3466218
392.9579153
369.6594632
370.8328308
388.7659444
387.684389
408.453124
388.5019852
379.5603269
368.6481029
375.126177
394.4732019
359.6645653
366.3758114
375.2799309
381.4380837
367.0627412
381.3874222
385.3765966
394.378283
385.0532797
391.8601992
375.8627669
366.1163585
352.7136796
373.9532857
382.9328946
374.5493866
375.5210162
370.5410052
388.3060808
380.0810065
366.788724
372.4242567
369.3189364
373.0636656
)
;

boundaryField
{
    flow
    {
        type            calculated;
        value           nonuniform List<scalar> 
42
(
296.1577868
307.9906123
312.2034274
307.2394318
310.7412728
311.9599657
318.9392062
304.3697625
307.6246136
314.1097638
304.7110369
304.0318028
309.4424135
296.6659901
297.0741744
305.5773205
300.8704589
302.0107981
307.5512426
308.5878952
306.9844704
304.5168493
296.1577868
303.2771398
311.443194
301.328817
309.1706257
319.7020582
314.6495113
309.0743222
320.8073863
319.8670895
318.1589354
323.0671086
307.0643748
314.6998962
330.1431302
325.5938801
324.4516649
330.3419391
352.7979384
381.0242225
)
;
    }
    obstacle
    {
        type            calculated;
        value           nonuniform List<scalar> 10(503.0532212 462.5052366 460.8696157 507.9322063 525.8311291 484.5955791 473.7263284 487.3693159 500.3277227 532.8860447);
    }
    frontAndBack
    {
        type            empty;
    }
    procBoundary0to1
    {
        type            processor;
        value           nonuniform List<scalar> 
21
(
499.7832925
495.0849521
489.8907993
471.8224407
466.2420677
446.5432371
454.8770873
446.8426381
435.4304224
442.5471516
423.0962721
406.8256036
413.1120891
418.2316304
415.3630549
409.3698299
403.674342
398.7322096
408.3525796
387.6858035
397.5276737
)
;
    }
    procBoundary0to2
    {
        type            processor;
        value           nonuniform List<scalar> 
31
(
306.073746
311.3053268
309.6113597
308.0863454
319.8385312
318.0988931
320.810661
327.4598193
321.358272
331.4588046
334.770342
338.9774182
340.9242171
351.7636789
348.226363
350.8118774
350.1642663
341.9848027
359.5092732
360.669651
381.199931
371.6210682
372.7007434
380.7189129
382.4633126
393.7156534
349.4207727
363.0316264
381.7686273
381.199931
378.8499626
)
;
    }
}


// ************************************************************************* //
