/*--------------------------------*- C++ -*----------------------------------*\
  =========                 |
  \\      /  F ield         | OpenFOAM: The Open Source CFD Toolbox
   \\    /   O peration     | Website:  https://openfoam.org
    \\  /    A nd           | Version:  7
     \\/     M anipulation  |
\*---------------------------------------------------------------------------*/
FoamFile
{
    version     2.0;
    format      ascii;
    class       volVectorField;
    location    "0.007";
    object      momentum;
}
// * * * * * * * * * * * * * * * * * * * * * * * * * * * * * * * * * * * * * //

dimensions      [1 -2 -1 0 0 0 0];

internalField   nonuniform List<vector> 
654
(
(-0.000742925572 -0.0001646497642 0.0004400284627)
(-0.000166427825 -0.0008218630658 -2.048696583e-05)
(0.0003518165624 0.0005187575907 0.0004731968742)
(7.006559358e-05 -1.013296691e-05 -0.0007947295497)
(0.001172238739 -0.0002003577691 -0.0002738123118)
(0.0008590868179 0.0003694939214 0.0001721663102)
(0.0007581100269 -0.0004547302895 -0.0002893766051)
(3.719430417e-05 -0.0005021759932 -0.0002838449274)
(-0.0001203593795 -0.0008334097037 -0.0007847097337)
(0.001131978106 9.974268938e-05 -0.0008180258747)
(-0.0001792162719 -0.0004085873534 -0.0008694882509)
(-0.0002891228919 -0.0003674514568 -0.0003810785819)
(-7.532639924e-05 5.290760218e-05 0.0007970235702)
(0.0002147894916 -0.0002519270879 -0.0009703804197)
(0.0002128119175 5.536945108e-05 0.0002181696132)
(0.000489201055 -0.0006749017539 0.000798976962)
(0.0005135571433 -3.793844809e-05 -9.340781465e-05)
(-0.0003647521923 0.0002014609694 0.000472333572)
(0.0006666652693 0.0001180565711 -0.0002681090313)
(0.000277121041 8.609926046e-05 -0.0004379138286)
(0.000759243186 -0.001063614874 -0.0008411165928)
(-7.901497162e-05 -0.0004239231348 -0.0001225401455)
(-0.0009920012635 -0.0006582578241 -0.0002734876938)
(-0.0008945199073 0.0002410603081 0.0001872897623)
(-0.0002891873424 5.499259869e-05 -0.0003094954639)
(0.0001611287374 -0.0001035507782 8.878887152e-05)
(0.0004333651737 0.0002093019339 0.0006372083596)
(-0.0003002397146 -0.0001564635817 -0.0004785923287)
(9.52029436e-05 0.0006411020431 -0.0001418439338)
(-0.000214380728 -0.0005927681978 -0.0003129593136)
(0.0001256689968 -0.001276589475 0.0003471703509)
(0.000956475312 0.0004929831676 -0.0001001814005)
(-0.0007645942223 0.0005500248243 0.0001354600688)
(0.0003462801687 9.019807755e-06 0.0001424187727)
(5.799590266e-06 9.723302496e-05 -0.001137677251)
(-0.0001049219953 0.0007355495318 -0.0002315384123)
(0.0004419076868 5.246056883e-05 -0.0006915016091)
(0.0007716859035 -0.0004212058326 0.0001952684351)
(0.0001755195865 0.0007898103559 0.0006655629264)
(-0.0003731221727 5.711622704e-05 -0.0001105500451)
(0.0002716614682 0.0002609672938 -0.0005172983043)
(0.0002088545119 0.0002817115251 0.0002662192589)
(0.0003559029746 0.0006568496093 0.0002062283263)
(-0.0002431920385 0.0001300088824 7.530166793e-05)
(-0.001790594941 0.0005615818236 0.000863046368)
(0.0005517422023 0.0001526512047 3.927792675e-05)
(0.0003128524662 -0.0001381562702 0.0007966846879)
(-0.0004676017114 -0.0001820395963 -0.0005811981874)
(-0.0006047128612 -0.0003177937355 0.001012287726)
(-0.0007777975451 0.0001813834672 8.125214638e-05)
(0.000467498432 0.000389871472 4.703937375e-05)
(-0.0004004694236 0.0007318725243 -0.0002767887508)
(6.367584796e-05 -0.0002101478714 0.0003909236668)
(-0.0006439512823 0.0003496857893 0.0008518099661)
(-8.527764615e-05 -9.79671807e-05 -0.0009598591695)
(-0.000104589152 -0.000162775454 -0.0003940680419)
(-3.388838966e-05 -0.0008659458065 0.0006773572868)
(0.0005814597886 -0.0004310853962 0.0005664533956)
(0.000625707744 -7.812838044e-06 -0.0004642822057)
(0.0006600277548 0.0008883272953 -0.0001276830566)
(-0.0006168166124 -0.0006293636885 -0.0001378733521)
(-0.0001780208855 -0.0003809230069 -0.0003267799634)
(-0.000489302688 -0.0007285735566 -7.799169065e-05)
(9.252341644e-05 -4.495242669e-05 -3.355827778e-05)
(-0.0001078005234 -3.647073241e-05 4.331021579e-05)
(0.0001962651079 0.0005414457321 -0.0001811251249)
(0.0003203904837 0.0006050913176 -0.0003787587434)
(-0.0003062205693 0.0006467370643 -0.0006067175204)
(0.0003519892967 -0.0001472022152 0.0004927748184)
(-0.0004104491712 0.0006475192581 -0.0003641640812)
(6.82548643e-05 -0.0005135736098 -0.0005010004386)
(0.0007056180862 -0.0005083329332 0.0002897120014)
(0.000310720082 -0.0005376129128 0.0004280317502)
(1.770279375e-06 -0.000344790487 0.0001141024437)
(5.209562363e-05 -6.65707542e-05 -9.136623627e-05)
(0.0006335574211 -0.0001975482486 -0.0001143936571)
(0.0004822218799 -0.0004181173657 1.345568644e-05)
(0.0002652078258 -0.0001223943019 0.0002096808379)
(-1.241121657e-05 2.022204597e-05 0.0001787512877)
(-0.000138892206 -0.000500411598 -0.0003174723124)
(0.0005028723226 0.0003024820145 0.0005574234799)
(-0.0001051781494 -0.0004392687968 -0.0002445445031)
(-0.0001053959488 -0.000779930668 0.0005550806171)
(-0.0003688765466 0.0003403596052 -4.524637867e-05)
(9.960163304e-05 0.000751567885 -0.000629783086)
(-0.0002463231521 0.00022098188 -0.0001063303488)
(0.0005406805913 -0.0005393182346 -0.0002886994189)
(-0.001053492288 -0.0008756369992 0.001205409744)
(-5.260607578e-05 0.0006386321154 0.0004123272541)
(4.6770512e-06 8.529841074e-05 -0.0001617906624)
(-0.000465147184 -0.001274868447 -0.0007291962935)
(0.0001400551823 0.0006707499867 0.0006449363854)
(0.0001510902549 -0.000937419877 -0.0003491593162)
(0.0002788647053 -2.808783968e-05 -0.0002764577527)
(0.0003892015105 -7.315286913e-06 -0.0008879211139)
(-0.0006537619427 0.0004446553646 0.0002522250836)
(-3.716837872e-05 0.0001082390457 2.188463981e-05)
(-4.285513404e-05 0.0006445043964 -0.0003106078354)
(0.000699219085 -0.0002658577584 -0.0002968208142)
(8.272193562e-05 0.0009294867628 0.0003061074026)
(0.0006420160716 -0.000611944116 -0.0003521327466)
(0.0004461094953 0.0003711038913 0.0005245850296)
(-0.0002641202023 -0.0001928203386 1.906647984e-05)
(0.0006185285701 0.0006493086395 0.0002265653838)
(-0.0006394642217 0.0006443752412 6.023670806e-06)
(0.0005010781777 0.0009041378906 4.965768016e-05)
(0.0001499015023 6.288956781e-05 0.0002666684449)
(0.0007598001724 -0.0001142147062 0.0001096783159)
(-0.0001948280482 -0.0001763669652 -0.0003571207611)
(0.0003690564169 -0.0003232967073 0.0001302168503)
(-0.0002732977529 -0.0007246225895 0.0006372628895)
(-0.0003494696108 -0.0007623078063 4.063376968e-05)
(-0.0006031516964 0.0009751315217 -0.00011116155)
(0.0003133062048 -0.0004684552602 6.710482782e-05)
(-0.0005339365718 -3.452029677e-06 -0.0001525680453)
(-7.420750901e-05 -0.0004485828691 -1.29527461e-05)
(0.0001789041277 -0.0001955804067 -7.24540378e-05)
(-0.0002236775146 0.0009491203181 -0.0001955998747)
(0.0006232321494 -0.0002472930997 -0.0001621575082)
(0.0001941125904 -0.000194442749 -0.0005767836513)
(-0.0002456344881 0.0003925291112 -0.0003466708011)
(-0.0003391846471 0.0003314932474 0.000416566802)
(0.0001609664547 0.0006368990693 0.0006947471973)
(-0.0006125894928 -0.0004544409126 0.001261581845)
(-0.0008658157253 0.0004013273368 0.0006283838429)
(-0.0003265585703 0.0006500339994 -0.0002377181795)
(-0.0005133475622 -0.0001879696176 -6.562837647e-05)
(0.0002462558917 -0.0002044487398 1.417460436e-06)
(-0.0007701798394 7.372514041e-05 -0.0009957914554)
(-0.0001978877641 -0.0005828840061 -0.000237200856)
(-0.0002397114137 -0.0009259148539 -9.136414521e-05)
(0.0005347364815 -0.0004101745198 -0.0002804447016)
(0.000823314411 -0.0003266444293 -0.0004881201453)
(0.000306639277 0.000546001303 -0.0003052348441)
(5.620949579e-05 0.000310807513 0.0002831910133)
(-8.936631212e-06 -3.374716964e-05 -0.0003823867652)
(0.0001379347729 -0.0004899944899 -0.0004445678726)
(-7.076984449e-05 0.0001569551529 -0.0003814939951)
(-5.749975825e-06 -0.0003230090871 0.0002501668203)
(6.984157448e-06 -0.0006242540409 -0.0002523985057)
(0.0002040509263 4.978128013e-05 -0.0001769109444)
(-0.0003775500537 -0.0001294208027 0.0001183646784)
(0.0004791248268 0.0005782177779 0.0002369583671)
(0.0005312872908 0.0001107354593 -0.000533474404)
(5.550572088e-06 -0.0004449674406 2.211284215e-05)
(3.920573112e-05 -0.0005611422742 0.0003227415127)
(-0.0001370670907 -0.0004593151637 -2.289809095e-05)
(-0.0001963416908 -0.0006191139036 -0.0003470845877)
(0.000585223146 -0.001149022289 0.0008212444556)
(-0.0007725181081 0.000190814005 7.789321857e-05)
(0.0005384954807 -0.0005049194718 0.0003242400669)
(-0.0001127447542 -0.0008360185794 0.0002862524589)
(-0.001140270715 0.0001262292462 0.0002418064398)
(-0.0008989424368 -0.0003332090103 -0.001334148177)
(0.0003208049386 0.001540561217 -0.0001058420239)
(-0.0002769692618 -0.0003168344786 1.384264437e-05)
(0.0004957140784 -0.000676737668 1.59604605e-05)
(0.0001219048684 -6.193060449e-05 -0.0001514089291)
(0.0009057393824 0.0002261046137 -6.726677753e-05)
(0.0002594837083 -0.001165721805 -0.001126813088)
(-0.0003919391991 0.0007768911698 -0.000430812432)
(0.001144033513 0.0001838317554 0.0001627524836)
(-0.00057750126 0.0005108633579 -8.196463529e-05)
(-0.000430287601 -0.000760380134 0.0003506145415)
(2.242051086e-05 0.0003762308376 0.0007332161023)
(-5.706734949e-05 -0.000457228037 0.0002054363549)
(-0.0001513614629 0.000175498254 8.445479624e-05)
(-4.087810368e-05 9.408889492e-05 -9.21522741e-05)
(2.411687976e-05 0.0002913071428 -0.000464219967)
(0.0004908135413 -0.000448589779 -0.0006168328988)
(0.0002329003402 -0.0003392852602 0.0004341061063)
(0.0003952401492 -0.0002469510321 -0.000570492184)
(0.0002150813537 0.0001713498413 0.0002991659656)
(-0.0001184762681 -0.0002206491597 0.0001129474745)
(0.0001479895369 -8.030473609e-05 0.0009765480128)
(0.000332171533 -0.0001900109205 -0.0004856871583)
(0.000278003299 5.114489956e-06 0.0004359773108)
(-0.0005527858154 0.0004752629392 -0.0003215128858)
(-0.0007656568823 -0.0004379065398 -0.0002410215251)
(1.662955617e-05 0.0004043921354 0.0002038638322)
(0.0001296286446 -0.0003070666993 -0.0003196020328)
(-0.001237772624 -0.0005667693222 -0.0001803110529)
(0.0004075215454 0.0002107479772 -9.276166874e-05)
(0.0002633526587 0.0003909535691 -0.0002912118512)
(-0.0001643530908 -0.0004069485296 0.0006770024502)
(-0.0005242321069 -0.0001380152061 0.0005882384832)
(-0.0001209221978 0.0001175110525 0.0002407788736)
(-0.0003318792968 0.0006532397085 0.0004730622868)
(-0.0001682509229 -0.0009222759057 0.0006354931734)
(-0.00139264622 -0.0002180783312 0.001060985988)
(-0.0003790006279 -0.0004282482065 -0.0002360758155)
(0.000195133674 0.0003882712604 -0.0003795169063)
(0.0005515976699 0.0001675498353 -0.0001630583092)
(0.0004920127393 -6.98453806e-05 -0.0009997385463)
(0.0001830619804 -0.0004274522331 0.0002784745379)
(-0.0003157640163 0.0002276903568 -0.0003674751827)
(0.0003063039887 -0.0001034298666 -0.0001169787179)
(-0.0003124297207 0.0001174271436 0.0004330435908)
(-0.0003461923717 0.0008335756021 -0.000716196069)
(0.0001585051169 5.297186874e-05 0.0001028006735)
(0.0002021343813 0.000214682771 -2.3376834e-05)
(6.870901845e-05 -0.0005278816701 -0.0001430399495)
(-0.00100485602 -0.001386544125 0.0006908369634)
(5.659713456e-05 -0.0002135894451 -0.0009406267256)
(0.0004798816568 1.244178251e-05 -0.0003752785476)
(-0.0003396154314 9.077565598e-05 -3.262877634e-05)
(-0.0006989397635 0.001024891001 -0.0002727680281)
(-0.0006563225775 -0.0002667916655 -0.0003800166486)
(-0.0005298154771 -0.001327448453 -0.0009556233783)
(0.0009653156972 0.0003111038761 -0.0008704600832)
(-0.000152435561 0.0003056276348 0.0002331050616)
(5.407929636e-05 6.990788022e-06 0.0002073081151)
(0.0007869670556 5.183545976e-05 0.0003342084975)
(-0.0005178318298 0.000756096736 -0.001066682988)
(5.490522462e-05 0.000107220491 -0.0004836777727)
(0.0001373753314 -0.000356665568 0.0001625292932)
(-0.0007636835317 -0.0004462843077 -0.0003338663101)
(0.0007102270829 -0.0002217105425 0.0003220472826)
(-8.578263288e-05 0.0009250769046 0.000389830882)
(0.0001238299383 0.000385294388 0.0002361429014)
(-5.067022203e-05 0.0004461543732 -0.000217475518)
(0.0004466510873 0.0002893212673 0.001242591679)
(-0.0003431864128 0.0002644826481 -1.446239689e-06)
(-0.0008372695822 0.0001922901744 -0.000770152805)
(0.0008169082342 0.000552376857 0.0001717257259)
(0.00012722629 0.0006423850767 0.000142484257)
(0.0003407033338 0.0003592354969 0.0001674726033)
(0.0006154769533 -7.822641393e-05 -0.0005543201085)
(-0.0001798466222 -3.196118738e-05 -0.0003409115781)
(-0.0001804467232 9.925499948e-05 9.512791973e-05)
(2.363408251e-05 -0.0005349333419 -0.0003027697078)
(0.0001130095009 0.0005690376448 -0.0001204196559)
(0.0001388956859 -0.0001655833194 0.0005394169834)
(-0.0004208910975 5.53801216e-05 0.0001866415404)
(6.988215668e-05 0.0005234152243 -0.0003958725923)
(-0.001025348745 0.001094546695 -0.0003916602238)
(0.0002824825049 -0.0001626669089 8.518377718e-05)
(0.0001283138475 -0.0006463341802 3.660648567e-05)
(0.000311569785 0.001458381673 0.0002897892748)
(0.0001510135029 -0.0001269832479 -0.0008139570878)
(0.0003370306002 -0.0002941995369 -0.0006698186155)
(-0.0006469035884 -0.0003851903784 0.0007278668534)
(-0.0004440659732 -0.0009300616293 0.0007190260671)
(0.0008346718452 0.001176790906 -0.0006775087129)
(0.0004312216955 4.230349197e-05 -0.0003761534926)
(0.0003420081535 -2.554299018e-05 2.186456333e-05)
(0.0003995824075 0.0002917690467 0.000504295958)
(-0.0001693003065 -0.0001053358754 -0.0007765048181)
(0.0006791373604 0.0003367541508 0.0001341027915)
(-0.0005365487758 0.0003093035828 2.400563689e-05)
(0.0002156993198 -0.0001521039224 -2.693776659e-05)
(-0.0002021622842 -0.0004724436872 0.0002059678542)
(-0.0007083774921 -0.0008155081491 0.0008392909829)
(2.876809136e-05 2.235420541e-05 0.0001552387792)
(0.0001789012704 3.202733458e-06 -0.0004333179358)
(-0.0001085973159 0.0001759977334 0.0008391070039)
(-0.0003375119537 0.0009334597178 -0.0006992166063)
(0.0001562576354 -0.0001067130297 0.0001812840732)
(-0.0005316953523 0.0004532419115 0.0005779412748)
(6.180269401e-05 1.984786897e-05 0.000313609817)
(-0.0008420815071 -0.0007353504186 -0.001540679158)
(-0.0001350870814 -0.0001020136779 -0.0001501885863)
(0.0004437468919 0.000294026412 3.934609505e-05)
(-0.0006510654628 0.0005161980466 0.0005819867322)
(-0.0002753171394 -0.0005172087425 -0.001129382569)
(-0.0001192102536 -0.0004229819943 0.0003953320182)
(0.0004620763647 2.242078174e-05 0.0001369088998)
(-0.00016699787 -0.0008024895252 -0.0005158049172)
(-0.0001283539452 0.0004375655433 5.369136025e-05)
(-0.0005674173799 -0.001544105242 0.0002682641937)
(-6.764304502e-05 0.0001029241646 0.0003372210673)
(0.000306624753 4.45169814e-05 0.0003180631959)
(0.0001973113973 -0.0003583542714 4.41072765e-05)
(-0.0003897061112 -0.0003079978557 -5.478721516e-05)
(0.0002689829411 -7.259553418e-05 -0.0005237579012)
(0.0002824765381 0.0008032975097 -0.0001621938072)
(0.0005625608727 -0.0002614398301 -0.0001570067031)
(-0.0001242718351 0.000347745288 2.684175826e-05)
(0.0002599494882 9.492729718e-05 -0.0002659688752)
(-0.0004605047386 0.0002931398392 -0.0004279947661)
(-0.0004272372516 0.0001946895995 -0.0002693391462)
(0.0004233598444 0.000847052978 0.0003732691284)
(-0.0001807125273 0.0005579355551 -0.0004180894886)
(-0.0003534087849 0.0005919106819 -4.373342191e-05)
(-0.0001913498169 -6.826136249e-05 1.474238376e-05)
(6.273783588e-06 0.0001145970197 0.0001491201785)
(-0.00101444003 5.577301582e-05 0.0001621117865)
(-0.0004468380658 0.0003219620565 -0.0002015780304)
(-3.054437393e-05 0.00050474465 -0.0005179181498)
(6.650919399e-05 0.0002557866334 -0.0002192327089)
(0.000563966085 -0.000184237229 -4.327687286e-05)
(-0.0005476139354 -2.144196849e-06 9.84695068e-05)
(-0.0003492327499 -1.235243659e-05 0.0006947353082)
(-4.994652716e-05 -0.0001693717782 8.791405642e-05)
(-0.0004306302965 -0.0005629446801 -0.0004880439638)
(-0.000302462616 -0.0006107039892 0.0001645749538)
(-0.0004191805166 -8.223843051e-05 -0.001101873485)
(0.0002879766839 -0.001144525959 -0.0004786760196)
(0.0005099030399 0.000580039601 -0.0002124394964)
(-0.001068034823 -0.0002945187484 0.0005229598145)
(-0.0005639864621 -0.0001683320121 -0.0002420413978)
(0.0008102328762 -0.0009233558592 -0.0002021288036)
(-0.0002440606119 -0.0006338143502 -0.0004160856496)
(0.000127279978 -0.000117921238 0.0001088432837)
(0.0004375695492 -0.0003013138964 -0.0004187533312)
(0.0003018602796 9.205881084e-05 -0.0002490901792)
(0.0004875962953 0.0001736602118 0.0001283836222)
(0.0009119292794 0.0007519300391 4.79457525e-05)
(5.442696939e-05 -0.0006940949765 0.0003469794037)
(0.001436514398 -0.0003274820155 -0.0002575481672)
(-0.0005411797046 -0.0005093425592 -1.849758147e-05)
(0.001085743535 0.0002342185693 0.0002692295772)
(0.0003578356134 -0.0001165159867 0.0003344199902)
(0.0004426144699 -0.0001794774375 -6.940570492e-05)
(0.000986110356 0.001500030708 -0.0003532554673)
(-7.146926847e-05 -0.0001422665084 0.0002005169424)
(-0.0006215868136 -0.0005968401974 -0.0003111545429)
(-0.0002456980075 0.0007197405726 -5.282135388e-05)
(-0.0007964922205 0.0009274352119 0.0005859371005)
(-5.712245117e-05 -2.422861673e-05 0.0004202522587)
(-6.375409252e-05 -3.428672308e-05 0.0001789811292)
(0.0007830559519 0.0009462229444 -0.0002474532238)
(0.0005995152879 0.0006570181292 -0.0009791787613)
(0.0006151089839 0.0005587280128 0.0001529668798)
(2.160456115e-05 -0.001476311053 -0.0007452308871)
(0.0001947123189 -0.0002196791878 0.000760252663)
(3.535669236e-06 -0.0001636235759 0.00011734331)
(0.0001487599481 0.0002891607352 -7.515186156e-05)
(0.0005788189611 -0.0005847793516 -5.343964007e-05)
(0.0004493420485 0.0001202251275 -0.0009670682088)
(0.0002723411484 -0.001214585361 -0.001020957019)
(0.0003537481404 -0.0001594188654 -0.0005168321568)
(0.0001665777561 0.0004320509572 0.0008124930187)
(0.0004777514327 0.0002106262025 -0.0002152331066)
(3.991543257e-05 -0.0001115292734 0.0003527176708)
(0.0002477937167 -0.000131690172 0.000360866667)
(-3.46136603e-05 -0.0004883080527 0.0002570409197)
(9.200065317e-05 -0.0005780046126 -6.114621633e-05)
(0.0001483956771 0.0001688737339 -0.0003513981319)
(0.0002487739273 0.0003478607046 -5.687527423e-05)
(-0.0003189630998 0.0005785497692 0.0003060157924)
(0.0005755024239 0.000682554933 0.001210258746)
(-0.0004470970252 0.0001008421098 0.0007453696968)
(-0.0001899414485 -9.745006376e-05 -0.0002951777728)
(-0.0002002036079 0.0005053081906 0.0003223051721)
(-0.0003437805818 -0.0001701147093 -0.0001339044864)
(0.0006488151608 -0.0002119313268 -0.000490234173)
(0.0005690801025 0.001180379799 0.0003330265915)
(-0.0002247785325 -0.0001368389721 -0.0002441438994)
(6.772557149e-05 -0.0001950741638 -0.0004241825755)
(0.0001374276189 -5.746916912e-05 -0.0003357593383)
(-0.0004317062843 7.020138732e-05 0.001066207388)
(-0.0002356955518 3.58393366e-05 0.0004219863958)
(0.0007437972671 -0.000175780163 -0.0003887331284)
(0.001139336704 -0.001438946084 -0.0006118263194)
(3.021393554e-05 0.0006979673747 -0.0003377482227)
(0.0006587044578 -0.0006710812679 0.0005851838447)
(-0.0003175643807 0.0001636393759 0.0001464972029)
(-0.0007172898421 -6.890719134e-05 2.62285199e-05)
(-0.0003068218034 3.153523731e-05 -1.141995467e-06)
(-0.0008241824581 0.0002291285329 0.0004456654399)
(0.0003340030768 -0.0001513561694 -0.0004974271378)
(-0.0002922330803 -0.0004073326927 0.0002616239172)
(0.0002576605098 0.0004423337206 -7.649802238e-05)
(0.0002234457344 -0.0005491136933 0.0001125755488)
(-8.039228209e-05 -0.0008254373294 -0.0003719549657)
(-0.0005641235602 -0.0001278787917 7.871022473e-05)
(-0.0003142871335 0.0003881292156 -0.0001149094179)
(-0.0004488921539 -0.0007268676581 -0.0005839253497)
(-0.0004701283931 0.0003820250227 7.344048931e-05)
(0.0008141405839 -0.0001241884837 0.0002016039072)
(-0.0006194413034 -0.0001165992652 0.0004679461703)
(-0.0005166544396 0.0001073545152 0.0001326000313)
(-0.0001570523302 -0.000645012453 0.001044052532)
(0.000223556663 8.057442351e-05 8.807723337e-05)
(-0.0006223783591 -0.000574259591 -0.0004182057804)
(0.0002569678814 -1.941099848e-05 -0.0003246351103)
(0.0001486371489 -0.0002145197173 0.000549651099)
(-0.0004025277795 0.0001973122536 0.0007365403613)
(0.0005374886625 -4.353265031e-05 -0.0001546582691)
(-0.000424696778 -0.0006256319513 0.0005480395856)
(0.0008753543189 -0.0002038020588 -0.00027337695)
(0.0002911700153 -8.575879e-05 1.747103727e-05)
(-2.532621446e-05 -0.0005799612333 -0.0006162595996)
(0.0007440475251 -0.0006000883286 3.617054275e-05)
(-0.0005180554456 0.000640738785 -0.0001473521201)
(-0.0005286111918 0.0004549289836 -4.969263851e-05)
(-1.575139567e-06 0.0004394983542 0.000234545043)
(-0.0003103668405 0.0005105578259 -0.0004157187387)
(-0.0001916720886 0.0004719815839 0.001064828925)
(-0.0003935694954 -9.197506249e-05 -0.00043713129)
(0.00110648852 -0.000354565932 -0.0001712824196)
(-0.0001435752608 0.0003507602604 -0.0001533419013)
(-1.920587252e-05 -8.59603711e-05 -0.0001047819606)
(0.0004457328533 6.452271081e-05 -0.0004317644016)
(0.000651733113 -3.114317417e-05 0.0001148672199)
(0.0002668046863 -0.000605104793 0.0003224929682)
(0.001287059526 0.0002214412225 -0.0003404081352)
(0.0005236329061 -4.686498324e-05 -9.881162403e-05)
(2.001326696e-07 0.000187189472 -6.947460791e-05)
(-0.0006613641055 -0.0001155645141 0.0001742116011)
(-1.478683038e-05 -0.0005559003706 -0.0003421372828)
(0.0003976500033 -5.409917976e-05 0.0006998124768)
(0.0004275634391 0.0002911759949 -0.0001804811121)
(-0.0001420340566 0.0002672474071 0.0006178312405)
(0.0004082909893 -0.0001126803634 -0.0003316653707)
(0.0003817789619 0.0002198651802 0.000151519131)
(0.0004220868152 -0.0006975864168 0.0002186201084)
(-0.0001592648561 0.0003461631653 0.0004305651601)
(-0.0001064225794 0.0002542532857 0.0005206283204)
(-4.287836637e-05 -0.0004285607235 0.0004073246266)
(0.0008878856166 0.0002418830938 -0.0004243764713)
(-0.0007937396852 0.0002781821943 -0.0007666600685)
(-0.0003791421068 -0.0001988093217 -0.0003388763623)
(0.0001030575514 -2.880737217e-06 -0.0001361178339)
(-0.0002053477461 -0.0006533459559 -0.0001711608906)
(-0.0002668189379 0.0002029609644 0.0004796742633)
(-8.282695018e-05 2.155632616e-05 0.0002665393888)
(0.0003888324212 0.000737109241 -2.04844541e-05)
(2.2571402e-05 0.0009090292151 -0.0008719796571)
(-0.0001587643821 7.895936252e-05 -0.0003586608211)
(0.0001822805054 -9.47278975e-05 0.0001463427052)
(-7.404471222e-06 -9.189159977e-05 -0.0003652533234)
(-0.0001628384758 0.0002698452853 -0.0001798124288)
(0.000101543523 -0.0007381772696 -0.0004848103194)
(0.000386855222 0.0007399831768 0.0005163514278)
(3.542305898e-06 9.487788665e-05 -0.000556410904)
(0.0002656925091 -0.0005067527556 -0.0005246558493)
(-0.0001601818187 0.0002576914015 -0.0006902638661)
(-0.0007565241472 0.0004121551838 3.518963261e-05)
(-0.0002655517741 0.0003017947349 -0.0006335373633)
(0.0002129800966 -0.0002731654858 1.51383679e-05)
(-7.082988917e-05 -1.457888697e-05 -0.0008151608497)
(-9.926164593e-05 -0.0005168651575 -0.0004061850468)
(-0.0002383264068 -7.835588358e-05 0.0002596285049)
(8.894332409e-05 0.0002854039175 0.000226579662)
(-6.898614039e-05 0.0006644020018 0.0005914511854)
(4.482140046e-05 0.0002604426485 -4.823097445e-06)
(0.0007118433776 -0.0005064348219 0.0001950220277)
(0.0003678527042 0.0006202968634 -0.0002154174232)
(-0.0005894074269 -0.0003067171479 -0.0004380892292)
(-0.0002918233178 0.0001007972732 -0.000308046214)
(0.0002889127391 -0.0003929763983 0.0002139527876)
(-0.0005627709031 -0.0003554879578 0.0004134684383)
(0.0001335123249 -0.0004400191736 0.0002038244923)
(0.0003953177951 -0.0002347730292 4.769778797e-05)
(0.0002124639119 3.981572238e-05 -0.0002748835775)
(0.0001615947398 -0.0001545301894 -0.0009530552902)
(0.0004364562724 5.029966476e-06 0.0005201738509)
(-0.0001869558152 -0.0001992905559 -0.0004239197235)
(-0.0005071783328 0.0003079175794 -0.0008306277014)
(0.0005495275935 -0.0009863498108 0.0006183269939)
(0.0003896222472 -0.0002675850523 0.0008298927748)
(0.0001833997405 0.0001337138646 3.115947592e-05)
(0.0008387173077 0.0001708152883 0.0002988976343)
(0.0003356932406 0.0006080606016 -0.0001676718256)
(0.0009690509907 0.0003125242233 0.0003435789285)
(-0.0005844641212 -1.058483269e-05 3.401491805e-05)
(0.0007099597956 1.531771692e-05 8.732423846e-05)
(-0.0001461497173 0.001299201268 -0.0005570609734)
(0.0002430319567 -3.266716757e-05 -0.0003571547527)
(-0.0001774849299 0.0001930194196 0.000197412189)
(0.0001673651652 -3.393156185e-05 -8.69695017e-05)
(-0.0003799983408 -0.0001407639764 -0.0002566553733)
(0.0001577426682 -0.0002204290921 0.0001864940339)
(-7.363687207e-05 7.337670391e-05 -0.0001684508258)
(0.0003201373228 -0.0005357620048 -1.68303759e-05)
(0.0004319418311 0.0006854180887 0.0008778303282)
(0.0007540538576 0.0003326277371 0.0008254574318)
(0.0002841399824 -0.0008474965927 0.0005136009646)
(-0.0006334753418 -2.295313106e-05 -0.0009336605685)
(0.0006417356896 1.139525957e-05 0.0004318929662)
(3.313268998e-06 -8.345646194e-05 0.0001190649459)
(3.002100553e-05 -0.0002199596434 -1.829767442e-05)
(-0.0001993389345 -0.0001974593252 -0.0001458098295)
(-0.0005736319896 -0.000406670582 0.0004132496006)
(-0.0003163372118 -0.0001275359761 -0.0004646360659)
(6.202758327e-06 4.262237113e-05 -0.0001857973182)
(0.0002926228959 -0.0002634875434 0.0005162504063)
(3.116563862e-05 -2.285244424e-06 0.0001708608021)
(-1.105687024e-05 -0.0007365649068 0.0002594043549)
(1.490857445e-06 -0.0005523428041 7.521987833e-05)
(0.0004466508999 -8.378386573e-05 0.0005650020688)
(-0.000180068731 -0.0006729314751 -0.0006184098745)
(-8.368185694e-06 -0.000239417305 -0.0005032543904)
(-0.0002727781629 -0.0001588030754 -0.000482519549)
(0.0008870777605 -0.0003750365035 -0.0002286657554)
(3.019478625e-06 -0.0002020464116 0.00102110114)
(0.0004804439382 -0.0001823307446 0.0002343545584)
(-0.0005566817074 -0.0005530699704 -0.0001031190756)
(0.0006801891694 -0.0003360209648 6.456511347e-05)
(-0.0004563059521 0.001289421759 -0.0003144691456)
(0.0001962581834 5.086327052e-05 -0.0001092032519)
(0.00023558512 0.0001598433081 5.591278375e-06)
(-6.553602553e-05 0.0001890909381 -1.8780311e-05)
(-0.0004413950934 0.001570763799 -0.0003395426205)
(-0.000438151898 -4.435493865e-05 -0.0005690365853)
(0.0002738952429 -0.0003020857443 -0.0001631017948)
(-0.0002518170632 0.0003733135426 8.869604759e-05)
(3.670717489e-05 1.261533582e-05 0.000232456953)
(0.0004951170876 -0.001056425061 0.0003424856627)
(-0.0003921109467 4.25694175e-05 4.686770104e-05)
(0.0004857420266 -0.0003772544479 0.0003752199953)
(0.0001061256615 0.0004321955758 -5.77211558e-05)
(0.0009012515642 -0.000299031909 3.290177113e-05)
(0.0002196703381 0.0001410058442 -2.317755514e-05)
(-9.598728823e-05 -9.519657817e-05 -0.000201336817)
(-0.0002912573804 0.000124223389 -0.001159368339)
(-1.026438263e-05 0.001113854894 0.0001312313949)
(0.0002865866789 -0.0005623510502 -0.0001552597864)
(4.595699871e-05 0.0006367450728 -1.505696296e-05)
(-0.0005542494653 -0.0001558789822 -0.0002736605168)
(-5.657277435e-05 0.0002113690042 -1.158691557e-05)
(9.488323598e-05 -0.00023376736 -7.597025417e-05)
(-0.0006426784956 -0.0001971106832 5.950851258e-05)
(-9.948640342e-05 0.0006181491459 -0.0005130446896)
(-0.000765652112 -0.001192509971 -0.0007033819942)
(0.0002265989222 0.0005016992647 -0.0007018972313)
(-0.0007303127429 0.001018400049 -2.21601604e-05)
(-0.0009243889679 5.694578286e-05 0.0005043115152)
(-0.0002926066864 0.0004838289178 7.8711502e-05)
(-0.0007741957211 -0.0003297010133 0.0005333146089)
(0.0002441554433 -3.464370626e-05 0.0003433924143)
(-0.00067365509 0.0009543774896 -0.0001541715694)
(-0.0004625991236 -0.0002405673109 0.0009531205662)
(1.885253457e-08 -0.0003433434951 1.381096685e-06)
(0.0001230496772 0.0001128287895 -0.0002581895049)
(-0.000462255983 0.0005812866974 3.575445054e-05)
(0.0004167737423 -0.0006961357078 0.0005697532504)
(0.0001704867505 -0.0001086304423 -0.00039930124)
(0.0001430029553 0.0007602598919 -0.0002494056674)
(1.571501159e-05 1.792684385e-05 -0.0003411597357)
(-8.962387535e-05 -0.0003701294781 0.001030707685)
(-0.0002073359966 -0.0003644546741 -9.915920508e-05)
(-0.0005659063009 -0.0007551187006 0.000359336992)
(-1.522917817e-05 0.0004363531567 -0.0003501759293)
(0.0005704573239 -0.0007660801346 0.0003459581063)
(8.634805469e-05 9.044247202e-07 -9.824316225e-05)
(-0.0002031570925 0.0006632051217 7.866652789e-05)
(0.0001177152447 -0.0002099629477 0.00019592001)
(-0.0004424551465 -0.0002108868596 -0.0004189393835)
(-0.001116371192 0.0005282268754 -0.0001857460757)
(-0.0003242130457 -4.954409299e-05 0.0002589481186)
(-0.0004733564903 -0.0007770518392 -0.0001214133584)
(-0.0005606351707 0.0005312785834 8.567141297e-05)
(0.0001039024258 -0.0001121093681 8.507776696e-05)
(2.606038972e-05 0.0006054558377 -0.0002151311596)
(0.0001171390316 0.0001043436909 0.0007121637018)
(0.0001126605092 0.0003136723241 -1.756088536e-05)
(0.0002429385523 -0.0008025475324 0.0003714436954)
(-0.0004744989769 -0.0004290802819 -0.0002073677047)
(0.000284601544 -0.0003540882342 -0.0006471840511)
(9.588779099e-05 0.0002195058073 0.0006197873351)
(-0.0003392266403 -0.0004423650142 -0.0002298033579)
(-0.0001964054858 0.0009122808712 -0.0005460625239)
(-0.000924703676 1.45676836e-05 0.0006049730663)
(-0.0006936420473 -4.626957125e-05 0.001038358832)
(0.000505107339 0.0003750778664 0.0003217385445)
(-0.0003849118579 -0.0003581826257 -0.0005211954238)
(0.0009565982842 0.0005960292605 -2.518227403e-05)
(0.0009277615051 0.000167867612 3.174241923e-05)
(0.0003977886771 0.0001510600209 0.0007530348485)
(-0.0003718307504 0.0007916463568 -8.080934138e-05)
(-4.333053533e-05 -0.0003970338664 -0.000917463533)
(-0.0002344501328 0.000112078351 0.0009552304009)
(-0.0001139244037 0.0002714422425 4.662131477e-05)
(1.028755326e-05 0.0006534470507 -0.0001319962599)
(-3.123350724e-05 0.0003665549623 9.027081129e-05)
(-0.0006522097528 6.789074003e-05 -0.0005295483721)
(0.0002199742603 -0.0006074471686 -0.0002364592468)
(-0.0002499758592 0.0001031690148 -0.0001219966895)
(-0.0007015194576 -0.0002430775559 -0.0005312714003)
(-0.0006964287513 -0.0004762971836 0.0004974878756)