/*--------------------------------*- C++ -*----------------------------------*\
  =========                 |
  \\      /  F ield         | OpenFOAM: The Open Source CFD Toolbox
   \\    /   O peration     | Website:  https://openfoam.org
    \\  /    A nd           | Version:  7
     \\/     M anipulation  |
\*---------------------------------------------------------------------------*/
FoamFile
{
    version     2.0;
    format      ascii;
    class       volScalarField;
    location    "0.007";
    object      overallT;
}
// * * * * * * * * * * * * * * * * * * * * * * * * * * * * * * * * * * * * * //

dimensions      [1 2 -2 0 0 0 0];

internalField   nonuniform List<scalar> 
654
(
291.3320917
300.3809276
296.6794959
296.3164673
295.9570223
298.6557149
298.9252509
298.2477541
297.6218086
297.8570407
299.5428717
298.8353105
299.1365063
299.3105997
306.8738613
315.3958231
335.4027235
389.283835
543.0671013
955.3046786
295.1093762
305.6978462
300.5097769
301.124492
301.5336351
300.0925302
299.3491082
299.9793238
300.3888608
300.1750893
301.3618576
301.8907275
302.3234819
306.082954
307.7573884
320.4269017
349.9012351
412.2488689
582.6278686
858.4291217
296.1150892
306.149316
301.607892
302.2587488
302.045274
301.7908696
301.43541
301.1876422
301.2943153
302.4770858
302.9262596
303.6060482
301.9633263
303.2722999
307.3384744
319.6881096
352.1950219
411.6944944
533.7006491
709.2276728
295.3116406
304.4542981
300.9592389
301.7819137
300.3715697
300.8081991
299.9202962
300.7163686
301.7168219
301.3085857
302.4042142
301.5713164
301.5539412
306.1904484
309.7012195
322.1566161
343.111051
396.7106185
480.3584497
592.7177446
296.3562614
305.3497081
300.0652497
301.0421647
302.2256758
302.5149611
301.3956588
301.0316538
300.6686818
300.063734
300.4977454
302.4858927
306.4054722
310.3977335
309.4074691
321.5571688
340.5746248
371.800715
424.8407278
509.9037452
297.0386876
305.9084738
302.0675384
301.5968959
301.1514329
299.5756475
300.0346313
300.3775368
300.2775877
301.1119828
301.0331951
302.4000314
303.5054552
305.3092499
307.6463521
317.8965985
328.6105626
353.0666249
397.5431117
450.3724657
294.1402437
304.1678822
301.568334
301.6359924
299.610324
299.1289592
299.4350046
300.9233925
301.0075435
299.8262649
300.8153742
301.2147784
303.2560552
306.2423582
310.7464743
313.1346117
325.1410419
340.9040632
363.1810852
406.5166191
290.8506142
302.8220965
298.4180121
298.97186
301.4258943
302.6262301
301.5591686
300.3165819
300.3217341
301.3314808
301.7113383
300.916662
301.6120791
302.0034037
304.2844463
314.1902501
318.8291979
328.2536998
346.7938827
383.0345777
295.4131164
303.1207929
296.9859101
297.5311748
296.6139438
296.5483012
296.8543235
297.2942799
298.5910856
299.1018116
299.8646787
300.5317179
301.6084985
304.7257912
308.0194534
313.6866556
316.9059794
323.5379148
333.2725791
360.8883419
294.8201303
304.7905912
301.7224093
302.387283
301.9447959
301.1785615
302.1742166
302.0165492
299.5436889
299.9969983
301.7864228
302.369161
301.8144764
305.1093053
305.4160117
304.9027632
309.6876471
316.4636649
324.1322814
344.2313422
295.6051894
304.8288826
300.4005689
301.7463305
300.0856117
301.0555809
300.1312486
298.7925781
299.5492359
299.4749686
297.0810023
298.4035686
299.3316188
302.2297733
303.1844178
303.9665124
305.7324532
311.3254405
319.3755627
330.8368848
294.9635143
303.0490561
299.0899232
298.9041424
301.2784884
300.361077
300.2687659
301.1623994
301.6555764
300.2388003
301.9829597
301.6029212
301.8512233
303.1872012
301.5748486
301.2514857
302.825881
305.6962792
318.3392285
328.6024895
295.5439177
305.7170623
301.4000155
301.2275431
300.17058
299.3670412
300.0338548
300.7761368
300.1106732
301.1727284
299.9807343
299.8971745
299.5798754
300.4845752
301.5342411
301.1159677
304.0611386
305.6987956
314.2103301
322.4696499
293.7377567
301.8813984
298.5904847
301.2061092
302.4201603
304.2772601
303.2034722
301.2654444
301.4001665
301.5796564
302.4508842
305.4447615
303.9907855
302.1100564
303.7849079
303.8495101
304.8598218
305.7282776
311.4946473
312.3316896
293.9719964
304.8680903
301.3093608
301.1474123
301.1605993
300.9968956
299.299374
300.726328
301.0302346
299.0790893
298.1770393
299.4873241
299.9423566
299.0926757
300.6630425
300.5834631
302.2682444
301.6392869
307.6450238
309.637136
294.4838683
304.091569
298.2626288
298.6696699
297.7167929
298.2496605
299.4254508
300.0442073
299.9346905
300.4563491
301.5370847
299.8927517
300.2687919
301.6301678
302.0349665
302.7011592
303.4912771
303.7941567
309.1890215
308.1903331
294.1098477
303.3138113
298.5013255
299.498303
300.3256165
299.6255173
300.0549656
300.0625003
301.4965752
302.8831309
300.2505644
301.1023095
300.9362323
302.9419979
301.6439543
301.5393861
302.9990785
303.7187853
306.5941695
307.2411734
291.4881157
300.2288073
296.8051725
297.4059093
297.4114094
298.2834672
299.7158284
300.1253048
298.6089611
299.2362168
300.9849544
303.2601349
303.3096593
301.8162748
302.9031902
304.1968003
300.7306877
304.1070355
306.2939812
309.5819656
295.86739
305.8019213
303.2758979
301.4728678
300.030339
298.8736327
297.4764717
297.0686625
296.8293283
297.8688841
298.3116885
298.7475267
299.964513
300.3342192
301.1762077
303.0805549
303.0890434
303.0700887
303.8505124
305.2031226
295.5763387
304.8441733
299.5074287
300.1958523
300.3671892
300.1988926
301.3618877
301.4920155
303.2195516
304.8536158
303.7079511
303.2856038
303.1641665
302.1256564
302.383123
301.7709761
303.3344377
303.6265972
304.6881984
306.7864628
295.2268626
303.9167987
299.0643704
299.8534672
300.5541497
302.3023303
300.8021855
300.2021772
298.7740926
298.334613
298.4418838
299.5586974
299.9241694
298.8659777
299.7114841
299.5688844
301.2870262
303.3854784
302.0294424
299.6914701
294.9791509
304.8403224
301.7359875
301.8858899
301.1266525
301.7423227
302.5218698
301.3965399
300.9121039
301.4345992
301.6530178
300.5349261
300.1782999
301.3441481
300.8979524
302.6955999
304.1522973
302.5619809
302.204027
301.0180936
1050.615465
996.3556714
965.6626156
944.1243148
923.7354355
909.6930278
895.054817
878.0341198
859.7333922
846.6121398
1015.828038
1016.469562
999.2609216
983.3339592
969.9167139
963.6244844
949.4028265
944.1840241
941.9691775
928.239388
873.2646979
931.9507813
938.3445749
948.420898
941.1833416
943.1134611
947.5913234
946.7550878
939.6854808
935.8188371
731.4169975
796.3712264
858.5940895
883.0346881
894.6196538
903.1763556
905.223127
910.7308998
907.0016172
913.1024762
607.9817608
683.7110407
761.4851028
796.6036935
823.0562105
845.880551
857.2568717
870.7130204
863.8695868
871.6474132
513.3743502
583.1870625
651.5596041
718.219078
745.9003184
775.5324616
809.6375906
819.335996
828.558269
835.2794572
463.5590084
515.6632378
555.1867485
625.640786
667.3898094
696.9395706
741.2490637
767.2265523
791.1619827
796.0039022
424.9633885
451.3586149
503.5912749
553.5242858
599.4689461
628.2791904
670.4159865
701.1643083
723.6381345
749.4788619
389.463063
420.2906622
448.8341308
482.5457797
527.1057727
557.7174822
590.0668877
630.2529064
661.541766
681.5630346
364.3381857
385.1999418
405.4843722
438.1221824
467.6999614
499.8498058
528.1606504
566.5139571
606.2440714
625.342467
342.6899451
363.7641805
383.0515274
403.000782
427.3555884
451.08214
476.2638544
514.4860459
548.6652418
567.8835362
333.8557429
344.8183506
358.5431919
378.8167677
393.7527742
421.8021433
442.5927714
469.8412329
491.3853061
521.3296156
330.9253634
334.2382621
341.9293717
357.9403221
367.8084564
389.6200427
407.2040544
429.4492782
449.1701608
470.9995962
320.9763844
324.7251809
329.0946261
342.1135663
351.3574225
359.698681
375.7047239
394.5554826
416.4406448
437.4825914
313.7569668
321.1928619
326.0959196
328.8723046
344.5455434
350.6596741
361.5362765
369.58655
387.3454707
399.8930587
310.0240935
313.3385851
319.0724557
324.2436625
332.5963212
340.5674251
347.4900246
351.3976241
364.9368895
375.7950989
311.8641759
311.5738335
316.7701762
319.2563217
322.2454237
327.9621259
333.686199
342.8980875
352.9263753
363.2597588
308.2444111
309.2584964
311.599656
317.7739014
317.8346774
320.9156676
326.7470691
331.2989522
338.910122
345.7835876
305.4274352
308.4772461
311.9418717
313.098112
315.8087057
320.0613277
322.2700032
326.7311258
329.1326218
330.0078851
307.1585528
306.7581198
305.8801034
307.5619433
310.0058095
309.5530051
310.49272
316.1947907
321.4890077
326.0899231
301.4407006
299.6238226
304.7718985
305.9271918
308.9685487
312.1245363
313.7807031
316.9519675
316.5389979
319.0789672
304.4412136
304.4268933
305.6280181
305.8757266
)
;

boundaryField
{
    flow
    {
        type            calculated;
        value           nonuniform List<scalar> 
42
(
291.3320917
295.1093762
296.1150892
295.3116406
296.3562614
297.0386876
294.1402437
290.8506142
295.4131164
294.8201303
295.6051894
294.9635143
295.5439177
293.7377567
293.9719964
294.4838683
294.1098477
291.4881157
295.86739
295.5763387
295.2268626
294.9791509
291.3320917
300.3809276
296.6794959
296.3164673
295.9570223
298.6557149
298.9252509
298.2477541
297.6218086
297.8570407
299.5428717
298.8353105
299.1365063
299.3105997
306.8738613
315.3958231
335.4027235
389.283835
543.0671013
955.3046786
)
;
    }
    obstacle
    {
        type            calculated;
        value           nonuniform List<scalar> 10(931.940749 884.3454589 832.4695963 831.7831832 803.1287095 780.9343464 784.3277302 742.4202304 770.6801047 732.2667973);
    }
    frontAndBack
    {
        type            empty;
    }
    procBoundary0to1
    {
        type            processor;
        value           nonuniform List<scalar> 
21
(
837.0850694
922.694047
929.049465
913.3951272
875.2847745
838.7196666
804.0768427
756.5361612
713.3205256
658.733622
607.9922385
549.7627216
501.0013767
459.6865526
426.0917386
393.2313475
373.8810963
358.7860817
337.1637342
331.5964739
323.8227646
)
;
    }
    procBoundary0to2
    {
        type            processor;
        value           nonuniform List<scalar> 
31
(
296.3359307
303.3172077
297.7302921
299.2823719
299.7375017
299.8936092
299.3062048
300.3825371
302.4190149
302.3053881
303.0658012
303.1378191
302.4289178
302.9884663
301.7446115
300.4073874
299.8798476
300.5862407
302.4775017
302.3421233
306.7737064
309.0897638
311.306987
313.0807436
314.7857171
316.062458
302.875831
302.8411949
302.4820708
306.7737064
304.3068528
)
;
    }
}


// ************************************************************************* //
