/*--------------------------------*- C++ -*----------------------------------*\
  =========                 |
  \\      /  F ield         | OpenFOAM: The Open Source CFD Toolbox
   \\    /   O peration     | Website:  https://openfoam.org
    \\  /    A nd           | Version:  7
     \\/     M anipulation  |
\*---------------------------------------------------------------------------*/
FoamFile
{
    version     2.0;
    format      ascii;
    class       volScalarField;
    location    "0.007";
    object      rhoM;
}
// * * * * * * * * * * * * * * * * * * * * * * * * * * * * * * * * * * * * * //

dimensions      [1 -3 0 0 0 0 0];

internalField   nonuniform List<scalar> 
654
(
5.948892263e-06
3.942947953e-06
6.01783293e-06
2.490195221e-06
7.124216086e-06
5.602522687e-06
6.433143174e-06
5.53358202e-06
4.911449774e-06
7.470585662e-06
3.52763771e-06
1.937003643e-06
2.974446132e-06
7.470585662e-06
4.080829287e-06
7.055275419e-06
2.421254554e-06
3.942947953e-06
6.571024508e-06
3.043386799e-06
4.980390442e-06
3.596578377e-06
6.848453417e-06
2.974446132e-06
2.974446132e-06
4.080829287e-06
2.00594431e-06
5.602522687e-06
4.358258196e-06
3.458697042e-06
5.879951596e-06
3.596578377e-06
5.740404021e-06
2.421254554e-06
5.464641352e-06
2.974446132e-06
3.389756375e-06
4.496139531e-06
4.496139531e-06
2.905505464e-06
3.942947953e-06
2.559135888e-06
2.00594431e-06
2.974446132e-06
6.986334752e-06
2.974446132e-06
2.421254554e-06
4.565080198e-06
5.53358202e-06
2.974446132e-06
6.639965176e-06
6.01783293e-06
3.942947953e-06
2.974446132e-06
4.218710622e-06
6.364202506e-06
4.634020865e-06
5.395700685e-06
4.427198864e-06
2.974446132e-06
2.974446132e-06
3.596578377e-06
6.364202506e-06
3.874007286e-06
2.00594431e-06
4.01188862e-06
3.665519044e-06
3.942947953e-06
3.52763771e-06
6.502083841e-06
3.112327466e-06
6.502083841e-06
4.427198864e-06
3.52763771e-06
2.421254554e-06
3.596578377e-06
3.458697042e-06
5.464641352e-06
1.937003643e-06
3.043386799e-06
4.911449774e-06
2.490195221e-06
4.980390442e-06
5.049331109e-06
4.911449774e-06
6.917394084e-06
4.01188862e-06
6.086773598e-06
5.53358202e-06
2.00594431e-06
4.080829287e-06
4.911449774e-06
4.980390442e-06
5.049331109e-06
4.980390442e-06
1.452752732e-06
1.937003643e-06
2.559135888e-06
4.980390442e-06
4.01188862e-06
4.565080198e-06
5.879951596e-06
2.974446132e-06
4.080829287e-06
5.948892263e-06
5.602522687e-06
5.811010928e-06
2.421254554e-06
4.080829287e-06
4.080829287e-06
2.974446132e-06
5.464641352e-06
4.149769955e-06
2.974446132e-06
3.458697042e-06
5.948892263e-06
1.590634067e-06
4.911449774e-06
2.628076555e-06
4.980390442e-06
3.043386799e-06
4.496139531e-06
4.427198864e-06
6.433143174e-06
6.155714265e-06
3.52763771e-06
7.055275419e-06
2.490195221e-06
5.395700685e-06
4.980390442e-06
5.256153111e-06
8.439087484e-06
5.395700685e-06
2.974446132e-06
3.52763771e-06
5.602522687e-06
3.942947953e-06
6.086773598e-06
4.980390442e-06
4.702961533e-06
2.074884977e-06
5.879951596e-06
3.874007286e-06
3.596578377e-06
3.458697042e-06
3.942947953e-06
3.458697042e-06
3.596578377e-06
4.01188862e-06
4.565080198e-06
2.974446132e-06
3.043386799e-06
6.364202506e-06
7.055275419e-06
4.980390442e-06
4.911449774e-06
3.389756375e-06
3.389756375e-06
3.596578377e-06
4.358258196e-06
5.464641352e-06
6.986334752e-06
5.671463354e-06
5.118271776e-06
4.911449774e-06
3.665519044e-06
3.043386799e-06
2.905505464e-06
3.458697042e-06
6.086773598e-06
4.149769955e-06
4.149769955e-06
3.043386799e-06
3.874007286e-06
2.490195221e-06
2.00594431e-06
4.496139531e-06
2.628076555e-06
4.980390442e-06
2.00594431e-06
4.842509107e-06
4.358258196e-06
3.458697042e-06
4.980390442e-06
8.576968818e-06
4.01188862e-06
4.080829287e-06
5.53358202e-06
5.049331109e-06
5.879951596e-06
5.118271776e-06
2.421254554e-06
4.427198864e-06
3.112327466e-06
3.52763771e-06
3.942947953e-06
3.665519044e-06
3.734459711e-06
5.118271776e-06
2.490195221e-06
8.992279062e-06
6.01783293e-06
4.980390442e-06
4.842509107e-06
3.52763771e-06
6.639965176e-06
4.01188862e-06
3.942947953e-06
7.401644995e-06
4.496139531e-06
4.496139531e-06
4.565080198e-06
4.080829287e-06
8.232265482e-06
5.049331109e-06
4.01188862e-06
3.665519044e-06
2.00594431e-06
3.458697042e-06
3.942947953e-06
3.942947953e-06
6.502083841e-06
6.433143174e-06
2.974446132e-06
3.043386799e-06
3.52763771e-06
3.942947953e-06
3.942947953e-06
4.565080198e-06
5.049331109e-06
5.395700685e-06
4.980390442e-06
4.980390442e-06
3.52763771e-06
3.52763771e-06
6.224654932e-06
1.937003643e-06
5.049331109e-06
4.565080198e-06
4.496139531e-06
4.149769955e-06
5.53358202e-06
7.816955239e-06
5.53358202e-06
2.490195221e-06
4.980390442e-06
4.080829287e-06
5.395700685e-06
4.496139531e-06
3.112327466e-06
3.942947953e-06
3.52763771e-06
3.874007286e-06
1.937003643e-06
3.112327466e-06
5.879951596e-06
4.565080198e-06
3.942947953e-06
3.52763771e-06
2.421254554e-06
4.842509107e-06
4.080829287e-06
2.490195221e-06
6.571024508e-06
7.677407664e-06
2.00594431e-06
3.942947953e-06
5.602522687e-06
2.559135888e-06
4.911449774e-06
3.458697042e-06
5.602522687e-06
3.389756375e-06
3.942947953e-06
1.521693399e-06
5.395700685e-06
2.905505464e-06
2.974446132e-06
4.358258196e-06
4.980390442e-06
5.464641352e-06
2.974446132e-06
4.634020865e-06
8.301206149e-06
6.01783293e-06
7.263763661e-06
4.01188862e-06
6.364202506e-06
3.874007286e-06
4.634020865e-06
2.143825645e-06
2.490195221e-06
4.496139531e-06
4.496139531e-06
3.874007286e-06
1.590634067e-06
2.905505464e-06
4.634020865e-06
2.628076555e-06
4.01188862e-06
4.427198864e-06
3.043386799e-06
5.395700685e-06
4.496139531e-06
4.080829287e-06
2.697017223e-06
2.905505464e-06
4.496139531e-06
5.464641352e-06
4.911449774e-06
3.942947953e-06
3.52763771e-06
3.112327466e-06
1.521693399e-06
6.502083841e-06
3.043386799e-06
2.559135888e-06
2.421254554e-06
5.53358202e-06
2.421254554e-06
4.01188862e-06
6.293595599e-06
6.986334752e-06
4.427198864e-06
5.948892263e-06
6.086773598e-06
2.421254554e-06
2.628076555e-06
5.464641352e-06
6.986334752e-06
3.458697042e-06
4.01188862e-06
6.433143174e-06
6.01783293e-06
3.52763771e-06
2.974446132e-06
4.980390442e-06
1.937003643e-06
3.52763771e-06
2.421254554e-06
4.427198864e-06
5.879951596e-06
3.874007286e-06
3.458697042e-06
5.326760018e-06
5.049331109e-06
2.628076555e-06
6.571024508e-06
2.905505464e-06
5.049331109e-06
2.00594431e-06
3.52763771e-06
3.458697042e-06
4.565080198e-06
5.671463354e-06
3.942947953e-06
3.874007286e-06
3.389756375e-06
2.490195221e-06
2.905505464e-06
7.332704328e-06
3.596578377e-06
4.01188862e-06
1.452752732e-06
3.043386799e-06
4.358258196e-06
4.427198864e-06
2.421254554e-06
7.954836573e-06
3.874007286e-06
6.086773598e-06
4.358258196e-06
6.01783293e-06
5.53358202e-06
3.942947953e-06
4.427198864e-06
4.01188862e-06
6.433143174e-06
2.559135888e-06
4.01188862e-06
6.917394084e-06
6.364202506e-06
5.671463354e-06
5.464641352e-06
5.049331109e-06
3.942947953e-06
6.433143174e-06
4.911449774e-06
3.043386799e-06
3.043386799e-06
3.942947953e-06
6.502083841e-06
4.358258196e-06
2.974446132e-06
3.52763771e-06
2.490195221e-06
4.358258196e-06
8.508028151e-06
2.559135888e-06
2.559135888e-06
4.565080198e-06
3.942947953e-06
4.427198864e-06
3.043386799e-06
4.634020865e-06
4.702961533e-06
2.628076555e-06
4.01188862e-06
5.326760018e-06
4.01188862e-06
4.911449774e-06
8.092717908e-06
4.080829287e-06
3.389756375e-06
1.937003643e-06
5.395700685e-06
5.049331109e-06
2.490195221e-06
3.250208801e-06
5.602522687e-06
3.52763771e-06
5.049331109e-06
2.905505464e-06
3.112327466e-06
6.433143174e-06
5.326760018e-06
4.980390442e-06
4.980390442e-06
5.53358202e-06
3.043386799e-06
3.181268133e-06
1.937003643e-06
4.565080198e-06
4.565080198e-06
4.427198864e-06
4.080829287e-06
4.496139531e-06
2.00594431e-06
4.496139531e-06
3.389756375e-06
1.527089714e-06
2.516209661e-06
4.152010345e-06
1.559030262e-06
2.997695977e-06
1.581076756e-06
1.085604034e-06
3.134852916e-06
2.202576851e-06
3.106757727e-06
2.499026091e-06
9.155880002e-06
2.956185594e-06
3.118060526e-06
5.06728809e-06
2.730635986e-06
2.099066946e-06
2.114121452e-06
2.05621007e-06
3.624550681e-06
3.261734873e-06
9.786195149e-07
2.111076765e-06
3.543560984e-06
2.069592113e-06
1.581076756e-06
2.099066944e-06
4.228242904e-06
4.626472657e-06
4.80756839e-06
5.553205518e-06
3.00551942e-06
2.603774365e-06
3.047428301e-06
4.99615996e-07
4.383343784e-06
4.270275015e-06
6.415022876e-06
1.174471816e-06
2.218603618e-06
4.026115804e-06
2.026899903e-06
6.052657558e-06
2.976796083e-06
2.99769598e-06
2.515742855e-06
3.619261313e-06
4.228242904e-06
2.64344598e-06
1.553378864e-06
2.429840942e-06
6.080699709e-06
2.956185592e-06
1.629662484e-06
4.99615996e-07
4.168450649e-06
2.605798398e-06
4.228242898e-06
1.101288425e-06
2.736396575e-06
3.470962467e-06
5.102080194e-06
1.970790396e-06
2.551295625e-06
1.998463987e-06
4.168450655e-06
5.572302419e-06
5.759340104e-06
4.112420139e-06
1.627094764e-06
3.401777319e-06
2.446548789e-06
2.111076766e-06
3.118060524e-06
3.068824102e-06
3.090522467e-06
5.862610505e-06
4.228242904e-06
4.18560353e-06
6.360947254e-06
1.457904565e-06
6.080699709e-06
4.011723974e-06
5.598723927e-06
3.63956823e-06
3.665302082e-06
3.040388731e-06
2.114121452e-06
4.626472657e-06
2.144887718e-06
4.026115807e-06
4.053799808e-06
5.137405545e-06
1.559030263e-06
3.139952231e-06
3.233784557e-06
6.731791169e-06
3.207511438e-06
5.800944473e-06
2.071171818e-06
4.442898844e-06
4.123460679e-06
4.152010344e-06
4.606458566e-06
3.568440101e-06
1.077928185e-06
5.500161292e-06
4.593291595e-06
2.643445978e-06
3.771982481e-06
3.470962467e-06
4.053799808e-06
4.714851131e-06
3.543560981e-06
7.136880202e-06
3.59367104e-06
5.790469402e-06
4.228242931e-06
3.157498511e-06
3.845698398e-06
3.956930656e-06
3.843133551e-06
3.16661516e-06
4.180958109e-06
5.495775937e-06
3.162153507e-06
2.099066941e-06
5.321632845e-06
4.846022808e-06
2.144887718e-06
2.568211231e-06
4.053799781e-06
3.448883167e-06
4.03969365e-06
4.70992835e-06
3.522039987e-06
4.777006444e-06
5.248974363e-06
1.615340936e-06
4.733852456e-06
2.499026104e-06
4.962758461e-06
4.222153529e-06
2.125795173e-06
2.997696e-06
1.07792819e-06
3.691402441e-06
1.603755728e-06
4.405153714e-06
2.071171818e-06
5.96998855e-06
4.543109575e-06
5.982514409e-06
4.677090805e-06
3.068824107e-06
6.684193537e-06
4.777006477e-06
3.71787714e-06
2.716629357e-06
5.177929544e-06
4.512083987e-06
2.51620965e-06
4.081867132e-06
5.173223451e-06
2.640336237e-06
4.671599213e-06
4.05385165e-06
3.134852936e-06
5.28689197e-06
5.843154299e-06
4.095300947e-06
5.521729093e-06
4.504421603e-06
1.984530714e-06
3.497311952e-06
5.749527396e-06
3.184670963e-06
6.342364347e-06
2.129393466e-06
3.106757727e-06
5.41483525e-06
5.730711712e-06
5.982514369e-06
1.629662491e-06
1.49884799e-06
5.031485695e-07
5.139455687e-06
3.207511433e-06
2.056210061e-06
4.142343665e-06
3.60933276e-06
4.962758461e-06
1.478092796e-06
3.543560971e-06
5.13841622e-06
6.181044964e-06
2.605798405e-06
5.686681576e-06
2.570262594e-06
2.144887718e-06
5.553205511e-06
4.68243129e-06
3.589169561e-06
4.1103259e-06
1.998463987e-06
1.077928183e-06
6.369341969e-06
3.207511456e-06
4.699656061e-06
3.327905427e-06
2.013057899e-06
6.919997449e-06
3.589169561e-06
3.543560996e-06
)
;

boundaryField
{
    flow
    {
        type            zeroGradient;
    }
    obstacle
    {
        type            calculated;
        value           nonuniform List<scalar> 10(2.225073859e-308 2.225073859e-308 2.225073859e-308 2.225073859e-308 2.225073859e-308 2.225073859e-308 2.225073859e-308 4.74529885e-24 2.225073859e-308 2.225073859e-308);
    }
    frontAndBack
    {
        type            empty;
    }
    procBoundary0to1
    {
        type            processor;
        value           nonuniform List<scalar> 
21
(
3.799630001e-06
2.756453554e-06
2.682197336e-06
3.426554209e-06
4.321218225e-06
5.215882248e-06
3.799630001e-06
3.129529345e-06
2.086352898e-06
3.873886217e-06
2.160609112e-06
5.885982918e-06
3.79962999e-06
3.79962999e-06
5.29013848e-06
2.08635289e-06
3.203785551e-06
2.160609122e-06
1.639020895e-06
2.234865322e-06
3.651117584e-06
)
;
    }
    procBoundary0to2
    {
        type            processor;
        value           nonuniform List<scalar> 
31
(
5.049331109e-06
2.00594431e-06
3.043386799e-06
5.53358202e-06
4.427198864e-06
5.464641352e-06
4.427198864e-06
4.565080198e-06
4.01188862e-06
2.974446132e-06
6.364202506e-06
3.458697042e-06
4.911449774e-06
6.433143174e-06
3.112327466e-06
3.112327466e-06
4.911449774e-06
3.458697042e-06
4.911449774e-06
2.559135888e-06
4.210312354e-06
2.084225322e-06
5.35587902e-06
4.08292586e-06
3.157498504e-06
4.289775436e-06
5.900803402e-06
5.941377979e-06
3.448883191e-06
4.210312354e-06
4.535826328e-06
)
;
    }
}


// ************************************************************************* //
