/*--------------------------------*- C++ -*----------------------------------*\
  =========                 |
  \\      /  F ield         | OpenFOAM: The Open Source CFD Toolbox
   \\    /   O peration     | Website:  https://openfoam.org
    \\  /    A nd           | Version:  7
     \\/     M anipulation  |
\*---------------------------------------------------------------------------*/
FoamFile
{
    version     2.0;
    format      ascii;
    class       scalarField;
    location    "0.002/lagrangian/dsmc";
    object      Ei;
}
// * * * * * * * * * * * * * * * * * * * * * * * * * * * * * * * * * * * * * //


6144
(
5.402925895e-21
6.166226727e-21
6.924816487e-21
4.417547404e-21
1.336517061e-21
9.031394873e-21
1.982957806e-20
1.443351586e-20
1.729270335e-22
4.236703809e-21
1.542281163e-21
3.756745067e-20
1.318316651e-22
2.952201552e-21
5.679459192e-21
3.517183162e-23
1.122021658e-20
2.364986061e-22
1.0451526e-21
2.039731366e-20
2.13922014e-20
9.809934987e-21
4.412744122e-21
1.469454397e-21
4.041628951e-21
1.144707132e-20
1.093270982e-22
8.161695414e-21
8.133865312e-21
4.82975563e-21
2.051952584e-21
5.787602132e-22
9.2357532e-21
2.819290188e-21
6.970934954e-22
1.29293823e-20
7.237298444e-21
1.463531719e-21
1.010632019e-21
3.550002569e-21
1.467720517e-20
1.203669688e-21
9.339308772e-22
1.367141514e-21
7.173517432e-21
1.750198457e-21
4.085793514e-21
6.644711357e-21
4.749312834e-21
9.552377733e-21
3.288947607e-22
5.905042213e-21
1.096968669e-20
7.654067124e-21
9.277770324e-21
4.959552032e-21
1.173677717e-20
4.374194694e-21
3.088990592e-21
1.15134266e-21
3.199477644e-20
1.390949087e-21
6.624079671e-22
7.078528459e-21
2.851273573e-21
1.573003187e-21
4.07695376e-20
6.542963678e-21
5.636540198e-22
2.488321024e-21
5.656460732e-22
2.122538234e-20
1.863931177e-21
4.43332033e-21
7.753156678e-22
1.22004298e-20
1.528846403e-21
2.923047934e-21
3.359735594e-22
7.037788278e-21
3.464392106e-21
6.531005773e-22
1.420224437e-21
1.117813547e-21
4.605730114e-22
2.094707017e-20
7.42358559e-21
1.304018552e-20
2.332704374e-21
3.299796396e-21
9.77058284e-21
2.553785011e-21
1.539846795e-20
2.006486446e-20
1.032839059e-20
3.218016697e-21
1.831069486e-21
4.057505587e-21
3.326990934e-21
1.365240777e-20
4.108791921e-21
1.332346788e-21
1.75549293e-20
8.340110448e-21
9.551293464e-21
6.370753169e-21
6.457894303e-22
1.122849803e-20
6.8624418e-21
7.04932103e-23
3.767980736e-21
5.143895263e-21
1.962579373e-22
1.351931786e-20
1.433657547e-20
4.836227689e-21
1.641657452e-21
6.612456183e-22
1.97129905e-21
1.475880502e-21
1.056667263e-20
5.17128951e-21
4.449419413e-23
3.292781739e-21
2.093779214e-21
3.129219062e-21
2.165136677e-21
1.626489292e-20
3.483567113e-21
3.87680087e-22
6.781302162e-21
2.222314359e-21
7.909092875e-23
1.96716041e-20
3.081515913e-21
1.257881268e-21
1.193922772e-20
5.49863916e-22
2.200273107e-21
1.455566811e-20
4.761948236e-21
2.113619104e-20
9.284692646e-22
1.013571283e-21
2.377030013e-21
6.900697822e-22
1.389842894e-21
3.614968773e-21
2.834947018e-21
1.296700476e-21
2.561451468e-21
1.606780036e-20
6.615669632e-21
2.5847521e-22
5.540314482e-21
5.253967123e-21
5.887153599e-21
5.977634705e-22
1.198247973e-20
1.20596579e-21
1.041008506e-21
2.381106231e-21
9.597671223e-21
4.304118782e-21
2.21860956e-20
4.12857511e-21
5.651461204e-21
2.649467046e-21
5.039853361e-21
6.403976951e-21
1.499596975e-21
1.945873286e-20
1.178259444e-20
9.783416812e-22
2.322705438e-21
2.136565648e-21
7.575643373e-21
1.796120475e-21
1.110751887e-20
1.825890058e-20
1.408877107e-20
6.302752052e-22
5.364999194e-21
9.721729994e-22
8.256116221e-22
1.771245537e-21
1.539013311e-22
6.446615688e-21
1.117462781e-21
5.433512471e-25
4.184225282e-21
1.266451156e-20
4.870817777e-21
6.526763557e-21
4.813840879e-21
4.725582858e-22
2.740068513e-21
6.686154727e-22
9.176776475e-22
4.209872079e-21
4.115364525e-21
7.424551756e-22
1.388691464e-21
6.50631235e-21
6.37981042e-21
3.758166264e-21
2.595625889e-20
8.187806441e-22
5.741151881e-21
1.272626236e-21
9.208195038e-21
4.666385871e-21
1.710832598e-21
5.480976276e-21
1.073338731e-20
1.482583803e-21
1.296483726e-21
3.628184476e-23
1.06944683e-20
8.309007783e-22
3.477679867e-21
1.432612243e-21
6.505159035e-21
3.551359309e-21
2.683200825e-21
6.255722611e-22
1.905497627e-21
6.06834586e-21
2.383592712e-21
8.934193664e-21
2.038102505e-20
2.76612729e-21
2.040935303e-20
3.442932688e-21
2.604798164e-21
1.297543245e-20
2.097600319e-21
4.657050488e-21
1.365670794e-20
1.751670025e-21
8.069133462e-21
1.121971993e-20
2.934406602e-20
4.823305782e-21
2.074234338e-22
2.204799607e-22
4.201843083e-21
1.427746425e-20
1.665614831e-22
4.428854796e-21
1.474019532e-20
3.452795346e-21
8.507441711e-22
2.22373126e-21
7.625600079e-21
1.992829638e-21
7.747931992e-21
1.109969279e-20
1.032880727e-21
2.142538e-21
5.705957982e-22
9.169474182e-22
1.896468438e-21
2.564148201e-20
1.545833807e-20
9.518694444e-22
2.00741753e-21
4.995602203e-22
2.510801003e-21
7.960370185e-21
2.18501103e-22
2.964772176e-21
4.298814324e-21
6.531269e-21
9.238091719e-22
5.719410151e-21
7.894653381e-21
4.213615634e-22
7.940372338e-22
1.139949795e-21
2.563598207e-21
1.174139908e-20
3.049564324e-21
6.4508728e-22
3.149872965e-21
1.430959892e-21
8.009596477e-21
9.559430407e-21
1.873683934e-21
5.850530203e-21
4.615091081e-21
2.996940327e-21
7.947104973e-21
3.126781347e-21
1.169456021e-21
1.651538306e-20
1.135445823e-21
3.465711757e-21
1.001870779e-22
5.700259266e-22
3.670490478e-21
4.878841553e-21
1.127103714e-20
5.132714342e-22
1.89082254e-21
3.169514133e-21
4.862468479e-21
1.648552526e-21
1.036531707e-22
9.061069182e-21
3.560346194e-21
2.415626395e-21
1.705275351e-22
2.281287254e-21
1.24888661e-21
4.399194716e-21
1.736134214e-20
2.063608425e-21
9.757886363e-22
3.466668206e-22
6.162270098e-22
6.756262468e-21
3.481162663e-21
3.019137496e-20
3.97518573e-21
6.463355198e-21
2.445879266e-20
5.638504505e-21
2.03744609e-20
2.127467302e-21
4.407323638e-21
3.364753125e-21
1.090990246e-21
1.988233915e-21
1.251194616e-21
1.338034668e-20
3.341541331e-21
4.127547416e-21
2.258154881e-21
6.57425646e-21
6.623135964e-21
1.267508011e-20
1.424639016e-20
1.794606099e-21
4.604380022e-22
7.932028793e-21
1.807425085e-21
7.663129571e-21
6.715617595e-21
2.903744394e-21
4.579609633e-21
2.039398088e-21
1.116038016e-20
1.604017789e-21
8.290328112e-21
2.097761918e-21
3.710077667e-21
3.121301752e-21
4.379857534e-22
7.084217288e-21
2.768575704e-21
1.08847973e-21
4.955490503e-21
5.513999953e-21
1.293163439e-21
4.183384099e-21
4.806678461e-21
1.551957507e-21
1.139218783e-21
4.175983816e-22
1.634773485e-20
8.264581821e-21
8.24597864e-21
1.453462722e-21
1.307916981e-21
3.040998201e-22
2.432264139e-21
1.658687679e-21
5.068150508e-23
5.468195634e-21
1.959445879e-20
4.884411007e-22
9.134826596e-21
2.461530598e-21
1.030998867e-20
1.06598635e-20
4.024847752e-21
1.205447859e-21
2.720829661e-21
7.784764781e-21
7.657935038e-21
4.743926448e-20
3.15299994e-21
4.718257794e-21
2.625091105e-21
7.554002325e-21
9.620206692e-22
8.13099487e-21
6.082415167e-21
1.263877487e-22
1.818140099e-21
2.404582804e-21
2.719413792e-21
4.29643949e-21
6.535708882e-21
5.139925532e-21
6.823540809e-22
1.568180687e-21
3.854310647e-21
2.090053151e-21
1.667379744e-21
5.775892298e-21
2.823918352e-20
4.546931826e-21
1.37129745e-20
8.092449222e-21
2.85054823e-21
2.978936166e-21
2.860255118e-21
7.531156366e-21
1.114298157e-20
3.422799408e-21
1.276019707e-20
1.228949324e-21
8.67795941e-21
6.485026688e-21
1.163242761e-20
1.289593904e-21
1.873274317e-21
2.10106261e-21
8.633201551e-21
8.857354428e-21
8.790319806e-22
5.892095502e-21
1.071717455e-20
1.95418435e-21
2.653183879e-21
9.789491564e-22
1.840682386e-21
1.187264675e-20
9.15601963e-21
1.74997112e-21
8.875891016e-21
1.615087216e-21
1.862019719e-21
4.13038513e-21
1.177840009e-20
4.186120832e-21
1.110182661e-21
4.49619698e-21
3.915194139e-21
1.07361488e-21
5.704620454e-21
6.43251857e-21
2.05201481e-20
8.306562572e-21
3.546164297e-21
1.428612881e-20
1.323986288e-22
2.8172814e-21
3.623164974e-20
3.897253007e-21
1.858665416e-21
6.11590177e-21
1.935271472e-21
3.801873566e-21
6.422793314e-21
4.839076052e-21
1.762360058e-21
1.362749378e-20
3.2425881e-20
2.059412951e-21
5.85119113e-21
1.398554851e-21
1.118510988e-20
6.602445927e-21
6.357419156e-21
1.685586969e-20
2.358901149e-21
1.387538031e-21
7.779324605e-21
3.034928848e-21
1.410921936e-21
1.244861339e-20
3.571375538e-21
9.13790626e-22
1.678936935e-21
2.260211418e-22
5.193719965e-22
1.412365864e-21
1.246864575e-21
2.153287824e-21
6.263089593e-21
3.378199556e-21
1.590047096e-20
1.596145161e-20
3.474568719e-22
1.881228543e-21
1.051503034e-22
1.731414168e-21
5.607360409e-21
7.128508637e-22
1.468664886e-21
8.026820506e-21
1.179141335e-20
6.01623243e-21
2.012309242e-21
2.333013386e-20
3.454332172e-21
2.527268481e-23
1.023807717e-21
7.589460787e-21
4.106686762e-22
5.404369029e-21
5.496416862e-20
7.897441174e-22
5.472679016e-21
2.885357703e-21
8.564754799e-21
1.722139382e-21
4.427829755e-21
3.975522772e-21
3.562093598e-21
3.055095587e-21
1.366518647e-21
4.258128645e-21
2.053111823e-21
2.746465119e-21
4.241136016e-21
3.702149847e-21
8.124841543e-21
2.506284978e-21
2.050096961e-21
9.138186384e-21
3.710179648e-22
1.10377935e-21
6.996255255e-22
1.058130142e-21
1.002557764e-23
1.085058887e-20
1.702962875e-21
1.150894627e-21
1.212435399e-20
8.833024094e-22
2.771209527e-22
3.245594729e-21
4.070352883e-21
1.220547978e-21
9.865356897e-21
5.704826005e-21
6.791184771e-21
4.725295522e-21
1.779878016e-21
1.259351993e-20
8.71040758e-22
4.4692996e-21
8.41435231e-21
8.432008563e-21
1.200680362e-20
8.013943275e-22
1.401876525e-21
3.359165564e-21
1.242220459e-20
4.360660986e-21
3.728116412e-23
5.606068499e-21
7.212484731e-21
3.160127003e-22
2.009967268e-21
7.072917715e-21
1.701068943e-21
7.587526056e-21
9.582145767e-22
1.731948737e-23
1.800959458e-21
1.485040321e-22
9.798824382e-22
2.599933726e-21
7.538291157e-22
2.996808733e-22
1.307907736e-21
8.900405331e-22
5.885611389e-22
1.18532923e-20
5.198485488e-21
3.79804345e-21
1.056022107e-21
5.957745013e-22
1.236825459e-22
6.068582663e-22
9.638494763e-22
4.082201579e-22
8.733563126e-21
5.562953015e-21
7.322539972e-21
1.205731196e-20
4.859438258e-21
1.570643424e-21
9.75547269e-22
3.447069728e-22
3.781441279e-21
2.371421789e-21
7.427089813e-21
1.747337461e-21
4.17876058e-21
8.961767056e-22
4.075564299e-22
3.488654478e-21
3.048730252e-22
2.003466559e-21
3.33736265e-21
9.016247013e-23
4.110187302e-21
1.401703285e-21
4.983316678e-22
3.080713535e-21
9.922353382e-21
4.853522094e-21
1.317875345e-20
2.979224804e-21
8.037327632e-21
7.171131758e-21
3.032337565e-21
1.22705246e-20
2.831387769e-21
1.042735864e-21
2.167754293e-21
4.971500141e-21
9.007380842e-21
5.054174962e-22
8.796100156e-21
2.66893951e-21
1.090459678e-21
6.587151357e-22
2.370090745e-21
6.213389577e-21
1.010494472e-20
1.295726889e-21
1.104333381e-20
8.427032714e-21
1.14899384e-20
4.91325191e-21
4.543245793e-21
5.134482219e-21
7.821211326e-21
1.703909621e-21
3.763237638e-21
2.992029817e-21
5.030997876e-21
4.793324165e-21
4.704470917e-21
5.663618324e-22
8.327096567e-21
4.728003085e-21
5.787327606e-21
1.150024539e-21
5.491327705e-21
6.957003252e-22
3.899926273e-21
1.234379945e-21
1.888377369e-20
3.295812782e-21
8.923250656e-22
1.040513214e-20
2.103562934e-22
2.758786773e-21
2.907340595e-21
2.093497717e-21
3.656099696e-22
7.799317777e-21
9.061516004e-21
1.102063427e-20
2.920452951e-21
2.657062547e-21
1.945083158e-21
2.556723327e-21
1.21728897e-22
1.672089288e-21
2.877716587e-20
4.699374314e-22
4.303744618e-21
5.252928157e-21
5.990111756e-22
5.58251307e-21
5.753065518e-22
3.651304635e-21
8.825760638e-21
2.774455494e-21
2.552296327e-21
1.897426737e-21
1.595576986e-21
1.671298415e-21
8.244751647e-21
1.773911388e-21
1.471145946e-21
2.01225917e-21
9.724944052e-21
6.409330586e-21
3.753457634e-21
1.5021929e-21
1.681525181e-21
2.557515365e-21
5.112706351e-21
2.995546698e-20
1.078322475e-20
7.844070122e-22
9.730068788e-21
2.334903517e-20
1.534014557e-21
2.246985429e-21
2.358375023e-21
2.262600347e-21
2.569961372e-21
7.978954353e-22
1.555778731e-21
1.082749725e-20
4.477406925e-22
1.969250543e-21
3.353683411e-21
2.305785835e-21
3.017857009e-21
4.218989025e-22
2.652404384e-21
4.572975954e-21
2.603146442e-21
5.975203895e-21
1.778475579e-21
2.488498524e-21
1.938587248e-21
3.431630565e-22
4.99883364e-21
5.07000281e-21
6.313645274e-21
3.617488109e-21
3.752698721e-22
2.02703238e-21
2.724684191e-21
1.300395928e-20
8.595687114e-21
3.273948819e-21
4.168177519e-21
1.531717542e-20
2.869479773e-21
1.602941639e-21
7.929693969e-22
1.591368203e-21
5.947080919e-22
2.158415117e-21
3.284588754e-22
1.167723793e-21
2.242413613e-22
2.774907177e-21
4.892087688e-21
2.12725999e-21
7.222793882e-22
2.803709871e-21
5.63573666e-21
1.161213657e-20
2.632210545e-21
3.115205512e-21
2.504874305e-21
3.657364167e-22
8.126253652e-21
1.414051175e-20
6.563983012e-22
3.654710143e-21
1.045731453e-21
4.457176074e-21
6.281266317e-21
4.993481446e-21
9.052559127e-21
6.342956695e-21
8.894284766e-21
2.127997262e-21
1.490882005e-22
1.450021113e-21
7.424780701e-21
4.891402949e-21
6.729362112e-22
5.418279621e-21
5.667564898e-21
1.094645124e-21
1.250739368e-21
5.303423419e-21
3.07254248e-21
2.3800942e-21
3.967230142e-21
3.243598352e-21
2.73365096e-21
5.667791847e-21
3.130767775e-21
5.875697545e-21
1.835477209e-21
6.022025156e-21
1.42062896e-21
2.5190413e-21
1.35790562e-21
9.072348363e-22
4.052564195e-21
4.820103526e-22
1.799299321e-21
4.085686885e-21
1.495828054e-21
6.359452346e-21
1.451401923e-21
2.05373175e-21
2.35858256e-21
8.441086985e-22
3.08032514e-21
1.703776021e-23
3.374604527e-22
5.370364214e-21
3.16626e-20
6.013323512e-21
4.228903523e-22
6.017214668e-22
1.356072332e-20
1.13699008e-23
8.226990866e-21
3.279743929e-21
9.649484123e-22
5.669308295e-22
1.190108098e-20
3.945512481e-21
9.13306888e-22
8.652881228e-21
4.97813405e-21
1.072263686e-21
6.697354102e-21
5.756666033e-22
2.22738538e-21
1.412291807e-20
2.538445819e-21
5.663351571e-21
1.212670823e-21
1.666324212e-21
9.231463762e-22
1.29486816e-21
2.95040422e-20
2.241455104e-21
3.397560902e-21
3.772198074e-21
1.055012095e-20
1.407099853e-21
4.025201074e-21
6.408664622e-21
2.546170938e-21
3.985611853e-21
2.424907493e-21
2.665041714e-21
2.092000598e-21
6.538629955e-21
3.894886977e-21
1.207995268e-21
9.028363672e-21
2.246095777e-21
6.834076e-22
4.282891255e-21
1.009026244e-21
2.719024538e-22
3.260197851e-21
1.336652482e-20
2.961842031e-21
3.047773837e-23
3.069545206e-21
1.71869663e-22
1.280909699e-20
1.119229066e-21
9.768574037e-22
2.420491653e-21
7.260248849e-21
3.862950157e-21
7.260711554e-22
3.414509197e-21
7.646680823e-22
4.275747504e-21
1.021664714e-21
6.531128149e-21
5.021246893e-21
2.539347415e-21
1.786415589e-20
1.735709872e-21
7.442816185e-21
4.240551529e-21
5.957879118e-21
2.502740363e-21
3.59517341e-22
3.353863932e-21
3.186137248e-21
2.857039332e-21
4.332118294e-21
7.604928398e-22
3.788741805e-21
3.128499018e-21
3.558349764e-22
1.942684018e-20
1.916941624e-20
2.168374899e-21
2.654651454e-21
7.067081924e-21
8.381457656e-22
1.100635784e-21
1.300771775e-21
4.000685532e-21
8.413661208e-21
9.032053558e-22
2.094379073e-21
1.762138762e-20
2.345185504e-21
8.423069427e-21
4.096426446e-21
3.55839384e-22
4.38538799e-22
3.677953497e-21
1.329169981e-21
2.031624337e-20
3.161574384e-21
1.238602872e-20
4.166022458e-21
2.433777438e-21
1.613545911e-21
1.82911327e-21
1.560123819e-21
1.459870919e-21
3.947881336e-21
1.087948626e-21
4.913278473e-21
6.755013046e-22
3.921821032e-21
7.971171984e-21
3.846411434e-22
4.717291425e-21
6.378010537e-22
1.849543505e-21
3.341091785e-21
2.283594482e-21
9.355864707e-21
1.57803006e-20
1.033348073e-21
1.870945744e-21
1.17636195e-20
2.736549907e-22
1.210845965e-21
1.681626663e-21
3.565695897e-21
8.912877889e-22
2.092441065e-21
2.501315793e-21
2.045191673e-21
1.993015852e-21
1.114879672e-20
3.560807601e-21
6.064134178e-21
3.539488382e-21
4.232366519e-21
6.32084162e-21
1.548354091e-20
1.022589328e-20
2.319761929e-22
8.203524354e-22
3.820395012e-21
1.539390855e-20
1.881393041e-22
7.76024107e-23
1.737384066e-21
1.120096114e-21
4.159266138e-21
1.01666683e-21
7.996228233e-22
5.79042251e-21
7.191831531e-21
5.745417157e-21
3.137812827e-22
7.910528537e-22
1.116229777e-21
4.503357616e-22
2.09798883e-21
3.858045136e-21
7.953236096e-22
5.836089071e-21
5.311704143e-21
4.955130685e-21
5.384284181e-21
7.018837643e-22
5.710426885e-21
8.914057404e-23
1.291960642e-21
5.921760152e-23
2.659289363e-21
2.198333703e-21
1.134344406e-20
4.268181437e-21
3.910942204e-21
4.635173744e-22
7.08220663e-21
1.063601232e-22
3.694900975e-21
1.723199597e-21
1.420180458e-20
6.143634772e-21
8.925640289e-21
2.656602019e-21
8.432954064e-21
3.170206729e-21
1.235933545e-22
3.274766227e-21
1.405066277e-21
8.915100867e-21
7.112974396e-21
3.847514266e-21
6.75358751e-21
1.80627465e-21
2.030102029e-20
1.020934265e-20
4.148137992e-21
2.403298516e-21
2.677397721e-21
6.450269351e-21
1.693828305e-20
2.725659609e-20
6.526559613e-21
1.07940484e-20
3.444854274e-21
1.823768809e-21
4.980762908e-22
1.182122291e-21
9.51970224e-22
6.633551148e-21
1.271827824e-21
1.66460612e-21
2.990450784e-21
4.154570395e-21
1.409787822e-21
1.151027992e-20
3.04447261e-23
1.17236999e-21
3.882081413e-21
1.460901101e-21
6.815446861e-21
8.900786489e-22
2.312008969e-21
4.292344528e-21
1.536972228e-21
1.69377951e-21
7.140422571e-21
3.730785341e-21
8.495795505e-21
1.430505385e-21
3.29498046e-21
2.267346414e-21
2.507062593e-22
2.102159026e-21
5.244265895e-21
7.047846413e-22
3.688333931e-21
7.102962287e-23
9.481887464e-21
4.080039679e-21
2.532388279e-21
3.303813158e-21
6.968633121e-22
9.750842085e-21
1.590438763e-21
3.48774365e-21
8.722052437e-21
1.527647854e-20
6.281898454e-21
2.734819729e-21
3.358539306e-21
4.561394107e-21
1.196747865e-20
5.381719898e-21
3.474399647e-22
1.159643523e-20
4.425104813e-21
6.466817754e-21
4.305783534e-21
1.234506278e-20
1.068879428e-20
8.106813455e-21
1.065799251e-20
4.350090806e-21
6.273012973e-21
9.33489441e-23
4.981009818e-21
1.168931086e-21
1.1529402e-20
8.979835105e-22
1.225908594e-21
6.6075219e-21
1.366482311e-20
1.81906402e-21
1.572238157e-20
1.071808263e-20
6.181765753e-22
3.208171801e-21
9.068268931e-21
1.383148369e-20
1.990093294e-20
8.140847159e-22
7.409696748e-21
5.950309064e-21
3.62843801e-21
3.288646391e-21
4.186616099e-21
1.171851234e-21
1.857208494e-20
4.286639537e-21
2.261417796e-21
4.613512713e-21
3.652150421e-21
4.815095764e-23
4.176594262e-22
6.357909029e-21
4.17641838e-21
3.595150065e-23
3.610038107e-21
3.200073749e-23
6.126000493e-21
2.60470965e-22
4.106932099e-21
5.245622796e-21
1.842451831e-21
2.485255262e-21
1.335539215e-20
1.203287933e-21
1.859109816e-21
1.16966252e-20
1.496332917e-20
7.835922534e-21
2.277240032e-20
1.322877008e-21
5.594924858e-21
7.271616031e-22
3.301918953e-21
6.836402633e-22
1.683235828e-21
1.229480456e-21
1.969601616e-21
3.299369012e-21
5.018157322e-21
2.523382243e-21
2.314023086e-21
5.303227164e-21
5.669684319e-21
1.421252047e-21
1.232053564e-20
1.018534343e-21
4.887050458e-21
1.343927531e-20
8.204930069e-21
2.967986702e-23
1.74945115e-21
1.942185059e-21
4.578276324e-21
3.867584726e-21
4.740856843e-21
3.928580217e-21
2.109201435e-20
2.225270549e-21
5.008642389e-21
1.129023174e-20
1.862794648e-22
1.127213479e-21
6.717924938e-23
1.24114894e-20
3.920316829e-22
4.5748137e-21
1.201732854e-20
6.932972043e-22
1.369845492e-21
1.732301747e-20
7.497185773e-22
3.810157522e-22
4.911286585e-21
3.330133072e-21
2.823693703e-21
1.898849281e-21
7.318042549e-21
7.595297822e-21
3.380569698e-21
2.930795997e-21
5.248441734e-22
7.474079411e-21
1.342936124e-22
7.964507821e-21
2.006811793e-20
3.96583226e-21
1.023385293e-21
1.095857519e-21
2.728341272e-21
2.177197017e-21
1.165860911e-23
4.970851594e-21
6.197346558e-22
1.320989994e-20
5.709734331e-23
5.021066294e-21
1.504270783e-20
1.435502015e-21
2.116192401e-21
1.834219086e-21
4.194097373e-22
8.960475582e-21
3.380784823e-21
9.733145924e-22
1.135869806e-21
2.77227824e-21
3.468645073e-21
6.836695195e-21
2.896401437e-21
8.812213588e-21
4.268066718e-22
9.044526385e-22
7.74599816e-21
3.219200931e-22
1.115543775e-20
1.628870284e-21
7.137159183e-21
1.153905871e-20
4.27600882e-21
4.932183179e-21
3.097349525e-21
1.527856304e-23
1.39409629e-20
8.229473665e-22
3.890972295e-21
4.169461759e-23
1.639598796e-21
6.452440679e-22
1.413608733e-22
3.696831328e-21
2.160995081e-21
5.438706375e-22
9.666711326e-22
1.116687978e-21
4.840693645e-21
5.724969233e-22
3.308521497e-21
7.479862141e-21
1.539780077e-20
1.08470399e-20
4.355065236e-22
2.614698254e-21
2.007414374e-20
2.026111786e-20
2.295057645e-21
1.217606162e-20
1.409234877e-21
6.361079745e-21
1.897747365e-21
6.271256855e-21
2.767727479e-21
1.093875259e-21
2.67410846e-21
4.142989293e-21
1.41953541e-21
1.175300227e-21
4.900317025e-21
1.347522441e-21
6.074555393e-21
2.071862639e-21
3.144788257e-21
4.102427926e-21
6.727737412e-21
5.656844982e-20
2.058335284e-20
2.039464236e-21
2.429702962e-22
1.125388895e-20
1.718815342e-21
2.30832398e-22
6.755217526e-21
3.991963744e-21
3.509185109e-21
2.52621588e-21
1.579211284e-21
6.618542267e-21
2.316336461e-21
1.533244259e-20
1.378152907e-21
7.852361203e-22
1.070504525e-20
5.736110576e-22
2.033447433e-21
1.755215542e-21
2.134379794e-21
4.234344983e-21
1.128099096e-21
1.506496418e-22
7.806679459e-24
9.491168098e-22
1.689667148e-21
2.667872809e-21
1.585697215e-21
3.468282272e-21
2.427796445e-21
2.453992761e-21
4.653451538e-21
9.262132262e-23
3.891120677e-21
8.509036778e-22
1.437020058e-21
2.278674265e-20
1.516285908e-21
2.456758261e-21
2.73220853e-21
2.009232122e-20
1.265882858e-20
2.323011453e-21
1.00525687e-20
1.766596685e-21
5.656919917e-21
1.066218737e-20
6.756121267e-21
1.945608197e-21
3.303923727e-21
5.260863028e-21
3.080592795e-21
1.591825222e-21
1.943204379e-21
2.562481534e-21
1.196054536e-20
1.378921297e-20
9.935832275e-21
5.39927467e-21
2.974506786e-21
3.144857417e-22
8.245204615e-21
4.916516331e-21
1.334722441e-21
1.263976559e-21
2.170432494e-21
2.436167576e-20
7.813977072e-22
3.949558717e-21
1.044065379e-21
6.404934642e-21
9.13166109e-21
2.008772416e-21
6.642341278e-23
1.273218816e-20
1.391094492e-22
3.210370939e-21
3.125144284e-22
9.506605747e-21
2.470778678e-21
1.541969843e-21
6.892763524e-22
3.483845265e-21
1.170071721e-21
1.09495277e-20
2.974058514e-23
2.64131753e-21
1.320296734e-21
2.893858655e-22
1.091779974e-20
6.088091442e-21
4.118081014e-21
1.733815687e-21
2.290710335e-20
1.019131003e-21
1.651770029e-21
5.224762191e-21
4.465106657e-22
6.802774802e-21
1.493230432e-22
1.731826202e-21
6.659240899e-21
1.811552467e-21
5.150236952e-21
8.569615809e-21
9.552270973e-21
2.216419734e-21
1.453731917e-20
1.332855162e-21
9.616776758e-22
4.696498156e-21
8.374938836e-21
7.000877724e-22
5.121295747e-21
2.394764103e-21
2.290695048e-22
8.785089802e-21
6.43835415e-21
2.02636142e-21
4.415346215e-21
2.323744627e-21
1.518212169e-21
1.453941959e-21
2.797891686e-21
1.095483888e-21
8.943931222e-22
2.41138262e-22
3.609783315e-21
8.794934488e-22
7.465190587e-21
1.41742913e-20
1.531100844e-21
1.851523788e-21
4.857314037e-22
5.415592701e-21
5.893732103e-21
6.039793771e-21
1.681209543e-21
7.619071882e-21
8.057798574e-21
1.044780476e-21
1.227262613e-20
5.211016831e-21
8.742157365e-21
2.538325259e-20
2.082055568e-20
3.96524221e-21
2.679022545e-21
1.519001585e-20
1.325714054e-21
7.48074166e-22
3.237467211e-21
6.496580187e-21
2.839363046e-21
7.17618047e-21
1.459855734e-20
8.408152751e-22
6.082589405e-21
4.598553621e-22
1.571381501e-21
6.69174844e-21
1.492923292e-20
3.52095953e-21
1.118555179e-21
6.518569657e-22
5.213499642e-21
4.574388114e-21
1.577283659e-20
5.448801253e-22
2.001364133e-21
1.034570934e-20
3.3860639e-21
8.282880476e-21
2.260983555e-22
1.677427427e-21
1.303676973e-21
5.943532593e-22
9.279449863e-21
4.904134271e-21
2.122252363e-21
8.790890545e-21
5.13499259e-21
1.295374764e-21
6.10549859e-21
3.761939654e-21
8.867035168e-22
5.706441124e-21
4.022127141e-21
2.244769685e-21
1.822092037e-22
2.691052812e-21
5.057114312e-22
1.077253591e-20
6.288795015e-21
9.034520384e-22
5.194630364e-21
2.308400879e-21
1.968780104e-21
1.310011506e-21
7.323992073e-22
1.369376596e-21
1.324648325e-21
4.801255623e-21
7.774494812e-21
3.4153004e-21
9.660462998e-23
9.884716118e-22
6.777157642e-24
2.395316252e-21
1.412417016e-21
5.398210257e-21
1.707745796e-21
1.054866817e-20
1.513486792e-21
6.389854983e-21
5.694064365e-21
9.317908818e-21
3.83076242e-21
1.398499692e-20
2.898654634e-21
1.846800527e-21
3.840911442e-21
1.965219267e-20
2.529562983e-21
1.700151122e-21
1.116864751e-20
3.00270769e-21
4.061556854e-22
1.243524905e-20
2.32817719e-20
1.984046805e-21
8.616246074e-21
4.185419383e-21
7.607348465e-21
2.476388433e-21
3.630087582e-22
1.117685056e-20
1.664025061e-21
4.804453297e-21
1.258572662e-21
1.414646351e-21
4.923849311e-21
4.554083981e-21
9.42536179e-22
4.948601589e-22
7.944228763e-22
4.928861238e-22
5.309840089e-21
1.117192762e-21
1.481403381e-21
1.758329496e-21
3.036070935e-20
2.27584701e-22
7.667350465e-21
4.060736654e-21
3.771464418e-22
4.014709672e-22
1.981728029e-23
5.166568117e-21
1.095059696e-21
2.212584482e-22
9.341021885e-23
1.794177718e-21
1.077008583e-21
2.773805475e-21
9.221756505e-21
5.210129655e-22
4.131838336e-21
4.698463058e-20
2.430747112e-21
5.916086582e-21
1.714093211e-21
4.101600567e-21
4.877505425e-21
8.378122341e-21
5.295457524e-22
1.236511994e-20
5.55490367e-22
1.537427332e-21
8.171682986e-22
8.219272384e-22
4.193316778e-21
3.714757973e-21
1.610369392e-21
1.322755723e-21
1.860910607e-21
2.12860799e-21
5.283268035e-21
1.444741216e-21
4.42130691e-21
2.844154087e-22
3.264365092e-22
2.639872268e-21
7.854706533e-21
1.286991405e-21
1.147559463e-20
6.341630577e-21
1.298359625e-21
4.972522863e-21
2.134639073e-21
4.30944246e-21
1.706052751e-22
6.054774822e-21
8.105314179e-21
6.215988227e-21
1.362957841e-20
6.914749342e-22
1.80418197e-20
5.142930188e-21
2.413857384e-21
7.845097067e-23
9.986974778e-22
1.102505064e-20
7.563670385e-21
2.419205204e-21
4.313280016e-21
1.944006013e-21
6.540916081e-21
3.085864044e-21
2.386548534e-21
2.356972195e-21
1.752979455e-21
2.964485451e-21
3.756503883e-21
2.045337928e-21
2.329646445e-21
3.424477397e-22
2.738122187e-21
7.167682317e-21
8.721372206e-21
1.01863182e-20
2.050981035e-22
3.066191665e-21
1.310274973e-21
2.020393235e-21
4.011207866e-21
3.864935424e-21
1.701780749e-21
1.191697717e-21
1.264651033e-20
1.98681153e-21
1.472603481e-21
3.611439457e-21
1.359907404e-20
1.324719003e-20
1.028890505e-20
5.476966306e-21
1.793132208e-21
1.181188869e-20
3.338487833e-21
1.144568514e-21
2.95301904e-21
9.747031664e-21
5.377117729e-21
1.029904755e-20
4.655600065e-22
3.105830924e-21
8.377815576e-21
1.076883638e-21
9.477720469e-21
1.154723435e-20
2.328687337e-22
2.999525076e-21
2.412343283e-21
4.402165475e-22
4.530063274e-21
4.782680693e-21
1.441174024e-21
2.699786459e-23
2.431537715e-21
7.044593228e-22
8.739858278e-21
2.855583775e-21
1.032899557e-20
2.045950083e-21
4.567111857e-21
2.629980812e-20
7.429278725e-21
1.358325033e-21
4.432304418e-22
5.986275665e-21
2.522752759e-22
2.945416794e-21
2.807646273e-21
3.385838349e-23
1.096087011e-21
3.933972919e-22
6.910703037e-21
4.685473722e-21
1.92511691e-21
1.544483601e-22
5.506785082e-21
3.035886257e-22
2.979642283e-21
1.262341747e-20
1.543855936e-21
7.473843722e-22
7.642245287e-22
1.15882061e-21
1.035564554e-20
2.626668421e-21
6.131684697e-21
1.06944777e-20
4.817265053e-22
4.374038326e-21
1.127899658e-20
3.251757123e-21
7.691990338e-21
6.261820545e-21
1.472879618e-21
5.946513895e-21
1.520989621e-21
5.305697168e-21
3.529141886e-21
5.864604679e-22
1.993390469e-22
2.910280021e-21
7.996645796e-22
1.692199311e-22
5.099644785e-21
1.641817721e-22
7.769377806e-22
1.687010265e-21
4.938359908e-21
8.077701096e-22
9.224300878e-22
5.410911262e-21
1.21071469e-21
8.151726287e-22
7.910476541e-22
2.47629278e-21
1.318796574e-21
5.19990014e-21
9.435903205e-22
2.79904183e-20
1.77632448e-21
7.746767707e-21
1.122404555e-21
2.965301931e-21
8.006343167e-22
3.879743007e-22
6.153581269e-21
6.772365819e-21
3.070917605e-22
5.650808383e-22
4.387230144e-21
1.349495513e-22
5.953740085e-21
2.580454167e-21
1.060442637e-21
5.370680689e-21
2.393689341e-21
6.895018038e-22
2.561330793e-22
1.384937127e-21
2.794025774e-21
1.500645217e-21
2.229074279e-21
1.271130182e-20
1.627698088e-21
7.070794684e-21
2.660256808e-22
1.756059393e-21
1.913897433e-21
3.543258593e-22
5.708139919e-21
1.068344212e-21
3.280156818e-21
5.441974496e-21
1.490573322e-20
2.159801662e-21
1.892084851e-21
3.096602267e-21
9.817424459e-22
5.349465162e-21
4.667143832e-21
3.328267893e-21
5.787545845e-21
3.768629409e-22
8.077370947e-23
5.315659433e-21
7.40035961e-21
3.540023314e-21
1.85553389e-21
5.81198445e-21
9.897577484e-22
3.702460566e-21
1.109931004e-21
3.410432308e-21
1.914587941e-21
8.113418187e-22
4.052453794e-21
2.987172382e-21
1.246668479e-21
1.533853461e-20
4.791491115e-21
5.626187404e-21
9.971197588e-21
3.989307302e-21
5.771616407e-22
6.815766292e-21
7.285763677e-22
5.070645766e-21
1.606421433e-21
6.700618205e-21
3.381170015e-21
6.198529771e-21
4.37155999e-21
3.495292575e-21
1.113221865e-20
3.326819067e-21
5.978748148e-21
1.681643566e-22
5.93783785e-21
1.551829579e-21
5.218656413e-21
1.140441877e-22
5.213484963e-21
1.999645617e-21
6.303413478e-21
6.577700011e-21
2.411720754e-21
4.063496899e-21
5.657455528e-21
1.739734292e-22
1.883029168e-21
2.977530774e-21
1.365991248e-20
1.246628822e-20
2.694221587e-22
6.546840903e-21
2.903253358e-22
7.961232873e-22
4.091270536e-21
4.802123154e-21
4.358997636e-22
7.156195143e-22
1.343516083e-21
1.094248363e-21
2.717027024e-22
8.033617549e-22
8.066559659e-21
1.634861435e-21
2.288647139e-21
6.328601911e-21
4.349021501e-21
2.658182709e-21
9.54431312e-22
1.388060103e-21
2.161562e-21
3.387307463e-21
4.286808933e-21
2.465481115e-21
9.044359783e-21
4.395207068e-21
3.121592292e-21
5.134498685e-21
6.497054848e-21
1.97392669e-22
8.310825655e-22
1.641182768e-21
3.525424469e-21
3.673566023e-22
5.449809321e-21
5.365972734e-22
1.538855471e-21
1.128792039e-21
1.504142689e-21
1.711734793e-21
2.211838557e-22
4.788180358e-22
1.616880435e-21
2.159297689e-21
2.391285575e-21
2.864812284e-20
1.137507615e-21
2.055890367e-20
1.033207287e-21
1.986982422e-21
1.48350313e-21
3.825630172e-21
4.600571543e-21