/*--------------------------------*- C++ -*----------------------------------*\
  =========                 |
  \\      /  F ield         | OpenFOAM: The Open Source CFD Toolbox
   \\    /   O peration     | Website:  https://openfoam.org
    \\  /    A nd           | Version:  7
     \\/     M anipulation  |
\*---------------------------------------------------------------------------*/
FoamFile
{
    version     2.0;
    format      ascii;
    class       Cloud<dsmcParcel>;
    location    "0.002/lagrangian/dsmc";
    object      positions;
}
// * * * * * * * * * * * * * * * * * * * * * * * * * * * * * * * * * * * * * //

6144
(
(0.1073716609 0.4463141695 0.4415287355 0.004785434063) 473 869 1
(0.5518409486 0.1094860704 0.2240795257 0.1145934553) 263 515 2
(0.37524813 0.09456774543 0.312375935 0.2178081896) 443 869 2
(0.651096641 0.1744516795 0.09731230336 0.07713937615) 413 810 1
(0.3845935721 0.2605972691 0.307703214 0.04710594489) 473 928 2
(0.854905079 0.05591517581 0.01663228471 0.07254746052) 203 338 2
(0.2292430346 0.01255622205 0.3728222606 0.3853784827) 113 1259 1
(0.0709193777 0.4645403112 0.4121400173 0.05240029389) 139 271 2
(0.1444434257 0.2298100691 0.197968218 0.4277782871) 231 394 2
(0.211413612 0.205564407 0.394293194 0.188728787) 112 216 1
(0.3235144579 0.338242771 0.2364859584 0.1017568126) 233 454 2
(0.6372770054 0.1813614973 0.04393055034 0.137430947) 142 275 2
(0.1700673047 0.2248372335 0.1901291141 0.4149663477) 529 1038 1
(0.6598236531 0.03459624233 0.1700881734 0.1354919311) 262 511 1
(0.370103625 0.3030337643 0.3149481875 0.01191442324) 83 161 2
(0.7506243915 0.1246878042 0.01368754162 0.1110002626) 233 397 1
(0.2352850634 0.2265792179 0.3823574683 0.1557782504) 202 396 2
(0.4677639736 0.1500589093 0.1160591039 0.2661180132) 291 512 2
(0.2139778369 0.1593959756 0.2336151059 0.3930110816) 82 159 1
(0.7783558587 0.1108220707 0.06014110323 0.05068096743) 620 1159 1
(0.158019242 0.420990379 0.003640398217 0.4173499808) 443 867 2
(0.357581011 0.3212094945 0.1841089904 0.1371005041) 352 688 2
(0.1953939338 0.1561911972 0.2461118359 0.4023030331) 112 160 2
(0.007631005988 0.3181020404 0.1780824566 0.496184497) 441 865 1
(0.3726931457 0.08438357573 0.3136534271 0.2292698514) 499 977 1
(0.173230002 0.01182833341 0.4015566656 0.413384999) 652 1222 2
(0.03544259179 0.4822787041 0.2682733286 0.2140053755) 113 161 1
(0.5058863778 0.1485819128 0.09847489829 0.2470568111) 383 692 2
(0.10798216 0.44600892 0.3661005704 0.07990834958) 471 866 1
(0.3524762166 0.2800650683 0.04369682339 0.3237618917) 503 1272 1
(0.5765835733 0.2117082133 0.07963485812 0.1320733552) 233 1263 2
(0.04088293446 0.02554183326 0.4795585328 0.4540166995) 413 810 2
(0.0384353579 0.2191289231 0.2616533979 0.480782321) 412 808 1
(0.1343321583 0.4328339208 0.3881419588 0.04469196208) 173 1261 2
(0.2018796882 0.3990601559 0.1602899396 0.2387702163) 232 396 1
(0.3373466431 0.07288131005 0.3313266784 0.2584453684) 533 1046 2
(0.5455745243 0.1703539874 0.05685875043 0.2272127378) 51 98 1
(0.982375306 0.002932877344 0.005879469634 0.008812346978) 410 746 2
(0.4696783784 0.245907247 0.2651608108 0.0192535638) 441 863 1
(0.2258887454 0.3870556273 0.136627776 0.2504278513) 469 920 2
(0.344361202 0.327819399 0.1781071675 0.1497122315) 592 1162 2
(0.2662172663 0.3668913668 0.1448168512 0.2220745157) 562 1104 1
(0.8448215176 0.07687714667 0.0775892412 0.0007120945362) 142 275 1
(0.528086271 0.2359568645 0.2307282788 0.005228585708) 531 1040 2
(0.1111664572 0.2753920341 0.4444167714 0.1690247373) 293 574 2
(0.4908125056 0.1903838576 0.06420988964 0.2545937472) 382 691 2
(0.07409825145 0.4629508743 0.2842557901 0.1786950841) 472 927 1
(0.3353827533 0.3323086234 0.1000342181 0.2322744052) 468 916 2
(0.08034210045 0.2308474345 0.4598289498 0.2289815153) 501 981 1
(0.3121208239 0.343939588 0.05393382292 0.2900057651) 82 105 1
(0.6798768484 0.1595428038 0.1600615758 0.0005187720235) 142 278 2
(0.8818262658 0.05908686711 0.03503644311 0.024050424) 260 507 2
(0.3346417626 0.3326791187 0.04874649665 0.2839326221) 290 566 2
(0.4067705147 0.2966147426 0.06058564746 0.2360290952) 561 1102 1
(0.4046002818 0.2976998591 0.1117497664 0.1859500927) 383 749 2
(0.1916407031 0.4041796484 0.3002128514 0.103966797) 170 333 1
(0.6108561537 0.1945719231 0.08171918236 0.1128527408) 143 279 1
(0.2906757922 0.2465935982 0.3546621039 0.1080685057) 439 862 2
(0.07907468906 0.4604626555 0.423464739 0.03699791648) 593 1275 2
(0.1772426639 0.4113786681 0.2500945488 0.1612841193) 55 104 2
(0.02596177116 0.4870191144 0.2429910495 0.244028065) 293 515 1
(0.1007212657 0.03454590677 0.4150934604 0.4496393672) 623 1164 2
(0.1618915482 0.4190542259 0.1517708882 0.2672833377) 563 1274 2
(0.0001371980471 0.4583771874 0.04155421361 0.499931401) 78 97 2
(0.3467866806 0.3266066597 0.04899784058 0.2776088191) 653 1277 2
(0.06765932407 0.3287196391 0.466170338 0.1374506988) 6 11 2
(0.7848133323 0.09963200939 0.1075933339 0.00796132447) 30 55 1
(0.6174378673 0.1912810664 0.1406820621 0.05059900428) 620 1215 2
(0.6339527818 0.1830236091 0.1292861862 0.05373742289) 323 631 2
(0.5306930008 0.2346534996 0.1510493182 0.08360418142) 27 21 1
(0.3575735419 0.3212132291 0.2759196049 0.04529362419) 172 336 2
(0.5112511726 0.02920439852 0.2151700152 0.2443744137) 173 279 2
(0.448147207 0.2759263965 0.1874990032 0.08842739331) 53 102 2
(0.6165899243 0.1375908518 0.1917050379 0.05411418607) 383 751 2
(0.8437181014 0.04584217181 0.03229877749 0.0781409493) 258 447 2
(0.1368542275 0.4315728863 0.4021850769 0.02938780938) 532 986 1
(0.3276229442 0.3361885279 0.2066433953 0.1295451327) 203 395 2
(0.1662539912 0.4168730044 0.3977386588 0.01913434562) 473 869 1
(0.2406923456 0.3757484868 0.3796538272 0.003905340459) 621 1220 2
(0.07862067831 0.1802348227 0.2804548381 0.4606896608) 228 388 2
(0.256676622 0.371661689 0.005342260545 0.3663194285) 51 98 2
(0.04557170441 0.09547051978 0.381743628 0.4772141478) 167 326 1
(0.3965132697 0.3017433652 0.07520742688 0.2265359383) 473 1271 2
(0.05839009513 0.4708049524 0.1606152027 0.3101897498) 592 1160 2
(0.03675260683 0.2293901907 0.4816236966 0.2522335059) 469 918 1
(0.451469394 0.274265303 0.1527792811 0.1214860219) 171 334 2
(0.07724600776 0.4613769961 0.2521936937 0.2091833024) 262 455 1
(0.8504684458 0.007394894405 0.0747657771 0.06737088269) 293 574 2
(0.2680836531 0.0219144474 0.3440437261 0.3659581735) 383 1268 1
(0.4832154945 0.2583922527 0.02034574094 0.2380465118) 293 1265 2
(0.2069570521 0.396521474 0.1778692011 0.2186522728) 112 218 2
(0.8259671457 0.002142942111 0.08487348503 0.08701642715) 232 454 1
(0.07079832098 0.4646008395 0.1227315994 0.3418692401) 293 1265 2
(0.5245885323 0.2377057338 0.1279413748 0.109764359) 621 1217 2
(0.1282651381 0.09515613498 0.3407112959 0.4358674309) 198 387 1
(0.6890656314 0.1554671843 0.1094716084 0.04599557593) 143 279 1
(0.8622925729 0.06885371356 0.03133515549 0.03751855807) 232 454 2
(0.04942431047 0.4752878448 0.00390046391 0.4713873809) 412 750 1
(0.6307320449 0.1846339775 0.004784349612 0.1798496279) 560 1100 1
(0.2890032427 0.3554983786 0.3280322657 0.02746611296) 318 621 2
(0.6647635874 0.1676182063 0.01664079814 0.1509774082) 441 807 1
(0.3195999701 0.05862459464 0.340200015 0.2815754203) 9 17 2
(0.1642893713 0.4178553144 0.2180190631 0.1998362512) 263 513 2
(0.4715615443 0.2642192279 0.1652038052 0.09901542265) 172 336 2
(0.05584618062 0.4121309994 0.4720769097 0.05994591027) 82 157 1
(0.5731356576 0.1950705617 0.01836160949 0.2134321712) 231 452 1
(0.3344573283 0.2932749935 0.3327713359 0.03949634236) 113 220 2
(0.607527847 0.1962360765 0.01906230165 0.1771737749) 502 927 1
(0.1889813467 0.1145175373 0.4055093266 0.2909917893) 51 96 1
(0.4671995325 0.2664002338 0.1224925386 0.1439076952) 262 513 2
(0.2881558278 0.2528530542 0.3559220861 0.1030690319) 79 151 1
(0.4544388084 0.2727805958 0.1897632017 0.08301739409) 412 809 1
(0.2459058545 0.1395998476 0.2374472251 0.3770470728) 561 1101 1
(0.3196331646 0.249045178 0.3401834177 0.09113823972) 47 88 1
(0.1559994073 0.4220002964 0.1178974002 0.3041028962) 197 385 2
(0.1359864046 0.09014002059 0.3418667771 0.4320067977) 201 335 2
(0.442270211 0.1789435266 0.2788648945 0.09992136794) 171 335 2
(0.06854561706 0.3277863383 0.1379408532 0.4657271915) 469 862 2
(0.1907282375 0.1550258772 0.249610004 0.4046358813) 111 216 1
(0.1064632594 0.4467683703 0.2910890986 0.1556792717) 71 135 2
(0.6630644002 0.1684677999 0.1000817361 0.0683860638) 322 573 1
(0.6467223697 0.06113519164 0.1766388151 0.1155036235) 560 1100 2
(0.7211323935 0.1394338033 0.06031442824 0.07911937502) 263 513 2
(0.7682030607 0.1158984697 0.07312544584 0.04277302381) 322 632 1
(0.03246904993 0.4089377658 0.483765475 0.07482770923) 292 570 1
(0.02680939509 0.1680222886 0.4865953025 0.3185730138) 410 805 2
(0.03560671513 0.02339058396 0.4588060585 0.4821966424) 352 632 2
(0.4098030564 0.1418627795 0.1532356923 0.2950984718) 173 1261 1
(0.05603577657 0.3574630542 0.4719821117 0.1145190575) 351 689 2
(0.954988757 0.02250562151 0.004993159745 0.01751246177) 383 749 2
(0.6518770229 0.1343540146 0.1740614885 0.03970747396) 201 394 2
(0.001440370124 0.2337437101 0.2655361048 0.4992798149) 533 1273 1
(0.368315528 0.315842236 0.1049401336 0.2109021024) 53 103 1
(0.1758956257 0.3720870018 0.4120521871 0.03996518537) 263 515 2
(0.02321624545 0.4883918773 0.4436106566 0.04478122069) 142 275 2
(0.3269830752 0.135421953 0.3365084624 0.2010865094) 107 209 2
(0.2873941534 0.3563029233 0.1389498319 0.2173530913) 323 633 1
(0.4364908485 0.2817545758 0.03086850631 0.2508860695) 202 393 2
(0.3763911318 0.2732239962 0.3118044341 0.03858043794) 232 455 2
(0.3471192772 0.02889118689 0.2975491745 0.3264403614) 55 63 2
(0.618761176 0.02754840098 0.190619412 0.163071011) 202 396 2
(0.06437640142 0.2561664242 0.2116453751 0.4678117993) 470 864 2
(0.1731163604 0.2954778772 0.4134418198 0.1179639426) 533 1046 2
(0.7644687079 0.0481425032 0.117765646 0.06962314283) 323 631 1
(0.4642405962 0.2678797019 0.0550976372 0.2127820647) 113 161 1
(0.4921035514 0.02817940427 0.2539482243 0.22576882) 21 40 2
(0.2539211886 0.133419809 0.2396195967 0.3730394057) 203 1262 1
(0.1291207446 0.4139566018 0.4354396277 0.02148302586) 201 394 2
(0.5528249957 0.09624157033 0.1273459318 0.2235875022) 528 1036 1
(0.3432771163 0.05570575585 0.272655686 0.3283614419) 109 154 2
(0.1289183613 0.3391350598 0.09640575957 0.4355408193) 200 333 2
(0.4957815031 0.2521092484 0.07597447427 0.1761347742) 108 208 2
(0.3659421683 0.02650232506 0.2905265908 0.3170289158) 351 630 2
(0.3455654983 0.3272172509 0.2080870171 0.1191302337) 203 338 1
(0.0250707519 0.1380242001 0.4874646241 0.3494404239) 52 101 2
(0.2965158606 0.3517420697 0.2370866187 0.114655451) 351 689 1
(0.5408347413 0.09620218396 0.2295826294 0.1333804454) 353 690 1
(0.340252507 0.3298737465 0.04227876259 0.2875949839) 173 338 1
(0.1573409302 0.3054540071 0.4213295349 0.1158755278) 652 1251 1
(0.5587883453 0.2206058274 0.1831623108 0.03744351658) 261 511 2
(0.6774036639 0.04327627964 0.1180218884 0.161298168) 442 867 1
(0.5476563863 0.2261718068 0.08596944134 0.1402023655) 473 928 1
(0.03752267637 0.3288922014 0.4812386618 0.1523464604) 201 391 1
(0.5093198066 0.2453400967 0.2288822171 0.0164578796) 201 335 1
(0.5979384773 0.1902555657 0.2010307613 0.01077519565) 136 263 1
(0.1874092821 0.2617905315 0.4062953589 0.1445048275) 15 29 2
(0.03516483991 0.48241758 0.2603035506 0.2221140295) 230 450 2
(0.3166020584 0.1237669985 0.2179319723 0.3416989708) 321 629 1
(0.3733412842 0.3133293579 0.2339289536 0.07940040428) 202 395 2
(0.6906110174 0.1546944913 0.136964548 0.01772994332) 287 563 1
(0.3253483919 0.1084550343 0.2288707697 0.337325804) 438 801 2
(0.1331473034 0.4334263483 0.379466682 0.05395966635) 319 567 1
(0.4010497497 0.2994751251 0.2544047022 0.04507042295) 112 218 2
(0.3907519252 0.3046240374 0.1439230242 0.1607010132) 293 574 1
(0.8494388251 0.07528058747 0.06235927598 0.0129213115) 111 216 2
(0.4668654651 0.2665672674 0.2597929952 0.00677427222) 290 569 1
(0.6585434451 0.1707282774 0.1023009623 0.06842731514) 262 511 2
(0.5766570773 0.1397361466 0.07193531473 0.2116714613) 531 984 2
(0.7378155689 0.02177422029 0.1310922155 0.1093179952) 110 215 2
(0.1334751527 0.4332624236 0.04238696164 0.390875462) 82 105 1
(0.09979405513 0.2479048754 0.4501029724 0.202198097) 229 449 2
(0.07812418804 0.185882715 0.460937906 0.275055191) 501 984 2
(0.06485659705 0.4675717015 0.009639274122 0.4579324274) 623 1164 1
(0.2764911815 0.08282107198 0.2789333372 0.3617544092) 621 1219 1
(0.1610532948 0.4194733526 0.1228777266 0.296595626) 142 278 1
(0.7291502618 0.03378837216 0.1016364969 0.1354248691) 470 864 2
(0.1167486335 0.4416256832 0.08231177558 0.3593139077) 263 513 2
(0.007930132856 0.2892842901 0.4960349336 0.2067506435) 533 1044 1
(0.444175918 0.277912041 0.2492116652 0.02870037575) 263 1264 2
(0.01794657147 0.2152316665 0.2757950478 0.4910267143) 381 747 1
(0.166174907 0.02181754173 0.4169125465 0.3950950048) 413 808 1
(0.6802228754 0.1515004452 0.1598885623 0.00838811712) 111 214 1
(0.1769026739 0.05928743911 0.411548663 0.3522612239) 172 337 2
(0.08244907829 0.4587754609 0.4480679492 0.0107075117) 203 395 2
(0.6490282999 0.1754858501 0.002584443119 0.172901407) 323 631 2
(0.499534799 0.1881596527 0.2502326005 0.06207294783) 592 1160 1
(0.7696659803 0.08666576439 0.02850124544 0.1151670098) 169 330 1
(0.2785461263 0.289094053 0.07163288383 0.3607269368) 501 925 2
(0.05945617654 0.4702719117 0.3153051591 0.1549667526) 470 922 2
(0.3630195611 0.3184902195 0.01377586335 0.3047143561) 165 320 2
(0.1638372999 0.1937494683 0.2243318818 0.4180813501) 232 396 2
(0.1679240849 0.4160379575 0.006876952707 0.4091610048) 563 1274 2
(0.1583142957 0.4208428522 0.1205369881 0.3003058641) 51 56 1
(0.02484562204 0.4174139362 0.07016325274 0.487577189) 380 745 1
(0.2109260207 0.1301691318 0.2643678579 0.3945369897) 412 750 2
(0.284883168 0.357558416 0.3300215901 0.02753682591) 443 810 1
(0.003282424703 0.4983587876 0.04653256241 0.4518262252) 141 275 2
(0.117007824 0.441496088 0.3338466098 0.1076494782) 201 335 1
(0.009062972139 0.1511542277 0.3443142862 0.4954685139) 230 450 1
(0.06232871995 0.2681837783 0.46883564 0.2006518617) 76 148 2
(0.04696448896 0.05887154903 0.4176462065 0.4765177555) 293 515 2
(0.1637724228 0.4181137886 0.0917262687 0.3263875199) 255 500 1
(0.4649799516 0.1882711734 0.07923885077 0.2675100242) 17 11 2
(0.2568577461 0.1374226713 0.2341484557 0.371571127) 256 443 2
(0.1289038138 0.2877926806 0.4355480931 0.1477554125) 322 629 1
(0.05375241101 0.2907127505 0.4731237945 0.182411044) 323 631 1
(0.4318124229 0.08964941496 0.1944443736 0.2840937885) 142 219 2
(0.3379930223 0.3310034889 0.07868258202 0.2523209068) 83 106 1
(0.7175481695 0.02301586165 0.1182100536 0.1412259153) 438 859 1
(0.3323288805 0.3338355598 0.0786903376 0.2551452222) 173 338 1
(0.3985246393 0.3007376804 0.265050261 0.03568741941) 171 276 1
(0.7082296344 0.08806007653 0.1458851828 0.05782510628) 561 1099 1
(0.6953300372 0.04848748666 0.1038474947 0.1523349814) 142 277 1
(0.3125075418 0.1444090946 0.1993371345 0.3437462291) 413 751 2
(0.1357178825 0.4321410588 0.2685182787 0.16362278) 382 749 2
(0.1757795657 0.4121102172 0.05869098595 0.3534192312) 376 737 2
(0.3166364754 0.02307211578 0.3186096465 0.3416817623) 501 925 2
(0.1072607443 0.4463696279 0.1748851412 0.2714844867) 440 864 1
(0.1506555318 0.4246722341 0.05414447876 0.3705277554) 502 985 2
(0.6197761441 0.03031351062 0.190111928 0.1597984173) 284 557 2
(0.2473672092 0.225521755 0.1507946404 0.3763163954) 323 1266 1
(0.8808232836 0.05958835821 0.03275397032 0.02683438788) 377 737 2
(0.1384641863 0.4307679069 0.2760367599 0.154731147) 140 274 1
(0.7095047889 0.1452476055 0.05463879043 0.0906088151) 139 213 1
(0.06280255309 0.4685987235 0.1626037139 0.3059950095) 201 335 1
(0.6236735289 0.07963759495 0.1085256406 0.1881632356) 199 389 1
(0.6603310798 0.1698344601 0.1622367332 0.007597726895) 438 857 2
(0.5205769579 0.2234760545 0.2397115211 0.01623546654) 173 338 2
(0.133101627 0.4334491865 0.2260076596 0.2074415269) 201 391 2
(0.1418192741 0.4290903629 0.1817040364 0.2473863265) 380 743 2
(0.3217966013 0.3391016993 0.1847878448 0.1543138546) 263 1264 2
(0.4295178974 0.2380881325 0.2852410513 0.0471529188) 442 868 2
(0.6084849018 0.1957575491 0.1048532341 0.090904315) 503 987 1
(0.7389151285 0.06010975827 0.07043267746 0.1305424357) 142 277 1
(0.3934966684 0.3032516658 0.1841434604 0.1191082054) 172 278 1
(0.060910338 0.469544831 0.1618014908 0.3077433402) 530 982 1
(0.783722211 0.0550270134 0.0531118811 0.1081388945) 169 330 1
(0.2897673727 0.02404857814 0.3310677355 0.3551163136) 171 334 1
(0.1546245891 0.2290995542 0.1935881512 0.4226877054) 136 265 1
(0.1343284825 0.06142852011 0.3714072386 0.4328357587) 443 1270 1
(0.2043788214 0.3978105893 0.3227615006 0.07504908866) 233 397 1
(0.3251890477 0.1743312979 0.1630741782 0.3374054762) 113 1259 1
(0.2050138728 0.1226223089 0.2748707547 0.3974930636) 588 1096 2
(0.4554712546 0.2722643727 0.1488325737 0.123431799) 286 558 2
(0.006964391175 0.4965178044 0.4755486105 0.02096919392) 263 1264 2
(0.4299920698 0.2850039651 0.1386142312 0.1463897338) 323 631 2
(0.2733449518 0.3498121936 0.3633275241 0.01351533049) 287 563 2
(0.02148215183 0.4892589241 0.4745356879 0.01472323615) 469 921 1
(0.3119568886 0.3440215557 0.301259374 0.04276218165) 200 391 2
(0.4449050697 0.2775474652 0.04233476245 0.2352127027) 230 451 1
(0.1795164081 0.410241796 0.1358281794 0.2744136165) 619 1213 2
(0.3528368572 0.3235815714 0.0002939169533 0.3232876545) 467 858 1
(0.3444118008 0.3277940996 0.268599621 0.05919447861) 531 1043 1
(0.3565090077 0.3217454961 0.1988939323 0.1228515638) 29 55 2
(0.4065662976 0.243064062 0.2967168512 0.05365278925) 587 1150 1
(0.441677061 0.2379304665 0.04123100303 0.2791614695) 203 338 2
(0.0831714285 0.4584142857 0.0443647203 0.4140495655) 592 1162 2
(0.1759298141 0.01021234891 0.4120350929 0.401822744) 141 276 2
(0.3115294782 0.04012727352 0.3041079874 0.3442352609) 47 48 2
(0.08580800466 0.4570959977 0.04850474078 0.4085912569) 442 867 2
(0.6736429536 0.1631785232 0.1518456709 0.01133285232) 439 859 2
(0.1646411686 0.4176794157 0.1087857584 0.3088936573) 411 806 2
(0.1805147422 0.4097426289 0.2276031125 0.1821395164) 353 692 1
(0.2102161407 0.007820243072 0.3948919296 0.3870716866) 170 333 2
(0.2896802446 0.3551598777 0.2016018398 0.1535580379) 529 1039 1
(0.07490879282 0.116942973 0.4625456036 0.3456026306) 321 627 1
(0.2378849741 0.2875802563 0.381057513 0.0934772567) 143 277 1
(0.00286531427 0.1850254973 0.3135418455 0.4985673429) 110 214 1
(0.08717915144 0.4564104243 0.1877574281 0.2686529962) 260 509 2
(0.5441764467 0.01101113477 0.2279117767 0.2169006419) 348 680 1
(0.1241167603 0.05182767781 0.4379416198 0.386113942) 261 512 2
(0.7785402704 0.06359244135 0.1107298648 0.04713742347) 502 983 1
(0.09165288075 0.1205107624 0.3336627972 0.4541735596) 166 324 1
(0.324252469 0.3378737655 0.01343489852 0.324438867) 80 153 2
(0.3379746093 0.3310126953 0.03010902635 0.300903669) 323 633 1
(0.1857502125 0.4071248938 0.2308293414 0.1762955524) 172 337 1
(0.05789913912 0.4710504304 0.02137315439 0.449677276) 352 691 1
(0.2942723944 0.2191427688 0.3528638028 0.133721034) 352 691 2
(0.02417953469 0.4879102327 0.3948357232 0.09307450946) 83 159 2
(0.5365069767 0.2317465116 0.158589155 0.07315735662) 230 392 1
(0.1816311545 0.4091844227 0.3011806092 0.1080038135) 256 501 2
(0.6195300465 0.07952434012 0.1107106366 0.1902349768) 563 1046 2
(0.1294175211 0.4352912394 0.1901713056 0.2451199338) 141 275 2
(0.6594227557 0.1662652472 0.004023374964 0.1702886222) 112 218 1
(0.5840264092 0.2016918484 0.006294946976 0.2079867954) 201 335 2
(0.3356892967 0.0260441067 0.3321553516 0.3061112449) 560 1100 2
(0.1248512839 0.2482429004 0.4375743581 0.1893314576) 353 690 1
(0.08241920806 0.458790396 0.07939702839 0.3793933676) 112 218 2
(0.3544324632 0.3227837684 0.1558713571 0.1669124113) 231 394 1
(0.04567337567 0.2455556608 0.2316076514 0.4771633122) 322 631 1
(0.318523635 0.3407381825 0.1228325614 0.2179056211) 351 688 2
(0.2645360475 0.3677319763 0.004420080945 0.3633118953) 139 272 1
(0.5771964112 0.1175926004 0.09380919401 0.2114017944) 260 509 1
(0.6429026518 0.1785486741 0.1543666652 0.02418200886) 199 387 2
(0.4474493562 0.2762753219 0.04565178111 0.2306235408) 232 454 2
(0.1131174858 0.2562243628 0.4434412571 0.1872168943) 289 564 1
(0.1878337564 0.4060831218 0.3311126573 0.07497046447) 169 272 1
(0.3762155783 0.3118922109 0.01328036407 0.2986118468) 411 748 1
(0.2005010153 0.3997494923 0.2528735695 0.1468759228) 652 1306 1
(0.1579952675 0.4210023663 0.1018877404 0.3191146259) 380 687 1
(0.05204009801 0.473979951 0.4447362398 0.02924371117) 592 1160 2
(0.03484673874 0.3857473013 0.09682932931 0.4825766306) 51 56 2
(0.02129631108 0.4036431049 0.08570873956 0.4893518445) 382 691 2
(0.007077438585 0.1510426837 0.345418597 0.4964612807) 290 568 1
(0.08247321706 0.4587633915 0.03580240943 0.422960982) 113 1259 2
(0.7924877581 0.1037561209 0.08455595712 0.01920016382) 591 1102 1
(0.05246963451 0.4335881919 0.4737651827 0.04017699085) 318 624 2
(0.655568163 0.1722159185 0.08976932412 0.08244659437) 74 144 1
(0.1839560144 0.007187177913 0.4008348149 0.4080219928) 254 439 2
(0.7973151371 0.1013424314 0.05334291442 0.04799951703) 260 507 2
(0.2581641994 0.3082135259 0.3709179003 0.06270437439) 468 919 2
(0.3565369199 0.2952294994 0.02650204063 0.3217315401) 323 1266 1
(0.1581092848 0.1682513169 0.2526940407 0.4209453576) 531 984 2
(0.5760317439 0.01916276388 0.1928213642 0.2119841281) 262 455 2
(0.2366053946 0.3816973027 0.3610934518 0.02060385084) 229 448 2
(0.7750716141 0.07288587176 0.03957832116 0.1124641929) 230 450 1
(0.511317309 0.0317023626 0.2126389829 0.2443413455) 499 979 1
(0.1122038553 0.4438980723 0.06352515312 0.3803729192) 139 271 2
(0.2617560303 0.06194481275 0.3071771721 0.3691219848) 112 160 2
(0.3794815096 0.007185037065 0.3030742082 0.3102592452) 292 514 2
(0.307682365 0.3461588175 0.2614298896 0.08472892792) 622 1219 2
(0.1547441383 0.4226279308 0.06614972114 0.3564782097) 262 511 2
(0.1158397937 0.2681051608 0.4420801031 0.1739749424) 290 566 1
(0.1373131414 0.1208441326 0.3104992967 0.4313434293) 198 387 1
(0.1131254082 0.3327076338 0.1107296621 0.4434372959) 82 105 2
(0.03193633976 0.4840318301 0.1857400925 0.2982917376) 78 149 2
(0.004840889984 0.497579555 0.1667551505 0.3308244045) 257 445 1
(0.6333157849 0.008419073185 0.1833421076 0.1749230344) 500 982 2
(0.04286644372 0.4243508502 0.05421592796 0.4785667781) 591 1102 2
(0.5490706705 0.2254646648 0.1628082226 0.06265644216) 169 330 2
(0.821948928 0.08902553599 0.07389517092 0.01513036506) 107 150 1
(0.1467534373 0.2488968171 0.1777264643 0.4266232814) 383 692 2
(0.02506615401 0.445883059 0.04158386395 0.487466923) 258 505 1
(0.2949896378 0.3525051811 0.0205050744 0.3320001067) 233 1263 2
(0.5026720118 0.1408166886 0.1078473056 0.2486639941) 493 967 1
(0.46914024 0.26542988 0.2372566707 0.02817320936) 203 338 1
(0.3698004195 0.1840724804 0.1310273099 0.3150997903) 378 683 2
(0.3640548316 0.1222624068 0.3179725842 0.1957101774) 262 511 1
(0.3863680587 0.3068159707 0.001019031117 0.3057969395) 288 562 2
(0.2044268952 0.387131327 0.3977865524 0.01065522539) 262 514 2
(0.7375949409 0.1312025296 0.09164642495 0.03955610462) 110 215 1
(0.4370222631 0.1811244658 0.2814888684 0.1003644027) 532 1042 1
(0.1294563737 0.4352718131 0.3300933987 0.1051784145) 263 1264 2
(0.03841367097 0.299430007 0.1813631575 0.4807931645) 197 327 2
(0.2324327401 0.3837836299 0.07397102779 0.3098126022) 293 515 1
(0.1796342521 0.410182874 0.1741193865 0.2360634875) 203 395 2
(0.8639680967 0.06801595165 0.02257628362 0.04543966803) 442 865 2
(0.3294164673 0.1755837354 0.159708031 0.3352917664) 290 568 1
(0.08774315808 0.456128421 0.03090777048 0.4252206505) 383 749 2
(0.001108462204 0.4994457689 0.1484513318 0.3509944371) 50 96 2
(0.723555086 0.134940899 0.003281557975 0.138222457) 200 391 1
(0.009467541851 0.03263513396 0.4952662291 0.4626310951) 231 453 2
(0.2464857981 0.2476529547 0.3767571009 0.1291041462) 383 751 2
(0.3971414255 0.3014292872 0.2279844445 0.07344484274) 502 983 2
(0.9139217537 0.006182859906 0.04303912317 0.03685626326) 533 1044 1
(0.02998829065 0.2660419837 0.2189638709 0.4850058547) 49 94 1
(0.1798357676 0.4100821162 0.2465591102 0.163523006) 143 277 2
(0.1477435636 0.4216202542 0.004507963961 0.4261282182) 472 868 2
(0.4957067458 0.09042377979 0.2521466271 0.1617228473) 260 510 2
(0.568423781 0.1465512485 0.06923686104 0.2157881095) 561 1043 2
(0.3095080628 0.3452459686 0.3379844154 0.007261553231) 198 387 2
(0.526514812 0.236742594 0.01191009171 0.2248325023) 142 277 2
(0.3500045411 0.3249977294 0.242861339 0.08213639047) 140 273 2
(0.3979249371 0.002573535972 0.2984639955 0.3010375315) 263 1264 1
(0.3858301315 0.3070849342 0.05746618406 0.2496187502) 500 923 1
(0.5518966207 0.1774341868 0.0466175029 0.2240516897) 528 1036 1
(0.2711996011 0.2986651884 0.06573501108 0.3644001994) 531 1042 1
(0.6483982964 0.1758008518 0.1570629126 0.01873793923) 261 453 1
(0.04832398953 0.1604630296 0.4758380052 0.3153749756) 559 1095 1
(0.4215152399 0.2559864093 0.2892423801 0.03325597074) 351 686 1
(0.5312870721 0.1576453009 0.234356464 0.07671116307) 561 1102 2
(0.909085818 0.04196113407 0.04545709098 0.003495956903) 353 692 2
(0.07599872317 0.0819349969 0.4620006384 0.3800656415) 111 217 2
(0.2039659191 0.01961254931 0.3784044912 0.3980170405) 323 574 2
(0.01849624406 0.490751878 0.4289970802 0.06175479778) 323 574 1
(0.176565872 0.411717064 0.01216825367 0.3995488103) 469 918 2
(0.1283856056 0.226381535 0.4358071972 0.2094256622) 652 1306 2
(0.4566323191 0.2716838404 0.148242046 0.1234417944) 232 454 2
(0.5153414988 0.1249401849 0.2423292506 0.1173890657) 228 447 2
(0.02011197228 0.105485784 0.3844582299 0.4899440139) 560 1099 1
(0.1073246527 0.3669434629 0.07939421079 0.4463376737) 167 326 1
(0.3159922393 0.3420038804 0.2053734763 0.1366304041) 112 219 1
(0.3075065409 0.3462467296 0.06051783156 0.285728898) 201 394 1
(0.1000347492 0.4499826254 0.3708791537 0.07910347174) 471 924 2
(0.2229956048 0.3885021976 0.01728625795 0.3712159397) 172 337 1
(0.2925304019 0.353734799 0.1964446811 0.1572901179) 593 1275 2
(0.7567315311 0.1216342344 0.1106824232 0.01095181127) 322 573 1
(0.6559368573 0.1720315713 0.02206133681 0.1499702345) 261 453 1
(0.3668618398 0.1867721594 0.3165690801 0.1297969207) 350 687 2
(0.2213278988 0.3893360506 0.1903571218 0.1989789288) 382 747 2
(0.3826594178 0.3086702911 0.05541828857 0.2532520025) 529 1038 2
(0.2584226872 0.2094310766 0.3707886564 0.1613575798) 81 155 1
(0.7100694979 0.1449652511 0.01434437936 0.1306208717) 562 1104 1
(0.08262614943 0.4586869253 0.06744184198 0.3912450833) 172 334 2
(0.2982977779 0.2174359101 0.3508511111 0.1334152009) 410 802 1
(0.1255569292 0.4372215354 0.27046072 0.1667608154) 289 567 1
(0.5076842035 0.2461578983 0.202830937 0.04332696131) 203 1262 2
(0.1077225535 0.4461387232 0.2653214741 0.1808172492) 378 741 2
(0.4001777159 0.299911142 0.2675470049 0.03236413716) 493 909 1
(0.2616414265 0.1431258326 0.3691792867 0.2260534541) 528 1034 1
(0.3908035166 0.07111868261 0.3045982417 0.2334795591) 352 688 1
(0.3929572402 0.2748377788 0.02868360112 0.3035213799) 82 105 2
(0.4313324363 0.1795212927 0.1048124892 0.2843337819) 261 511 1
(0.2478014698 0.1931575526 0.3760992651 0.1829417125) 143 277 1
(0.1304785593 0.4347607204 0.009357752982 0.4254029674) 193 377 2
(0.1212022322 0.4393988839 0.004461501469 0.4349373825) 82 159 2
(0.03638094626 0.4818095269 0.3291948079 0.152614719) 409 802 2
(0.09235888546 0.4538205573 0.3319243393 0.121896218) 501 983 2
(0.5311858985 0.1851668824 0.04924016833 0.2344070508) 440 863 1
(0.0649989568 0.4675005216 0.3476861623 0.1198143593) 590 1158 2
(0.267951519 0.3634741914 0.002550049071 0.3660242405) 168 328 1
(0.2944631198 0.153616423 0.1991520171 0.3527684401) 141 275 1
(0.3974170303 0.3012914848 0.2259064656 0.07538501926) 201 391 2
(0.1091503493 0.4454248254 0.08575753165 0.3596672937) 107 209 1
(0.05160540795 0.474197296 0.151395975 0.322801321) 49 92 2
(0.856040227 0.05911656007 0.01286332641 0.07197988648) 108 152 2
(0.3776539568 0.3111730216 0.03269651773 0.2784765039) 470 864 1
(0.3548377202 0.3225811399 0.2351828734 0.08739826656) 381 745 2
(0.6383821166 0.171085445 0.1808089417 0.009723496696) 199 390 2
(0.1040510501 0.4155090971 0.03246537785 0.447974475) 379 685 2
(0.5094205708 0.06772778576 0.1775619288 0.2452897146) 437 799 2
(0.4218128787 0.2890935607 0.03290188847 0.2561916722) 351 630 1
(0.06155717736 0.3606690068 0.1085524045 0.4692214113) 316 561 2
(0.06723995103 0.4663800245 0.3074676814 0.1589123431) 199 390 1
(0.6077986151 0.1961006925 0.1010537998 0.09504689267) 562 1101 2
(0.01381783942 0.4930910803 0.1851176294 0.3079734508) 199 389 2
(0.1024810436 0.4487594782 0.3703724755 0.07838700273) 441 863 2
(0.07089610754 0.4645519462 0.06875464714 0.3957972991) 440 863 2
(0.09399169476 0.4530041526 0.006170584222 0.4468335684) 318 623 2
(0.3764467519 0.3117766241 0.09802919539 0.2137474287) 383 1268 2
(0.4619648756 0.2690175622 0.1057817926 0.1632357696) 108 211 1
(0.1783419398 0.1868845449 0.2239444852 0.4108290301) 381 689 2
(0.2078912321 0.3960543839 0.09612877573 0.2999256082) 107 150 1
(0.7415414925 0.1292292538 0.02111670486 0.1081125489) 113 218 2
(0.08705551181 0.2438740258 0.4564722441 0.2125982183) 502 986 2
(0.4340615889 0.2523976489 0.2829692056 0.03057155671) 619 1216 2
(0.1031446519 0.338730417 0.448427674 0.109697257) 503 985 1
(0.05822824018 0.4708858799 0.3659387922 0.1049470877) 524 1026 2
(0.4130993019 0.1009203619 0.2934503491 0.1925299872) 79 151 1
(0.6624211954 0.1522667397 0.01652266254 0.1687894023) 32 31 2
(0.02575849917 0.471661518 0.01545923246 0.4871207504) 170 332 1
(0.4054355023 0.2972822489 0.2096060689 0.08767617992) 352 688 2
(0.1367583569 0.4099926829 0.02162813868 0.4316208215) 203 338 2
(0.2629463529 0.3685268236 0.2615062692 0.1070205543) 562 1045 1