/*--------------------------------*- C++ -*----------------------------------*\
  =========                 |
  \\      /  F ield         | OpenFOAM: The Open Source CFD Toolbox
   \\    /   O peration     | Website:  https://openfoam.org
    \\  /    A nd           | Version:  7
     \\/     M anipulation  |
\*---------------------------------------------------------------------------*/
FoamFile
{
    version     2.0;
    format      ascii;
    class       surfaceScalarField;
    location    "0.4";
    object      alphaPhi0.water;
}
// * * * * * * * * * * * * * * * * * * * * * * * * * * * * * * * * * * * * * //

dimensions      [0 3 -1 0 0 0 0];

internalField   nonuniform List<scalar> 
4432
(
-5.43789e-06
5.43789e-06
-6.4213e-06
9.8341e-07
-3.82616e-06
-2.59514e-06
1.79724e-07
-4.00588e-06
4.61873e-06
-4.439e-06
9.12044e-06
-4.50171e-06
1.34972e-05
-4.37678e-06
1.76851e-05
-4.18788e-06
2.16599e-05
-3.97477e-06
2.54001e-05
-3.74027e-06
2.88707e-05
-3.47057e-06
3.20105e-05
-3.13981e-06
3.47194e-05
-2.70889e-06
3.68316e-05
-2.1122e-06
3.80802e-05
-1.24858e-06
3.79126e-05
1.67536e-07
3.54964e-05
2.41626e-06
3.02094e-05
5.28702e-06
2.15439e-05
8.66546e-06
9.76933e-06
1.17746e-05
-3.6471e-06
1.35469e-05
-1.13636e-05
7.59919e-06
-1.14824e-05
-3.53999e-06
8.97788e-06
-2.59376e-06
3.71873e-08
2.77282e-07
-5.46619e-06
4.08141e-06
-7.81001e-06
8.31306e-06
-8.67067e-06
1.25997e-05
-8.78831e-06
1.67928e-05
-8.56994e-06
2.08228e-05
-8.21789e-06
2.46539e-05
-7.80584e-06
2.8256e-05
-7.34236e-06
3.1588e-05
-6.8026e-06
3.45866e-05
-6.13835e-06
3.71541e-05
-5.27637e-06
3.91474e-05
-4.10553e-06
4.03682e-05
-2.46937e-06
4.06171e-05
-8.14058e-08
3.9624e-05
3.40943e-06
3.66532e-05
8.25774e-06
3.08205e-05
1.44982e-05
2.14163e-05
2.11788e-05
9.148e-06
2.58151e-05
-2.33291e-07
1.72058e-05
-1.21358e-05
-1.43726e-06
1.04151e-05
2.3111e-07
-1.63118e-06
3.15874e-06
-8.39382e-06
6.87584e-06
-1.15271e-05
1.08876e-05
-1.26824e-05
1.49379e-05
-1.28386e-05
1.89032e-05
-1.25352e-05
2.27218e-05
-1.20365e-05
2.6357e-05
-1.1441e-05
2.97751e-05
-1.07605e-05
3.29325e-05
-9.95997e-06
3.5766e-05
-8.97193e-06
3.81841e-05
-7.69444e-06
4.00584e-05
-5.97982e-06
4.12137e-05
-3.6247e-06
4.14718e-05
-3.39459e-07
4.06288e-05
4.25245e-06
3.83638e-05
1.05227e-05
3.42277e-05
1.86343e-05
2.76637e-05
2.77428e-05
1.8552e-05
3.49268e-05
7.97539e-06
2.81009e-05
-4.16753e-06
3.9056e-07
1.00246e-05
2.46464e-06
-3.70526e-06
5.59709e-06
-1.15263e-05
9.24829e-06
-1.51783e-05
1.30767e-05
-1.65108e-05
1.69017e-05
-1.66636e-05
2.06372e-05
-1.62708e-05
2.42377e-05
-1.5637e-05
2.76701e-05
-1.48735e-05
3.09005e-05
-1.39908e-05
3.38843e-05
-1.29438e-05
3.65607e-05
-1.16482e-05
3.88447e-05
-9.97853e-06
4.06227e-05
-7.75775e-06
4.17491e-05
-4.75111e-06
4.20694e-05
-6.59822e-07
4.14332e-05
4.88873e-06
3.9675e-05
1.22808e-05
3.65848e-05
2.17246e-05
3.17849e-05
3.25427e-05
2.46996e-05
4.2012e-05
1.42984e-05
3.85021e-05
1.00874e-05
1.76593e-06
8.25865e-06
4.36455e-06
-6.30388e-06
7.72051e-06
-1.48822e-05
1.1357e-05
-1.88148e-05
1.50313e-05
-2.0185e-05
1.86426e-05
-2.0275e-05
2.21515e-05
-1.97797e-05
2.55337e-05
-1.90191e-05
2.87633e-05
-1.81031e-05
3.18075e-05
-1.7035e-05
3.46228e-05
-1.57592e-05
3.71514e-05
-1.41769e-05
3.9317e-05
-1.21441e-05
4.10208e-05
-9.46151e-06
4.21431e-05
-5.87342e-06
4.25604e-05
-1.07715e-06
4.21699e-05
5.27924e-06
4.08886e-05
1.35621e-05
3.86209e-05
2.39923e-05
3.507e-05
3.60936e-05
2.94261e-05
4.7656e-05
1.92197e-05
4.87084e-05
2.92609e-05
2.66407e-06
5.59458e-06
5.95424e-06
-9.59406e-06
9.60294e-06
-1.85309e-05
1.32583e-05
-2.24702e-05
1.6792e-05
-2.37187e-05
2.01945e-05
-2.36775e-05
2.34793e-05
-2.30645e-05
2.66457e-05
-2.21854e-05
2.96757e-05
-2.1133e-05
3.25383e-05
-1.98977e-05
3.51917e-05
-1.84126e-05
3.75825e-05
-1.65676e-05
3.96435e-05
-1.42052e-05
4.12916e-05
-1.11095e-05
4.243e-05
-7.01184e-06
4.29664e-05
-1.61358e-06
4.28408e-05
5.40491e-06
4.20298e-05
1.43731e-05
4.05134e-05
2.55087e-05
3.80502e-05
3.85568e-05
3.37127e-05
5.19935e-05
2.39656e-05
5.84555e-05
5.31698e-05
3.32903e-06
2.26555e-06
7.33607e-06
-1.36011e-05
1.13148e-05
-2.25097e-05
1.49926e-05
-2.6148e-05
1.83773e-05
-2.71033e-05
2.15657e-05
-2.6866e-05
2.4627e-05
-2.61258e-05
2.75817e-05
-2.51401e-05
3.04176e-05
-2.39689e-05
3.31051e-05
-2.25852e-05
3.5604e-05
-2.09115e-05
3.78661e-05
-1.88297e-05
3.98346e-05
-1.61737e-05
4.14416e-05
-1.27165e-05
4.26115e-05
-8.18183e-06
4.32811e-05
-2.28318e-06
4.34298e-05
5.25622e-06
4.30893e-05
1.47137e-05
4.23173e-05
2.62807e-05
4.09725e-05
3.99016e-05
3.82211e-05
5.47449e-05
2.94645e-05
6.7212e-05
8.25796e-05
3.90919e-06
-1.64365e-06
8.63838e-06
-1.83303e-05
1.29375e-05
-2.68089e-05
1.65951e-05
-2.98056e-05
1.97958e-05
-3.03041e-05
2.27561e-05
-2.98263e-05
2.55945e-05
-2.89642e-05
2.83444e-05
-2.789e-05
3.09948e-05
-2.66193e-05
3.35155e-05
-2.51059e-05
3.58681e-05
-2.32641e-05
3.80102e-05
-2.09718e-05
3.98958e-05
-1.80593e-05
4.14725e-05
-1.42932e-05
4.26843e-05
-9.3936e-06
4.34936e-05
-3.09257e-06
4.39171e-05
4.83276e-06
4.40407e-05
1.45901e-05
4.40198e-05
2.63016e-05
4.39063e-05
4.00152e-05
4.3206e-05
5.54451e-05
3.65368e-05
7.38812e-05
0.000119066
-1.93241e-24
4.26188e-24
-3.00745e-23
1.2181e-23
-1.25104e-22
2.2257e-23
-3.03367e-21
1.97013e-22
-2.96659e-20
-3.82128e-21
-1.12279e-19
-8.88562e-20
-1.34189e-19
-3.26346e-19
-3.92556e-20
-3.50267e-19
2.0574e-20
-3.42497e-19
1.63301e-20
-1.4268e-19
4.8733e-21
-4.41695e-20
1.71875e-22
-2.56182e-21
2.99057e-24
-3.56599e-23
1.39797e-25
-5.49274e-26
1.42209e-26
1.10129e-26
4.55315e-28
1.35653e-27
3.90836e-30
5.16897e-29
8.28151e-31
6.76273e-31
8.72554e-32
-2.51261e-23
1.06755e-22
-1.97988e-22
1.58894e-22
-1.73872e-20
8.1611e-21
-6.55924e-19
8.38885e-20
-5.13463e-18
-1.68377e-18
-2.95069e-18
-1.0073e-17
-2.34836e-18
-2.32776e-18
-7.8652e-19
-3.94024e-18
8.59278e-19
-4.38099e-18
1.53518e-18
-6.46366e-18
6.42637e-19
-6.74063e-18
1.54156e-20
-3.94499e-19
1.68824e-22
-2.52669e-21
7.40714e-24
-9.2836e-24
8.09512e-25
1.65307e-24
4.02382e-26
3.06078e-25
2.92948e-28
1.22516e-26
1.75971e-30
1.7278e-28
1.10607e-30
-5.77171e-22
2.18721e-21
-1.09071e-20
7.71099e-21
-1.01474e-18
5.52202e-19
-1.60542e-17
3.69378e-18
-5.17964e-17
-3.80887e-18
-1.11501e-17
-2.39747e-17
-2.29742e-17
-3.95566e-18
-8.15046e-18
1.16935e-16
1.52149e-17
1.08342e-16
1.58479e-17
-3.96147e-17
1.03123e-17
-2.11142e-17
2.56048e-19
-1.65714e-18
5.3524e-21
-1.76782e-20
9.65024e-23
-1.52234e-22
1.5103e-23
2.67445e-23
5.83489e-25
5.94833e-24
3.83624e-27
2.33763e-25
1.39245e-29
3.12355e-27
2.58925e-29
-5.72788e-21
2.68106e-20
-7.19469e-19
3.2314e-19
-5.50155e-17
2.78413e-17
-1.41225e-16
1.6229e-16
-2.43334e-16
2.57525e-16
-2.34191e-16
4.99347e-17
-7.19152e-16
1.43926e-15
-9.99661e-17
3.03679e-15
6.99879e-16
1.70501e-15
1.59986e-16
1.07643e-15
2.7605e-17
1.88646e-16
6.53121e-18
-1.43552e-17
3.08291e-19
-3.47281e-18
3.98882e-22
-2.21012e-20
6.12901e-23
2.16222e-22
1.49424e-23
6.69436e-23
5.88418e-26
3.70502e-24
1.85746e-28
4.85122e-26
4.92325e-28
-2.87134e-20
1.85489e-19
-4.35559e-18
4.21006e-18
-1.3839e-15
4.02866e-16
-2.06939e-14
3.50943e-15
-1.16805e-14
-2.72186e-14
-7.59968e-15
-1.62995e-15
-1.09848e-14
2.77763e-14
8.78504e-15
8.33207e-14
2.93356e-14
4.34458e-14
7.42849e-15
3.80136e-14
2.14126e-15
5.38559e-15
2.38636e-16
-3.73358e-16
1.53474e-17
-1.61348e-16
8.79555e-20
-1.43515e-18
8.67242e-22
8.11332e-21
2.86378e-22
1.17513e-21
8.81219e-25
6.49863e-23
3.38832e-27
1.00367e-24
1.10321e-26
-8.59501e-20
6.02063e-19
-1.5773e-19
1.77035e-17
-6.83575e-15
8.43555e-16
-8.17477e-13
2.57711e-14
-5.47365e-14
-1.53496e-12
1.48618e-13
-2.85004e-13
2.38564e-13
5.80328e-13
9.39899e-13
1.71495e-12
1.06571e-12
1.10951e-12
3.05036e-13
1.11597e-12
8.18125e-14
1.2778e-13
9.7558e-15
7.75148e-15
6.37712e-16
-3.26666e-15
4.66522e-18
-6.61146e-17
2.85216e-20
4.38165e-19
3.88291e-21
3.53934e-20
1.99939e-23
1.7523e-21
1.07042e-25
3.35559e-23
4.0573e-25
4.72738e-20
1.13329e-18
1.08553e-17
4.03559e-17
1.40499e-17
8.89635e-17
-1.70786e-15
-9.01531e-18
1.98744e-10
-1.47417e-10
4.53893e-11
1.33893e-10
3.39437e-11
2.47939e-11
5.61751e-11
1.93532e-11
3.39635e-11
3.64597e-11
8.37102e-12
3.01564e-11
2.2054e-12
3.42669e-12
3.0152e-13
4.47755e-13
2.26716e-14
-4.50014e-14
2.27267e-16
-2.13085e-15
1.19981e-18
2.88558e-17
7.30271e-20
1.48287e-18
1.47165e-21
6.87583e-20
4.09956e-24
1.40963e-21
1.63232e-23
5.35637e-19
1.17716e-18
1.30791e-18
4.01696e-17
4.06934e-18
9.97734e-17
3.36603e-08
-3.36586e-08
4.20251e-08
-9.96167e-09
4.73546e-09
3.66323e-08
2.85247e-09
2.02192e-09
2.97978e-09
2.63944e-10
1.04392e-09
1.64405e-09
2.23533e-10
9.54754e-10
5.40381e-11
1.28081e-10
8.20501e-12
2.28035e-11
6.85481e-13
1.12545e-12
1.24225e-14
-2.68045e-14
1.05842e-16
3.75096e-15
2.83076e-18
1.13721e-16
6.88695e-20
2.98516e-18
7.67533e-22
7.02025e-20
7.76305e-22
1.04516e-05
-1.20953e-05
2.30799e-05
-3.09588e-05
3.28665e-05
-3.6596e-05
4.01442e-05
-3.70837e-05
4.61493e-05
-3.63096e-05
5.1656e-05
-3.53333e-05
5.69897e-05
-3.42981e-05
6.22133e-05
-3.31138e-05
6.72863e-05
-3.16924e-05
7.21384e-05
-2.9958e-05
7.66934e-05
-2.78191e-05
8.08818e-05
-2.51603e-05
8.46459e-05
-2.18234e-05
8.79273e-05
-1.75746e-05
9.06646e-05
-1.21308e-05
9.28464e-05
-5.27442e-06
9.46318e-05
3.0473e-06
9.63374e-05
1.28846e-05
9.86712e-05
2.39678e-05
0.000102575
3.61115e-05
0.000109306
4.87138e-05
0.000122551
6.06362e-05
7.76226e-05
0.000163956
1.51967e-05
-2.72914e-05
3.1138e-05
-4.68988e-05
3.96706e-05
-4.51274e-05
4.50213e-05
-4.24329e-05
4.95257e-05
-4.08124e-05
5.39942e-05
-3.98001e-05
5.85548e-05
-3.88571e-05
6.31266e-05
-3.76842e-05
6.76078e-05
-3.61723e-05
7.19135e-05
-3.42626e-05
7.59736e-05
-3.18784e-05
7.97485e-05
-2.89347e-05
8.32406e-05
-2.5315e-05
8.64665e-05
-2.08003e-05
8.94267e-05
-1.50909e-05
9.21338e-05
-7.98156e-06
9.49339e-05
2.47258e-07
9.80005e-05
9.81802e-06
0.000102253
1.97148e-05
0.000108651
2.97144e-05
0.000118708
3.8656e-05
0.00013438
4.49643e-05
5.0346e-05
0.000161657
2.095e-05
-2.31975e-05
2.64357e-05
-2.04389e-05
2.76075e-05
-1.12149e-05
3.05679e-05
-1.0736e-05
3.4511e-05
-1.12859e-05
3.904e-05
-1.22923e-05
4.37513e-05
-1.33866e-05
4.84165e-05
-1.42926e-05
5.30498e-05
-1.49313e-05
5.7694e-05
-1.53127e-05
6.23691e-05
-1.53966e-05
6.72325e-05
-1.52103e-05
7.25007e-05
-1.48517e-05
7.80763e-05
-1.41244e-05
8.35686e-05
-1.23111e-05
8.88106e-05
-8.70083e-06
9.31114e-05
-2.83669e-06
9.76695e-05
5.25992e-06
0.000103101
1.42829e-05
0.000110036
2.27802e-05
0.000119189
2.95029e-05
0.000131764
3.2389e-05
3.2142e-05
0.000149968
4.20035e-06
2.60716e-13
1.00735e-06
1.85827e-13
3.3627e-07
1.48482e-13
5.11412e-07
1.92396e-13
1.01547e-06
1.35918e-12
1.77822e-06
8.49117e-12
2.74195e-06
1.20263e-11
3.82512e-06
9.85871e-12
5.04183e-06
6.17679e-12
6.45866e-06
3.42208e-12
8.17384e-06
1.62219e-12
1.0512e-05
6.53728e-13
1.41058e-05
2.34484e-13
1.95163e-05
7.61785e-14
2.71191e-05
2.19454e-14
3.83682e-05
5.30563e-15
5.58219e-05
8.01585e-16
7.80185e-05
2.74071e-08
9.91934e-05
3.78982e-06
0.000110566
1.14078e-05
0.000120234
1.98353e-05
0.000131978
2.06443e-05
1.83166e-05
0.000145804
-7.73923e-14
4.0748e-13
-8.08794e-14
3.23492e-13
-1.28159e-13
4.01312e-13
-1.74459e-13
4.69236e-13
-1.35435e-12
2.43472e-12
-9.37372e-12
1.15081e-11
-1.45788e-11
1.48172e-11
-1.30827e-11
1.21209e-11
-8.99467e-12
7.69914e-12
-5.5024e-12
4.12368e-12
-2.91218e-12
1.94714e-12
-1.33155e-12
8.34561e-13
-5.53569e-13
3.31968e-13
-2.15723e-13
1.24862e-13
-7.9798e-14
4.50035e-14
-2.83184e-14
1.57004e-14
-8.45661e-15
5.24643e-15
1.76872e-06
1.35509e-15
9.97746e-06
1.46911e-16
2.83654e-05
1.5792e-08
7.08377e-05
-1.92536e-07
0.000127162
2.69378e-06
5.37282e-06
0.000147489
7.10811e-14
2.7197e-13
-4.85049e-15
3.3739e-13
-1.55486e-13
5.40049e-13
-2.89159e-13
5.73811e-13
-1.9725e-12
5.56674e-13
-1.16557e-11
4.95268e-13
-1.79948e-11
4.14903e-13
-1.71511e-11
3.32532e-13
-1.25099e-11
2.56078e-13
-7.66894e-12
1.89742e-13
-4.16596e-12
1.35275e-13
-2.07856e-12
9.25841e-14
-9.79218e-13
6.05199e-14
-4.46316e-13
3.7448e-14
-2.00969e-13
2.15437e-14
-9.02245e-14
1.11325e-14
-4.00159e-14
4.93552e-15
-1.72268e-14
1.56343e-15
-7.48762e-15
7.03373e-16
1.5792e-08
5.97764e-16
3.12406e-07
2.62256e-17
6.84456e-06
-3.91122e-13
-1.61038e-12
1.77051e-05
4.43704e-14
1.22595e-13
-6.2996e-15
2.1542e-13
-1.4189e-13
3.76268e-13
-2.77718e-13
4.11295e-13
-3.76167e-13
3.97354e-13
-4.31714e-13
3.54687e-13
-4.46851e-13
2.99228e-13
-4.29592e-13
2.41921e-13
-3.89937e-13
1.88761e-13
-3.38291e-13
1.42512e-13
-2.83143e-13
1.04085e-13
-2.30036e-13
7.33531e-14
-1.82006e-13
4.96875e-14
-1.4043e-13
3.21631e-14
-1.05576e-13
1.96617e-14
-7.7047e-14
1.11109e-14
-5.40422e-14
5.59131e-15
-3.61765e-14
2.48877e-15
-2.27371e-14
1.53204e-15
-1.04913e-14
1.04592e-15
-4.59995e-16
-1.67997e-15
1.42964e-14
-3.97341e-13
-1.6427e-12
7.3952e-14
-8.05596e-16
4.60037e-14
-1.96723e-14
8.8495e-14
-9.03556e-14
1.61381e-13
-1.65851e-13
1.87454e-13
-2.24937e-13
1.85642e-13
-2.61209e-13
1.68196e-13
-2.74949e-13
1.43536e-13
-2.69915e-13
1.17197e-13
-2.51452e-13
9.22992e-14
-2.24892e-13
7.0312e-14
-1.94625e-13
5.17736e-14
-1.63834e-13
3.66819e-14
-1.34706e-13
2.49199e-14
-1.08594e-13
1.61579e-14
-8.60119e-14
9.84915e-15
-6.69771e-14
5.57242e-15
-5.1217e-14
2.87499e-15
-3.81822e-14
1.50285e-15
-2.65221e-14
6.26892e-16
-1.37273e-14
-2.55809e-17
3.59536e-13
-1.08234e-16
3.29776e-11
-1.73474e-16
-3.01618e-12
3.53847e-11
-1.58639e-15
1.33218e-14
-1.00352e-14
2.55458e-14
-3.55286e-14
4.75993e-14
-6.41351e-14
5.82893e-14
-8.78636e-14
5.97473e-14
-1.03416e-13
5.53384e-14
-1.104e-13
4.7899e-14
-1.09992e-13
3.94232e-14
-1.04018e-13
3.1069e-14
-9.43217e-14
2.34145e-14
-8.2493e-14
1.67837e-14
-6.96991e-14
1.11583e-14
-5.70402e-14
6.79596e-15
-4.52958e-14
3.55635e-15
-3.46273e-14
1.04082e-15
-2.53514e-14
-4.25818e-16
-1.75069e-14
-1.89632e-15
-1.21434e-14
-1.53519e-15
-5.86857e-15
-2.80483e-15
5.42543e-16
-6.43669e-15
2.63412e-15
-3.58802e-15
1.3049e-14
-1.1995e-14
-1.06171e-13
1.9424e-10
-6.57292e-16
2.95842e-15
-2.85645e-15
5.20369e-15
-9.2079e-15
9.76296e-15
-1.67982e-14
1.28699e-14
-2.35066e-14
1.40412e-14
-2.81864e-14
1.35375e-14
-3.05212e-14
1.19618e-14
-3.07028e-14
9.85949e-15
-2.91128e-14
7.55956e-15
-2.61444e-14
5.26065e-15
-2.22329e-14
3.23599e-15
-1.75405e-14
1.34918e-15
-1.27345e-14
4.78437e-17
-8.00918e-15
-9.90631e-16
-2.84849e-15
-2.29063e-15
3.92649e-15
-4.19462e-15
7.98162e-15
-4.44357e-15
7.85372e-15
-3.27156e-15
2.3208e-14
-9.36881e-15
7.48541e-14
-4.35993e-14
8.82837e-14
-5.22011e-14
9.6386e-14
-3.71167e-14
-1.59778e-14
1.70533e-14
-1.57159e-16
6.09732e-16
-5.23283e-16
8.75169e-16
-1.60616e-15
1.56689e-15
-3.08609e-15
2.44001e-15
-4.56052e-15
3.01627e-15
-5.67901e-15
3.07994e-15
-6.27613e-15
2.74436e-15
-6.32606e-15
2.17212e-15
-5.83833e-15
1.45251e-15
-4.83864e-15
6.52883e-16
-3.52221e-15
2.82566e-17
-1.73297e-15
-4.73114e-16
-7.25302e-17
-1.16088e-15
2.84791e-15
-1.61926e-15
6.72178e-15
-2.17157e-15
1.05752e-14
-2.75683e-15
1.33597e-14
-3.03946e-15
1.20891e-14
-4.11666e-15
6.39463e-14
-4.93025e-15
1.95063e-13
-4.77639e-15
2.55763e-13
-1.75244e-15
1.4251e-13
-2.66175e-15
-1.86798e-15
1.21073e-14
-3.00218e-17
1.70027e-16
-7.5286e-17
2.10235e-16
-2.14892e-16
3.4839e-16
-4.82771e-16
6.39768e-16
-8.05414e-16
8.4771e-16
-1.0613e-15
8.533e-16
-1.18292e-15
7.10201e-16
-1.14528e-15
4.85302e-16
-9.21772e-16
2.08348e-16
-4.92914e-16
-1.25831e-16
-2.51778e-17
-3.61974e-16
8.01745e-16
-4.48478e-16
1.79855e-15
-3.95116e-16
2.33582e-15
-3.51108e-16
2.58532e-15
-3.83461e-16
3.81899e-15
-5.38094e-16
7.91145e-15
-8.65367e-16
9.24317e-15
-1.45728e-15
8.04419e-15
-1.48669e-15
6.53347e-15
-1.49676e-15
5.50183e-15
-1.5646e-15
5.51904e-15
-1.66043e-15
-1.87281e-15
6.38643e-15
-7.26097e-18
5.58641e-17
-1.51564e-17
7.1333e-17
-3.9572e-17
1.18791e-16
-1.04342e-16
2.13991e-16
-1.86302e-16
2.68269e-16
-2.41965e-16
2.46063e-16
-2.51981e-16
1.78057e-16
-2.10669e-16
9.22399e-17
-1.08829e-16
5.69339e-18
7.74274e-17
-1.054e-16
2.64566e-16
-1.474e-16
2.85456e-16
-1.3988e-16
2.0759e-16
-5.93288e-17
2.26369e-16
-5.32822e-17
3.22737e-16
-7.18894e-17
5.97628e-16
-1.40141e-16
1.1189e-15
-2.35774e-16
1.78189e-15
-3.06245e-16
2.00667e-15
-3.43628e-16
2.28398e-15
-3.80563e-16
2.96705e-15
-4.52782e-16
4.01905e-15
-5.92049e-16
-8.3147e-16
5.39037e-15
-2.00836e-18
1.57701e-17
-4.30153e-18
2.07679e-17
-1.12328e-17
3.48886e-17
-2.89717e-17
6.02447e-17
-4.88792e-17
7.02846e-17
-5.78219e-17
5.75654e-17
-5.23478e-17
3.41379e-17
-3.31744e-17
1.06013e-17
-2.46275e-18
-1.27855e-17
5.8125e-17
-1.70223e-17
8.92503e-17
-1.32708e-17
3.74506e-17
-8.89765e-18
2.54467e-17
-7.49523e-18
2.83609e-17
-8.07916e-18
5.54115e-17
-1.34961e-17
1.33236e-16
-2.8757e-17
2.24481e-16
-3.97139e-17
2.91703e-16
-3.92712e-17
3.56703e-16
-3.92843e-17
4.45459e-16
-4.47822e-17
6.28137e-16
-7.65588e-17
1.01318e-15
-1.71241e-16
-4.30671e-16
1.80303e-15
-4.74203e-19
3.68184e-18
-1.06091e-18
4.95586e-18
-2.7885e-18
8.29458e-18
-6.87025e-18
1.34539e-17
-1.07597e-17
1.44424e-17
-1.13475e-17
1.03705e-17
-8.41037e-18
4.53896e-18
-3.19244e-18
5.64516e-19
4.62664e-18
-1.13827e-18
3.48524e-18
-1.51584e-18
3.06456e-18
-1.44661e-18
2.58131e-18
-1.2384e-18
2.82827e-18
-9.92614e-19
3.82131e-18
-1.0388e-18
8.80596e-18
-1.57854e-18
1.96631e-17
-2.63845e-18
2.44193e-17
-2.82099e-18
2.65335e-17
-2.94005e-18
3.01715e-17
-4.11959e-18
4.79347e-17
-1.19654e-17
1.3048e-16
-4.76995e-17
3.88426e-16
-1.52237e-16
-4.96527e-16
1.14495e-15
-9.38952e-20
6.669e-19
-2.19651e-19
9.07084e-19
-5.73377e-19
1.49081e-18
-1.31938e-18
2.23126e-18
-1.8924e-18
2.18535e-18
-1.74379e-18
1.35097e-18
-9.5153e-19
3.52858e-19
-1.44383e-19
3.474e-20
3.49465e-19
-5.86834e-20
2.95766e-19
-1.46716e-19
3.36266e-19
-1.65235e-19
3.13891e-19
-1.38741e-19
3.10375e-19
-8.95697e-20
3.8687e-19
-8.80573e-20
7.70128e-19
-1.13931e-19
1.23098e-18
-1.44291e-19
1.42484e-18
-1.65886e-19
1.71962e-18
-2.68519e-19
3.75443e-18
-1.19602e-18
1.78498e-17
-7.7086e-18
8.74078e-17
-3.90442e-17
3.28159e-16
-1.52273e-16
-6.4299e-16
1.21355e-15
-1.48525e-20
8.31098e-20
-3.59557e-20
1.12785e-19
-9.16017e-20
1.7913e-19
-1.92821e-19
2.44509e-19
-2.50525e-19
2.17657e-19
-1.97655e-19
1.13754e-19
-6.40963e-20
1.23038e-20
-7.6745e-21
-5.34159e-21
1.60425e-20
-1.03125e-20
2.80065e-20
-1.54841e-20
3.3101e-20
-1.5818e-20
2.80836e-20
-1.20681e-20
2.29622e-20
-6.01459e-21
2.58951e-20
-5.42226e-21
4.20796e-20
-6.11907e-21
5.78437e-20
-7.46641e-21
7.72536e-20
-1.25114e-20
1.92443e-19
-6.53757e-20
1.39815e-18
-6.37011e-19
1.1204e-17
-5.33015e-18
6.48735e-17
-3.27595e-17
3.01806e-16
-1.70064e-16
-1.09769e-15
1.58625e-15
-1.67613e-21
5.31955e-21
-4.12382e-21
7.09803e-21
-1.00568e-20
1.07205e-20
-1.90919e-20
1.3354e-20
-2.23339e-20
1.08421e-20
-1.47862e-20
4.71062e-21
-1.9741e-21
8.12265e-22
1.12891e-21
-6.25618e-23
1.43026e-21
-6.80207e-22
2.33946e-21
-1.1057e-21
2.70644e-21
-1.10226e-21
1.91437e-21
-7.86816e-22
1.21157e-21
-3.25674e-22
1.35579e-21
-2.5923e-22
1.85122e-21
-3.04157e-22
2.7392e-21
-5.19038e-22
6.8858e-21
-2.63687e-21
5.90669e-20
-3.0256e-20
7.16729e-19
-3.69254e-19
6.86544e-18
-3.75388e-18
5.14832e-17
-3.222e-17
3.31476e-16
-2.56452e-16
-2.16629e-15
2.60934e-15
-1.00555e-22
1.46425e-26
-2.45742e-22
8.50604e-26
-5.63256e-22
2.01908e-25
-9.63559e-22
1.26084e-25
-1.01697e-21
-5.02223e-26
-5.54769e-22
-1.70667e-24
-1.17232e-22
-1.58298e-23
4.69566e-23
-1.61852e-23
1.01459e-22
-3.37242e-23
1.41234e-22
-5.28811e-23
1.63034e-22
-5.23311e-23
1.01589e-22
-3.48089e-23
5.12005e-23
-1.26202e-23
5.60509e-23
-9.32018e-24
8.41464e-23
-1.4251e-23
2.21096e-22
-9.37166e-23
1.9e-21
-1.26942e-21
2.72805e-20
-1.76477e-20
3.76372e-19
-2.38446e-19
4.40926e-18
-2.90557e-18
4.75487e-17
-3.49544e-17
4.99336e-16
-4.14108e-16
-3.69893e-15
4.13717e-15
-2.66297e-28
2.65027e-27
-2.8399e-27
1.55996e-26
-1.01046e-26
3.86431e-26
-8.55593e-27
2.68297e-26
1.8173e-26
-6.8204e-27
1.84893e-25
-1.2516e-25
2.08725e-24
-1.74135e-25
1.47427e-24
-5.32758e-25
4.09312e-24
-1.0889e-24
5.93683e-24
-1.41712e-24
6.71368e-24
-1.3e-24
3.69425e-24
-7.75426e-25
1.64022e-24
-2.91121e-25
1.77582e-24
-3.64312e-25
4.67975e-24
-2.87909e-24
5.57518e-23
-4.99149e-23
9.40807e-22
-8.08725e-22
1.47842e-20
-1.20712e-20
2.21602e-19
-1.71176e-19
3.08733e-18
-2.36129e-18
4.6384e-17
-3.84602e-17
6.55326e-16
-5.80494e-16
-5.25852e-15
5.48754e-15
-4.70991e-29
2.42518e-28
-5.07184e-28
1.44999e-27
-1.86168e-27
3.72137e-27
-1.73207e-27
2.51477e-27
1.96454e-27
-2.28384e-28
1.05661e-26
-5.64102e-27
2.76764e-26
-1.32355e-26
5.08645e-26
-2.50432e-26
1.12557e-25
-3.11146e-26
1.42185e-25
-2.49772e-26
1.37274e-25
-9.79512e-27
6.80562e-26
-3.62058e-27
4.32547e-26
-5.93116e-27
8.54699e-26
-6.68083e-26
1.36831e-24
-1.47361e-24
2.94871e-23
-2.92568e-23
5.42093e-22
-5.21193e-22
9.03659e-21
-8.39939e-21
1.41027e-19
-1.23812e-19
2.1959e-18
-1.84901e-18
4.43948e-17
-3.91422e-17
7.43721e-16
-7.04339e-16
-6.32039e-15
6.13745e-15
-4.23675e-30
5.03644e-47
-4.60151e-29
2.92442e-44
-1.73258e-28
2.90447e-44
-1.55303e-28
8.44553e-43
1.14139e-28
-1.4651e-31
4.30311e-28
-5.67933e-29
1.05556e-27
-5.23446e-28
2.02802e-27
-1.31909e-27
2.51744e-27
-1.73356e-27
1.89871e-27
-1.36596e-27
5.62855e-28
-4.51297e-28
4.28504e-28
-1.33955e-28
1.23804e-27
-1.08374e-27
2.48778e-26
-3.00532e-26
6.74877e-25
-7.1097e-25
1.49733e-23
-1.50887e-23
2.99454e-22
-2.95034e-22
5.37261e-21
-5.15694e-21
8.693e-20
-8.01722e-20
1.44905e-18
-1.27223e-18
3.68645e-17
-3.35466e-17
7.41336e-16
-7.48408e-16
-6.61687e-15
5.97143e-15
-8.63735e-49
3.08695e-47
-9.02751e-46
1.73524e-44
-1.30469e-45
1.80677e-44
-4.99033e-44
3.26261e-43
1.08e-32
-1.49425e-37
4.82001e-30
-3.90715e-33
4.42256e-29
-3.00246e-31
1.01106e-28
-1.52971e-30
1.27475e-28
-2.85026e-30
9.25539e-29
-3.3616e-30
2.07605e-29
-3.28737e-30
1.50249e-29
-1.27656e-29
3.086e-28
-4.0996e-28
1.05823e-26
-1.15765e-26
2.75053e-25
-2.85346e-25
6.50374e-24
-6.51752e-24
1.41305e-22
-1.36634e-22
2.72421e-21
-2.57353e-21
4.62863e-20
-4.22046e-20
8.12956e-19
-7.05708e-19
2.57961e-17
-2.5668e-17
6.75572e-16
-7.07943e-16
-6.0819e-15
5.28437e-15
-5.16375e-49
9.66818e-48
-5.17143e-46
5.30353e-45
-7.78486e-46
5.80041e-45
-1.83702e-44
3.46699e-44
1.04364e-38
-7.36943e-41
3.25845e-34
-7.1343e-37
2.66916e-32
-1.00562e-33
1.25003e-31
-1.67382e-32
2.14014e-31
-5.96332e-32
2.55316e-31
-1.00393e-31
2.86554e-31
-1.90288e-31
2.56643e-30
-3.62506e-30
1.11093e-28
-1.25683e-28
3.42705e-27
-3.69001e-27
9.37359e-26
-9.78211e-26
2.36268e-24
-2.3492e-24
5.4305e-23
-5.20757e-23
1.11418e-21
-1.03573e-21
1.96801e-20
-1.72306e-20
3.60961e-19
-2.96225e-19
1.61369e-17
-1.61451e-17
4.82572e-16
-5.51345e-16
-5.03858e-15
3.82689e-15
-1.56211e-49
-7.95449e-50
-1.51029e-46
-1.88707e-50
-2.37599e-46
3.31072e-52
-1.84656e-45
-2.12321e-47
4.86426e-42
-5.64327e-43
5.60267e-38
-1.244e-39
9.00448e-35
-7.65582e-36
1.51691e-33
-3.05408e-34
4.95608e-33
-1.26277e-33
9.05725e-33
-2.48617e-33
2.39583e-32
-2.60073e-32
7.60443e-31
-1.03984e-30
2.9051e-29
-3.45284e-29
9.42204e-28
-1.06959e-27
2.74509e-26
-2.94328e-26
7.18655e-25
-7.34854e-25
1.72773e-23
-1.69128e-23
3.68573e-22
-3.44308e-22
6.46173e-21
-5.40927e-21
1.20137e-19
-9.00477e-20
7.97434e-18
-7.83685e-18
3.00228e-16
-3.52748e-16
-3.75067e-15
2.69611e-15
1.22679e-51
-3.22715e-50
5.0517e-52
-6.18208e-51
-1.2752e-53
8.84946e-52
2.11587e-48
-2.54402e-49
3.7996e-44
-9.19521e-44
9.11357e-41
-1.12463e-41
6.4379e-37
-1.31914e-38
2.61375e-35
-1.36776e-36
1.00835e-34
-8.68514e-36
2.36585e-34
-1.36848e-34
4.10435e-33
-7.05064e-33
1.92454e-31
-2.59864e-31
6.97022e-30
-8.88894e-30
2.36016e-28
-2.80948e-28
7.04942e-27
-7.99974e-27
1.89769e-25
-2.03288e-25
4.67802e-24
-4.75424e-24
1.00405e-22
-9.60005e-23
1.62562e-21
-1.31998e-21
2.88129e-20
-1.95614e-20
3.00621e-18
-2.84207e-18
1.49878e-16
-1.83874e-16
-2.47126e-15
1.63518e-15
4.69724e-52
-2.06143e-51
9.02766e-53
-6.25275e-52
-3.16585e-53
3.78526e-52
1.26439e-50
-3.01581e-50
6.17393e-45
-2.00286e-44
8.47345e-43
-2.46143e-42
1.02508e-39
-1.45588e-40
1.11914e-37
-9.76335e-39
8.11501e-37
-5.76395e-37
1.69765e-35
-3.27618e-35
1.04209e-33
-1.48436e-33
4.14045e-32
-5.63338e-32
1.5486e-30
-2.02671e-30
5.28848e-29
-6.54078e-29
1.61741e-27
-1.89146e-27
4.37085e-26
-4.75692e-26
1.08037e-24
-1.10696e-24
2.25953e-23
-2.17463e-23
3.15133e-22
-2.56564e-22
4.93721e-21
-3.33187e-21
8.35099e-19
-7.52281e-19
6.07052e-17
-8.18068e-17
-1.45044e-15
8.47054e-16
1.43975e-53
-5.3809e-53
7.92148e-54
-3.06509e-53
-1.24126e-53
-8.06763e-53
1.52496e-51
-7.56229e-51
1.18845e-45
-1.97344e-45
1.73158e-43
-2.79836e-43
1.1164e-41
-2.67922e-41
8.53975e-40
-1.91074e-39
5.77389e-38
-1.16377e-37
3.81382e-36
-5.48409e-36
1.84427e-34
-2.41317e-34
7.66699e-33
-1.01782e-32
2.9816e-31
-3.73616e-31
1.02918e-29
-1.22796e-29
3.15332e-28
-3.55621e-28
8.3045e-27
-8.53892e-27
2.01201e-25
-1.91029e-25
4.02484e-24
-3.62672e-24
4.81256e-23
-4.1783e-23
6.71804e-22
-6.20286e-22
1.65903e-19
-1.42217e-19
2.04569e-17
-3.10801e-17
-7.55525e-16
3.72995e-16
3.51257e-55
-2.43647e-54
3.2752e-55
1.48945e-55
4.28726e-54
6.73339e-53
3.15715e-52
2.9214e-52
9.9442e-47
-1.69015e-46
1.67832e-44
-2.93178e-44
1.90673e-42
-2.65734e-42
1.54243e-40
-1.98718e-40
1.04338e-38
-1.24626e-38
5.31559e-37
-6.90204e-37
2.55315e-35
-3.36338e-35
1.16253e-33
-1.37743e-33
4.54151e-32
-5.05708e-32
1.57536e-30
-1.66335e-30
4.76215e-29
-4.78373e-29
1.17714e-27
-1.05756e-27
2.69343e-26
-2.1424e-26
5.14894e-25
-4.02535e-25
6.13641e-24
-6.31895e-24
9.98933e-23
-1.38558e-22
2.2703e-20
-1.87446e-20
5.56944e-18
-1.00362e-17
-3.47036e-16
1.35203e-16
1.52983e-56
-9.55549e-56
-2.80174e-57
5.96059e-55
-1.77499e-54
8.00611e-53
-9.88499e-54
6.21737e-52
7.48132e-48
-1.17414e-47
1.53837e-45
-2.28613e-45
1.59292e-43
-2.25495e-43
1.34272e-41
-1.79151e-41
9.33221e-40
-1.18513e-39
5.67649e-38
-6.50665e-38
2.98774e-36
-3.14761e-36
1.29584e-34
-1.28511e-34
4.99314e-33
-4.6025e-33
1.70393e-31
-1.4482e-31
5.0264e-30
-4.1641e-30
1.1237e-28
-8.74727e-29
2.28962e-27
-1.66004e-27
4.33272e-26
-3.61845e-26
7.08208e-25
-8.93417e-25
1.62422e-23
-2.2156e-23
2.03937e-21
-1.89602e-21
1.17151e-18
-2.73649e-18
-1.35636e-16
3.78085e-17
5.56788e-58
-2.06595e-57
-9.87808e-57
5.05613e-55
-1.84037e-54
7.16695e-53
-1.83393e-53
7.87166e-52
4.47331e-49
-6.26937e-49
1.0257e-46
-1.24446e-46
1.16195e-44
-1.31297e-44
1.03697e-42
-1.09434e-42
7.55773e-41
-7.49383e-41
4.4808e-39
-4.14532e-39
2.30489e-37
-1.99932e-37
9.85667e-36
-7.847e-36
3.64545e-34
-2.73351e-34
1.16642e-32
-7.78594e-33
3.37081e-31
-2.31718e-31
7.0483e-30
-6.01973e-30
1.33913e-28
-1.69842e-28
2.88282e-27
-4.05864e-27
6.89054e-26
-8.14964e-26
1.62541e-24
-2.21317e-24
1.26669e-22
-2.49632e-22
1.6953e-19
-6.41098e-19
-4.24872e-17
6.37463e-18
1.11559e-59
-1.70816e-59
-7.16569e-57
2.81086e-55
-1.39851e-54
4.37091e-53
-1.97884e-53
5.96378e-52
2.01221e-50
-1.85783e-50
4.71856e-48
-4.73217e-48
5.71211e-46
-5.3075e-46
5.32949e-44
-4.59407e-44
3.99614e-42
-3.28069e-42
2.37206e-40
-1.87118e-40
1.20374e-38
-9.04608e-39
4.88061e-37
-3.6831e-37
1.72962e-35
-1.5027e-35
4.91634e-34
-4.64997e-34
1.43951e-32
-1.5328e-32
3.62345e-31
-4.31473e-31
9.68892e-30
-1.06605e-29
2.09747e-28
-2.31106e-28
3.62601e-27
-3.67243e-27
8.13821e-26
-4.74389e-26
7.19215e-24
-3.10188e-23
9.0064e-21
-1.372e-19
-1.01553e-17
-4.84762e-19
6.56508e-62
4.1488e-60
-3.23686e-57
7.989e-56
-6.97065e-55
1.35906e-53
-1.24135e-53
2.35747e-52
5.07308e-52
-3.93515e-52
1.49805e-49
-1.29164e-49
1.93188e-47
-1.50505e-47
1.87088e-45
-1.39328e-45
1.45623e-43
-1.00712e-43
8.84746e-42
-6.0637e-42
4.45965e-40
-3.43103e-40
1.85112e-38
-1.44796e-38
7.51445e-37
-5.83876e-37
2.25584e-35
-2.03662e-35
6.99162e-34
-7.01497e-34
1.77422e-32
-2.19366e-32
3.70414e-31
-5.05521e-31
6.18193e-30
-7.47741e-30
6.40933e-29
-3.17799e-29
4.29406e-28
-2.40816e-26
-7.49882e-24
-2.2147e-23
-1.91533e-20
-2.29952e-20
-1.85356e-18
-1.00801e-18
-3.47939e-62
-1.02618e-61
-6.85684e-58
1.43204e-59
-1.67842e-55
9.60304e-58
-3.91451e-54
1.6824e-56
1.3426e-53
-9.89113e-54
3.35254e-51
-2.33396e-51
4.52051e-49
-2.85744e-49
4.68869e-47
-2.73596e-47
3.6878e-45
-2.36823e-45
2.35194e-43
-1.58446e-43
1.36788e-41
-8.14848e-42
5.77132e-40
-4.37985e-40
2.24284e-38
-1.84755e-38
7.25131e-37
-6.91859e-37
2.18195e-35
-2.36446e-35
5.44215e-34
-6.96937e-34
8.3882e-33
-1.2547e-32
4.9764e-32
-5.63494e-32
-2.26938e-31
-1.65691e-29
-4.49581e-27
-1.54332e-26
-1.30333e-23
-6.55766e-24
-7.33554e-21
-2.74992e-21
-2.67314e-19
-3.32579e-19
6.98029e-64
2.01064e-62
-7.83948e-62
9.81938e-60
-8.4907e-60
6.71185e-58
-2.12037e-58
1.46072e-56
1.6746e-55
-8.25077e-56
4.84333e-53
-2.2977e-53
6.94961e-51
-3.10008e-51
7.50265e-49
-3.85644e-49
7.05811e-47
-3.10078e-47
4.954e-45
-2.14277e-45
2.58589e-43
-1.47956e-43
1.35918e-41
-8.14802e-42
5.32063e-40
-3.80069e-40
1.73118e-38
-1.60167e-38
4.59615e-37
-5.97874e-37
8.256e-36
-1.49618e-35
2.96215e-35
-7.18552e-35
-5.05488e-34
-1.08569e-32
-2.80035e-30
-7.25125e-30
-1.0924e-26
-3.10287e-27
-5.31267e-24
-8.69687e-25
-1.34523e-21
-2.43843e-22
-3.05877e-20
-7.05996e-20
-9.23285e-65
9.48056e-63
-2.42973e-62
3.81008e-60
-3.68812e-60
2.35157e-58
-1.29252e-58
6.44314e-57
1.22101e-57
-1.47148e-58
3.7004e-55
-8.38622e-56
5.96718e-53
-1.24876e-53
8.43167e-51
-1.37952e-51
7.36049e-49
-1.52744e-49
5.31698e-47
-1.30738e-47
3.68169e-45
-1.0996e-45
1.92568e-43
-7.32557e-44
7.97913e-42
-4.25331e-42
2.6777e-40
-2.20534e-40
6.28801e-39
-8.92073e-39
3.24854e-38
-1.21888e-37
-3.76773e-37
-3.35178e-36
-1.05873e-33
-1.63302e-33
-5.1887e-30
-8.54277e-31
-2.57317e-27
-2.89801e-28
-7.6007e-25
-6.86376e-26
-1.66388e-22
-1.47416e-23
-2.39827e-21
-9.96002e-21
-2.10368e-66
3.88153e-70
7.37994e-62
7.59042e-69
-4.46823e-61
1.17082e-67
-3.45325e-59
1.27234e-66
5.05834e-59
-1.19016e-61
1.00678e-57
-3.80612e-59
1.8418e-55
-7.63126e-57
2.3437e-53
-1.21561e-54
2.83677e-51
-1.63676e-52
2.5276e-49
-1.9907e-50
2.10106e-47
-2.51488e-48
1.29636e-45
-2.43781e-46
6.34761e-44
-2.02512e-44
2.3211e-42
-1.42404e-42
3.72773e-41
-6.84606e-41
-6.00533e-40
-5.89985e-40
-5.31918e-38
-1.82055e-37
-9.52732e-34
-1.29496e-34
-6.7557e-31
-6.18508e-32
-2.47819e-28
-1.95897e-29
-6.0966e-26
-4.42146e-27
-1.23319e-23
-1.17822e-24
-9.25273e-23
-8.92694e-22
3.84089e-71
3.72621e-70
5.13407e-70
7.73816e-69
1.78652e-69
1.66727e-67
-2.97587e-69
2.3135e-66
6.64605e-64
9.88072e-73
3.20603e-61
-2.52667e-63
8.28437e-59
-7.22155e-61
1.55388e-56
-1.51512e-58