/*--------------------------------*- C++ -*----------------------------------*\
  =========                 |
  \\      /  F ield         | OpenFOAM: The Open Source CFD Toolbox
   \\    /   O peration     | Website:  https://openfoam.org
    \\  /    A nd           | Version:  7
     \\/     M anipulation  |
\*---------------------------------------------------------------------------*/
FoamFile
{
    version     2.0;
    format      ascii;
    class       surfaceScalarField;
    location    "0.4";
    object      phi;
}
// * * * * * * * * * * * * * * * * * * * * * * * * * * * * * * * * * * * * * //

dimensions      [0 3 -1 0 0 0 0];

internalField   nonuniform List<scalar> 
4432
(
-5.43975e-06
5.43975e-06
-6.42957e-06
9.8982e-07
-3.84231e-06
-2.58726e-06
1.57155e-07
-3.99946e-06
4.58739e-06
-4.43024e-06
9.08081e-06
-4.49341e-06
1.34491e-05
-4.36833e-06
1.76282e-05
-4.17908e-06
2.15938e-05
-3.96563e-06
2.53247e-05
-3.73087e-06
2.87857e-05
-3.46102e-06
3.19161e-05
-3.13032e-06
3.46158e-05
-2.69973e-06
3.67195e-05
-2.10375e-06
3.79608e-05
-1.24126e-06
3.77875e-05
1.73283e-07
3.53724e-05
2.4151e-06
3.00959e-05
5.27651e-06
2.14528e-05
8.64312e-06
9.71282e-06
1.174e-05
-3.93909e-06
1.36519e-05
-1.19992e-05
8.06011e-06
-1.19992e-05
-3.54534e-06
8.98509e-06
-2.6032e-06
4.76873e-08
2.61582e-07
-5.45205e-06
4.05639e-06
-7.79427e-06
8.27947e-06
-8.65332e-06
1.25566e-05
-8.7705e-06
1.67398e-05
-8.55153e-06
2.07595e-05
-8.1988e-06
2.458e-05
-7.78616e-06
2.81714e-05
-7.32223e-06
3.14926e-05
-6.78229e-06
3.44806e-05
-6.11826e-06
3.70379e-05
-5.25708e-06
3.9022e-05
-4.08783e-06
4.02353e-05
-2.45451e-06
4.04785e-05
-6.9913e-08
3.94816e-05
3.41196e-06
3.65114e-05
8.24669e-06
3.06882e-05
1.44664e-05
2.1308e-05
2.11201e-05
9.20391e-06
2.5756e-05
-2.80105e-07
1.75441e-05
-1.22793e-05
-1.44276e-06
1.04278e-05
2.22669e-07
-1.61774e-06
3.14271e-06
-8.37209e-06
6.85112e-06
-1.15027e-05
1.08534e-05
-1.26556e-05
1.48933e-05
-1.28104e-05
1.88476e-05
-1.25058e-05
2.26548e-05
-1.20061e-05
2.62784e-05
-1.14097e-05
2.96848e-05
-1.07287e-05
3.28306e-05
-9.92803e-06
3.56528e-05
-8.94047e-06
3.80601e-05
-7.66436e-06
3.99246e-05
-5.95232e-06
4.10715e-05
-3.60148e-06
4.13241e-05
-3.225e-07
4.04777e-05
4.25842e-06
3.82132e-05
1.05111e-05
3.40838e-05
1.85958e-05
2.75365e-05
2.76674e-05
1.84661e-05
3.48264e-05
8.0275e-06
2.79827e-05
-4.25181e-06
3.86393e-07
1.00415e-05
2.45713e-06
-3.68848e-06
5.58295e-06
-1.14979e-05
9.22503e-06
-1.51448e-05
1.3043e-05
-1.64736e-05
1.68566e-05
-1.66239e-05
2.058e-05
-1.62293e-05
2.41681e-05
-1.55941e-05
2.7588e-05
-1.48297e-05
3.08058e-05
-1.39464e-05
3.37772e-05
-1.28995e-05
3.64415e-05
-1.16047e-05
3.87142e-05
-9.93706e-06
4.04818e-05
-7.71999e-06
4.15997e-05
-4.71929e-06
4.19139e-05
-6.36739e-07
4.12741e-05
4.89819e-06
3.95162e-05
1.22691e-05
3.64314e-05
2.16806e-05
3.16449e-05
3.24539e-05
2.45924e-05
4.1879e-05
1.42438e-05
3.83313e-05
9.99203e-06
1.76823e-06
8.27322e-06
4.36127e-06
-6.28152e-06
7.70992e-06
-1.48466e-05
1.13366e-05
-1.87714e-05
1.49993e-05
-2.01363e-05
1.8598e-05
-2.02226e-05
2.20936e-05
-1.97249e-05
2.54623e-05
-1.89627e-05
2.86784e-05
-1.80458e-05
3.17092e-05
-1.69773e-05
3.45114e-05
-1.57017e-05
3.70273e-05
-1.41206e-05
3.9181e-05
-1.20907e-05
4.0874e-05
-9.41305e-06
4.19874e-05
-5.83267e-06
4.23981e-05
-1.04747e-06
4.20037e-05
5.29263e-06
4.07219e-05
1.35509e-05
3.84581e-05
2.39444e-05
3.49179e-05
3.5994e-05
2.92999e-05
4.7497e-05
1.91431e-05
4.84881e-05
2.91351e-05
2.66993e-06
5.6033e-06
5.95639e-06
-9.56798e-06
9.59737e-06
-1.84875e-05
1.32419e-05
-2.2416e-05
1.67627e-05
-2.36571e-05
2.01512e-05
-2.36111e-05
2.34215e-05
-2.29953e-05
2.65733e-05
-2.21146e-05
2.9589e-05
-2.10614e-05
3.24375e-05
-1.98258e-05
3.50772e-05
-1.83413e-05
3.74547e-05
-1.64981e-05
3.95034e-05
-1.41394e-05
4.11403e-05
-1.105e-05
4.22695e-05
-6.96184e-06
4.27989e-05
-1.57691e-06
4.26687e-05
5.42287e-06
4.18561e-05
1.43635e-05
4.03418e-05
2.54587e-05
3.78861e-05
3.84498e-05
3.35673e-05
5.18159e-05
2.38595e-05
5.81958e-05
5.29946e-05
3.33833e-06
2.26496e-06
7.34435e-06
-1.3574e-05
1.13156e-05
-2.24588e-05
1.49814e-05
-2.60818e-05
1.83514e-05
-2.70271e-05
2.15243e-05
-2.67839e-05
2.45699e-05
-2.60409e-05
2.75092e-05
-2.50539e-05
3.03301e-05
-2.38823e-05
3.3003e-05
-2.24987e-05
3.54877e-05
-2.0826e-05
3.77362e-05
-1.87467e-05
3.9692e-05
-1.60952e-05
4.12876e-05
-1.26456e-05
4.24481e-05
-8.12232e-06
4.31103e-05
-2.23917e-06
4.32537e-05
5.27945e-06
4.29104e-05
1.47068e-05
4.21384e-05
2.62308e-05
4.07969e-05
3.97913e-05
3.80554e-05
5.45574e-05
2.9328e-05
6.69232e-05
8.23226e-05
3.92191e-06
-1.65695e-06
8.65389e-06
-1.8306e-05
1.29459e-05
-2.67507e-05
1.65895e-05
-2.97254e-05
1.97736e-05
-3.02112e-05
2.27167e-05
-2.97271e-05
2.55385e-05
-2.88626e-05
2.82725e-05
-2.77879e-05
3.09074e-05
-2.65173e-05
3.34133e-05
-2.50045e-05
3.57516e-05
-2.31643e-05
3.78799e-05
-2.0875e-05
3.97526e-05
-1.79679e-05
4.13178e-05
-1.42107e-05
4.25199e-05
-9.32445e-06
4.33217e-05
-3.04097e-06
4.37392e-05
4.86194e-06
4.38589e-05
1.45872e-05
4.38355e-05
2.62541e-05
4.3721e-05
3.99058e-05
4.30207e-05
5.52577e-05
3.63564e-05
7.35874e-05
0.000118679
-1.91516e-06
1.91516e-06
-1.36003e-05
1.16852e-05
-2.5323e-05
1.17227e-05
-3.07552e-05
5.43222e-06
-2.97467e-05
-1.00855e-06
-2.48528e-05
-4.89389e-06
-1.6987e-05
-7.86582e-06
-6.36252e-06
-1.06244e-05
5.73914e-06
-1.21017e-05
1.78032e-05
-1.20641e-05
2.85396e-05
-1.07365e-05
3.68439e-05
-8.30418e-06
4.16707e-05
-4.8268e-06
4.20338e-05
-3.6313e-07
3.75612e-05
4.47262e-06
2.93268e-05
8.23434e-06
1.87622e-05
1.05646e-05
8.01908e-06
1.07431e-05
8.01904e-06
-6.38484e-06
8.30001e-06
-1.79115e-05
2.32119e-05
-2.77918e-05
2.16029e-05
-3.07126e-05
8.35308e-06
-2.85482e-05
-3.17294e-06
-2.35146e-05
-9.92728e-06
-1.5924e-05
-1.54564e-05
-5.66788e-06
-2.08805e-05
6.07258e-06
-2.38421e-05
1.77876e-05
-2.37791e-05
2.82934e-05
-2.12423e-05
3.65608e-05
-1.65715e-05
4.16963e-05
-9.9623e-06
4.31761e-05
-1.84291e-06
4.06003e-05
7.04843e-06
3.35212e-05
1.53134e-05
2.27568e-05
2.13288e-05
1.06917e-05
2.28082e-05
1.87107e-05
-8.65041e-06
1.69504e-05
-1.78986e-05
3.24601e-05
-2.65729e-05
3.02772e-05
-2.88421e-05
1.06224e-05
-2.61029e-05
-5.91211e-06
-2.10502e-05
-1.49799e-05
-1.39656e-05
-2.2541e-05
-4.18697e-06
-3.06591e-05
7.21015e-06
-3.52392e-05
1.85885e-05
-3.51575e-05
2.88115e-05
-3.14652e-05
3.69191e-05
-2.46791e-05
4.20414e-05
-1.50846e-05
4.35344e-05
-3.3359e-06
4.09563e-05
9.62653e-06
3.41201e-05
2.21496e-05
2.37374e-05
3.17114e-05
1.16297e-05
3.49159e-05
3.03405e-05
-8.9264e-06
2.58768e-05
-1.60654e-05
3.95992e-05
-2.43179e-05
3.85296e-05
-2.57565e-05
1.20609e-05
-2.19649e-05
-9.70366e-06
-1.68326e-05
-2.01122e-05
-1.05425e-05
-2.88312e-05
-1.4708e-06
-3.97308e-05
9.46039e-06
-4.61704e-05
2.04472e-05
-4.61443e-05
3.03528e-05
-4.13709e-05
3.82729e-05
-3.25991e-05
4.33244e-05
-2.01362e-05
4.48131e-05
-4.82458e-06
4.22527e-05
1.21869e-05
3.54509e-05
2.89514e-05
2.50033e-05
4.21591e-05
1.249e-05
4.74291e-05
4.28305e-05
-7.4752e-06
3.3352e-05
-1.21818e-05
4.43058e-05
-1.99642e-05
4.63121e-05
-1.98061e-05
1.19028e-05
-1.43393e-05
-1.51705e-05
-9.08971e-06
-2.53617e-05
-4.07169e-06
-3.38492e-05
3.58673e-06
-4.73892e-05
1.36204e-05
-5.62041e-05
2.38704e-05
-5.63942e-05
3.32161e-05
-5.07166e-05
4.08061e-05
-4.01891e-05
4.56852e-05
-2.50152e-05
4.70796e-05
-6.21904e-06
4.44514e-05
1.48151e-05
3.75243e-05
3.58784e-05
2.67193e-05
5.2964e-05
1.34772e-05
6.06713e-05
5.63077e-05
-4.21593e-06
3.75679e-05
-5.4056e-06
4.54954e-05
-1.08909e-05
5.17974e-05
-7.60224e-06
8.61415e-06
-6.69448e-07
-2.21033e-05
4.26107e-06
-3.02922e-05
7.49758e-06
-3.70857e-05
1.27046e-05
-5.25963e-05
2.0845e-05
-6.43445e-05
2.95812e-05
-6.51304e-05
3.78351e-05
-5.89705e-05
4.47663e-05
-4.71204e-05
4.92808e-05
-2.95298e-05
5.04403e-05
-7.3785e-06
4.75926e-05
1.76628e-05
4.03355e-05
4.31356e-05
2.89132e-05
6.43863e-05
1.46542e-05
7.49303e-05
7.09619e-05
2.90398e-06
3.46639e-05
1.05433e-05
3.7856e-05
8.76909e-06
5.35716e-05
1.69187e-05
4.64553e-07
2.33449e-05
-2.85295e-05
2.52946e-05
-3.2242e-05
2.56411e-05
-3.74322e-05
2.75052e-05
-5.44604e-05
3.23683e-05
-6.92076e-05
3.83433e-05
-7.11054e-05
4.46729e-05
-6.53001e-05
5.04214e-05
-5.28688e-05
5.42752e-05
-3.33836e-05
5.50235e-05
-8.12676e-06
5.17917e-05
2.08946e-05
4.39808e-05
5.09465e-05
3.16722e-05
7.66949e-05
1.61099e-05
9.04927e-05
8.70718e-05
3.23114e-05
2.35257e-06
3.95864e-05
3.05809e-05
5.02155e-05
4.29426e-05
6.36538e-05
-1.29738e-05
6.09301e-05
-2.58059e-05
5.36862e-05
-2.49981e-05
4.96187e-05
-3.33647e-05
4.83791e-05
-5.32209e-05
4.89048e-05
-6.97333e-05
5.05079e-05
-7.27085e-05
5.39257e-05
-6.87179e-05
5.79348e-05
-5.68779e-05
6.07796e-05
-3.62284e-05
6.09364e-05
-8.28358e-06
5.71836e-05
2.46474e-05
4.86091e-05
5.9521e-05
3.51316e-05
9.01724e-05
1.79372e-05
0.000107687
0.000105009
1.0498e-05
-1.21549e-05
2.31468e-05
-3.09548e-05
3.2912e-05
-3.6516e-05
4.01492e-05
-3.69625e-05
4.61113e-05
-3.61733e-05
5.15776e-05
-3.51934e-05
5.68741e-05
-3.41591e-05
6.20631e-05
-3.29769e-05
6.71031e-05
-3.15573e-05
7.19235e-05
-2.98249e-05
7.64479e-05
-2.76887e-05
8.06071e-05
-2.50342e-05
8.43435e-05
-2.17043e-05
8.75999e-05
-1.74672e-05
9.03164e-05
-1.20409e-05
9.2482e-05
-5.20659e-06
9.42522e-05
3.09174e-06
9.59462e-05
1.28932e-05
9.82682e-05
2.3932e-05
0.000102158
3.60163e-05
0.000108876
4.85393e-05
0.000122115
6.03485e-05
7.73034e-05
0.000163491
1.53268e-05
-2.74817e-05
3.14092e-05
-4.70371e-05
3.99306e-05
-4.50374e-05
4.5234e-05
-4.22659e-05
4.96955e-05
-4.06348e-05
5.4122e-05
-3.96199e-05
5.86402e-05
-3.86774e-05
6.31691e-05
-3.75058e-05
6.76051e-05
-3.59934e-05
7.18622e-05
-3.4082e-05
7.58703e-05
-3.16968e-05
7.95885e-05
-2.87525e-05
8.30193e-05
-2.5135e-05
8.61852e-05
-2.06331e-05
8.90966e-05
-1.49522e-05
9.17722e-05
-7.88217e-06
9.45498e-05
3.1408e-07
9.76039e-05
9.83906e-06
0.000101838
1.96981e-05
0.000108202
2.96526e-05
0.000118188
3.85527e-05
0.00013373
4.48063e-05
5.011e-05
0.000160924
2.55277e-05
-5.30095e-05
4.16256e-05
-6.3135e-05
4.45074e-05
-4.79192e-05
4.71793e-05
-4.49378e-05
5.06526e-05
-4.41081e-05
5.46385e-05
-4.36058e-05
5.8801e-05
-4.28399e-05
6.29418e-05
-4.16465e-05
6.69506e-05
-4.00022e-05
7.07562e-05
-3.78876e-05
7.43039e-05
-3.52444e-05
7.75759e-05
-3.20245e-05
8.06265e-05
-2.81856e-05
8.35726e-05
-2.35792e-05
8.65448e-05
-1.79245e-05
8.97093e-05
-1.10467e-05
9.31068e-05
-3.08335e-06
9.72996e-05
5.64625e-06
0.000102699
1.42984e-05
0.00010961
2.27423e-05
0.000118699
2.94634e-05
0.000131185
3.23205e-05
3.19658e-05
0.000149329
4.39625e-05
-9.69719e-05
4.75097e-05
-6.66823e-05
4.19451e-05
-4.23546e-05
4.44368e-05
-4.74295e-05
4.89451e-05
-4.86164e-05
5.3378e-05
-4.80387e-05
5.75265e-05
-4.69885e-05
6.14193e-05
-4.55393e-05
6.50574e-05
-4.36403e-05
6.84175e-05
-4.12477e-05
7.14676e-05
-3.82945e-05
7.42101e-05
-3.4767e-05
7.67481e-05
-3.07236e-05
7.93174e-05
-2.61485e-05
8.22482e-05
-2.08554e-05
8.59594e-05
-1.47578e-05
9.08228e-05
-7.94672e-06
9.62964e-05
1.72649e-07
0.000103008
7.58699e-06
0.000110688
1.50617e-05
0.000119839
2.03131e-05
0.0001315
2.06595e-05
1.81857e-05
0.00014528
2.75504e-05
-0.000124522
2.85803e-05
-6.77122e-05
3.68464e-05
-5.06206e-05
4.28007e-05
-5.33838e-05
4.83448e-05
-5.41606e-05
5.31158e-05
-5.28097e-05
5.7121e-05
-5.09937e-05
6.06057e-05
-4.9024e-05
6.37194e-05
-4.6754e-05
6.64873e-05
-4.40156e-05
6.89102e-05
-4.07174e-05
7.09868e-05
-3.68437e-05
7.27229e-05
-3.24597e-05
7.42567e-05
-2.76823e-05
7.60513e-05
-2.265e-05
7.90094e-05
-1.77159e-05
8.42512e-05
-1.31885e-05
9.22037e-05
-7.77984e-06
0.000101769
-1.97868e-06
0.000113423
3.40789e-06
0.000125771
7.96515e-06
0.000136946
9.48513e-06
7.37677e-06
0.000147755
-1.52198e-05
-0.000109303
8.27129e-07
-8.37592e-05
1.96195e-05
-6.9413e-05
3.28282e-05
-6.65925e-05
4.36991e-05
-6.50316e-05
5.33672e-05
-6.24778e-05
6.19264e-05
-5.95529e-05
6.94672e-05
-5.65647e-05
7.61395e-05
-5.34263e-05
8.20852e-05
-4.99613e-05
8.73955e-05
-4.60277e-05
9.20959e-05
-4.15441e-05
9.61328e-05
-3.64965e-05
9.93711e-05
-3.09207e-05
0.000101576
-2.48548e-05
0.00010227
-1.84101e-05
0.000101208
-1.21259e-05
9.93967e-05
-5.96901e-06
0.000101659
-4.24081e-06
0.000113114
-8.0474e-06
0.00013002
-8.94027e-06
0.000142476
-2.97106e-06
-3.03047e-06
0.000152883
-1.07938e-05
-9.85088e-05
1.59963e-06
-9.61526e-05
1.82244e-05
-8.60378e-05
3.21411e-05
-8.05092e-05
4.38226e-05
-7.6713e-05
5.43692e-05
-7.30244e-05
6.41168e-05
-6.93006e-05
7.31348e-05
-6.55827e-05
8.14925e-05
-6.1784e-05
8.92889e-05
-5.77578e-05
9.66264e-05
-5.33652e-05
0.000103585
-4.85029e-05
0.000110204
-4.31154e-05
0.000116476
-3.71926e-05
0.000122377
-3.07558e-05
0.00012786
-2.38931e-05
0.00013258
-1.68458e-05
0.000137352
-1.07407e-05
0.000143084
-9.97326e-06
0.000148961
-1.3924e-05
0.000154029
-1.40086e-05
0.000155281
-4.22358e-06
-8.9712e-06
0.000161222
6.92642e-07
-9.92014e-05
8.80655e-06
-0.000104267
2.06345e-05
-9.78658e-05
3.23883e-05
-9.2263e-05
4.33291e-05
-8.76539e-05
5.36951e-05
-8.33904e-05
6.36348e-05
-7.92403e-05
7.31852e-05
-7.51331e-05
8.23808e-05
-7.09796e-05
9.12869e-05
-6.66639e-05
9.99939e-05
-6.20722e-05
0.000108604
-5.71132e-05
0.00011722
-5.17317e-05
0.000125946
-4.59184e-05
0.000134909
-3.9719e-05
0.000144289
-3.3273e-05
0.000154388
-2.69446e-05
0.00016559
-2.19423e-05
0.000175891
-2.02748e-05
0.000182795
-2.08275e-05
0.000187998
-1.92121e-05
0.00019897
-1.5195e-05
-1.9452e-05
0.00020945
3.4271e-06
-0.000102629
1.18097e-05
-0.000112649
2.1505e-05
-0.000107561
3.14985e-05
-0.000102256
4.14038e-05
-9.75592e-05
5.11955e-05
-9.31822e-05
6.08924e-05
-8.89372e-05
7.04948e-05
-8.47356e-05
8.00161e-05
-8.05008e-05
8.95003e-05
-7.61482e-05
9.90236e-05
-7.15955e-05
0.000108688
-6.67775e-05
0.000118615
-6.16592e-05
0.000128947
-5.62504e-05
0.000139852
-5.06236e-05
0.000151533
-4.49541e-05
0.000164201
-3.96127e-05
0.000177631
-3.53725e-05
0.000190416
-3.30596e-05
0.000201635
-3.2046e-05
0.000213053
-3.06304e-05
0.000227386
-2.95285e-05
-3.25523e-05
0.000240487
5.07061e-06
-0.000107699
1.25792e-05
-0.000120158
2.07675e-05
-0.000115749
2.94114e-05
-0.0001109
3.83161e-05
-0.000106464
4.73965e-05
-0.000102263
5.66179e-05
-9.81586e-05
6.59616e-05
-9.40793e-05
7.54307e-05
-8.99699e-05
8.50579e-05
-8.57754e-05
9.4907e-05
-8.14446e-05
0.00010507
-7.69404e-05
0.000115661
-7.22508e-05
0.000126815
-6.74035e-05
0.000138673
-6.24824e-05
0.000151374
-5.76547e-05
0.000164972
-5.3211e-05
0.000179196
-4.95968e-05
0.000193324
-4.71871e-05
0.000207004
-4.57264e-05
0.000220986
-4.46121e-05
0.000235694
-4.42361e-05
-4.57623e-05
0.000248904
5.7176e-06
-0.000113417
1.20656e-05
-0.000126506
1.90112e-05
-0.000122695
2.65509e-05
-0.00011844
3.45314e-05
-0.000114444
4.28528e-05
-0.000110584
5.14637e-05
-0.00010677
6.03399e-05
-0.000102956
6.94814e-05
-9.91114e-05
7.89147e-05
-9.52086e-05
8.86932e-05
-9.12232e-05
9.8895e-05
-8.71421e-05
0.000109617
-8.29728e-05
0.000120967
-7.87533e-05
0.000133049
-7.45648e-05
0.00014594
-7.05452e-05
0.000159629
-6.69005e-05
0.000173924
-6.38916e-05
0.00018845
-6.17132e-05
0.000203007
-6.02835e-05
0.000217782
-5.9387e-05
0.000232703
-5.91576e-05
-5.98951e-05
0.000246836
5.57834e-06
-0.000118995
1.08714e-05
-0.000131799
1.68093e-05
-0.000128633
2.34112e-05
-0.000125042
3.05346e-05
-0.000121568
3.80832e-05
-0.000118133
4.60062e-05
-0.000114693
5.42812e-05
-0.000111231
6.29084e-05
-0.000107739
7.19106e-05
-0.000104211
8.13325e-05
-0.000100645
9.12378e-05
-9.70474e-05
0.000101704
-9.34388e-05
0.000112813
-8.9862e-05
0.000124636
-8.63884e-05
0.000137215
-8.31243e-05
0.000150525
-8.02107e-05
0.000164439
-7.78051e-05
0.000178745
-7.60193e-05
0.000193298
-7.48367e-05
0.000208085
-7.41732e-05
0.000222963
-7.40364e-05
-7.43905e-05
0.000237459
5.07839e-06
-0.000124073
9.50061e-06
-0.000136221
1.46093e-05
-0.000133741
2.03919e-05
-0.000130825
2.67175e-05
-0.000127893
3.35032e-05
-0.000124918
4.0706e-05
-0.000121895
4.83088e-05
-0.000118833
5.63136e-05
-0.000115743
6.47409e-05
-0.000112638
7.36279e-05
-0.000109532
8.30262e-05
-0.000106446
9.2996e-05
-0.000103409
0.000103599
-0.000100464
0.000114884
-9.76735e-05
0.000126874
-9.5115e-05
0.000139548
-9.2884e-05
0.00015282
-9.1078e-05
0.000166566
-8.97645e-05
0.000180676
-8.89466e-05
0.000195084
-8.85811e-05
0.000209664
-8.86167e-05
-8.8894e-05
0.000224167
4.46243e-06
-0.000128536
8.22471e-06
-0.000139983
1.2662e-05
-0.000138179
1.77323e-05
-0.000135895
2.33284e-05
-0.000133489
2.93878e-05
-0.000130978
3.58795e-05
-0.000128387
4.27932e-05
-0.000125747
5.01342e-05
-0.000123084
5.79218e-05
-0.000120426
6.6188e-05
-0.000117798
7.49746e-05
-0.000115232
8.43291e-05
-0.000112763
9.42974e-05
-0.000110433
0.000104915
-0.000108291
0.000116196
-0.000106396
0.000128124
-0.000104812
0.000140645
-0.000103599
0.000153679
-0.000102798
0.000167148
-0.000102416
0.000180989
-0.000102422
0.000195114
-0.000102741
-0.000103181
0.000209401
3.87324e-06
-0.000132409
7.17269e-06
-0.000143283
1.1076e-05
-0.000142082
1.55386e-05
-0.000140357
2.04863e-05
-0.000138437
2.588e-05
-0.000136371
3.1703e-05
-0.00013421
3.7953e-05
-0.000131997
4.46397e-05
-0.000129771
5.17827e-05
-0.000127569
5.94108e-05
-0.000125426
6.75591e-05
-0.000123381
7.62658e-05
-0.00012147
8.55665e-05
-0.000119733
9.54875e-05
-0.000118212
0.000106039
-0.000116948
0.00011721
-0.000115983
0.000128965
-0.000115354
0.000141255
-0.000115088
0.000154027
-0.000115188
0.000167236
-0.000115631
0.000180835
-0.000116341
-0.000117126
0.00019478
3.39103e-06
-0.0001358
6.38276e-06
-0.000146274
9.86863e-06
-0.000145568
1.38248e-05
-0.000144314
1.82131e-05
-0.000142825
2.30178e-05
-0.000141176
2.82364e-05
-0.000139429
3.38758e-05
-0.000137636
3.99507e-05
-0.000135846
4.64825e-05
-0.000134101
5.34984e-05
-0.000132442
6.10294e-05
-0.000130912
6.91073e-05
-0.000129548
7.77609e-05
-0.000128387
8.70108e-05
-0.000127462
9.68651e-05
-0.000126802
0.000107316
-0.000126434
0.000118343
-0.00012638
0.000129912
-0.000126657
0.000141994
-0.00012727
0.000154566
-0.000128203
0.000167615
-0.000129389
-0.000130656
0.000181144
3.04401e-06
-0.000138844
5.83936e-06
-0.00014907
9.0042e-06
-0.000148733
1.25482e-05
-0.000147858
1.64667e-05
-0.000146744
2.07647e-05
-0.000145474
2.54533e-05
-0.000144117
3.05483e-05
-0.000142731
3.607e-05
-0.000141368
4.20422e-05
-0.000140073
4.84921e-05
-0.000138892
5.54481e-05
-0.000137868
6.2938e-05
-0.000137038
7.09858e-05
-0.000136435
7.96081e-05
-0.000136084
8.88115e-05
-0.000136006
9.85911e-05
-0.000136214
0.000108932
-0.000136721
0.000119816
-0.000137541
0.000131227
-0.000138681
0.000143161
-0.000140138
0.000155633
-0.000141861
-0.000143698
0.000168675
2.82405e-06
-0.000141668
5.49886e-06
-0.000151744
8.42056e-06
-0.000151654
1.16357e-05
-0.000151073
1.51674e-05
-0.000150276
1.90381e-05
-0.000149345
2.32706e-05
-0.00014835
2.7889e-05
-0.00014735
3.29186e-05
-0.000146397
3.83862e-05
-0.000145541
4.43194e-05
-0.000144825
5.07451e-05
-0.000144293
5.76884e-05
-0.000143981
6.51695e-05
-0.000143916
7.32021e-05
-0.000144117
8.17909e-05
-0.000144595
9.09318e-05
-0.000145355
0.000100614
-0.000146404
0.000110826
-0.000147753
0.000121563
-0.000149418
0.000132834
-0.000151409
0.000144671
-0.000153698
-0.000156156
0.000157129
2.70498e-06
-0.000144373
5.30702e-06
-0.000154346
8.04598e-06
-0.000154393
1.10016e-05
-0.000154028
1.42183e-05
-0.000153492
1.7732e-05
-0.000152858
2.15751e-05
-0.000152193
2.57781e-05
-0.000151553
3.0371e-05
-0.00015099
3.53829e-05
-0.000150552
4.08417e-05
-0.000150284
4.67735e-05
-0.000150225
5.32009e-05
-0.000150408
6.01414e-05
-0.000150856
6.76055e-05
-0.000151581
7.55959e-05
-0.000152585
8.41074e-05
-0.000153866
9.31304e-05
-0.000155427
0.000102656
-0.000157278
0.000112686
-0.000159447
0.000123237
-0.00016196
0.00013435
-0.000164812
-0.000167898
0.000146092
2.65471e-06
-0.000147028
5.20974e-06
-0.000156901
7.80981e-06
-0.000156993
1.05601e-05
-0.000156779
1.35199e-05
-0.000156452
1.67348e-05
-0.000156073
2.02439e-05
-0.000155702
2.40826e-05
-0.000155392
2.8284e-05
-0.000155192
3.28788e-05
-0.000155147
3.78949e-05
-0.0001553
4.33572e-05
-0.000155687
4.92862e-05
-0.000156337
5.56968e-05
-0.000157267
6.25964e-05
-0.000158481
6.9985e-05
-0.000159974
7.78554e-05
-0.000161737
8.61968e-05
-0.000163768
9.50004e-05
-0.000166082
0.000104268
-0.000168715
0.00011402
-0.000171713
0.000124304
-0.000175096
-0.000178785
0.000135192
2.64299e-06
-0.000149671
5.15921e-06
-0.000159418
7.64885e-06
-0.000159483
1.0233e-05
-0.000159363
1.29799e-05
-0.000159199
1.59409e-05
-0.000159034
1.91593e-05
-0.00015892
2.26735e-05
-0.000158906
2.65179e-05
-0.000159036
3.07238e-05
-0.000159353
3.53183e-05
-0.000159895
4.03249e-05
-0.000160694
4.57619e-05
-0.000161774
5.16414e-05
-0.000163146
5.79681e-05
-0.000164807
6.4739e-05
-0.000166744
7.1944e-05
-0.000168942
7.95696e-05
-0.000171394
8.76044e-05
-0.000174117
9.60482e-05
-0.000177159
0.000104921
-0.000180586
0.000114272
-0.000184447
-0.000188693
0.00012418
2.64503e-06
-0.000152316
5.11679e-06
-0.000161889
7.5108e-06
-0.000161877
9.95429e-06
-0.000161806
1.2519e-05
-0.000161764
1.52586e-05
-0.000161774
1.82182e-05
-0.00016188
2.14371e-05
-0.000162125
2.49498e-05
-0.000162549
2.87863e-05
-0.000163189
3.29725e-05
-0.000164081
3.75298e-05
-0.000165251
4.24742e-05
-0.000166719
4.7815e-05
-0.000168487
5.35545e-05
-0.000170547
5.96867e-05
-0.000172877
6.61983e-05
-0.000175453
7.3072e-05
-0.000178267
8.02923e-05
-0.000181337
8.78548e-05
-0.000184721
9.57768e-05
-0.000188508
0.000104109
-0.000192779
-0.000197522
0.000112937
2.64204e-06
-0.000154958
5.05365e-06
-0.000164301
7.35545e-06
-0.000164179
9.67196e-06
-0.000164123
1.20737e-05
-0.000164165
1.46139e-05
-0.000164314
1.73371e-05
-0.000164603
2.02816e-05
-0.000165069
2.34802e-05
-0.000165747
2.6961e-05
-0.00016667
3.07474e-05
-0.000167867
3.48582e-05
-0.000169362
3.93067e-05
-0.000171167
4.41e-05
-0.00017328
4.92376e-05
-0.000175685
5.4711e-05
-0.00017835
6.05039e-05
-0.000181246
6.65948e-05
-0.000184358
7.29631e-05
-0.000187706
7.95986e-05
-0.000191357
8.6515e-05
-0.000195424
9.37635e-05
-0.000200028
-0.000205199
0.000101441
2.621e-06
-0.000157579
4.95032e-06
-0.00016663
7.15477e-06
-0.000166383
9.34873e-06
-0.000166317
1.15977e-05
-0.000166414
1.39521e-05
-0.000166668
1.64538e-05
-0.000167105
1.91384e-05
-0.000167754
2.20358e-05
-0.000168645
2.5171e-05
-0.000169805
2.85641e-05
-0.000171261
3.22306e-05
-0.000173029
3.61809e-05
-0.000175117
4.04196e-05
-0.000177519
4.49442e-05
-0.000180209
4.9744e-05
-0.00018315
5.47998e-05
-0.000186302
6.00859e-05
-0.000189644
6.55759e-05
-0.000193196
7.12533e-05
-0.000197034
7.71264e-05
-0.000201297
8.32462e-05
-0.000206147
-0.000211672
8.97194e-05
2.5736e-06
-0.000160152
4.79584e-06
-0.000168853
6.89215e-06
-0.00016848
8.96135e-06
-0.000168386
1.10612e-05
-0.000168514
1.32372e-05
-0.000168844
1.55271e-05
-0.000169395
1.79623e-05
-0.000170189
2.05687e-05
-0.000171251
2.3367e-05
-0.000172604
2.63733e-05
-0.000174267
2.95992e-05
-0.000176255
3.30519e-05
-0.00017857
3.67336e-05
-0.000181201
4.06397e-05
-0.000184115
4.47579e-05
-0.000187268
4.90666e-05
-0.000190611
5.35363e-05
-0.000194114
5.81345e-05
-0.000197794
6.28371e-05
-0.000201737
6.7645e-05
-0.000206105
7.26056e-05
-0.000211108
-0.0002169
7.78333e-05
2.49597e-06
-0.000162648
4.58709e-06
-0.000170944
6.56144e-06
-0.000170454
8.4993e-06
-0.000170324
1.04494e-05
-0.000170464
1.24507e-05
-0.000170846
1.45353e-05
-0.000171479
1.67296e-05
-0.000172383
1.9054e-05
-0.000173576
2.15244e-05
-0.000175074
2.41519e-05
-0.000176894
2.69438e-05
-0.000179046
2.99038e-05
-0.00018153
3.30312e-05
-0.000184328
3.63199e-05
-0.000187404
3.97562e-05
-0.000190704
4.33169e-05
-0.000194171
4.69689e-05
-0.000197766
5.06738e-05
-0.000201499
5.43987e-05
-0.000205462
5.81337e-05
-0.00020984
6.19178e-05
-0.000214892
-0.000220848
6.58659e-05
2.3897e-06
-0.000165038
4.32821e-06
-0.000172882
6.16533e-06
-0.000172291
7.9628e-06
-0.000172121
9.76007e-06
-0.000172262
1.15885e-05
-0.000172674
1.34734e-05
-0.000173364
1.54345e-05
-0.000174344
1.74864e-05
-0.000175627
1.96392e-05
-0.000177227
2.18985e-05
-0.000179154
2.42668e-05
-0.000181415
2.67435e-05
-0.000184007
2.93253e-05
-0.00018691
3.20043e-05
-0.000190083
3.47661e-05
-0.000193466
3.75863e-05
-0.000196991
4.04293e-05
-0.000200609
4.32509e-05
-0.00020432
4.60081e-05
-0.000208219
4.8677e-05
-0.000212509
5.12811e-05
-0.000217496
-0.000223493
5.39261e-05
2.26335e-06
-0.000167302
4.02895e-06
-0.000174648
5.71268e-06
-0.000173975
7.35992e-06
-0.000173768
9.00109e-06
-0.000173903
1.06586e-05
-0.000174332
1.23494e-05
-0.000175055
1.40861e-05
-0.000176081
1.58764e-05
-0.000177418
1.77241e-05
-0.000179074
1.96289e-05
-0.000181058
2.15879e-05
-0.000183374
2.35961e-05
-0.000186015
2.56468e-05
-0.000188961
2.77305e-05
-0.000192167
2.98324e-05
-0.000195568
3.19279e-05
-0.000199087
3.39797e-05
-0.000202661
3.59385e-05
-0.000206279
3.77505e-05
-0.000210031
3.93747e-05
-0.000214133
4.08123e-05
-0.000218934
-0.000224828
4.21475e-05
2.13212e-06
-0.000169434
3.70083e-06
-0.000176217
5.21461e-06
-0.000175489
6.70301e-06
-0.000175257
8.18645e-06
-0.000175386
9.67646e-06
-0.000175822
1.11807e-05
-0.000176559
1.27036e-05
-0.000177604
1.42456e-05
-0.00017896
1.58037e-05
-0.000180633
1.73714e-05
-0.000182626
1.89401e-05
-0.000184942
2.04998e-05
-0.000187575
2.20401e-05
-0.000190501
2.35498e-05
-0.000193677
2.50136e-05
-0.000197032
2.64078e-05
-0.000200481
2.76946e-05
-0.000203947
2.88209e-05
-0.000207406
2.97224e-05
-0.000210932
3.03389e-05
-0.00021475
3.0643e-05
-0.000219238
-0.00022487
3.06854e-05
2.01075e-06
-0.000171444
3.35062e-06
-0.000177557
4.68027e-06
-0.000176818
6.00523e-06
-0.000176582
7.33311e-06
-0.000176714
8.66233e-06
-0.000177151
9.99019e-06
-0.000177887
1.13125e-05
-0.000178926
1.26224e-05
-0.00018027
1.39098e-05
-0.00018192
1.51621e-05
-0.000183878
1.63645e-05
-0.000186145
1.75017e-05
-0.000188712
1.85593e-05
-0.000191559
1.95234e-05
-0.000194641
2.03787e-05
-0.000197887
2.11026e-05
-0.000201205
2.16587e-05
-0.000204504
2.19916e-05
-0.000207739
2.20281e-05
-0.000210969
2.16886e-05
-0.00021441
2.09135e-05
-0.000218463
-0.000223666
1.97094e-05
1.90783e-06
-0.000173352
2.97514e-06
-0.000178624
4.11427e-06
-0.000177957
5.27832e-06
-0.000177746
6.45837e-06
-0.000177894
7.63754e-06
-0.00017833
8.80242e-06
-0.000179052
9.94046e-06
-0.000180064
1.10376e-05
-0.000181367
1.20773e-05
-0.00018296
1.30404e-05
-0.000184842
1.39062e-05
-0.000187011
1.46539e-05
-0.00018946
1.5264e-05
-0.000192169
1.57197e-05
-0.000195097
1.60047e-05
-0.000198172
1.60977e-05
-0.000201298
1.5965e-05
-0.000204371
1.55517e-05
-0.000207325
1.47783e-05
-0.000210196
1.35477e-05
-0.00021318
1.17679e-05
-0.000216683
-0.000221295
9.39708e-06
1.81274e-06
-0.000175165
2.5602e-06
-0.000179371
3.51785e-06
-0.000178915
4.53272e-06
-0.000178761
5.5788e-06
-0.00017894
6.62263e-06
-0.000179374
7.64087e-06
-0.00018007
8.61367e-06
-0.000181037
9.52061e-06
-0.000182274
1.03392e-05
-0.000183778
1.10445e-05
-0.000185547
1.16099e-05
-0.000187576
1.20087e-05
-0.000189858
1.2216e-05
-0.000192376
1.22104e-05
-0.000195091
1.19734e-05
-0.000197935
1.14848e-05
-0.00020081
1.07143e-05
-0.0002036
9.60982e-06
-0.000206221
8.08987e-06
-0.000208676
6.04473e-06
-0.000211135
3.35352e-06
-0.000213992
-0.000217864
-7.79575e-08
1.68977e-06
-0.000176855
2.0902e-06
-0.000179772
2.89476e-06
-0.00017972
3.78039e-06
-0.000179646
4.71094e-06
-0.000179871
5.63651e-06
-0.000180299
6.5261e-06
-0.00018096
7.35444e-06
-0.000181865
8.09613e-06
-0.000183015
8.72377e-06
-0.000184406
9.20742e-06
-0.00018603
9.51506e-06
-0.000187884
9.61404e-06
-0.000189957
9.47323e-06
-0.000192235
9.0653e-06
-0.000194683
8.36762e-06
-0.000197238
7.35942e-06
-0.000199801
6.01356e-06
-0.000202254
4.2834e-06
-0.000204491
2.08936e-06
-0.000206482
-6.86092e-07
-0.000208359
-4.18702e-06
-0.000210491
-0.000213504
-8.54715e-06
1.49864e-06
-0.000178353
1.56449e-06
-0.000179838
2.25826e-06
-0.000180413
3.03816e-06
-0.000180426
3.87217e-06
-0.000180705
4.69605e-06
-0.000181123
5.47467e-06
-0.000181738
6.1796e-06
-0.00018257
6.78209e-06
-0.000183618
7.25119e-06
-0.000184875
7.55308e-06
-0.000186332
7.65126e-06
-0.000187982
7.50756e-06
-0.000189814
7.08419e-06
-0.000191812
6.34648e-06
-0.000193945
5.26535e-06
-0.000196156
3.81671e-06
-0.000198353
1.97504e-06
-0.000200413
-3.01188e-07
-0.000202214
-3.08528e-06
-0.000203698
-6.49509e-06
-0.000204949
-1.06906e-05
-0.000206296
-0.000208351
-1.58435e-05
1.22706e-06
-0.000179581
1.00439e-06
-0.000179615
1.6324e-06
-0.000181042
2.32521e-06
-0.000181119
3.07816e-06
-0.000181458
3.81452e-06
-0.00018186
4.49818e-06
-0.000182422
5.09953e-06
-0.000183171
5.58826e-06
-0.000184107
5.93159e-06
-0.000185218
6.0935e-06
-0.000186494
6.03446e-06
-0.000187923
5.71189e-06
-0.000189491
5.08172e-06
-0.000191182
4.10125e-06
-0.000192965
2.73265e-06
-0.000194788
9.45072e-07
-0.000196565
-1.28983e-06
-0.000198178
-4.00869e-06
-0.000199496
-7.27765e-06
-0.000200429
-1.1211e-05
-0.000201016
-1.59776e-05
-0.000201529
-0.000202549
-2.17793e-05
8.39281e-07
-0.00018042
4.62029e-07
-0.000179238
1.03106e-06
-0.000181611
1.65031e-06
-0.000181739
2.33889e-06
-0.000182147
3.00076e-06
-0.000182522
3.60319e-06
-0.000183024
4.11818e-06
-0.000183686
4.51613e-06
-0.000184505
4.76465e-06
-0.000185467
4.8277e-06
-0.000186557
4.66485e-06
-0.00018776
4.23107e-06
-0.000189057
3.47751e-06
-0.000190428
2.35396e-06
-0.000191841
8.1275e-07
-0.000193247
-1.18756e-06
-0.000194565
-3.68137e-06
-0.000195684
-6.70626e-06
-0.000196471
-1.03222e-05
-0.000196813
-1.46375e-05
-0.000196701
-1.98257e-05
-0.000196341
-0.00019626
-2.61145e-05
5.45891e-08
-0.000180474
-3.57888e-08
-0.000179147
3.87468e-07
-0.000182034
1.01817e-06
-0.000182369
1.66461e-06
-0.000182793
2.26184e-06
-0.000183119
2.79289e-06
-0.000183555
3.23459e-06
-0.000184128
3.56055e-06
-0.00018483
3.74122e-06
-0.000185647
3.74298e-06
-0.000186559
3.52714e-06
-0.000187544
3.04904e-06
-0.000188579
2.25798e-06
-0.000189637
1.09859e-06
-0.000190682
-4.85606e-07
-0.000191662
-2.54719e-06
-0.000192503
-5.13186e-06
-0.000193099
-8.28289e-06
-0.00019332
-1.20585e-05
-0.000193037
-1.65613e-05
-0.000192198
-2.19681e-05
-0.000190934
-0.000189695
-2.85338e-05
-8.92751e-07
-0.000179582
-7.74031e-07
-0.000179266
-2.3172e-07
-0.000182576
4.62965e-07
-0.000183064
1.06847e-06
-0.000183399
1.60375e-06