/*--------------------------------*- C++ -*----------------------------------*\
  =========                 |
  \\      /  F ield         | OpenFOAM: The Open Source CFD Toolbox
   \\    /   O peration     | Website:  https://openfoam.org
    \\  /    A nd           | Version:  7
     \\/     M anipulation  |
\*---------------------------------------------------------------------------*/
FoamFile
{
    version     2.0;
    format      ascii;
    class       volScalarField;
    location    "0.2";
    object      alpha.water;
}
// * * * * * * * * * * * * * * * * * * * * * * * * * * * * * * * * * * * * * //

dimensions      [0 0 0 0 0 0 0];

internalField   nonuniform List<scalar> 
2268
(
1
1
1
1
1
1
1
1
1
1
1
1
1
1
1
1
1
1
1
1
1
0.993278
0.88151
1
1
1
1
1
1
1
1
1
1
1
1
1
1
1
1
1
1
1
1
1
1
0.913166
1
1
1
1
1
1
1
1
1
1
1
1
1
1
1
1
1
1
1
1
1
1
0.917188
1
1
1
1
1
1
1
1
1
1
1
1
1
1
1
1
1
1
1
1
1
1
0.925453
1
1
1
1
1
1
1
1
1
1
1
1
1
1
1
1
1
1
1
1
1
1
0.966299
1
1
1
1
1
1
1
1
1
1
1
1
1
1
1
1
1
1
1
1
1
1
1.00014
1
1
1
1
1
1
1
1
1
1
1
1
1
1
1
1
1
1
1
0.999998
0.999998
1
1.00004
1
1
1
1
1
1
1
1
1
1
1
1
1
1
1
1
1
1
1
0.999996
0.999997
0.999999
1.00003
2.55242e-18
2.04668e-18
6.4753e-19
3.05054e-20
1.82924e-22
3.02216e-24
1.55946e-25
3.81247e-26
4.23605e-27
2.09082e-28
7.51628e-30
2.22666e-31
5.40917e-33
1.03241e-34
1.47937e-36
1.48285e-38
9.18252e-41
2.39664e-43
8.33834e-44
3.1897e-17
8.11191e-17
7.81276e-17
1.13128e-17
1.55345e-19
1.14851e-21
6.29507e-23
6.22813e-24
3.30339e-25
1.22766e-26
3.62701e-28
9.0033e-30
1.84531e-31
2.98551e-33
3.61748e-35
3.01203e-37
1.50453e-39
2.87902e-42
8.77274e-44
1.36613e-15
7.38001e-15
1.00159e-14
2.42601e-15
9.00388e-17
1.41699e-18
2.52315e-20
5.80353e-22
1.54081e-23
3.9837e-25
9.16509e-27
1.82977e-28
3.07619e-30
4.13672e-32
4.15902e-34
2.82708e-36
1.04928e-38
9.7129e-42
1.03683e-42
5.78989e-14
4.48811e-13
6.88098e-13
1.22501e-13
4.17045e-15
8.15579e-17
1.73036e-18
3.38993e-20
6.06799e-22
1.0743e-23
1.87981e-25
2.96225e-27
3.98726e-29
4.2921e-31
3.32902e-33
1.6114e-35
2.6039e-38
1.64384e-41
1.78523e-41
8.97296e-13
6.94865e-12
1.10245e-11
9.63112e-13
3.62829e-14
1.05066e-15
3.02864e-17
7.33e-19
1.39351e-20
2.16989e-22
3.10611e-24
4.04942e-26
4.41874e-28
3.79289e-30
2.19275e-32
5.35745e-35
6.59234e-39
2.08941e-40
2.21953e-40
1.40631e-11
6.18725e-11
2.24587e-11
2.00556e-12
9.98369e-14
3.88621e-15
1.39553e-16
4.29946e-18
1.05395e-19
2.04416e-21
3.13388e-23
4.042e-25
4.18013e-27
3.27872e-29
1.67586e-31
2.16327e-34
3.76693e-38
2.71213e-39
2.46789e-39
5.06013e-11
1.44374e-10
4.62701e-11
1.67788e-12
1.20614e-13
5.48543e-15
2.22277e-16
7.65808e-18
2.20841e-19
5.41143e-21
1.01457e-22
1.47811e-24
1.71458e-26
1.42392e-28
7.35004e-31
1.0113e-33
3.06621e-37
1.75941e-38
2.05074e-38
8.22067e-11
1.44506e-10
4.24252e-11
1.6644e-12
1.38656e-14
1.61898e-15
2.022e-16
2.04838e-18
3.32194e-20
3.14991e-22
2.74088e-25
3.19509e-26
1.43242e-27
2.95062e-30
1.57558e-32
4.61909e-35
9.30855e-38
1.90081e-38
7.50556e-38
1
1
1
1
1
1
1
1
1
1
1
1
1
1
1
1
1
1
1
1
0.999999
1
1
1
1
1
1
1
1
1
1
1
1
1
1
1
1
1
1
1
1
1
1
1
1
1
1
1
1
1
1
1
1
1
1
1
1
1
1
1
1
0.999999
1.00002
0.999998
1
1
0.972993
0.993984
1.00012
1
1
1
1
1
1
1
1
1
1
1
1
1
1
0.999995
0.999977
0.999923
0.998798
0.923917
0.703236
0.342346
0.28177
0.805252
1
1
1
1
1
1
1
1
0.999999
0.999999
0.999998
0.999998
0.999998
0.999989
0.999935
0.999604
0.969408
0.661402
0.182871
0.0306279
0.00267443
0.00372912
0.194345
1
0.999998
0.999999
0.999999
0.999998
0.999998
0.999998
0.999997
0.999995
0.99999
0.999981
0.99998
0.999967
0.999888
0.99912
0.907752
0.38997
0.00723145
0.00032037
0.000169977
0.000271872
0.000369136
0.00365939
0.999994
0.999984
0.999984
0.999985
0.999984
0.999981
0.999976
0.999965
0.999947
0.999909
0.999833
0.999774
0.999724
0.998733
0.87031
0.250677
0.00096604
8.91921e-05
1.3937e-05
1.23299e-05
1.75217e-05
5.31799e-05
0.000272829
0.999928
0.999841
0.999847
0.999853
0.999844
0.999818
0.999769
0.999679
0.999527
0.999199
0.998443
0.99819
0.9975
0.876134
0.198914
0.00052096
3.85185e-05
2.78704e-06
3.8688e-07
7.84926e-07
2.36451e-06
3.00962e-06
4.20172e-05
0.999203
0.998522
0.998581
0.998628
0.998556
0.998341
0.997911
0.997174
0.991486
0.957667
0.862897
0.85252
0.7803
0.180321
0.000174097
-6.34338e-06
3.96659e-07
2.11283e-08
2.3927e-08
5.71016e-08
2.56243e-07
8.4752e-07
3.3991e-06
0.876702
0.824419
0.831785
0.840072
0.833264
0.808145
0.755709
0.666365
0.530656
0.342515
0.163729
0.149199
0.0762685
-1.54752e-06
-9.03461e-06
-6.19095e-08
-1.3993e-07
7.51641e-10
3.59468e-09
1.20819e-08
6.293e-08
2.11885e-07
5.83844e-07
0.168151
0.12992
0.133029
0.139535
0.132793
0.111342
0.0754314
0.0308808
-8.0636e-10
-2.36073e-13
1.08431e-12
1.68842e-11
3.33923e-08
-2.9774e-10
-3.68525e-11
-3.39195e-09
-1.63591e-11
1.69832e-09
2.21101e-09
3.69356e-09
1.42379e-08
7.94858e-08
1.97178e-06
-1.4807e-07
-2.90442e-07
-6.58719e-07
-2.36984e-07
-2.0892e-08
-2.22965e-09
-5.77248e-10
-2.33352e-10
-7.46644e-11
-3.19007e-12
-6.67266e-16
1.08436e-12
1.69552e-11
2.25942e-07
1.32373e-08
5.24754e-12
1.0585e-09
1.99759e-09
2.15004e-09
2.36256e-09
4.07033e-09
1.68403e-08
2.96081e-07
-4.28187e-10
-2.0126e-09
-1.51764e-08
-1.78496e-08
-5.87693e-09
-2.39477e-09
-1.13576e-09
-4.96324e-10
-1.41666e-10
-1.42845e-13
1.05543e-12
9.30296e-12
7.67604e-07
3.90648e-06
3.35273e-09
7.97411e-10
2.78853e-09
2.87548e-09
2.08986e-09
1.9114e-09
2.48265e-09
1.00152e-08
1.89623e-07
-4.60316e-10
-4.61301e-10
-1.14036e-09
-3.79059e-09
-3.58919e-09
-2.31453e-09
-1.18987e-09
-4.94569e-10
-8.95641e-11
1.30421e-10
7.61795e-11
6.9393e-11
1.78742e-06
4.06132e-06
-1.01322e-09
1.4803e-09
2.82698e-09
2.85645e-09
1.6325e-09
1.11484e-09
1.63363e-09
7.84866e-09
2.56155e-07
-3.90684e-10
-4.68641e-10
-8.23413e-10
-2.44031e-09
-2.83347e-09
-1.82597e-09
-8.74037e-10
-3.10188e-10
1.20284e-11
3.47486e-10
4.5446e-10
3.59683e-10
7.25632e-07
2.31996e-06
-2.95824e-30
1.33759e-09
1.93731e-09
1.93834e-09
1.03145e-09
5.98742e-10
9.20784e-10
3.61661e-09
1.53819e-07
-2.57459e-10
-3.46321e-10
-5.78483e-10
-1.49532e-09
-1.75342e-09
-1.07031e-09
-4.63035e-10
-1.16469e-10
1.448e-10
4.30453e-10
9.01968e-10
7.21729e-10
1.55166e-10
1.59133e-10
9.14976e-10
1.07637e-09
8.75307e-10
7.20327e-10
5.51945e-10
4.01906e-10
3.12961e-10
1.07873e-09
1.22092e-08
-1.27879e-10
-1.8775e-10
-3.08551e-10
-6.74489e-10
-7.65123e-10
-4.50881e-10
-1.82532e-10
-5.51214e-12
2.19722e-10
3.87483e-10
3.08229e-10
1.55037e-10
1.4167e-10
5.55904e-10
8.43003e-10
6.38039e-10
2.74672e-10
2.05179e-10
2.02897e-10
1.79353e-10
1.14769e-10
1.73844e-10
1.08712e-09
-4.37056e-11
-6.83106e-11
-1.12299e-10
-2.10389e-10
-2.19151e-10
-1.27577e-10
-4.50328e-11
2.42374e-11
2.27552e-10
3.64761e-10
3.17522e-10
1.56955e-10
1.38537e-10
2.97142e-10
3.74298e-10
2.42814e-10
7.56957e-11
4.88334e-11
4.56064e-11
4.12692e-11
3.13089e-11
3.26171e-11
1.52452e-10
-7.80642e-12
-1.25346e-11
-1.92389e-11
-2.97536e-11
-2.92456e-11
-1.74596e-11
-3.14758e-12
1.64277e-11
1.18314e-10
2.2608e-10
2.40898e-10
9.14513e-11
3.02104e-11
3.68939e-11
5.78641e-11
5.19969e-11
1.42422e-11
8.03868e-12
6.00329e-12
5.0853e-12
4.83715e-12
1.47493e-11
4.91322e-11
-2.36514e-20
-3.01048e-19
-1.05851e-18
-8.95711e-34
-2.86628e-32
-5.41411e-20
6.04855e-15
2.60813e-12
2.59033e-11
6.7949e-11
8.52247e-11
4.26269e-11
7.90662e-12
2.33504e-12
2.72275e-12
3.05566e-12
1.28798e-12
7.68279e-13
4.87049e-13
4.03541e-13
5.45005e-13
2.84016e-12
1.3353e-11
-1.93461e-20
-3.05012e-19
-1.93053e-18
-4.23724e-18
-2.4603e-26
-1.30234e-21
1.17375e-17
1.60416e-13
2.4232e-12
7.66978e-12
1.09298e-11
1.06771e-11
2.29566e-12
3.31893e-13
5.26773e-14
6.66207e-14
5.71622e-14
3.8237e-14
2.73896e-14
2.7027e-14
5.48422e-14
2.61718e-13
1.65325e-12
-8.49894e-21
-1.62915e-19
-1.45221e-18
-7.57159e-18
-2.34457e-17
-3.1395e-17
5.71624e-17
2.88518e-16
2.89898e-16
3.08793e-16
3.43671e-16
3.80704e-16
2.52667e-15
5.14646e-15
3.72694e-15
1.61896e-15
1.50296e-15
1.24407e-15
1.24248e-15
1.78193e-15
4.83735e-15
2.21235e-14
1.32721e-13
-3.16661e-39
-3.25503e-35
-1.29505e-27
-1.72695e-25
-1.1441e-23
3.85091e-18
1.01987e-16
4.44959e-16
8.46756e-16
1.05002e-15
1.05741e-15
8.23279e-16
1.5585e-16
5.11832e-17
3.97035e-17
3.84409e-17
3.95652e-17
4.07672e-17
5.58962e-17
1.08139e-16
3.5433e-16
1.60105e-15
9.18887e-15
2.62865e-33
-2.14863e-32
-2.67112e-29
-2.27778e-27
-1.32798e-25
-1.03971e-24
1.27115e-21
2.26227e-19
2.42912e-18
7.84629e-18
1.23825e-17
3.75004e-18
2.21695e-18
1.47244e-18
9.84858e-19
8.8797e-19
1.07445e-18
1.38927e-18
2.30826e-18
5.53203e-18
2.10096e-17
9.54634e-17
5.43242e-16
-4.60259e-34
-7.08229e-32
-5.30433e-30
-2.63614e-28
-9.69243e-27
9.73414e-27
3.20763e-24
9.61025e-22
1.50273e-20
6.23426e-20
1.19287e-19
1.4645e-19
1.24227e-19
4.04138e-20
1.88253e-20
1.65528e-20
2.45235e-20
4.00327e-20
7.79842e-20
2.27105e-19
9.92545e-19
4.65057e-18
2.70976e-17
3.12964e-38
5.15097e-36
4.15135e-34
2.17079e-32
8.54042e-31
2.536e-29
2.87613e-27
2.49804e-24
1.29201e-22
1.02251e-21
2.80097e-21
4.0881e-21
4.30723e-21
1.93177e-21
5.55089e-22
3.48524e-22
4.12536e-22
8.86657e-22
2.01956e-21
7.23976e-21
3.69096e-20
1.83393e-19
1.13429e-18
1.07154e-41
-4.10604e-39
-1.04243e-36
-9.04565e-35
-5.20866e-33
-1.15552e-31
1.07085e-30
3.0956e-27
4.77658e-25
6.32613e-24
2.43736e-23
4.43193e-23
5.31051e-23
4.45153e-23
1.67699e-23
8.22464e-24
6.18475e-24
1.37546e-23
3.84699e-23
1.72187e-22
1.06789e-21
5.80259e-21
3.97625e-20
-5.08766e-43
-9.35413e-41
-8.17984e-39
-4.68338e-37
-1.96967e-35
2.35325e-35
1.21951e-33
4.87445e-32
5.61401e-29
7.11608e-27
1.08018e-25
4.62128e-25
8.70157e-25
1.03799e-24
7.48522e-25
1.85381e-25
7.9024e-26
1.56165e-25
4.94007e-25
2.83914e-24
2.35153e-23
1.45363e-22
1.16645e-21
1.26392e-48
2.86068e-46
2.90679e-44
1.63375e-42
5.79566e-41
6.86002e-40
2.5879e-37
1.05895e-35
1.13179e-32
9.30214e-30
3.04906e-28
2.26305e-27
6.025e-27
8.44566e-27
8.59172e-27
3.53016e-27
1.3444e-27
1.27331e-27
3.52147e-27
3.34937e-26
3.75506e-25
2.8053e-24
2.86487e-23
4.50111e-52
-4.7317e-50
-2.88605e-47
-3.53775e-45
-2.65893e-43
-7.8658e-42
2.48805e-40
8.98096e-39
2.84302e-37
9.92888e-35
7.00976e-32
2.78838e-30
2.52537e-29
7.42893e-29
1.0513e-28
1.02902e-28
3.66791e-29
1.1767e-29
2.81278e-29
3.79007e-28
5.05201e-27
4.00252e-26
5.89683e-25
-7.14932e-54
-1.79228e-51
-2.10424e-49
-1.61179e-47
-9.06958e-46
3.90626e-46
2.59901e-44
1.26233e-42
4.39697e-41
1.26491e-38
3.39488e-35
3.42289e-33
6.46221e-32
3.17055e-31
6.14309e-31
7.13217e-31
4.37605e-31
1.45633e-31
2.36578e-31
2.9091e-30
5.80735e-29
5.63312e-28
1.00131e-26
5.28578e-60
1.75694e-57
2.79679e-55
2.83205e-53
2.12441e-51
1.25231e-49
1.29394e-47
6.2086e-46
2.56738e-44
9.31433e-43
8.86259e-41
1.82206e-37
1.97599e-35
4.69549e-34
2.699e-33
5.55145e-33
6.41071e-33
3.93955e-33
3.09006e-33
1.31428e-32
4.64444e-31
5.954e-30
1.50722e-28
1.3803e-64
-2.30318e-61
-1.25423e-58
-2.058e-56
-2.09687e-54
-8.61227e-53
7.46177e-52
4.36081e-50
2.07098e-48
8.67851e-47
6.95138e-45
3.71472e-41
1.14801e-38
6.57888e-37
7.55548e-36
2.37423e-35
3.33131e-35
3.18929e-35
3.81536e-35
4.85621e-35
1.87391e-33
4.04816e-32
2.1194e-30
-7.75721e-67
-2.87583e-64
-4.86136e-62
-5.32319e-60
-4.27673e-58
1.5643e-57
1.85755e-55
1.16825e-53
6.45684e-52
3.25105e-50
1.47404e-48
9.05775e-47
2.15862e-43
5.2816e-41
3.6224e-39
4.82979e-38
1.67059e-37
2.62083e-37
3.53052e-37
6.52601e-37
6.96888e-36
1.83734e-34
2.54878e-32
1.84519e-73
1.08713e-70
2.66585e-68
3.77599e-66
3.89086e-64
3.21372e-62
7.40097e-60
5.79968e-58
3.78224e-56
2.2477e-54
1.2379e-52
6.25195e-51
2.09561e-48
1.3483e-44
2.42089e-42
8.18875e-41
5.50442e-40
1.25349e-39
1.96356e-39
1.57131e-38
4.13002e-38
1.45945e-36
2.6421e-34
5.14802e-78
-3.36841e-75
-4.24733e-72
-1.11066e-69
-1.73645e-67
-6.94802e-66
6.67365e-64
5.93612e-62
4.67339e-60
3.35018e-58
2.22296e-56
1.35679e-54
8.17893e-53
9.03728e-50
1.08861e-46
1.81474e-44
5.51182e-43
3.70745e-42
1.168e-41
1.18303e-40
2.08913e-40
9.97891e-39
2.36537e-36
-1.09282e-80
-7.53637e-78
-2.03016e-75
-3.49949e-73
-4.47087e-71
2.43135e-70
5.09785e-68
5.63298e-66
5.52766e-64
4.93261e-62
4.0671e-60
3.14387e-58
2.26699e-56
1.74315e-54
5.67193e-51
3.90713e-48
4.44909e-46
8.42651e-45
4.62008e-44
3.97014e-43
9.16512e-43
5.94243e-41
1.83285e-38
2.09534e-87
1.17849e-84
3.98969e-82
9.88969e-80
2.06343e-77
3.7687e-75
1.05598e-72
1.54567e-70
1.98722e-68
2.31776e-66
2.49102e-64
2.50307e-62
2.38295e-60
2.14314e-58
4.38616e-56
6.535e-52
2.36361e-49
1.15136e-47
1.18506e-46
1.09518e-45
3.60256e-45
3.14039e-43
1.2324e-40
3.29816e-92
-1.11252e-89
-2.48392e-86
-1.05097e-83
-2.88826e-81
-8.56232e-80
3.0926e-77
6.38187e-75
1.1699e-72
1.93857e-70
2.94924e-68
4.18079e-66
5.59741e-64
7.16314e-62
8.75151e-60
1.1333e-57
3.83611e-54
1.98141e-51
1.40574e-49
2.76017e-48
6.65054e-47
1.52011e-45
7.2534e-43
-2.81755e-95
-9.08717e-93
-2.71209e-90
-7.75426e-88
-2.01523e-85
2.06499e-85
1.04934e-82
3.72484e-80
1.15713e-77
3.23386e-75
8.26134e-73
1.95892e-70
4.37155e-68
9.29221e-66
1.89981e-63
3.73073e-61
8.36446e-59
4.84765e-55
1.51615e-52
6.14297e-51
5.82962e-49
7.12733e-48
3.79658e-45
8.36089e-109
1.58524e-106
-1.03567e-100
-1.97406e-97
-1.54118e-94
-9.47124e-92
-1.8168e-90
2.03178e-88
2.14202e-85
1.89307e-82
1.4842e-79
1.0633e-76
7.10539e-74
4.49563e-71
2.72105e-68
1.58286e-65
8.7678e-63
5.74761e-60
3.87079e-56
8.44167e-54
1.72905e-51
3.62576e-50
1.89663e-47
-1.0906e-124
-1.67342e-111
-2.77558e-108
-4.12393e-105
-6.53432e-102
-1.98818e-99
-8.58835e-102
-1.09096e-98
-1.4034e-95
-1.64405e-92
-1.67999e-89
-1.50015e-86
-1.18588e-83
-8.42464e-81
-5.45381e-78
-3.25413e-75
-1.80351e-72
-9.30413e-70
8.2439e-64
2.91135e-58
3.8721e-54
1.63645e-52
9.00979e-50
0.99999
0.367393
9.77297e-11
9.28567e-11
0.99999
0.934985
0.243403
-2.44838e-06
0.99998
0.998794
0.785518
0.156201
0.998794
0.984078
0.965948
0.462131
0.808696
0.965948
0.932182
0.764674
0.237528
0.832633
0.905641
0.882115
0.0045243
0.300212
0.84537
0.828138
0.000549467
0.00693279
0.376688
0.719454
6.25645e-05
0.00136999
0.0113642
0.45387
1.31546e-05
0.000228553
0.00262352
0.0303366
9.34566e-06
5.42361e-05
0.000555
0.00403748
1.69716e-05
0.000142879
0.000302
0.00105487
4.29798e-06
5.8784e-05
0.000167887
0.000444709
2.14126e-06
1.0425e-05
5.13659e-05
0.000110661
6.1864e-07
1.70774e-06
6.49654e-06
1.1081e-05
5.37339e-08
2.01173e-07
5.42204e-07
1.35774e-06
6.67645e-09
2.19169e-08
6.81619e-08
1.678e-07
7.80524e-10
2.54984e-09
7.54299e-09
1.82993e-08
8.94557e-11
2.66621e-10
7.79321e-10
1.80203e-09
1.43437e-11
3.23706e-11
9.27221e-11
1.93807e-10
4.15516e-12
1.10658e-11
2.17333e-11
2.0016e-11
4.01406e-13
1.41046e-12
3.45765e-12
4.15226e-12
2.48866e-14
8.73999e-14
2.4954e-13
3.86781e-13
1.39993e-15
4.82781e-15
1.35848e-14
2.01798e-14
6.73901e-17
2.34672e-16
6.69906e-16
9.74487e-16
2.72855e-18
9.76992e-18
2.89518e-17
4.23032e-17
9.23405e-20
3.47942e-19
1.09369e-18
1.625e-18
2.59001e-21
1.06059e-20
3.61782e-20
5.5246e-20
6.81475e-23
2.702e-22
1.05095e-21
1.66727e-21
1.56829e-24
6.10301e-24
2.66578e-23
4.48223e-23
3.09126e-26
1.28843e-25
5.88833e-25
1.07597e-24
5.20816e-28
2.37842e-27
1.14685e-26
2.30724e-26
7.49535e-30
3.82273e-29
1.97709e-28
4.43639e-28
9.1525e-32
5.34593e-31
3.02849e-30
7.66593e-30
9.35867e-34
6.50182e-33
4.13354e-32
1.19485e-31
7.7813e-36
6.85393e-35
5.2197e-34
1.66856e-33
4.86413e-38
6.22199e-37
6.07454e-36
2.11104e-35
3.19796e-40
4.79184e-39
6.48589e-38
2.45418e-37
2.69446e-42
3.06156e-41
6.45605e-40
2.66237e-39
2.20337e-44
2.00147e-43
6.11908e-42
2.76056e-41
1.86076e-46
2.09606e-45
5.792e-44
2.60192e-43
4.45766e-48
1.86081e-46
2.30304e-45
2.13237e-44
8.73425e-11
9.28712e-11
7.26227e-11
6.19568e-12
4.75919e-13
4.624e-14
2.63826e-14
1.05337e-15
6.67029e-18
1.78946e-19
4.74116e-21
1.02493e-22
1.77618e-24
2.46327e-26
2.34412e-28
1.34332e-30
3.76355e-33
5.19913e-36
2.62471e-36
-1.2325e-06
4.16946e-10
8.87848e-11
2.46353e-11
4.38366e-12
3.1165e-13
1.11343e-13
6.28128e-14
6.9914e-16
4.95172e-18
4.63022e-20
6.52647e-22
1.01498e-23
1.40166e-25
1.61657e-27
1.42486e-29
8.1441e-32
1.9792e-34
1.84837e-35
0.000397968
-2.66054e-05
7.75848e-10
5.10107e-11
5.03264e-11
4.79443e-12
5.12153e-13
5.38946e-13
5.04761e-14
4.49804e-16
2.71083e-18
1.81904e-20
1.09638e-22
5.81228e-25
4.32585e-27
3.96192e-29
2.51229e-31
9.47742e-34
2.87495e-35
0.0139366
-8.40396e-05
3.29538e-09
7.51931e-10
5.31537e-10
3.11531e-11
2.81275e-12
1.11196e-12
8.41372e-13
2.35316e-14
1.40377e-16
8.64934e-19
5.6311e-21
3.32163e-23
1.80449e-25
8.19893e-28
3.32714e-30
1.00438e-32
4.68364e-35
0.0606267
0.000122676
-3.59363e-06
1.79326e-06
2.6891e-07
3.53339e-10
1.60707e-11
2.48649e-12
3.55812e-12
3.66089e-13
5.31648e-15
3.68191e-17
2.33309e-19
1.34994e-21
7.33197e-24
3.34414e-26
1.15912e-28
2.37182e-31
2.87007e-34
0.136509
0.000524049
-2.486e-05
1.79908e-05
1.26099e-06
4.36968e-09
2.14257e-10
1.17184e-11
6.96086e-12
1.66374e-12
1.03653e-13
1.43175e-15
1.04531e-17
4.91797e-20
2.20974e-22
7.7662e-25
1.95049e-27
2.66686e-30
7.67544e-33
0.210221
0.00107927
5.39356e-05
1.35445e-05
1.51321e-05
2.13306e-06
2.64953e-09
2.09765e-10
1.46919e-11
3.30132e-12
8.85424e-13
2.74736e-14
2.93572e-16
2.61946e-18
1.74035e-20
6.96013e-23
1.06084e-25
1.82668e-28
4.78119e-31
0.503453
0.00311749
0.000211207
3.4034e-05
2.58324e-05
6.64982e-06
3.73259e-08
3.25308e-09
1.40467e-10
5.84749e-12
2.77801e-12
2.11505e-13
3.6361e-15
4.24869e-17
4.10706e-19
2.97794e-21
1.49398e-23
4.4637e-26
8.38548e-29
0.441698
0.0905058
0.0010648
0.000139165
3.86916e-05
6.41525e-06
5.3145e-07
2.26428e-08
1.10343e-09
5.33767e-11
2.18504e-12
6.71403e-13
2.66248e-14
3.29132e-16
3.76344e-18
3.38541e-20
2.17043e-22
8.95299e-25
2.72902e-27
0.295191
0.280302
0.0258453
0.000703304
0.00010713
1.81652e-05
1.73706e-06
1.09772e-07
5.46252e-09
2.47951e-10
1.2468e-11
9.4818e-13
6.83862e-14
1.40875e-15
1.73848e-17
1.7283e-19
1.22633e-21
5.51205e-24
3.18675e-26
0.066471
0.125827
0.0733518
0.00636546
0.00028465
3.81113e-05
3.82259e-06
2.88387e-07
1.67715e-08
7.67582e-10
3.41591e-11
1.28083e-12
9.58681e-14
2.46199e-15
3.36266e-17
3.51231e-19
2.58364e-21
1.11473e-23
2.80177e-25
0.00424029
0.00538588
0.0265556
0.0107836
0.000303117
3.55151e-05
3.75508e-06
3.00463e-07
1.86467e-08
9.12762e-10
3.55646e-11
1.45283e-12
7.74938e-14
2.18301e-15
3.31455e-17
3.70736e-19
2.88572e-21
1.23179e-23
8.01306e-25
0.000873783
0.00121501
0.000899673
0.00227926
0.00045823
9.59594e-06
9.47631e-07
7.37277e-08
4.57526e-09
2.27858e-10
1.0372e-11
4.02893e-13
2.41398e-14
5.61985e-16
8.67338e-18
1.04206e-19
8.8229e-22
4.55278e-24
1.30324e-25
0.000152149
0.000229786
0.000166057
6.45211e-05
4.08973e-05
2.40716e-06
1.59476e-07
1.18478e-08
7.07406e-10
3.58489e-11
1.7305e-12
1.40548e-13
4.61061e-15
9.30805e-17
1.54201e-18
1.97489e-20
1.82525e-22
1.05724e-24
1.73971e-26
2.28411e-05
3.63252e-05
2.5762e-05
9.28528e-06
1.93682e-06
2.652e-07
2.2176e-08
1.59571e-09
9.39763e-11
5.63417e-12
5.43783e-13
2.46362e-14
6.26421e-16
1.31074e-17
2.21331e-19
2.88631e-21
2.73512e-23
1.65311e-25
1.83396e-27
3.01548e-06
4.91037e-06
3.41241e-06
1.15006e-06
2.26158e-07
3.04938e-08
2.62262e-09
1.8662e-10
1.31412e-11
1.48321e-12
8.73333e-14
2.7445e-15
7.0625e-17
1.50752e-18
2.58405e-20
3.44184e-22
3.3594e-24
2.12548e-26
1.58216e-28
3.53115e-07
5.77324e-07
3.93248e-07
1.24283e-07
2.31232e-08
3.04301e-09
2.87393e-10
2.29325e-11
2.92132e-12
2.11948e-13
8.11489e-15
2.51245e-16
6.55179e-18
1.40199e-19
2.41875e-21
3.2599e-23
3.24114e-25
2.11143e-27
1.15547e-29
3.68814e-08
5.98932e-08
3.99931e-08
1.18886e-08
2.09065e-09
2.62293e-10
3.0447e-11
4.14224e-12
3.66596e-13
1.7104e-14
6.31698e-16
1.9773e-17
5.13213e-19
1.09598e-20
1.89421e-22
2.56932e-24
2.58507e-26
1.71729e-28
7.33612e-31
3.4573e-09
5.52728e-09
3.61854e-09
1.02459e-09
1.6862e-10
2.48801e-11
4.14889e-12
4.62144e-13
2.64218e-14
1.16548e-15
4.34838e-17
1.34845e-18
3.47395e-20
7.38647e-22
1.27572e-23
1.73657e-25
1.76197e-27
1.18743e-29
4.13601e-32
2.92742e-10
4.56947e-10
2.93282e-10
8.1344e-11
1.51908e-11
3.01934e-12
4.22471e-13
3.02984e-14
1.61163e-15
7.17172e-17
2.64177e-18
8.10014e-20
2.06893e-21
4.37502e-23
7.54178e-25
1.02882e-26
1.05076e-28
7.16063e-31
2.32872e-33
3.03309e-11
4.12905e-11
2.54818e-11
7.04938e-12
1.72344e-12
2.87393e-13
2.58782e-14
1.68559e-15
9.01441e-17
3.94972e-18
1.43436e-19
4.3469e-21
1.1005e-22
2.31395e-24
3.98032e-26
5.43938e-28
5.58802e-30
3.84394e-32
1.26037e-34
4.26413e-12
3.42877e-12
2.00526e-12
8.01526e-13
1.47879e-13
1.63952e-14
1.33058e-15
8.68259e-17
4.56113e-18
1.96574e-19
7.03943e-21
2.10934e-22
5.2956e-24
1.10772e-25
1.90227e-27
2.60513e-29
2.69225e-31
1.86795e-33
6.1514e-36
4.48951e-13
4.41981e-13
2.20622e-13
5.8067e-14
8.18265e-15
8.01508e-16
6.37747e-17
4.07307e-18
2.1032e-19
8.9236e-21
3.15403e-22
9.35396e-24
2.33116e-25
4.85615e-27
8.33393e-29
1.14479e-30
1.19093e-32
8.3339e-35
2.73782e-37
2.59272e-14
2.82996e-14
1.31554e-14
2.91717e-15
3.96195e-16
3.80987e-17
2.84477e-18
1.75473e-19
8.8997e-21
3.72606e-22
1.30183e-23
3.82687e-25
9.48131e-27
1.96978e-28
3.3829e-30
4.66701e-32
4.89274e-34
3.45509e-36
1.12832e-38
1.22303e-15
1.28979e-15
5.9306e-16
1.34034e-16
1.80788e-17
1.69807e-18
1.21854e-19
7.08619e-21
3.48798e-22
1.44131e-23
4.99095e-25
1.45696e-26
3.59496e-28
7.46131e-30
1.2844e-31
1.78228e-33
1.88552e-35
1.34477e-37
4.3528e-40
5.3148e-17
5.57511e-17
2.54638e-17
5.7227e-18
7.65711e-19
7.07687e-20
4.95714e-21
2.77728e-22
1.29463e-23
5.22166e-25
1.79014e-26
5.20267e-28
1.28116e-29
2.66137e-31
4.59999e-33
6.43061e-35
6.87497e-37
4.9571e-39
1.58483e-41
2.07165e-18
2.18657e-18
1.00212e-18
2.25328e-19
3.01584e-20
2.76687e-21
1.90776e-22
1.04522e-23
4.72465e-25
1.81639e-26
6.09947e-28
1.75533e-29
4.32249e-31
9.00704e-33
1.56591e-34
2.2089e-36
2.38982e-38
1.74351e-40
5.48447e-43
7.25816e-20
7.76086e-20
3.61889e-20
8.20854e-21
1.10805e-21
1.01754e-22
6.9628e-24
3.76047e-25
1.66856e-26
6.26685e-28
2.03168e-29
5.70763e-31
1.39568e-32
2.91136e-34
5.10048e-36
7.27244e-38
7.97313e-40
5.8891e-42
1.81362e-44
2.29255e-21
2.50052e-21
1.20398e-21
2.77777e-22
3.81135e-23
3.53039e-24
2.41591e-25
1.29582e-26
5.68292e-28
2.10532e-29
6.71401e-31
1.84915e-32
4.42152e-34
9.15399e-36
1.60935e-37
2.31213e-39
2.56721e-41
1.92069e-43
5.74675e-46
6.54705e-23
7.34002e-23
3.70639e-23
8.77048e-24
1.23224e-24
1.15949e-25
7.99063e-27
4.28569e-28
1.87e-29
6.87171e-31
2.17221e-32
5.92873e-34
1.40647e-35
2.88695e-37
5.04442e-39
7.24867e-41
8.12108e-43
6.14979e-45
1.7841e-47
1.69629e-24
1.97072e-24
1.06061e-24
2.59595e-25
3.76076e-26
3.6181e-27
2.52686e-28
1.36354e-29
5.95462e-31
2.18266e-32
6.8713e-34
1.86793e-35
4.42011e-37
9.06536e-39
1.58741e-40
2.29531e-42
2.59513e-44
1.98412e-46
5.60782e-49
4.00789e-26
4.85682e-26
2.83454e-26
7.23824e-27
1.08838e-27
1.07685e-28
7.6645e-30
4.18394e-31
1.83829e-32
6.75454e-34
2.12727e-35
5.78198e-37
1.36893e-38
2.81442e-40
4.95346e-42
7.2218e-44
8.25696e-46
6.38314e-48
1.75453e-50
8.66361e-28
1.10379e-27
7.10868e-28
1.91054e-28
3.00052e-29
3.06929e-30
2.23746e-31
1.24153e-32
5.51339e-34
2.03948e-35
6.45099e-37
1.75919e-38
4.17945e-40
8.63264e-42
1.52952e-43
2.25067e-45
2.60395e-47
2.03597e-49
5.43836e-52
1.72056e-29
2.32403e-29
1.681e-29
4.79662e-30
7.9157e-31
8.41136e-32
6.30788e-33
3.5728e-34
1.61004e-35
6.01828e-37
1.91835e-38
5.26424e-40
1.25814e-41
2.61594e-43
4.6726e-45
6.94599e-47
8.13497e-49
6.43253e-51
1.66949e-53
3.15213e-31
4.55541e-31
3.76708e-31
1.15065e-31
2.00693e-32
2.22498e-33
1.72317e-34
9.99915e-36
4.58833e-37
1.73868e-38
5.60119e-40
1.55063e-41
3.73595e-43
7.8324e-45
1.41208e-46
2.12208e-48
2.51646e-50
2.01206e-52
5.07432e-55
5.26459e-33
8.54585e-33
7.9403e-33
2.64877e-33
4.90975e-34
5.70154e-35
4.5758e-36
2.72896e-37
1.27893e-38
4.92645e-40
1.60797e-41
4.50046e-43
1.09501e-44
2.31795e-46
4.22201e-48
6.41768e-50
7.70657e-52
6.22931e-54
1.52697e-56
8.08726e-35
1.54103e-34
1.58278e-34
5.87459e-35
1.16313e-35
1.41992e-36
1.18451e-37
7.28074e-39
3.49388e-40
1.37135e-41
4.54458e-43
1.28831e-44
3.17034e-46
6.78389e-48
1.24933e-49
1.92159e-51
2.33669e-53
1.90888e-55
4.55002e-58
1.16212e-36
2.65532e-36
3.0269e-36
1.25996e-36
2.67655e-37
3.44595e-38
2.99621e-39
1.90276e-40
9.37097e-42
3.75557e-43
1.26598e-44
3.64074e-46
9.07329e-48
1.9645e-49
3.66027e-51
5.69825e-53
7.01624e-55
5.79069e-57
1.34287e-59
1.58127e-38
4.40683e-38
5.5919e-38
2.62246e-38
5.99765e-39
8.16606e-40
7.41848e-41
4.87827e-42
2.4707e-43
1.0129e-44
3.47891e-46
1.01639e-47
2.5682e-49
5.63133e-51
1.06212e-52
1.67394e-54
2.08672e-56
1.73929e-58
3.9262e-61
2.07544e-40
7.0979e-40
1.00507e-39
5.31327e-40
1.31129e-40
1.89224e-41
1.79988e-42
1.22803e-43
6.4081e-45
2.69204e-46
9.43508e-48
2.80409e-49
7.19162e-51
1.5983e-52
3.05312e-54
4.87203e-56
6.14742e-58
5.17231e-60
1.10709e-62
2.59154e-42
1.0617e-41
1.53181e-41
9.10607e-42
2.59029e-42
4.10719e-43
4.16774e-44
2.98587e-45
1.61861e-46
7.01068e-48
2.51971e-49
7.64774e-51
1.9937e-52
4.4947e-54
8.70023e-56
1.40583e-57
1.79454e-59
1.52261e-61
3.11491e-64
1.23624e-43
6.68932e-43
3.7768e-42
1.48341e-42
2.18263e-43
2.16825e-44
1.52797e-45
8.18634e-47
3.51851e-48
1.25821e-49
3.81067e-51
9.9569e-53
2.5995e-54
6.00615e-56
1.18902e-57
1.96212e-59
2.55432e-61
2.20376e-63
3.11491e-64
)
;

boundaryField
{
    leftWall
    {
        type            zeroGradient;
    }
    rightWall
    {
        type            zeroGradient;
    }
    lowerWall
    {
        type            zeroGradient;
    }
    atmosphere
    {
        type            inletOutlet;
        inletValue      uniform 0;
        value           nonuniform List<scalar> 
46
(
0
0
0
0
0
0
0
0
0
0
0
0
0
0
0
0
0
0
0
0
3.8721e-54
1.63645e-52
9.00979e-50
4.45766e-48
1.86081e-46
2.30304e-45
2.13237e-44
1.23624e-43
6.68932e-43
3.7768e-42
1.48341e-42
2.18263e-43
2.16825e-44
1.52797e-45
8.18634e-47
3.51851e-48
1.25821e-49
3.81067e-51
9.9569e-53
2.5995e-54
6.00615e-56
1.18902e-57
1.96212e-59
2.55432e-61
2.20376e-63
3.11491e-64
)
;
    }
    defaultFaces
    {
        type            empty;
    }
}


// ************************************************************************* //
