/*--------------------------------*- C++ -*----------------------------------*\
  =========                 |
  \\      /  F ield         | OpenFOAM: The Open Source CFD Toolbox
   \\    /   O peration     | Website:  https://openfoam.org
    \\  /    A nd           | Version:  7
     \\/     M anipulation  |
\*---------------------------------------------------------------------------*/
FoamFile
{
    version     2.0;
    format      ascii;
    class       volScalarField;
    location    "0.2";
    object      p;
}
// * * * * * * * * * * * * * * * * * * * * * * * * * * * * * * * * * * * * * //

dimensions      [1 -1 -2 0 0 0 0];

internalField   nonuniform List<scalar> 
2268
(
2177.28
2189.51
2206.65
2224.32
2239.82
2252.65
2262.86
2270.27
2274.39
2274.74
2271.14
2264.05
2255.08
2247.63
2247.74
2265.05
2315.1
2413.2
2575.19
2797.2
3042
3214.88
3318.08
2116.14
2126.72
2140.74
2155.83
2169.35
2180.51
2189.16
2194.99
2197.51
2196.31
2191.28
2183.06
2173.46
2166.08
2167.06
2185.73
2234.3
2331.4
2493.24
2722.55
2989.17
3175.99
3292.14
2053.76
2064.09
2075.3
2087.15
2097.81
2106.33
2112.41
2115.65
2115.54
2111.75
2104.32
2094.1
2083.12
2075.25
2076.71
2096.69
2147.1
2243.85
2402.11
2626.51
2900.42
3123.36
3299.2
1989.86
2000.89
2010.39
2019.6
2027.59
2033.44
2036.83
2037.29
2034.33
2027.64
2017.4
2004.57
1991.37
1981.77
1982.02
2001.12
2050.55
2144.31
2296.27
2511.05
2779.16
3036.1
3278.2
1924.41
1936.32
1944.84
1952.18
1958.07
1961.71
1962.75
1960.73
1955.12
1945.66
1932.54
1916.78
1900.63
1888.04
1885.15
1900.66
1945.51
2032.42
2173.8
2374.69
2628.23
2905.99
3195.46
1857.39
1870.06
1877.89
1883.82
1888.09
1889.93
1889
1884.8
1876.8
1864.71
1848.7
1829.77
1810.07
1793.43
1785.78
1795.36
1832.47
1908.57
2034.34
2214.97
2442.54
2722.64
3014.44
1788.8
1802.03
1809.26
1814.05
1817.01
1817.38
1814.77
1808.65
1798.46
1783.85
1764.94
1742.61
1718.87
1697.33
1683.55
1685.25
1711.85
1773.31
1878.14
2030.52
2217.44
2474.17
2685.66
1718.66
1732.09
1738.83
1742.67
1744.6
1743.81
1739.8
1732.03
1719.87
1702.9
1681.15
1655.34
1627.24
1600.12
1579.08
1571.14
1584.57
1627.48
1705.75
1820.47
1950.93
2137.32
2153.27
1.20489
1.13239
1.05327
0.96907
0.890746
0.82285
0.765754
0.718912
0.681276
0.6517
0.628824
0.611384
0.598142
0.587929
0.579948
0.573627
0.56853
0.564368
0.561114
1.15795
1.08244
0.997207
0.909418
0.828149
0.758981
0.701074
0.654119
0.616821
0.587861
0.565699
0.548955
0.536372
0.526737
0.519206
0.513213
0.508351
0.504196
0.501152
1.10812
1.03232
0.941403
0.850078
0.765459
0.693218
0.633762
0.586531
0.549729
0.521685
0.500596
0.484912
0.473298
0.4645
0.457621
0.452103
0.447597
0.443635
0.440979
1.05603
0.980771
0.883583
0.789144
0.700554
0.625427
0.564322
0.516883
0.480831
0.453995
0.434278
0.419924
0.409503
0.401725
0.395637
0.390696
0.386615
0.382894
0.380457
0.997894
0.926968
0.822994
0.725944
0.633331
0.555376
0.492716
0.445203
0.410186
0.384864
0.366803
0.354035
0.345008
0.338397
0.333235
0.328991
0.325407
0.321971
0.319697
0.926943
0.870318
0.759999
0.660314
0.563394
0.482504
0.41847
0.371132
0.337501
0.314094
0.29803
0.287108
0.279676
0.274407
0.270342
0.266938
0.263942
0.260861
0.258777
0.829789
0.80849
0.69523
0.592298
0.490501
0.406397
0.341245
0.294467
0.262616
0.241557
0.227883
0.219113
0.2135
0.209749
0.206943
0.204526
0.202223
0.199588
0.197755
0.679951
0.732679
0.629253
0.521786
0.414555
0.326932
0.26101
0.21531
0.185689
0.167405
0.156521
0.150234
0.14668
0.144614
0.143188
0.141858
0.140319
0.138215
0.13669
1606.61
1619.51
1625.69
1628.34
1628.94
1626.75
1621.02
1611.09
1596.25
1575.95
1549.99
1518.75
1483.52
1446.88
1413.03
1387.65
1376.91
1385.64
1414.83
1457.85
1480.73
1425.33
849.034
1447.75
1459.49
1464.47
1465.9
1465.21
1461.53
1453.94
1441.6
1423.63
1399.23
1367.79
1329.05
1283.36
1232.11
1178.08
1125.08
1076.61
1033.75
992.91
943.349
855.521
692.287
433.587
1283.33
1293.25
1296.68
1296.97
1295.11
1290.05
1280.75
1266.22
1245.45
1217.39
1180.97
1135.13
1078.93
1012.35
936.824
854.795
768.265
676.561
576
462.212
335.765
214.099
157.786
1114.44
1122.11
1123.91
1123.04
1119.95
1113.43
1102.38
1085.78
1062.56
1031.51
991.141
939.423
873.814
792.592
696.16
586.81
466.651
335.077
199.162
93.9632
37.5859
3.95146
-48.0085
942.266
947.447
947.689
945.591
941.115
932.995
920.146
901.619
876.424
843.339
800.599
745.263
672.591
578.684
463.83
332.912
193.709
75.9139
20.396
1.63749
-4.32262
-9.12226
-29.5056
768.081
770.563
769.495
766.147
760.186
750.388
735.755
715.512
688.883
654.788
611.601
555.943
479.906
376.898
251.075
121.904
31.6862
-1.85782
-4.29184
-5.35589
-6.20372
-6.67108
-6.4521
593.396
592.796
590.927
586.512
579.03
567.454
550.931
528.902
500.852
466.135
424.678
374.12
301.296
198.559
86.9485
16.6019
-4.13504
-5.04835
-5.55176
-5.93846
-6.26955
-6.56872
-6.07581
418.321
415.232
412.94
407.382
397.946
384.007
364.904
340.277
309.881
274.249
238.159
204.415
149.058
67.5165
10.5105
-4.26157
-5.08292
-5.41939
-5.64776
-5.94169
-6.2648
-6.6679
-6.91489
240.859
239.668
235.781
227.944
216.323
200.419
179.8
154.535
125.219
94.2492
71.6309
65.7106
44.9407
6.84119
-4.25254
-4.86887
-5.20981
-5.42757
-5.65108
-5.91552
-6.20052
-6.52841
-6.90357
79.4395
85.2171
78.3343
69.987
61.0297
50.5166
38.7828
26.9156
16.491
8.36444
3.63124
4.97876
0.693359
-4.20389
-4.59459
-4.9058
-5.1511
-5.36555
-5.57544
-5.78696
-6.0003
-6.22996
-6.52037
6.79729
7.71914
6.28687
4.71673
3.01628
0.991413
-1.06179
-2.6761
-3.33457
-3.54707
-3.48875
-3.46038
-3.90845
-4.26012
-4.56381
-4.82393
-5.04971
-5.24287
-5.40932
-5.55686
-5.69688
-5.84677
-6.05274
-3.03368
-2.16577
-2.46703
-2.75488
-2.87948
-2.99492
-3.08122
-3.09514
-3.10858
-3.24357
-3.41906
-3.6436
-3.94609
-4.2468
-4.5066
-4.73312
-4.92351
-5.07413
-5.18777
-5.27111
-5.33738
-5.40731
-5.49611
-2.80992
-2.74764
-2.73783
-2.75688
-2.78994
-2.85141
-2.94145
-3.0672
-3.24823
-3.41004
-3.58436
-3.7829
-4.01077
-4.24467
-4.45633
-4.63763
-4.78184
-4.88501
-4.94705
-4.97125
-4.96593
-4.94261
-4.8868
-2.92545
-2.87306
-2.88024
-2.91704
-2.9741
-3.04811
-3.14085
-3.25611
-3.39691
-3.54265
-3.69712
-3.86585
-4.05015
-4.23383
-4.39929
-4.53554
-4.63574
-4.69609
-4.71479
-4.69217
-4.63073
-4.5308
-4.36159
-3.01867
-3.00494
-3.02361
-3.06262
-3.12156
-3.195
-3.28262
-3.38563
-3.50425
-3.63344
-3.77116
-3.91637
-4.06652
-4.21015
-4.33496
-4.43193
-4.49518
-4.52107
-4.50739
-4.45286
-4.35628
-4.21274
-3.99318
-3.13433
-3.13695
-3.1597
-3.19799
-3.25191
-3.31862
-3.39766
-3.48935
-3.59306
-3.70597
-3.82498
-3.94687
-4.06692
-4.17684
-4.26776
-4.33272
-4.36701
-4.3674
-4.33184
-4.2584
-4.14434
-3.98433
-3.75806
-3.24541
-3.2577
-3.28332
-3.32072
-3.36954
-3.42883
-3.49844
-3.57835
-3.6677
-3.76404
-3.86395
-3.96335
-4.05727
-4.13928
-4.20293
-4.24297
-4.25577
-4.23868
-4.18992
-4.10747
-3.9885
-3.82929
-3.6178
-3.34744
-3.36578
-3.39402
-3.43038
-3.47454
-3.52666
-3.58691
-3.65515
-3.73045
-3.81059
-3.89224
-3.97131
-4.04316
-4.1027
-4.14514
-4.16659
-4.16431
-4.1362
-4.08074
-3.99618
-3.88028
-3.73122
-3.54282
-3.4419
-3.46359
-3.4936
-3.52866
-3.56846
-3.61382
-3.66515
-3.72232
-3.78443
-3.84951
-3.9146
-3.97602
-4.0297
-4.07161
-4.09808
-4.10621
-4.09392
-4.0596
-4.00199
-3.9197
-3.81122
-3.67625
-3.51214
-3.53086
-3.55413
-3.58486
-3.61827
-3.65394
-3.69306
-3.73619
-3.78322
-3.83339
-3.88501
-3.93562
-3.98214
-4.02119
-4.04951
-4.06428
-4.06324
-4.04478
-4.00762
-3.9508
-3.87329
-3.77423
-3.65425
-3.51261
-3.61678
-3.64033
-3.67071
-3.70208
-3.73384
-3.76731
-3.80309
-3.84114
-3.88084
-3.92086
-3.95921
-3.99345
-4.02087
-4.03886
-4.0452
-4.03808
-4.01618
-3.9785
-3.92428
-3.85283
-3.76379
-3.65827
-3.53651
-3.70185
-3.72469
-3.75377
-3.78275
-3.81081
-3.83922
-3.86855
-3.89886
-3.92967
-3.95997
-3.98825
-4.0126
-4.0309
-4.0411
-4.0414
-4.03036
-4.00686
-3.9701
-3.91952
-3.85467
-3.7755
-3.68334
-3.57887
-3.7877
-3.80913
-3.83618
-3.86249
-3.88705
-3.91095
-3.93473
-3.95851
-3.98197
-4.00436
-4.02456
-4.0411
-4.05235
-4.0567
-4.05273
-4.03923
-4.0153
-3.98031
-3.93382
-3.87557
-3.80571
-3.72558
-3.63603
-3.8754
-3.89497
-3.91949
-3.94297
-3.96424
-3.98416
-4.00323
-4.0216
-4.03908
-4.05514
-4.06896
-4.07943
-4.08531
-4.08535
-4.07839
-4.06348
-4.03986
-4.00706
-3.96474
-3.91278
-3.85143
-3.78192
-3.70514
-3.96548
-3.98295
-4.00469
-4.02528
-4.04348
-4.05993
-4.07505
-4.08899
-4.10167
-4.11273
-4.12157
-4.12737
-4.1292
-4.12609
-4.11715
-4.10157
-4.07875
-4.04833
-4.01006
-3.9639
-3.91014
-3.8499
-3.78398
-4.05804
-4.07335
-4.09225
-4.11
-4.1254
-4.13884
-4.15067
-4.16103
-4.16989
-4.17704
-4.18202
-4.18426
-4.18307
-4.17772
-4.1675
-4.15178
-4.13008
-4.10208
-4.06762
-4.02671
-3.97964
-3.9274
-3.87069
-4.15291
-4.16612
-4.18229
-4.19736
-4.2102
-4.22106
-4.23018
-4.23766
-4.24354
-4.24766
-4.24971
-4.24928
-4.24588
-4.23897
-4.228
-4.21249
-4.19205
-4.16641
-4.13547
-4.09925
-4.05804
-4.01268
-3.96376
-4.24978
-4.26107
-4.27472
-4.28733
-4.2979
-4.30657
-4.31345
-4.31865
-4.3222
-4.32403
-4.3239
-4.32153
-4.31658
-4.30864
-4.29732
-4.28224
-4.2631
-4.23969
-4.21194
-4.17988
-4.14377
-4.10432
-4.06203
-4.34839
-4.35797
-4.36938
-4.37981
-4.3884
-4.39519
-4.40024
-4.40362
-4.40539
-4.40549
-4.40379
-4.40007
-4.39409
-4.38557
-4.3742
-4.35971
-4.34188
-4.32054
-4.29565
-4.26726
-4.23558
-4.20122
-4.16459
-4.44851
-4.45662
-4.4661
-4.47465
-4.48154
-4.48674
-4.49026
-4.49219
-4.49257
-4.4914
-4.48857
-4.48396
-4.47737
-4.4686
-4.45743
-4.44366
-4.42712
-4.40771
-4.3854
-4.36024
-4.33243
-4.30247
-4.27069
-4.54996
-4.55681
-4.56467
-4.57165
-4.57708
-4.58093
-4.5832
-4.58395
-4.58324
-4.58111
-4.5775
-4.57232
-4.56542
-4.55666
-4.54587
-4.53291
-4.51766
-4.50005
-4.48007
-4.45779
-4.43337
-4.40724
-4.37967
-4.65255
-4.65835
-4.66487
-4.67053
-4.67476
-4.67747
-4.67869
-4.67848
-4.67691
-4.67406
-4.66989
-4.66436
-4.65737
-4.64879
-4.63852
-4.62643
-4.61245
-4.59653
-4.57869
-4.55898
-4.53758
-4.51482
-4.49092
-4.7561
-4.76102
-4.76645
-4.77103
-4.77424
-4.776
-4.77634
-4.77535
-4.77311
-4.76971
-4.76517
-4.75946
-4.75251
-4.74423
-4.73455
-4.72337
-4.71063
-4.69631
-4.68043
-4.66307
-4.64436
-4.62459
-4.60393
-4.86043
-4.86461
-4.86914
-4.87284
-4.87519
-4.87615
-4.87577
-4.87414
-4.87139
-4.86761
-4.86284
-4.85707
-4.85027
-4.84239
-4.83334
-4.82307
-4.81154
-4.79874
-4.78469
-4.76946
-4.75319
-4.73611
-4.71835
-4.96539
-4.96892
-4.97271
-4.97568
-4.9773
-4.97758
-4.97659
-4.97447
-4.97136
-4.96735
-4.96248
-4.95678
-4.95023
-4.94279
-4.93442
-4.92507
-4.91472
-4.90335
-4.89101
-4.87776
-4.86371
-4.84908
-4.83395
-5.0708
-5.07382
-5.07699
-5.07933
-5.08031
-5.07997
-5.07849
-5.07602
-5.07269
-5.06858
-5.06375
-5.05823
-5.05202
-5.0451
-5.03744
-5.02901
-5.0198
-5.0098
-4.99905
-4.98762
-4.97563
-4.96327
-4.95057
-5.17634
-5.17931
-5.1819
-5.18365
-5.18399
-5.18312
-5.18124
-5.17854
-5.17511
-5.17104
-5.16637
-5.16114
-5.15536
-5.14901
-5.1421
-5.1346
-5.1265
-5.11781
-5.10855
-5.0988
-5.08873
-5.07851
-5.0681
-5.28189
-5.28562
-5.28751
-5.28854
-5.28821
-5.28684
-5.28466
-5.28183
-5.27843
-5.27451
-5.27011
-5.26527
-5.25999
-5.25428
-5.24815
-5.2416
-5.2346
-5.22715
-5.21928
-5.21106
-5.2028
-5.19465
-5.18645
-5.38791
-5.39301
-5.39382
-5.39385
-5.39282
-5.39101
-5.38864
-5.38581
-5.38254
-5.37887
-5.37483
-5.37044
-5.36572
-5.36071
-5.3554
-5.3498
-5.34389
-5.33766
-5.33106
-5.32418
-5.3176
-5.31153
-5.30551
-5.49488
-5.50246
-5.50108
-5.49949
-5.49774
-5.49567
-5.49327
-5.49054
-5.48749
-5.48414
-5.4805
-5.47661
-5.47251
-5.46822
-5.46376
-5.45914
-5.45432
-5.44926
-5.44374
-5.43769
-5.4326
-5.42881
-5.4251
-5.5992
-5.61737
-5.61011
-5.60544
-5.60301
-5.60088
-5.59857
-5.59604
-5.59326
-5.59025
-5.58704
-5.58368
-5.58022
-5.57668
-5.5731
-5.56948
-5.56578
-5.56183
-5.55691
-5.55016
-5.54622
-5.54564
-5.54479
-5.68935
-5.73629
-5.71693
-5.70942
-5.70656
-5.70437
-5.70216
-5.69983
-5.69735
-5.69474
-5.69203
-5.68929
-5.68656
-5.68391
-5.68136
-5.67889
-5.67646
-5.67376
-5.66952
-5.66086
-5.65901
-5.66323
-5.66522
-291.142
-42.2082
-1.37312
0.57464
95.7767
1.22911
-0.714578
1.36015
100.728
34.3229
-21.8412
-12.2443
-95.2445
-84.9183
-71.1641
-39.503
-109.747
-136.116
-109.543
-64.8699
-30.2361
-79.0612
-91.3891
-64.4036
-6.39079
-18.6218
-45.4147
-39.9361
-6.29239
-6.20672
-15.1729
-24.2204
-6.84366
-6.49721
-6.74177
-7.42363
-6.65447
-6.57502
-5.9575
-5.38669
-6.18571
-6.20682
-6.02212
-5.43433
-5.52116
-5.50323
-5.36626
-5.01584
-4.76416
-4.64956
-4.45297
-4.10123
-4.13137
-3.93807
-3.68773
-3.35284
-3.73486
-3.52674
-3.27657
-2.98673
-3.51434
-3.32566
-3.10929
-2.8744
-3.4031
-3.241
-3.06114
-2.87336
-3.35986
-3.22372
-3.07579
-2.92548
-3.35817
-3.24479
-3.12331
-3.00225
-3.38335
-3.28903
-3.18896
-3.09052
-3.4279
-3.34929
-3.26649
-3.18561
-3.48743
-3.42171
-3.35283
-3.28579
-3.55881
-3.50366
-3.44606
-3.39011
-3.63973
-3.59324
-3.54483
-3.49786
-3.72836
-3.68899
-3.64811
-3.60847
-3.82321
-3.78974
-3.75504
-3.72143
-3.92308
-3.89449
-3.86492
-3.83628
-4.02704
-4.00252
-3.9772
-3.95268
-4.1344
-4.11329
-4.09152
-4.07042
-4.2446
-4.22636
-4.20755
-4.18932
-4.35709
-4.34131
-4.32501
-4.30922
-4.4714
-4.45773
-4.44362
-4.42995
-4.5871
-4.57531
-4.56314
-4.55136
-4.70392
-4.69383
-4.68341
-4.67334
-4.8217
-4.81314
-4.80433
-4.79583
-4.94032
-4.93318
-4.92585
-4.9188
-5.05973
-5.05391
-5.04795
-5.04223
-5.17985
-5.17527
-5.17059
-5.16611
-5.30062
-5.29722
-5.29375
-5.29044
-5.42197
-5.41972
-5.4174
-5.41519
-5.54368
-5.54265
-5.54148
-5.54034
-5.66546
-5.66553
-5.6656
-5.66565
0.247768
0.593201
0.529199
0.408302
0.290143
0.196379
0.130076
0.0874289
0.062498
0.0494809
0.0436927
0.0418546
0.0419263
0.0427256
0.0435437
0.0439271
0.0435727
0.042342
0.0412861
0.898396
0.696507
0.469898
0.259773
0.099619
-0.00707948
-0.0704331
-0.103032
-0.116
-0.117638
-0.113622
-0.107518
-0.101308
-0.0959275
-0.0917581
-0.0889583
-0.0876093
-0.0876403
-0.0879943
0.0682036
0.827812
0.477198
0.0829657
-0.141792
-0.255374
-0.303996
-0.315717
-0.308458
-0.292995
-0.275501
-0.259237
-0.245609
-0.234934
-0.227031
-0.221594
-0.218349
-0.217012
-0.216472
-2.49051
0.81337
0.394536
-0.206228
-0.488589
-0.57709
-0.582167
-0.553562
-0.514235
-0.474756
-0.439933
-0.411507
-0.389523
-0.373164
-0.361388
-0.353261
-0.348062
-0.345319
-0.343727
-4.01622
0.782286
0.000138514
-0.750551
-1.01667
-1.00292
-0.910946
-0.81316
-0.727946
-0.657983
-0.603001
-0.561398
-0.530915
-0.509078
-0.493724
-0.483156
-0.476122
-0.472239
-0.469337
-6.70853
-0.28149
-0.971475
-1.66104
-1.76206
-1.53548
-1.2767
-1.07867
-0.937589
-0.834032
-0.758829
-0.70503
-0.667245
-0.640996
-0.622942
-0.610602
-0.602283
-0.596958
-0.593337
-9.97382
-2.1068
-2.28273
-2.82203
-2.62756
-2.10706
-1.63258
-1.31783
-1.12543
-0.991193
-0.900268
-0.838054
-0.795804
-0.767319
-0.748085
-0.734996
-0.725992
-0.719793
-0.715549
-13.0222
-2.77555
-3.43544
-3.9107
-3.42103
-2.58637
-1.90644
-1.49864
-1.26242
-1.1154
-1.01997
-0.956649
-0.914712
-0.887064
-0.868672
-0.856151
-0.847301
-0.840797
-0.836145
-5.46508
0.777727
-2.98402
-4.4534
-3.89438
-2.85029
-2.02623
-1.57588
-1.33762
-1.19957
-1.11421
-1.05918
-1.02338
-1.00016
-0.984865
-0.974339
-0.96655
-0.960314
-0.955534
-6.32198
5.06249
-0.0597688
-3.8107
-3.78598
-2.76683
-1.93328
-1.53033
-1.34408
-1.24391
-1.18469
-1.14731
-1.12321
-1.10776
-1.0976
-1.09034
-1.08443
-1.07898
-1.07436
-5.41356
-4.93133
-0.0582427
-2.49924
-2.85262
-2.1913
-1.61965
-1.38041
-1.29788
-1.26085
-1.2399
-1.22643
-1.21768
-1.21221
-1.20852
-1.20538
-1.2019
-1.19765
-1.19342
-4.436
-4.07163
-1.6849
-0.898096
-1.25528
-1.29413
-1.21812
-1.20855
-1.24403
-1.27488
-1.29362
-1.30463
-1.31172
-1.31664
-1.31974
-1.32094
-1.3201
-1.31728
-1.31358
-3.16157
-1.93573
-0.898325
0.315867
-0.0378333
-0.634621
-0.943926
-1.11447
-1.23341
-1.31154
-1.3596
-1.39
-1.41033
-1.42424
-1.43336
-1.4385
-1.44011
-1.43855
-1.43546
-2.59344
-1.46751
-0.518202
0.0127437
-0.0912533
-0.575999
-0.928453
-1.14388
-1.28818
-1.38371
-1.44606
-1.48802
-1.51718
-1.5375
-1.55112
-1.55936
-1.56302
-1.56273
-1.56024
-2.43067
-1.62297
-0.949868
-0.595026
-0.618518
-0.856926
-1.09281
-1.27051
-1.39937
-1.49047
-1.55471
-1.60076
-1.63405
-1.65782
-1.67413
-1.68438
-1.68948
-1.69017
-1.68821
-2.46259
-1.88625
-1.41051
-1.13049
-1.08426
-1.18684
-1.32524
-1.44885
-1.54801
-1.62465
-1.68318
-1.72766
-1.76108
-1.78561
-1.80284
-1.81398
-1.81986
-1.82118
-1.81967
-2.55898
-2.1322
-1.77807
-1.55385
-1.47792
-1.50537
-1.57435
-1.64972
-1.7189
-1.77823
-1.82719
-1.8665
-1.89721
-1.92041
-1.93711
-1.94816
-1.95421
-1.95586
-1.95468
-2.68193
-2.36043
-2.08882
-1.9038
-1.8138
-1.79638
-1.81855
-1.85765
-1.90161
-1.94417
-1.98224
-2.01455
-2.04083
-2.06132
-2.07642
-2.08662
-2.09236
-2.09405
-2.0931
-2.81074
-2.56342
-2.34936
-2.19223
-2.09818
-2.05677
-2.05056
-2.06473
-2.08904
-2.1169
-2.14431
-2.16909
-2.19017
-2.20716
-2.22001
-2.22886
-2.23392
-2.23546
-2.23466
-2.93713
-2.74167
-2.56877
-2.43413
-2.34322
-2.29142
-2.26928
-2.267
-2.27664
-2.29235
-2.31021
-2.32776
-2.34354
-2.35675
-2.36704
-2.37426
-2.37843
-2.37967
-2.37895
-3.06056
-2.90246
-2.76029
-2.64483
-2.5607
-2.50605
-2.4755
-2.46266
-2.46166
-2.46779
-2.47759
-2.48867
-2.49947
-2.509
-2.51667
-2.52217
-2.52535
-2.52622
-2.52555
-3.18246
-3.05238
-2.93404
-2.83491
-2.75873
-2.70502
-2.6705
-2.6511
-2.64264
-2.6415
-2.6448
-2.65041
-2.65682
-2.66296
-2.66816
-2.67198
-2.67415
-2.67462
-2.67397
-3.30393
-3.1956
-3.09614
-3.01082
-2.94257
-2.89145
-2.85566
-2.83247
-2.819
-2.81254
-2.8108
-2.81197
-2.81467
-2.81786
-2.82084
-2.82311
-2.82435
-2.82443
-2.82379
-3.4255
-3.33445
-3.25018
-3.17647
-3.11559
-3.06787
-3.03233
-3.00726
-2.99063
-2.98046
-2.97498
-2.97269
-2.97237
-2.97311
-2.97418
-2.9751
-2.9755
-2.97522
-2.97459
-3.54736
-3.47026
-3.39835
-3.33439
-3.28019
-3.23616
-3.20185
-3.17616
-3.15777
-3.14517
-3.13704
-3.13215
-3.1295
-3.12825
-3.12775
-3.12752
-3.12721
-3.12664
-3.12601
-3.66953
-3.60383
-3.54208
-3.48638
-3.43816
-3.39788
-3.36537
-3.33998
-3.3208
-3.30678
-3.29688
-3.29015
-3.28574
-3.28296
-3.28121
-3.28006
-3.27917
-3.27835
-3.27773
-3.79199
-3.73568
-3.6824
-3.63374
-3.59089
-3.55428
-3.52392
-3.49942
-3.4802
-3.46549
-3.45454
-3.44658
-3.44094
-3.43702
-3.43432
-3.43245
-3.43111
-3.43012
-3.42951
-3.91471
-3.86625
-3.82011
-3.77753
-3.73949
-3.70641
-3.67837
-3.65517
-3.63643
-3.62161
-3.61014
-3.60145
-3.59499
-3.59028
-3.58689
-3.5845
-3.58284
-3.58173
-3.58115
-4.03773
-3.99589
-3.95584
-3.91856
-3.88486
-3.85512
-3.82947
-3.80782
-3.78991
-3.77539
-3.76383
-3.7548
-3.74787
-3.74266
-3.73882
-3.73608
-3.73421
-3.73303
-3.73248
-4.16108
-4.12489
-4.09009
-4.05748
-4.02771
-4.00111
-3.97784
-3.95787
-3.94104
-3.92711
-3.91578
-3.90671
-3.8996
-3.89414
-3.89005
-3.88711
-3.88511
-3.88391
-3.88341
-4.28478
-4.25347
-4.22326
-4.19478
-4.16857
-4.14492
-4.12398
-4.10575
-4.09015
-4.07702
-4.06614
-4.05729
-4.05022
-4.04471
-4.04054
-4.03751
-4.03548
-4.0343
-4.03387
-4.40882
-4.38178
-4.35562
-4.33084
-4.30788
-4.28698
-4.26827
-4.2518
-4.23752
-4.22533
-4.2151
-4.20665
-4.19981
-4.19441
-4.19028
-4.18729
-4.18529
-4.18416
-4.18381
-4.53318
-4.50992
-4.48739
-4.46594
-4.44595
-4.42761
-4.41105
-4.39632
-4.38341
-4.37227
-4.3628
-4.3549
-4.34843
-4.34328
-4.33932
-4.33644
-4.33452
-4.33348
-4.33319
-4.65782
-4.63798
-4.61871
-4.60029
-4.58303
-4.56709
-4.55258
-4.53957
-4.52806
-4.51802
-4.50942
-4.50216
-4.49618
-4.49138
-4.48768
-4.48497
-4.48319
-4.48224
-4.48203
-4.78275
-4.76601
-4.7497
-4.73405
-4.71932
-4.70563
-4.69309
-4.68175
-4.67165
-4.66277
-4.65509
-4.64858
-4.64316
-4.6388
-4.63541
-4.63294
-4.63132
-4.63048
-4.63033
-4.90796
-4.89405
-4.88047
-4.86738
-4.855
-4.84344
-4.83277
-4.82307
-4.81437
-4.80667
-4.79997
-4.79425
-4.78947
-4.7856
-4.78258
-4.78038
-4.77895
-4.77822
-4.77812
-5.03346
-5.02218
-5.01111
-5.00041
-4.99023
-4.98067
-4.97182
-4.96371
-4.9564
-4.94989
-4.94419
-4.9393
-4.9352
-4.93186
-4.92925
-4.92734
-4.92611
-4.92549
-4.92545
-5.15927
-5.15042
-5.14171
-5.13323
-5.12513
-5.11749
-5.11037
-5.10382
-5.09787
-5.09256
-5.08788
-5.08385
-5.08045
-5.07766
-5.07548
-5.07388
-5.07285
-5.07236
-5.07236
-5.28539
-5.27883
-5.27232
-5.26595
-5.25982
-5.25401
-5.24856
-5.24352
-5.23892
-5.23479
-5.23114
-5.22797
-5.22529
-5.22308
-5.22134
-5.22006
-5.21924
-5.21886
-5.21889
-5.41183
-5.40747
-5.40306
-5.3987
-5.39446
-5.3904
-5.38657
-5.383
-5.37973
-5.37677
-5.37414
-5.37183
-5.36987
-5.36823
-5.36693
-5.36595
-5.36532
-5.36505
-5.36509
-5.53863
-5.53644
-5.53411
-5.53172
-5.52932
-5.52698
-5.52472
-5.52259
-5.5206
-5.51878
-5.51714
-5.51568
-5.5144
-5.51331
-5.51241
-5.5117
-5.51121
-5.51098
-5.51098
-5.66565
-5.66543
-5.66501
-5.66444
-5.66379
-5.66309
-5.66236
-5.66163
-5.66092
-5.66024
-5.6596
-5.659
-5.65846
-5.65798
-5.65755
-5.65717
-5.65688
-5.6567
-5.65665
)
;

boundaryField
{
    leftWall
    {
        type            calculated;
        value           nonuniform List<scalar> 
50
(
2177.28
2116.14
2053.76
1989.86
1924.41
1857.39
1788.8
1718.66
1606.61
1447.75
1283.33
1114.44
942.266
768.081
593.396
418.321
240.859
79.4395
6.79729
-3.03368
-2.80992
-2.92545
-3.01867
-3.13433
-3.24541
-3.34744
-3.4419
-3.53086
-3.61678
-3.70185
-3.7877
-3.8754
-3.96548
-4.05804
-4.15291
-4.24978
-4.34839
-4.44851
-4.54996
-4.65255
-4.7561
-4.86043
-4.96539
-5.0708
-5.17634
-5.28189
-5.38791
-5.49488
-5.5992
-5.68935
)
;
    }
    rightWall
    {
        type            calculated;
        value           nonuniform List<scalar> 
50
(
0.561114
0.501152
0.440979
0.380457
0.319697
0.258777
0.197755
0.13669
0.0412861
-0.0879943
-0.216472
-0.343727
-0.469337
-0.593337
-0.715549
-0.836145
-0.955534
-1.07436
-1.19342
-1.31358
-1.43546
-1.56024
-1.68821
-1.81967
-1.95468
-2.0931
-2.23466
-2.37895
-2.52555
-2.67397
-2.82379
-2.97459
-3.12601
-3.27773
-3.42951
-3.58115
-3.73248
-3.88341
-4.03387
-4.18381
-4.33319
-4.48203
-4.63033
-4.77812
-4.92545
-5.07236
-5.21889
-5.36509
-5.51098
-5.65665
)
;
    }
    lowerWall
    {
        type            calculated;
        value           nonuniform List<scalar> 
62
(
2206.71
2218.94
2236.08
2253.75
2269.25
2282.08
2292.29
2299.7
2303.82
2304.17
2300.57
2293.48
2284.51
2277.06
2277.17
2294.48
2344.53
2442.62
2604.62
2826.63
3071.43
3244.11
3344.03
3318.08
3292.14
3299.2
3278.2
3195.46
3014.44
2685.66
2153.27
-228.545
-19.1707
-1.31052
0.637237
1.20489
1.15795
1.10812
1.05603
0.997894
0.926943
0.829789
0.679951
1.23432
1.16182
1.0827
0.9985
0.920175
0.852279
0.795183
0.748342
0.710705
0.681129
0.658253
0.640814
0.627572
0.617359
0.609377
0.603056
0.597959
0.593798
0.590543
)
;
    }
    atmosphere
    {
        type            calculated;
        value           nonuniform List<scalar> 
46
(
-5.7446
-5.76392
-5.76082
-5.75845
-5.75638
-5.75436
-5.75227
-5.75007
-5.74776
-5.74538
-5.74297
-5.74059
-5.73833
-5.73622
-5.73432
-5.73267
-5.73131
-5.73025
-5.72953
-5.72916
-5.72904
-5.72904
-5.72904
-5.72904
-5.72904
-5.72904
-5.72904
-5.72904
-5.72904
-5.72904
-5.72904
-5.72904
-5.72904
-5.72904
-5.72904
-5.72904
-5.72904
-5.72904
-5.72904
-5.72904
-5.72904
-5.72904
-5.72904
-5.72904
-5.72904
-5.72904
)
;
    }
    defaultFaces
    {
        type            empty;
    }
}


// ************************************************************************* //
