/*--------------------------------*- C++ -*----------------------------------*\
  =========                 |
  \\      /  F ield         | OpenFOAM: The Open Source CFD Toolbox
   \\    /   O peration     | Website:  https://openfoam.org
    \\  /    A nd           | Version:  7
     \\/     M anipulation  |
\*---------------------------------------------------------------------------*/
FoamFile
{
    version     2.0;
    format      ascii;
    class       volScalarField;
    location    "0.0075";
    object      rhoM;
}
// * * * * * * * * * * * * * * * * * * * * * * * * * * * * * * * * * * * * * //

dimensions      [1 -3 0 0 0 0 0];

internalField   nonuniform List<scalar> 
1000
(
1.13134e-05
1.10972e-05
1.07136e-05
1.05741e-05
1.11042e-05
1.05323e-05
1.04416e-05
1.12925e-05
1.14041e-05
1.10972e-05
1.04625e-05
1.04276e-05
1.12576e-05
1.04207e-05
1.1439e-05
1.04555e-05
1.11879e-05
1.1167e-05
1.116e-05
1.12716e-05
1.12088e-05
1.09159e-05
1.0888e-05
1.14041e-05
1.06369e-05
1.09787e-05
1.09298e-05
1.07555e-05
1.10693e-05
1.15157e-05
1.13972e-05
1.07834e-05
1.0888e-05
1.07624e-05
1.06508e-05
1.0895e-05
1.05532e-05
1.09438e-05
1.03997e-05
1.11879e-05
1.11391e-05
1.07973e-05
1.13065e-05
1.11042e-05
1.12158e-05
1.04625e-05
1.06438e-05
1.09926e-05
1.10065e-05
1.08461e-05
1.11809e-05
1.05532e-05
1.0595e-05
1.04904e-05
1.05671e-05
1.03509e-05
1.0595e-05
1.10345e-05
1.06648e-05
1.08392e-05
1.00161e-05
1.01556e-05
1.05462e-05
1.01068e-05
1.06996e-05
1.00022e-05
1.05532e-05
1.02951e-05
1.03788e-05
9.97425e-06
1.05183e-05
1.02533e-05
1.03997e-05
1.01556e-05
1.02881e-05
9.69525e-06
1.07973e-05
1.00161e-05
1.033e-05
1.01486e-05
1.02811e-05
1.01486e-05
9.75105e-06
1.00231e-05
9.40927e-06
1.00231e-05
9.86962e-06
9.63945e-06
9.47205e-06
9.66735e-06
9.77197e-06
9.82778e-06
9.7929e-06
9.28373e-06
9.6534e-06
9.45113e-06
9.44415e-06
9.18607e-06
9.53483e-06
8.97683e-06
9.3744e-06
9.28372e-06
9.03263e-06
9.01868e-06
8.9001e-06
9.43717e-06
8.72573e-06
8.66295e-06
8.86523e-06
8.97682e-06
8.7048e-06
8.5095e-06
8.60018e-06
8.66295e-06
8.41883e-06
8.9838e-06
8.2584e-06
8.51647e-06
8.04218e-06
7.87478e-06
8.69783e-06
8.13982e-06
8.01428e-06
7.93058e-06
7.8957e-06
7.55392e-06
7.68645e-06
7.65158e-06
7.37258e-06
7.87477e-06
7.85385e-06
7.83293e-06
7.37955e-06
7.8678e-06
7.10753e-06
7.41443e-06
7.51208e-06
7.26795e-06
7.35863e-06
6.98895e-06
7.37955e-06
6.98197e-06
7.42838e-06
7.20518e-06
7.23308e-06
7.37955e-06
7.01685e-06
6.96803e-06
6.94013e-06
6.5286e-06
6.92618e-06
7.05173e-06
6.71693e-06
7.30282e-06
6.6123e-06
6.78668e-06
6.6123e-06
6.96105e-06
6.63323e-06
7.00987e-06
6.7518e-06
6.7797e-06
6.74483e-06
6.64717e-06
6.7239e-06
6.78667e-06
6.53558e-06
6.79365e-06
6.66113e-06
6.9471e-06
6.59138e-06
6.87037e-06
6.65415e-06
6.57045e-06
6.60533e-06
6.63322e-06
6.8355e-06
6.48675e-06
6.54953e-06
6.61927e-06
6.51465e-06
6.45187e-06
6.96803e-06
6.3333e-06
6.34028e-06
6.63322e-06
6.37515e-06
6.7797e-06
6.37515e-06
6.5844e-06
6.59138e-06
6.04035e-06
6.37515e-06
6.14497e-06
6.57045e-06
6.56347e-06
6.59835e-06
6.20077e-06
6.6681e-06
6.41002e-06
6.42398e-06
6.8076e-06
6.138e-06
6.39607e-06
6.59138e-06
5.9427e-06
6.59138e-06
6.3054e-06
6.5565e-06
6.54952e-06
6.20078e-06
6.53557e-06
6.35423e-06
6.59137e-06
6.59138e-06
6.2496e-06
6.29843e-06
6.9471e-06
6.59138e-06
6.53558e-06
6.5565e-06
6.3612e-06
6.56348e-06
6.64718e-06
6.57743e-06
6.8076e-06
7.0866e-06
6.3333e-06
6.6681e-06
6.36818e-06
6.39608e-06
6.6402e-06
6.77273e-06
6.84945e-06
6.45188e-06
6.80063e-06
6.87735e-06
6.5565e-06
6.3333e-06
6.68903e-06
6.78668e-06
6.54953e-06
6.45188e-06
6.84945e-06
6.66113e-06
6.5565e-06
6.40305e-06
6.78668e-06
6.35423e-06
6.70995e-06
6.24263e-06
6.41003e-06
6.80063e-06
6.20078e-06
6.37515e-06
6.75878e-06
6.65415e-06
6.417e-06
6.4449e-06
6.71693e-06
6.75878e-06
6.63323e-06
6.56348e-06
6.70995e-06
6.26355e-06
6.60533e-06
6.54255e-06
6.57743e-06
6.59138e-06
6.9471e-06
6.78668e-06
6.51465e-06
7.0866e-06
6.51465e-06
6.68903e-06
6.7797e-06
6.8076e-06
6.5007e-06
6.7518e-06
6.76575e-06
6.84248e-06
6.59138e-06
6.76575e-06
6.52163e-06
7.0029e-06
6.6681e-06
6.63323e-06
6.50768e-06
6.53558e-06
7.0308e-06
6.81458e-06
6.7797e-06
6.82853e-06
6.9192e-06
6.6123e-06
6.6402e-06
6.65415e-06
6.5565e-06
6.51465e-06
6.87735e-06
6.68903e-06
6.70298e-06
6.5007e-06
6.75878e-06
6.79365e-06
6.80063e-06
6.78668e-06
6.73785e-06
6.65415e-06
6.51465e-06
6.8913e-06
6.66113e-06
6.43095e-06
6.99593e-06
6.73785e-06
6.93315e-06
7.0587e-06
6.82853e-06
6.98198e-06
6.82853e-06
7.0587e-06
6.5007e-06
6.5844e-06
6.9471e-06
6.85643e-06
6.5844e-06
6.79365e-06
6.34028e-06
6.96803e-06
6.95408e-06
6.60533e-06
6.82155e-06
6.84248e-06
6.64718e-06
7.31678e-06
6.85643e-06
6.73088e-06
6.52163e-06
6.77273e-06
7.0587e-06
6.9192e-06
6.53558e-06
6.74483e-06
6.7239e-06
7.04475e-06
6.94013e-06
6.68903e-06
6.73785e-06
6.90525e-06
6.74483e-06
6.696e-06
6.87038e-06
6.7239e-06
6.99593e-06
7.1145e-06
6.92618e-06
6.67508e-06
6.76575e-06
6.64718e-06
6.82853e-06
6.57045e-06
6.76575e-06
6.8355e-06
6.37515e-06
6.82155e-06
7.24703e-06
7.0866e-06
7.03778e-06
7.00988e-06
7.02383e-06
7.00988e-06
6.99593e-06
7.00988e-06
7.00988e-06
7.26795e-06
6.82853e-06
6.94013e-06
6.7797e-06
6.85643e-06
7.07963e-06
6.67508e-06
6.82853e-06
6.52163e-06
7.24005e-06
6.5844e-06
6.79365e-06
7.3098e-06
6.59835e-06
6.94013e-06
6.696e-06
6.98198e-06
6.81458e-06
7.29585e-06
6.81458e-06
7.10753e-06
6.85643e-06
6.82853e-06
7.0308e-06
6.9471e-06
7.10753e-06
7.03778e-06
6.49373e-06
7.1703e-06
6.90525e-06
6.7518e-06
7.1982e-06
6.82155e-06
7.13543e-06
6.65415e-06
6.70298e-06
7.10055e-06
7.42838e-06
6.91223e-06
6.73088e-06
6.8355e-06
7.31678e-06
7.31678e-06
6.85643e-06
6.56348e-06
6.94013e-06
6.99593e-06
6.76575e-06
6.43793e-06
7.0587e-06
6.7518e-06
6.85643e-06
6.82853e-06
7.1145e-06
7.254e-06
6.80063e-06
7.09358e-06
6.45188e-06
7.1424e-06
7.1982e-06
7.15635e-06
6.62625e-06
6.7797e-06
6.96803e-06
6.96105e-06
6.67508e-06
6.61928e-06
7.13543e-06
6.8913e-06
6.975e-06
6.76575e-06
7.28888e-06
6.98895e-06
6.73785e-06
7.40048e-06
6.94013e-06
6.78668e-06
6.96105e-06
6.74483e-06
7.04475e-06
6.75878e-06
6.95408e-06
7.1424e-06
6.84248e-06
6.87735e-06
6.85643e-06
6.42398e-06
6.66113e-06
6.78668e-06
6.95408e-06
7.1145e-06
7.04475e-06
7.0029e-06
6.84248e-06
7.1703e-06
6.89828e-06
7.07963e-06
6.95408e-06
6.6681e-06
6.91223e-06
6.91223e-06
7.12845e-06
6.68205e-06
7.02383e-06
7.21913e-06
6.68903e-06
6.57743e-06
6.73785e-06
6.9192e-06
6.99593e-06
6.7797e-06
6.29145e-06
6.78668e-06
7.06568e-06
6.74483e-06
6.2496e-06
7.38653e-06
7.21913e-06
6.60533e-06
7.1424e-06
6.62625e-06
6.29843e-06
6.52163e-06
6.74483e-06
6.8634e-06
6.54255e-06
6.94013e-06
6.82155e-06
6.8355e-06
6.6402e-06
6.7239e-06
6.66113e-06
6.70298e-06
6.78668e-06
6.59138e-06
6.70298e-06
7.0029e-06
7.10753e-06
6.71693e-06
6.85643e-06
7.10753e-06
6.98895e-06
7.40745e-06
6.8355e-06
6.68205e-06
6.8355e-06
7.2819e-06
6.93315e-06
6.98198e-06
6.76575e-06
6.6123e-06
6.94013e-06
6.70298e-06
6.8634e-06
6.76575e-06
6.5565e-06
6.75878e-06
6.45885e-06
6.88433e-06
6.57743e-06
6.61928e-06
6.74483e-06
7.03778e-06
6.84248e-06
6.47978e-06
6.7518e-06
6.57743e-06
6.96803e-06
6.67508e-06
7.254e-06
6.68903e-06
6.2775e-06
6.3612e-06
6.98198e-06
6.54255e-06
6.73785e-06
6.85643e-06
7.03778e-06
6.7518e-06
6.14498e-06
6.64718e-06
6.64718e-06
7.00988e-06
6.87038e-06
6.62625e-06
6.43793e-06
6.6681e-06
6.9471e-06
6.99593e-06
6.975e-06
6.41003e-06
6.84945e-06
6.95408e-06
6.7239e-06
6.84248e-06
6.70995e-06
6.975e-06
6.7239e-06
6.43793e-06
6.48675e-06
6.5007e-06
6.76575e-06
6.1938e-06
6.54255e-06
6.37515e-06
6.5286e-06
6.23565e-06
6.54255e-06
6.57743e-06
6.7797e-06
5.99153e-06
6.61928e-06
6.696e-06
6.73088e-06
6.34725e-06
7.09358e-06
6.49373e-06
6.70995e-06
5.9985e-06
6.696e-06
6.91223e-06
6.62625e-06
6.78668e-06
6.91223e-06
6.31935e-06
6.65415e-06
6.61928e-06
6.23565e-06
6.70995e-06
6.73088e-06
6.7797e-06
6.43793e-06
6.38213e-06
6.36818e-06
6.43793e-06
6.78668e-06
6.53558e-06
6.12405e-06
6.63323e-06
6.4728e-06
6.70995e-06
6.87038e-06
6.31935e-06
6.29843e-06
6.38213e-06
6.32633e-06
6.35423e-06
6.80063e-06
6.46583e-06
6.31238e-06
6.22868e-06
6.29843e-06
6.12405e-06
6.3054e-06
6.88433e-06
6.29843e-06
6.39608e-06
6.00548e-06
6.14498e-06
6.68903e-06
6.13103e-06
6.62625e-06
6.68205e-06
6.37515e-06
6.09615e-06
6.57045e-06
6.07523e-06
6.13103e-06
6.138e-06
6.5007e-06
6.43793e-06
6.27053e-06
6.40305e-06
6.6123e-06
6.36818e-06
6.43095e-06
6.3891e-06
6.4449e-06
6.21473e-06
6.00548e-06
6.20078e-06
5.9985e-06
6.5007e-06
6.2775e-06
6.64718e-06
6.31935e-06
6.39608e-06
6.31238e-06
5.99153e-06
6.07523e-06
6.01943e-06
6.46583e-06
6.27053e-06
6.50768e-06
6.27053e-06
6.3612e-06
6.1101e-06
6.13103e-06
6.0822e-06
6.61928e-06
6.04035e-06
6.417e-06
6.11708e-06
6.23565e-06
5.9985e-06
6.18683e-06
6.0822e-06
6.37515e-06
6.1659e-06
5.53118e-06
6.15195e-06
6.17288e-06
5.92178e-06
5.96363e-06
5.74043e-06
6.01245e-06
5.96363e-06
6.0543e-06
5.76833e-06
6.36818e-06
6.35423e-06
5.95665e-06
5.9706e-06
5.9148e-06
5.99153e-06
6.08918e-06
5.89388e-06
6.3054e-06
6.17288e-06
6.06825e-06
6.0543e-06
5.78925e-06
5.60093e-06
6.2775e-06
6.07523e-06
5.78228e-06
5.9427e-06
5.9427e-06
6.27053e-06
6.3333e-06
5.9706e-06
5.9148e-06
5.83808e-06
6.1659e-06
5.75438e-06
5.9706e-06
6.2496e-06
5.76833e-06
6.03338e-06
5.83808e-06
5.82413e-06
6.20078e-06
6.00548e-06
5.90783e-06
5.86598e-06
5.57303e-06
6.04733e-06
5.95665e-06
5.97758e-06
5.51723e-06
6.15195e-06
5.83808e-06
5.83808e-06
5.92875e-06
5.50328e-06
6.00548e-06
5.28008e-06
5.8869e-06
6.11708e-06
5.9148e-06
5.8311e-06
5.859e-06
5.33588e-06
5.58e-06
5.34983e-06
5.64975e-06
5.56605e-06
5.95665e-06
5.60093e-06
5.73345e-06
5.86598e-06
5.58e-06
6.0543e-06
5.70555e-06
5.89388e-06
5.81715e-06
5.7474e-06
5.68463e-06
5.95665e-06
5.64278e-06
5.61488e-06
5.39865e-06
6.15195e-06
5.82413e-06
5.8032e-06
5.69858e-06
5.67765e-06
6.0543e-06
5.75438e-06
5.71253e-06
5.68463e-06
5.6079e-06
5.69858e-06
5.61488e-06
5.5242e-06
5.74043e-06
5.8032e-06
5.82413e-06
5.50327e-06
5.82413e-06
5.60092e-06
5.8869e-06
6.04732e-06
5.48235e-06
5.74042e-06
5.37773e-06
5.2173e-06
5.59395e-06
5.7195e-06
5.73345e-06
5.6079e-06
5.71253e-06
5.6358e-06
5.70555e-06
5.51722e-06
5.64975e-06
5.47537e-06
5.2731e-06
5.62185e-06
5.41958e-06
5.47537e-06
5.76135e-06
5.4684e-06
5.36378e-06
5.92177e-06
5.39865e-06
5.30797e-06
5.37773e-06
5.4684e-06
5.37075e-06
5.58e-06
5.16848e-06
5.95665e-06
5.59395e-06
5.64277e-06
5.43353e-06
5.62882e-06
5.4405e-06
5.4405e-06
5.65673e-06
5.18242e-06
5.34983e-06
5.4405e-06
5.4126e-06
5.71252e-06
5.6916e-06
5.4405e-06
5.62883e-06
5.28007e-06
5.76135e-06
5.34285e-06
5.4684e-06
5.58697e-06
5.60093e-06
5.25915e-06
5.20335e-06
5.3847e-06
5.6637e-06
5.32192e-06
5.40563e-06
5.48933e-06
5.2452e-06
5.34982e-06
5.1336e-06
5.00108e-06
5.3568e-06
5.20335e-06
5.31495e-06
5.4963e-06
5.28705e-06
5.53815e-06
5.09873e-06
5.54513e-06
5.43353e-06
5.15452e-06
5.42655e-06
5.4126e-06
5.33588e-06
5.26612e-06
5.00805e-06
5.32193e-06
5.25218e-06
5.23822e-06
5.33588e-06
5.03595e-06
5.2731e-06
5.09175e-06
5.18243e-06
5.39168e-06
5.48933e-06
5.09175e-06
5.11268e-06
5.41958e-06
4.9662e-06
5.21032e-06
5.6358e-06
5.3568e-06
5.51723e-06
5.6637e-06
4.98713e-06
5.53815e-06
5.25218e-06
5.44747e-06
5.19638e-06
4.62443e-06
5.1057e-06
5.32192e-06
5.60093e-06
4.98713e-06
5.51723e-06
5.16847e-06
5.11268e-06
5.20335e-06
5.42655e-06
5.28007e-06
5.07083e-06
5.4405e-06
5.34983e-06
4.90342e-06
5.2731e-06
5.23125e-06
5.19638e-06
5.18243e-06
5.25915e-06
5.0499e-06
4.8825e-06
4.91738e-06
5.14057e-06
4.9383e-06
4.94527e-06
5.00805e-06
5.31495e-06
5.25218e-06
5.1336e-06
5.2731e-06
5.4405e-06
5.15453e-06
5.2452e-06
5.37075e-06
5.00107e-06
5.301e-06
5.37772e-06
5.25218e-06
4.8825e-06
5.19638e-06
4.94527e-06
5.0778e-06
5.29402e-06
5.0778e-06
5.4126e-06
5.08478e-06
5.12662e-06
5.01503e-06
5.19637e-06
5.0778e-06
5.11267e-06
5.19638e-06
4.98015e-06
5.09175e-06
4.98712e-06
4.89645e-06
5.00107e-06
4.8267e-06
4.98712e-06
5.1615e-06
5.2731e-06
5.11268e-06
5.00805e-06
5.01503e-06
5.05687e-06
4.84763e-06
5.02897e-06
5.05688e-06
5.04292e-06
5.0778e-06
5.23822e-06
4.80578e-06
4.94527e-06
4.84065e-06
5.45445e-06
4.8546e-06
5.23125e-06
5.44748e-06
5.0499e-06
5.30798e-06
5.09873e-06
5.04293e-06
5.3289e-06
5.42655e-06
5.00108e-06
5.01503e-06
4.84065e-06
5.58e-06
5.06385e-06
5.022e-06
5.19637e-06
5.25915e-06
5.12663e-06
5.14058e-06
4.88947e-06
4.95923e-06
4.7709e-06
5.04293e-06
5.05687e-06
5.65673e-06
4.97318e-06
5.02898e-06
5.01502e-06
5.06385e-06
5.28008e-06
5.46143e-06
5.0499e-06
4.91738e-06
5.20335e-06
5.28008e-06
4.95225e-06
)
;

boundaryField
{
    sides
    {
        type            symmetry;
    }
    empty
    {
        type            empty;
    }
}


// ************************************************************************* //
