/*--------------------------------*- C++ -*----------------------------------*\
  =========                 |
  \\      /  F ield         | OpenFOAM: The Open Source CFD Toolbox
   \\    /   O peration     | Website:  https://openfoam.org
    \\  /    A nd           | Version:  7
     \\/     M anipulation  |
\*---------------------------------------------------------------------------*/
FoamFile
{
    version     2.0;
    format      ascii;
    class       labelField;
    location    "0.0125/lagrangian/dsmc";
    object      origId;
}
// * * * * * * * * * * * * * * * * * * * * * * * * * * * * * * * * * * * * * //


263153
(
931535
931539
931551
931557
931563
931569
931573
931579
931585
931587
931588
931602
931616
931625
931645
931656
931676
931682
931720
931731
931734
931761
931766
931767
931771
931778
931786
931790
931818
931838
931845
931864
931875
931888
931889
931895
931898
931899
931916
931921
931923
931927
931956
931958
931966
931970
931993
931999
932000
932002
932026
932050
932082
932086
932092
932099
932104
932108
932132
932143
932155
932157
932159
932169
932172
932183
932184
932189
932203
932216
932227
932235
932236
932240
932241
932243
932248
932251
932256
932271
932272
932289
932290
932305
932306
932309
932311
932314
932326
932333
932341
932352
932361
932372
932379
932382
932385
932390
932393
932399
932401
932403
932406
932408
932419
932420
932434
932435
932442
932454
932456
932461
932464
932466
932482
932486
932487
932499
932539
932546
932552
932558
932561
932570
932576
932588
932601
932603
932641
932643
932644
932650
932651
932652
932665
932680
932705
932710
932712
932720
932722
932759
932764
932799
932809
932838
932843
932851
932863
932902
932906
932915
932927
932928
932938
932943
932948
932951
932952
932955
932962
932965
932968
932980
932988
932997
933014
933033
933038
933046
933061
933066
933068
933074
933076
933082
933083
933088
933093
933104
933107
933109
933113
933114
933116
933117
933118
933130
933132
933135
933136
933142
933145
933149
933157
933176
933191
933192
933220
933231
933238
933246
933248
933251
933257
933264
933279
933297
933302
933303
933309
933312
933317
933321
933327
933339
933348
933359
933370
933375
933380
933385
933386
933397
933402
933414
933415
933419
933427
933429
933449
933457
933462
933483
933486
933488
933491
933497
933499
933506
933515
933516
933518
933529
933534
933536
933538
933542
933547
933548
933563
933564
933566
933588
933604
933605
933606
933613
933623
933633
933635
933645
933655
933665
933668
933679
933693
933698
933708
933709
933720
933737
933745
933766
933770
933782
933787
933793
933813
933822
933824
933870
933872
933873
933881
933885
933889
933890
933904
933913
933914
933918
933930
933933
933934
933945
933958
933963
933974
933982
933983
933984
933985
933990
934002
934007
934010
934027
934036
934038
934044
934052
934064
934068
934071
934072
934078
934088
934089
934090
934093
934106
934109
934110
934116
934141
934144
934158
934162
934165
934167
934176
934201
934202
934211
934217
934225
934230
934236
934268
934270
934271
934273
934275
934289
934294
934295
934298
934303
934304
934307
934312
934316
934324
934325
934334
934345
934351
934357
934375
934384
934393
934399
934403
934405
934407
934428
934429
934434
934440
934451
934466
934471
934472
934481
934484
934493
934496
934512
934521
934535
934546
934559
934565
934567
934589
934596
934598
934600
934613
934635
934643
934650
934655
934659
934663
934668
934669
934672
934694
934696
934706
934709
934714
934721
934725
934746
934749
934751
934753
934757
934761
934762
934785
934801
934805
934817
934818
934833
934844
934854
934857
934858
934873
934876
934885
934893
934902
934908
934910
934911
934913
934915
934920
934926
934927
934934
934942
934943
934946
934954
934956
934957
934961
934967
934968
934970
934981
934993
934994
935003
935016
935037
935047
935059
935066
935071
935075
935084
935093
935095
935110
935113
935140
935144
935147
935148
935150
935161
935167
935172
935178
935187
935189
935194
935196
935201
935202
935204
935205
935206
935208
935210
935216
935226
935236
935243
935262
935267
935273
935274
935275
935284
935286
935287
935289
935302
935305
935307
935314
935322
935332
935336
935341
935342
935346
935350
935369
935382
935387
935400
935401
935402
935404
935415
935416
935419
935421
935422
935424
935433
935444
935449
935459
935460
935463
935465
935469
935474
935476
935478
935481
935484
935491
935493
935494
935498
935506
935527
935533
935534
935540
935546
935553
935573
935587
935588
935600
935605
935609
935627
935637
935638
935646
935648
935649
935663
935664
935666
935679
935691
935697
935703
935704
935705
935727
935735
935748
935756
935758
935759
935772
935774
935780
935783
935787
935791
935799
935802
935809
935833
935841
935842
935845
935850
935853
935855
935869
935877
935882
935896
935899
935900
935914
935919
935923
935924
935927
935935
935958
935959
935966
935967
935973
935977
935979
935986
935989
935994
935995
936001
936002
936006
936011
936016
936017
936032
936034
936037
936053
936062
936070
936072
936083
936103
936109
936122
936136
936137
936139
936142
936144
936156
936159
936160
936162
936164
936166
936167
936173
936179
936184
936187
936195
936196
936212
936218
936222
936230
936237
936244
936251
936252
936255
936256
936267
936268
936269
936274
936280
936284
936286
936289
936295
936298
936303
936304
936314
936315
936347
936349
936350
936351
936354
936355
936357
936371
936377
936387
936391
936392
936393
936411
936413
936415
936423
936426
936433
936437
936438
936439
936440
936445
936469
936475
936483
936484
936489
936495
936503
936504
936506
936508
936512
936513
936522
936525
936537
936539
936558
936559
936560
936561
936563
936564
936565
936569
936575
936578
936579
936581
936593
936596
936605
936611
936612
936624
936629
936633
936652
936654
936656
936660
936666
936667
936673
936674
936676
936681
936698
936707
936711
936712
936725
936729
936735
936736
936738
936750
936753
936756
936761
936764
936770
936772
936775
936787
936791
936793
936805
936808
936819
936821
936823
936825
936837
936838
936844
936847
936852
936872
936876
936879
936880
936885
936888
936893
936895
936909
936911
936919
936928
936931
936938
936939
936954
936959
936965
936967
936968
936971
936975
936980
936981
936989
936990
936994
936997
937006
937010
937012
937025
937052
937053
937066
937069
937078
937081
937083
937087
937088
937104
937111
937113
937122
937129
937141
937143
937144
937145
937148
937169
937172
937176
937219
937228
937229
937232
937234
937235
937236
937246
937249
937251
937252
937255
937257
937266
937273
937274
937282
937283
937291
937296
937298
937301
937302
937310
937315
937322
937323
937324
937325
937328
937336
937337
937338
937347
937348
937353
937355
937358
937372
937379
937382
937385
937386
937391
937393
937395
937396
937398
937400
937409
937412
937417
937429
937430
937432
937433
937438
937442
937445
937452
937459
937469
937475
937479
937480
937484
937487
937488
937496
937501
937513
937520
937534
937541
937546
937554
937563
937581
937587
937600
937601
937603
937605
937629
937633
937643
937649
937658
937659
937666
937668
937670
937671
937672
937673
937676
937678
937679
937684
937687
937693
937704
937717
937720
937734
937739
937745
937750
937765
937777
937781
937783
937784
937797
937798
937800
937802
937815
937823
937825
937829
937831
937838
937840
937846
937850
937851
937860
937863
937880
937890
937891
937902
937913
937935
937936
937938
937955
937963
937970
937971
937974
937982
937987
937992
937995
937996
937997
938001
938003
938005
938006
938008
938009
938016
938020
938033
938035
938040
938048
938054
938059
938066
938068
938072
938083
938092
938095
938097
938098
938104
938106
938120
938121
938122
938124
938125
938136
938138
938141
938143
938145
938148
938154
938157
938158
938161
938165
938168
938172
938175
938176
938178
938180
938184
938192
938213
938219
938222
938225
938232
938240
938241
938246
938247
938258
938259
938268
938278
938285
938287
938290
938306
938309
938310
938336
938349
938354
938358
938360
938361
938362
938369
938382
938387
938391
938392
938408
938413
938418
938419
938420
938437
938440
938445
938447
938458
938464
938467
938471
938477
938480
938482
938499
938500
938504
938511
938513
938517
938521
938532
938543
938545
938561
938563
938566
938572
938575
938577
938582
938598
938611
938614
938627
938632
938640
938649
938655
938659
938661
938662
938674
938680
938681
938683
938685
938705
938706
938707
938718
938719
938722
938724
938730
938737
938739
938741
938743
938744
938750
938756
938759
938785
938794
938797
938802
938803
938806
938811
938814
938815
938819
938821
938825
938828
938829
938833
938862
938876
938877
938878
938884
938894
938895
938897
938902
938916
938917
938922
938923
938925
938931
938932
938935
938936
938940
938941
938949
938952
938953
938957
938958
938959
938961
938965
938976
939011
939013
939015
939019
939022
939024
939028
939030
939038
939041
939044
939052
939062
939064
939065
939068
939071
939079
939085
939087
939088
939090
939091
939094
939098
939100
939112
939114
939115
939122
939124
939130
939131
939133
939134
939135
939137
939142
939144
939147
939148
939154
939168
939169
939172
939174
939178
939179
939181
939194
939204
939215
939219
939228
939231
939233
939234
939237
939238
939239
939244
939251
939252
939253
939258
939267
939272
939279
939284
939286
939288
939290
939292
939293
939296
939304
939306
939315
939319
939320
939323
939328
939330
939337
939340
939341
939342
939347
939350
939355
939356
939363
939369
939377
939380
939394
939396
939402
939406
939407
939409
939410
939411
939425
939440
939456
939459
939466
939470
939471
939477
939478
939483
939485
939496
939497
939500
939501
939503
939505
939509
939511
939515
939522
939527
939528
939529
939531
939539
939541
939548
939554
939557
939564
939565
939575
939591
939593
939600
939602
939608
939611
939620
939625
939626
939628
939635
939641
939642
939644
939657
939665
939677
939686
939687
939689
939696
939709
939713
939723
939726
939732
939739
939740
939763
939775
939778
939779
939781
939784
939789
939790
939792
939795
939797
939811
939820
939821
939826
939835
939839
939872
939880
939901
939906
939911
939914
939919
939932
939939
939943
939946
939952
939954
939955
939957
939960
939963
939968
939972
939981
939982
939988
939990
939992
939996
939998
940009
940010
940011
940017
940020
940024
940027
940028
940031
940035
940037
940040
940045
940049
940060
940062
940063
940072
940075
940077
940081
940082
940083
940092
940093
940096
940100
940112
940118
940124
940127
940143
940157
940163
940170
940191
940192
940195
940200
940213
940218
940228
940236
940237
940240
940242
940252
940253
940255
940257
940261
940276
940277
940279
940287
940296
940300
940304
940305
940306
940310
940312
940313
940317
940318
940321
940327
940328
940329
940332
940337
940341
940342
940348
940351
940353
940354
940355
940363
940366
940371
940376
940381
940384
940387
940389
940390
940396
940399
940401
940406
940413
940422
940430
940432
940439
940445
940448
940452
940460
940472
940473
940474
940481
940485
940495
940501
940511
940520
940546
940553
940559
940563
940569
940576
940578
940579
940580
940588
940595
940599
940603
940605
940609
940622
940642
940649
940659
940660
940662
940666
940690
940696
940702
940703
940713
940714
940715
940719
940721
940722
940727
940728
940736
940739
940745
940755
940757
940761
940763
940766
940767
940768
940770
940773
940787
940788
940793
940794
940798
940800
940801
940805
940806
940807
940810
940820
940821
940825
940827
940828
940832
940843
940846
940850
940852
940854
940859
940860
940864
940877
940878
940888
940891
940894
940897
940899
940908
940910
940911
940917
940918
940920
940922
940926
940928
940930
940933
940942
940949
940965
940971
940974
940975
940976
940978
940982
940985
940990
940994
941000
941002
941006
941009
941011
941016
941017
941019
941024
941028
941035
941045
941046
941049
941057
941059
941063
941066
941067
941070
941079
941080
941081
941083
941084
941087
941095
941097
941101
941111
941112
941117
941119
941120
941128
941137
941147
941148
941151
941155
941167
941168
941170
941174
941183
941184
941188
941191
941194
941200
941204
941210
941215
941216
941218
941223
941224
941238
941239
941241
941243
941251
941254
941256
941261
941262
941263
941266
941267
941268
941269
941271
941277
941279
941280
941282
941283
941284
941288
941302
941303
941305
941309
941312
941321
941324
941326
941328
941329
941331
941332
941333
941334
941336
941338
941348
941350
941351
941363
941369
941370
941372
941377
941380
941385
941391
941394
941396
941398
941408
941415
941416
941418
941422
941435
941437
941447
941450
941455
941469
941470
941476
941480
941482
941487
941495
941499
941502
941504
941507
941512
941517
941533
941535
941538
941550
941555
941558
941559
941563
941574
941575
941578
941582
941587
941605
941607
941611
941615
941618
941621
941622
941623
941628
941636
941637
941642
941645
941648
941650
941652
941661
941662
941664
941670
941676
941682
941683
941690
941697
941699
941700
941701
941707
941708
941709
941712
941715
941716
941725
941727
941739
941740
941743
941744
941747
941749
941752
941757
941758
941773
941777
941779
941782
941783
941787
941789
941790
941795
941797
941800
941803
941809
941827
941830
941837
941839
941845
941854
941868
941869
941875
941877
941883
941884
941887
941888
941889
941893
941897
941903
941913
941914
941916
941917
941928
941933
941935
941946
941949
941956
941958
941963
941965
941967
941968
941969
941974
941977
941982
941986
941995
941998
941999
942000
942005
942007
942010
942013
942021
942027
942030
942038
942039
942040
942050
942053
942055
942057
942063
942066
942067
942077
942080
942084
942111
942124
942125
942128
942131
942136
942140
942144
942147
942148
942151
942164
942167
942168
942170
942171
942179
942189
942191
942193
942194
942198
942206
942207
942211
942212
942216
942221
942226
942232
942234
942236
942237
942241
942244
942246
942248
942249
942266
942267
942269
942276
942279
942285
942290
942295
942300
942303
942309
942311
942322
942324
942330
942338
942340
942345
942346
942349
942357
942358
942368
942370
942371
942373
942374
942377
942383
942389
942390
942391
942392
942395
942399
942402
942403
942404
942406
942408
942417
942419
942423
942424
942444
942447
942450
942452
942454
942456
942459
942462
942465
942471
942478
942479
942486
942488
942496
942514
942521
942528
942530
942537
942542
942550
942565
942569
942572
942579
942583
942586
942593
942597
942604
942605
942617
942618
942628
942632
942640
942646
942654
942664
942667
942669
942672
942677
942681
942683
942690
942695
942698
942706
942707
942715
942717
942729
942732
942733
942742
942747
942755
942756
942757
942761
942763
942770
942777
942780
942781
942798
942802
942803
942808
942811
942812
942813
942822
942823
942825
942827
942828
942833
942836
942848
942854
942860
942862
942870
942882
942883
942889
942891
942892
942896
942898
942902
942911
942925
942928
942930
942932
942935
942939
942940
942943
942944
942946
942948
942951
942954
942965
942971
942972
942984
942987
942991
942992
942994
942995
943002
943004
943005
943007
943013
943032
943038
943040
943043
943063
943071
943072
943076
943084
943087
943091
943092
943094
943101
943103
943104
943107
943119
943120
943131
943133
943137
943138
943140
943142
943144
943145
943146
943148
943151
943155
943157
943158
943163
943179
943182
943187
943188
943190
943191
943192
943194
943196
943200
943201
943210
943216
943220
943222
943223
943225
943233
943241
943243
943246
943247
943249
943258
943259
943261
943269
943275
943283
943285
943287
943289
943290
943294
943296
943299
943307
943321
943333
943342
943344
943348
943349
943350
943351
943353
943354
943356
943358
943373
943379
943382
943383
943387
943394
943397
943402
943408
943413
943415
943416
943417
943418
943421
943428
943429
943436
943443
943454
943459
943469
943477
943481
943483
943485
943491
943493
943499
943501
943509
943513
943514
943517
943521
943524
943526
943528
943529
943530
943537
943539
943541
943543
943545
943561
943563
943564
943565
943568
943570
943579
943587
943588
943595
943603
943616
943622
943624
943628
943630
943631
943634
943636
943639
943643
943645
943646
943650
943657
943663
943666
943669
943674
943690
943691
943705
943706
943709
943711
943712
943718
943722
943725
943733
943737
943740
943744
943745
943753
943760
943761
943762
943771
943774
943781
943784
943786
943789
943791
943800
943801
943821
943826
943827
943832
943840
943841
943858
943860
943863
943864
943867
943872
943878
943881
943897
943900
943903
943910
943911
943913
943914
943925
943927
943939
943943
943944
943950
943954
943956
943957
943962
943968
943970
943974
943979
943990
943998
944001
944005
944006
944008
944010
944011
944013
944019
944025
944027
944030
944032
944037
944042
944062
944063
944065
944069
944071
944076
944086
944087
944093
944100
944107
944111
944117
944121
944125
944129
944130
944131
944132
944146
944149
944150
944152
944154
944155
944160
944165
944166
944167
944168
944170
944171
944176
944181
944186
944195
944196
944209
944220
944221
944222
944226
944229
944237
944240
944241
944246
944247
944249
944254
944256
944257
944258
944269
944276
944282
944289
944290
944292
944293
944294
944307
944311
944315
944319
944321
944322
944324
944329
944331
944338
944341
944342
944343
944345
944347
944350
944353
944357
944366
944369
944373
944374
944381
944391
944394
944397
944399
944400
944401
944406
944409
944410
944411
944414
944420
944430
944432
944440
944442
944443
944444
944446
944448
944449
944457
944459
944460
944464
944469
944474
944475
944478
944480
944483
944486
944490
944493
944495
944501
944512
944514
944516
944529
944532
944535
944544
944561
944562
944566
944567
944569
944576
944577
944578
944582
944587
944593
944595
944598
944602
944603
944606
944607
944612
944631
944643
944645
944648
944652
944655
944659
944663
944664
944674
944679
944684
944687
944690
944692
944703
944714
944715
944719
944721
944728
944734
944740
944747
944754
944757
944760
944763
944765
944767
944769
944773
944776
944780
944788
944793
944794
944805
944809
944812
944817
944818
944822
944831
944832
944833
944838
944844
944845
944855
944858
944861
944867
944869
944871
944875
944876
944879
944885
944890
944891
944897
944901
944902
944903
944908
944921
944931
944936
944942
944943
944944
944951
944955
944957
944959
944962
944963
944968
944970
944976
944978
944984
944986
944987
944988
944991
944992
944994
944998
944999
945000
945001
945008
945013
945016
945020
945022
945024
945026
945029
945030
945031
945033
945035
945040
945048
945049
945051
945057
945067
945076
945079
945090
945091
945093
945095
945100
945103
945107
945108
945110
945129
945132
945135
945140
945143
945151
945152
945156
945161
945162
945163
945164
945169
945180
945182
945195
945198
945199
945202
945206
945211
945213
945217
945218
945222
945224
945226
945228
945229
945234
945235
945236
945238
945241
945250
945254
945257
945261
945269
945281
945282
945284
945287
945300
945303
945305
945306
945307
945310
945315
945316
945317
945323
945324
945325
945326
945343
945344
945353
945354
945358
945359
945360
945361
945364
945366
945371
945372
945374
945376
945381
945387
945388
945389
945392
945403
945406
945409
945412
945416
945421
945422
945425
945426
945432
945433
945434
945438
945444
945447
945449
945453
945454
945455
945458
945462
945464
945465
945473
945477
945478
945487
945490
945491
945495
945498
945509
945512
945513
945515
945517
945527
945528
945533
945538
945539
945541
945545
945549
945554
945556
945561
945565
945567
945573
945575
945579
945584
945585
945595
945597
945605
945611
945615
945617
945624
945625
945629
945630
945633
945638
945639
945644
945645
945650
945657
945660
945661
945674
945677
945679
945690
945693
945699
945703
945704
945705
945719
945723
945730
945735
945736
945737
945738
945745
945755
945765
945766
945776
945777
945780
945782
945784
945786
945797
945800
945802
945803
945805
945806
945808
945819
945820
945822
945823
945824
945828
945830
945832
945835
945836
945842
945845
945852
945853
945865
945871
945878
945879
945881
945882
945887
945893
945901
945909
945914
945915
945919
945920
945921
945923
945924
945926
945930
945932
945940
945941
945948
945949
945950
945952
945966
945971
945977
945980
945989
945998
945999
946002
946005
946007
946012
946016
946018
946026
946027
946030
946032
946034
946051
946052
946057
946063
946064
946065
946066
946067
946068
946070
946071
946074
946076
946082
946083
946088
946091
946092
946095
946096
946100
946104
946113
946116
946123
946132
946135
946138
946141
946143
946146
946149
946157
946159
946161
946162
946169
946170
946183
946186
946187
946188
946202
946211
946214
946217
946220
946222
946228
946234
946240
946241
946243
946245
946250
946252
946256
946257
946262
946263
946266
946268
946271
946275
946276
946277
946279
946282
946286
946287
946289
946293
946294
946297
946309
946312
946315
946316
946317
946322
946328
946330
946331
946342
946347
946350
946353
946360
946363
946378
946379
946384
946388
946393
946399
946401
946411
946422
946423
946427
946429
946435
946440
946441
946454
946467
946468
946469
946473
946474
946475
946477
946485
946497
946498
946502
946505
946507
946508
946517
946520
946525
946528
946534
946536
946543
946546
946550
946552
946557
946561
946564
946575
946577
946582
946583
946584
946587
946588
946598
946601
946604
946610
946613
946614
946619
946629
946631
946634
946635
946636
946640
946642
946651
946661
946666
946667
946671
946681
946686
946688
946701
946702
946703
946716
946718
946728
946731
946734
946739
946749
946753
946755
946762
946764
946778
946779
946783
946786
946795
946797
946802
946807
946808
946809
946810
946812
946820
946821
946826
946828
946830
946831
946833
946838
946840
946841
946843
946844
946849
946850
946852
946857
946863
946867
946869
946871
946879
946883
946885
946888
946892
946897
946898
946901
946902
946904
946905
946912
946913
946914
946919
946921
946924
946925
946926
946927
946928
946930
946931
946932
946934
946951
946959
946967
946968
946969
946972
946978
946986
946988
946989
946994
946995
947001
947003
947012
947013
947021
947025
947027
947028
947032
947034
947036
947037
947041
947048
947051
947056
947060
947062
947064
947072
947081
947088
947089
947092
947093
947097
947100
947102
947105
947113
947114
947118
947126
947132
947133
947134
947137
947143
947148
947150
947156
947160
947162
947163
947165
947168
947170
947171
947179
947182
947185
947186
947187
947189
947190
947198
947205
947211
947212
947213
947216
947217
947220
947222
947224
947226
947232
947233
947242
947247
947250
947253
947254
947255
947258
947271
947275
947279
947280
947283
947284
947288
947289
947290
947295
947297
947302
947304
947305
947309
947311
947313
947315
947325
947326
947328
947333
947334
947335
947336
947337
947345
947348
947355
947356
947364
947366
947376
947377
947379
947380
947382
947394
947396
947401
947403
947405
947408
947417
947422
947424
947427
947432
947438
947449
947453
947457
947461
947465
947470
947471
947476
947477
947478
947493
947495
947497
947501
947506
947507
947512
947514
947521
947524
947526
947528
947534
947536
947540
947549
947551
947556
947557
947558
947560
947574
947575
947576
947584
947587
947592
947593
947595
947597
947604
947611
947619
947621
947622
947639
947640
947642
947646
947654
947657
947659
947660
947666
947668
947675
947682
947684
947695
947697
947704
947705
947708
947711
947712
947713
947720
947721
947722
947732
947734
947737
947739
947747
947748
947749
947754
947759
947761
947773
947775
947777
947785
947789
947790
947793
947794
947795
947797
947799
947803
947805
947815
947817
947818
947819
947821
947822
947827
947830
947833
947837
947839
947841
947843
947845
947850
947863
947865
947873
947881
947883
947886
947887
947888
947890
947891
947892
947904
947906
947916
947923
947926
947927
947929
947935
947950
947955
947956
947957
947961
947963
947968
947974
947976
947977
947978
947981
947986
947989
947991
947995
947997
948000
948008
948014
948022
948024
948026
948029
948031
948032
948034
948040
948042
948045
948050
948052
948053
948055
948057
948060
948064
948069
948071
948074
948081
948082
948084
948085
948088
948091
948093
948100
948107
948110
948112
948115
948119
948123
948128
948130
948131
948139
948147
948153
948154
948156
948157
948165
948169
948175
948177
948182
948187
948188
948190
948199
948202
948203
948209
948211
948213
948219
948220
948223
948225
948233
948236
948238
948240
948242
948247
948250
948254
948255
948259
948260
948266
948273
948274
948279
948285
948286
948287
948288
948291
948292
948297
948298
948300
948303
948304
948310
948313
948320
948321
948325
948326
948332
948333
948338
948340
948341
948344
948345
948346
948351
948352
948354
948357
948359
948361
948365
948367
948371
948380
948382
948383
948394
948395
948397
948404
948409
948411
948412
948414
948415
948416
948418
948419
948422
948426
948428
948436
948439
948455
948461
948470
948472
948473
948474
948475
948481
948483
948487
948490
948499
948500
948501
948502
948504
948505
948506
948511
948512
948515
948516
948517
948518
948522
948523
948525
948528
948542
948543
948549
948550
948553
948554
948563
948564
948570
948572
948577
948579
948580
948594
948598
948600
948613
948615
948618
948619
948620
948621
948622
948624
948629
948633
948640
948642
948644
948646
948648
948649
948650
948656
948662
948667
948673
948674
948676
948678
948679
948685
948694
948697
948699
948708
948714
948715
948716
948719
948721
948723
948724
948726
948727
948735
948736
948742
948744
948752
948753
948754
948759
948762
948763
948765
948767
948771
948778
948789
948792
948795
948796
948801
948808
948812
948814
948821
948827
948830
948832
948842
948843
948848
948850
948852
948853
948860
948861
948870
948872
948875
948881
948891
948893
948903
948904
948908
948909
948912
948914
948916
948919
948922
948927
948931
948940
948942
948943
948948
948949
948950
948953
948968
948972
948973
948974
948980
948986
948987
948994
949000
949001
949003
949007
949010
949013
949014
949017
949021
949032
949042
949044
949050
949055
949070
949079
949082
949083
949085
949093
949095
949097
949100
949102
949104
949105
949106
949107
949110
949113
949117
949118
949122
949126
949127
949128
949129
949134
949147
949148
949155
949157
949163
949167
949168
949171
949176
949180
949184
949185
949190
949192
949194
949198
949200
949201
949203
949204
949206
949215
949217
949218
949219
949224
949226
949228
949231
949238
949239
949240
949243
949244
949256
949260
949261
949263
949267
949268
949276
949281
949282
949283
949287
949291
949293
949297
949300
949301
949302
949303
949304
949305
949309
949311
949313
949315
949316
949321
949325
949326
949330
949333
949338
949344
949345
949346
949350
949354
949356
949364
949369
949374
949377
949381
949382
949391
949393
949404
949405
949406
949410
949412
949414
949416
949420
949425
949428
949429
949433
949434
949442
949445
949446
949448
949449
949450
949452
949454
949456
949466
949472
949477
949482
949483
949487
949491
949492
949495
949499
949500
949501
949504
949505
949507
949508
949509
949511
949518
949521
949522
949523
949533
949534
949535
949539
949541
949543
949549
949553
949554
949564
949566
949568
949570
949577
949580
949583
949585
949588
949604
949612
949618
949621
949627
949629
949634
949636
949637
949642
949643
949644
949646
949648
949655
949657
949658
949662
949663
949664
949667
949668
949671
949672
949680
949683
949691
949692
949698
949706
949713
949718
949719
949723
949730
949731
949732
949735
949738
949739
949740
949741
949749
949752
949760
949762
949767
949768
949771
949772
949776
949788
949792
949795
949802
949805
949806
949809
949812
949813
949816
949819
949820
949825
949826
949829
949831
949836
949850
949852
949854
949860
949862
949867
949869
949873
949879
949880
949881
949884
949885
949888
949892
949896
949902
949904
949908
949913
949922
949940
949946
949949
949954
949957
949961
949970
949972
949976
949978
949979
949983
949986
949987
949991
949992
949995
950003
950009
950017
950019
950020
950023
950031
950033
950034
950037
950038
950046
950047
950052
950054
950055
950059
950061
950063
950067
950069
950074
950076
950078
950080
950082
950084
950088
950099
950102
950107
950110
950114
950123
950124
950128
950130
950133
950141
950143
950145
950150
950151
950156
950157
950160
950166
950168
950173
950175
950181
950183
950184
950185
950187
950195
950207
950213
950214
950215
950216
950217
950219
950229
950233
950234
950238
950241
950245
950252
950253
950256
950267
950273
950279
950280
950282
950284
950285
950287
950288
950302
950303
950306
950314
950315
950317
950320
950321
950324
950326
950336
950338
950347
950351
950354
950355
950358
950359
950367
950377
950378
950379
950380
950381
950382
950383
950384
950387
950392
950393
950394
950396
950399
950404
950406
950410
950411
950419
950430
950433
950434
950435
950445
950446
950451
950452
950459
950460
950461
950465
950468
950471
950476
950477
950482
950484
950485
950486
950488
950491
950493
950501
950504
950506
950510
950513
950515
950518
950524
950525
950526
950530
950532
950533
950538
950548
950550
950558
950560
950561
950567
950574
950578
950585
950588
950590
950592
950593
950595
950598
950600
950613
950623
950634
950636
950639
950643
950644
950648
950650
950654
950657
950658
950659
950660
950661
950662
950672
950673
950674
950677
950680
950684
950699
950704
950707
950710
950717
950718
950720
950723
950726
950728
950732
950736
950737
950741
950743
950746
950753
950755
950758
950760
950763
950769
950782
950787
950795
950796
950799
950800
950802
950809
950810
950811
950815
950816
950819
950822
950827
950828
950831
950839
950843
950844
950846
950848
950849
950850
950852
950856
950857
950859
950863
950864
950865
950866
950867
950871
950873
950874
950880
950885
950890
950894
950895
950896
950900
950901
950902
950910
950921
950926
950933
950942
950950
950951
950958
950967
950970
950971
950978
950979
950980
950981
950982
950983
950986
950988
950989
950992
950994
950996
951003
951010
951017
951023
951028
951029
951033
951037
951038
951042
951054
951059
951061
951068
951072
951073
951080
951083
951084
951085
951087
951088
951090
951092
951098
951109
951110
951114
951121
951130
951132
951133
951135
951140
951144
951145
951153
951154
951157
951160
951161
951166
951167
951168
951169