/*--------------------------------*- C++ -*----------------------------------*\
  =========                 |
  \\      /  F ield         | OpenFOAM: The Open Source CFD Toolbox
   \\    /   O peration     | Website:  https://openfoam.org
    \\  /    A nd           | Version:  7
     \\/     M anipulation  |
\*---------------------------------------------------------------------------*/
FoamFile
{
    version     2.0;
    format      ascii;
    class       scalarField;
    location    "0.00252/lagrangian/dsmc";
    object      Ei;
}
// * * * * * * * * * * * * * * * * * * * * * * * * * * * * * * * * * * * * * //


22814
(
8.11821e-21
4.42664e-21
2.07989e-20
1.77318e-21
6.86228e-21
4.49912e-20
2.99271e-21
1.91058e-20
6.12528e-21
2.15717e-20
1.28134e-20
3.51648e-21
1.22511e-21
3.2104e-20
4.48888e-21
8.15555e-21
6.19268e-21
1.10443e-20
2.17654e-20
4.2667e-21
4.28758e-21
7.09097e-21
3.29256e-21
3.75994e-20
2.68201e-20
1.22477e-20
4.73805e-21
5.14746e-22
7.59277e-21
2.09164e-20
1.37212e-20
6.70218e-21
1.15164e-20
2.49285e-21
2.48449e-20
9.83991e-21
4.88704e-21
2.60436e-20
2.80394e-21
1.77599e-21
4.60423e-21
2.98182e-21
9.69399e-21
5.18117e-22
4.44817e-21
1.52261e-20
1.72631e-20
1.4329e-20
8.67169e-21
1.45826e-20
5.84889e-21
2.66688e-20
2.39024e-20
2.96228e-21
8.53291e-21
1.89713e-20
5.42547e-21
6.389e-21
1.75671e-20
1.18713e-20
1.7456e-21
1.1108e-20
5.47654e-21
2.90066e-20
3.84508e-20
6.25938e-21
1.06574e-20
2.79736e-20
1.72042e-20
8.31038e-20
2.01801e-20
9.24494e-22
1.36257e-20
5.4351e-21
3.43808e-20
2.43662e-21
1.51466e-20
8.55799e-21
3.01143e-21
1.64156e-21
1.18256e-20
1.62405e-21
1.43438e-20
2.05109e-20
1.30316e-21
3.39391e-21
5.92541e-20
1.92048e-21
1.77232e-20
1.52576e-20
1.16285e-20
4.01122e-21
4.79402e-22
6.01298e-21
1.6643e-20
1.72015e-20
6.2246e-20
3.13099e-21
3.05797e-20
2.87791e-20
1.01197e-20
1.10105e-20
7.63275e-21
8.21108e-21
1.81293e-21
5.50317e-20
5.45092e-21
1.5187e-20
7.05629e-21
1.39357e-20
3.9357e-21
1.54566e-20
9.6486e-22
1.2495e-20
9.51754e-21
8.42068e-21
2.84579e-21
5.77268e-22
1.48287e-20
3.67829e-21
3.65997e-20
6.43136e-22
9.18538e-21
1.30793e-20
1.29781e-20
8.54323e-21
2.56138e-21
2.93465e-20
9.52302e-21
1.29231e-20
1.85448e-20
2.19015e-21
1.77084e-20
4.96335e-20
4.1693e-20
1.84314e-22
1.68239e-23
2.71202e-20
7.49189e-21
1.73328e-20
5.18451e-22
3.11353e-21
1.40913e-20
3.74832e-20
1.17243e-20
3.51165e-21
5.47331e-21
1.20821e-20
3.78491e-21
3.22397e-21
8.03229e-21
9.15207e-21
1.50182e-20
8.10286e-21
1.76547e-20
3.51772e-20
6.82933e-21
5.70232e-21
2.48325e-21
9.39661e-21
1.38971e-20
1.22812e-20
1.02724e-20
4.68513e-21
1.61268e-20
6.13543e-21
9.80565e-21
2.58466e-20
6.78376e-21
4.34615e-21
8.28402e-21
2.99829e-21
1.29705e-20
1.95798e-21
3.39687e-20
9.58462e-21
1.12886e-20
3.98727e-21
2.80449e-20
1.26005e-20
1.0931e-20
1.21122e-20
1.72667e-20
7.10442e-21
1.63985e-20
1.56383e-20
7.03318e-21
1.1164e-20
2.54371e-20
5.82768e-21
3.57794e-20
1.28361e-20
8.32166e-22
1.85699e-20
1.89092e-20
3.14368e-21
1.3487e-21
9.55773e-21
1.62128e-21
2.56706e-20
2.94626e-21
2.15984e-20
2.28923e-20
1.00125e-20
1.01436e-20
6.6969e-21
1.17461e-21
1.1478e-20
6.18201e-21
2.93825e-21
8.00545e-22
1.25639e-20
2.11549e-20
1.23798e-20
2.28107e-21
2.47652e-21
4.11076e-22
1.26506e-20
5.34195e-21
8.62948e-21
5.18243e-21
1.20079e-20
3.99795e-21
3.84305e-22
4.7026e-21
8.77944e-21
3.20465e-20
8.38855e-21
1.09307e-21
1.73394e-21
4.10146e-21
1.0231e-20
2.76522e-23
3.14862e-21
5.59453e-21
3.89079e-20
1.11619e-20
2.17448e-22
1.38773e-20
1.37109e-20
9.35953e-21
6.99438e-21
1.09281e-21
5.53933e-20
1.3299e-21
1.92037e-21
6.50512e-21
8.45851e-21
5.44699e-22
1.38057e-20
1.11652e-20
2.40811e-20
4.83317e-20
1.83665e-20
4.9317e-21
1.54465e-20
3.45057e-21
4.30342e-22
7.37598e-21
5.10345e-21
2.4173e-20
2.7836e-20
2.39382e-20
2.15647e-20
3.15408e-20
2.85973e-20
4.87241e-21
3.17127e-21
6.04564e-21
4.58363e-21
1.60426e-20
1.14236e-20
1.81525e-20
4.81388e-21
1.14132e-20
5.63724e-22
1.52606e-20
2.53586e-21
5.31101e-21
5.28129e-21
2.33977e-20
2.02925e-20
1.45321e-21
1.13474e-20
1.42895e-20
1.34635e-20
1.58793e-20
6.52083e-21
1.09505e-21
1.09994e-20
8.56693e-23
1.51198e-20
3.99385e-22
2.15008e-20
5.97547e-20
2.30577e-20
1.41763e-20
1.13893e-21
3.32366e-21
9.02033e-21
1.29249e-20
9.45661e-21
1.93993e-20
3.45972e-20
2.60591e-21
1.65682e-21
1.33518e-20
1.14729e-20
8.97582e-21
9.63183e-20
3.36057e-20
1.76582e-20
6.36416e-20
2.12388e-20
2.95679e-21
3.58849e-21
1.33057e-21
2.0152e-20
7.77882e-21
6.53487e-21
6.14542e-21
2.08537e-20
1.1522e-20
1.03722e-21
3.41166e-21
8.99236e-22
5.3695e-21
2.07511e-20
1.77713e-20
2.42782e-20
1.3633e-20
5.06709e-21
4.46682e-21
1.19592e-20
3.562e-21
9.02426e-21
9.4215e-21
8.41766e-21
1.18591e-21
8.01781e-21
4.14883e-21
3.66198e-23
2.49316e-20
1.1783e-20
3.03772e-21
2.03447e-21
5.8969e-21
2.48333e-20
4.43999e-20
3.36152e-21
3.73449e-21
1.01996e-20
1.31568e-21
2.23763e-21
1.51024e-21
1.76649e-20
6.08385e-21
2.4213e-21
2.17486e-20
1.31034e-20
3.1971e-20
1.22627e-21
9.05195e-21
1.35569e-21
2.0695e-20
5.71756e-21
1.34925e-20
3.00027e-21
8.20812e-21
1.60699e-21
2.26827e-20
4.2751e-21
2.7813e-21
1.47604e-20
2.20518e-20
4.11768e-21
3.33241e-21
4.29435e-21
2.32638e-20
3.45785e-20
8.70721e-22
4.32184e-23
1.0679e-20
2.36718e-20
7.00869e-21
1.90806e-21
2.97544e-20
3.02962e-21
3.67304e-22
7.92136e-21
1.23786e-20
1.72815e-21
4.21257e-21
3.0935e-20
2.26748e-21
2.1355e-20
3.04334e-21
2.44314e-21
8.92518e-22
5.74724e-21
3.04833e-20
2.80224e-20
3.32998e-21
4.34321e-21
1.16867e-20
2.21326e-20
1.58599e-20
1.2483e-20
6.92593e-21
2.69316e-20
1.3065e-20
4.19396e-20
5.7267e-22
4.27941e-20
1.82515e-21
1.85035e-21
2.71592e-21
2.21918e-21
6.19651e-21
1.10691e-20
9.78477e-22
3.50713e-21
1.6827e-20
2.26057e-21
2.24111e-20
2.01766e-22
2.30044e-20
1.23401e-20
8.80907e-21
2.53158e-20
1.28564e-20
1.86953e-20
7.24492e-21
2.32339e-20
1.76551e-20
1.70939e-20
3.98027e-20
3.07243e-21
1.37064e-20
5.05318e-22
2.93306e-21
3.04096e-21
9.02747e-21
7.14746e-21
1.7252e-20
1.98225e-20
2.82097e-20
4.28812e-22
7.36311e-21
1.52783e-20
6.82614e-22
2.31957e-21
2.45798e-21
7.48439e-21
6.70053e-21
5.08659e-20
2.55339e-21
3.94213e-20
1.38293e-21
1.40764e-20
4.80609e-20
8.44519e-21
4.18669e-20
2.51806e-20
2.72267e-20
4.41482e-21
7.01379e-21
1.07041e-20
1.68588e-20
2.85344e-20
1.88941e-20
7.4462e-21
1.04494e-20
2.84953e-22
3.97137e-20
1.20555e-20
3.9019e-21
3.49834e-20
1.47428e-20
1.24248e-20
1.78338e-21
8.97127e-22
3.47167e-21
2.85029e-22
2.7817e-20
2.77896e-20
1.45125e-20
2.22206e-21
4.11243e-21
7.95397e-21
5.74561e-21
1.17785e-21
2.87536e-20
1.14693e-20
9.65806e-21
8.05549e-21
1.0209e-20
1.48625e-22
1.12276e-20
1.57218e-20
1.82307e-20
6.94641e-21
6.48029e-22
1.94411e-21
6.11604e-21
2.33346e-20
1.44203e-20
1.56618e-20
6.84541e-21
1.85509e-21
1.0836e-22
2.80096e-20
9.47027e-21
1.38832e-20
1.76947e-20
1.52104e-20
1.00028e-20
3.50732e-21
1.20962e-22
1.63905e-20
1.25782e-20
2.77854e-21
9.83412e-21
1.13736e-20
5.41557e-21
2.9316e-20
2.48108e-20
6.07469e-21
3.64028e-21
2.9508e-21
8.46277e-21
1.34542e-20
3.19579e-21
1.73698e-20
8.1592e-21
3.161e-20
3.03873e-22
2.31731e-22
9.21879e-21
1.09197e-20
6.08941e-20
2.14186e-20
8.54472e-21
1.41338e-20
2.46543e-21
1.00088e-20
5.67225e-22
1.42829e-21
4.03775e-20
3.00807e-21
3.57658e-20
3.22959e-21
2.50069e-20
4.48729e-20
4.24353e-21
1.06416e-20
8.44412e-21
1.60654e-20
1.15381e-20
2.41314e-21
3.95472e-21
3.57139e-20
1.80474e-20
2.44877e-20
3.12917e-21
5.99802e-21
1.78982e-21
4.24907e-21
1.62965e-20
1.16367e-20
2.16372e-20
1.58378e-21
2.24092e-20
2.86506e-20
4.54619e-20
1.91902e-21
2.52311e-20
3.81505e-20
1.50234e-21
8.72619e-21
2.67976e-20
1.35121e-20
1.27873e-20
5.50935e-21
1.7447e-21
7.65485e-21
6.37632e-21
4.44146e-20
4.60643e-21
2.97664e-21
4.69671e-21
2.32996e-21
9.50098e-21
8.75233e-22
3.10695e-21
1.61924e-20
6.40687e-21
4.757e-20
7.47473e-21
1.56745e-21
1.25114e-21
4.13551e-20
5.54058e-21
5.02977e-21
1.38242e-20
7.22637e-21
2.26382e-21
2.87352e-21
7.54798e-21
3.23797e-21
1.20719e-20
2.82631e-20
1.56735e-20
8.96367e-21
3.21713e-20
1.08719e-20
2.82422e-21
1.2191e-20
5.89425e-21
5.9149e-20
3.03615e-21
1.16564e-21
1.3488e-20
4.13152e-20
2.25301e-20
2.51766e-20
1.03327e-20
1.92016e-20
3.54728e-21
9.81081e-21
6.71946e-21
7.88902e-21
1.50464e-21
1.05828e-20
1.18701e-20
2.14019e-20
1.33656e-20
8.80768e-22
5.96565e-21
6.68551e-21
8.84302e-22
2.39524e-20
3.46116e-21
1.53713e-20
1.99296e-21
2.34786e-20
2.64578e-20
6.55581e-21
1.24558e-21
7.62631e-21
1.56773e-21
4.02991e-22
3.97371e-21
4.89356e-21
5.11622e-21
1.28982e-20
1.0738e-20
8.20972e-21
2.26643e-21
4.42639e-21
3.79023e-20
3.89272e-20
1.19133e-20
6.76639e-21
5.88635e-20
3.94731e-21
6.44464e-21
2.11031e-20
6.95598e-21
5.07232e-20
2.17626e-20
3.24609e-21
8.14927e-21
4.40544e-20
1.78573e-21
1.67207e-20
2.82766e-20
4.55104e-21
9.97724e-21
1.71456e-20
5.22592e-22
2.50127e-20
1.46811e-20
1.54506e-20
1.72938e-22
1.52697e-20
1.22938e-20
5.35576e-23
8.21997e-21
5.21627e-21
2.04385e-20
8.69903e-21
1.75407e-20
3.57457e-20
1.35133e-20
1.22968e-20
1.78385e-20
5.86676e-20
3.33799e-20
3.97717e-22
7.21017e-21
1.11586e-20
3.90565e-21
9.33465e-21
1.2447e-20
4.1358e-21
1.54904e-20
5.16045e-20
2.12772e-21
4.43403e-21
1.13512e-21
1.76118e-21
6.72045e-22
1.40323e-20
1.17595e-20
3.85482e-21
1.15176e-20
2.41623e-21
1.08698e-21
7.6903e-21
7.83226e-21
2.13098e-20
4.45014e-21
2.41816e-20
2.14133e-20
2.27786e-21
1.09489e-20
2.36159e-20
2.00316e-20
2.59041e-20
5.25993e-20
3.64536e-21
1.60065e-20
5.40134e-21
1.86896e-21
8.54723e-21
1.93899e-21
3.78963e-20
1.24126e-21
3.85386e-20
5.22867e-21
8.97846e-21
1.1884e-20
6.4041e-21
4.01323e-20
2.5483e-21
5.36323e-21
1.06437e-21
3.12891e-20
6.26438e-21
1.54278e-20
5.55276e-21
3.59952e-21
2.29818e-20
4.96764e-21
3.82057e-21
5.57678e-21
3.77083e-21
5.76309e-21
2.36621e-21
3.49045e-21
4.3726e-21
2.48812e-21
1.29619e-20
3.4406e-21
5.71913e-20
3.18126e-21
7.98563e-21
7.04999e-21
1.66826e-20
1.16998e-20
1.54256e-21
2.08353e-20
3.22925e-21
8.65712e-21
9.59936e-21
5.62086e-21
1.15365e-20
4.34457e-22
5.20976e-21
7.95554e-21
1.13331e-20
2.5887e-21
2.70997e-20
1.50883e-20
9.76024e-21
8.42719e-21
8.31868e-22
1.84315e-20
1.80854e-20
3.15161e-21
8.45975e-21
8.17668e-21
3.4638e-20
7.76906e-21
1.57014e-20
2.95164e-21
1.02795e-20
9.21829e-21
1.71703e-20
2.8264e-20
3.10837e-20
5.78897e-21
1.04342e-21
2.52402e-20
5.218e-21
2.2212e-20
2.18173e-21
3.3303e-21
3.19355e-21
1.6132e-20
3.02926e-21
2.24987e-20
1.24145e-20
2.4744e-21
1.27731e-20
1.12611e-20
6.79632e-21
7.98591e-21
2.98125e-20
2.4075e-20
3.30513e-20
1.30009e-20
1.82745e-20
1.83234e-20
5.64315e-21
3.21379e-21
2.2188e-21
2.17529e-20
4.20495e-21
1.35371e-20
2.82142e-21
4.54348e-20
9.64793e-21
1.50649e-20
9.0238e-21
1.00429e-20
1.55655e-20
4.75004e-21
1.34982e-21
5.12223e-20
2.16744e-20
1.046e-20
1.25229e-20
1.89172e-20
3.39048e-20
2.17963e-20
4.85607e-21
6.57645e-20
2.47322e-21
1.10874e-20
2.56374e-21
4.09225e-21
2.01651e-20
2.09441e-20
5.09053e-22
2.75269e-21
2.34686e-20
8.70058e-22
1.2296e-20
8.74133e-21
1.67381e-20
5.20869e-21
1.05306e-20
2.20783e-21
1.50919e-20
2.91847e-22
9.64395e-21
8.3789e-21
2.73782e-20
4.26011e-21
8.4432e-21
5.3283e-21
3.2505e-21
3.85345e-21
1.93771e-20
6.88807e-20
2.33448e-20
1.30368e-20
1.6456e-20
3.55596e-20
1.10559e-21
5.62964e-21
1.85922e-20
1.04329e-21
2.62694e-21
2.43662e-20
7.74254e-22
2.23075e-21
1.28578e-21
9.20662e-22
1.00141e-20
2.4305e-20
2.79206e-20
1.19006e-21
1.80465e-20
1.54196e-20
1.17911e-20
1.57622e-21
3.10139e-21
2.08635e-21
3.27115e-21
1.27828e-20
1.38977e-21
6.55298e-21
2.15195e-20
1.72798e-21
2.58335e-20
2.56162e-20
1.62693e-21
1.86632e-20
1.78397e-20
2.00529e-20
6.65387e-21
1.26276e-21
2.9016e-21
1.82006e-21
2.72148e-20
5.25164e-21
2.09398e-21
1.7039e-21
1.36861e-20
2.95909e-21
8.11031e-22
2.80552e-21
2.95718e-21
4.86755e-21
4.68747e-20
3.18886e-20
7.46535e-21
6.67829e-22
1.08524e-20
3.12016e-20
1.00656e-20
1.15592e-20
1.28303e-20
1.21066e-20
2.86097e-21
7.92587e-21
4.30405e-21
3.90767e-21
1.1795e-20
1.58163e-20
7.52124e-21
6.8086e-21
1.99891e-21
5.70151e-21
1.94463e-20
1.13834e-20
5.0154e-20
9.69551e-22
9.9253e-22
5.54606e-22
1.3288e-21
6.33451e-21
1.78152e-20
1.29612e-20
2.22991e-20
1.64228e-21
1.18517e-20
7.25007e-21
2.28581e-21
7.32402e-21
1.68757e-20
1.45185e-21
1.91475e-20
3.66148e-20
1.49237e-20
2.80293e-20
1.01797e-20
2.81254e-20
1.06105e-20
4.37149e-21
1.32073e-20
3.51512e-20
8.91674e-22
6.20593e-21
5.85569e-21
3.31765e-21
3.18573e-20
2.29299e-20
8.89577e-22
2.47051e-21
8.82723e-21
1.69845e-20
6.9619e-21
3.58164e-22
5.17828e-21
1.4191e-21
3.20483e-20
6.23282e-21
1.58921e-20
8.52641e-22
2.19941e-20
4.79437e-21
3.3677e-21
3.75927e-20
1.08689e-20
1.3526e-21
1.35091e-21
1.48054e-20
2.7414e-20
3.1525e-21
5.65023e-21
1.13397e-20
1.60275e-20
2.24965e-20
9.56191e-21
3.98453e-21
1.6382e-20
3.53086e-20
7.23444e-21
4.96627e-21
1.00504e-20
6.50087e-21
3.04708e-20
1.86274e-21
1.47696e-21
1.11614e-20
4.40153e-20
2.60059e-20
1.31999e-21
2.68782e-21
3.26065e-21
1.29641e-20
4.72653e-21
6.30792e-22
1.36037e-20
2.10273e-20
1.25609e-20
1.50624e-20
1.9147e-21
3.9289e-20
9.56171e-21
1.8913e-21
8.85388e-21
1.44858e-20
7.90421e-21
5.66722e-22
8.38923e-21
1.55701e-20
2.8186e-21
2.48858e-20
3.13737e-21
7.70306e-21
4.37264e-21
6.36079e-20
2.46629e-20
2.11181e-20
1.77985e-20
1.51079e-20
3.99348e-22
7.46553e-21
1.85242e-21
4.24625e-21
2.3983e-21
1.89354e-21
6.04568e-21
3.18651e-21
1.27769e-20
6.12765e-21
1.09839e-20
1.73522e-20
3.78244e-21
2.14204e-20
1.96302e-21
5.20608e-21
2.11746e-21
1.81231e-21
1.29769e-20
4.08411e-22
4.67734e-21
3.97279e-20
1.09627e-20
1.3068e-20
1.77886e-20
1.2073e-20
1.68118e-22
3.61005e-22
1.58565e-22
2.42053e-20
6.83612e-21
7.44314e-21
2.23808e-20
1.52269e-22
1.14169e-21
8.15771e-21
1.35023e-20
2.36558e-20
1.18403e-20
9.38933e-21
1.36315e-20
1.71604e-20
5.29328e-21
3.98291e-21
5.78165e-21
1.34844e-20
1.2026e-20
4.03958e-21
1.81413e-21
8.74794e-21
7.72461e-21
3.82413e-20
1.20315e-20
3.42213e-21
6.05315e-21
9.36134e-21
7.74013e-21
3.84218e-22
5.55492e-21
1.64646e-20
2.96475e-21
5.33446e-21
4.18093e-20
6.57368e-21
2.20603e-20
3.79964e-20
7.0666e-21
1.58114e-20
1.00599e-20
4.03973e-21
1.28809e-21
1.87184e-21
8.59116e-21
3.19289e-21
1.04637e-20
2.4148e-21
1.47868e-22
3.97932e-22
9.9927e-21
1.10209e-20
9.05558e-21
2.4664e-21
4.34355e-20
2.62155e-20
5.24891e-21
1.30239e-20
1.7389e-20
4.3398e-21
1.25734e-20
2.33194e-20
1.77942e-20
1.42447e-20
3.25331e-22
3.93729e-20
6.24189e-21
7.41801e-21
9.97633e-22
9.07993e-21
2.73001e-20
5.32971e-21
1.10603e-22
2.32199e-22
3.01552e-20
4.24357e-21
6.54688e-21
9.35847e-21
1.50684e-20
2.06941e-20
6.86639e-21
8.3112e-21
1.44297e-20
1.70537e-21
4.72787e-21
1.96691e-20
1.07063e-21
1.23404e-20
1.33235e-20
1.79347e-20
9.84008e-21
1.10006e-21
3.3374e-21
1.54852e-21
1.94403e-20
3.52936e-20
3.3653e-21
4.30827e-20
5.19375e-21
7.15601e-21
5.75022e-21
4.2451e-21
1.51756e-20
2.88604e-21
1.1866e-20
2.2811e-22
3.57177e-21
2.77432e-20
3.41561e-21
5.53334e-21
1.62019e-20
6.28272e-20
7.34985e-21
1.01344e-21
1.51332e-21
1.74174e-20
4.10419e-20
4.85907e-20
1.41714e-20
3.75593e-20
8.23365e-21
4.97317e-21
7.24372e-21
3.28177e-20
1.71101e-20
4.55941e-22
3.59322e-21
4.66927e-20
2.6276e-20
6.30001e-21
1.78475e-20
8.26583e-21
1.60948e-20
4.1071e-20
1.31603e-20
3.47658e-21
1.45709e-20
2.46311e-20
1.13183e-20
5.57017e-21
2.71641e-21
1.9324e-20
3.20865e-21
7.34481e-21
2.44756e-21
1.73622e-22
9.75305e-22
1.79641e-20
1.82881e-20
1.65543e-20
2.09859e-20
3.24277e-20
8.30731e-21
2.5455e-20
9.40075e-21
6.75983e-21
2.3389e-20
4.66178e-22
2.69565e-21
2.68548e-20
8.90463e-22
9.8859e-21
6.04381e-23
4.0016e-21
3.65604e-21
2.96696e-20
1.69843e-20
2.60662e-20
6.812e-23
1.57993e-21
8.05492e-21
2.26994e-20
3.39863e-21
1.64442e-20
2.19436e-20
3.80785e-20
3.64304e-20
5.16481e-21
1.44072e-20
1.72203e-20
4.53752e-21
3.14368e-20
7.85196e-21
7.57918e-21
1.4375e-20
3.64287e-21
4.59717e-22
3.16317e-21
7.2073e-21
1.85444e-20
1.20125e-20
1.87436e-20
1.55312e-20
2.65499e-20
1.44182e-20
1.25737e-20
7.46618e-21
4.21158e-21
5.97328e-21
3.27499e-21
8.96324e-21
8.60891e-21
8.94039e-21
4.41605e-21
3.41878e-21
3.15868e-21
6.6769e-22
9.87578e-21
1.5011e-20
8.53093e-21
5.20162e-21
1.37634e-20
3.25116e-21
3.48698e-22
9.03111e-21
1.56139e-21
1.17188e-20
7.7902e-21
6.26323e-22
1.62102e-21
9.41169e-21
2.93226e-21
3.27699e-21
1.80496e-20
5.28598e-21
1.3012e-20
1.47489e-21
1.47702e-21
8.03133e-21
5.40269e-21
4.13098e-20
4.86184e-21
3.65113e-20
1.88004e-20
1.30278e-20
7.52392e-21
2.94607e-21
1.95577e-20
2.77087e-20
2.53456e-21
2.68477e-21
3.06738e-20
2.59783e-20
1.73263e-20
2.18522e-20
3.48215e-20
1.07584e-20
8.46649e-21
1.7532e-20
1.95271e-20
2.0067e-20
1.44365e-20
8.9897e-21
1.23757e-20
7.39739e-21
7.2729e-22
2.32277e-20
1.9117e-22
5.10397e-20
8.64181e-21
4.65999e-21
7.44515e-21
1.82359e-20
2.63702e-20
1.00052e-21
8.28156e-21
2.69564e-20
2.40928e-20
2.57905e-20
6.9759e-22
8.93606e-21
6.08009e-21
9.89642e-21
1.61754e-20
5.35686e-21
1.70914e-20
3.11053e-21
5.85553e-22
1.0208e-20
4.40874e-20
2.97717e-21
1.42385e-20
2.13344e-20
1.77689e-21
5.34245e-21
2.72586e-21
2.22758e-20
2.7552e-22
2.32705e-20
1.08515e-20
1.76767e-21
8.6518e-21
7.11323e-21
4.95859e-20
1.38714e-20
1.46684e-20
1.72842e-20
4.11303e-21
1.13191e-20
9.16318e-21
3.28538e-20
1.69831e-21
1.51578e-20
7.51754e-21
1.02849e-20
1.38045e-21
3.00456e-20
8.86153e-21
5.22374e-20
3.10343e-21
7.47722e-21
1.03048e-20
1.30589e-20
2.16102e-20
5.68515e-21
1.27372e-21
3.80121e-21
1.98361e-20
7.19299e-21
3.13483e-20
2.31451e-20
6.20103e-21
2.66103e-21
3.49138e-21
2.4831e-20
5.24602e-20
9.63562e-21
1.36009e-21
3.38003e-20
1.73157e-20
8.63962e-21
1.76247e-20
2.25466e-20
1.65666e-20
1.65693e-20
5.50003e-20
5.3357e-22
7.12617e-21
3.91695e-20
1.39923e-20
2.09736e-20
1.67452e-20
4.63187e-22
1.75173e-22
1.78758e-20
2.85641e-21
8.10596e-22
7.17237e-21
9.24651e-21
3.62946e-20
3.18779e-20
1.21857e-20
5.13401e-21
8.73489e-21
1.6349e-20
2.66428e-21
3.89596e-21
2.81621e-21
1.15229e-20
8.56133e-21
2.55771e-21
7.1627e-21
1.74618e-20
2.53256e-20
5.63008e-21
1.19897e-22
2.0538e-20
2.73372e-20
5.77335e-21
1.3962e-20
7.9165e-21
3.89235e-21
2.49353e-20
2.37717e-20
1.94912e-21
1.50028e-20
8.21535e-21
5.00708e-21
5.82446e-21
1.44184e-20
7.81121e-20
5.86778e-21
2.75547e-20
1.18826e-20
1.00741e-21
1.82084e-21
9.10112e-21
1.83528e-21
2.71701e-21
1.75619e-20
5.7609e-20
1.56185e-20
1.93845e-20
2.00368e-20
5.15927e-21
1.98473e-21
4.97894e-21
7.70347e-21
3.8375e-21
1.75866e-20
2.02232e-20
8.80736e-21
4.96336e-20
1.24445e-21
2.54771e-20
2.52802e-22
6.51771e-23
5.81175e-22
2.14397e-21
3.71937e-23
6.01853e-21
1.53645e-20
2.66043e-21
9.24524e-21
3.40988e-21
6.95763e-22
2.90069e-21
1.27411e-20
2.72666e-21
2.82791e-21
1.67153e-20
2.1534e-22
1.03681e-20
3.14784e-20
1.52551e-21
3.24404e-20
1.45398e-20
3.81085e-21
5.3319e-20
3.39868e-21
2.16645e-21
4.78575e-21
1.19648e-20
3.37678e-21
5.59003e-21
1.18172e-21
2.01498e-20
6.80646e-21
1.02946e-20
4.84699e-20
1.50782e-20
1.60725e-20
3.03753e-21
8.95419e-21
3.06983e-20
7.5956e-21
6.36484e-21
2.85073e-21
5.85828e-21
1.55812e-20
5.07233e-21
2.12567e-20
2.83655e-20
9.40523e-21
3.38842e-20
5.47824e-21
1.27488e-21
3.18735e-21
6.39041e-21
1.39492e-20
6.78811e-21
4.10916e-20
2.44941e-20
2.07279e-20
3.47682e-21
8.60774e-23
3.17359e-21
3.91315e-20
1.7037e-20
1.46612e-20
8.61925e-21
7.13136e-22
3.90775e-21
5.20967e-21
6.71958e-21
3.8498e-21
2.72483e-21
6.30865e-21
1.58693e-21
2.76737e-20
1.17457e-22
1.64153e-20
4.57501e-21
1.57522e-20
2.53177e-21
4.27711e-20
1.57997e-20
9.90404e-21
1.00059e-21
2.26706e-22
4.07881e-21
1.09808e-20
2.07355e-20
7.12043e-21
3.27287e-20
8.93668e-21
3.52929e-20
5.21019e-21
7.47663e-22
1.69946e-20
6.05645e-21
3.24738e-21
1.95384e-21
3.1462e-21
3.63542e-21
1.09378e-20
8.75332e-22
9.27556e-21
7.4146e-21
1.18072e-21
1.67248e-21
5.7155e-21
4.60611e-21
1.8776e-20
2.29801e-20
7.65286e-21
3.86106e-22
2.87659e-20
3.78477e-20
7.15046e-21
5.69374e-21
3.11704e-21
5.86e-20
2.50398e-21
6.07076e-20
3.03085e-21
1.82002e-21
2.37795e-20
1.76338e-20
2.31638e-20
1.70494e-20
2.24696e-20
1.64318e-20
2.13099e-20
1.27829e-20
3.31995e-21
2.11121e-21
4.68371e-22
2.66093e-21
6.4454e-21
3.83781e-20
2.46288e-21
9.45626e-21
2.32684e-21
7.86567e-21
9.24459e-22
1.97856e-20
3.68176e-21
1.88191e-21
9.64182e-22
1.90434e-21
3.37062e-20
1.15287e-20
9.02146e-21
7.92333e-21
1.49031e-20
9.1039e-21
1.19242e-21
1.3608e-20
2.70087e-21
2.17299e-21
5.33446e-21
1.76778e-20
4.70115e-20
2.66987e-20
6.21771e-21
1.23056e-20
2.5939e-21
1.08308e-21
3.9796e-21
2.35083e-20
6.29596e-21
1.25852e-20
9.26077e-21
1.32207e-21
1.40574e-20
3.86099e-22
2.80682e-20
7.05483e-21
9.88329e-21
4.60758e-21
8.92423e-21
2.45524e-21
1.29799e-20
9.61236e-21
3.43642e-20
1.91208e-20
3.98061e-21
1.23247e-20
1.00831e-20
9.4236e-21
7.45396e-22
7.14285e-21
5.02062e-21
3.67526e-21
5.66938e-21
2.12093e-21
4.39389e-20
1.15493e-20
2.014e-22
1.06254e-20
7.50397e-21
7.63323e-21
3.82957e-20
1.14017e-20
9.09086e-21
7.55336e-21
4.76513e-21
9.15142e-21
9.6989e-21
3.11363e-22
8.88912e-21
1.35584e-20
3.85433e-21
4.3867e-20
2.54944e-21
9.69346e-22
4.2947e-21
1.49356e-20
1.25294e-20
5.78143e-21
7.31127e-21
4.79293e-21
1.5498e-21
1.53837e-21
1.82385e-21
3.3489e-21
4.62323e-20
6.73261e-21
5.726e-21
2.78108e-21
2.23361e-20
8.56821e-21
4.02252e-21
1.0752e-20
7.8693e-21
1.03414e-20
8.68459e-21
1.84411e-20
1.85294e-20
1.67751e-22
9.10165e-21
1.02446e-20
1.85986e-20
2.61869e-20
4.96355e-21
5.8981e-21
7.61876e-21
4.73731e-21
1.62433e-20
1.19711e-20
5.05068e-21
3.12809e-20
1.40313e-20
1.30334e-20
1.92752e-20
8.73861e-22
1.1383e-20
1.70015e-22
1.92253e-20
5.0684e-21
1.55619e-21
4.49878e-21
4.8616e-21
2.53343e-21
1.1074e-20
5.07391e-21
2.87515e-22
8.08838e-21
2.04359e-21
1.45942e-20
1.30737e-21
1.83164e-20
3.47996e-21
3.60942e-21
1.74047e-21
6.31493e-21
6.21082e-21
8.6695e-21
2.29091e-21
4.42182e-21
2.25962e-20
5.97366e-21
5.901e-20
1.25727e-20
5.67629e-21
1.00091e-20
1.65379e-20
5.24068e-22
1.06994e-20
4.55883e-21
7.47292e-22
1.65257e-20
5.58661e-21
5.95977e-20
1.06961e-20
2.39422e-20
7.83248e-21
2.5395e-21
1.07698e-20
2.84187e-20
8.48678e-20
1.08018e-20
3.13458e-20
1.0299e-20
1.76129e-20
3.67554e-20
5.01675e-21
3.3643e-21
8.47797e-21
8.14697e-21
3.77257e-20
4.96741e-21
6.29182e-21
6.25464e-21
2.35648e-20
2.0803e-20
2.30828e-20
3.34268e-21
6.80087e-21
3.4372e-20
3.30756e-21
8.65144e-20
1.75999e-20
2.13348e-20
1.29197e-20
2.74773e-21
1.63895e-20
2.66009e-21
6.01745e-21
1.04858e-20
2.10107e-20
2.9565e-21
3.31939e-21
3.48851e-21
7.50537e-21
1.36029e-20
2.67256e-20
2.88103e-20
3.22803e-20
4.18445e-20
1.72672e-20
2.50461e-20
7.12342e-22
7.43084e-21
3.20492e-20
1.71649e-20
1.95608e-20
7.01162e-20
2.55916e-20
9.93797e-21
6.83529e-21
9.36532e-21
8.98926e-21
1.73232e-21
3.71123e-21
1.81116e-20
1.44731e-21
1.57785e-20
2.11846e-20
1.87826e-20
2.04084e-20
1.99608e-20
1.24828e-20
1.22166e-20
2.53112e-20
3.21178e-20
1.08599e-21
4.02185e-20
2.03063e-20
1.26552e-20
1.44473e-20
4.17e-22
9.63458e-22
1.91461e-20
3.20952e-21
1.7354e-20
1.54308e-20
2.29071e-20
5.82726e-21
2.61344e-20
4.6828e-21
6.70287e-21
2.39748e-20
5.42177e-20
9.92402e-21
1.0533e-20
9.36512e-22
2.81277e-20
1.97953e-20
6.56494e-21
1.38561e-20
2.61935e-20
3.57127e-21
4.60149e-21
6.14931e-21
7.34481e-22
2.52116e-20
6.59844e-21
1.84485e-20
8.13059e-21
7.92166e-21
1.9459e-20
1.08036e-20
1.06547e-20
1.97063e-20
3.88754e-20
3.45288e-20
1.4232e-20
1.68472e-21
4.23191e-21
1.90943e-20
4.14721e-21
2.41243e-21
5.51072e-21
1.34239e-20
4.64956e-22
2.07972e-20
1.04099e-20
4.2421e-21
2.94674e-21
2.78552e-20
2.47354e-20
2.51276e-21
3.72252e-21
2.62116e-20
1.02794e-21
3.29607e-20
3.34024e-21
3.58297e-20
1.70542e-20
3.8229e-21
3.50072e-21
4.07113e-21
1.00925e-20
2.67191e-21
1.49311e-20
1.05782e-20
2.147e-20
8.06386e-21
1.63369e-20
1.25327e-20
4.38968e-21
8.26186e-21
1.7426e-21
2.20406e-20
6.25552e-21
1.61913e-20
9.777e-21
4.81871e-21
3.53701e-21
2.22912e-21
3.78135e-21
5.36608e-21
4.13074e-21
4.53073e-21
1.00422e-21
1.09415e-20
2.2116e-21
2.22e-21
1.31006e-21
4.96294e-21
1.89554e-21
1.68801e-20
6.86117e-22
4.64908e-20
3.95791e-20
6.8329e-21
6.43306e-21
5.68657e-21
3.07356e-21
3.93059e-21
9.71529e-21
1.06273e-21
1.53021e-20
2.04552e-20
2.31209e-20
1.79226e-20
2.7952e-20
6.87445e-21
8.39376e-21
3.96074e-20
4.5393e-21
3.31273e-21
1.89222e-22
4.02306e-20
1.28777e-20
1.0061e-20
1.87951e-20
1.07466e-20
3.00045e-21
5.51545e-21
2.46268e-20
7.41991e-21
1.85839e-20
1.95713e-22
3.44703e-21
1.72455e-21
3.90038e-21
7.75673e-20
8.14173e-21
3.738e-21
2.30811e-20
4.03475e-21
7.50948e-22
7.81701e-21
3.97013e-20
5.96883e-21
1.96669e-20
2.4137e-21
4.24945e-20
4.21503e-21
1.00679e-20
7.59925e-21
5.47857e-20
1.79638e-20
8.8713e-21
5.16518e-22
4.25269e-21
1.05659e-20
2.78654e-21
1.28744e-21
4.46452e-21
8.36847e-22
3.00985e-21
3.5597e-21
2.57578e-21
7.47723e-21
2.17376e-20
7.83313e-22
6.92871e-21
3.59294e-20
6.14824e-21
5.05062e-20
2.95434e-20
3.4295e-21
1.42386e-20
4.68841e-21
9.97615e-21
7.1661e-21
1.65921e-20
1.44126e-20
9.57718e-21
4.24545e-21
1.58871e-20
6.25673e-21
6.93963e-20
1.22456e-22
5.68319e-21
4.09284e-21
2.67129e-21
7.37766e-21
9.33803e-21
9.68808e-21
3.05264e-21
1.46823e-21
3.11855e-20
1.95343e-20
1.78941e-20
1.15904e-20
8.53303e-23
2.89897e-20
9.31616e-21
1.50478e-20
2.30746e-21
4.62243e-21
3.06514e-21
5.83974e-22
1.50135e-21
3.38541e-20
2.16272e-20
2.36695e-20
1.63071e-20
2.07729e-20
6.70017e-21
1.67145e-20
5.82749e-20
2.31622e-20
1.39409e-20
2.09163e-20
1.40394e-20
2.16765e-21
3.66316e-21
1.42738e-21
8.64444e-21
9.38399e-21
5.04389e-21
9.83498e-21
1.063e-20
2.30954e-21
7.28265e-21
5.51532e-21
1.77653e-20
7.81912e-21
1.08118e-20
4.08495e-21
1.2846e-20
4.95289e-21
9.31162e-21
3.59419e-20
1.1721e-20
5.48074e-21
2.92227e-20
1.18719e-20
2.71554e-20
4.38676e-21
2.3786e-20
3.77956e-20
1.60642e-21
4.32677e-21
4.09738e-21
7.98301e-21
9.40393e-21
1.27826e-20
2.6238e-20
2.97829e-21
4.1892e-21
1.17016e-21
1.03913e-20
2.81553e-21
1.29716e-21
6.63597e-21
4.38504e-20
9.08231e-21
1.58602e-21
2.59841e-20
8.93796e-21
6.00293e-21
1.48004e-20
1.14523e-20
8.25368e-21
1.06268e-20
1.89279e-20
5.36639e-22
3.24108e-20
5.43882e-20
5.31745e-21
5.73939e-21
8.05951e-21
2.25588e-20
1.21129e-20
2.98322e-20
9.73953e-22
3.30749e-21
1.03185e-20
2.40744e-20
2.23281e-20
3.16875e-21
1.00578e-20
1.82123e-20
8.03122e-21
2.29027e-20
2.05551e-21
1.58933e-20
1.50735e-20
2.8553e-20
3.28654e-21
2.73709e-20
7.85184e-21
5.74115e-21
2.23751e-20
1.65921e-20
1.70277e-20
3.91065e-20
1.1595e-20
1.57618e-20
1.02732e-20
9.53494e-21
3.63773e-20
2.37187e-20
1.39021e-20
3.94079e-21
1.37032e-20
3.24271e-21
2.34025e-20
2.40591e-21
1.05217e-20
1.0468e-21
8.41139e-21
6.84255e-21
7.04664e-22
3.90501e-20
1.58423e-20
8.55463e-21
1.91208e-20
4.2935e-21
4.54491e-21
3.37389e-20
6.04099e-21
2.09358e-20
1.54289e-20
2.66449e-20
7.69535e-21
2.14368e-21
5.45816e-20
1.40535e-21
2.63588e-20
1.5329e-20
1.41323e-20
7.37078e-21
3.7085e-20
4.94007e-21
2.25132e-21
1.37474e-20
8.7552e-21
1.15521e-21
3.62498e-21
9.39967e-21
2.21353e-20
2.74563e-20
2.14269e-20
8.42946e-21
2.66352e-20
9.87725e-21
3.9874e-21
2.35682e-20
9.48744e-21
1.475e-21
1.2345e-20
1.11102e-20
9.00366e-21
3.50078e-21
5.03468e-21
9.16589e-21
3.4018e-21
9.00472e-21
6.08391e-21
4.55973e-23
5.81556e-21
1.79738e-20
1.12287e-20
6.20568e-21
9.73364e-21
2.28358e-20
1.83902e-20
3.2883e-20
3.59844e-21
2.69776e-21
3.76983e-21
2.2261e-22
1.03794e-20
2.45885e-22
1.94611e-20
3.00624e-20
5.74543e-21
8.13162e-21
5.4136e-21
1.38254e-20
1.42847e-20
3.06183e-20
2.49593e-21
2.18791e-21
1.13768e-22
3.61125e-21
1.40872e-20
2.99583e-20
1.56161e-20
2.2297e-22
1.69914e-20
1.8659e-20
7.04552e-21
1.17423e-20
1.08706e-20
8.43603e-21
2.00014e-20
3.2931e-20
1.25319e-20
1.60888e-20
1.37779e-20
2.72064e-21
4.89941e-20
5.94352e-21
2.35481e-20
2.7622e-20
1.79466e-20
1.12664e-20
1.92763e-20
1.76612e-21
5.67569e-21
4.17905e-21
2.48768e-21
8.52262e-21
1.28442e-20
1.54371e-20
2.04773e-21
2.05908e-20
4.33255e-21
1.41422e-20
1.41743e-21
9.17267e-21
2.19777e-21
1.01322e-20
5.48207e-21
4.41345e-21
3.64679e-21
1.06814e-20
4.33116e-21
3.14487e-20
5.88125e-21
7.28965e-21
3.84331e-21
9.79071e-21
9.25834e-21
1.53226e-21
1.25045e-20
6.27447e-21
1.84425e-21
1.99204e-20
1.28332e-20
4.15609e-21
1.31961e-20
3.57127e-20
2.25281e-20
9.68835e-22
2.96484e-20
1.28314e-20
5.99642e-21
1.44526e-20
4.61437e-20
2.08754e-20
5.23844e-21
2.4528e-21
5.9369e-21
4.41482e-21
5.45283e-21
3.0142e-21
9.79198e-22
2.14044e-20
1.12101e-21
6.15961e-21
4.49967e-21
6.1269e-20
2.15829e-20
1.95952e-20
2.48273e-20
1.07659e-20
4.17387e-21
1.04197e-20
1.85811e-20
5.59222e-21
6.32394e-22
1.88113e-20
1.51731e-20
1.96075e-20
1.05455e-20
9.46207e-21
6.46067e-21
1.25111e-20
1.89011e-20
1.13924e-20
2.19696e-20
2.66723e-20
6.18899e-21
3.73727e-21
4.69183e-21
1.9321e-21
4.5331e-21
6.14782e-22
1.39035e-21
1.02254e-20
1.75869e-20
1.24947e-20
1.35245e-20
1.47406e-20
2.60749e-23
1.30477e-20
1.54894e-20
1.98247e-20
3.52666e-21
1.45812e-21
8.30096e-20
2.82289e-20
1.11979e-20
9.09527e-21
4.73699e-21
1.01686e-20
9.05743e-21
1.03062e-20
2.26635e-20
7.75502e-21
2.43615e-20
1.01734e-20
1.59013e-20
1.74795e-20
1.6758e-20
2.10503e-20
2.26239e-20
3.8245e-21
2.37645e-20
7.03962e-21
2.35741e-20
8.28056e-21
2.13624e-21
4.67086e-21
1.93629e-20
5.17989e-21
1.55509e-20
9.21038e-21
4.6291e-21
7.40415e-21
1.30062e-20
4.53194e-21
8.45274e-21
3.405e-21
2.64418e-21
9.07125e-21
2.21093e-21
2.53952e-22
4.47128e-22
4.98576e-22
3.1123e-20
8.59299e-21
8.81788e-21
2.52838e-20
1.60516e-21
1.79127e-21
1.13077e-20
5.10719e-21
3.00884e-21
7.31285e-22
7.15811e-22
1.85097e-20
3.28712e-21
9.96082e-21
2.32939e-20
1.38263e-21
8.69573e-21
1.03482e-21
2.05711e-20
7.15902e-21
4.50601e-20
2.88253e-20
2.45029e-20
2.98553e-21
1.09317e-21
1.18484e-21
7.4116e-21
2.07613e-20
3.66684e-21
7.96245e-21
2.05367e-20
2.45036e-22
5.288e-21
1.70475e-20
8.68313e-21
8.51561e-21
1.49174e-20
7.91352e-21
1.90067e-20
3.4021e-21
2.72184e-20
1.46181e-21
5.81815e-21
8.58456e-23
2.39897e-21
1.06327e-20
1.07482e-20
2.76879e-20
6.61719e-21
1.61281e-20
2.74857e-20
4.27608e-20
1.91677e-22
4.39706e-21
2.15703e-20
9.17814e-21
6.25594e-20
7.8225e-21
1.91294e-20
1.41503e-20
8.16614e-21
1.29124e-20
2.135e-20
1.44729e-21
1.82966e-20
7.35361e-21
1.84206e-21
5.56611e-20
4.49069e-20
4.93803e-21
3.45602e-20
3.65992e-20
4.94379e-21
2.71981e-20
1.52074e-20
1.84575e-20
1.56908e-20
1.8268e-20
1.91621e-21
1.55754e-20
2.29237e-20