/*--------------------------------*- C++ -*----------------------------------*\
  =========                 |
  \\      /  F ield         | OpenFOAM: The Open Source CFD Toolbox
   \\    /   O peration     | Website:  https://openfoam.org
    \\  /    A nd           | Version:  7
     \\/     M anipulation  |
\*---------------------------------------------------------------------------*/
FoamFile
{
    version     2.0;
    format      ascii;
    class       Cloud<dsmcParcel>;
    location    "0.00252/lagrangian/dsmc";
    object      positions;
}
// * * * * * * * * * * * * * * * * * * * * * * * * * * * * * * * * * * * * * //

22814
(
(0.465127 0.267436 0 0.267436) 4 4 1
(0.418961 0.290519 0 0.290519) 2 2 1
(0.851505 0.0742473 0.0742473 0) 6 5 1
(0.617797 0.191101 0 0.191101) 0 0 1
(0.574935 0.212533 0 0.212533) 11 10 2
(0.849323 0.0753386 0.0753386 0) 5 4 1
(0.062723 0.468639 0 0.468639) 6 5 2
(0.759133 0.120433 0 0.120433) 4 3 2
(0.103344 0.448328 0 0.448328) 14 13 2
(0.896008 0.0519961 0 0.0519961) 9 8 2
(0.74757 0.126215 0 0.126215) 7 7 1
(0.547981 0.226009 0.226009 0) 1 0 1
(0.790631 0.104685 0 0.104685) 7 7 1
(0.661764 0.169118 0.169118 0) 6 5 1
(0.399744 0.300128 0.300128 0) 8 8 2
(0.187181 0.406409 0.406409 0) 3 3 2
(0.436072 0.281964 0.281964 0) 11 10 1
(0.468428 0.265786 0 0.265786) 5 5 1
(0.369463 0.315269 0.315269 0) 5 4 1
(0.0568216 0.471589 0 0.471589) 6 6 1
(0.374417 0.312792 0.312792 0) 2 1 1
(0.816961 0.0915193 0 0.0915193) 2 1 2
(0.994228 0.00288591 0.00288591 0) 5 4 1
(0.33283 0.333585 0 0.333585) 5 5 1
(0.564436 0.217782 0.217782 0) 7 7 2
(0.553638 0.223181 0 0.223181) 8 8 1
(0.947985 0.0260074 0 0.0260074) 5 5 1
(0.917509 0.0412457 0.0412457 0) 11 10 1
(0.288533 0.355733 0.355733 0) 1 0 1
(0.4341 0.28295 0.28295 0) 8 8 2
(0.205351 0.397325 0.397325 0) 2 2 2
(0.0102283 0.494886 0.494886 0) 4 3 1
(0.909097 0.0454515 0 0.0454515) 13 13 1
(0.0664209 0.46679 0.46679 0) 2 2 2
(0.776685 0.111658 0 0.111658) 5 5 1
(0.742361 0.12882 0 0.12882) 3 2 2
(0.0308915 0.484554 0 0.484554) 12 11 2
(0.827038 0.0864808 0.0864808 0) 3 3 2
(0.651147 0.174426 0 0.174426) 7 6 2
(0.930887 0.0345565 0 0.0345565) 5 5 1
(0.296744 0.351628 0 0.351628) 1 0 2
(0.252339 0.373831 0 0.373831) 4 3 2
(0.666509 0.166746 0.166746 0) 10 10 2
(0.692981 0.153509 0 0.153509) 4 4 1
(0.942218 0.028891 0.028891 0) 3 2 1
(0.0182026 0.490899 0.490899 0) 8 7 1
(0.859537 0.0702317 0.0702317 0) 7 6 1
(0.743323 0.128339 0.128339 0) 5 5 2
(0.658126 0.170937 0.170937 0) 3 3 2
(0.291646 0.354177 0.354177 0) 1 1 2
(0.214385 0.392808 0.392808 0) 0 0 2
(0.101877 0.449062 0 0.449062) 7 7 1
(0.385358 0.307321 0 0.307321) 7 6 2
(0.70725 0.146375 0 0.146375) 3 2 2
(0.82104 0.0894799 0.0894799 0) 0 624 2
(0.393702 0.303149 0.303149 0) 5 4 1
(0.217252 0.391374 0 0.391374) 1 1 1
(0.362039 0.318981 0 0.318981) 9 9 1
(0.399182 0.300409 0.300409 0) 4 4 2
(0.357008 0.321496 0 0.321496) 8 7 2
(0.52711 0.236445 0.236445 0) 3 3 2
(0.863652 0.0681741 0 0.0681741) 5 5 1
(0.780414 0.109793 0 0.109793) 1 0 2
(0.1884 0.4058 0.4058 0) 4 4 2
(0.523503 0.238249 0.238249 0) 7 6 1
(0.0812061 0.459397 0 0.459397) 4 4 1
(0.845272 0.077364 0 0.077364) 4 4 1
(0.553091 0.223455 0 0.223455) 7 7 1
(0.357698 0.321151 0 0.321151) 8 8 1
(0.278144 0.360928 0.360928 0) 2 1 1
(0.625442 0.187279 0 0.187279) 5 5 1
(0.811731 0.0941347 0.0941347 0) 10 9 1
(0.556098 0.221951 0.221951 0) 1 1 2
(0.76099 0.119505 0 0.119505) 4 4 1
(0.410657 0.294671 0.294671 0) 10 9 1
(0.85844 0.07078 0 0.07078) 9 8 2
(0.385611 0.307194 0 0.307194) 4 4 1
(0.655701 0.17215 0.17215 0) 1 1 2
(0.390031 0.304985 0.304985 0) 8 7 1
(0.502097 0.248951 0.248951 0) 5 4 1
(0.175501 0.41225 0 0.41225) 16 15 2
(0.557167 0.221417 0.221417 0) 6 5 1
(0.60429 0.197855 0.197855 0) 9 8 1
(0.697638 0.151181 0 0.151181) 1 0 2
(0.839812 0.0800942 0 0.0800942) 4 4 1
(0.470377 0.264812 0 0.264812) 6 5 2
(0.606159 0.19692 0.19692 0) 9 9 2
(0.714089 0.142956 0 0.142956) 1 1 1
(0.290242 0.354879 0 0.354879) 4 4 1
(0.625303 0.187349 0.187349 0) 6 5 1
(0.49534 0.25233 0 0.25233) 3 2 2
(0.533484 0.233258 0 0.233258) 6 6 1
(0.200328 0.399836 0.399836 0) 5 4 1
(0.318067 0.340966 0 0.340966) 6 5 2
(0.180096 0.409952 0.409952 0) 6 6 2
(0.592618 0.203691 0 0.203691) 2 2 1
(0.7305 0.13475 0 0.13475) 4 3 2
(0.497714 0.251143 0.251143 0) 6 6 2
(0.80063 0.0996848 0.0996848 0) 3 3 2
(0.387403 0.306298 0.306298 0) 1 1 2
(0.280272 0.359864 0.359864 0) 6 5 1
(0.0163274 0.491836 0.491836 0) 5 4 1
(0.869461 0.0652695 0 0.0652695) 1 1 1
(0.160032 0.419984 0 0.419984) 5 5 1
(0.667383 0.166308 0.166308 0) 3 2 1
(0.0324293 0.483785 0 0.483785) 4 4 1
(0.228109 0.385946 0 0.385946) 1 1 1
(0.541745 0.229128 0.229128 0) 5 4 1
(0.691163 0.154418 0 0.154418) 7 6 2
(0.763466 0.118267 0.118267 0) 11 10 1
(0.159113 0.420444 0.420444 0) 12 11 1
(0.0568206 0.47159 0.47159 0) 8 7 1
(0.13009 0.434955 0.434955 0) 5 4 1
(0.576059 0.21197 0.21197 0) 10 10 2
(0.945011 0.0274943 0.0274943 0) 8 8 2
(0.111408 0.444296 0.444296 0) 12 11 1
(0.422216 0.288892 0 0.288892) 3 2 2
(0.842841 0.0785796 0.0785796 0) 3 2 1
(0.139271 0.430364 0.430364 0) 10 9 1
(0.676284 0.161858 0.161858 0) 6 6 2
(0.994814 0.00259301 0 0.00259301) 3 2 2
(0.178499 0.410751 0.410751 0) 8 8 2
(0.778281 0.11086 0 0.11086) 3 2 2
(0.901164 0.0494181 0 0.0494181) 10 9 2
(0.0408802 0.47956 0.47956 0) 11 11 2
(0.173791 0.413104 0.413104 0) 2 2 2
(0.573636 0.213182 0 0.213182) 3 3 1
(0.647301 0.17635 0.17635 0) 1 1 2
(0.037822 0.481089 0 0.481089) 3 2 2
(0.571977 0.214011 0.214011 0) 18 17 1
(0.4515 0.27425 0.27425 0) 2 2 2
(0.100077 0.449962 0 0.449962) 2 1 2
(0.315164 0.342418 0.342418 0) 6 6 2
(0.424146 0.287927 0 0.287927) 11 10 2
(0.020044 0.489978 0 0.489978) 4 4 1
(0.562721 0.218639 0 0.218639) 5 5 1
(0.186803 0.406598 0.406598 0) 2 2 2
(0.119927 0.440037 0 0.440037) 4 4 1
(0.37993 0.310035 0 0.310035) 8 8 1
(0.530626 0.234687 0 0.234687) 4 3 2
(0.942114 0.028943 0.028943 0) 5 5 2
(0.73671 0.131645 0.131645 0) 4 4 2
(0.985837 0.00708132 0.00708132 0) 5 5 2
(0.735349 0.132326 0 0.132326) 6 5 2
(0.622435 0.188782 0.188782 0) 6 6 2
(0.0605625 0.469719 0.469719 0) 6 5 1
(0.490193 0.254904 0 0.254904) 3 2 2
(0.09909 0.450455 0 0.450455) 3 2 2
(0.726614 0.136693 0.136693 0) 6 5 1
(0.596675 0.201663 0 0.201663) 9 9 1
(0.296715 0.351642 0.351642 0) 7 7 2
(0.753018 0.123491 0 0.123491) 0 624 1
(0.25354 0.37323 0 0.37323) 8 7 2
(0.915502 0.0422491 0 0.0422491) 6 5 2
(0.720196 0.139902 0.139902 0) 2 2 2
(0.218487 0.390757 0 0.390757) 10 9 2
(0.642441 0.178779 0 0.178779) 7 6 2
(0.65399 0.173005 0.173005 0) 3 3 2
(0.896219 0.0518904 0.0518904 0) 2 2 2
(0.881267 0.0593663 0.0593663 0) 9 9 2
(0.464472 0.267764 0 0.267764) 6 6 1
(0.309377 0.345312 0.345312 0) 7 7 2
(0.507766 0.246117 0 0.246117) 8 8 1
(0.0239921 0.488004 0.488004 0) 7 7 2
(0.409649 0.295176 0 0.295176) 4 4 1
(0.304597 0.347702 0 0.347702) 11 10 2
(0.803557 0.0982213 0 0.0982213) 3 3 1
(0.365567 0.317216 0.317216 0) 8 7 1
(0.16382 0.41809 0.41809 0) 5 4 1
(0.550851 0.224575 0.224575 0) 11 11 2
(0.128248 0.435876 0 0.435876) 4 3 2
(0.739256 0.130372 0.130372 0) 8 7 1
(0.951611 0.0241944 0 0.0241944) 6 5 2
(0.277478 0.361261 0 0.361261) 8 8 1
(0.584383 0.207809 0.207809 0) 2 1 1
(0.590495 0.204752 0 0.204752) 6 6 1
(0.33069 0.334655 0.334655 0) 5 4 1
(0.192995 0.403503 0.403503 0) 12 12 2
(0.587273 0.206364 0 0.206364) 7 7 1
(0.491259 0.25437 0.25437 0) 8 7 1
(0.678033 0.160984 0 0.160984) 7 7 1
(0.894545 0.0527273 0.0527273 0) 12 11 1
(0.467467 0.266266 0 0.266266) 5 4 2
(0.356068 0.321966 0 0.321966) 6 6 1
(0.459896 0.270052 0.270052 0) 6 5 1
(0.772428 0.113786 0.113786 0) 9 8 1
(0.649931 0.175034 0 0.175034) 3 3 1
(0.831765 0.0841175 0.0841175 0) 7 7 2
(0.660589 0.169706 0 0.169706) 6 6 1
(0.0782392 0.46088 0 0.46088) 3 3 1
(0.72517 0.137415 0 0.137415) 8 8 1
(0.562855 0.218572 0 0.218572) 8 7 2
(0.779683 0.110159 0.110159 0) 11 11 2
(0.22051 0.389745 0 0.389745) 3 3 1
(0.668425 0.165788 0.165788 0) 6 6 2
(0.816007 0.0919963 0 0.0919963) 6 5 2
(0.23664 0.38168 0.38168 0) 2 2 2
(0.583716 0.208142 0 0.208142) 3 2 2
(0.160813 0.419594 0 0.419594) 4 3 2
(0.0123854 0.493807 0.493807 0) 5 5 2
(0.709009 0.145495 0.145495 0) 1 1 2
(0.963235 0.0183827 0.0183827 0) 8 8 2
(0.83551 0.0822451 0.0822451 0) 2 2 2
(0.996566 0.00171698 0 0.00171698) 8 7 2
(0.241784 0.379108 0 0.379108) 6 6 1
(0.202512 0.398744 0 0.398744) 9 8 2
(0.770899 0.114551 0.114551 0) 4 4 2
(0.798711 0.100644 0.100644 0) 2 1 1
(0.593399 0.2033 0.2033 0) 4 3 1
(0.0572324 0.471384 0 0.471384) 0 0 1
(0.0198713 0.490064 0.490064 0) 1 0 1
(0.965351 0.0173243 0 0.0173243) 14 14 1
(0.951099 0.0244507 0 0.0244507) 6 5 2
(0.316154 0.341923 0 0.341923) 10 10 1
(0.355574 0.322213 0 0.322213) 7 6 2
(0.743054 0.128473 0 0.128473) 12 12 1
(0.336533 0.331734 0 0.331734) 3 3 1
(0.391167 0.304417 0.304417 0) 2 1 1
(0.562292 0.218854 0.218854 0) 5 5 2
(0.922522 0.038739 0.038739 0) 7 7 2
(0.391945 0.304028 0 0.304028) 0 0 1
(0.22936 0.38532 0 0.38532) 6 6 1
(0.74461 0.127695 0 0.127695) 1 0 2
(0.33822 0.33089 0 0.33089) 4 3 2
(0.598597 0.200701 0 0.200701) 5 4 2
(0.727012 0.136494 0.136494 0) 12 11 1
(0.635125 0.182437 0.182437 0) 8 7 1
(0.0933709 0.453315 0.453315 0) 2 1 1
(0.026147 0.486927 0.486927 0) 11 10 1
(0.411464 0.294268 0.294268 0) 5 5 2
(0.738228 0.130886 0.130886 0) 8 8 2
(0.655775 0.172113 0.172113 0) 8 8 2
(0.726046 0.136977 0.136977 0) 2 2 2
(0.104041 0.447979 0.447979 0) 3 2 1
(0.829892 0.0850542 0 0.0850542) 6 5 2
(0.926735 0.0366326 0 0.0366326) 13 13 1
(0.626252 0.186874 0.186874 0) 3 2 1
(0.388864 0.305568 0 0.305568) 10 9 2
(0.911441 0.0442794 0.0442794 0) 9 8 1
(0.903311 0.0483446 0.0483446 0) 4 4 2
(0.951578 0.0242108 0 0.0242108) 5 5 1
(0.89083 0.0545849 0 0.0545849) 8 7 2
(0.0992054 0.450397 0 0.450397) 4 4 1
(0.535824 0.232088 0 0.232088) 9 8 2
(0.753288 0.123356 0 0.123356) 5 4 2
(0.0723007 0.46385 0.46385 0) 7 7 2
(0.366771 0.316615 0.316615 0) 4 4 2
(0.879513 0.0602437 0 0.0602437) 4 3 2
(0.730145 0.134928 0.134928 0) 7 7 2
(0.888976 0.0555118 0 0.0555118) 3 3 1
(0.298666 0.350667 0.350667 0) 4 3 1
(0.725127 0.137437 0.137437 0) 3 3 2
(0.215409 0.392295 0.392295 0) 12 12 2
(0.609322 0.195339 0 0.195339) 4 3 2
(0.0402268 0.479887 0 0.479887) 8 8 1
(0.952218 0.023891 0 0.023891) 3 2 2
(0.72825 0.135875 0 0.135875) 3 2 2
(0.0453267 0.477337 0.477337 0) 2 1 1
(0.86873 0.065635 0 0.065635) 3 2 2
(0.336072 0.331964 0 0.331964) 4 3 2
(0.365146 0.317427 0 0.317427) 1 1 1
(0.666163 0.166918 0.166918 0) 6 6 2
(0.666888 0.166556 0 0.166556) 11 10 2
(0.148773 0.425614 0.425614 0) 4 4 2
(0.940758 0.0296212 0 0.0296212) 11 10 2
(0.784186 0.107907 0 0.107907) 10 9 2
(0.789049 0.105475 0.105475 0) 2 2 2
(0.443522 0.278239 0.278239 0) 13 13 2
(0.730796 0.134602 0 0.134602) 6 6 1
(0.656856 0.171572 0.171572 0) 8 8 2
(0.766438 0.116781 0 0.116781) 10 10 1
(0.00210149 0.498949 0 0.498949) 8 7 2
(0.92053 0.0397349 0 0.0397349) 2 2 1
(0.21667 0.391665 0.391665 0) 9 9 2
(0.540198 0.229901 0.229901 0) 8 8 2
(0.611635 0.194183 0 0.194183) 7 6 2
(0.0905974 0.454701 0 0.454701) 12 12 1
(0.400369 0.299816 0 0.299816) 3 2 2
(0.823641 0.0881796 0 0.0881796) 5 4 2
(0.464787 0.267607 0 0.267607) 8 8 1
(0.225138 0.387431 0 0.387431) 10 9 2
(0.0829088 0.458546 0.458546 0) 4 3 1
(0.316134 0.341933 0 0.341933) 10 10 1
(0.404461 0.297769 0.297769 0) 4 4 2
(0.316743 0.341628 0.341628 0) 4 4 2
(0.318428 0.340786 0 0.340786) 5 5 1
(0.128818 0.435591 0.435591 0) 4 4 2
(0.434781 0.28261 0 0.28261) 10 10 1
(0.237753 0.381123 0 0.381123) 8 8 1
(0.236357 0.381821 0 0.381821) 10 10 1
(0.995757 0.00212165 0 0.00212165) 1 1 1
(0.793587 0.103207 0.103207 0) 6 5 1
(0.252851 0.373575 0 0.373575) 7 7 1
(0.182992 0.408504 0.408504 0) 4 3 1
(0.238885 0.380558 0.380558 0) 7 7 2
(0.255683 0.372159 0 0.372159) 15 15 1
(0.860125 0.0699375 0.0699375 0) 6 6 2
(0.675893 0.162054 0 0.162054) 8 7 2
(0.704152 0.147924 0.147924 0) 5 5 2
(0.131701 0.434149 0 0.434149) 2 1 2
(0.427701 0.28615 0 0.28615) 8 7 2
(0.0217401 0.48913 0.48913 0) 10 9 1
(0.605375 0.197312 0.197312 0) 4 3 1
(0.115836 0.442082 0 0.442082) 6 5 2
(0.760043 0.119979 0 0.119979) 2 1 2
(0.776759 0.111621 0 0.111621) 6 5 2
(0.634193 0.182904 0 0.182904) 5 5 1
(0.560897 0.219551 0 0.219551) 3 3 1
(0.569899 0.21505 0 0.21505) 4 4 1
(0.871298 0.0643508 0 0.0643508) 6 5 2
(0.778339 0.11083 0.11083 0) 2 2 2
(0.986106 0.00694696 0.00694696 0) 11 10 1
(0.744102 0.127949 0.127949 0) 6 5 1
(0.158797 0.420602 0.420602 0) 9 8 1
(0.596516 0.201742 0 0.201742) 8 8 1
(0.30006 0.34997 0.34997 0) 7 7 2
(0.548221 0.225889 0.225889 0) 2 2 2
(0.409763 0.295118 0 0.295118) 2 1 2
(0.830814 0.0845929 0 0.0845929) 8 7 2
(0.832708 0.0836459 0.0836459 0) 6 5 1
(0.0497481 0.475126 0.475126 0) 9 8 1
(0.145794 0.427103 0.427103 0) 11 10 1
(0.160955 0.419522 0.419522 0) 4 3 1
(0.640852 0.179574 0.179574 0) 7 6 1
(0.772577 0.113711 0 0.113711) 11 11 1
(0.441248 0.279376 0.279376 0) 11 10 1
(0.0239661 0.488017 0.488017 0) 7 6 1
(0.992581 0.00370974 0.00370974 0) 6 5 1
(0.977593 0.0112034 0.0112034 0) 4 3 1
(0.583331 0.208335 0 0.208335) 7 7 1
(0.341341 0.329329 0 0.329329) 6 6 1
(0.158321 0.42084 0.42084 0) 5 4 1
(0.342798 0.328601 0 0.328601) 0 0 1
(0.260435 0.369782 0 0.369782) 1 1 1
(0.876938 0.061531 0.061531 0) 9 9 2
(0.0588527 0.470574 0.470574 0) 7 7 2
(0.357374 0.321313 0.321313 0) 3 3 2
(0.664166 0.167917 0.167917 0) 5 4 1
(0.658742 0.170629 0.170629 0) 7 7 2
(0.782977 0.108512 0 0.108512) 3 2 2
(0.23431 0.382845 0.382845 0) 11 11 2
(0.398081 0.300959 0.300959 0) 1 1 2
(0.69599 0.152005 0 0.152005) 4 4 1
(0.45219 0.273905 0 0.273905) 3 3 1
(0.750097 0.124951 0 0.124951) 5 4 2
(0.434314 0.282843 0.282843 0) 1 0 1
(0.935238 0.0323809 0 0.0323809) 4 3 2
(0.61323 0.193385 0.193385 0) 1 0 1
(0.570789 0.214605 0.214605 0) 11 10 1
(0.771766 0.114117 0.114117 0) 14 13 1
(0.0196149 0.490193 0 0.490193) 5 4 2
(0.418856 0.290572 0.290572 0) 3 2 1
(0.774127 0.112936 0.112936 0) 1 0 1
(0.552496 0.223752 0.223752 0) 10 10 2
(0.349905 0.325047 0.325047 0) 6 6 2
(0.32173 0.339135 0.339135 0) 4 3 1
(0.56749 0.216255 0.216255 0) 6 6 2
(0.314741 0.342629 0.342629 0) 3 3 2
(0.726028 0.136986 0 0.136986) 2 1 2
(0.414166 0.292917 0 0.292917) 5 5 1
(0.658463 0.170768 0 0.170768) 8 8 1
(0.0358681 0.482066 0 0.482066) 8 8 1
(0.180065 0.409968 0 0.409968) 9 8 2
(0.391711 0.304144 0.304144 0) 1 1 2
(0.380833 0.309584 0.309584 0) 4 4 2
(0.394082 0.302959 0 0.302959) 11 11 1
(0.297047 0.351477 0 0.351477) 2 1 2
(0.569079 0.21546 0.21546 0) 6 6 2
(0.303734 0.348133 0 0.348133) 4 4 1
(0.104719 0.447641 0.447641 0) 7 6 1
(0.969566 0.0152171 0.0152171 0) 9 8 1
(0.0281026 0.485949 0.485949 0) 5 5 2
(0.507831 0.246084 0.246084 0) 9 8 1
(0.0978944 0.451053 0 0.451053) 7 7 1
(0.364496 0.317752 0 0.317752) 8 7 2
(0.147577 0.426211 0 0.426211) 6 6 1
(0.522712 0.238644 0 0.238644) 5 5 1
(0.780904 0.109548 0.109548 0) 10 9 1
(0.709447 0.145276 0 0.145276) 5 4 2
(0.537417 0.231292 0.231292 0) 14 14 2
(0.344838 0.327581 0.327581 0) 4 4 2
(0.417431 0.291284 0 0.291284) 4 3 2
(0.794498 0.102751 0.102751 0) 6 6 2
(0.458527 0.270737 0.270737 0) 1 0 1
(0.143052 0.428474 0.428474 0) 2 2 2
(0.517857 0.241072 0 0.241072) 10 10 1
(0.309638 0.345181 0 0.345181) 9 8 2
(0.407563 0.296219 0 0.296219) 3 2 2
(0.410504 0.294748 0.294748 0) 11 11 2
(0.584645 0.207677 0.207677 0) 8 7 1
(0.42201 0.288995 0.288995 0) 6 6 2
(0.820391 0.0898047 0.0898047 0) 9 9 2
(0.284964 0.357518 0.357518 0) 3 3 2
(0.654457 0.172772 0.172772 0) 11 11 2
(0.483077 0.258462 0 0.258462) 9 8 2
(0.0231986 0.488401 0.488401 0) 6 5 1
(0.326449 0.336776 0.336776 0) 12 11 1
(0.106391 0.446804 0.446804 0) 5 5 2
(0.941385 0.0293073 0.0293073 0) 4 4 2
(0.356562 0.321719 0.321719 0) 5 5 2
(0.417306 0.291347 0.291347 0) 10 9 1
(0.31183 0.344085 0.344085 0) 13 13 2
(0.481356 0.259322 0.259322 0) 11 10 1
(0.38835 0.305825 0.305825 0) 7 6 1
(0.725045 0.137477 0.137477 0) 5 5 2
(0.0201133 0.489943 0 0.489943) 12 12 1
(0.73895 0.130525 0.130525 0) 8 7 1
(0.0491245 0.475438 0 0.475438) 7 7 1
(0.904817 0.0475917 0.0475917 0) 5 4 1
(0.631962 0.184019 0 0.184019) 4 4 1
(0.978895 0.0105526 0.0105526 0) 4 4 2
(0.591006 0.204497 0.204497 0) 2 1 1
(0.13416 0.43292 0.43292 0) 3 2 1
(0.0870502 0.456475 0 0.456475) 7 6 2
(0.820462 0.0897692 0 0.0897692) 10 9 2
(0.0494029 0.475299 0 0.475299) 6 5 2
(0.655656 0.172172 0.172172 0) 16 15 1
(0.340019 0.329991 0.329991 0) 12 11 1
(0.0413396 0.47933 0.47933 0) 3 3 2
(0.0746211 0.462689 0 0.462689) 12 11 2
(0.111722 0.444139 0.444139 0) 5 4 1
(0.654599 0.172701 0 0.172701) 4 3 2
(0.186031 0.406985 0.406985 0) 5 5 2
(0.669802 0.165099 0 0.165099) 5 4 2
(0.521467 0.239267 0.239267 0) 12 12 2
(0.0541996 0.4729 0.4729 0) 10 9 1
(0.655974 0.172013 0.172013 0) 11 11 2
(0.414298 0.292851 0 0.292851) 7 7 1
(0.947109 0.0264453 0 0.0264453) 5 4 2
(0.811838 0.0940809 0 0.0940809) 2 2 1
(0.778108 0.110946 0.110946 0) 8 8 2
(0.467279 0.26636 0 0.26636) 7 6 2
(0.416486 0.291757 0 0.291757) 4 4 1
(0.284974 0.357513 0 0.357513) 4 4 1
(0.733718 0.133141 0.133141 0) 9 8 1
(0.838721 0.0806396 0.0806396 0) 4 3 1
(0.815785 0.0921077 0 0.0921077) 5 5 1
(0.96566 0.0171701 0 0.0171701) 8 8 1
(0.049608 0.475196 0.475196 0) 6 5 1
(0.483016 0.258492 0.258492 0) 4 4 2
(0.313651 0.343175 0.343175 0) 10 9 1
(0.17943 0.410285 0.410285 0) 9 9 2
(0.990862 0.00456904 0 0.00456904) 1 0 2
(0.0260468 0.486977 0 0.486977) 10 9 2
(0.0799198 0.46004 0.46004 0) 4 3 1
(0.53269 0.233655 0.233655 0) 2 2 2
(0.842579 0.0787104 0.0787104 0) 2 2 2
(0.874286 0.0628569 0.0628569 0) 6 5 1
(0.311246 0.344377 0.344377 0) 4 3 1
(0.439133 0.280434 0.280434 0) 2 1 1
(0.337056 0.331472 0.331472 0) 10 9 1
(0.949137 0.0254316 0.0254316 0) 5 4 1
(0.105966 0.447017 0 0.447017) 7 6 2
(0.643041 0.178479 0.178479 0) 9 8 1
(0.350246 0.324877 0 0.324877) 6 6 1
(0.804206 0.0978971 0 0.0978971) 5 5 1
(0.631985 0.184007 0 0.184007) 7 7 1
(0.705173 0.147414 0 0.147414) 7 7 1
(0.302193 0.348903 0 0.348903) 15 14 2
(0.538636 0.230682 0 0.230682) 7 7 1
(0.393168 0.303416 0 0.303416) 6 6 1
(0.112958 0.443521 0.443521 0) 7 7 2
(0.927149 0.0364254 0 0.0364254) 2 1 2
(0.469547 0.265227 0 0.265227) 5 4 2
(0.744081 0.127959 0.127959 0) 3 3 2
(0.47373 0.263135 0 0.263135) 7 6 2
(0.0779362 0.461032 0 0.461032) 5 5 1
(0.251603 0.374198 0 0.374198) 4 3 2
(0.457814 0.271093 0 0.271093) 10 10 1
(0.216383 0.391809 0 0.391809) 0 0 1
(0.376847 0.311577 0 0.311577) 5 5 1
(0.83304 0.0834802 0 0.0834802) 3 2 2
(0.420562 0.289719 0 0.289719) 4 3 2
(0.0995817 0.450209 0.450209 0) 3 3 2
(0.0921085 0.453946 0.453946 0) 11 10 1
(0.513236 0.243382 0 0.243382) 3 2 2
(0.472545 0.263728 0.263728 0) 2 1 1
(0.841967 0.0790163 0.0790163 0) 5 4 1
(0.116759 0.44162 0 0.44162) 12 11 2
(0.879127 0.0604363 0.0604363 0) 5 4 1
(0.911474 0.0442631 0.0442631 0) 8 8 2
(0.907282 0.0463589 0 0.0463589) 5 5 1
(0.539722 0.230139 0.230139 0) 6 6 2
(0.349511 0.325245 0 0.325245) 2 1 2
(0.332948 0.333526 0 0.333526) 8 8 1
(0.345065 0.327467 0 0.327467) 10 9 2
(0.254589 0.372705 0.372705 0) 4 4 2
(0.522901 0.238549 0.238549 0) 5 4 1
(0.104149 0.447925 0.447925 0) 7 6 1
(0.919346 0.0403271 0.0403271 0) 5 4 1
(0.955937 0.0220317 0 0.0220317) 17 17 1
(0.46723 0.266385 0 0.266385) 12 12 1
(0.814242 0.0928791 0 0.0928791) 7 7 1
(0.0724054 0.463797 0 0.463797) 3 3 1
(0.522289 0.238855 0 0.238855) 9 8 2
(0.641186 0.179407 0 0.179407) 4 3 2
(0.1119 0.44405 0 0.44405) 10 9 2
(0.634233 0.182883 0 0.182883) 7 7 1
(0.18498 0.40751 0 0.40751) 6 5 2
(0.31358 0.34321 0.34321 0) 7 7 2
(0.328122 0.335939 0.335939 0) 5 5 2
(0.346716 0.326642 0 0.326642) 4 4 1
(0.874059 0.0629704 0.0629704 0) 4 4 2
(0.839631 0.0801845 0.0801845 0) 4 4 2
(0.334614 0.332693 0.332693 0) 7 7 2
(0.159003 0.420498 0 0.420498) 3 2 2
(0.270311 0.364845 0 0.364845) 7 7 1
(0.240868 0.379566 0.379566 0) 3 2 1
(0.314812 0.342594 0.342594 0) 8 7 1
(0.558848 0.220576 0 0.220576) 8 8 1
(0.190197 0.404902 0 0.404902) 8 8 1
(0.427053 0.286474 0 0.286474) 7 7 1
(0.524955 0.237522 0 0.237522) 5 5 1
(0.145791 0.427104 0 0.427104) 3 3 1
(0.883599 0.0582003 0.0582003 0) 1 0 1
(0.679431 0.160284 0.160284 0) 6 6 2
(0.120762 0.439619 0 0.439619) 7 7 1
(0.847292 0.0763538 0.0763538 0) 5 4 1
(0.792945 0.103528 0.103528 0) 4 3 1
(0.293282 0.353359 0.353359 0) 0 0 2
(0.37087 0.314565 0.314565 0) 7 6 1
(0.107693 0.446154 0 0.446154) 3 3 1
(0.806176 0.096912 0 0.096912) 12 12 1
(0.960292 0.0198539 0 0.0198539) 12 12 1
(0.522361 0.23882 0.23882 0) 10 10 2
(0.975112 0.0124438 0.0124438 0) 9 8 1
(0.804919 0.0975406 0.0975406 0) 3 3 2
(0.694095 0.152953 0 0.152953) 12 11 2
(0.639764 0.180118 0 0.180118) 4 3 2
(0.14537 0.427315 0 0.427315) 5 4 2
(0.212992 0.393504 0.393504 0) 8 8 2
(0.568825 0.215587 0.215587 0) 8 8 2
(0.48583 0.257085 0.257085 0) 11 11 2
(0.640411 0.179794 0 0.179794) 6 5 2
(0.0278686 0.486066 0.486066 0) 15 14 1
(0.185823 0.407088 0 0.407088) 8 7 2
(0.743285 0.128358 0.128358 0) 17 17 2
(0.505463 0.247268 0 0.247268) 7 6 2
(0.472953 0.263524 0 0.263524) 11 10 2
(0.589423 0.205288 0.205288 0) 6 6 2
(0.691821 0.154089 0.154089 0) 2 2 2
(0.0829998 0.4585 0 0.4585) 1 0 2
(0.70031 0.149845 0.149845 0) 8 8 2
(0.78787 0.106065 0.106065 0) 9 9 2
(0.278538 0.360731 0 0.360731) 11 11 1
(0.141155 0.429423 0.429423 0) 11 11 2
(0.0529023 0.473549 0 0.473549) 3 3 1
(0.588469 0.205765 0 0.205765) 11 10 2
(0.801042 0.0994792 0 0.0994792) 11 11 1
(0.888095 0.0559524 0.0559524 0) 7 7 2
(0.28153 0.359235 0 0.359235) 5 5 1
(0.483634 0.258183 0.258183 0) 1 1 2
(0.178081 0.41096 0.41096 0) 6 6 2
(0.88828 0.0558602 0 0.0558602) 10 9 2
(0.579439 0.210281 0 0.210281) 7 6 2
(0.214705 0.392647 0.392647 0) 9 9 2
(0.403638 0.298181 0 0.298181) 4 4 1
(0.833535 0.0832327 0.0832327 0) 6 5 1
(0.308988 0.345506 0.345506 0) 3 2 1
(0.660449 0.169776 0 0.169776) 6 6 1
(0.587507 0.206246 0.206246 0) 7 6 1
(0.540321 0.22984 0.22984 0) 7 6 1
(0.180562 0.409719 0.409719 0) 10 9 1
(0.00190456 0.499048 0.499048 0) 3 2 1
(0.783774 0.108113 0 0.108113) 5 4 2
(0.848203 0.0758986 0.0758986 0) 6 5 1
(0.495793 0.252103 0 0.252103) 3 3 1
(0.754279 0.122861 0 0.122861) 7 6 2
(0.92784 0.0360802 0.0360802 0) 3 3 2
(0.238959 0.38052 0 0.38052) 11 10 2
(0.568751 0.215624 0 0.215624) 3 3 1
(0.622466 0.188767 0 0.188767) 3 2 2
(0.961677 0.0191617 0.0191617 0) 9 9 2
(0.428139 0.285931 0.285931 0) 10 9 1
(0.809932 0.095034 0.095034 0) 3 2 1
(0.559985 0.220007 0.220007 0) 6 6 2
(0.393654 0.303173 0.303173 0) 9 8 1
(0.139274 0.430363 0 0.430363) 8 7 2
(0.976766 0.0116171 0 0.0116171) 5 4 2
(0.939532 0.030234 0 0.030234) 0 624 1
(0.0948719 0.452564 0.452564 0) 9 9 2
(0.500695 0.249652 0.249652 0) 6 5 1
(0.288172 0.355914 0 0.355914) 7 6 2
(0.00613991 0.49693 0.49693 0) 4 4 2
(0.201915 0.399042 0.399042 0) 15 15 2
(0.704617 0.147692 0.147692 0) 14 14 2
(0.406465 0.296768 0.296768 0) 6 6 2
(0.999249 0.000375371 0 0.000375371) 17 16 2
(0.696211 0.151894 0 0.151894) 2 1 2
(0.115924 0.442038 0 0.442038) 11 11 1
(0.245721 0.377139 0.377139 0) 19 19 2
(0.096443 0.451778 0 0.451778) 10 9 2
(0.11184 0.44408 0 0.44408) 4 3 2
(0.229149 0.385425 0.385425 0) 2 1 1
(0.0138145 0.493093 0 0.493093) 13 13 1
(0.458219 0.27089 0.27089 0) 14 14 2
(0.280309 0.359845 0 0.359845) 8 7 2
(0.233205 0.383398 0.383398 0) 3 3 2
(0.848472 0.0757638 0.0757638 0) 5 5 2
(0.812884 0.0935578 0 0.0935578) 8 8 1
(0.795823 0.102089 0 0.102089) 11 11 1
(0.590957 0.204522 0.204522 0) 8 7 1
(0.0998687 0.450066 0.450066 0) 3 3 2
(0.745404 0.127298 0 0.127298) 8 7 2
(0.802881 0.0985595 0 0.0985595) 1 0 2
(0.288696 0.355652 0.355652 0) 7 6 1
(0.915978 0.042011 0 0.042011) 14 13 2
(0.402494 0.298753 0 0.298753) 3 3 1
(0.620858 0.189571 0 0.189571) 0 624 1
(0.306025 0.346987 0 0.346987) 4 4 1
(0.828928 0.0855359 0 0.0855359) 9 9 1
(0.993183 0.00340852 0.00340852 0) 5 5 2
(0.857674 0.0711629 0.0711629 0) 7 6 1
(0.442585 0.278707 0 0.278707) 9 9 1
(0.541626 0.229187 0.229187 0) 10 9 1
(0.643961 0.178019 0 0.178019) 8 8 1
(0.99841 0.000794973 0 0.000794973) 12 11 2
(0.658151 0.170925 0 0.170925) 12 11 2
(0.879084 0.060458 0 0.060458) 4 3 2
(0.189577 0.405212 0 0.405212) 6 5 2
(0.622615 0.188692 0 0.188692) 2 2 1
(0.076142 0.461929 0.461929 0) 17 16 1
(0.501018 0.249491 0 0.249491) 3 2 2
(0.419596 0.290202 0.290202 0) 1 0 1
(0.373393 0.313303 0.313303 0) 11 10 1
(0.380836 0.309582 0.309582 0) 3 3 2
(0.0248836 0.487558 0 0.487558) 6 6 1
(0.950664 0.0246681 0.0246681 0) 15 14 1
(0.836577 0.0817115 0 0.0817115) 5 5 1
(0.556428 0.221786 0 0.221786) 2 1 2
(0.385893 0.307054 0 0.307054) 6 5 2
(0.59699 0.201505 0.201505 0) 15 15 2
(0.923329 0.0383354 0 0.0383354) 3 3 1
(0.616007 0.191996 0.191996 0) 10 9 1
(0.726364 0.136818 0 0.136818) 10 10 1
(0.40463 0.297685 0.297685 0) 14 14 2
(0.139476 0.430262 0.430262 0) 4 3 1
(0.683672 0.158164 0 0.158164) 6 6 1
(0.584664 0.207668 0 0.207668) 7 6 2
(0.275169 0.362415 0 0.362415) 13 13 1
(0.300154 0.349923 0 0.349923) 8 8 1
(0.421017 0.289491 0.289491 0) 1 0 1
(0.706418 0.146791 0.146791 0) 9 8 1
(0.77237 0.113815 0.113815 0) 3 2 1
(0.543687 0.228157 0 0.228157) 9 8 2
(0.603344 0.198328 0.198328 0) 5 5 2
(0.4833 0.25835 0.25835 0) 3 2 1
(0.321798 0.339101 0 0.339101) 3 3 1
(0.914297 0.0428517 0.0428517 0) 3 2 1
(0.942479 0.0287605 0.0287605 0) 6 5 1
(0.958645 0.0206776 0 0.0206776) 18 17 2
(0.882248 0.0588758 0 0.0588758) 5 4 2
(0.551051 0.224474 0 0.224474) 3 3 1
(0.419573 0.290214 0 0.290214) 8 8 1
(0.723693 0.138153 0 0.138153) 5 5 1
(0.182854 0.408573 0 0.408573) 0 0 1
(0.64139 0.179305 0.179305 0) 15 14 1
(0.41657 0.291715 0.291715 0) 14 13 1
(0.927232 0.0363838 0.0363838 0) 13 12 1
(0.0755688 0.462216 0.462216 0) 4 4 2
(0.814557 0.0927216 0.0927216 0) 7 7 2
(0.769061 0.115469 0.115469 0) 5 4 1
(0.559682 0.220159 0 0.220159) 6 5 2
(0.329474 0.335263 0.335263 0) 6 6 2
(0.0789551 0.460522 0 0.460522) 4 4 1
(0.821556 0.0892219 0 0.0892219) 2 2 1
(0.961695 0.0191526 0 0.0191526) 4 4 1
(0.245895 0.377052 0 0.377052) 1 1 1
(0.257139 0.37143 0 0.37143) 10 10 1
(0.86988 0.0650601 0.0650601 0) 8 8 2
(0.766773 0.116613 0.116613 0) 3 3 2
(0.526125 0.236938 0 0.236938) 9 9 1
(0.335675 0.332162 0 0.332162) 1 1 1
(0.410779 0.294611 0 0.294611) 5 5 1
(0.0239629 0.488019 0.488019 0) 7 7 2
(0.243141 0.378429 0.378429 0) 2 1 1
(0.900447 0.0497765 0.0497765 0) 9 8 1
(0.657249 0.171376 0.171376 0) 10 10 2
(0.568798 0.215601 0.215601 0) 3 2 1
(0.916623 0.0416886 0 0.0416886) 14 14 1
(0.0281428 0.485929 0.485929 0) 9 8 1
(0.526974 0.236513 0.236513 0) 3 2 1
(0.637172 0.181414 0 0.181414) 15 14 2
(0.101836 0.449082 0.449082 0) 5 4 1
(0.643778 0.178111 0.178111 0) 2 1 1
(0.925231 0.0373846 0 0.0373846) 8 7 2
(0.245641 0.377179 0 0.377179) 10 10 1
(0.507891 0.246054 0.246054 0) 6 5 1
(0.95061 0.0246951 0.0246951 0) 4 4 2
(0.231766 0.384117 0 0.384117) 4 4 1
(0.929045 0.0354773 0.0354773 0) 7 6 1
(0.289929 0.355036 0 0.355036) 6 5 2
(0.467811 0.266095 0 0.266095) 6 5 2
(0.766011 0.116995 0 0.116995) 10 9 2
(0.539513 0.230244 0 0.230244) 9 9 1
(0.0107627 0.494619 0 0.494619) 5 4 2
(0.232392 0.383804 0.383804 0) 1 1 2
(0.186973 0.406513 0 0.406513) 8 7 2
(0.28589 0.357055 0 0.357055) 8 7 2
(0.361316 0.319342 0.319342 0) 4 4 2
(0.540242 0.229879 0 0.229879) 3 2 2
(0.00175771 0.499121 0 0.499121) 7 6 2
(0.871383 0.0643086 0 0.0643086) 9 9 1
(0.907789 0.0461056 0 0.0461056) 2 2 1
(0.110771 0.444615 0 0.444615) 6 5 2
(0.535461 0.23227 0 0.23227) 8 7 2
(0.914782 0.0426089 0 0.0426089) 5 4 2
(0.291218 0.354391 0.354391 0) 8 7 1
(0.883901 0.0580493 0.0580493 0) 4 4 2
(0.5011 0.24945 0.24945 0) 6 5 1
(0.512418 0.243791 0 0.243791) 4 4 1
(0.350406 0.324797 0.324797 0) 4 3 1
(0.692444 0.153778 0 0.153778) 1 1 1
(0.34826 0.32587 0 0.32587) 0 0 1
(0.956597 0.0217015 0.0217015 0) 10 9 1
(0.00875274 0.495624 0 0.495624) 4 3 2
(0.603627 0.198187 0.198187 0) 7 6 1
(0.954014 0.0229928 0 0.0229928) 3 3 1
(0.309579 0.34521 0 0.34521) 6 5 2
(0.482539 0.25873 0.25873 0) 8 7 1
(0.879809 0.0600953 0.0600953 0) 9 8 1
(0.0367376 0.481631 0.481631 0) 8 8 2
(0.527202 0.236399 0.236399 0) 8 8 2
(0.378955 0.310523 0 0.310523) 6 5 2
(0.279919 0.36004 0.36004 0) 3 3 2
(0.182256 0.408872 0.408872 0) 4 3 1
(0.497987 0.251007 0 0.251007) 7 7 1
(0.633633 0.183184 0 0.183184) 10 10 1
(0.208126 0.395937 0 0.395937) 7 6 2
(0.00228874 0.498856 0.498856 0) 4 3 1
(0.648376 0.175812 0.175812 0) 8 8 2
(0.841687 0.0791566 0.0791566 0) 13 13 2
(0.551476 0.224262 0.224262 0) 4 3 1
(0.053115 0.473443 0.473443 0) 6 6 2
(0.047098 0.476451 0 0.476451) 8 8 1
(0.513291 0.243354 0 0.243354) 2 1 2
(0.652054 0.173973 0.173973 0) 3 3 2
(0.982457 0.00877128 0 0.00877128) 1 0 2
(0.790612 0.104694 0.104694 0) 6 6 2
(0.659672 0.170164 0.170164 0) 15 15 2
(0.843315 0.0783424 0.0783424 0) 6 6 2
(0.45219 0.273905 0 0.273905) 11 10 2
(0.775388 0.112306 0 0.112306) 15 14 2
(0.907378 0.046311 0 0.046311) 7 7 1
(0.966061 0.0169696 0.0169696 0) 9 8 1
(0.954912 0.0225439 0.0225439 0) 7 6 1
(0.122415 0.438792 0.438792 0) 7 6 1
(0.677373 0.161314 0.161314 0) 6 5 1
(0.657633 0.171184 0.171184 0) 12 12 2
(0.838495 0.0807524 0.0807524 0) 7 6 1
(0.426675 0.286663 0 0.286663) 8 7 2
(0.461836 0.269082 0 0.269082) 13 12 2
(0.898206 0.0508969 0.0508969 0) 8 7 1
(0.614948 0.192526 0 0.192526) 4 4 1
(0.977293 0.0113537 0 0.0113537) 4 3 2
(0.452672 0.273664 0.273664 0) 6 6 2
(0.216084 0.391958 0.391958 0) 1 0 1
(0.793189 0.103406 0.103406 0) 7 6 1
(0.950068 0.0249661 0 0.0249661) 20 20 1
(0.684783 0.157609 0 0.157609) 1 0 2
(0.261779 0.36911 0 0.36911) 8 7 2
(0.921684 0.0391581 0 0.0391581) 8 7 2
(0.483966 0.258017 0.258017 0) 11 10 1
(0.757445 0.121278 0.121278 0) 9 9 2
(0.24696 0.37652 0 0.37652) 1 1 1
(0.181744 0.409128 0.409128 0) 13 13 2
(0.838453 0.0807733 0 0.0807733) 7 6 2
(0.363554 0.318223 0.318223 0) 7 6 1
(0.106444 0.446778 0 0.446778) 4 4 1
(0.215485 0.392257 0 0.392257) 5 5 1
(0.792371 0.103815 0 0.103815) 11 10 2
(0.463541 0.268229 0 0.268229) 6 5 2
(0.314427 0.342786 0 0.342786) 13 13 1
(0.850673 0.0746633 0 0.0746633) 10 9 2
(0.531965 0.234018 0 0.234018) 1 0 2
(0.572947 0.213527 0 0.213527) 8 8 1
(0.527988 0.236006 0 0.236006) 6 6 1
(0.128697 0.435651 0.435651 0) 10 10 2
(0.312775 0.343612 0.343612 0) 8 7 1
(0.749617 0.125191 0.125191 0) 12 11 1
(0.806589 0.0967056 0 0.0967056) 13 13 1