/*--------------------------------*- C++ -*----------------------------------*\
  =========                 |
  \\      /  F ield         | OpenFOAM: The Open Source CFD Toolbox
   \\    /   O peration     | Website:  https://openfoam.org
    \\  /    A nd           | Version:  7
     \\/     M anipulation  |
\*---------------------------------------------------------------------------*/
FoamFile
{
    version     2.0;
    format      ascii;
    class       surfaceScalarField;
    location    "0.85";
    object      alphaPhi0.water;
}
// * * * * * * * * * * * * * * * * * * * * * * * * * * * * * * * * * * * * * //

dimensions      [0 3 -1 0 0 0 0];

internalField   nonuniform List<scalar> 
4432
(
-3.98128e-06
3.98128e-06
-8.20374e-06
4.22246e-06
-1.13037e-05
3.09996e-06
-1.37581e-05
2.45437e-06
-1.59562e-05
2.1981e-06
-1.80142e-05
2.05803e-06
-1.99247e-05
1.9105e-06
-2.16477e-05
1.72297e-06
-2.31501e-05
1.5024e-06
-2.44172e-05
1.26718e-06
-2.54465e-05
1.02932e-06
-2.62236e-05
7.77071e-07
-2.66966e-05
4.73024e-07
-2.677e-05
7.33696e-08
-2.6349e-05
-4.20667e-07
-2.53343e-05
-1.00905e-06
-2.27567e-05
-1.74144e-06
-2.01702e-05
-2.64048e-06
-1.64025e-05
-3.82157e-06
-1.12657e-05
-5.19077e-06
-5.3377e-06
-5.98377e-06
-5.56481e-07
-4.83568e-06
-5.56917e-07
-5.12898e-06
9.11028e-06
-8.89531e-06
7.9888e-06
-1.17991e-05
6.00372e-06
-1.43837e-05
5.03904e-06
-1.67895e-05
4.60388e-06
-1.89948e-05
4.2633e-06
-2.09602e-05
3.87595e-06
-2.2657e-05
3.41976e-06
-2.40738e-05
2.91919e-06
-2.52144e-05
2.40776e-06
-2.6083e-05
1.89795e-06
-2.66646e-05
1.35868e-06
-2.69261e-05
7.34501e-07
-2.68404e-05
-1.23027e-08
-2.63564e-05
-9.04702e-07
-2.53637e-05
-2.0013e-06
-2.36609e-05
-3.4058e-06
-2.08324e-05
-5.22567e-06
-1.70319e-05
-7.60537e-06
-1.21142e-05
-1.03408e-05
-6.38551e-06
-1.21509e-05
-1.32444e-06
-1.00922e-05
-1.88164e-06
-4.98524e-06
1.40955e-05
-8.35815e-06
1.13617e-05
-1.13112e-05
8.95672e-06
-1.40525e-05
7.78045e-06
-1.65659e-05
7.11724e-06
-1.8819e-05
6.51644e-06
-2.07888e-05
5.84572e-06
-2.24644e-05
5.09535e-06
-2.38475e-05
4.30226e-06
-2.49503e-05
3.51057e-06
-2.57832e-05
2.73092e-06
-2.63376e-05
1.91307e-06
-2.65867e-05
9.83572e-07
-2.6501e-05
-9.79675e-08
-2.60427e-05
-1.36307e-06
-2.51384e-05
-2.90559e-06
-2.36585e-05
-4.8857e-06
-2.13932e-05
-7.49098e-06
-1.8086e-05
-1.09125e-05
-1.34866e-05
-1.49402e-05
-7.67463e-06
-1.79629e-05
-1.99318e-06
-1.57736e-05
-3.87499e-06
-4.67888e-06
1.87744e-05
-7.95008e-06
1.46329e-05
-1.10042e-05
1.20108e-05
-1.38617e-05
1.0638e-05
-1.64433e-05
9.69878e-06
-1.87154e-05
8.78862e-06
-2.06688e-05
7.79911e-06
-2.23065e-05
6.73298e-06
-2.3641e-05
5.63683e-06
-2.46944e-05
4.56391e-06
-2.54853e-05
3.52185e-06
-2.60108e-05
2.43857e-06
-2.62475e-05
1.22025e-06
-2.61724e-05
-1.73041e-07
-2.57653e-05
-1.77013e-06
-2.49815e-05
-3.68941e-06
-2.3719e-05
-6.14816e-06
-2.18003e-05
-9.40969e-06
-1.8963e-05
-1.37498e-05
-1.48313e-05
-1.9072e-05
-9.14592e-06
-2.36482e-05
-2.82418e-06
-2.20937e-05
-6.69837e-06
-4.37723e-06
2.31516e-05
-7.67464e-06
1.79303e-05
-1.0838e-05
1.51742e-05
-1.37901e-05
1.35901e-05
-1.64224e-05
1.23311e-05
-1.8701e-05
1.10672e-05
-2.06275e-05
9.72559e-06
-2.22167e-05
8.32221e-06
-2.34923e-05
6.91243e-06
-2.44876e-05
5.55921e-06
-2.52323e-05
4.26654e-06
-2.57291e-05
2.93538e-06
-2.59571e-05
1.44819e-06
-2.59013e-05
-2.28764e-07
-2.55612e-05
-2.11023e-06
-2.49179e-05
-4.33277e-06
-2.38981e-05
-7.16792e-06
-2.23582e-05
-1.09496e-05
-2.00393e-05
-1.60687e-05
-1.64821e-05
-2.26292e-05
-1.11801e-05
-2.895e-05
-4.4254e-06
-2.88476e-05
-1.11241e-05
-4.11031e-06
2.72619e-05
-7.49234e-06
2.13123e-05
-1.07751e-05
1.84569e-05
-1.38164e-05
1.66314e-05
-1.64928e-05
1.50075e-05
-1.87716e-05
1.33461e-05
-2.06648e-05
1.16187e-05
-2.21984e-05
9.85578e-06
-2.34075e-05
8.12152e-06
-2.4339e-05
6.49076e-06
-2.50357e-05
4.96326e-06
-2.55057e-05
3.40533e-06
-2.57286e-05
1.67114e-06
-2.56982e-05
-2.59174e-07
-2.54341e-05
-2.3744e-06
-2.49413e-05
-4.82547e-06
-2.41722e-05
-7.9371e-06
-2.30145e-05
-1.21073e-05
-2.12191e-05
-1.78641e-05
-1.82937e-05
-2.55545e-05
-1.3688e-05
-3.35548e-05
-7.02495e-06
-3.55131e-05
-1.81516e-05
-3.8885e-06
3.11504e-05
-7.38212e-06
2.48059e-05
-1.07944e-05
2.18692e-05
-1.39261e-05
1.97631e-05
-1.66441e-05
1.77254e-05
-1.89189e-05
1.56209e-05
-2.07734e-05
1.34732e-05
-2.22453e-05
1.13277e-05
-2.33823e-05
9.25845e-06
-2.42467e-05
7.35521e-06
-2.4896e-05
5.61252e-06
-2.53423e-05
3.85164e-06
-2.55641e-05
1.89298e-06
-2.55636e-05
-2.59683e-07
-2.53811e-05
-2.55692e-06
-2.50431e-05
-5.16353e-06
-2.45203e-05
-8.45987e-06
-2.37224e-05
-1.29051e-05
-2.2384e-05
-1.92024e-05
-1.99557e-05
-2.7982e-05
-1.59886e-05
-3.75202e-05
-9.85789e-06
-4.16411e-05
-2.80074e-05
-3.64196e-06
3.47924e-05
-7.29981e-06
2.84638e-05
-1.08663e-05
2.54356e-05
-1.4094e-05
2.29909e-05
-1.68528e-05
2.04842e-05
-1.91201e-05
1.78882e-05
-2.09312e-05
1.52844e-05
-2.23373e-05
1.27338e-05
-2.33991e-05
1.03202e-05
-2.4196e-05
8.15216e-06
-2.4801e-05
6.2175e-06
-2.52288e-05
4.27944e-06
-2.54543e-05
2.11845e-06
-2.54882e-05
-2.25713e-07
-2.53925e-05
-2.65268e-06
-2.52112e-05
-5.34478e-06
-2.49254e-05
-8.74562e-06
-2.44506e-05
-1.33796e-05
-2.34575e-05
-2.01941e-05
-2.12379e-05
-3.01963e-05
-1.73744e-05
-4.13743e-05
-1.15707e-05
-4.74421e-05
-3.95748e-05
-2.59952e-06
2.63234e-06
-3.0955e-05
2.83184e-05
-6.06076e-05
2.9616e-05
-8.4292e-05
2.31154e-05
-9.90152e-05
1.44666e-05
-0.000105468
6.46271e-06
-0.000104876
-5.78976e-07
-9.86609e-05
-6.2008e-06
-8.6406e-05
-1.22393e-05
-6.82674e-05
-1.80629e-05
-4.92765e-05
-1.88744e-05
-3.55927e-05
-1.35802e-05
-2.94842e-05
-5.92404e-06
-2.57444e-05
-1.93586e-06
-2.25005e-05
-3.31119e-06
-1.45429e-05
-7.90994e-06
-3.21324e-06
-1.11461e-05
5.1461e-06
-8.1564e-06
5.09158e-06
-2.41254e-05
2.70149e-05
-5.68711e-05
6.10264e-05
-8.27518e-05
5.53403e-05
-9.73186e-05
3.76783e-05
-0.000103672
2.08267e-05
-0.000104876
7.6789e-06
-0.000102904
-2.53443e-06
-9.73437e-05
-1.17528e-05
-8.58531e-05
-2.29481e-05
-6.87604e-05
-3.3715e-05
-5.19984e-05
-3.40988e-05
-3.98328e-05
-2.49987e-05
-3.40273e-05
-1.15129e-05
-2.96846e-05
-4.63503e-06
-2.60331e-05
-7.03318e-06
-1.92905e-05
-1.47278e-05
-9.84119e-06
-2.06728e-05
-8.90944e-07
-1.72026e-05
4.32245e-06
-3.45732e-05
6.17319e-05
-6.36167e-05
9.04584e-05
-8.30399e-05
7.47771e-05
-9.41819e-05
4.88236e-05
-9.9847e-05
2.64904e-05
-0.000101451
9.29948e-06
-9.9512e-05
-4.37277e-06
-9.39237e-05
-1.72144e-05
-8.36718e-05
-3.2715e-05
-6.48919e-05
-4.84717e-05
-4.65132e-05
-5.00574e-05
-3.74758e-05
-3.49951e-05
-3.48649e-05
-1.66667e-05
-3.27514e-05
-6.53239e-06
-2.91977e-05
-1.01841e-05
-2.30231e-05
-2.0753e-05
-1.46645e-05
-2.89624e-05
-6.11263e-06
-2.5627e-05
-1.78952e-06
-3.76682e-05
9.94537e-05
-6.30649e-05
0.000115914
-7.93681e-05
9.11422e-05
-8.96704e-05
5.91368e-05
-9.49723e-05
3.18143e-05
-9.42439e-05
9.3355e-06
-9.0614e-05
-4.98403e-06
-8.62884e-05
-1.82947e-05
-7.67403e-05
-3.96986e-05
-6.22148e-05
-5.88898e-05
-4.68779e-05
-6.48812e-05
-3.42361e-05
-4.8035e-05
-3.2068e-05
-2.16024e-05
-3.35837e-05
-8.62588e-06
-3.11213e-05
-1.26047e-05
-2.62939e-05
-2.55639e-05
-1.89758e-05
-3.62653e-05
-9.07193e-06
-3.5408e-05
-1.10327e-05
-3.69454e-05
0.000136453
-5.88612e-05
0.000137875
-7.21916e-05
0.000104524
-7.68275e-05
6.3822e-05
-5.99399e-05
2.21338e-05
-4.23518e-05
3.76185e-06
-3.68343e-05
-1.3014e-06
-3.98547e-05
-7.33272e-06
-5.05816e-05
-2.34422e-05
-4.89906e-05
-6.137e-05
-3.9914e-05
-7.48083e-05
-3.15863e-05
-5.66428e-05
-3.11441e-05
-2.57464e-05
-3.36835e-05
-9.94443e-06
-3.19198e-05
-1.43023e-05
-2.77378e-05
-2.97192e-05
-2.1599e-05
-4.24276e-05
-1.14228e-05
-4.55801e-05
-2.28291e-05
-3.39457e-05
0.000170453
-5.12673e-05
0.000155248
-5.74163e-05
0.000110701
-2.63765e-05
3.38016e-05
-8.8452e-06
7.7621e-06
-7.8787e-06
1.87406e-06
-9.58265e-06
-9.01814e-07
-1.16073e-05
-6.81777e-06
-2.73297e-05
-1.5673e-05
-4.18993e-05
-6.41953e-05
-3.71502e-05
-7.96012e-05
-3.21401e-05
-6.06289e-05
-2.99944e-05
-2.4947e-05
-2.99761e-05
-1.07301e-05
-3.10236e-05
-1.82601e-05
-2.7157e-05
-3.3604e-05
-2.21547e-05
-4.74129e-05
-1.32461e-05
-5.44478e-05
-3.56523e-05
-2.94183e-05
0.000199923
-4.08405e-05
0.000166734
-2.44341e-05
9.54614e-05
-6.97162e-06
1.61698e-05
-5.21403e-06
5.22101e-06
-6.21609e-06
1.99531e-06
-7.48793e-06
-5.52945e-07
-1.02074e-05
-5.39811e-06
-2.96756e-05
-2.9588e-05
-3.47487e-05
-7.1027e-05
-3.19929e-05
-8.1599e-05
-1.90098e-05
-4.04194e-05
-1.89953e-05
-6.34451e-06
-2.44275e-05
-7.64122e-06
-2.8199e-05
-2.01805e-05
-2.44778e-05
-3.7218e-05
-2.02923e-05
-5.13833e-05
-1.34871e-05
-6.1029e-05
-4.87592e-05
-2.46305e-05
0.000224618
-3.09219e-05
0.00017311
-8.06769e-06
7.30707e-05
-3.33567e-06
1.06216e-05
-3.64172e-06
4.64711e-06
-4.73705e-06
2.1602e-06
-5.54428e-06
-6.96912e-07
-1.29417e-05
-4.49868e-06
-3.83599e-05
-3.52332e-05
-3.40566e-05
-7.29311e-05
-2.31512e-05
-8.18134e-05
-5.0624e-06
-2.19661e-05
-7.6499e-06
-2.90483e-06
-1.33796e-05
-3.47068e-06
-1.89423e-05
-1.31875e-05
-1.61133e-05
-2.83558e-05
-1.30603e-05
-3.37422e-05
-1.12311e-05
-4.27646e-05
-5.46331e-05
-6.76014e-06
4.15525e-05
-1.52627e-05
3.69663e-05
-2.33504e-05
3.35234e-05
-3.05491e-05
3.01896e-05
-3.65431e-05
2.64783e-05
-4.13209e-05
2.2666e-05
-4.50159e-05
1.89794e-05
-4.77856e-05
1.55035e-05
-4.97979e-05
1.23326e-05
-5.12731e-05
9.62735e-06
-5.24311e-05
7.3755e-06
-5.33079e-05
5.15623e-06
-5.38195e-05
2.63005e-06
-5.40177e-05
-2.74991e-08
-5.41257e-05
-2.54463e-06
-5.42949e-05
-5.17545e-06
-5.44749e-05
-8.56504e-06
-5.4476e-05
-1.3375e-05
-5.33485e-05
-2.12997e-05
-4.86883e-05
-3.47736e-05
-3.93552e-05
-5.05765e-05
-2.67051e-05
-6.00744e-05
-5.14278e-05
-1.48009e-05
-5.86013e-06
2.80054e-05
-1.27174e-05
2.28299e-05
-1.88408e-05
1.83278e-05
-2.47287e-05
1.54305e-05
-3.00736e-05
1.37626e-05
-3.51179e-05
1.27413e-05
-3.98026e-05
1.18447e-05
-4.42978e-05
1.08713e-05
-4.83943e-05
9.76118e-06
-5.01946e-05
8.38493e-06
-5.12898e-05
8.47072e-06
-5.21736e-05
6.03999e-06
-5.27199e-05
3.17643e-06
-5.30904e-05
2.99709e-07
-5.37231e-05
-1.9119e-06
-5.48999e-05
-3.99781e-06
-5.64056e-05
-7.05351e-06
-5.80567e-05
-1.1693e-05
-5.71966e-05
-1.8661e-05
-5.04672e-05
-2.92725e-05
-4.43298e-05
-4.4248e-05
-3.5911e-05
-7.13003e-05
-5.4584e-05
-3.04489e-05
-1.43148e-06
5.65859e-08
-2.41055e-06
1.52958e-07
-3.08141e-06
8.26078e-08
-4.03525e-06
5.20793e-08
-5.04819e-06
2.58194e-08
-6.51187e-06
9.79845e-09
-8.43888e-06
7.18092e-09
-1.07795e-05
1.5164e-08
-1.31275e-05
2.41488e-08
-1.56975e-05
2.88747e-08
-1.86463e-05
5.91137e-08
-2.33826e-05
2.34305e-07
-3.00202e-05
4.28127e-07
-3.54967e-05
2.34387e-07
-3.92291e-05
3.60623e-09
-4.25848e-05
-4.14e-08
-4.70023e-05
-7.70083e-07
-4.74918e-05
-1.74682e-06
-3.28762e-05
-3.40693e-06
-2.48425e-05
-1.26623e-05
-4.6918e-05
-4.40381e-05
-4.56601e-05
-6.97357e-05
-1.35465e-05
-1.57205e-05
-2.02309e-07
3.68004e-08
-1.9294e-07
1.19217e-08
-2.28746e-07
1.23154e-08
-2.6374e-07
9.11919e-09
-2.98775e-07
6.05018e-09
-3.30423e-07
4.06645e-09
-3.50675e-07
3.00177e-09
-3.5316e-07
2.4457e-09
-3.39922e-07
1.98402e-09
-3.17341e-07
1.6772e-09
-2.60697e-07
1.67131e-09
-1.73943e-07
1.56953e-09
-7.25382e-08
2.85249e-11
-4.434e-08
3.9238e-10
-1.68665e-07
-9.70815e-10
-2.68573e-06
-4.95672e-08
-5.58917e-06
-1.53628e-07
-6.61797e-06
-4.30587e-08
-5.82184e-06
1.25679e-09
-2.47334e-05
-1.4149e-05
-5.35377e-05
-4.61261e-05
-1.73609e-05
-4.21479e-05
-3.24568e-07
-1.07486e-06
-1.3171e-10
5.75849e-09
-5.88399e-09
1.5732e-09
-8.24054e-09
1.67829e-09
-9.22934e-09
1.08782e-09
-9.45493e-09
6.06112e-10
-9.046e-09
3.30767e-10
-8.08427e-09
1.94499e-10
-6.77985e-09
1.34804e-10
-5.46003e-09
9.87175e-11
-4.16816e-09
7.88506e-11
-2.74344e-09
6.71505e-11
-1.39179e-09
1.9955e-11
-2.12371e-09
5.4108e-11
-5.27081e-09
3.06706e-11
-1.53138e-08
9.76585e-10
-9.77746e-08
4.76716e-09
-4.19504e-07
2.60105e-08
-1.26913e-06
2.24201e-07
-6.53162e-06
-3.38203e-07
-3.6135e-05
-1.7068e-05
-5.57884e-05
-5.03459e-05
-9.4052e-07
-2.39211e-05
-1.02033e-06
-6.27091e-07
1.01491e-09
6.72565e-10
2.20705e-10
2.71271e-10
-8.60176e-12
2.4106e-10
-1.57532e-10
1.32968e-10
-2.56647e-10
5.99469e-11
-2.94321e-10
2.64463e-11
-2.75352e-10
1.22723e-11
-2.25604e-10
7.25203e-12
-1.71401e-10
5.25821e-12
-1.18072e-10
4.55829e-12
-6.88073e-11
1.21548e-12
-8.93621e-11
4.43823e-12
-3.06566e-10
1.69749e-11
-1.279e-09
3.01288e-10
-6.3364e-09
2.73504e-09
-3.68402e-08
1.71751e-08
-1.77491e-07
8.17811e-08
-4.88079e-07
2.14363e-07
-1.7125e-06
-4.40918e-07
-3.93838e-05
-9.23832e-06
-5.88719e-05
-3.73057e-05
-5.76606e-06
-2.28362e-05
-6.53275e-06
-5.52705e-07
9.73034e-11
7.55218e-11
5.66291e-11
3.88801e-11
5.27595e-11
3.12621e-11
3.24613e-11
1.61713e-11
1.13501e-11
6.62263e-12
-2.34117e-12
2.50209e-12
-7.83756e-12
9.36656e-13
-8.18539e-12
4.86406e-13
-6.62403e-12
3.42002e-13
-4.13331e-12
2.66528e-13
-4.6825e-12
2.00063e-13
-1.02298e-11
1.06396e-12
-4.86881e-11
1.89014e-11
-1.49066e-10
1.78685e-10
-2.51208e-10
1.33142e-09
-7.39284e-10
7.8771e-09
-3.76214e-09
3.49412e-08
5.01196e-09
9.19663e-08
-6.18414e-07
-2.46015e-07
-1.61451e-05
-3.71869e-06
-3.69875e-05
-2.83272e-05
-2.43738e-05
-2.54436e-05
-1.03836e-05
-1.30857e-06
8.81592e-12
8.2971e-12
8.20595e-12
4.93913e-12
8.92034e-12
3.80214e-12
6.25113e-12
1.96041e-12
3.16109e-12
8.02195e-13
1.1045e-12
3.02847e-13
7.99639e-14
1.09289e-13
-2.51846e-13
5.07153e-14
-2.79651e-13
3.64043e-14
-2.20484e-13
2.65938e-14
-2.57085e-13
3.42139e-14
-1.43606e-12
4.47922e-13
2.77801e-12
5.79583e-12
5.87272e-11
5.10368e-11
3.97663e-10
3.87229e-10
1.81665e-09
2.36336e-09
4.41271e-09
1.22493e-08
-2.09476e-08
4.70527e-08
-5.0477e-07
-3.53017e-09
-7.22882e-06
-1.48365e-06
-4.66037e-05
-1.61731e-05
-3.84832e-05
-2.26819e-05
-2.04805e-05
-1.23643e-05
8.86602e-13
8.77809e-13
1.03198e-12
5.92492e-13
1.1396e-12
4.51252e-13
8.16267e-13
2.4536e-13
4.37985e-13
1.09031e-13
1.86965e-13
5.02798e-14
5.61827e-14
2.29039e-14
4.50561e-15
1.11686e-14
-9.29529e-15
7.89342e-15
-1.2339e-14
4.85124e-15
-2.1164e-14
7.70293e-15
9.44512e-15
9.95419e-14
2.56112e-12
1.09328e-12
2.43952e-11
9.20255e-12
1.61242e-10
6.56835e-11
8.29827e-10
4.00061e-10
3.93377e-09
2.26066e-09
1.36998e-08
1.00479e-08
-9.37195e-08
2.6424e-08
-1.55757e-06
-4.18882e-07
-3.18411e-05
-3.97533e-06
-4.43767e-05
-1.7689e-05
-2.16807e-05
-3.63676e-05
8.57789e-14
8.98449e-14
1.13265e-13
7.36099e-14
1.24467e-13
5.87771e-14
9.14228e-14
3.67715e-14
5.23243e-14
1.93832e-14
2.45041e-14
1.16816e-14
9.2543e-15
5.96781e-15
2.63057e-15
2.25854e-15
2.92659e-16
2.42833e-15
-4.2766e-16
1.83596e-15
-1.01416e-15
1.9666e-15
1.38874e-14
2.04845e-14
3.6152e-13
1.49512e-13
3.24073e-12
1.35e-12
1.76763e-11
9.62033e-12
4.51481e-11
6.79946e-11
1.40787e-10
3.97418e-10
3.16223e-09
1.14122e-09
1.03394e-08
3.30519e-09
-4.68034e-07
-1.51493e-09
-5.73991e-06
-5.83705e-07
-4.59689e-05
-5.80765e-06
-1.17755e-05
-4.60475e-05
7.37481e-15
1.26526e-14
1.11145e-14
1.14494e-14
1.27354e-14
9.35793e-15
9.85484e-15
6.09347e-15
5.91713e-15
2.43935e-15
2.92785e-15
3.11688e-15
1.2018e-15
2.06345e-15
4.72391e-16
1.05225e-15
2.07216e-16
5.53931e-16
6.99758e-17
1.85065e-15
-7.13152e-18
1.47382e-15
2.48316e-16
1.19058e-14
1.69922e-14
1.9645e-14
1.34662e-13
2.38668e-13
2.48453e-13
2.39923e-12
-4.02818e-12
2.05003e-11
-2.44918e-11
1.25059e-10
-1.28696e-10
3.76809e-10
2.8008e-10
5.71519e-10
-6.88992e-09
-4.75233e-10
-6.08472e-07
-1.74966e-08
-8.45148e-06
-3.83667e-07
-4.71015e-06
-4.27707e-05
6.46204e-16
1.78831e-15
1.0861e-15
2.09672e-15
1.26234e-15
1.93874e-15
9.93777e-16
1.53803e-15
6.71401e-16
1.05363e-15
4.29628e-16
7.05613e-16
1.98395e-16
3.83549e-16
8.25824e-17
1.58103e-16
7.71513e-17
4.61684e-16
-5.54191e-18
-3.92721e-17
-1.07404e-16
-9.61935e-16
4.99141e-17
2.7151e-16
5.93376e-15
5.3571e-15
8.31544e-14
4.6942e-14
1.00543e-12
5.82757e-13
9.59673e-12
5.0582e-12
5.84076e-11
2.92143e-11
2.1634e-10
9.23883e-11
2.93809e-10
1.78227e-10
-1.04637e-09
1.68193e-10
-1.72191e-08
-2.56648e-10
-3.96023e-07
-2.16672e-09
-1.95098e-07
-4.95176e-06
5.89176e-17
3.22857e-16
1.16293e-16
3.53026e-16
1.43386e-16
3.16801e-16
1.25628e-16
2.45651e-16
8.99457e-17
1.66792e-16
5.21516e-17
8.15518e-17
2.25281e-17
4.09312e-17
2.55936e-17
1.17096e-16
-2.00222e-17
-9.14871e-17
-1.04599e-16
-4.89799e-16
-2.28241e-16
-1.10833e-15
-2.93246e-16
-1.46338e-15
1.44173e-15
3.6208e-15
3.19743e-14
5.94236e-15
4.10601e-13
9.78282e-14
3.43908e-12
9.39168e-13
1.91049e-11
5.52727e-12
7.13423e-11
1.83879e-11
1.77624e-10
3.84256e-11
2.31812e-10
5.30233e-11
-1.51954e-10
3.66926e-11
-1.99063e-09
-1.27409e-10
-1.97804e-10
-1.98118e-07
5.63652e-18
3.39537e-17
1.2425e-17
3.67515e-17
1.5374e-17
3.19646e-17
1.36352e-17
2.307e-17
9.21961e-18
1.34753e-17
6.01051e-18
8.29303e-18
6.17616e-18
2.69964e-17
-8.55365e-18
-3.44097e-17
-4.09282e-17
-1.55303e-16
-9.79463e-17
-3.56246e-16
-1.8788e-16
-6.59246e-16
-2.91344e-16
-9.82047e-16
-7.79676e-17
-2.48761e-16
4.39495e-15
1.51728e-15
7.72764e-14
1.25824e-14
7.1615e-13
1.38974e-13
4.10979e-12
8.8755e-13
1.58253e-11
3.13197e-12
4.22809e-11
6.89956e-12
7.98293e-11
1.02291e-11
1.01882e-10
9.75601e-12
4.32453e-11
-8.66418e-12
-4.81275e-12
-5.23621e-11
4.86511e-19
2.75222e-18
1.16867e-18
3.14928e-18
1.44299e-18
2.72236e-18
1.24194e-18
1.86382e-18
1.04599e-18
2.30688e-18
1.16851e-18
5.46758e-18
-2.20421e-18
-8.9362e-18
-1.00973e-17
-3.65064e-17
-2.6059e-17
-8.58041e-17
-5.46352e-17
-1.66143e-16
-1.01908e-16
-2.88299e-16
-1.67904e-16
-4.42267e-16
-1.76787e-16
-4.31452e-16
5.68334e-16
7.72155e-16
9.19012e-15
1.42842e-15
1.08085e-13
1.69543e-14
6.96416e-13
1.20659e-13
2.83627e-12
4.61731e-13
7.88266e-12
1.08742e-12
1.62841e-11
1.70974e-12
2.44797e-11
1.71181e-12
2.34717e-11
-4.60552e-13
-3.25267e-13
3.03222e-11
4.04004e-20
2.1673e-19
1.02505e-19
2.59523e-19
1.24095e-19
2.33053e-19
1.73921e-19
7.05656e-19
1.45162e-19
7.87646e-19
-3.8634e-19
-1.71635e-18
-1.82713e-18
-6.89568e-18
-4.92352e-18
-1.62182e-17
-1.10609e-17
-3.24376e-17
-2.23633e-17
-5.92074e-17
-4.18416e-17
-1.00893e-16
-7.16623e-17
-1.58062e-16
-9.89702e-17
-1.99753e-16
2.22135e-17
1.50492e-17
9.78096e-16
2.01054e-16
1.22045e-14
1.91225e-15
9.2747e-14
1.50361e-14
4.19769e-13
6.29416e-14
1.23983e-12
1.57735e-13
2.67974e-12
2.65396e-13
4.19692e-12
2.68105e-13
4.58841e-12
8.22293e-15
-5.05789e-14
5.96262e-12
3.18333e-21
4.02479e-20
9.08127e-21
2.61892e-20
1.78516e-20
1.24198e-19
1.12959e-20
7.64349e-20
-5.63217e-20
-2.92882e-19
-2.57354e-19
-1.08197e-18
-7.21452e-19
-2.54109e-18
-1.68702e-18
-5.11003e-18
-3.60605e-18
-9.57804e-18
-7.25247e-18
-1.71349e-17
-1.37873e-17
-2.92684e-17
-2.44375e-17
-4.69159e-17
-3.80309e-17
-6.62612e-17
-2.83198e-17
-4.48252e-17
1.28552e-16
4.41822e-17
1.37818e-15
2.08794e-16
1.11775e-14
1.68528e-15
5.40918e-14
7.54838e-15
1.69391e-13
1.99957e-14
3.79048e-13
3.45403e-14
6.09334e-13
3.46334e-14
7.04541e-13
5.84162e-15
-9.57979e-15
8.65511e-13
2.75837e-22
1.23595e-20
1.1571e-21
1.7283e-20
5.78284e-22
5.31361e-21
-6.89847e-21
-4.47884e-20
-3.05808e-20
-1.5148e-19
-8.69295e-20
-3.45146e-19
-2.07806e-19
-6.84611e-19
-4.5637e-19
-1.27979e-18
-9.55965e-19
-2.32629e-18
-1.93554e-18
-4.1473e-18
-3.75838e-18
-7.16863e-18
-6.88342e-18
-1.17792e-17
-1.15072e-17
-1.77601e-17
-1.35468e-17
-1.89156e-17
1.71035e-17
1.3532e-17
1.50424e-16
1.93606e-17
1.27991e-15
1.69111e-16
6.4881e-15
7.90199e-16
2.08922e-14
2.20662e-15
4.80801e-14
4.06088e-15
7.89524e-14
4.50903e-15
9.638e-14
5.01941e-15
3.28355e-15
1.16638e-13
-7.93984e-23
-2.47298e-21
-6.53482e-23
-9.31713e-22
-6.29693e-22
-5.52722e-21
-3.05812e-21
-1.89226e-20
-9.10823e-21
-4.28163e-20
-2.19493e-20
-8.22405e-20
-4.83015e-20
-1.49183e-19
-1.02281e-19
-2.66969e-19
-2.12252e-19
-4.77172e-19
-4.34387e-19
-8.53589e-19
-8.62627e-19
-1.49854e-18
-1.62962e-18
-2.52433e-18
-2.86875e-18
-3.98761e-18
-4.12644e-18
-5.16936e-18
-1.07393e-18
-1.21564e-18
1.53596e-17
2.98443e-18
1.3376e-16
1.51343e-17
6.98376e-16
7.22798e-17
2.32807e-15
2.22762e-16
5.49448e-15
5.1882e-16
9.30667e-15
9.08019e-16
1.24618e-14
1.27457e-15
1.58508e-15
1.49874e-14
-4.15981e-23
-1.21593e-21
-6.41128e-23
-8.66259e-22
-2.38922e-22
-1.99217e-21
-8.14726e-22
-4.78691e-21
-2.075e-21
-9.24189e-21
-4.54723e-21
-1.60857e-20
-9.45145e-21
-2.74364e-20
-1.94782e-20
-4.75364e-20
-4.01636e-20
-8.39545e-20
-8.30865e-20
-1.50944e-19
-1.68533e-19
-2.6918e-19
-3.27515e-19
-4.64056e-19
-6.0076e-19
-7.60353e-19
-9.68737e-19
-1.10077e-18
-8.01991e-19
-8.20947e-19
1.68331e-18
4.99119e-19
1.22942e-17
1.27352e-18
6.5754e-17
5.80949e-18
2.27522e-16
1.77028e-17
5.78322e-16
4.56922e-17
1.12281e-15
9.78715e-17
1.74983e-15
1.59659e-16
2.82329e-16
2.66431e-15
-1.14166e-23
-3.12806e-22
-1.88164e-23
-2.40277e-22
-5.79302e-23
-4.57819e-22
-1.69936e-22
-9.46984e-22
-3.9324e-22
-1.65964e-21
-8.03398e-22
-2.68716e-21
-1.59201e-21
-4.3558e-21
-3.19987e-21
-7.33156e-21
-6.54969e-21
-1.27964e-20
-1.36631e-20
-2.30903e-20
-2.82242e-20
-4.17324e-20
-5.62112e-20
-7.33833e-20
-1.0665e-19
-1.23812e-19
-1.85256e-19
-1.92299e-19
-2.19903e-19
-2.049e-19
1.35754e-19
6.47064e-20
9.72845e-19
9.49574e-20
5.38884e-18
3.98975e-19
1.87819e-17
1.1696e-18
4.92392e-17
2.94193e-18
1.05095e-16
6.25235e-18
1.91946e-16
1.14852e-17
2.3126e-17
3.5795e-16
-2.43685e-24
-6.2681e-23
-4.01987e-24
-4.85144e-23
-1.11892e-23
-8.38193e-23
-2.9837e-23
-1.57806e-22
-6.41894e-23
-2.57082e-22
-1.23498e-22
-3.9147e-22
-2.33916e-22
-6.05122e-22
-4.57907e-22
-9.88831e-22
-9.27415e-22
-1.70123e-21
-1.94306e-21
-3.0699e-21
-4.07007e-21
-5.60037e-21
-8.26755e-21
-9.99673e-21
-1.6119e-20
-1.72503e-20
-2.94907e-20
-2.809e-20
-4.22164e-20
-3.59402e-20
-1.20112e-20
-9.16614e-21
7.25112e-20
1.05619e-20
3.86112e-19
2.38485e-20
1.33532e-18
6.97506e-20
3.49948e-18
1.63206e-19
7.64005e-18
3.39808e-19
1.48528e-17
6.24598e-19
1.4237e-18
3.13555e-17
-4.41413e-25
-1.06817e-23
-7.10714e-25
-8.11801e-24
-1.83627e-24
-1.30598e-23
-4.54733e-24
-2.2873e-23
-9.18697e-24
-3.50054e-23
-1.67114e-23
-5.03567e-23
-3.02383e-23
-7.42222e-23
-5.74601e-23
-1.17409e-22
-1.14621e-22
-1.98245e-22
-2.39934e-22
-3.55929e-22
-5.06848e-22
-6.51769e-22
-1.044e-21
-1.1738e-21
-2.07761e-21
-2.05657e-21
-3.94313e-21
-3.45539e-21
-6.32073e-21
-4.9244e-21
-4.4079e-21
-3.06278e-21
5.06866e-21
1.08538e-21
2.38067e-20
1.30859e-21
8.19113e-20
3.56487e-21
2.11014e-19
7.67873e-21
4.60035e-19
1.57243e-20
9.4441e-19
3.72402e-20
2.33958e-19
2.68015e-18
-7.01848e-26
-1.60095e-24
-1.088e-25
-1.17871e-24
-2.63312e-25
-1.7827e-24
-6.11251e-25
-2.93299e-24
-1.16487e-24
-4.23733e-24
-2.00549e-24
-5.76637e-24
-3.45914e-24
-8.08864e-24
-6.35256e-24
-1.23334e-23
-1.24113e-23
-2.03247e-23
-2.57972e-23
-3.60774e-23
-5.4602e-23
-6.58621e-23
-1.13266e-22
-1.18786e-22
-2.28363e-22
-2.09572e-22
-4.44147e-22
-3.58519e-22
-7.64888e-22
-5.45293e-22
-7.57679e-22
-4.78567e-22
2.4584e-22
8.17592e-23
1.24565e-21
7.95267e-23
4.27099e-21
1.49333e-22
1.08115e-20
3.19084e-22
2.47479e-20
8.55178e-22
9.10594e-20
8.89481e-21
1.56407e-19
9.46894e-19
-9.95349e-27
-2.14455e-25
-1.47288e-26
-1.51769e-25
-3.34806e-26
-2.16543e-25
-7.3152e-26
-3.36174e-25
-1.31722e-25
-4.59379e-25
-2.1453e-25
-5.91205e-25
-3.51652e-25
-7.86918e-25
-6.20936e-25
-1.15068e-24
-1.1807e-24
-1.8388e-24
-2.41971e-24
-3.20335e-24
-5.09331e-24
-5.78356e-24
-1.05561e-23
-1.03552e-23
-2.13796e-23
-1.82209e-23
-4.21282e-23
-3.13335e-23
-7.58078e-23
-4.93804e-23
-9.1165e-23
-5.21582e-23
-1.50876e-23
-7.60094e-24
5.82763e-23
6.24147e-24
1.88211e-22
5.31945e-24
4.85927e-22
1.34065e-23
1.92614e-21
1.49746e-22
4.51033e-20
6.03061e-21
1.22177e-19
7.99875e-19
-1.26919e-27
-2.5902e-26
-1.78302e-27
-1.75395e-26
-3.80795e-27
-2.36322e-26
-7.84212e-27
-3.46839e-26
-1.33449e-26
-4.48467e-26
-2.05324e-26
-5.45128e-26
-3.18709e-26
-6.86073e-26
-5.38089e-26
-9.56636e-26
-9.88954e-26
-1.47187e-25
-1.98277e-25
-2.49586e-25
-4.11555e-25
-4.41603e-25
-8.44455e-25
-7.77015e-25
-1.70128e-24
-1.34845e-24
-3.35643e-24
-2.29935e-24
-6.17401e-24
-3.66491e-24
-8.33828e-24
-4.29782e-24
-3.53305e-24
-1.5846e-24
2.27461e-24
4.3381e-25
7.02366e-24
2.00769e-25
2.3204e-23
9.38128e-25
7.90095e-22
9.17561e-23
3.62274e-20
4.29009e-21
8.47923e-20
6.53495e-19
-1.46067e-28
-2.8359e-27
-1.94246e-28
-1.83319e-27
-3.89574e-28
-2.33262e-27
-7.56371e-28
-3.23818e-27
-1.21556e-27
-3.9597e-27
-1.76344e-27
-4.53745e-27
-2.58204e-27
-5.37858e-27
-4.14365e-27
-7.10832e-27
-7.30675e-27
-1.04497e-26
-1.42095e-26
-1.70928e-26
-2.88097e-26
-2.93361e-26
-5.79174e-26
-5.01438e-26
-1.14753e-25
-8.47148e-26
-2.23706e-25
-1.41049e-25
-4.12325e-25
-2.22217e-25
-5.94654e-25
-2.74066e-25
-3.66502e-25
-1.44578e-25
5.65856e-26
1.07227e-26
2.65497e-25
6.55665e-27
4.68133e-24
4.66693e-25
5.80078e-22
5.8647e-23
2.67186e-20
2.52901e-21
4.89994e-20
4.73087e-19
-1.51943e-29
-2.82481e-28
-1.91149e-29
-1.74197e-28
-3.59877e-29
-2.09297e-28
-6.58557e-29
-2.7478e-28
-9.98382e-29
-3.17412e-28
-1.36256e-28
-3.42111e-28
-1.87432e-28
-3.80378e-28
-2.84153e-28
-4.7348e-28
-4.77008e-28
-6.59697e-28
-8.91508e-28
-1.03083e-27
-1.7472e-27
-1.69685e-27
-3.40105e-27
-2.78103e-27
-6.54006e-27
-4.50518e-27
-1.24081e-26
-7.19396e-27
-2.24517e-26
-1.09336e-26
-3.32312e-26
-1.35587e-26
-2.50131e-26
-8.53398e-27
-1.65822e-27
-4.73223e-28
3.5062e-26
2.39813e-27
3.18785e-24
2.79229e-25
4.05e-22
3.1432e-23
1.75688e-20
1.24412e-21
2.4126e-20
3.06435e-19
-1.42927e-30
-2.56723e-29
-1.70313e-30
-1.51107e-29
-3.01045e-30
-1.71433e-29
-5.19057e-30
-2.12753e-29
-7.41282e-30
-2.31831e-29
-9.49373e-30
-2.34432e-29
-1.22181e-29
-2.43456e-29
-1.73885e-29
-2.83596e-29
-2.75636e-29
-3.71368e-29
-4.90233e-29
-5.48644e-29
-9.18103e-29
-8.55612e-29
-1.70769e-28
-1.32506e-28
-3.13864e-28
-2.02261e-28
-5.69258e-28
-3.03242e-28
-9.88358e-28
-4.32368e-28
-1.44682e-27
-5.15703e-28
-1.20324e-27
-3.46685e-28
-1.0924e-28
-2.53005e-29
1.62992e-26
1.02745e-27
2.07782e-24
1.28899e-25
2.55892e-22
1.35483e-23
1.03563e-20
4.95474e-22
9.22903e-21
1.72283e-19
-1.2165e-31
-2.13427e-30
-1.37642e-31
-1.20074e-30
-2.28588e-31
-1.28673e-30
-3.71236e-31
-1.50865e-30
-4.98711e-31
-1.5483e-30
-5.97826e-31
-1.46508e-30
-7.16799e-31
-1.41507e-30
-9.51561e-31
-1.53267e-30
-1.41247e-30
-1.87021e-30
-2.36594e-30
-2.58418e-30
-4.18191e-30
-3.76784e-30
-7.32375e-30
-5.42518e-30
-1.26406e-29
-7.64783e-30
-2.1456e-29
-1.04963e-29
-3.47943e-29
-1.35756e-29
-4.84125e-29
-1.48053e-29
-4.05568e-29
-9.52377e-30
9.87528e-29
4.97005e-30
6.62843e-27
2.46267e-28
1.15453e-24
4.03835e-26
1.4265e-22
4.02647e-24
5.20912e-21
1.30028e-22
2.23082e-21
7.68277e-20
-9.38082e-33
-1.62741e-31
-1.01066e-32
-8.76955e-32
-1.5788e-32
-8.8828e-32
-2.41454e-32
-9.83441e-32
-3.04672e-32
-9.49036e-32
-3.40967e-32
-8.38112e-32
-3.79309e-32
-7.4977e-32
-4.66731e-32
-7.50275e-32
-6.43275e-32
-8.45775e-32
-1.0039e-31
-1.08091e-31
-1.65266e-31
-1.45295e-31
-2.68116e-31
-1.91091e-31
-4.25891e-31
-2.43151e-31
-6.59624e-31
-2.96388e-31
-9.66689e-31
-3.33432e-31
-1.21817e-30
-3.11549e-31
-8.50192e-31
-1.53625e-31
1.65253e-29
3.62022e-31
1.85475e-27
2.78673e-29
4.82068e-25
5.04379e-27
6.05124e-23
3.26073e-25
1.97445e-21
8.83449e-24
2.21031e-22
2.46953e-20
-6.56452e-34
-1.14156e-32
-6.75278e-34
-5.90704e-33
-9.93632e-34
-5.66166e-33
-1.43083e-33
-5.91646e-33
-1.69351e-33
-5.36025e-33
-1.76502e-33
-4.40653e-33
-1.81452e-33
-3.63653e-33
-2.05684e-33
-3.34134e-33
-2.61008e-33
-3.45017e-33
-3.75343e-33
-4.03238e-33
-5.67514e-33
-4.92448e-33
-8.37948e-33
-5.80387e-33
-1.19731e-32
-6.49636e-33
-1.64185e-32
-6.78389e-33
-2.08625e-32
-6.29055e-33
-2.21695e-32
-4.56187e-33
2.3091e-32
2.61807e-34
2.07015e-30
1.67234e-32
3.38575e-28
4.18738e-31
1.0763e-25
-3.48599e-28
1.35066e-23
-8.04214e-26
4.71741e-22
-4.01327e-24
-5.28349e-23
6.42679e-21
-4.17199e-35
-7.39187e-34
-4.1098e-35
-3.68385e-34
-5.7056e-35
-3.34568e-34
-7.73665e-35
-3.29906e-34
-8.57911e-35
-2.80187e-34
-8.30828e-35
-2.13884e-34
-7.8642e-35
-1.62212e-34
-8.16459e-35
-1.36052e-34
-9.46108e-35
-1.27617e-34
-1.2399e-34
-1.34871e-34
-1.69715e-34
-1.47414e-34
-2.23786e-34
-1.52565e-34
-2.80365e-34
-1.45977e-34
-3.28441e-34
-1.25121e-34
-3.42878e-34
-8.90537e-35
-2.52907e-34
-3.92603e-35
4.04159e-33
1.26783e-34
2.99807e-31
-2.54038e-34
4.65281e-29
-3.52338e-31
1.24026e-26
-1.14458e-28
1.72789e-24
-2.4421e-26
9.29295e-23
-2.55567e-24
-1.02144e-22
2.31882e-21
-2.40503e-36
-4.43725e-35
-2.27779e-36
-2.13653e-35
-2.99041e-36
-1.84163e-35
-3.82032e-36
-1.71313e-35
-3.96582e-36
-1.36191e-35
-3.56194e-36
-9.63098e-36
-3.09421e-36
-6.68879e-36
-2.92655e-36
-5.093e-36
-3.07273e-36
-4.30556e-36
-3.63014e-36
-4.06958e-36
-4.43276e-36
-3.92142e-36
-5.1168e-36
-3.48936e-36
-5.46421e-36
-2.76593e-36
-5.24273e-36
-1.85013e-36
-4.15823e-36
-9.11264e-37
6.43275e-36
1.0677e-37
4.85717e-34
2.43238e-37
4.20979e-32
-3.22604e-34
5.44281e-30
-6.51218e-32
1.07472e-27
-1.67221e-29
1.99013e-25
-5.03243e-27
2.35584e-23
-1.0369e-24
-7.95733e-23
1.33146e-21
-1.25247e-37
-2.48269e-36
-1.14723e-37
-1.1584e-36
-1.42942e-37
-9.49259e-37
-1.72276e-37
-8.32774e-37
-1.67387e-37
-6.18801e-37
-1.39241e-37
-4.04467e-37
-1.10709e-37
-2.56397e-37
-9.49454e-38
-1.76345e-37
-8.96739e-38
-1.33376e-37
-9.45125e-38
-1.1157e-37
-1.01468e-37
-9.33856e-38
-1.00443e-37
-6.99225e-38
-8.86715e-38
-4.43993e-38
-6.63083e-38
-2.18418e-38
-3.35285e-38
-6.00921e-39
5.49671e-37
3.93718e-39
4.35408e-35
-1.27809e-37
3.8121e-33
-3.02954e-35
4.21367e-31
-5.37111e-33
8.31942e-29
-1.47467e-30
2.32307e-26
-6.33448e-28
5.19629e-24
-1.90331e-25
-1.8382e-23
4.77035e-22
-5.84739e-39
-1.30374e-37
-5.22737e-39
-5.90743e-38
-6.21624e-39
-4.60861e-38
-7.08688e-39
-3.81111e-38
-6.44953e-39
-2.64286e-38
-4.96569e-39
-1.59322e-38
-3.60637e-39
-9.19128e-39
-2.79326e-39
-5.68475e-39
-2.35779e-39
-3.82119e-39
-2.19534e-39
-2.8015e-39
-2.04299e-39
-2.00819e-39
-1.69851e-39
-1.23846e-39
-1.19981e-39
-6.08085e-40
-6.5938e-40
-2.05142e-40
-9.26655e-41
-1.28884e-41
1.86012e-38
-4.33114e-42
1.71612e-36
-4.59723e-39
1.65307e-34
-7.41787e-37
2.01231e-32
-1.56802e-34
4.58807e-30
-6.70802e-32
1.85482e-27
-4.71467e-29
5.80274e-25
-2.35031e-26
-3.16821e-24
6.15032e-23
-2.41447e-40
-6.4817e-39
-2.13759e-40
-2.85331e-39
-2.44853e-40
-2.12071e-39
-2.65329e-40
-1.6517e-39
-2.26613e-40
-1.06719e-39
-1.61522e-40
-5.92142e-40
-1.07011e-40
-3.10075e-40
-7.46136e-41
-1.71804e-40
-5.59665e-41
-1.02045e-40
-4.56226e-41
-6.50048e-41
-3.6305e-41
-3.93881e-41
-2.48304e-41
-1.95986e-41