/*--------------------------------*- C++ -*----------------------------------*\
  =========                 |
  \\      /  F ield         | OpenFOAM: The Open Source CFD Toolbox
   \\    /   O peration     | Website:  https://openfoam.org
    \\  /    A nd           | Version:  7
     \\/     M anipulation  |
\*---------------------------------------------------------------------------*/
FoamFile
{
    version     2.0;
    format      ascii;
    class       volScalarField;
    location    "0.85";
    object      alpha.water;
}
// * * * * * * * * * * * * * * * * * * * * * * * * * * * * * * * * * * * * * //

dimensions      [0 0 0 0 0 0 0];

internalField   nonuniform List<scalar> 
2268
(
1
1
1
1
1
1
1
1
1
1
1
1
1
0.999999
0.999994
0.999928
0.985154
0.964183
0.964183
0.964183
0.964193
0.987208
0.99979
1
1
1
1
1
1
1
1
1
1
1
1
1
1
1
0.999998
0.999478
0.991657
0.977389
0.973014
0.980992
0.992033
0.999791
1
1
1
1
1
1
1
1
1
1
1
1
1
1
1
1
1
1
1
1
1
1
0.999792
1
1
1
1
1
1
1
1
1
1
1
1
1
1
1
1
1
1
1
1
1
0.999935
0.999696
1
1
1
1
1
1
1
1
1
1
1
1
1
1
1
1
1
1
1
1
0.99999
0.999797
0.999696
1
1
1
1
1
1
1
1
1
1
1
1
1
1
1
1
1
1
1
0.999998
0.999987
0.999846
0.999735
1
1
1
1
1
1
1
1
1
1
1
1
1
1
1
1
1
1
0.999997
0.999989
0.999955
0.999837
0.999751
1
1
1
1
1
1
1
1
1
1
1
1
1
1
1
1
1
0.999997
0.999983
0.999924
0.999804
0.999737
0.999697
0.996191
0.983842
0.983771
0.986755
0.997105
0.997104
0.997111
0.997081
0.996949
0.996448
0.995316
0.993415
0.969192
0.921575
0.907614
0.942617
0.946335
0.946362
0.936342
0.992728
0.983833
0.988123
0.997007
0.997056
0.997114
0.997083
0.996999
0.991515
0.976676
0.965483
0.963919
0.967915
0.947494
0.907376
0.907423
0.90716
0.92518
0.958743
0.996278
0.991956
0.996808
0.996905
0.997
0.99702
0.996129
0.995489
0.990928
0.943672
0.856072
0.840988
0.928354
0.948955
0.933113
0.909161
0.905691
0.904481
0.935031
0.997165
0.997147
0.996745
0.996816
0.996864
0.992026
0.953486
0.948033
0.966493
0.923409
0.857032
0.825256
0.833994
0.926957
0.93748
0.937347
0.936157
0.902398
0.87351
0.99717
0.997249
0.996961
0.996508
0.899654
0.508988
0.383206
0.381048
0.571574
0.774637
0.84849
0.836124
0.832287
0.91158
0.937592
0.937344
0.936812
0.93592
0.875778
0.997165
0.99704
0.995209
0.791322
0.162829
0.0704974
0.0775001
0.0835824
0.171279
0.722818
0.843435
0.831029
0.801658
0.823503
0.883395
0.937023
0.935766
0.933426
0.924582
0.996989
0.996864
0.885595
0.196291
0.0693654
0.0693654
0.0705321
0.0774891
0.357491
0.742738
0.828126
0.576995
0.429208
0.626305
0.829372
0.935058
0.932134
0.929975
0.924742
0.996255
0.995882
0.841094
0.0693427
0.0693654
0.069756
0.0697476
0.0989886
0.575814
0.747472
0.747359
0.228918
0.0874571
0.24182
0.597504
0.728541
0.702032
0.724841
0.88695
1
1
1
1
1
1
1
1
1
1
1
1
1
0.999999
1
0.999999
0.999996
0.999977
0.999866
0.999436
0.998783
0.999184
0.999335
0.921093
0.879268
0.841499
0.822044
0.828217
0.853161
0.886886
0.925972
0.968036
0.997705
1
1
1
0.99992
0.999995
0.999981
0.999935
0.999774
0.987631
0.928524
0.883448
0.976471
0.99276
0.25359
0.191957
0.151139
0.133159
0.135725
0.155932
0.188147
0.230568
0.278218
0.325712
0.385121
0.460224
0.56933
0.674029
0.728221
0.744028
0.743617
0.71268
0.532798
0.35824
0.540196
0.880842
0.5337
0.001986
0.00126962
0.00101453
0.000779105
0.000585534
0.000442387
0.000330477
0.00023864
0.000162882
0.000101859
4.80017e-05
0.000350266
0.0016061
0.000755024
0.000337694
0.012795
0.059457
0.0771449
0.0558728
0.133821
0.53071
0.550913
0.0222477
0.000251522
0.000149325
0.000119379
8.70267e-05
5.86118e-05
3.81416e-05
2.38959e-05
1.43726e-05
8.39343e-06
4.85064e-06
2.68222e-06
1.55897e-06
3.23333e-06
1.70887e-05
3.45598e-05
0.000122278
0.000685486
0.00320166
0.0205209
0.274052
0.500709
0.232146
0.00416448
2.99794e-05
1.80636e-05
1.43629e-05
1.00421e-05
6.26158e-06
3.70852e-06
2.06247e-06
1.08696e-06
5.55952e-07
2.81382e-07
1.56605e-07
1.841e-07
1.15802e-06
3.21884e-06
1.55407e-05
9.33001e-05
0.000490643
0.00211355
0.00824274
0.160073
0.426995
0.165809
0.00359526
3.39707e-06
2.16001e-06
1.70697e-06
1.15999e-06
6.83483e-07
3.74911e-07
1.92523e-07
9.1701e-08
4.24263e-08
2.00127e-08
1.18257e-08
3.72095e-08
1.79287e-07
1.03415e-06
7.44178e-06
5.10482e-05
0.000298646
0.00116779
0.00362812
0.0434522
0.251076
0.305579
0.072956
3.69029e-07
2.50693e-07
1.97475e-07
1.32088e-07
7.55655e-08
3.92496e-08
1.91977e-08
8.75058e-09
3.84601e-09
1.7816e-09
1.23507e-09
6.99395e-09
3.70283e-08
3.14445e-07
2.81525e-06
2.12914e-05
0.000122576
0.000524447
0.00177241
0.0157183
0.203242
0.305973
0.275104
3.85539e-08
2.80768e-08
2.21551e-08
1.47439e-08
8.36082e-09
4.27277e-09
2.10888e-09
9.91003e-10
4.61907e-10
2.26711e-10
1.62353e-10
1.01698e-09
6.97901e-09
7.43672e-08
7.95372e-07
6.45551e-06
3.94947e-05
0.000183767
0.000632975
0.00290453
0.0829109
0.312402
0.318437
3.88965e-09
3.04041e-09
2.41811e-09
1.61826e-09
9.79643e-10
5.59591e-10
2.95382e-10
1.46439e-10
6.54438e-11
2.72248e-11
1.29141e-11
1.09008e-10
1.02821e-09
1.28616e-08
1.5686e-07
1.44367e-06
9.6135e-06
4.32958e-05
0.000154338
0.000586233
0.00669377
0.168111
0.317748
3.97659e-10
3.61213e-10
3.05923e-10
2.25107e-10
1.45262e-10
8.26129e-11
4.11385e-11
2.2289e-11
1.2539e-11
1.23745e-12
4.19565e-13
2.09498e-12
1.05515e-10
1.77282e-09
2.30649e-08
2.38744e-07
1.62217e-06
6.98152e-06
2.59634e-05
9.34428e-05
0.000243213
0.00640865
0.218325
5.11428e-11
4.79716e-11
4.03834e-11
2.92415e-11
2.0763e-11
1.93435e-11
1.16651e-11
4.47834e-12
5.72922e-13
-6.87645e-13
-1.59501e-11
-7.11833e-15
2.08711e-12
2.06947e-10
2.94773e-09
3.05614e-08
2.38706e-07
1.02658e-06
3.47774e-06
1.09878e-05
2.65286e-05
2.94987e-05
0.000270699
8.20232e-12
9.4624e-12
8.95718e-12
7.36932e-12
5.28961e-12
3.35677e-12
1.29941e-12
1.55282e-13
-1.68016e-12
-8.61101e-12
-1.84467e-11
-2.27986e-11
4.56576e-27
2.56915e-11
4.00213e-10
4.64418e-09
3.91757e-08
1.72933e-07
5.13756e-07
1.41454e-06
3.38764e-06
6.24874e-06
7.79269e-06
1.27337e-12
1.43222e-12
1.32592e-12
1.03931e-12
6.41006e-13
2.18412e-13
2.9398e-14
-6.70551e-13
-2.91977e-12
-6.40626e-12
-1.12393e-11
-1.57397e-11
-3.72162e-12
-1.02126e-13
4.91261e-11
6.65455e-10
5.99913e-09
2.72561e-08
8.07248e-08
1.96691e-07
4.14745e-07
6.88533e-07
1.16808e-06
1.19367e-13
1.33892e-13
1.17825e-13
7.94484e-14
3.20683e-14
5.77091e-15
-1.85835e-13
-7.37671e-13
-1.67264e-12
-3.10132e-12
-5.11598e-12
-7.41286e-12
-6.79653e-12
1.05228e-27
7.94649e-12
9.12519e-11
8.53473e-10
3.96849e-09
1.19548e-08
2.7597e-08
5.46152e-08
8.2461e-08
1.30059e-07
8.61067e-15
1.04467e-14
8.40183e-15
3.1789e-15
0
-3.80848e-14
-1.49797e-13
-3.42731e-13
-6.62442e-13
-1.16083e-12
-1.88759e-12
-2.80737e-12
-3.35609e-12
1.63191e-29
7.76544e-13
1.50545e-11
1.24202e-10
5.29628e-10
1.63486e-09
3.75202e-09
7.18173e-09
1.05514e-08
1.53185e-08
4.51478e-16
6.46282e-16
3.00855e-16
-5.09971e-31
-6.9021e-15
-2.51627e-14
-5.79893e-14
-1.13736e-13
-2.06649e-13
-3.56258e-13
-5.83346e-13
-8.92617e-13
-1.20018e-12
-7.72395e-13
-9.86875e-30
1.71601e-12
1.71526e-11
8.53996e-11
2.61316e-10
5.78351e-10
1.0415e-09
1.51525e-09
2.01853e-09
-1.21256e-21
1.71337e-17
7.96829e-33
-1.11239e-15
-3.7434e-15
-8.44425e-15
-1.64912e-14
-3.01785e-14
-5.33947e-14
-9.21634e-14
-1.53524e-13
-2.42244e-13
-3.49984e-13
-3.57068e-13
0
1.44953e-13
1.81707e-12
9.97894e-12
3.53101e-11
8.95928e-11
1.69365e-10
2.4401e-10
3.1293e-10
-6.47865e-17
-2.39911e-17
-1.43332e-16
-4.92217e-16
-1.11237e-15
-2.12365e-15
-3.80882e-15
-6.70284e-15
-1.17195e-14
-2.04083e-14
-3.4734e-14
-5.65467e-14
-8.61738e-14
-1.07759e-13
-2.44892e-14
-1.22348e-16
1.67128e-13
9.64469e-13
3.57138e-12
9.657e-12
1.94887e-11
3.67513e-11
5.04338e-11
-3.29445e-17
-2.32022e-17
-5.39881e-17
-1.30668e-16
-2.53027e-16
-4.39685e-16
-7.45063e-16
-1.27611e-15
-2.21719e-15
-3.9044e-15
-6.79431e-15
-1.13983e-14
-1.81463e-14
-2.55248e-14
-1.85282e-14
0
1.3647e-14
8.11345e-14
3.33246e-13
1.14935e-12
3.28549e-12
7.50046e-12
1.42046e-11
-8.78449e-18
-6.70621e-18
-1.29892e-17
-2.71796e-17
-4.79897e-17
-7.79506e-17
-1.26198e-16
-2.11194e-16
-3.64906e-16
-6.49248e-16
-1.1532e-15
-1.98803e-15
-3.28405e-15
-4.99409e-15
-5.21852e-15
0
7.26144e-16
5.97958e-15
2.48253e-14
9.62858e-14
3.38361e-13
8.96319e-13
2.17504e-12
-1.8287e-18
-1.41367e-18
-2.49433e-18
-4.77128e-18
-7.8672e-18
-1.20794e-17
-1.8754e-17
-3.06592e-17
-5.25699e-17
-9.42176e-17
-1.7022e-16
-3.00285e-16
-5.11539e-16
-8.22391e-16
-1.04037e-15
-2.6313e-16
-3.09758e-19
3.89292e-16
1.50466e-15
5.55964e-15
1.9368e-14
5.59935e-14
1.55946e-13
-3.24512e-19
-2.47455e-19
-4.08379e-19
-7.29836e-19
-1.13581e-18
-1.65615e-18
-2.46621e-18
-3.92845e-18
-6.65843e-18
-1.19657e-17
-2.18803e-17
-3.9284e-17
-6.85622e-17
-1.14779e-16
-1.6321e-16
-1.01555e-16
-6.02341e-34
2.19034e-17
8.34622e-17
2.77003e-16
9.0887e-16
2.7437e-15
1.26149e-14
-5.07697e-20
-3.76595e-20
-5.86781e-20
-9.89263e-20
-1.4601e-19
-2.02477e-19
-2.8869e-19
-4.46295e-19
-7.43873e-19
-1.33263e-18
-2.45115e-18
-4.44921e-18
-7.89737e-18
-1.35996e-17
-2.08525e-17
-1.84957e-17
0
8.4566e-19
3.94474e-18
1.19897e-17
3.95389e-17
4.05899e-16
6.83236e-15
-7.11651e-21
-5.09201e-21
-7.51425e-21
-1.20023e-20
-1.68331e-20
-2.21941e-20
-3.02131e-20
-4.51091e-20
-7.34889e-20
-1.30349e-19
-2.39403e-19
-4.35893e-19
-7.80244e-19
-1.36638e-18
-2.19698e-18
-2.37368e-18
-3.54955e-19
-3.25194e-22
1.57532e-19
4.71253e-19
8.07628e-18
3.3639e-16
6.65983e-15
-9.01658e-22
-6.19061e-22
-8.65689e-22
-1.31222e-21
-1.74927e-21
-2.19004e-21
-2.83669e-21
-4.06797e-21
-6.43373e-21
-1.12115e-20
-2.03894e-20
-3.69011e-20
-6.59586e-20
-1.16076e-19
-1.91447e-19
-2.3304e-19
-8.94783e-20
-8.57826e-38
5.41069e-21
5.91855e-20
6.64751e-18
3.0391e-16
5.94667e-15
-1.03804e-22
-6.81736e-23
-9.02949e-23
-1.29922e-22
-1.64508e-22
-1.95194e-22
-2.39635e-22
-3.28133e-22
-5.00108e-22
-8.48948e-22
-1.51436e-21
-2.69608e-21
-4.75762e-21
-8.30329e-21
-1.37689e-20
-1.7953e-20
-1.00543e-20
6.03132e-38
5.13096e-22
4.30561e-20
5.56324e-18
2.45942e-16
4.70484e-15
-1.0896e-23
-6.83465e-24
-8.56736e-24
-1.16959e-23
-1.40486e-23
-1.57604e-23
-1.82634e-23
-2.37313e-23
-3.45833e-23
-5.66607e-23
-9.81044e-23
-1.69798e-22
-2.91924e-22
-4.97637e-22
-8.12826e-22
-1.09099e-21
-7.4816e-22
-4.54094e-23
3.35353e-22
3.59025e-20
4.28576e-18
1.78079e-16
3.34518e-15
-1.04538e-24
-6.26113e-25
-7.42319e-25
-9.60685e-25
-1.09284e-24
-1.15609e-24
-1.25912e-24
-1.54267e-24
-2.13201e-24
-3.33816e-24
-5.54598e-24
-9.20893e-24
-1.51906e-23
-2.48448e-23
-3.90697e-23
-5.20214e-23
-3.952e-23
-3.2921e-24
2.16166e-22
2.59962e-20
3.0024e-18
1.16514e-16
2.0793e-15
-9.18617e-26
-5.25716e-26
-5.89338e-26
-7.22351e-26
-7.76777e-26
-7.7268e-26
-7.8748e-26
-9.03826e-26
-1.17463e-25
-1.73931e-25
-2.73844e-25
-4.29838e-25
-6.68411e-25
-1.02685e-24
-1.51337e-24
-1.92125e-24
-1.47422e-24
8.74217e-25
9.97216e-23
1.60902e-20
1.8711e-18
6.57464e-17
1.03595e-15
-7.40842e-27
-4.05709e-27
-4.30086e-27
-4.98814e-27
-5.06084e-27
-4.71993e-27
-4.48163e-27
-4.7874e-27
-5.80056e-27
-8.03481e-27
-1.18294e-26
-1.72685e-26
-2.48087e-26
-3.49051e-26
-4.66526e-26
-5.38119e-26
-3.44979e-26
2.8472e-25
3.12516e-23
7.55062e-21
8.95236e-19
2.82649e-17
3.76925e-16
-5.49553e-28
-2.88572e-28
-2.89441e-28
-3.17397e-28
-3.03251e-28
-2.64406e-28
-2.32899e-28
-2.30075e-28
-2.57656e-28
-3.30147e-28
-4.4816e-28
-5.97722e-28
-7.75374e-28
-9.6947e-28
-1.12749e-27
-1.10036e-27
0
4.2361e-26
6.46067e-24
1.9158e-21
2.27289e-19
7.65881e-18
1.10723e-16
-3.75932e-29
-1.89754e-29
-1.80251e-29
-1.86771e-29
-1.6774e-29
-1.36347e-29
-1.10954e-29
-1.00737e-29
-1.03383e-29
-1.21159e-29
-1.49435e-29
-1.78644e-29
-2.03939e-29
-2.18634e-29
-2.09657e-29
-1.4252e-29
9.70052e-29
7.11792e-27
1.02558e-24
2.54403e-22
3.32919e-20
1.70027e-18
4.39124e-17
-2.37897e-30
-1.15756e-30
-1.04275e-30
-1.02046e-30
-8.6001e-31
-6.49956e-31
-4.86717e-31
-4.03744e-31
-3.76586e-31
-3.99134e-31
-4.40627e-31
-4.62688e-31
-4.51787e-31
-3.98082e-31
-2.91054e-31
6.15087e-32
1.44626e-29
1.1665e-27
1.39682e-25
2.56436e-23
4.43694e-21
4.93704e-19
2.81298e-17
-1.39821e-31
-6.57845e-32
-5.62835e-32
-5.20012e-32
-4.10564e-32
-2.87753e-32
-1.97566e-32
-1.48913e-32
-1.25246e-32
-1.1874e-32
-1.15577e-32
-1.04385e-32
-8.45187e-33
-5.82272e-33
-2.72321e-33
1.92082e-32
1.52421e-30
1.24117e-28
1.27454e-26
2.3409e-24
6.1006e-22
1.27875e-19
1.15442e-17
-7.67173e-33
-3.50011e-33
-2.84882e-33
-2.48387e-33
-1.83418e-33
-1.18925e-33
-7.46079e-34
-5.08401e-34
-3.8276e-34
-3.21215e-34
-2.71629e-34
-2.06542e-34
-1.3415e-34
-6.80996e-35
-8.87809e-36
8.11887e-34
7.14123e-32
6.41782e-30
7.28348e-28
1.54854e-25
5.84754e-23
1.71284e-20
1.76423e-18
-3.95616e-34
-1.75378e-34
-1.35982e-34
-1.11818e-34
-7.70951e-35
-4.61348e-35
-2.63638e-35
-1.61686e-35
-1.08243e-35
-7.96341e-36
-5.76833e-36
-3.61504e-36
-1.81926e-36
-6.34153e-37
1.65593e-37
1.68889e-35
1.34804e-33
1.14506e-31
1.68631e-29
5.82534e-27
3.61716e-24
1.72663e-21
2.42183e-19
-1.93377e-35
-8.33207e-36
-6.1586e-36
-4.77155e-36
-3.06616e-36
-1.68964e-36
-8.77091e-37
-4.82249e-37
-2.85429e-37
-1.82504e-37
-1.11768e-37
-5.65585e-38
-2.12856e-38
-4.70273e-39
1.65818e-39
6.5565e-38
1.75602e-37
1.52122e-35
3.61029e-33
1.43613e-28
1.51476e-25
9.1443e-23
1.76899e-20
-9.0514e-37
-3.78134e-37
-2.66312e-37
-1.94136e-37
-1.16056e-37
-5.8775e-38
-2.76506e-38
-1.35872e-38
-7.07625e-39
-3.90386e-39
-1.99829e-39
-8.01143e-40
-2.17708e-40
-2.81e-41
0
2.34296e-43
1.1153e-40
5.81954e-38
2.39179e-34
2.4579e-29
4.03785e-27
2.84413e-24
8.32913e-22
-4.10337e-38
-1.65165e-38
-1.10619e-38
-7.57399e-39
-4.20521e-39
-1.95398e-39
-8.31609e-40
-3.6437e-40
-1.66399e-40
-7.87736e-41
-3.33996e-41
-1.04404e-41
-1.98296e-42
-1.38547e-43
-1.15814e-45
1.5084e-47
3.30192e-44
2.9668e-41
1.35931e-37
5.83512e-32
2.05003e-29
2.25358e-27
6.6245e-25
-1.82222e-39
-6.99134e-40
-4.4373e-40
-2.84874e-40
-1.46711e-40
-6.24727e-41
-2.40253e-41
-9.37322e-42
-3.74581e-42
-1.51684e-42
-5.29904e-43
-1.27851e-43
-1.656e-44
-5.87795e-46
-3.76822e-48
-2.44629e-50
-1.33017e-52
9.28205e-50
5.46271e-41
1.2042e-34
9.11216e-32
5.01884e-30
2.09137e-28
-8.00134e-41
-2.88346e-41
-1.72664e-41
-1.03804e-41
-4.9547e-42
-1.93214e-42
-6.71048e-43
-2.32997e-43
-8.14388e-44
-2.81969e-44
-8.11633e-45
-1.513e-45
-1.33637e-46
-2.37991e-48
-7.74952e-51
-2.01108e-53
-4.62921e-56
-1.01826e-58
-2.21308e-61
7.80035e-47
1.57381e-39
2.6052e-35
1.71949e-33
0.999397
0.999392
0.999393
0.999379
0.970396
0.998643
0.999379
0.999351
0.291401
0.705558
0.990798
0.99923
0.00416826
0.00688303
0.283593
0.746352
0.00352767
0.00338186
0.00995049
0.0996196
0.00337964
0.00296165
0.0029554
0.00387288
0.00302316
0.00302843
0.00296341
0.00304861
0.00377962
0.00289256
0.00303498
0.0032366
0.258226
0.00495689
0.0032408
0.00379362
0.320324
0.3222
0.178145
0.00508707
0.322192
0.323568
0.32219
0.317783
0.0676198
0.285601
0.319142
0.310686
-1.41118e-07
-0.000360679
0.005681
0.0337064
-1.07318e-07
3.63363e-07
-1.61217e-06
-5.94595e-06
2.87799e-07
7.93641e-08
4.07078e-08
3.66101e-08
3.21717e-08
2.15358e-08
2.91939e-08
2.86622e-08
1.75366e-09
2.34641e-09
2.24001e-09
2.11203e-09
3.32598e-10
4.07845e-10
5.54095e-10
4.21937e-10
7.38178e-11
1.05408e-10
1.40983e-10
1.7288e-10
2.12401e-11
2.55124e-11
2.96864e-11
3.68862e-11
3.43499e-12
4.17489e-12
4.85724e-12
5.79106e-12
3.03068e-13
4.17514e-13
5.30367e-13
6.71827e-13
3.0985e-14
5.41567e-14
9.69115e-14
1.52908e-13
2.06686e-14
4.03171e-14
8.2164e-14
1.38919e-13
2.02289e-14
3.96518e-14
8.21791e-14
1.40168e-13
1.80381e-14
3.54548e-14
7.44062e-14
1.29194e-13
1.42697e-14
2.81127e-14
6.01265e-14
1.08552e-13
1.01946e-14
2.03496e-14
4.51232e-14
8.68535e-14
6.3608e-15
1.29635e-14
2.96752e-14
6.12984e-14
3.14924e-15
6.48035e-15
1.50493e-14
3.18532e-14
1.11613e-15
2.25829e-15
5.12677e-15
9.724e-15
3.35877e-16
7.11842e-16
1.64831e-15
3.09933e-15
1.67648e-16
4.8611e-16
1.69914e-15
3.58612e-15
1.45411e-16
5.90352e-16
2.90201e-15
5.94926e-15
8.36386e-17
4.58313e-16
3.07452e-15
5.94409e-15
1.52307e-17
1.09794e-16
1.04389e-15
1.76367e-15
2.45242e-18
1.81333e-17
1.51057e-16
1.69034e-16
2.31701e-19
2.26228e-18
1.62539e-17
1.45138e-17
1.32219e-20
1.27399e-19
6.80317e-19
4.52063e-19
1.54273e-23
4.29045e-22
3.44968e-21
1.70742e-21
5.66893e-27
5.75146e-25
7.26074e-24
2.34367e-24
2.35401e-33
2.61665e-29
2.65704e-27
3.1275e-28
0.998865
0.92749
0.259285
0.0702188
0.0699955
0.101475
0.20683
0.122782
0.421426
0.735782
0.630201
0.113764
0.0872904
0.0875924
0.170861
0.242717
0.199107
0.217639
0.377691
0.998743
0.967904
0.279788
0.0731666
0.0706494
0.416734
0.54052
0.221732
0.274196
0.659807
0.529391
0.0874029
0.0874029
0.0873704
0.0877851
0.0907274
0.0938425
0.0933394
0.0933693
0.999185
0.998932
0.863352
0.614875
0.60467
0.689682
0.689355
0.374537
0.290492
0.6372
0.505414
0.0877812
0.0873249
0.0875145
0.152868
0.125671
0.107446
0.0934353
0.0932839
0.949808
0.97471
0.907043
0.809889
0.75193
0.68194
0.689524
0.527336
0.354717
0.617602
0.490542
0.0883957
0.0881106
0.171851
0.204193
0.204835
0.202909
0.136524
0.0934353
0.255416
0.335725
0.318775
0.272145
0.321193
0.358247
0.681252
0.498446
0.613382
0.617602
0.415106
0.0907955
0.103681
0.204083
0.204835
0.203048
0.196866
0.183743
0.142413
0.00392429
0.00725276
0.0152679
0.0415122
0.0677762
0.309217
0.400747
0.224147
0.424054
0.613423
0.411575
0.0922633
0.111218
0.204772
0.203303
0.0804873
0.0511276
0.135023
0.161242
0.00318003
0.00393965
0.00728452
0.0483021
0.14626
0.131642
0.0155309
0.00864853
0.126812
0.488031
0.435968
0.0898371
0.135235
0.203271
0.0896937
1.88633e-05
0.000114165
0.00218538
0.135437
0.00387801
0.00854503
0.0569606
0.0684917
0.061176
0.00244272
0.000977942
0.00231178
0.119027
0.522975
0.21811
0.075749
0.124427
0.199414
1.88644e-05
4.65767e-06
1.69166e-05
0.000103391
0.000692474
0.00418839
0.0178284
0.0476281
0.0317237
0.00111815
0.000489964
0.000424713
0.00117615
0.0750651
0.523542
0.0540335
0.0772282
0.0973471
0.084251
0.000278215
3.1175e-06
4.12392e-06
2.84473e-06
0.00017801
0.00284352
0.00264937
0.00196151
0.000614361
0.00033843
0.000286748
0.000365962
0.000426469
0.213538
0.522975
0.0488682
0.054015
0.0395459
2.92155e-06
2.92039e-06
2.94047e-06
2.81062e-06
0.00023119
0.00964963
0.188671
0.00156382
0.000548233
0.000338731
0.000286007
0.000286955
0.000286955
0.0933994
0.317734
0.200089
0.0214185
0.0149483
0.0115628
2.92331e-06
2.92155e-06
2.92367e-06
3.70067e-06
0.00028388
0.0168789
0.307668
0.311946
0.146197
0.000965811
0.00399159
0.0103203
0.0727143
0.286819
0.286061
0.00132468
0.00300317
0.00384664
0.00886294
2.92231e-06
2.92367e-06
2.93581e-06
1.43823e-05
0.000419701
0.0168789
0.212629
0.318332
0.320086
0.320086
0.320086
0.319304
0.301258
0.200273
0.0276137
0.00100913
0.00262366
0.00417814
0.0014208
2.91939e-06
2.93445e-06
2.98104e-06
2.38387e-05
0.000970592
0.0168789
-1.14363e-07
0.00537861
0.106499
0.1702
0.152948
0.0854842
0.0301331
1.7521e-06
2.63083e-06
0.00100671
0.00345313
0.00339102
9.4333e-05
2.93551e-06
3.06868e-06
1.01114e-05
1.64843e-05
0.0014142
0.0165826
5.66585e-08
8.03315e-08
1.06265e-07
1.02888e-07
1.08571e-07
1.20058e-07
1.40552e-07
3.51731e-07
0.000162715
0.00101219
0.00079792
4.99153e-07
1.2608e-06
1.52564e-05
5.09516e-05
5.3433e-05
5.8664e-06
0.00188817
0.0139403
1.70822e-07
5.97726e-07
5.90043e-07
9.91962e-08
2.00596e-07
2.27117e-07
1.496e-07
8.98049e-06
0.000275565
0.000301057
1.00784e-08
5.05537e-08
5.66583e-06
5.38841e-05
5.47888e-05
5.47888e-05
4.71609e-06
0.00206716
0.00223024
4.38901e-08
1.00125e-07
1.34323e-07
5.53412e-08
3.7304e-07
4.33306e-07
1.78083e-08
1.67674e-05
0.000187958
9.76207e-05
2.92661e-09
3.01337e-09
4.74817e-07
2.67371e-05
5.47888e-05
5.27487e-05
4.39241e-06
0.000795954
0.000219213
1.87895e-10
2.17353e-10
1.86801e-10
2.61391e-09
2.49088e-10
3.60126e-08
1.15979e-08
2.29553e-06
8.81059e-05
2.92661e-09
2.90006e-09
2.81778e-09
2.14988e-09
1.68374e-09
1.29219e-05
9.55879e-06
4.00209e-06
4.24671e-06
8.54591e-06
1.28215e-10
1.82575e-10
1.83053e-10
5.20669e-10
2.3321e-10
4.88015e-11
4.88015e-11
4.88015e-11
3.16736e-05
8.05743e-06
2.86021e-09
2.79176e-09
2.4073e-09
1.68374e-09
1.68374e-09
8.5023e-07
2.44291e-06
4.00209e-06
4.02524e-06
5.51345e-11
1.04057e-10
1.42905e-10
2.42243e-10
2.48412e-10
1.13129e-10
4.69387e-11
9.31418e-07
9.32816e-07
2.0201e-06
4.01176e-07
2.12288e-09
1.88629e-09
1.68337e-09
9.89459e-06
1.59818e-05
1.31868e-05
4.31153e-06
4.75759e-06
1.11297e-11
2.41888e-11
5.03371e-11
8.85741e-11
1.03694e-10
5.2299e-11
2.75052e-11
9.09334e-07
9.32816e-07
1.59038e-07
8.0971e-08
2.51296e-08
1.70678e-09
1.6115e-09
1.84026e-05
1.86428e-05
1.87364e-05
6.74522e-06
6.24461e-06
1.47734e-12
3.81094e-12
9.66344e-12
2.59495e-11
3.17642e-11
2.46785e-11
2.63302e-11
3.14307e-07
3.85379e-07
1.05652e-07
1.43412e-08
1.6475e-08
3.70566e-09
1.5168e-09
1.55686e-05
1.87559e-05
1.53614e-05
4.70564e-06
3.40385e-06
5.41837e-13
2.86745e-12
9.46051e-12
2.27203e-11
2.27449e-11
2.39939e-11
1.72507e-08
1.67177e-08
2.91058e-09
7.15709e-09
7.01988e-09
6.75319e-09
2.02705e-09
1.26806e-09
6.44432e-06
1.84799e-05
8.70411e-07
1.96839e-06
1.25465e-06
8.03615e-13
5.1468e-12
1.54491e-11
2.85308e-11
2.54679e-11
2.46764e-11
1.42246e-08
1.08527e-08
1.97769e-09
9.13618e-10
1.47001e-09
1.28879e-09
8.05895e-10
8.52271e-10
2.57877e-06
6.59964e-06
6.56978e-07
8.19521e-07
4.324e-05
9.9146e-13
9.23469e-12
2.93868e-11
4.01308e-11
4.16673e-11
1.00445e-10
1.55033e-09
1.32378e-09
8.54271e-10
8.91475e-10
9.73997e-10
8.15942e-10
7.90629e-10
8.05881e-10
9.96418e-07
1.7806e-07
2.34816e-07
3.11837e-07
0.000204572
1.10489e-12
1.23272e-11
3.99043e-11
5.55713e-11
7.17308e-11
1.588e-10
1.88227e-10
2.97563e-10
5.17759e-10
7.0037e-10
8.83698e-10
7.51537e-10
7.74403e-10
1.68279e-07
6.048e-07
1.32284e-07
1.77509e-07
7.29303e-05
0.00022086
1.11388e-12
1.34429e-11
3.90579e-11
6.62325e-11
1.25906e-10
2.20684e-10
2.72094e-10
3.26378e-10
3.98659e-10
4.97651e-10
7.46371e-10
7.41024e-10
7.62091e-10
8.51591e-07
8.40188e-07
9.54461e-08
1.25332e-07
0.00021891
0.000225755
8.06289e-13
1.18223e-11
3.71979e-11
6.49189e-11
1.27776e-10
2.95106e-10
4.67276e-10
4.65734e-10
4.90391e-10
5.70693e-10
7.85958e-10
7.51537e-10
7.69549e-10
5.61303e-07
4.57116e-07
2.33853e-08
4.76868e-07
0.00024034
0.000233189
3.53799e-13
7.17216e-12
3.59217e-11
5.40717e-11
1.14498e-10
4.50167e-10
1.86987e-09
3.786e-09
2.93997e-09
1.41676e-09
8.91532e-10
8.07091e-10
1.83529e-09
1.9246e-09
2.6926e-09
5.06064e-09
2.89273e-05
0.000245211
5.52535e-05
1.18307e-13
3.00047e-12
2.82645e-11
4.06342e-11
5.17573e-11
1.14571e-09
5.01087e-09
5.3787e-09
5.1458e-09
2.34935e-09
8.40972e-10
8.16379e-10
1.76761e-08
2.46716e-08
6.86436e-09
8.71483e-09
0.000187335
0.000245645
4.80826e-05
5.35325e-14
9.81759e-13
1.11943e-11
2.71605e-11
7.86904e-11
1.00704e-09
3.83028e-09
5.17877e-09
5.81201e-09
7.96796e-09
7.77182e-09
7.71869e-09
8.12087e-09
6.31181e-09
6.35421e-09
7.46529e-09
0.000244807
0.00024564
4.55022e-05
6.46891e-14
6.13764e-13
7.45329e-12
6.61748e-11
1.44033e-10
8.10805e-10
1.66289e-09
2.66946e-09
9.30234e-09
1.34379e-08
1.33922e-08
1.33369e-08
7.94075e-09
6.19739e-09
6.17604e-09
1.41205e-06
0.00025479
0.000249944
1.76367e-05
1.3335e-13
9.23435e-13
1.27895e-11
1.27335e-10
1.42655e-10
6.40041e-10
1.84694e-09
5.49842e-09
1.34112e-08
1.34379e-08
1.15804e-08
5.82307e-09
5.96876e-09
6.16762e-09
5.97039e-09
0.000170355
0.00025661
0.000122119
2.00714e-06
3.73074e-13
2.89041e-12
1.18546e-11
1.25347e-10
1.22393e-10
6.16444e-10
7.46443e-09
1.00861e-08
1.01868e-08
6.12292e-09
4.89204e-09
4.90555e-09
3.4783e-08
6.19671e-09
9.40298e-09
0.000252545
0.000256585
7.8105e-05
4.31808e-07
6.96881e-13
9.9899e-12
2.93189e-11
1.16496e-10
1.21315e-10
3.6186e-10
5.8031e-09
8.84047e-09
5.20446e-09
5.33241e-09
3.98696e-07
3.74952e-06
1.24953e-06
9.28446e-09
0.000114486
0.000247999
0.000252805
2.63734e-05
1.43319e-08
6.5541e-13
1.27647e-11
6.17181e-11
1.81888e-10
1.78433e-10
2.05201e-10
1.05227e-09
8.06209e-10
8.62728e-10
1.45375e-06
5.79424e-06
5.4622e-06
7.88272e-07
6.55363e-08
0.000170066
0.000241286
1.42833e-05
1.30981e-08
1.27939e-09
1.77564e-13
8.3546e-12
9.43802e-11
2.25237e-10
2.37693e-10
2.11597e-10
2.02701e-10
2.02052e-10
9.63534e-07
5.80765e-06
5.80765e-06
5.11473e-06
1.1842e-06
1.3421e-07
4.26767e-05
2.61942e-05
1.31795e-06
-5.683e-12
1.12518e-10
1.23093e-14
1.76509e-12
3.99788e-11
2.12066e-10
3.07762e-10
2.54135e-10
2.01842e-10
2.02555e-10
2.09938e-07
3.29312e-06
2.85998e-06
1.89473e-06
7.42495e-06
6.85942e-06
2.83086e-10
5.10528e-11
5.01172e-11
6.5777e-11
1.17249e-10
1.00649e-15
1.28947e-13
7.02071e-12
1.23687e-10
3.08031e-10
3.27783e-10
3.47098e-10
2.03384e-10
2.79786e-10
3.58937e-08
1.52312e-08
9.2707e-08
1.28829e-07
2.64179e-10
3.44885e-11
3.74469e-11
5.95949e-11
6.83551e-11
1.20361e-10
2.58501e-17
6.26181e-15
4.69473e-13
2.40235e-11
1.88096e-10
2.40831e-10
1.19996e-09
2.63181e-09
2.59755e-09
2.30584e-09
6.41204e-09
2.60469e-08
1.46753e-08
2.40765e-09
5.1715e-12
3.39777e-11
6.12609e-11
1.15069e-10
1.14667e-10
9.50896e-20
7.86135e-17
1.31576e-14
1.45557e-12
4.6208e-11
8.03287e-11
1.75986e-09
3.018e-09
2.85802e-09
2.29277e-09
4.22666e-09
2.8399e-09
1.74437e-12
8.88937e-13
5.66669e-12
3.49044e-11
1.40851e-11
1.43315e-11
1.60725e-06
1.48805e-22
1.34773e-19
7.85975e-17
2.01809e-14
2.62716e-12
1.79473e-11
4.3438e-10
1.33563e-09
1.30624e-09
1.09382e-09
5.87065e-10
6.51319e-11
7.87215e-13
8.67623e-13
3.58668e-13
6.77921e-13
5.09971e-31
1.29356e-09
3.21001e-06
)
;

boundaryField
{
    leftWall
    {
        type            zeroGradient;
    }
    rightWall
    {
        type            zeroGradient;
    }
    lowerWall
    {
        type            zeroGradient;
    }
    atmosphere
    {
        type            inletOutlet;
        inletValue      uniform 0;
        value           nonuniform List<scalar> 
46
(
-8.00134e-41
-2.88346e-41
-1.72664e-41
-1.03804e-41
-4.9547e-42
-1.93214e-42
-6.71048e-43
-2.32997e-43
-8.14388e-44
-2.81969e-44
-8.11633e-45
-1.513e-45
-1.33637e-46
-2.37991e-48
0
0
0
0
0
0
0
0
0
0
0
0
0
0
0
0
0
0
0
0
0
1.30624e-09
1.09382e-09
5.87065e-10
6.51319e-11
0
0
0
0
0
1.29356e-09
3.21001e-06
)
;
    }
    defaultFaces
    {
        type            empty;
    }
}


// ************************************************************************* //
