/*--------------------------------*- C++ -*----------------------------------*\
  =========                 |
  \\      /  F ield         | OpenFOAM: The Open Source CFD Toolbox
   \\    /   O peration     | Website:  https://openfoam.org
    \\  /    A nd           | Version:  7
     \\/     M anipulation  |
\*---------------------------------------------------------------------------*/
FoamFile
{
    version     2.0;
    format      ascii;
    class       scalarField;
    location    "0.005/lagrangian/dsmc";
    object      Ei;
}
// * * * * * * * * * * * * * * * * * * * * * * * * * * * * * * * * * * * * * //


344686
(
1.14818e-21
4.08521e-21
6.16544e-21
1.14291e-21
8.23882e-22
1.97018e-21
5.6718e-22
4.83746e-21
3.38682e-21
1.05132e-23
8.81176e-22
1.7422e-21
7.31442e-23
1.39801e-21
3.02303e-21
1.89606e-21
1.18372e-21
1.23234e-21
4.31646e-22
1.3823e-22
3.10793e-21
7.25164e-21
1.19847e-21
2.36588e-22
1.55799e-21
8.22604e-22
5.50767e-21
8.86074e-22
1.48345e-22
2.53083e-22
7.46447e-22
1.30948e-21
1.05316e-21
1.41535e-21
1.59008e-21
7.46973e-23
1.04606e-21
4.58032e-21
7.82353e-22
3.37177e-21
1.50931e-21
4.39155e-21
3.06161e-21
9.20741e-23
4.0205e-21
4.8027e-21
1.57287e-21
9.55334e-22
5.76107e-22
6.16706e-22
6.29081e-22
2.00427e-21
2.07522e-21
9.73927e-22
1.64219e-21
2.28028e-21
4.26794e-21
1.37384e-21
5.47336e-21
4.4337e-22
1.37349e-21
2.32586e-21
4.56799e-22
8.76367e-23
6.23107e-22
1.1632e-22
2.09232e-21
1.32001e-21
6.77102e-21
1.71512e-21
4.39251e-22
3.82742e-22
2.96399e-21
1.97561e-21
1.60761e-21
4.40088e-22
6.19364e-22
2.8436e-22
2.35082e-21
8.0899e-22
3.11223e-21
4.22661e-23
1.03224e-21
2.58385e-21
6.56127e-22
3.00771e-21
1.2558e-23
4.00506e-22
6.12062e-22
1.60253e-22
1.11239e-21
4.23188e-22
3.47083e-21
4.29616e-21
1.20188e-21
3.92864e-21
1.64315e-21
5.21086e-21
5.89069e-22
2.90771e-22
2.02862e-21
5.17526e-21
3.59621e-21
9.47175e-22
2.53981e-23
1.17719e-21
5.96212e-21
3.27044e-21
2.13393e-21
1.50541e-21
1.65364e-21
3.70749e-21
4.34123e-23
1.0866e-21
3.67518e-22
9.82598e-22
9.90371e-22
3.2054e-21
6.90736e-21
1.83748e-22
1.22475e-21
4.94612e-22
1.98957e-21
5.20309e-22
2.29248e-21
4.29382e-22
5.28341e-21
1.02181e-22
2.15171e-21
4.42136e-21
9.11529e-22
7.83111e-21
8.3572e-22
6.08381e-22
3.31473e-22
1.01942e-21
1.07865e-21
1.57512e-21
6.25012e-22
3.37057e-22
5.90075e-22
3.42872e-21
4.91849e-21
1.41163e-21
7.94374e-21
9.26376e-22
1.89716e-21
2.63102e-22
5.57574e-21
1.50828e-21
7.19414e-23
3.01176e-21
5.37115e-21
5.39325e-21
1.69557e-21
6.37645e-21
9.35138e-22
1.26373e-23
2.19586e-21
6.35328e-22
7.77379e-22
1.79862e-21
5.15159e-22
3.7811e-21
1.05124e-21
3.13586e-21
1.81261e-21
6.17152e-23
8.83624e-22
3.52901e-22
3.64623e-21
1.56045e-21
9.14311e-22
8.23282e-22
1.98131e-21
3.01286e-21
9.32476e-23
6.77099e-22
1.27634e-22
2.66138e-21
1.77706e-21
1.3287e-21
1.42494e-22
1.51301e-21
3.62742e-21
1.4808e-21
1.11594e-21
3.2396e-21
4.37037e-23
7.36968e-22
2.7184e-21
1.68564e-22
7.04646e-21
3.12596e-21
5.38167e-22
3.64483e-22
6.25406e-22
3.12546e-21
3.92942e-22
9.2807e-22
7.07736e-22
5.31241e-22
1.08915e-21
1.15749e-21
1.30377e-21
6.19722e-22
5.35264e-21
2.55755e-21
4.70872e-21
1.22042e-21
2.24194e-21
7.11112e-21
1.36841e-21
5.94642e-22
5.98174e-22
2.82032e-21
2.5533e-21
1.57444e-21
4.29683e-22
2.23426e-22
5.91475e-21
2.54118e-22
2.2622e-22
1.73439e-24
5.95708e-22
7.32281e-22
8.63284e-21
2.0926e-21
1.27863e-21
1.88082e-21
5.12758e-22
3.26707e-22
1.19335e-22
2.25721e-21
1.28138e-21
2.52242e-21
9.5238e-22
7.14479e-22
1.02779e-21
2.51051e-22
1.02409e-21
3.01602e-23
2.6067e-21
3.71323e-22
3.88066e-21
8.16802e-22
7.98431e-22
4.75055e-22
1.76999e-21
6.00184e-22
1.5246e-21
7.7137e-22
1.33371e-21
1.30105e-21
1.09713e-21
8.4421e-23
5.05157e-21
7.10906e-22
1.78954e-21
1.24735e-21
2.36239e-22
6.01116e-21
9.07674e-22
3.79012e-22
2.76405e-21
6.72214e-22
2.29579e-21
3.57711e-22
7.44876e-22
3.44464e-23
4.98173e-21
2.26286e-21
1.77299e-21
2.49805e-22
9.26047e-23
1.03975e-21
4.51438e-21
5.54652e-23
5.24194e-22
2.11256e-21
4.49576e-22
2.53439e-23
2.69536e-21
3.8647e-21
5.28602e-21
3.59538e-21
2.48015e-21
5.48771e-22
1.89381e-21
3.98511e-22
1.18851e-21
2.70556e-21
1.13318e-21
6.80519e-22
2.5149e-21
6.3206e-22
7.49207e-23
5.73984e-23
1.38142e-21
8.11253e-22
4.98101e-22
6.12604e-22
1.83905e-22
1.71166e-21
4.92206e-22
3.00735e-24
9.89871e-22
1.49048e-21
4.69872e-22
5.02342e-22
8.17598e-22
2.45699e-21
1.19854e-20
1.48709e-21
1.38185e-21
1.12936e-21
1.0143e-21
1.12977e-21
5.89827e-22
2.36604e-21
1.42282e-21
2.08086e-22
5.40349e-21
1.63193e-22
1.39312e-22
1.54951e-21
3.9161e-21
3.5458e-22
1.41601e-21
8.37981e-22
7.1739e-22
3.89201e-22
2.83425e-22
1.82106e-21
2.71617e-21
3.49241e-22
1.0014e-21
3.49387e-21
2.82754e-22
2.02526e-21
2.35821e-21
2.05613e-21
6.8246e-22
3.6118e-22
1.78538e-21
3.89432e-22
2.28571e-21
3.98182e-21
4.68223e-22
2.8541e-21
8.63032e-23
7.1291e-22
5.42303e-22
2.95183e-21
6.95358e-23
3.14977e-23
1.30914e-21
1.59094e-21
2.21158e-21
1.785e-22
6.38437e-21
3.11401e-21
2.96562e-21
1.01964e-21
7.35566e-22
7.32546e-22
7.50872e-22
5.86879e-22
2.68698e-23
1.16204e-21
5.54178e-21
2.83624e-22
2.43776e-21
5.14835e-22
7.08622e-22
1.33259e-21
1.1245e-21
1.63941e-21
4.32619e-21
4.14107e-22
3.08165e-21
1.64679e-21
2.28739e-21
5.50604e-21
8.84954e-22
1.14973e-21
7.37145e-22
6.05455e-21
2.28667e-21
1.17681e-21
3.50833e-21
1.46527e-21
2.75196e-21
7.3222e-22
1.98191e-22
1.03693e-21
6.73433e-22
3.75697e-21
1.41919e-21
2.21371e-21
2.57919e-21
8.62372e-22
1.942e-21
2.9144e-21
2.77401e-22
2.375e-21
1.63157e-21
5.73889e-22
3.90973e-21
1.52509e-22
8.06052e-21
1.8372e-21
8.75957e-22
9.79236e-22
1.67413e-21
3.04839e-21
2.86859e-22
1.92918e-21
2.48413e-21
8.32451e-22
9.51939e-22
9.37276e-22
9.58611e-22
4.81114e-22
9.84509e-22
3.01031e-21
5.39653e-22
3.53907e-21
4.45695e-21
2.15329e-22
1.11764e-21
1.46733e-22
1.92641e-21
1.88134e-21
5.17437e-23
1.50342e-21
1.35724e-21
1.08648e-21
2.23377e-22
2.45424e-22
2.50596e-21
2.21526e-22
2.06727e-21
5.86582e-22
4.75779e-21
2.94532e-22
2.37748e-21
2.39228e-21
4.11074e-21
1.09896e-21
1.10836e-21
3.4975e-21
1.42067e-22
2.35098e-21
1.63033e-21
6.51102e-22
2.55821e-22
1.5479e-21
1.37549e-21
1.37296e-21
3.35998e-21
3.89611e-24
5.70567e-23
7.9202e-22
9.25303e-22
3.0013e-22
2.04795e-21
7.48048e-22
5.70304e-22
2.14181e-21
2.31598e-21
1.53168e-21
1.67211e-22
1.11625e-21
4.56166e-22
2.47627e-21
3.28471e-21
1.09187e-21
2.00801e-21
2.09454e-21
7.45728e-21
3.34219e-21
2.46545e-22
4.43157e-22
2.44015e-21
1.10958e-21
7.74438e-22
7.16041e-22
5.21137e-21
7.45872e-22
1.45086e-21
8.05718e-22
6.56694e-22
1.17858e-21
1.31672e-21
3.40571e-23
2.48235e-21
1.92663e-21
1.82715e-22
7.54858e-21
8.14532e-22
3.00623e-21
4.64974e-22
1.44842e-21
9.86507e-22
2.54722e-22
1.12212e-21
4.67177e-22
1.69027e-21
1.84768e-21
1.92497e-21
4.43049e-21
1.63993e-21
4.06931e-22
1.6545e-21
3.01202e-21
1.92069e-21
9.54245e-22
5.55682e-22
1.25327e-21
5.17855e-23
2.14221e-21
2.33532e-21
1.09054e-20
4.28535e-21
3.33548e-21
2.82909e-21
3.29947e-21
2.64117e-21
6.22161e-22
4.26722e-21
8.65153e-22
2.55386e-21
6.50215e-21
9.10626e-22
9.48161e-22
2.70295e-22
4.7173e-21
3.43409e-21
7.61083e-22
8.68235e-22
1.04969e-21
8.93366e-22
2.21174e-21
1.90481e-21
5.90384e-22
3.03533e-21
1.48211e-20
2.88506e-21
5.51462e-22
2.06762e-21
9.57585e-22
3.82791e-22
9.40227e-22
1.35188e-21
2.51229e-21
1.23186e-21
1.14964e-21
5.88239e-21
1.66897e-21
1.69926e-21
4.90065e-22
4.59634e-21
2.0457e-21
4.29688e-22
9.7695e-22
6.77578e-23
2.40581e-22
8.27629e-22
2.39704e-21
1.63777e-21
3.94557e-21
5.45532e-22
5.25091e-22
2.27631e-21
9.06904e-23
1.65877e-21
2.52543e-24
7.71799e-24
1.78572e-21
4.01779e-21
1.84222e-22
3.11586e-21
6.05497e-21
7.58e-21
2.37031e-21
1.17035e-21
1.90232e-21
2.03479e-22
3.9008e-22
5.89046e-23
9.17804e-22
9.39756e-22
2.12927e-21
8.62804e-22
3.42599e-21
9.79609e-22
1.00781e-21
2.28815e-21
3.45631e-21
3.68711e-21
5.50857e-22
6.0406e-22
1.18402e-21
3.52886e-21
8.01017e-22
1.41478e-21
4.25122e-21
1.56571e-22
8.56783e-21
3.86157e-21
1.31852e-21
1.47258e-22
7.93789e-22
5.99632e-23
1.85314e-22
1.71541e-21
1.30269e-21
9.28528e-22
5.79308e-22
2.21194e-21
5.26872e-23
8.22402e-22
1.08131e-21
2.00816e-21
1.71522e-21
2.0366e-21
4.26644e-22
6.81369e-22
2.18416e-21
2.2365e-21
1.90904e-21
5.06608e-21
3.94841e-21
4.84357e-21
2.41835e-21
8.85646e-22
6.03085e-22
1.91737e-22
1.21271e-21
4.95839e-22
8.82038e-23
1.46036e-21
2.49518e-21
5.13425e-23
3.58617e-22
2.73807e-22
1.12017e-21
4.62891e-22
9.98198e-23
3.46394e-21
1.71243e-21
3.10023e-22
4.82517e-21
8.29096e-21
1.1576e-21
1.1301e-21
2.92596e-21
1.38143e-22
1.29992e-21
1.70865e-21
1.92894e-22
1.99994e-21
5.4406e-22
9.20827e-22
1.52707e-21
5.17805e-22
1.33587e-21
7.6233e-22
1.46516e-21
3.20593e-21
6.50692e-22
7.22021e-22
1.45945e-22
3.25396e-22
1.59992e-21
2.46885e-21
1.11964e-21
1.11227e-21
5.23552e-22
1.11486e-21
4.46911e-22
2.02633e-22
6.61442e-22
7.82474e-22
7.03423e-22
4.50691e-22
1.963e-21
3.02292e-21
8.97167e-22
4.44609e-22
4.7741e-25
8.69515e-22
7.39291e-22
3.12843e-21
9.55193e-22
3.97924e-21
7.42869e-24
3.48453e-21
2.89616e-21
2.61615e-21
1.34383e-21
1.4556e-21
5.8611e-21
1.88027e-21
2.16924e-21
7.14163e-21
3.32708e-21
6.24666e-22
8.23867e-21
2.79274e-21
2.60444e-22
3.29821e-21
3.44209e-21
4.52924e-22
1.83785e-21
5.13905e-22
1.69607e-21
5.79213e-24
5.10395e-21
1.34119e-21
4.95372e-22
4.95932e-22
1.98891e-22
1.15758e-21
1.90665e-21
1.38024e-21
2.93082e-22
1.71271e-21
1.4987e-21
7.68798e-22
2.01764e-21
3.52935e-21
3.20794e-21
8.16697e-22
3.7845e-21
6.60905e-22
1.21954e-21
7.05449e-23
2.80924e-21
1.54044e-21
4.05586e-21
1.97917e-22
1.12426e-21
2.18586e-22
5.94901e-23
7.38194e-22
4.03247e-21
6.88881e-22
2.35276e-21
3.68613e-22
3.2449e-21
9.74996e-22
5.40949e-22
2.65629e-21
3.98708e-22
3.03367e-21
3.66952e-22
3.44438e-21
2.26928e-21
3.06791e-22
1.64031e-21
1.41988e-21
1.67439e-21
1.32818e-21
2.36421e-21
1.86807e-21
2.63467e-21
1.07157e-21
1.6748e-21
3.13598e-21
4.90719e-22
1.49949e-21
9.7883e-22
1.1587e-22
2.95721e-22
7.9599e-22
2.56756e-21
2.1002e-21
6.75618e-22
5.29553e-21
1.80584e-21
6.67844e-22
1.89748e-21
1.8888e-21
5.68756e-22
3.64975e-22
4.75823e-22
3.25219e-21
1.39233e-21
9.61174e-22
9.62531e-22
7.70244e-22
2.43716e-21
1.32423e-21
1.98847e-22
1.9549e-21
2.32e-21
2.96234e-21
8.18169e-23
5.58719e-22
1.3609e-21
2.21995e-21
1.01734e-21
2.44061e-22
2.10117e-21
2.30622e-21
5.76119e-21
7.52509e-21
3.51899e-23
4.09841e-21
2.50899e-21
2.93017e-22
2.29632e-21
4.49158e-22
8.99071e-22
6.8878e-22
1.85913e-21
2.67187e-21
6.50812e-22
3.40828e-21
4.01413e-21
1.55471e-21
7.73413e-24
9.23676e-22
1.71481e-21
2.6795e-21
2.75573e-21
6.82675e-22
8.11808e-23
3.92229e-22
4.38544e-22
6.63171e-22
1.60737e-21
9.46438e-22
6.75133e-22
2.10052e-21
2.11007e-23
6.1077e-22
1.95035e-21
9.3895e-22
3.39618e-21
9.80866e-22
1.99307e-21
2.12564e-21
4.82858e-21
2.59661e-21
2.07553e-21
2.83432e-22
1.8366e-21
1.53647e-21
1.43201e-21
4.85935e-22
1.49185e-21
3.45063e-21
1.7452e-21
4.08416e-22
5.40381e-23
7.79014e-22
4.07398e-21
2.87226e-21
2.316e-21
7.60909e-23
4.75274e-21
6.67468e-22
3.93054e-21
6.97399e-21
6.40059e-21
3.55281e-21
5.3222e-21
3.64811e-21
1.79696e-21
7.65898e-22
4.57263e-23
7.13668e-21
5.22524e-22
9.84073e-22
9.42363e-22
6.43489e-22
4.30031e-22
3.12752e-21
2.6342e-21
1.89738e-21
6.00777e-22
1.65734e-21
2.57032e-21
4.12936e-22
4.07452e-22
7.68884e-22
1.37488e-21
1.17738e-21
2.54221e-22
1.20487e-22
1.69448e-22
2.36669e-21
8.42016e-21
1.87897e-22
9.53274e-22
2.19078e-21
1.79533e-21
2.88059e-21
3.01437e-21
4.34344e-22
8.65321e-22
3.54691e-22
4.04594e-21
2.66504e-22
2.80238e-22
1.57072e-21
2.52939e-23
3.50979e-22
9.13141e-23
2.42856e-21
5.50276e-22
3.33396e-21
4.15901e-22
4.8532e-22
3.29542e-21
1.33908e-21
6.2248e-22
1.29285e-21
2.03309e-21
4.27883e-22
1.33279e-21
3.28103e-22
2.12056e-21
1.1309e-20
1.00839e-21
2.05025e-21
1.82091e-23
4.77489e-21
1.83077e-21
1.08155e-21
3.11033e-21
1.95266e-22
4.00596e-22
2.21735e-21
6.38661e-22
1.70574e-21
8.32703e-22
1.317e-22
4.15115e-21
5.96278e-22
1.01365e-21
1.97406e-21
6.09425e-21
2.15779e-21
6.94061e-22
4.87851e-21
6.02093e-21
3.31341e-21
3.60508e-23
3.38238e-21
4.08104e-21
1.82424e-21
1.94149e-22
2.07387e-22
8.99154e-22
4.05743e-22
2.03774e-21
1.57836e-21
1.59096e-21
1.20961e-22
2.03188e-21
1.581e-21
1.34281e-22
3.18165e-21
4.68807e-21
7.30319e-22
5.45004e-22
5.50006e-22
3.68819e-21
4.44982e-21
2.36856e-21
2.89902e-21
2.58742e-22
4.07628e-21
2.09653e-21
7.04723e-22
1.89549e-21
5.31339e-22
3.48716e-21
4.17255e-21
3.45608e-21
1.93631e-21
6.9628e-22
1.3629e-21
1.75155e-21
3.9827e-21
1.03799e-21
1.83023e-22
1.28193e-21
7.54495e-22
9.96238e-23
6.29358e-22
4.9138e-22
4.27169e-21
3.77974e-22
6.26936e-22
1.73798e-22
1.64482e-21
7.39579e-25
9.82593e-22
4.81505e-21
1.9559e-21
1.87303e-22
9.27522e-23
5.60278e-22
2.63418e-21
3.59419e-22
1.0571e-21
6.05508e-21
1.24901e-21
1.47388e-22
7.68391e-23
3.83559e-22
1.57157e-21
1.84158e-22
1.66414e-21
7.44935e-22
2.19668e-21
9.73033e-22
3.00496e-22
2.58195e-22
2.39967e-21
6.05291e-23
1.14989e-22
3.67234e-23
5.20688e-22
2.19182e-21
2.54676e-21
2.15338e-21
1.70704e-22
2.92361e-21
6.41179e-23
1.80907e-21
3.92575e-21
5.94275e-21
3.43299e-21
4.11528e-21
6.78747e-21
4.96574e-22
9.87449e-23
3.20006e-21
1.04848e-21
4.05746e-21
1.06095e-21
8.45816e-22
1.30671e-21
1.99224e-22
1.71074e-21
6.06036e-21
2.81868e-21
7.15948e-23
1.34343e-21
5.12653e-21
1.07929e-21
4.30143e-22
3.04288e-22
1.0933e-21
1.66145e-21
1.02711e-21
1.50531e-21
1.04859e-21
3.82345e-22
4.88187e-21
6.11054e-22
2.33729e-21
2.61641e-23
1.50383e-21
6.41868e-21
5.28348e-22
6.41223e-22
5.46018e-23
1.36487e-21
1.72915e-22
1.06752e-20
8.44775e-22
3.16236e-22
6.17703e-24
6.84683e-21
3.03112e-21
8.13339e-23
2.18527e-21
3.91611e-22
3.78185e-21
5.56677e-21
1.46557e-21
3.96138e-21
9.65088e-22
3.99236e-22
2.59434e-21
4.94711e-22
5.20557e-22
2.48763e-21
3.81193e-21
8.82926e-22
2.69156e-21
1.10175e-21
4.29294e-21
7.66288e-21
3.84576e-21
2.65474e-22
6.06319e-22
1.05452e-21
1.6105e-21
6.7071e-22
3.45394e-21
4.1567e-22
3.1987e-22
9.26541e-22
2.15255e-21
1.02881e-21
3.46084e-23
2.38589e-21
4.47691e-21
1.56185e-21
2.08685e-21
1.92643e-22
7.15516e-23
2.21828e-21
7.67084e-22
4.59272e-22
1.80853e-21
1.4858e-22
3.57955e-22
4.46399e-22
2.44869e-21
2.22706e-21
7.3396e-22
1.51322e-21
1.13988e-22
3.38547e-21
2.71567e-21
1.21777e-21
1.4788e-21
1.0089e-21
2.56675e-21
7.24865e-22
1.54789e-22
1.49087e-21
1.01051e-21
8.8163e-22
6.41059e-22
2.94004e-23
2.07965e-21
5.65846e-22
1.7549e-22
8.57678e-22
2.01097e-21
8.32827e-23
9.25296e-22
1.50006e-22
8.75651e-22
1.91363e-21
1.4937e-21
5.12387e-23
3.12202e-22
1.40182e-21
3.12356e-21
2.60786e-21
1.03971e-21
4.63341e-21
1.72457e-21
4.47082e-21
1.96099e-21
2.44917e-23
6.02921e-23
1.72411e-21
1.48437e-21
8.30703e-22
3.12243e-22
4.11102e-22
3.19133e-21
2.76478e-22
1.6084e-21
1.10572e-22
1.28546e-21
1.10705e-22
2.11348e-21
3.30517e-21
1.97021e-22
1.16784e-21
1.4668e-21
2.16078e-21
2.73295e-22
4.6411e-21
1.39256e-21
3.36575e-21
1.83809e-21
3.73472e-22
5.5162e-22
1.30324e-21
2.86122e-21
1.46457e-21
2.30859e-21
1.9301e-21
5.13258e-21
1.0925e-21
5.33079e-21
1.15835e-21
5.26011e-21
9.77465e-22
8.23732e-22
7.37845e-22
1.19759e-21
2.93174e-22
6.68877e-21
7.35688e-21
3.69234e-21
6.13361e-21
1.63759e-22
2.44092e-21
2.17812e-21
2.11615e-22
4.44614e-21
3.25583e-21
1.10284e-21
1.01568e-21
1.92448e-22
2.66626e-22
3.84403e-22
5.34217e-24
4.59585e-21
7.46479e-22
1.48362e-21
7.33144e-21
7.12283e-21
1.1339e-21
1.43727e-21
6.08013e-21
1.01359e-21
1.60113e-21
2.14276e-21
4.78488e-21
2.09647e-22
2.86437e-21
1.03614e-21
3.29251e-22
3.70847e-21
1.42484e-21
5.68486e-21
3.01214e-21
1.09035e-21
8.94456e-25
4.22633e-21
5.1817e-22
9.44675e-22
1.58223e-21
2.40614e-22
4.0111e-21
2.42619e-21
7.12679e-23
5.30884e-22
4.24217e-21
1.22987e-21
8.92006e-22
4.48875e-21
1.37896e-21
1.677e-21
1.23033e-21
2.95014e-22
8.42201e-22
2.75465e-22
5.13687e-22
1.32364e-21
8.56589e-22
4.86102e-22
1.01677e-21
6.44474e-21
3.78179e-22
1.45958e-21
1.21219e-21
1.6974e-21
1.13521e-21
3.57337e-22
1.48841e-22
3.66567e-21
3.38977e-22
1.17901e-21
6.13767e-23
1.18328e-21
2.19056e-22
2.71134e-24
7.35667e-23
4.05619e-22
1.23323e-21
3.86284e-22
1.7977e-21
2.02072e-21
2.575e-21
8.44038e-22
1.32932e-21
1.37201e-22
1.37135e-21
3.97386e-21
3.94236e-22
1.52336e-21
3.30159e-21
2.32374e-21
1.32048e-21
3.18251e-21
1.28486e-21
2.56841e-21
2.37995e-21
4.92671e-22
5.93924e-22
3.18829e-21
3.67479e-21
9.00811e-24
1.16196e-21
1.50208e-21
9.82084e-22
2.29596e-22
4.09176e-22
2.1299e-21
2.27383e-22
2.30754e-21
7.42345e-22
2.21247e-21
5.04074e-22
3.21718e-22
4.53205e-22
1.69581e-21
2.66256e-21
6.85029e-22
3.48835e-22
2.00503e-22
4.18776e-23
1.05496e-21
5.46596e-21
2.14658e-21
1.62538e-21
7.54536e-22
2.5965e-21
3.32464e-21
9.58985e-21
5.23814e-22
1.52276e-21
1.45317e-21
2.90433e-21
8.24578e-22
1.23652e-21
1.27951e-21
2.35436e-21
1.41766e-21
4.03747e-22
8.17291e-22
2.28621e-21
2.16581e-21
2.89941e-21
4.95572e-22
1.81162e-21
1.69615e-21
5.52053e-23
1.0947e-21
1.4541e-21
2.32962e-22
3.61391e-21
8.67078e-22
7.82575e-22
4.85349e-22
2.35259e-21
4.28581e-22
9.3963e-21
2.86929e-21
4.60753e-21
1.44246e-21
5.50971e-22
2.91382e-21
2.02815e-21
1.23814e-21
9.1649e-22
3.49971e-22
2.39381e-21
6.68674e-21
2.64519e-21
2.33424e-21
2.98361e-22
5.72614e-21
2.44807e-21
3.75292e-22
1.30978e-22
6.39093e-22
2.72099e-21
2.0021e-21
1.46134e-21
5.34789e-22
9.95735e-22
5.53521e-23
1.66567e-21
7.36811e-23
6.10274e-22
2.72705e-22
5.25038e-21
5.70284e-21
2.01093e-21
9.54058e-22
1.12213e-21
2.86621e-22
4.777e-21
6.18206e-21
1.86599e-21
3.45692e-21
8.04399e-22
5.90267e-22
3.07542e-22
3.77946e-22
1.89675e-21
4.15143e-21
4.19012e-22
6.94452e-22
1.58289e-21
1.57861e-21
3.20646e-21
2.11756e-21
1.39568e-21
2.61821e-21
3.5211e-22
2.13798e-23
1.61798e-22
1.0394e-22
1.49904e-21
1.26674e-21
1.85623e-21
1.2955e-21
9.67131e-22
2.56045e-22
1.90587e-22
1.70687e-21
1.47746e-21
2.70543e-21
2.18998e-21
8.01961e-22
2.36988e-22
1.11367e-21
1.23096e-22
7.3981e-22
2.67318e-21
1.02813e-21
2.9683e-22
1.89172e-22
2.02527e-21
1.98072e-22
1.66101e-21
3.40017e-21
4.62813e-21
1.28723e-21
1.77327e-21
1.84246e-21
1.83555e-21
2.77704e-21
1.48257e-21
1.08227e-21
5.68805e-22
8.70484e-22
2.53577e-21
7.27697e-23
4.94558e-21
6.8225e-22
3.05981e-21
1.86361e-21
4.8033e-21
1.8529e-21
4.34392e-21
7.4101e-22
4.71996e-22
1.47954e-22
7.96459e-22
9.33139e-21
2.44893e-22
4.12304e-21
9.8125e-22
8.71476e-22
3.72235e-22
1.48051e-21
7.00224e-22
7.60773e-22
1.0809e-21
1.25591e-22
8.58105e-22
8.30199e-22
4.2409e-21
6.84929e-22
1.10908e-21
2.66852e-21
8.30996e-22
2.4729e-21
6.41728e-22
1.12087e-21
1.35545e-21
1.92697e-21
3.55344e-21
3.45833e-21
1.01808e-21
2.62356e-21
1.07755e-21
1.58438e-21
3.30543e-22
4.36852e-22
4.40967e-21
4.79138e-22
8.2754e-23
2.58846e-21
7.5391e-22
1.62618e-21
6.82863e-22
9.98155e-23
1.94457e-21
2.22424e-21
4.04594e-23
2.90634e-21
2.48163e-21
1.74799e-21
2.88702e-21
2.4056e-21
8.2116e-22
6.02955e-22
1.76526e-21
5.993e-22
9.94791e-23
1.35737e-22
1.29849e-22
2.30647e-21
9.01839e-22
1.49246e-22
1.88982e-23
2.67791e-21
1.73439e-21
5.63198e-21
1.06531e-21
4.6432e-21
3.12564e-22
2.50477e-21
7.12714e-22
1.05538e-21
1.73333e-22
1.34987e-21
3.12454e-21
1.58045e-21
1.33437e-21
1.18105e-22
7.15529e-21
2.41288e-21
5.27737e-21
2.88909e-21
1.33483e-21
7.91719e-22
5.80782e-21
1.56639e-21
4.4609e-21
1.01491e-21
3.1604e-21
5.43534e-21
3.37741e-22
1.01426e-21
3.58219e-21
2.32224e-21
3.02464e-21
1.97304e-21
4.09663e-21
7.23907e-22
2.09609e-21
1.71612e-21
1.70478e-21
6.33626e-22
1.36306e-21
3.53778e-21
1.39685e-22
2.66541e-21
4.19797e-22
2.39961e-21
2.68437e-21
1.24471e-22
1.15125e-21
1.73549e-21
3.6781e-22
2.78305e-21
2.18086e-21
2.88226e-21
1.30678e-21
7.56019e-22
6.89029e-21
2.61652e-21
3.40071e-21
1.1627e-21
6.12397e-21
2.21616e-21
2.71393e-22
1.05043e-21
2.09265e-22
1.20313e-21
5.70913e-22
2.73453e-22
9.03015e-22
9.92027e-22
3.95579e-22
2.92521e-21
2.54177e-21
1.71712e-21
9.44289e-24
4.06769e-21
1.2609e-21
3.69611e-21
3.0933e-22
5.11855e-21
3.41963e-21
1.34482e-21
5.78062e-22
7.25433e-22
1.15303e-21
9.62839e-22
6.96239e-21
4.0345e-22
9.40438e-22
3.44246e-21
1.84713e-21
2.29587e-21
5.56702e-22
1.30073e-21
1.30083e-23
6.0928e-22
3.73188e-21
1.84131e-21
9.49753e-22
3.01675e-23
2.84525e-21
4.17354e-22
1.24982e-22
4.46321e-23
1.85276e-21
5.96468e-22
2.13017e-21
5.49614e-22
9.45077e-22
1.20151e-21
2.5737e-23
5.57694e-22
1.45214e-21
1.26433e-21
1.74568e-21
9.43786e-22
4.47791e-21
4.58748e-23
3.43419e-21
1.37397e-21
6.41375e-22
6.1586e-22
2.35327e-22
7.8195e-22
6.92938e-22
2.76693e-21
1.73315e-21
3.7671e-22
1.42734e-21
8.99787e-21
2.57768e-21
5.8451e-21
9.77263e-22
7.42354e-22
1.0247e-20
1.90023e-21
1.32381e-21
5.7925e-22
1.16101e-21
7.45808e-22
1.80419e-21
4.19566e-21
2.52468e-22
1.60181e-21
2.9331e-21
3.77714e-22
2.21364e-22
7.77459e-22
2.09068e-21
1.15639e-21
6.08927e-21
4.35647e-22
7.36275e-22
1.77033e-21
9.65641e-22
2.4824e-22
1.71979e-22
4.98306e-22
1.77597e-21
1.99738e-21
3.45542e-21
1.3625e-21
5.621e-22
1.54972e-21
6.40742e-23
3.65053e-21
2.66068e-21
2.41457e-22
1.47388e-21
6.03404e-22
5.94787e-22
1.93572e-21
3.16498e-21
1.06459e-21
2.46408e-22
1.81533e-21
3.41297e-23
8.82049e-22
1.08648e-21
7.09003e-22
1.50147e-22
1.36628e-21
4.05968e-21
1.32585e-21
1.46012e-21
3.05622e-21
3.31503e-22
1.25384e-21
1.48668e-21
1.64519e-21
7.42572e-23
3.1251e-22
3.16255e-24
2.99991e-22
4.07454e-22
3.34968e-22
3.04763e-21
4.11351e-22
4.00794e-21
1.71259e-21
4.43724e-22
4.37608e-21
1.61375e-21
2.21598e-21
1.88164e-21
6.59548e-22
6.79266e-21
1.9209e-21
1.10579e-21
7.25355e-23
1.77363e-21
4.54036e-22
5.73498e-22
1.59617e-21
3.19508e-22
7.13828e-22
2.05773e-22
9.81933e-22
5.28241e-22
3.45059e-21
5.44002e-22
3.44448e-21
5.00289e-22
1.46656e-21
4.81011e-21
2.92728e-21
5.36485e-21
1.78282e-21
7.36907e-22
1.06986e-21
1.76288e-21
3.91562e-22
5.39512e-21
3.07638e-22
8.05745e-22
1.79934e-21
3.31802e-21
1.81141e-21
8.93591e-22
2.21082e-21
2.97314e-21
2.72646e-22
7.15169e-21
9.17885e-23
1.24718e-22
7.97154e-22
1.38282e-22
2.32386e-21
1.64136e-21
4.56332e-22
1.27063e-21
1.79494e-22
1.34792e-22
2.90306e-22
2.65195e-22
1.19207e-21
3.24688e-23
1.42372e-21
1.20931e-21
6.53601e-22
2.53316e-23
1.58121e-21
1.24898e-21
2.2273e-21
1.71732e-21
1.42091e-21
1.13371e-21
1.53781e-22
2.02089e-21
2.72678e-21
2.70509e-21
2.19202e-21
5.44122e-21
1.29528e-21
1.2421e-21
4.0131e-21
1.4969e-22
1.71376e-21
5.78238e-22
9.57655e-22
1.26419e-21
6.57845e-21
2.92755e-21
9.78802e-22
1.62761e-21
7.49102e-22
2.37768e-21
9.19738e-22
2.45917e-22
3.01615e-21
1.58203e-22
5.91907e-22
1.71078e-21
3.75396e-21
2.71704e-21
7.77994e-22
8.74841e-22
7.85064e-21
1.5732e-21
3.09713e-23
1.57199e-21
2.46666e-22
2.07259e-21
3.34293e-22
4.05104e-22
1.0237e-21
2.93891e-21
4.57238e-22
3.09576e-22
1.37581e-21
3.35599e-21
3.27319e-21
3.24738e-22
2.23852e-21
1.81753e-21
1.91081e-22
6.72005e-22
5.5603e-22
5.20526e-23
2.98888e-23
8.39096e-22
5.93169e-23
2.93294e-23
3.66841e-21
4.15167e-23
1.90313e-21
1.46092e-21
1.0793e-21
1.24814e-21
6.46501e-22
1.06074e-24
1.05937e-21
3.01458e-21
5.00268e-21
3.99352e-22
3.02396e-21
1.72609e-21
1.08031e-21
1.92065e-22
6.72295e-22
1.50117e-21
1.03961e-21
2.42708e-21
6.45875e-22
3.74819e-23
3.3569e-21
1.23599e-22
4.66972e-22
4.22684e-21
1.79437e-21
5.29844e-23
1.19402e-21
4.2663e-21
2.70424e-21
2.76845e-22
7.45642e-22
5.17577e-23
1.35195e-21
2.85261e-22
2.85583e-21
9.62614e-22
7.31913e-22
6.3286e-22
4.73151e-23
5.67688e-23
3.51266e-21
1.54649e-21
8.48842e-22
4.62042e-22
1.84799e-21
5.33361e-21
7.87232e-22
2.0701e-24
6.13006e-21
1.1396e-22
5.4856e-22
6.15489e-21
1.33437e-21
4.80574e-21
8.90837e-22
3.7496e-21
1.10749e-21
4.74116e-22
3.46934e-22
5.4598e-22
1.93322e-22
4.19034e-22
3.69854e-21
1.2894e-21
3.47484e-22
1.57692e-21
4.11653e-22
4.03173e-21
2.66631e-21
6.05112e-22
3.99913e-22
1.52766e-21
1.24088e-21
7.07211e-22
3.15695e-22
7.49386e-23
3.01335e-21
5.7276e-22
6.12588e-22
1.7229e-21
3.40096e-21
2.13688e-22
6.28191e-22
1.49398e-21
1.5013e-21
8.10447e-22
1.73638e-21
3.92014e-21
3.92555e-22
1.49973e-21
2.6889e-22
1.74631e-21
4.21255e-21
2.87775e-22
3.2519e-23
1.28062e-22
4.27122e-21
4.02558e-22
4.15097e-22
1.63207e-21
1.45157e-20
2.84267e-21
9.0368e-22
1.51265e-21
1.28059e-21
1.61164e-21
2.2159e-21
1.60402e-21
9.09163e-26
4.18615e-21
1.19255e-21
7.50491e-22
8.6403e-22
1.94703e-21
5.72792e-21
1.59292e-22
1.54326e-21
6.06971e-22
4.44435e-22
3.56191e-21
2.46887e-21
6.39587e-21
2.75163e-21
9.59823e-21
3.06213e-22
1.31038e-21
5.55262e-21
1.60933e-21
3.22855e-21
1.655e-21
2.5453e-22
3.96334e-21
2.95719e-21
1.40001e-21
5.85575e-23
3.24822e-21
3.18751e-21
7.19791e-22
6.19979e-21
1.0279e-21
1.61307e-21
1.1114e-21
2.48777e-21
3.1023e-21
3.53541e-21
4.97127e-21
3.33922e-21
2.09002e-21
7.23681e-22
1.7034e-22
1.21125e-21
2.84815e-21
2.01575e-21
4.30523e-22
2.82196e-22
1.52759e-21
3.33924e-22
1.28221e-22
1.48616e-21
4.25218e-22
3.18883e-21
6.31945e-22
8.97508e-22
8.16219e-22
8.90568e-22
4.67693e-22
2.78204e-21
5.42296e-22
7.78728e-22
1.26316e-21
9.80746e-22
4.02646e-21
5.62933e-21
9.93779e-22
1.02642e-21
3.29344e-21
2.3184e-21
3.57135e-23
2.91176e-21
9.71655e-22
1.07592e-22
2.25344e-21
5.21283e-22
1.93412e-21
3.49531e-21
1.19356e-21
3.13659e-22
4.91952e-21
2.55542e-21
1.35603e-21
2.82705e-21
9.16508e-22
5.45732e-21
1.92474e-21
4.72333e-21
2.72093e-21
6.93732e-22
7.96938e-23
2.14116e-21
3.65463e-21
5.38542e-22
2.74912e-21
3.84204e-21
1.75247e-21
1.21591e-22
3.24193e-22
6.48854e-23
3.99868e-21
8.8194e-22
1.88475e-21
3.74411e-22
5.64623e-23
1.84389e-22
8.47678e-23
1.0504e-21
5.97705e-22
5.09267e-23
7.36703e-22
2.92009e-21
1.22169e-21
4.06503e-23
2.74055e-21
3.22719e-21
5.91821e-21
7.71124e-22
5.20531e-21
3.72901e-22
1.59771e-21
1.88467e-21
6.12611e-21
3.66422e-22
1.15961e-22
2.20588e-21
7.87782e-22
2.00537e-21
1.93001e-21
1.40673e-21
2.17868e-21
2.87438e-21
2.76785e-21
3.86751e-21
2.79995e-21
9.94579e-22
4.69495e-22
6.83886e-21
1.21859e-21
2.77495e-21
1.18352e-21
3.65838e-21
6.88552e-22
3.4665e-22
1.87684e-21
6.02684e-22
7.79389e-21
4.36997e-22
1.56353e-21
3.74319e-21
1.67428e-22
1.45804e-21
2.87899e-21
1.51604e-21
8.07984e-23
1.88088e-21
4.66278e-21
1.27635e-21
3.4552e-22
5.36651e-22
1.21723e-21
2.97127e-23
5.93507e-22
9.08761e-23
9.67221e-22
8.00384e-22
1.15377e-21
1.64464e-21
1.65481e-21
1.53003e-21
2.70359e-22
5.66946e-21
1.86518e-21
2.17298e-21
2.93045e-22
2.90543e-21
1.56075e-22
5.71127e-22
3.31778e-21
1.05346e-20
1.93399e-21
5.08702e-21
1.20866e-21
2.35822e-21
6.27228e-22
3.89462e-21
1.05412e-21
5.38887e-22
7.05972e-22
7.75042e-22
1.74228e-21
1.66838e-21
9.19061e-23
7.33853e-22
1.11387e-22
3.75291e-22
5.24113e-22
1.05007e-21
2.06192e-21
4.06194e-21
1.42756e-21
3.11998e-22
2.5846e-22
3.44681e-21
2.46668e-23
1.10567e-21
2.01555e-21
1.02271e-21
2.68461e-21
4.10768e-22
9.05686e-22
6.91209e-22
1.60323e-22
1.69751e-21
8.61618e-22
3.27374e-21
1.51412e-21
5.1792e-21
5.10474e-23
3.47831e-22
1.82196e-21
2.75407e-21
5.71242e-22
8.29183e-22
1.26713e-21
4.39774e-21
7.4597e-22
1.12318e-21
6.23308e-21
2.75081e-22
7.95036e-22
1.99844e-21
2.54868e-22
8.30999e-21
8.30419e-22
3.61564e-21
1.26944e-21
3.24558e-21
5.43306e-22
2.51704e-22
7.73378e-23
2.17495e-22
4.15258e-21
1.09977e-21
9.74456e-22
4.11412e-22
5.46098e-22
7.48654e-22
1.26753e-21
3.54698e-21
1.93952e-22
3.96196e-21
2.97423e-21
2.46581e-21
1.15635e-21
8.98048e-22
1.48844e-21
6.77708e-22
3.57769e-22
1.21257e-21
9.70147e-22
9.80166e-22
2.50195e-23
1.45442e-21
6.95456e-22
3.05596e-21
6.62536e-22
9.48415e-22
3.26279e-21
5.47972e-22
1.11734e-21
1.99817e-21
4.2686e-21
2.12667e-23
1.22311e-21
3.04541e-21
2.98614e-21
5.04347e-21
2.7545e-21
6.91634e-22
7.70593e-22
2.75742e-21
1.3229e-21
9.8845e-22
1.03221e-20
2.62979e-21
9.23341e-22
2.39703e-21
1.1517e-21
2.68343e-21
1.25342e-21
3.11292e-21
4.75943e-21
4.64444e-23
1.24052e-21
4.48092e-22
7.0888e-23
1.76694e-21
1.63902e-21
5.39563e-21
3.05462e-21
5.16196e-22
3.55618e-21
5.49333e-23
1.14535e-21
2.85611e-22
9.72658e-22
1.1186e-21
1.12464e-21
7.13636e-22
8.80357e-22
2.59694e-21
7.47814e-22
1.45099e-21
1.79359e-21
1.44936e-21
2.50631e-21
1.59833e-21
2.47028e-21
2.83993e-21
4.75413e-21
1.54578e-21
2.85023e-21
1.14927e-21
3.59837e-22
3.46242e-21
1.3126e-24
7.30784e-23
9.50754e-22
1.49177e-21
5.61857e-22
1.92239e-22
2.15455e-21
7.20016e-21
2.44334e-22
1.49479e-22
2.30734e-23
1.2576e-22
7.8584e-22
1.44789e-21
2.1632e-21
1.62293e-21
4.22845e-22
3.52919e-21
1.41437e-22
3.69877e-22
9.06246e-22
1.21814e-21
2.74802e-21
1.73241e-21
1.17254e-21
2.7535e-22
1.55264e-21
7.42389e-21
9.5453e-22
2.05101e-21
1.4118e-21
1.83261e-21
8.5198e-22
3.50137e-21
8.61184e-22
2.8991e-21
2.5196e-21
8.12809e-22
6.97382e-22
1.43088e-22
4.60655e-23
2.4415e-22
6.68517e-22
2.29997e-21
6.30051e-21
1.7743e-21
2.9592e-23
9.40035e-22
1.11779e-21
3.99232e-21
7.7042e-22
5.07925e-22
2.49864e-21
2.054e-22
7.21201e-22
2.1399e-22
2.20143e-21
1.37991e-21
8.49961e-22
4.03738e-22
1.25444e-22
2.95878e-21
1.89168e-21
7.83344e-22
9.90513e-23
4.65843e-21
2.04917e-21
2.98154e-21
4.52007e-22
1.40343e-21
4.62818e-22
1.33853e-21
6.60748e-22
3.55053e-22
6.36849e-22
2.17837e-21
1.33578e-21
7.35367e-22
4.22869e-22
7.08368e-21
6.10714e-22
1.32979e-21
6.68792e-22
1.82988e-21
1.36749e-22
7.29383e-22
1.91101e-21
1.00715e-21
1.35498e-21
5.7658e-21
2.2703e-21
2.44001e-21
6.67496e-22
1.70194e-21
2.6654e-21
1.87001e-21
1.12761e-21
3.87404e-21
2.59745e-21
3.8173e-21
1.0841e-21
1.19803e-21
1.95941e-21
4.33437e-22
1.28849e-21
2.08551e-21
3.11916e-21
2.08359e-21
1.9404e-21
6.51156e-21
2.01072e-21
3.18747e-21
3.01539e-22
3.69425e-21
3.48296e-21
2.80878e-23
1.51195e-21
2.99603e-23
7.0995e-22
8.03051e-22
1.05923e-21
1.34183e-20
5.59744e-22
3.95559e-22
3.37496e-22
2.70148e-22
1.32741e-23
2.88568e-21
1.47086e-21
3.11083e-21
2.35843e-21
6.53281e-22
1.17197e-21
1.58262e-21
3.46697e-22
1.95536e-21
5.64691e-22
1.05853e-21
1.2913e-22
7.7024e-22
2.18541e-22
1.67123e-21
2.57944e-22
2.56387e-21
6.36479e-22
1.58259e-22
1.84354e-21
2.96228e-22
3.56805e-21
1.77942e-21
4.02968e-22
1.14127e-21
1.85142e-21
1.98301e-21
2.40623e-21
1.97822e-21
4.21912e-21
1.56094e-21
2.6938e-21
5.14921e-22
2.9654e-22
7.55789e-21
6.08988e-22
1.8104e-21
2.0104e-21
6.6594e-22
3.98399e-22
1.54302e-21
2.49079e-21
2.51258e-22
1.91134e-21
2.19906e-21
2.55908e-21
2.16371e-21
1.84305e-21
1.45023e-21
3.89343e-22
4.44592e-22
2.86344e-21
7.41826e-23
5.98518e-22
1.26976e-21
9.99338e-22
4.11553e-22
5.26356e-22