/*--------------------------------*- C++ -*----------------------------------*\
  =========                 |
  \\      /  F ield         | OpenFOAM: The Open Source CFD Toolbox
   \\    /   O peration     | Website:  https://openfoam.org
    \\  /    A nd           | Version:  7
     \\/     M anipulation  |
\*---------------------------------------------------------------------------*/
FoamFile
{
    version     2.0;
    format      ascii;
    class       volScalarField;
    location    "0.3";
    object      alpha.water;
}
// * * * * * * * * * * * * * * * * * * * * * * * * * * * * * * * * * * * * * //

dimensions      [0 0 0 0 0 0 0];

internalField   nonuniform List<scalar> 
1935
(
1.4838e-07
1.85984e-07
4.63185e-07
4.07723e-07
2.61158e-07
1.05196e-07
1.54573e-08
1.75979e-09
1.99159e-10
5.71465e-11
1.23469e-11
7.99136e-13
4.21708e-14
2.62256e-15
1.92953e-16
1.51031e-17
1.07588e-18
6.06034e-20
2.81685e-21
1.14739e-22
3.91897e-24
1.10114e-25
2.39434e-27
3.72027e-29
7.38535e-31
1.61655e-32
3.19093e-34
5.68749e-36
9.1717e-38
1.34079e-39
1.78001e-41
2.14851e-43
2.3585e-45
2.35356e-47
2.13295e-49
1.75299e-51
1.30388e-53
8.48593e-56
4.54432e-58
2.15578e-60
9.14798e-63
3.65235e-65
1.69583e-67
4.90873e-05
0.000302071
3.02917e-06
7.16486e-06
8.78011e-07
0.000125949
0.000840399
0.000452145
2.02493e-06
7.6153e-06
0.000930936
0.00251544
2.06919e-06
9.68596e-06
0.000149798
0.00136045
1.36572e-06
6.45843e-06
3.07826e-05
0.000346759
5.30629e-07
2.32069e-06
1.1256e-05
0.000123707
7.64206e-08
3.4198e-07
3.7746e-06
1.67072e-05
9.16276e-09
6.78082e-08
4.72179e-07
1.49895e-06
1.30356e-09
7.50525e-09
3.13273e-08
1.11433e-07
1.51763e-10
5.64414e-10
2.43976e-09
1.02371e-08
3.24551e-11
5.45598e-11
2.31608e-10
1.00903e-09
4.20921e-12
1.02887e-11
2.29247e-11
9.09178e-11
2.40739e-13
1.05639e-12
4.19868e-12
9.31253e-12
1.52213e-14
7.54305e-14
3.96989e-13
1.9994e-12
1.12391e-15
5.81997e-15
3.2042e-14
1.77601e-13
8.46406e-17
4.51496e-16
2.47018e-15
1.22255e-14
6.28024e-18
3.28711e-17
1.76555e-16
8.28917e-16
3.93807e-19
2.15478e-18
1.13891e-17
5.11972e-17
1.91885e-20
1.16632e-19
6.46802e-19
2.851e-18
8.35779e-22
5.43543e-21
3.20864e-20
1.41946e-19
3.08257e-23
2.18768e-22
1.39508e-21
6.30895e-21
9.55725e-25
7.56656e-24
5.33243e-23
2.51284e-22
2.41652e-26
2.22745e-25
1.79303e-24
8.99186e-24
4.58635e-28
5.42091e-27
5.28381e-26
2.8791e-25
7.40811e-30
9.9217e-29
1.34703e-27
8.18738e-27
1.74348e-31
1.58265e-30
2.849e-29
2.04137e-28
3.71867e-33
3.63598e-32
4.5166e-31
4.35327e-30
7.20097e-35
7.62649e-34
7.14136e-33
7.35557e-32
1.26848e-36
1.46369e-35
1.48537e-34
1.24659e-33
2.03646e-38
2.57509e-37
2.84746e-36
2.59279e-35
2.9845e-40
4.15923e-39
5.0382e-38
5.00016e-37
3.99783e-42
6.17549e-41
8.24006e-40
8.9569e-39
4.89898e-44
8.4394e-43
1.24793e-41
1.49407e-40
5.49525e-46
1.06299e-44
1.75385e-43
2.32762e-42
5.64485e-48
1.23589e-46
2.29278e-45
3.39674e-44
5.31235e-50
1.3286e-48
2.79534e-47
4.65785e-46
4.58237e-52
1.32336e-50
3.18822e-49
6.02325e-48
3.62727e-54
1.2251e-52
3.41575e-51
7.37816e-50
2.64563e-56
1.06024e-54
3.45948e-53
8.61429e-52
1.80023e-58
8.68519e-57
3.34917e-55
9.67587e-54
1.18259e-60
6.92207e-59
3.16435e-57
1.06171e-55
8.20983e-63
5.75596e-61
3.07565e-59
1.19156e-57
8.8328e-65
8.26194e-63
5.7571e-61
3.07599e-59
0.46883
0.820418
0.821476
0.820764
0.816253
0.305648
0.0018168
0.000211414
1.65953e-05
3.44658e-06
4.47339e-07
5.65632e-08
6.92703e-09
9.30037e-10
1.51328e-10
4.15216e-11
1.13008e-11
1.55789e-12
1.39189e-13
1.13091e-14
8.59048e-16
5.99174e-17
3.82428e-18
2.23873e-19
1.20342e-20
5.93986e-22
2.68958e-23
1.1152e-24
4.22245e-26
1.45404e-27
4.52914e-29
1.26672e-30
3.14977e-32
6.87062e-34
1.29065e-35
2.03368e-37
2.58387e-39
2.48258e-41
1.5911e-43
1.43015e-45
0.0276055
0.57638
0.82043
0.808112
0.736528
0.37056
0.011446
0.0003002
3.64721e-05
2.6948e-06
4.77729e-07
5.2669e-08
5.63854e-09
6.77788e-10
1.03731e-10
3.10781e-11
7.64482e-12
9.17315e-13
7.58127e-14
5.91053e-15
4.31124e-16
2.88617e-17
1.77282e-18
1.00136e-19
5.20485e-21
2.48898e-22
1.09393e-23
4.41061e-25
1.62675e-26
5.46663e-28
1.66466e-29
4.55984e-31
1.11255e-32
2.38585e-34
4.415e-36
6.86741e-38
8.63274e-40
8.22701e-42
5.25465e-44
3.75545e-46
0.00285006
0.101642
0.373994
0.370189
0.264613
0.193531
0.0428031
0.000396254
4.21625e-05
4.57281e-06
3.93527e-07
4.73538e-08
4.63156e-09
5.03962e-10
7.17276e-11
2.48264e-11
5.08507e-12
4.93787e-13
3.83087e-14
2.86895e-15
1.99637e-16
1.27738e-17
7.52997e-19
4.09475e-20
2.05443e-21
9.50481e-23
4.04991e-24
1.58606e-25
5.6923e-27
1.8646e-28
5.54406e-30
1.48532e-31
3.5505e-33
7.47219e-35
1.35929e-36
2.08206e-38
2.58173e-40
2.43094e-42
1.53825e-44
8.79191e-47
0.00259552
0.0053738
0.0192628
0.0180193
0.0119193
0.0120554
0.0294374
0.00463601
3.71061e-05
3.62191e-06
3.40395e-07
2.94755e-08
3.08786e-09
3.23591e-10
4.49354e-11
1.8188e-11
2.81232e-12
2.19553e-13
1.65416e-14
1.18811e-15
7.88907e-17
4.83883e-18
2.7457e-19
1.44178e-20
7.00376e-22
3.14458e-23
1.30297e-24
4.97137e-26
1.74118e-27
5.57467e-29
1.62249e-30
4.26103e-32
9.99829e-34
2.06833e-35
3.70337e-37
5.59048e-39
6.83972e-41
6.35992e-43
3.97859e-45
1.83482e-47
0.00143057
0.00156318
0.00317515
0.00363095
0.00300207
0.0020623
0.00219207
0.00308499
0.000283397
1.84754e-06
1.59814e-07
1.35771e-08
1.3143e-09
1.61008e-10
4.67431e-11
1.0315e-11
9.94776e-13
7.62704e-14
5.65867e-15
3.90771e-16
2.49947e-17
1.48297e-18
8.16469e-20
4.17036e-21
1.9749e-22
8.66066e-24
3.51113e-25
1.31277e-26
4.51201e-28
1.41946e-29
4.06432e-31
1.05128e-32
2.43217e-34
4.96598e-36
8.78478e-38
1.31137e-39
1.58779e-41
1.46177e-43
9.05749e-46
3.41564e-48
0.00029147
0.000367644
0.00061961
0.000772446
0.000678605
0.000479049
0.00028462
0.000198107
0.000140026
6.55323e-06
1.2877e-07
5.32722e-09
4.32363e-10
1.0957e-10
3.02217e-11
3.42128e-12
2.67629e-13
2.0576e-14
1.48739e-15
9.98338e-17
6.22787e-18
3.61243e-19
1.94803e-20
9.76173e-22
4.54187e-23
1.9596e-24
7.82587e-26
2.88573e-27
9.79257e-29
3.0448e-30
8.62491e-32
2.20908e-33
5.06515e-35
1.02579e-36
1.80123e-38
2.67076e-40
3.21361e-42
2.94084e-44
1.81136e-46
5.69739e-49
4.11169e-05
8.25821e-05
0.000106561
0.00014372
0.000135027
9.90743e-05
5.94249e-05
1.84762e-05
1.89782e-06
1.82825e-06
1.05565e-07
3.48657e-09
2.61534e-10
6.09228e-11
8.63686e-12
7.15665e-13
5.70317e-14
4.32924e-15
3.0662e-16
2.02274e-17
1.2426e-18
7.10645e-20
3.78229e-21
1.87243e-22
8.61462e-24
3.67861e-25
1.45531e-26
5.32076e-28
1.7918e-29
5.53351e-31
1.55814e-32
3.97029e-34
9.06346e-36
1.82878e-37
3.2015e-39
4.73524e-41
5.68581e-43
5.19294e-45
3.19083e-47
9.48503e-50
4.78439e-06
1.03048e-05
1.68176e-05
2.34715e-05
2.35904e-05
1.81121e-05
1.09709e-05
3.76722e-06
3.19823e-07
2.25658e-08
5.22572e-09
8.15665e-10
1.09031e-10
1.60732e-11
1.42185e-12
1.19992e-13
9.69942e-15
7.31209e-16
5.13355e-17
3.35729e-18
2.04494e-19
1.15993e-20
6.12566e-22
3.01055e-23
1.37585e-24
5.83982e-26
2.29803e-27
8.3633e-29
2.80563e-30
8.63801e-32
2.42678e-33
6.17437e-35
1.40842e-36
2.8417e-38
4.97762e-40
7.37046e-42
8.86319e-44
8.1075e-46
4.98625e-48
1.48164e-50
3.88039e-07
1.09998e-06
2.27066e-06
3.38761e-06
3.62601e-06
2.91279e-06
1.79266e-06
6.67104e-07
5.56258e-08
3.44422e-09
2.93994e-10
4.66398e-11
2.01968e-11
2.16315e-12
1.94324e-13
1.6866e-14
1.36661e-15
1.02926e-16
7.20959e-18
4.69882e-19
2.85059e-20
1.61014e-21
8.46833e-23
4.14591e-24
1.88822e-25
7.9911e-27
3.13726e-28
1.13985e-29
3.8202e-31
1.17593e-32
3.30554e-34
8.42142e-36
1.92503e-37
3.89503e-39
6.84652e-41
1.01788e-42
1.22945e-44
1.12965e-46
6.97325e-49
2.07417e-51
3.68089e-08
1.18484e-07
2.67997e-07
4.35125e-07
4.92765e-07
4.13905e-07
2.596e-07
9.90613e-08
8.90151e-09
5.19079e-10
4.49837e-11
1.18084e-11
2.5593e-12
2.46475e-13
2.3088e-14
2.01834e-15
1.64357e-16
1.24268e-17
8.71035e-19
5.67395e-20
3.43823e-21
1.93927e-22
1.01842e-23
4.97938e-25
2.26554e-26
9.58267e-28
3.76208e-29
1.36772e-30
4.58996e-32
1.4158e-33
3.99114e-35
1.02051e-36
2.3431e-38
4.76553e-40
8.42592e-42
1.26079e-43
1.53324e-45
1.4184e-47
8.80718e-50
2.61832e-52
3.75653e-09
1.21123e-08
2.91256e-08
4.93337e-08
5.94293e-08
5.2109e-08
3.36127e-08
1.32425e-08
1.30873e-09
7.76991e-11
8.42093e-12
2.7448e-12
3.03538e-13
2.78188e-14
2.51518e-15
2.13003e-16
1.73484e-17
1.30984e-18
9.21118e-20
6.01803e-21
3.64997e-22
2.05979e-23
1.08224e-24
5.29478e-26
2.41127e-27
1.02128e-28
4.01704e-30
1.46407e-31
4.92908e-33
1.52642e-34
4.32349e-36
1.11166e-37
2.56868e-39
5.26181e-41
9.37676e-43
1.41494e-44
1.73588e-46
1.61989e-48
1.01343e-50
3.01174e-53
3.4889e-10
1.15144e-09
2.86815e-09
5.08979e-09
6.4435e-09
5.92504e-09
3.93472e-09
1.58689e-09
1.77427e-10
1.20199e-11
2.20323e-12
3.6526e-13
3.33068e-14
3.01007e-15
2.63697e-16
2.16084e-17
1.69457e-18
1.24324e-19
8.72073e-21
5.67538e-22
3.4526e-23
1.95497e-24
1.02963e-25
5.04848e-27
2.30485e-28
9.79076e-30
3.86443e-31
1.41425e-32
4.78432e-34
1.48989e-35
4.2471e-37
1.09994e-38
2.56216e-40
5.29509e-42
9.52669e-44
1.45219e-45
1.80025e-47
1.69722e-49
1.07115e-51
3.18076e-54
3.76873e-11
1.07797e-10
2.59798e-10
4.80306e-10
6.46275e-10
6.206e-10
4.21227e-10
1.72024e-10
2.44518e-11
2.31586e-12
3.79203e-13
3.55914e-14
3.36534e-15
3.02193e-16
2.61654e-17
2.10669e-18
1.60772e-19
1.14574e-20
7.77091e-22
4.90072e-23
2.97486e-24
1.67872e-25
8.85308e-27
4.35914e-28
1.99938e-29
8.53145e-31
3.38377e-32
1.24519e-33
4.23874e-35
1.3293e-36
3.8192e-38
9.97764e-40
2.34645e-41
4.89969e-43
8.91316e-45
1.37448e-46
1.72413e-48
1.64417e-50
1.04765e-52
3.10435e-55
9.77391e-12
1.51495e-11
2.92409e-11
5.7124e-11
7.34688e-11
7.1596e-11
4.904e-11
2.0399e-11
3.20176e-12
3.64231e-13
3.81147e-14
3.29962e-15
3.15563e-16
2.82767e-17
2.43055e-18
1.93595e-19
1.45812e-20
1.02149e-21
6.76737e-23
4.16969e-24
2.46045e-25
1.34964e-26
7.04527e-28
3.46618e-29
1.58892e-30
6.80845e-32
2.7183e-33
1.00761e-34
3.45733e-36
1.09342e-37
3.17043e-39
8.36626e-41
1.98902e-42
4.20206e-44
7.73901e-46
1.20882e-47
1.53609e-49
1.48313e-51
9.54527e-54
2.81527e-56
1.51457e-12
4.6158e-12
8.04003e-12
9.08081e-12
7.92353e-12
7.51726e-12
4.82449e-12
1.89867e-12
3.2173e-13
3.66592e-14
3.08737e-15
2.85693e-16
2.75618e-17
2.47445e-18
2.11992e-19
1.6771e-20
1.25113e-21
8.66575e-23
5.67024e-24
3.4469e-25
1.99573e-26
1.07523e-27
5.50156e-29
2.65097e-30
1.19198e-31
5.08844e-33
2.03749e-34
7.58185e-36
2.61461e-37
8.34297e-39
2.44507e-40
6.52678e-42
1.57087e-43
3.36213e-45
6.27693e-47
9.94239e-49
1.28115e-50
1.25325e-52
8.14661e-55
2.38022e-57
1.0096e-13
4.23189e-13
1.02032e-12
1.39731e-12
1.36229e-12
1.21022e-12
6.022e-13
1.70151e-13
2.75604e-14
2.65939e-15
2.42406e-16
2.30347e-17
2.24809e-18
2.02956e-19
1.73961e-20
1.37219e-21
1.01768e-22
6.9941e-24
4.53409e-25
2.7286e-26
1.56399e-27
8.34323e-29
4.21688e-30
2.00627e-31
8.92207e-33
3.76249e-34
1.48911e-35
5.49055e-37
1.88133e-38
6.0318e-40
1.7834e-41
4.80874e-43
1.17053e-44
2.53672e-46
4.80023e-48
7.71245e-50
1.00837e-51
1.00028e-53
6.57335e-56
1.89829e-58
6.11564e-15
2.53486e-14
6.66183e-14
1.10876e-13
1.22463e-13
1.11707e-13
5.27992e-14
1.31749e-14
2.10975e-15
1.92668e-16
1.7767e-17
1.73335e-18
1.71656e-19
1.56345e-20
1.34535e-21
1.06183e-22
7.85679e-24
5.37647e-25
3.46459e-26
2.07078e-27
1.17814e-28
6.23761e-30
3.13077e-31
1.48026e-32
6.54838e-34
2.74458e-35
1.08045e-36
3.9701e-38
1.35864e-39
4.35086e-41
1.28713e-42
3.48184e-44
8.52551e-46
1.86329e-47
3.56434e-49
5.80141e-51
7.69665e-53
7.7537e-55
5.16814e-57
1.48623e-59
3.49405e-16
1.4868e-15
4.00822e-15
6.82039e-15
7.64268e-15
7.18137e-15
3.48843e-15
8.77087e-16
1.50681e-16
1.47059e-17
1.20908e-18
1.2208e-19
1.23003e-20
1.13353e-21
9.82246e-23
7.78184e-24
5.76334e-25
3.93966e-26
2.53158e-27
1.50746e-28
8.53736e-30
4.4986e-31
2.24767e-32
1.05831e-33
4.66596e-35
1.95156e-36
7.67678e-38
2.82268e-39
9.68146e-41
3.10883e-42
9.23703e-44
2.51481e-45
6.20998e-47
1.37143e-48
2.65573e-50
4.38246e-52
5.90136e-54
6.0365e-56
4.07932e-58
1.16593e-60
1.81607e-17
8.06305e-17
2.27182e-16
4.032e-16
4.65014e-16
4.45097e-16
2.17985e-16
5.43302e-17
1.00201e-17
1.01818e-18
8.24341e-20
8.06778e-21
8.29253e-22
7.75167e-23
6.78278e-24
5.40945e-25
4.02177e-26
2.7543e-27
1.77008e-28
1.05307e-29
5.95325e-31
3.1304e-32
1.56081e-33
7.33557e-35
3.23037e-36
1.35079e-37
5.31783e-39
1.95941e-40
6.74454e-42
2.17729e-43
6.51454e-45
1.78899e-46
4.4633e-48
9.97448e-50
1.95736e-51
3.2771e-53
4.4807e-55
4.65395e-57
3.1883e-59
9.03409e-62
8.50306e-19
4.00291e-18
1.18416e-17
2.20758e-17
2.65098e-17
2.57349e-17
1.28113e-17
3.17927e-18
6.20945e-19
6.46488e-20
5.40112e-21
5.01474e-22
5.27372e-23
5.01158e-24
4.4387e-25
3.57265e-26
2.67343e-27
1.83918e-28
1.18524e-29
7.06339e-31
3.99614e-32
2.10207e-33
1.04837e-34
4.92913e-36
2.17267e-37
9.10021e-39
3.59182e-40
1.32837e-41
4.59553e-43
1.49318e-44
4.50328e-46
1.24844e-47
3.14914e-49
7.12582e-51
1.41773e-52
2.40914e-54
3.34549e-56
3.52921e-58
2.45177e-60
6.87881e-63
3.56014e-20
1.81874e-19
5.68541e-19
1.11745e-18
1.40281e-18
1.38312e-18
7.0464e-19
1.75985e-19
3.5934e-20
3.85623e-21
3.30875e-22
2.97866e-23
3.17238e-24
3.07058e-25
2.75854e-26
2.24582e-27
1.69543e-28
1.17445e-29
7.60774e-31
4.55235e-32
2.58347e-33
1.36254e-34
6.81197e-36
3.21071e-37
1.4193e-38
5.96546e-40
2.36458e-41
8.79104e-43
3.06094e-44
1.00225e-45
3.05005e-47
8.54405e-49
2.18075e-50
4.99964e-52
1.00902e-53
1.74092e-55
2.45603e-57
2.6319e-59
1.85439e-61
5.14528e-64
1.44635e-21
7.47563e-21
2.51493e-20
5.2392e-20
6.9122e-20
6.91637e-20
3.63269e-20
9.17224e-21
1.946e-21
2.15638e-22
1.9034e-23
1.74472e-24
1.81001e-25
1.78745e-26
1.63169e-27
1.34629e-28
1.02745e-29
7.18173e-31
4.68625e-32
2.82166e-33
1.60963e-34
8.52919e-36
4.28296e-37
2.02753e-38
9.00464e-40
3.8043e-41
1.51673e-42
5.67672e-44
1.9919e-45
6.58009e-47
2.02265e-48
5.73029e-50
1.481e-51
3.44221e-53
7.05021e-55
1.23549e-56
1.77112e-58
1.92824e-60
1.37805e-62
3.77689e-65
5.52726e-23
2.78797e-22
1.02649e-21
2.27917e-21
3.17598e-21
3.22497e-21
1.75889e-21
4.50324e-22
9.8817e-23
1.13266e-23
1.03037e-24
9.71052e-26
9.81678e-27
9.91184e-28
9.20726e-29
7.71165e-30
5.96025e-31
4.21164e-32
2.77362e-33
1.68365e-34
9.67282e-36
5.15908e-37
2.60676e-38
1.24156e-39
5.54884e-41
2.36001e-42
9.47744e-44
3.5756e-45
1.26587e-46
4.22332e-48
1.31251e-49
3.7636e-51
9.85621e-53
2.32366e-54
4.83195e-56
8.603e-58
1.25342e-59
1.38654e-61
1.00514e-63
2.71815e-66
1.92691e-24
9.44068e-24
3.86971e-23
9.21022e-23
1.36317e-22
1.40496e-22
8.01354e-23
2.08838e-23
4.71436e-24
5.59908e-25
5.25835e-26
5.09362e-27
5.17072e-28
5.24929e-29
4.96795e-30
4.22961e-31
3.31565e-32
2.37231e-33
1.5794e-34
9.68177e-36
5.61138e-37
3.01751e-38
1.53664e-39
7.37487e-41
3.32175e-42
1.42425e-43
5.76853e-45
2.19639e-46
7.85387e-48
2.6489e-49
8.32989e-51
2.41933e-52
6.42373e-54
1.53689e-55
3.24588e-57
5.873e-59
8.69784e-61
9.77691e-63
7.1892e-65
1.91632e-67
6.12999e-26
3.13477e-25
1.33217e-24
3.46284e-24
5.47497e-24
5.72794e-24
3.44186e-24
9.16752e-25
2.11724e-25
2.60986e-26
2.5346e-27
2.52825e-28
2.62947e-29
2.6621e-30
2.56918e-31
2.22588e-32
1.77203e-33
1.28554e-34
8.6649e-36
5.37185e-37
3.14557e-38
1.70796e-39
8.7785e-41
4.25135e-42
1.93237e-43
8.36291e-45
3.42016e-46
1.31565e-47
4.75629e-49
1.62308e-50
5.16848e-52
1.52143e-53
4.09787e-55
9.95369e-57
2.13576e-58
3.92799e-60
5.91396e-62
6.75519e-64
5.03827e-66
1.32255e-68
1.78374e-27
9.82227e-27
4.21801e-26
1.21315e-25
2.06025e-25
2.1895e-25
1.39633e-25
3.83136e-26
8.96848e-27
1.14934e-27
1.15611e-28
1.18952e-29
1.2712e-30
1.29612e-31
1.27637e-32
1.12627e-33
9.11531e-35
6.71279e-36
4.58645e-37
2.87933e-38
1.70567e-39
9.36354e-41
4.86356e-42
2.3797e-43
1.09283e-44
4.77911e-46
1.97559e-47
7.68515e-49
2.8113e-50
9.71397e-52
3.13442e-53
9.3567e-55
2.55766e-56
6.3095e-58
1.37579e-59
2.57236e-61
3.93759e-63
4.57044e-65
3.45722e-67
8.93021e-70
4.73918e-29
2.84012e-28
1.23233e-27
3.96595e-27
7.27307e-27
7.86093e-27
5.36075e-27
1.53045e-27
3.59047e-28
4.79157e-29
4.99991e-30
5.31482e-31
5.84263e-32
6.07276e-33
6.10466e-34
5.49014e-35
4.52116e-36
3.38315e-37
2.34561e-38
1.49281e-39
8.95641e-41
4.97664e-42
2.61523e-43
1.29423e-44
6.01115e-46
2.65896e-47
1.11204e-48
4.37826e-50
1.62185e-51
5.67817e-53
1.85762e-54
5.62611e-56
1.56139e-57
3.91307e-59
8.67265e-61
1.64872e-62
2.56598e-64
3.02644e-66
2.32152e-68
5.8968e-71
1.14571e-30
7.57538e-30
3.40373e-29
1.20638e-28
2.41245e-28
2.65487e-28
1.95105e-28
5.8376e-29
1.36142e-29
1.89493e-30
2.05429e-31
2.25945e-32
2.55943e-33
2.74382e-34
2.81655e-35
2.58309e-36
2.166e-37
1.64826e-38
1.1607e-39
7.49574e-41
4.55931e-42
2.56679e-43
1.36599e-44
6.84383e-46
3.21779e-47
1.44093e-48
6.10179e-50
2.43325e-51
9.13341e-53
3.24184e-54
1.07583e-55
3.30718e-57
9.32143e-59
2.37382e-60
5.34844e-62
1.03388e-63
1.63601e-65
1.96059e-67
1.52485e-69
3.80655e-72
2.49388e-32
1.86657e-31
9.11941e-31
3.40908e-30
7.53069e-30
8.44549e-30
6.74434e-30
2.12536e-30
4.90001e-31
7.12389e-32
8.03517e-33
9.15753e-34
1.0709e-34
1.19767e-35
1.2558e-36
1.17505e-37
1.00393e-38
7.77458e-40
5.56511e-41
3.64982e-42
2.2526e-43
1.28599e-44
6.93663e-46
3.52138e-47
1.67737e-48
7.60977e-50
3.26508e-51
1.31961e-52
5.02198e-54
1.80803e-55
6.08894e-57
1.9005e-58
5.44164e-60
1.40842e-61
3.2263e-63
6.34177e-65
1.02028e-66
1.24223e-68
9.79399e-71
2.40167e-73
4.83577e-34
4.25222e-33
2.29107e-32
9.02308e-32
2.21598e-31
2.53272e-31
2.21933e-31
7.39091e-32
1.67787e-32
2.55159e-33
2.99841e-34
3.5459e-35
4.29731e-36
5.05796e-37
5.4194e-38
5.17617e-39
4.50854e-40
3.55544e-41
2.5888e-42
1.72549e-43
1.08139e-44
6.26502e-46
3.42775e-47
1.76442e-48
8.52069e-50
3.91882e-51
1.7047e-52
6.98641e-54
2.69697e-55
9.85284e-57
3.36845e-58
1.0678e-59
3.10652e-61
8.17281e-63
1.90354e-64
3.80478e-66
6.22306e-68
7.69679e-70
6.15021e-72
1.48088e-74
8.2386e-36
8.95147e-35
5.37724e-34
2.22833e-33
6.0714e-33
7.39544e-33
6.8364e-33
2.45749e-33
5.47906e-34
8.7271e-35
1.06983e-35
1.31531e-36
1.71259e-37
2.06895e-38
2.26665e-39
2.21103e-40
1.96452e-41
1.57855e-42
1.16991e-43
7.92981e-45
5.04983e-46
2.97094e-47
1.64983e-48
8.61655e-50
4.22106e-51
1.96916e-52
8.68893e-54
3.6127e-55
1.41521e-56
5.24816e-58
1.82193e-59
5.86697e-61
1.73455e-62
4.63891e-64
1.09859e-65
2.23278e-67
3.71229e-69
4.66339e-71
3.77568e-73
8.92405e-76
1.18624e-37
1.73933e-36
1.18027e-35
5.1619e-35
1.56292e-34
2.07726e-34
1.98979e-34
7.82056e-35
1.71053e-35
2.85717e-36
3.659e-37
4.7563e-38
6.64032e-39
8.20589e-40
9.19849e-41
9.16952e-42
8.31587e-43
6.8126e-44
5.14233e-45
3.54672e-46
2.29642e-47
1.37278e-48
7.74202e-50
4.10478e-51
2.04089e-52
9.66201e-54
4.32649e-55
1.82569e-56
7.25986e-58
2.73361e-59
9.63857e-61
3.15346e-62
9.4753e-64
2.57614e-65
6.20308e-67
1.28183e-68
2.16616e-70
2.76327e-72
2.26624e-74
5.25658e-77
1.41876e-39
3.1103e-38
2.42678e-37
1.12532e-36
3.80588e-36
5.57146e-36
5.5127e-36
2.38483e-36
5.122e-37
8.97647e-38
1.20373e-38
1.73889e-39
2.49342e-40
3.15843e-41
3.62558e-42
3.69602e-43
3.42361e-44
2.86127e-45
2.20102e-46
1.54559e-47
1.01806e-48
6.18714e-50
3.54549e-51
1.90927e-52
9.63905e-54
4.63289e-55
2.10603e-56
9.02248e-58
3.64298e-59
1.39311e-60
4.98981e-62
1.65882e-63
5.06594e-65
1.40018e-66
3.42782e-68
7.20116e-70
1.23669e-71
1.60168e-73
1.33018e-75
3.02733e-78
2.42956e-41
5.07476e-40
4.68335e-39
2.40337e-38
8.7448e-38
1.42705e-37
1.45902e-37
6.98623e-38
1.61096e-38
2.7165e-39
4.01662e-40
6.17758e-41
9.08184e-42
1.18063e-42
1.38917e-43
1.44941e-44
1.37229e-45
1.17077e-46
9.18371e-48
6.56956e-49
4.40461e-50
2.72276e-51
1.58611e-52
8.67909e-54
4.45093e-55
2.17268e-56
1.00298e-57
4.36356e-59
1.78937e-60
6.95057e-62
2.52928e-63
8.54444e-65
2.65219e-66
7.45179e-68
1.8546e-69
3.9604e-71
6.9106e-73
9.08459e-75
7.6375e-77
1.70528e-79
3.92238e-43
7.53651e-42
8.50597e-41
4.88683e-40
1.91308e-39
3.49322e-39
3.70248e-39
1.9667e-39
4.96463e-40
8.56106e-41
1.34582e-41
2.12313e-42
3.21084e-43
4.28925e-44
5.17876e-45
5.53516e-46
5.36076e-47
4.67199e-48
3.7394e-49
2.72655e-50
1.86168e-51
1.17112e-52
6.93835e-54
3.85941e-55
2.01125e-56
9.97416e-58
4.67714e-59
2.06688e-60
8.60955e-62
3.39743e-63
1.25614e-64
4.31231e-66
1.36045e-67
3.88544e-69
9.8296e-71
2.13334e-72
3.7815e-74
5.0445e-76
4.29158e-78
9.4001e-81
5.98848e-45
1.00609e-43
1.45814e-42
9.45764e-42
4.00168e-41
8.18299e-41
9.03862e-41
5.32912e-41
1.46965e-41
2.68937e-42
4.36467e-43
7.07544e-44
1.10265e-44
1.51571e-45
1.88001e-46
2.06038e-47
2.0429e-48
1.82005e-49
1.48737e-50
1.10604e-51
7.695e-53
4.92835e-54
2.9708e-55
1.68046e-56
8.90201e-58
4.48631e-59
2.13749e-60
9.59652e-62
4.06114e-63
1.62821e-64
6.11689e-66
2.13396e-67
6.84212e-69
1.98612e-70
5.10675e-72
1.12622e-73
2.02748e-75
2.74383e-77
2.36128e-79
5.07374e-82
8.67791e-47
1.17863e-45
2.36803e-44
1.7471e-43
8.03156e-43
1.83891e-42
2.12885e-42
1.39267e-42
4.1917e-43
8.1475e-44
1.36886e-44
2.28834e-45
3.68119e-46
5.21419e-47
6.65177e-48
7.48235e-49
7.60176e-50
6.92843e-51
5.78488e-52
4.38972e-53
3.11351e-54
2.03116e-55
1.24626e-56
7.17161e-58
3.86301e-59
1.97895e-60
9.58207e-62
4.37136e-63
1.87963e-64
7.65702e-66
2.92295e-67
1.03621e-68
3.37637e-70
9.96023e-72
2.60243e-73
5.8307e-75
1.06581e-76
1.46285e-78
1.27297e-80
2.68339e-83
1.19901e-48
1.55934e-47
3.65639e-46
3.09264e-45
1.55254e-44
3.9756e-44
4.85122e-44
3.51753e-44
1.15441e-44
2.3836e-45
4.16075e-46
7.18936e-47
1.19581e-47
1.74772e-48
2.29581e-49
2.65329e-50
2.76449e-51
2.5796e-52
2.20205e-53
1.70616e-54
1.23435e-55
8.20608e-57
5.12715e-58
3.00256e-59
1.64508e-60
8.56873e-62
4.21736e-63
1.95531e-64
8.54358e-66
3.53651e-67
1.37177e-68
4.94147e-70
1.6361e-71
4.90421e-73
1.30187e-74
2.96259e-76
5.49719e-78
7.64987e-80
6.72873e-82
1.39164e-84
1.58869e-50
2.3097e-49
5.41261e-48
5.27377e-47
2.90284e-46
8.29476e-46
1.07261e-45
8.60553e-46
3.07526e-46
6.74958e-47
1.22705e-47
2.19618e-48
3.78284e-49
5.71233e-50
7.73534e-51
9.19411e-52
9.83282e-53
9.40086e-54
8.21031e-55
6.4993e-56
4.79877e-57
3.25267e-58
2.07033e-59
1.23432e-60
6.88089e-62
3.64513e-63
1.82403e-64
8.59596e-66
3.81711e-67
1.60561e-68
6.32829e-70
2.31624e-71
7.79183e-73
2.3728e-74
6.39807e-76
1.47844e-77
2.78392e-79
3.92669e-81
3.48986e-83
7.08246e-86
2.03414e-52
3.31662e-51
7.77729e-50
8.7219e-49
5.27681e-48
1.67618e-47
2.30723e-47
2.04372e-47
7.93611e-48
1.85192e-48
3.51371e-49
6.52713e-50
1.16596e-50
1.82139e-51
2.54537e-52
3.11452e-53
3.42201e-54
3.35484e-55
2.9998e-56
2.42771e-57
1.83044e-58
1.26563e-59
8.21045e-61
4.98542e-62
2.82877e-63
1.52453e-64
7.75811e-66
3.71699e-67
1.67767e-68
7.17157e-70
2.87215e-71
1.06808e-72
3.65012e-74
1.12904e-75
3.09155e-77
7.2518e-79
1.38527e-80
1.97973e-82
1.77716e-84
3.53964e-87
2.54507e-54
4.65483e-53
1.10257e-51
1.41084e-50
9.3839e-50
3.28457e-49
4.85924e-49
4.69881e-49
1.98432e-49
4.92473e-50
9.76948e-51
1.88709e-51
3.50067e-52
5.66384e-53
8.17714e-54
1.03106e-54
1.16492e-55
1.17207e-56
1.07384e-57
8.89098e-59
6.84996e-60
4.8343e-61
3.19808e-62
1.97871e-63
1.14326e-64
6.27069e-66
3.24623e-67
1.58163e-68
7.25743e-70
3.15325e-71
1.28331e-72
4.84873e-74
1.68323e-75
5.28751e-77
1.46987e-78
3.4987e-80
6.77708e-82
9.80915e-84
8.89059e-86
1.66875e-88
3.26383e-56
6.73789e-55
1.57772e-53
2.26242e-52
1.5644e-51
5.72195e-51
8.67832e-51
8.97747e-51
4.11246e-51
1.12042e-51
2.36779e-52
4.80478e-53
9.43004e-54
1.6025e-54
2.42252e-55
3.17766e-56
3.72468e-57
3.8724e-58
3.65921e-59
3.11445e-60
2.46421e-61
1.7819e-62
1.20647e-63
7.63241e-65
4.50285e-66
2.52049e-67
1.33089e-68
6.61037e-70
3.09043e-71
1.36612e-72
5.65146e-74
2.16989e-75
7.65246e-77
2.44115e-78
6.88804e-80
1.66305e-81
3.26445e-83
4.7813e-85
4.37205e-87
7.69413e-90
1.19172e-57
3.26422e-56
6.73866e-55
9.3747e-54
9.3094e-53
5.53484e-52
2.08434e-51
2.63516e-51
6.89155e-52
1.40957e-52
2.77239e-53
5.22806e-54
8.62068e-55
1.26407e-55
1.62483e-56
1.88529e-57
1.94276e-58
1.82018e-59
1.53926e-60
1.20977e-61
8.71009e-63
5.87002e-64
3.701e-65
2.17911e-66
1.21682e-67
6.41841e-69
3.1881e-70
1.49182e-71
6.61133e-73
2.90593e-74
1.22858e-75
4.81835e-77
1.7348e-78
5.64649e-80
1.62451e-81
3.9959e-83
7.98258e-85
1.18822e-86
1.10181e-88
7.42251e-90
)
;

boundaryField
{
    leftWall
    {
        type            zeroGradient;
    }
    rightWall
    {
        type            zeroGradient;
    }
    lowerWall
    {
        type            zeroGradient;
    }
    atmosphere
    {
        type            inletOutlet;
        inletValue      uniform 0;
        value           nonuniform List<scalar> 
45
(
1.69583e-67
8.8328e-65
8.26194e-63
5.7571e-61
3.07599e-59
1.19172e-57
3.26422e-56
6.73866e-55
9.3747e-54
9.3094e-53
5.53484e-52
2.08434e-51
2.63516e-51
6.89155e-52
1.40957e-52
2.77239e-53
5.22806e-54
8.62068e-55
1.26407e-55
1.62483e-56
1.88529e-57
1.94276e-58
1.82018e-59
1.53926e-60
1.20977e-61
8.71009e-63
5.87002e-64
3.701e-65
2.17911e-66
1.21682e-67
6.41841e-69
3.1881e-70
1.49182e-71
6.61133e-73
2.90593e-74
1.22858e-75
4.81835e-77
1.7348e-78
5.64649e-80
1.62451e-81
3.9959e-83
7.98258e-85
1.18822e-86
1.10181e-88
7.42251e-90
)
;
    }
    defaultFaces
    {
        type            empty;
    }
    procBoundary3to1
    {
        type            processor;
        value           nonuniform List<scalar> 
45
(
4.79134e-08
5.47202e-05
0.000174921
-4.24569e-10
0.02443
0.769067
0.821476
0.821822
0.823093
0.619788
0.0686739
0.000880753
0.000114624
2.10474e-05
3.47612e-06
5.38071e-07
7.99474e-08
1.10853e-08
1.56303e-09
2.56163e-10
5.60941e-11
1.75711e-11
2.71488e-12
2.53925e-13
2.14015e-14
1.67708e-15
1.20726e-16
7.94594e-18
4.78944e-19
2.64697e-20
1.3413e-21
6.22581e-23
2.64208e-24
1.02219e-25
3.59076e-27
1.13896e-28
3.23794e-30
8.16851e-32
1.80417e-33
3.42448e-35
5.43979e-37
6.94983e-39
6.69417e-41
4.27358e-43
4.98229e-45
)
;
    }
    procBoundary3to2
    {
        type            processor;
        value           nonuniform List<scalar> 
43
(
2.75813e-08
6.24289e-08
7.9454e-08
6.91987e-08
4.5577e-08
1.9069e-08
2.63397e-09
2.51158e-10
2.3102e-11
2.1211e-12
1.65506e-13
1.27791e-14
1.00672e-15
8.00597e-17
6.08057e-18
4.14889e-19
2.47118e-20
1.28243e-21
5.81761e-23
2.31288e-24
8.06863e-26
2.47266e-27
6.68732e-29
1.60991e-30
3.45911e-32
6.64416e-34
1.14223e-35
1.76087e-37
2.44166e-39
3.05685e-41
3.46465e-43
3.55609e-45
3.30029e-47
2.76313e-49
2.08176e-51
1.40671e-53
8.4861e-56
4.5444e-58
2.15582e-60
9.14815e-63
3.65235e-65
1.69583e-67
1.25422e-69
)
;
    }
}


// ************************************************************************* //
