/*--------------------------------*- C++ -*----------------------------------*\
  =========                 |
  \\      /  F ield         | OpenFOAM: The Open Source CFD Toolbox
   \\    /   O peration     | Website:  https://openfoam.org
    \\  /    A nd           | Version:  7
     \\/     M anipulation  |
\*---------------------------------------------------------------------------*/
FoamFile
{
    version     2.0;
    format      ascii;
    class       volScalarField;
    location    "0.3";
    object      p_rgh;
}
// * * * * * * * * * * * * * * * * * * * * * * * * * * * * * * * * * * * * * //

dimensions      [1 -1 -2 0 0 0 0];

internalField   nonuniform List<scalar> 
1935
(
-4.28325
-4.04418
-3.77834
-3.45489
-3.0929
-2.72522
-2.38149
-2.07614
-1.81165
-1.58506
-1.39096
-1.22395
-1.07963
-0.954333
-0.845122
-0.749782
-0.666543
-0.593795
-0.530056
-0.474015
-0.424568
-0.380764
-0.341748
-0.306796
-0.275365
-0.247021
-0.221355
-0.197964
-0.176453
-0.156466
-0.137762
-0.120224
-0.10382
-0.0885644
-0.0744915
-0.0616105
-0.0498778
-0.0391909
-0.0293824
-0.0202394
-0.0113999
-0.00130209
0.00940021
-4.30214
-3.7564
-4.15945
-4.14132
-4.18346
-3.97972
-2.26095
-2.31094
-3.93086
-4.00931
-1.73236
2.58459
-3.59108
-3.67221
-3.32797
-0.171191
-3.18293
-3.23866
-3.1746
-2.28178
-2.75673
-2.75904
-2.68711
-2.26861
-2.36157
-2.31226
-2.20611
-2.01021
-2.02006
-1.93616
-1.81211
-1.63855
-1.7337
-1.63101
-1.49618
-1.32597
-1.496
-1.38586
-1.24948
-1.08606
-1.29806
-1.18791
-1.05654
-0.904442
-1.13182
-1.02579
-0.902903
-0.76423
-0.99081
-0.890964
-0.777884
-0.652884
-0.870107
-0.777289
-0.674155
-0.562083
-0.766104
-0.680511
-0.586907
-0.486578
-0.676259
-0.59774
-0.512954
-0.422979
-0.598548
-0.526716
-0.449837
-0.36882
-0.531091
-0.465364
-0.395454
-0.32223
-0.472207
-0.411948
-0.348241
-0.281972
-0.420593
-0.365294
-0.307251
-0.24731
-0.375285
-0.324611
-0.271808
-0.217589
-0.335442
-0.289122
-0.241106
-0.191943
-0.300194
-0.257902
-0.214158
-0.16939
-0.268721
-0.23005
-0.19007
-0.149159
-0.240409
-0.204948
-0.16832
-0.130903
-0.214867
-0.182297
-0.148744
-0.11459
-0.191803
-0.161936
-0.131287
-0.100214
-0.170908
-0.143635
-0.115749
-0.0875599
-0.151811
-0.127029
-0.101743
-0.0762059
-0.134129
-0.1117
-0.0888221
-0.0657001
-0.117576
-0.0973283
-0.0766633
-0.0557552
-0.102022
-0.0837865
-0.0651724
-0.0463349
-0.0874683
-0.0711209
-0.0544511
-0.0375999
-0.0739864
-0.0594602
-0.0446805
-0.0297717
-0.0616517
-0.0489193
-0.0360037
-0.0230066
-0.0504905
-0.0395342
-0.0284577
-0.0173326
-0.0404559
-0.0312464
-0.0219678
-0.0126581
-0.0314349
-0.023927
-0.0163888
-0.00882502
-0.0232652
-0.0174136
-0.0115569
-0.0056705
-0.0157704
-0.0115574
-0.00734147
-0.00307773
-0.00876612
-0.0062481
-0.00367244
-0.00099757
-0.0015092
-0.00107269
-0.000305552
0.000707773
0.0057825
0.00389713
0.00276322
0.00205361
1102.11
1932.06
1932.1
1929.33
1919.83
719.797
6.42572
2.60304
2.1932
2.17993
2.16546
2.14914
2.12919
2.10448
2.07528
2.04265
2.00811
1.9734
1.94007
1.90911
1.88093
1.85553
1.83276
1.81251
1.79473
1.77942
1.76645
1.7556
1.74655
1.73892
1.73244
1.72692
1.72231
1.71862
1.71591
1.71419
1.71349
1.71384
1.71516
1.71686
65.5209
1395.59
1983.87
1952.05
1781.58
896.996
29.4997
2.71902
2.16219
2.11216
2.10459
2.08933
2.06969
2.04519
2.01629
1.98434
1.95105
1.9181
1.88686
1.85814
1.83222
1.809
1.78829
1.76991
1.75377
1.73984
1.72801
1.71809
1.70981
1.70284
1.69695
1.69195
1.6878
1.6845
1.68208
1.68058
1.67999
1.68038
1.68168
1.68331
4.12272
249.648
924.877
916.579
658.103
483.638
108.205
2.94679
2.09522
2.05443
2.04578
2.02873
2.00718
1.98147
1.95233
1.92118
1.88954
1.85883
1.83013
1.80401
1.78063
1.75984
1.74137
1.72503
1.71069
1.69829
1.68772
1.67882
1.67137
1.66511
1.65982
1.65539
1.65173
1.64885
1.64676
1.64548
1.64503
1.64546
1.64671
1.64826
3.13887
9.73822
44.5671
43.6418
30.0901
31.9341
77.3537
13.9126
2.09609
2.01271
1.98928
1.96501
1.9392
1.91146
1.88222
1.85241
1.82311
1.79531
1.76973
1.74672
1.72627
1.70817
1.69213
1.67795
1.66551
1.65473
1.64553
1.63777
1.63126
1.62579
1.6212
1.61736
1.61422
1.61179
1.61005
1.60902
1.60872
1.6092
1.61039
1.61185
0.618027
1.01976
5.52061
8.37532
7.76882
5.95941
7.05646
10.0831
2.79317
1.96772
1.91739
1.88745
1.85964
1.83187
1.80429
1.77728
1.75149
1.72753
1.70581
1.68646
1.66933
1.65417
1.64071
1.6288
1.61835
1.6093
1.60158
1.59507
1.5896
1.58501
1.58116
1.57797
1.57539
1.57341
1.57205
1.57129
1.57115
1.57168
1.57283
1.57419
-1.65461
-1.23302
-0.0458735
1.28593
1.85218
1.85765
1.83973
2.15143
2.25241
1.86113
1.80657
1.78405
1.76238
1.7399
1.71742
1.69556
1.67489
1.65589
1.63879
1.62358
1.61008
1.59805
1.58732
1.57779
1.56943
1.5622
1.55605
1.55087
1.54651
1.54286
1.53981
1.5373
1.53531
1.53382
1.53284
1.53237
1.5324
1.533
1.53411
1.53538
-1.70991
-1.29114
-0.755257
-0.0561664
0.509219
0.882243
1.16381
1.41002
1.58545
1.64619
1.65502
1.65577
1.64842
1.63653
1.62264
1.60821
1.5942
1.58114
1.56926
1.55854
1.54886
1.5401
1.53221
1.52516
1.51898
1.51366
1.50915
1.50534
1.50216
1.49949
1.49727
1.49548
1.49409
1.49311
1.49254
1.49236
1.49259
1.49326
1.49432
1.4955
-1.39469
-1.067
-0.6458
-0.176
0.258636
0.621573
0.926346
1.17828
1.35095
1.44418
1.49266
1.51637
1.52549
1.52641
1.52294
1.51734
1.51091
1.50434
1.49797
1.49188
1.48611
1.4807
1.47571
1.47122
1.46729
1.46391
1.46106
1.45868
1.45668
1.45502
1.45367
1.45261
1.45186
1.45141
1.45126
1.45139
1.45181
1.45255
1.45358
1.45465
-1.1062
-0.823937
-0.489617
-0.130043
0.213335
0.519778
0.786895
1.00836
1.16943
1.2732
1.33816
1.37792
1.40143
1.41476
1.42193
1.42542
1.42671
1.42666
1.42573
1.42421
1.42232
1.42026
1.41821
1.41631
1.41463
1.41321
1.41202
1.41104
1.41024
1.40961
1.40914
1.40884
1.40874
1.40883
1.4091
1.40955
1.41017
1.41099
1.41198
1.41296
-0.885384
-0.640686
-0.366681
-0.0793087
0.199529
0.455184
0.680966
0.870812
1.01731
1.12232
1.19574
1.24656
1.28158
1.30579
1.3227
1.33466
1.34316
1.34918
1.35336
1.35618
1.35804
1.35927
1.36012
1.36076
1.36131
1.36179
1.36224
1.36265
1.36303
1.36342
1.36383
1.36431
1.36486
1.3655
1.3662
1.36697
1.36779
1.36869
1.36964
1.37052
-0.723878
-0.511739
-0.282026
-0.0453526
0.185351
0.399838
0.591483
0.755345
0.887867
0.990181
1.06759
1.12572
1.16939
1.20237
1.22747
1.24669
1.26146
1.27284
1.28162
1.28845
1.29385
1.29822
1.30185
1.30494
1.30761
1.30992
1.31193
1.31367
1.31522
1.31662
1.31792
1.31916
1.32036
1.32154
1.32268
1.32375
1.32477
1.32574
1.32666
1.32745
-0.603752
-0.420136
-0.225283
-0.0265196
0.167517
0.349517
0.514148
0.657684
0.778118
0.876166
0.954707
1.01718
1.06678
1.10619
1.13755
1.16253
1.18244
1.19836
1.21118
1.22163
1.23029
1.23758
1.24381
1.24918
1.25381
1.25783
1.2613
1.26433
1.267
1.26938
1.27154
1.27354
1.27539
1.27709
1.27864
1.28002
1.28123
1.28227
1.28316
1.28386
-0.511066
-0.351912
-0.185186
-0.0160793
0.149269
0.305504
0.448581
0.575786
0.685812
0.778959
0.856752
0.921189
0.974286
1.01788
1.05358
1.08276
1.10666
1.1263
1.14259
1.15625
1.16783
1.17776
1.18633
1.19375
1.20017
1.20575
1.21059
1.21482
1.21855
1.22188
1.22488
1.2276
1.23007
1.23228
1.23422
1.23589
1.23727
1.23838
1.23924
1.23985
-0.436872
-0.298307
-0.154438
-0.00906547
0.133317
0.268789
0.394368
0.508065
0.60888
0.696768
0.772416
0.836895
0.891426
0.937262
0.975629
1.0077
1.03455
1.05715
1.07632
1.09271
1.10683
1.11906
1.12968
1.1389
1.14692
1.15389
1.15998
1.16533
1.17006
1.17429
1.17808
1.18149
1.18453
1.18721
1.18952
1.19145
1.193
1.19418
1.195
1.19554
-0.375739
-0.254334
-0.12915
-0.00303327
0.120702
0.23922
0.350345
0.452567
0.545004
0.627357
0.699799
0.76284
0.817214
0.863797
0.903549
0.937442
0.966403
0.991262
1.01272
1.03134
1.04755
1.0617
1.07405
1.08483
1.09423
1.10246
1.10968
1.11605
1.12171
1.12677
1.13129
1.13533
1.1389
1.14202
1.14466
1.14683
1.14852
1.14975
1.15053
1.15102
-0.324371
-0.217256
-0.107473
0.00284562
0.111276
0.215783
0.314761
0.406999
0.49167
0.56832
0.636844
0.697444
0.750574
0.796869
0.837079
0.871988
0.902349
0.928836
0.952015
0.972348
0.990201
1.00588
1.01963
1.0317
1.04229
1.05161
1.05984
1.06714
1.07365
1.07945
1.08464
1.08924
1.09329
1.09679
1.09973
1.10211
1.10393
1.1052
1.10595
1.10639
-0.280619
-0.185537
-0.0886209
0.00857637
0.104299
0.197075
0.285674
0.369082
0.446521
0.517479
0.581732
0.639332
0.690568
0.735909
0.775925
0.811221
0.842377
0.869912
0.89427
0.915821
0.934877
0.951711
0.966569
0.979682
0.991267
1.00153
1.01063
1.01875
1.02599
1.03246
1.03823
1.04333
1.0478
1.05163
1.05482
1.05738
1.05931
1.06062
1.06134
1.06173
-0.243053
-0.158304
-0.0723058
0.0138554
0.0989044
0.181736
0.261363
0.336911
0.407669
0.473139
0.533066
0.587435
0.636435
0.680398
0.719743
0.754912
0.786333
0.814395
0.839439
0.861762
0.881632
0.899296
0.914986
0.928923
0.941315
0.952351
0.962199
0.971001
0.978874
0.985907
0.992164
0.997687
1.0025
1.00661
1.01002
1.01274
1.01476
1.01609
1.01678
1.01711
-0.210804
-0.135056
-0.0584065
0.0184059
0.0944195
0.168752
0.240575
0.309129
0.373784
0.434095
0.489823
0.540922
0.587508
0.629808
0.668111
0.702728
0.733966
0.762108
0.787416
0.810134
0.83049
0.848703
0.864986
0.879542
0.89256
0.904212
0.914651
0.924007
0.932387
0.939873
0.946527
0.952389
0.957484
0.961824
0.965412
0.968249
0.97034
0.971692
0.972347
0.972606
-0.183285
-0.115367
-0.0467043
0.0221793
0.0905052
0.157525
0.222522
0.284844
0.343954
0.399476
0.451202
0.499072
0.543152
0.583584
0.620558
0.654285
0.684977
0.712842
0.73808
0.760888
0.781458
0.799981
0.816644
0.831624
0.845089
0.857192
0.86807
0.877841
0.886602
0.894432
0.901388
0.907509
0.912822
0.917337
0.921059
0.923989
0.926132
0.927493
0.928115
0.928305
-0.15984
-0.0986451
-0.0367719
0.0253636
0.087085
0.147735
0.206698
0.263426
0.317482
0.368561
0.41649
0.461209
0.502742
0.541172
0.576614
0.609204
0.639085
0.666406
0.691316
0.713973
0.734532
0.753154
0.769996
0.785212
0.798947
0.811335
0.8225
0.832547
0.841568
0.849634
0.8568
0.863105
0.868572
0.873212
0.877029
0.880023
0.882198
0.883557
0.884146
0.884272
-0.139606
-0.0841548
-0.0280934
0.0282052
0.0841362
0.139129
0.192671
0.244322
0.293741
0.340692
0.385035
0.426709
0.465711
0.502078
0.53587
0.567165
0.596053
0.622636
0.647022
0.669329
0.689681
0.708207
0.72504
0.740308
0.754138
0.76665
0.777954
0.788147
0.797311
0.805514
0.812807
0.819225
0.824787
0.829504
0.833377
0.836407
0.838596
0.839943
0.840497
0.840563
-0.121725
-0.0712633
-0.0203095
0.0307927
0.0815141
0.131381
0.179988
0.227001
0.272163
0.315294
0.356281
0.39506
0.431605
0.465915
0.498007
0.527916
0.55569
0.581389
0.605087
0.62687
0.646834
0.665082
0.681723
0.69687
0.710632
0.723118
0.734426
0.744644
0.753849
0.7621
0.769443
0.775908
0.781511
0.78626
0.790153
0.793191
0.795373
0.796699
0.797218
0.797228
-0.105644
-0.0596704
-0.01336
0.0329896
0.0789399
0.124121
0.16823
0.211022
0.252307
0.291944
0.329832
0.365902
0.400103
0.432405
0.462789
0.491256
0.51782
0.54251
0.565373
0.58647
0.605875
0.623673
0.639956
0.654822
0.668371
0.680698
0.691893
0.702034
0.711189
0.71941
0.726735
0.733188
0.738782
0.743518
0.747397
0.750416
0.752574
0.753867
0.75435
0.75431
-0.0912093
-0.0493992
-0.00739747
0.0345643
0.0761448
0.11707
0.157123
0.196122
0.233921
0.2704
0.305457
0.339011
0.37099
0.401337
0.430011
0.456983
0.482245
0.505806
0.527695
0.547955
0.566646
0.58384
0.59962
0.614072
0.627285
0.639344
0.650328
0.660306
0.669334
0.677457
0.684703
0.691091
0.696626
0.70131
0.70514
0.708114
0.710229
0.711482
0.711926
0.711842
-0.0784856
-0.0405666
-0.00255115
0.0354022
0.0730403
0.110164
0.146613
0.182246
0.216935
0.250565
0.283028
0.314229
0.344079
0.372504
0.399444
0.424857
0.448723
0.471039
0.491825
0.511115
0.528961
0.545428
0.560588
0.574521
0.587302
0.599007
0.609704
0.619448
0.628285
0.63625
0.643362
0.649633
0.655066
0.659658
0.663407
0.66631
0.668366
0.669568
0.669971
0.669848
-0.0674617
-0.0331281
0.00126806
0.0356319
0.0697755
0.103547
0.136817
0.169461
0.201355
0.23238
0.262423
0.291375
0.319142
0.345639
0.370802
0.394586
0.416964
0.437934
0.457511
0.475728
0.492632
0.508281
0.52274
0.536077
0.548358
0.559646
0.569994
0.579446
0.588037
0.595789
0.602716
0.608823
0.614109
0.618573
0.62221
0.625019
0.626998
0.628141
0.628503
0.628345
-0.0578827
-0.0267865
0.00438394
0.0355759
0.0666406
0.0974495
0.127884
0.157822
0.187141
0.215718
0.243436
0.270186
0.295872
0.320413
0.343749
0.365837
0.386657
0.406209
0.424509
0.441588
0.45749
0.472267
0.485974
0.498668
0.510401
0.521223
0.531174
0.540284
0.548578
0.556068
0.56276
0.568658
0.573757
0.578056
0.581552
0.584245
0.586133
0.58721
0.58753
0.587341
-0.0493087
-0.0211059
0.00719904
0.0355726
0.063884
0.0920126
0.119842
0.147251
0.174118
0.200323
0.225752
0.250306
0.273897
0.296455
0.317929
0.338286
0.357514
0.375616
0.39261
0.408527
0.423404
0.437285
0.450214
0.462236
0.473388
0.483707
0.493218
0.501941
0.509889
0.517068
0.523481
0.529126
0.534
0.538102
0.541431
0.543987
0.545771
0.546775
0.547052
0.546838
-0.0413174
-0.0157242
0.00998936
0.0357926
0.0615613
0.0871775
0.112527
0.137495
0.161964
0.185826
0.208981
0.231342
0.252837
0.273411
0.293024
0.311656
0.3293
0.345963
0.361663
0.376425
0.390282
0.403265
0.415406
0.426737
0.437282
0.447062
0.456094
0.464385
0.471941
0.478764
0.484852
0.490205
0.494819
0.498694
0.501832
0.504235
0.505903
0.506829
0.507064
0.506829
-0.033688
-0.0105113
0.0127825
0.0361581
0.0594957
0.0826825
0.105612
0.128179
0.150283
0.171829
0.192736
0.212935
0.232369
0.251
0.268798
0.285752
0.301859
0.317127
0.331571
0.345209
0.358063
0.370155
0.381504
0.392127
0.402038
0.411247
0.419757
0.427573
0.434692
0.441114
0.446838
0.451861
0.456184
0.459808
0.462735
0.46497
0.466515
0.46736
0.467553
0.4673
-0.0264586
-0.0055877
0.0153766
0.0363958
0.057358
0.0781612
0.0987122
0.118922
0.138707
0.157992
0.176715
0.194823
0.212276
0.229045
0.245111
0.260466
0.275109
0.289045
0.302282
0.314831
0.326704
0.337911
0.348459
0.358355
0.367603
0.376201
0.38415
0.391445
0.398085
0.404067
0.40939
0.414053
0.418059
0.42141
0.424111
0.426169
0.427583
0.428345
0.428498
0.428231
-0.0198447
-0.00122037
0.0174641
0.0361724
0.0548056
0.0732771
0.0915106
0.109435
0.126985
0.144105
0.160748
0.176875
0.192457
0.207474
0.22191
0.235759
0.249017
0.261684
0.273762
0.285252
0.296156
0.306476
0.316208
0.325351
0.3339
0.34185
0.349195
0.35593
0.362052
0.36756
0.372451
0.37673
0.380398
0.383461
0.385927
0.3878
0.38908
0.389758
0.389872
0.389596
-0.0140944
0.002328
0.0187802
0.0352333
0.0516052
0.0678263
0.0838376
0.099585
0.11502
0.130102
0.144795
0.159071
0.172907
0.186287
0.199197
0.211626
0.223569
0.235019
0.24597
0.256417
0.266353
0.275772
0.284665
0.293023
0.300838
0.3081
0.314804
0.320944
0.326516
0.331521
0.335959
0.339834
0.343152
0.345919
0.348142
0.349826
0.350972
0.351565
0.351643
0.351361
-0.00936372
0.00491238
0.0191998
0.0334796
0.0476874
0.0617697
0.0756827
0.0893864
0.102845
0.116027
0.128906
0.141459
0.153667
0.165512
0.17698
0.188058
0.198735
0.208999
0.218839
0.228243
0.237199
0.245696
0.25372
0.261261
0.268306
0.274848
0.280878
0.286394
0.291393
0.295876
0.299845
0.303307
0.306268
0.308734
0.310712
0.312208
0.313218
0.313729
0.313773
0.313489
-0.00566539
0.00654042
0.0187536
0.0309655
0.043127
0.0551987
0.0671481
0.0789454
0.0905631
0.101976
0.113162
0.1241
0.134771
0.145158
0.155245
0.165015
0.174452
0.183542
0.192269
0.200618
0.208573
0.216121
0.223248
0.229939
0.236186
0.241979
0.247314
0.252186
0.256597
0.260547
0.264042
0.267087
0.269689
0.271855
0.27359
0.274898
0.275775
0.276206
0.276218
0.275937
-0.00289134
0.00733588
0.0175793
0.0278381
0.0380759
0.0482632
0.0583754
0.0683891
0.0782813
0.0880303
0.0976154
0.107017
0.116215
0.125193
0.13393
0.14241
0.150615
0.158526
0.166127
0.173402
0.180333
0.186907
0.193109
0.198928
0.204355
0.209383
0.214007
0.218227
0.222043
0.225458
0.228478
0.231108
0.233356
0.235226
0.236722
0.237847
0.238594
0.238948
0.238932
0.238656
-0.00087604
0.00746791
0.0158457
0.0242611
0.0326869
0.0410998
0.0494797
0.0578065
0.0660597
0.0742192
0.0822654
0.0901788
0.0979402
0.105531
0.112931
0.120122
0.127087
0.133807
0.140265
0.146445
0.152331
0.15791
0.163171
0.168102
0.172697
0.17695
0.18086
0.184425
0.187648
0.190532
0.193083
0.195306
0.197206
0.198787
0.200051
0.200998
0.201621
0.201904
0.201863
0.201596
0.00053831
0.00708596
0.0136906
0.020357
0.0270627
0.0337877
0.0405138
0.0472224
0.0538947
0.0605117
0.0670546
0.0735048
0.0798436
0.0860526
0.0921137
0.0980091
0.103722
0.109235
0.114533
0.119602
0.124429
0.129001
0.133309
0.137346
0.141106
0.144585
0.147782
0.150698
0.153335
0.155697
0.157789
0.159614
0.161176
0.162477
0.163517
0.164296
0.164802
0.165017
0.164955
0.164701
0.00145602
0.00628146
0.0111913
0.0161859
0.021244
0.0263461
0.0314744
0.0366114
0.0417393
0.0468407
0.0518982
0.0568948
0.0618137
0.0666383
0.0713529
0.0759418
0.0803905
0.0846847
0.0888116
0.0927593
0.0965174
0.100077
0.103431
0.106574
0.109501
0.112211
0.114703
0.116978
0.119039
0.120889
0.122531
0.123967
0.125201
0.126232
0.12706
0.127679
0.128077
0.128234
0.128156
0.127921
0.00191462
0.00507832
0.00835628
0.01174
0.0152053
0.0187311
0.0222998
0.0258945
0.0294992
0.0330986
0.0366776
0.0402219
0.0437178
0.047152
0.0505119
0.0537854
0.0569611
0.0600283
0.0629773
0.0657995
0.0684876
0.0710354
0.0734379
0.0756913
0.077793
0.0797419
0.0815382
0.083183
0.0846784
0.0860267
0.0872301
0.0882901
0.0892073
0.0899809
0.0906078
0.0910813
0.0913868
0.0914975
0.0914091
0.0912012
0.00197664
0.00346881
0.0051153
0.00689331
0.00877141
0.0107252
0.0127356
0.0147865
0.0168636
0.0189538
0.0210455
0.0231278
0.0251907
0.027225
0.0292219
0.0311733
0.0330716
0.03491
0.0366823
0.0383834
0.0400086
0.0415545
0.043018
0.0443969
0.04569
0.0468968
0.0480177
0.0490537
0.0500061
0.0508764
0.0516657
0.0523749
0.0530039
0.0535512
0.0540138
0.0543851
0.0546497
0.0547705
0.054711
0.0545602
0.00163394
0.00148163
0.00153737
0.00174406
0.00206315
0.00246807
0.0029396
0.00346297
0.00402646
0.00462054
0.00523727
0.00586992
0.0065127
0.00716044
0.00780854
0.00845282
0.00908952
0.00971527
0.0103272
0.0109227
0.0114996
0.0120561
0.0125908
0.0131025
0.0135904
0.0140543
0.0144941
0.0149101
0.0153029
0.015673
0.0160212
0.016348
0.0166538
0.0169385
0.0172013
0.0174399
0.017646
0.0177908
0.0178198
0.01775
)
;

boundaryField
{
    leftWall
    {
        type            fixedFluxPressure;
        gradient        nonuniform 0();
        value           nonuniform 0();
    }
    rightWall
    {
        type            fixedFluxPressure;
        gradient        uniform 0;
        value           nonuniform List<scalar> 
43
(
1.71686
1.68331
1.64826
1.61185
1.57419
1.53538
1.4955
1.45465
1.41296
1.37052
1.32745
1.28386
1.23985
1.19554
1.15102
1.10639
1.06173
1.01711
0.972606
0.928305
0.884272
0.840563
0.797228
0.75431
0.711842
0.669848
0.628345
0.587341
0.546838
0.506829
0.4673
0.428231
0.389596
0.351361
0.313489
0.275937
0.238656
0.201596
0.164701
0.127921
0.0912012
0.0545602
0.01775
)
;
    }
    lowerWall
    {
        type            fixedFluxPressure;
        gradient        nonuniform 0();
        value           nonuniform 0();
    }
    atmosphere
    {
        type            totalPressure;
        rho             rho;
        psi             none;
        gamma           1;
        p0              uniform 0;
        value           uniform 0;
    }
    defaultFaces
    {
        type            empty;
    }
    procBoundary3to1
    {
        type            processor;
        value           nonuniform List<scalar> 
45
(
-4.51963
-4.57479
-4.39826
-4.18028
51.8992
1754.81
1878.39
1878.61
1882.29
1417.6
159.582
4.38002
2.46802
2.27609
2.24531
2.22637
2.20753
2.18614
2.16037
2.13029
2.09676
2.06109
2.02493
1.98984
1.95691
1.92669
1.8993
1.87468
1.85278
1.8336
1.8171
1.80312
1.79141
1.78158
1.77326
1.76618
1.76015
1.75512
1.7511
1.74814
1.74624
1.74543
1.74574
1.74709
1.74885
)
;
    }
    procBoundary3to2
    {
        type            processor;
        value           nonuniform List<scalar> 
43
(
-4.09169
-3.86193
-3.60364
-3.31019
-2.99558
-2.68022
-2.38182
-2.11001
-1.86779
-1.65425
-1.4666
-1.30176
-1.15674
-1.02905
-0.916501
-0.81729
-0.729868
-0.652853
-0.58497
-0.525036
-0.471921
-0.42457
-0.382124
-0.343955
-0.309565
-0.278506
-0.250318
-0.224521
-0.200684
-0.178493
-0.15774
-0.138299
-0.120116
-0.103168
-0.0874419
-0.0729178
-0.0595568
-0.0472682
-0.0358844
-0.0251597
-0.01447
-0.000726175
0.0160967
)
;
    }
}


// ************************************************************************* //
