/*--------------------------------*- C++ -*----------------------------------*\
  =========                 |
  \\      /  F ield         | OpenFOAM: The Open Source CFD Toolbox
   \\    /   O peration     | Website:  https://openfoam.org
    \\  /    A nd           | Version:  7
     \\/     M anipulation  |
\*---------------------------------------------------------------------------*/
FoamFile
{
    version     2.0;
    format      ascii;
    class       volScalarField;
    location    "0.0036/particle";
    object      internalE;
}
// * * * * * * * * * * * * * * * * * * * * * * * * * * * * * * * * * * * * * //

dimensions      [1 -1 -2 0 0 0 0];

internalField   nonuniform List<scalar> 
600
(
97.6738411028354
87.9460208655794
119.886320570676
111.33145990789
95.1872991237866
125.030003960669
105.287714773498
126.61633013024
109.954364711551
99.7857442455896
123.052037287906
102.193402246675
128.561327751701
92.6116434955441
115.991327386268
121.315231416893
103.975077076016
108.888670544392
106.967287759125
103.795975143999
115.489864588096
114.053671390972
109.805456466534
117.945548435839
109.37599513152
120.032336086256
100.479410058165
117.814113024678
115.308225319425
80.8931033337126
101.176274516349
105.09801988427
109.5874729814
106.253301176931
106.394816595926
96.2580804974956
126.449520038515
103.212969692848
101.620095747722
116.72928219446
98.4821591102253
113.394951401322
139.342901918357
114.339343148476
129.113578112654
107.808317600207
113.049598721758
110.552978802207
101.879828568829
110.985167779343
115.95874241626
102.511090520139
108.294124208049
100.650501830378
116.253413327673
122.821659776471
113.789294195857
107.718613350486
102.686017599548
91.7232906056325
123.82960214082
102.038459905146
108.676544416174
110.297833740859
110.064473910697
104.081695418936
123.418411977185
114.132943642194
105.31000422816
105.460730693411
113.611183605156
112.884608115552
112.347188392212
114.962232818002
114.244572304376
123.148798178382
113.393245638798
105.472576570874
107.472699878627
119.374035036916
102.089202325871
97.6680921749885
112.346771243669
106.359621410265
121.728057454154
116.112358024942
97.4031058253778
105.148919485552
98.0460683985276
100.12167979875
96.5244003750898
93.2014527583263
111.82589004438
110.884773925128
91.3506018077418
126.196129977652
96.1000046084015
104.277089670104
88.0810223973692
102.711908807874
102.245055329779
82.541190442548
100.187568557064
86.5950035504441
99.3424934056609
113.175319249191
100.179650578664
108.255191727857
98.2983937694797
79.6557305979766
88.3122032758415
99.5305306390284
89.1619397933041
98.0376980096426
90.1435909526824
102.263305445063
75.5905104546989
109.961721257073
90.8051052546683
79.0943631212787
88.0457869205141
86.9378603438688
99.835777089863
90.7423097955123
78.5516624424026
90.5502744322594
86.6672038823077
85.8551747016975
84.1446224348496
90.0346106306024
86.7205946203396
95.3512317101978
89.808403038885
88.9852737676138
85.8981973488686
69.7259143784732
84.9243322880791
80.8611710604378
78.5938238425226
75.5517317199423
84.2448675260503
98.5878222307858
100.817241347994
86.2567395403695
99.4575057523245
73.2054517276558
79.2250194181547
87.0291832501598
83.9023487293113
78.4505063902088
71.1878388755144
86.5779031293501
65.524400803454
58.7546928609414
71.9608914876753
76.8894131854277
71.8035126037372
66.4203969517054
76.9594380202741
76.9344085008996
72.3693923800626
59.748389844254
76.1489078351943
73.6186203483924
71.4668959236291
76.4728044704269
76.0293458766005
71.4526801257359
70.6255043586691
66.3038095777936
72.0297299064414
60.4039397552422
61.9069281112175
84.7188741469371
75.3900135405544
52.3419494281607
68.9785106054839
66.2302537758157
65.9548963023243
59.7893319497946
73.610640616285
61.1616733006022
66.2110781537096
65.3093060971011
68.4723591874392
57.3120546232738
56.3840081050468
59.8162994536994
58.0566619217866
65.2300601731327
52.2092698274727
71.661948256137
59.3428371212076
58.2583020563888
54.2394360215381
56.1816215550731
71.079756342636
65.1587898077945
50.8440995148055
62.1041319747762
75.3002789974442
75.1795326470243
58.4671026344942
53.6810525115087
48.4058970900723
64.3423623651857
54.0120575435979
58.9675075489831
53.8638899861396
57.470984614791
53.7396754350433
55.5273849419262
47.5215612425285
47.9280755051836
46.4332581127356
49.7578664712023
49.5403462093687
52.1984739117587
53.4594733027762
52.7211978932437
61.4668526688113
47.8812467523734
55.9682725240534
45.6704417121891
48.9078330251021
48.0632197059113
62.3837489801259
55.2548589943533
51.1805963904297
57.8075183071446
48.9048330292795
43.3522681265113
58.4452519413001
54.7989377325798
45.6386101198927
53.0560974004622
38.119205075844
50.852953394478
44.9061269626018
54.2454452931797
45.666246230763
46.1409281860686
41.477227840752
43.4396152624941
45.0360361685333
46.3105637526986
56.1178819789535
45.3753330759338
47.0536442200798
42.7570244652914
48.5157956828673
46.7074721330897
38.0856063858343
44.157992939734
43.0357032592333
34.7918136774846
42.6334497701941
49.8788729606877
35.734864241285
40.5954241595862
44.4712532868833
46.5154566051861
43.4999268244389
46.043982499957
44.4123109400963
40.7411527897917
38.0822807584828
40.7300103827635
44.0292604541436
39.2048854869885
36.7386126942773
51.1900393652321
37.8518206595879
38.401576619793
55.5954137041522
36.2952041869588
40.0418716298349
44.4077230409124
42.0247147530341
39.3386674516055
41.5112425639909
44.7348038290584
35.3561428733733
40.5721376805975
51.7755712097571
50.9938048654521
38.3356995956305
59.4390537860749
31.1588665814498
46.9082337714791
45.3522641041909
43.5328378830719
46.1459742604133
45.6246688680637
46.0649693974963
45.4721129566705
60.9060707564717
44.5283346370408
47.2163218263785
39.2867608404131
28.2253626623225
41.2251876235966
53.008881432864
38.512156889223
41.6726964107226
40.2616459911591
43.8884992682107
57.7195475375311
42.1728489043201
31.8416750884537
41.8433099804887
38.4939397382642
35.4405817156629
36.8544307398043
47.5449781016264
43.5346103772296
42.5529625609786
33.7915461456913
39.6627009037239
42.4010858341469
50.7212496712015
44.1380805116155
42.1143083102556
46.6861038218948
37.6163619449099
43.3784167355059
40.7162644267274
46.1533398610447
52.8234865189673
45.1886355209185
37.5193714710943
44.2480926175636
41.7403981900278
48.1556521245697
38.6266183125083
40.744197064325
40.2348922670974
44.0674949393802
38.3182297899645
38.4623978104812
43.270545268271
38.3024961318425
34.5935222098387
46.1202791838665
37.9532293172418
40.0143857240479
41.0180838103969
37.633643428974
38.7692699669549
50.3321926384922
49.6239395151465
38.5739257626164
38.7974409926991
45.7970543183821
47.2003621561407
43.3073654778261
36.3667314065667
36.380709060036
46.0013930630158
50.5678840154102
44.2601089623091
44.4346682650688
41.9993446314317
42.5862903528431
35.3356021907837
36.785402200693
44.4987833763958
48.7636764644939
36.011859255663
42.4716018166436
43.5144476724334
34.7233362367994
40.0399956807855
51.5004624071489
41.1905154286587
38.234373704598
44.3568412852194
55.8128785282997
38.192092659792
48.5299331534706
42.5048932479061
41.0888518235281
50.8989127657479
55.573662105239
40.4272291933084
40.6926531699515
38.6708226195669
34.8006434047457
47.8536558277578
36.6333907442295
41.0876425198161
40.8816220745849
43.6875949567118
46.4633356390175
44.5928313693294
40.3956798071901
37.7280491581118
37.1946205073448
44.3033283838526
41.6787532407361
43.5886505299542
36.5573331549287
44.5414295776042
41.8943886190641
56.6907240737462
38.2328381856127
31.6830358159951
41.999938495485
46.6068567717159
51.5742332003983
43.5987656395871
50.3439175900253
46.1603840873951
41.2200706705853
38.6435399319316
35.6943941895497
41.1299531034667
41.2410116066618
40.5197083228295
39.6152429495933
43.9639037641365
54.2859834702575
37.774054633919
36.7533101263264
43.4333749267697
41.7495201032372
39.2156494803765
45.5349518543883
40.3320175174844
48.8840049361409
44.9056844893975
46.4493789868953
52.1006926426279
40.5317602136793
36.2580322955676
37.0699687186315
33.8144224263609
51.3130905762785
42.4543302010391
36.3764403009177
42.1982784833864
41.9097685216978
44.0942884969293
39.2136545754182
53.4413336800478
32.6380681856931
31.6853492320023
43.9072714323414
41.8106003320461
41.55201959081
32.447868018581
52.836109870627
42.3248392991519
38.3996488269036
38.3368035530248
43.1660246142043
35.4887309777406
44.3442901096715
46.8127152819476
35.9607923388509
58.6423415969572
37.5084896791981
39.6791492325937
44.7489962702128
42.476260056029
42.6649199625948
49.0569560295769
47.3058414856093
44.8862471919306
48.6085646406057
46.1373002912302
38.5761795900734
42.8024106009699
36.2632338731161
45.6086268955846
49.5529546281944
34.4087105961889
45.4858011462098
44.7015490625365
39.0717630297919
46.0518342849453
39.6712252063584
41.0080797492648
42.32934491927
40.2386297785424
39.9942039036691
42.165491788723
40.359801334244
42.2848142538342
47.9419345636109
45.7577432875928
41.851391809658
46.1714135025343
44.6264934869139
47.1040518440568
49.6406511101185
37.1112498461915
49.5658324731703
45.764801464207
37.6083200330961
51.7558549930905
43.3375263729231
45.6722485281454
41.8882478189397
43.1106987562811
51.2970524152028
51.0100068591833
38.658833708341
35.8367813139569
40.539566336253
38.4834674338661
39.6670814183321
45.3676255269261
47.3901923757632
42.327291211395
42.844701604832
41.5450043419079
41.1168344346927
48.5464274247121
40.1039932103262
43.4443444665173
46.5077717966272
62.7258166260194
34.6117872135967
39.6787755517234
44.6491123764564
48.9315395472032
45.1714181832504
46.2886837311333
53.0033580177937
39.5825568942347
48.8395987701397
42.3333219654993
40.5675113409279
47.78508215028
45.1565341083497
38.7177981945547
41.4336625538009
36.9503378260373
19.5407876364705
10.6081117898282
8.22824105995407
9.72637115822502
10.5320813960396
11.5467605376925
9.92686558048877
11.6589342731143
12.7468431435935
9.09165666235335
11.7197260779976
12.5752086667072
7.2074339750876
14.7253830188614
12.6450963223304
10.064335927252
11.3513068719939
9.37417283538451
16.0353869263437
15.9312038834097
7.47249497075172
11.6786369572995
10.7029251006073
12.3063333655208
10.990842881781
12.5236012144144
9.53632048704725
7.62609878278518
10.7230561854405
12.5986225990565
12.4752513872974
9.19654558383075
10.350396662433
14.0401260803065
10.6241344669735
10.5871477616113
13.9182612589363
12.6755694256196
9.61632754797684
11.8839131070173
13.6133994155683
11.6281460896197
10.483526003983
8.87114952883162
11.5118233661517
9.65144793174461
12.5762528961743
13.2452870860676
8.86130579246398
9.94066010957718
11.2297922341948
10.4789968977474
8.81008614844463
11.8098783156055
13.0087295543228
11.1850788859275
12.72747136611
11.3958240599539
10.2737390991698
12.8525906717505
9.58274197540804
)
;

boundaryField
{
    DSMCSide
    {
        type            symmetry;
    }
    DSMCBound
    {
        type            symmetry;
    }
    nullDims
    {
        type            empty;
    }
}


// ************************************************************************* //
