/*--------------------------------*- C++ -*----------------------------------*\
  =========                 |
  \\      /  F ield         | OpenFOAM: The Open Source CFD Toolbox
   \\    /   O peration     | Website:  https://openfoam.org
    \\  /    A nd           | Version:  7
     \\/     M anipulation  |
\*---------------------------------------------------------------------------*/
FoamFile
{
    version     2.0;
    format      ascii;
    class       volVectorField;
    location    "0.0036/particle";
    object      momentum;
}
// * * * * * * * * * * * * * * * * * * * * * * * * * * * * * * * * * * * * * //

dimensions      [1 -2 -1 0 0 0 0];

internalField   nonuniform List<vector> 
600
(
(0.00470400730768959 -0.00508161432528838 -0.00341350551024999)
(0.0146642111671456 -0.00706055928307759 -0.0133717853789233)
(-0.0061157932816289 0.017784138607499 0.0133914556929609)
(0.00785073061684841 0.0231079734975388 0.0226850745936165)
(0.00583893177409462 -0.0101548161292359 0.0020269749918479)
(-0.0147176001772487 -0.00127308562996611 0.0057015101317494)
(0.0075608326563658 0.00997775967996615 -0.00735165038176467)
(0.00229650704896283 0.00542975375635044 -0.0194789519860296)
(-0.00436499884692715 0.00917601361467329 -0.00966760476539433)
(0.0101105521488657 0.00216881738340098 0.0189302624705205)
(-0.000273256746872561 0.00967907394776764 0.0118418491634484)
(-0.0266282939510841 -0.0320298032345562 0.0122170422638497)
(-0.00573266132201254 0.0335703174103377 0.0127997688279644)
(-0.000769792159733677 0.0139888889702465 0.0274711944134382)
(0.01624456387545 -0.0287497040805443 -0.0245867194073894)
(-0.00646574881741795 0.004436221651746 -0.00598265111132295)
(0.0166229210762138 -0.00394508497410763 -0.0253927195138206)
(-0.00651084278903073 -0.0102262863485097 -0.0185029180363738)
(0.0327829776393803 -0.0255811178592628 0.00927434509859684)
(0.00821436056649716 0.00386518541074492 0.0085115582411349)
(0.00415508266349243 0.0182257788938282 -0.0075880499993869)
(0.0100374564803897 0.00457954119302955 0.0186747767199547)
(-0.0190690932364394 -0.00447347532790779 0.00875967821598303)
(-0.00483904129789105 -0.0130470951345906 0.0140888923295695)
(0.015237626123636 0.00438158314837336 0.00766145383685485)
(-0.0148399302091151 0.00754513028941567 -0.00768742636932051)
(-0.00554618292597296 -0.00718903623480049 -0.00173157437596631)
(0.0098147184929679 -0.0182144953214261 -0.0138443746310314)
(-0.0130322338426508 -0.00388992308424102 0.0055051901697191)
(-0.00614728032327344 -0.0124943941956711 -0.000271494423489726)
(0.0070043006704541 -0.011703856316224 -0.00706546485565796)
(-0.00580021263729299 -0.0144157519631787 -0.00911839896429025)
(-0.00325382004669361 0.00592387155101675 0.00286665249351008)
(0.0192133943721678 0.019776417616397 -0.000208178408640872)
(0.0181535223479664 0.0052558207850215 0.0187074994601148)
(-0.0121951374238126 -0.00848075893738735 -0.0119768149461747)
(0.00537644376096927 -0.0212953512666071 -0.0301630291935263)
(-0.010538241667818 0.00292968541784871 0.0168934009995413)
(-0.00500480028393336 -0.00626862445413246 0.00198967115543101)
(-0.00341912358206103 -0.0196199818684662 -0.00111302269283447)
(-0.00991603221399958 -0.0134948995978021 0.001137734474768)
(0.00103230261539518 0.0192056336308447 0.0243254180610072)
(-0.00523751045987983 0.0118295960518166 -0.00162182312577118)
(0.0152180783220693 0.00868958698559143 -0.00457301848648465)
(0.0247365004447788 0.0114248483591042 -0.0137974945021054)
(-0.0127126137310199 0.00925997884780218 -0.0238071611626771)
(0.00710364616058795 0.0214777377318066 -0.00511717086942223)
(-0.0145265003953472 0.0160986477591888 -0.00942733322194696)
(0.00090299475948427 0.0147092730939461 0.0134850139953284)
(0.00439443513834022 -0.0165986710157507 0.00549215902088525)
(0.0035908270034994 0.00389261773464451 0.0066839776817515)
(0.00535931901999521 -0.00570082785864841 -0.00491628875461726)
(-0.0257830600834498 0.0169476791374101 0.0162820647054802)
(0.00108126744771908 -0.000352099732181649 0.0243516339415578)
(0.0132907295474959 -0.002774686155857 0.0109910543846044)
(-0.00717069151510032 -0.00974207829738005 0.00248895506926655)
(-0.00126032518263264 0.00437431149416176 -0.0104694747664382)
(0.0281437837428901 0.0181734897601485 0.00234787443216112)
(0.0161436586654519 0.00202938784407032 -0.0160324719909491)
(0.012752930585843 -0.0244567099493446 -0.0208280493055935)
(-0.00892626579528642 -0.0188274239447493 0.000921771630019863)
(-0.00210383906354978 -0.0277718580052688 -0.00191963974947437)
(-0.00188468726530878 -0.0237544132886897 -0.0182796350008269)
(0.0199650778416959 -0.00874404924688922 -0.00933530342598877)
(-0.00928425626589719 0.0039253536438705 0.0194559430932231)
(0.0149606262563556 -0.0327765804357769 -0.0119981964918459)
(-0.010182799188321 0.00799330252794707 0.00097813384900071)
(-0.00832721799302702 -0.0189035498762348 -0.0225766297955372)
(0.0285122618881922 0.00179708090217295 0.0105234674210156)
(-0.0138122858981712 -0.000302278660437243 -0.0249395094049228)
(-0.0146042543796912 -0.00477910681839694 0.0168816582154343)
(-0.00431763668657513 0.0107177984935446 -0.0450607943668843)
(0.00666544181131217 -0.0163928589265492 -0.00623303112896186)
(0.000168726733030194 0.0126255383060211 -0.00334420383366488)
(0.00809536101302203 0.00687526483045284 -0.00420892184369341)
(-0.0267822968889876 -0.0180928128024323 0.0234716603034169)
(0.00351144151824338 0.00918619550720452 -0.00191968261106015)
(0.0043744392636327 0.00320347185463653 -0.0166961545808072)
(0.0245238003156329 -0.0209527426993099 0.0039928434323272)
(0.00601269173298987 -0.000225295374316886 -0.0066200491008608)
(-0.00661401391118428 -0.00988572033099729 0.009212564654856)
(0.0256550904442885 0.00673987477632719 -0.0127750583705172)
(0.00881176136733767 0.0151897792436665 0.00645677995576523)
(0.0118767503700765 -0.00302499342169321 -0.00010714995030214)
(0.00890560682825849 0.0104507647812442 0.00687890245963706)
(0.0104425977613509 0.0121810916125882 -0.0145100788039397)
(0.000567914180033301 -0.0277073799585455 0.0175522937246424)
(-0.0135977112230617 0.0280872820966287 -0.0210278728865026)
(0.0150606659338302 -0.00626443300211302 0.0141348909156929)
(0.0381823416276883 0.0185229207274055 -0.0130621897754472)
(0.0254601902889183 0.0131607678255734 -0.0110194078679509)
(0.0160085839158048 0.0220271837131643 -0.00304521809077454)
(0.0187030300843353 0.0318696203198619 0.0015878679258838)
(0.00919857803548864 0.0154525755035197 0.0113117605421167)
(0.0224861438263965 0.0135201167691269 0.0107839391965869)
(0.0180127476939582 -0.00915895986682292 0.0220646880715078)
(0.00374040856887146 0.0187352753508421 -0.000506406317894991)
(-0.00753044757381691 -0.00529670968537583 -0.00655252748563864)
(0.0220466716008146 -0.0117167171207285 -0.016303075626695)
(0.0249979052101034 0.0047100301652394 -0.00320412994279658)
(0.0394141433668259 0.00370836424496222 -0.00497395978244281)
(0.0180340310497139 0.00772149839356294 0.0238679904581504)
(0.00975739548985224 0.0153604266709994 -0.00283809718169823)
(0.0181347602037878 -0.0314782170687877 0.00494627127023344)
(0.0320541833692825 0.0175932105369159 0.000489455771872128)
(0.0364651891649026 -0.00244940112791962 -0.0257881464944642)
(0.0192502097776744 -0.0110490118248507 -0.0103567295275955)
(0.0388148068098146 -0.0165105987912324 0.0317387557087912)
(0.0229982125834968 -0.00649630247611386 -0.0119317524664193)
(0.0316448942960947 -0.00198097307122512 0.0032336245890254)
(-0.00844750045895804 0.0125792530403643 0.0225751122282276)
(0.0120531577446482 0.000257905730078194 0.00639037492270565)
(0.0193630187252324 0.000953569146302262 0.00744099575773353)
(0.0157684499397756 0.0106357656673519 -0.0214164116739841)
(0.0331409388670228 -0.0125144936929432 0.0289686551431817)
(0.0580639145011833 0.005394659159346 0.00538139945777382)
(0.0474974223797835 0.0326862979971311 -0.0199867387111043)
(0.0601750086446953 -0.00474491817648343 0.0136260836006529)
(0.0132289876444536 0.0108645774233758 0.002330145682944)
(0.0253191071904088 0.0150769198150945 -0.00497231922660216)
(0.0169089069365847 0.0118872454673136 -0.0125605358708448)
(0.0553738506578928 -0.0091226690068006 -0.00187528777919112)
(0.0291085295752515 0.00691350524249895 0.00308623843869103)
(0.0333832389822284 0.0189832566948342 -0.000208576119147001)
(0.0743356781519729 -0.0145945369669685 -0.0280968625618509)
(0.0368359423970783 0.0115367783141678 0.00501348844904599)
(0.0315354465524302 0.0161589189488477 -0.00659646198276674)
(0.0475130261940069 -0.000263773830945477 -0.00733896477294045)
(0.0291955029903991 -0.0248304326816702 -0.0289001191679951)
(0.0360504021430606 -0.00350001822692117 -0.0219076441087234)
(0.0680594143614588 -0.00860673478601983 0.00672465146465646)
(0.0555476312987524 0.00548793374890467 -0.0252348293498621)
(0.0395547235709848 -0.0181025097159398 0.00494223245522117)
(0.0749934615014923 -0.00833699889856325 -0.00769187255326538)
(0.0288277446368803 -0.0278092149949619 0.00506106974735948)
(0.0422797736148173 0.00466726395032326 -0.000875713106729557)
(0.0478230734787667 -0.0135735424426835 0.0104316111982229)
(0.0559242934194235 0.000974198604948376 -0.0087450478044369)
(0.0575217618978403 -0.00216705164632734 -0.00143778713107565)
(0.0494621938936053 0.00713782493596783 0.00491021331623207)
(0.0579878313315959 0.00581595342030194 -0.00796425829653356)
(0.0764237767942765 0.0224409832865032 -0.000117216072896343)
(0.0567661795492152 -0.00448916131537542 0.00105136012778423)
(0.04937800419577 0.00466876063756507 0.010298156739439)
(0.0561801742083747 -0.0044982206401262 0.0111978616482567)
(0.0378884560216101 -0.0162540639757567 -0.0049242747201247)
(0.0477116603386074 0.024993999784705 0.0223078209553477)
(0.0757591465854282 -0.0182579571621105 -0.00900210096019399)
(0.0165895211222329 -0.00569461838740871 -0.00325224690216842)
(0.0497764195941336 0.00413601801540641 -0.00417243385667576)
(0.0470293633368108 -0.014020757306494 0.0167691776076996)
(0.0488038189347026 0.00715680450435506 -0.00308460357327925)
(0.0440260878895795 -0.00558777882248132 -0.000634991860393908)
(0.0556427125397318 0.01200064625878 0.00412448731130068)
(0.0411718983572326 -0.0118773756269871 0.00948183345737101)
(0.0499072753702745 -0.00808929737637024 0.0167747072427646)
(0.0581586502819229 -0.00419859654280554 -0.00732739677314881)
(0.0516106673312685 -0.0147428700092096 -0.000796160498928037)
(0.0675630111997346 0.00208290549052935 -0.0170918958301363)
(0.0850059110101883 -0.00820448944391481 0.0146296596975823)
(0.0464912502957736 0.0139304956705649 3.30973320452946e-05)
(0.0526281834003846 0.000354316149284275 0.00863879363452184)
(0.047021313301521 -0.0234838763209828 -0.000577651657227635)
(0.0675676305788285 -0.00986618236755179 0.0150385780369971)
(0.0567091990894921 -0.00440271762848174 -0.0112454405502189)
(0.0856079382225711 0.00875695466068838 -0.00551397707656239)
(0.0547158825840703 -0.000151563881158483 0.00909958834750486)
(0.0818392966944834 0.0159453089847026 -0.0107762922310537)
(0.0577058104204025 0.00717969463620207 -0.0168154398633743)
(0.0487274692896554 0.00654038952333797 -0.00327431368258474)
(0.0470409674355562 0.00563209490829095 0.0105936821578197)
(0.0750363420140242 0.0134363246661091 0.0291907051371206)
(0.0516719177441094 -0.0107752212501538 0.00631479562148233)
(0.0959475046523685 0.0189782196000599 -0.000849692438910064)
(0.054056703940997 0.00245634914823788 -0.00437862728937647)
(0.0476847202156213 -0.0122408641244008 0.000947396468795893)
(0.061635792013366 0.00999212670666126 0.00287787371145529)
(0.0584076905131911 -0.0182430243887583 -0.00744807545934906)
(0.0721458506808331 0.0179184417069433 0.00553090781900252)
(0.0581311969621208 0.00645679440006905 -0.00846010294529882)
(0.0463643294975691 0.00500352791311111 0.0115912750256318)
(0.0607097630272308 0.00661218643387861 0.0027324509788377)
(0.078634929937133 0.0190450267364676 0.00255944132660092)
(0.0499415491101485 0.00822610582765699 -0.00809370828867459)
(0.0761739559480571 0.00914858771172592 0.0072236884423954)
(0.0576877994871944 -0.0102277116643675 -0.0150634038436006)
(0.0715589537952025 0.00416592474896439 0.00959748285996177)
(0.0537349287157877 -0.0104508933949691 0.000363709450357691)
(0.0638458109719835 0.00152388693719687 -0.022430459463262)
(0.0542960777552624 0.000285317670781111 -0.00275269959250321)
(0.0452945256380526 0.00828833595957529 -0.00680332204613952)
(0.0654660733815741 -0.0107239956002887 0.00637445201940121)
(0.0780572607032936 0.00486716925844926 -0.00125775896110722)
(0.0639605121726097 -0.00248407067866458 0.0142245995439263)
(0.0776484152920191 -0.0124249161740797 0.0123316584648193)
(0.0614194731747763 0.00512196466064614 -0.00188358307941512)
(0.0723907703034574 -0.0119359777547307 -0.000394958806030944)
(0.0834576437948681 -0.0218920408380797 0.00490464233491697)
(0.0757302860188666 0.00810333008621563 -7.94471429155177e-05)
(0.0616029197913087 0.0218228439434845 0.00895468053079625)
(0.091018512296158 -0.00254635023637369 0.000616827381609328)
(0.0794767534150529 0.0263892341245122 -0.00325680984348853)
(0.0882801985203937 0.00856785591672694 0.00681823555621685)
(0.0870279548868821 0.0205832482143496 -7.76904256899501e-05)
(0.0783426955970394 0.0105853188845215 -0.0016992993555861)
(0.0794210333385399 -0.0195175529097574 0.000830235154498707)
(0.0697585054771572 0.000694653867529109 0.00841733684389815)
(0.0685870141693752 -0.000795469690240941 -0.00291433911070078)
(0.0548424208572854 -0.0156482526980623 0.00739136512194809)
(0.0827051722295151 0.00545359376842958 0.00600311026532767)
(0.0894442742384914 -0.011271452760036 -0.00767925741650949)
(0.0711918782874708 -0.00645240771385176 0.00660968628157842)
(0.0671745854778903 0.00334863033982096 0.00347264727721976)
(0.074346507636685 -0.00616924123236771 -0.00277382352679072)
(0.0736695944846313 0.0182652144417602 -0.000419233349799637)
(0.0708431518504272 0.0110484969006537 -0.0065970318366124)
(0.0785642946615218 0.000638855743756868 -0.0170137809363469)
(0.0796181009054071 -0.0173356906414726 -0.0228363681513548)
(0.0789498452973529 0.0109451451728126 0.00904331904034554)
(0.0870136881776878 -0.000647615572600439 -0.00198527128091444)
(0.0945976287828776 -0.0044773538273637 -0.00103529975333802)
(0.0927766796154325 -0.00477771464489379 0.000425596952591828)
(0.0720953473660103 0.00829517181140272 0.0163880483243693)
(0.0650387204776552 0.00550967143489603 0.00643664890777403)
(0.0769288553256621 0.00961605723416109 -0.00422751220552292)
(0.0610595911141554 -0.0101295119895267 -0.00202562156433461)
(0.0913871698384333 -0.0035019464067356 -0.0324489253769421)
(0.081392879046585 -0.0136988462422754 0.00956542456724075)
(0.0950554930200119 -0.00120596356509084 0.00265473275540252)
(0.0864898535352348 -0.0192271171151174 0.010171441035475)
(0.0720678315009486 -0.00129762058167176 -0.00711043161741967)
(0.0982766872520261 0.00636983014408121 0.00540211650280243)
(0.0756011665377591 -0.0139879589019759 0.00635725063928631)
(0.0757229740689202 -0.00880886129233651 -0.0116201641573045)
(0.0780985766839612 -0.00102933814675239 -0.00259103330200406)
(0.0796451253826754 -0.0129554438118969 0.00123400910660915)
(0.075842741525922 0.0111135616640604 0.00232727599478396)
(0.0927692980587742 0.00533126290592991 -0.00670330626015314)
(0.0686236248383864 0.0161869574396943 0.00344302232414271)
(0.102736401422434 -0.0286367612257628 0.00120792963772173)
(0.0837758164442237 -0.00891541416835215 0.0138926265746932)
(0.0842636639033992 0.0121943101244483 -0.00525901197846419)
(0.0649463545095307 -0.0158696968262561 0.0109444873978188)
(0.0798971140510511 -0.0004980462849412 0.00216881517913074)
(0.0809917090968424 0.0101188623460126 -0.00812149506865761)
(0.0758242494185642 0.0110315354915713 -0.0071732887810979)
(0.0837572944810144 -0.0141832491954625 -3.31807405136173e-05)
(0.0919115983231508 -0.00969422033191083 -0.00942940052294567)
(0.0853852314111865 -0.00350273285375437 0.00112115295813922)
(0.0729541522029881 -0.00429789883987931 0.0105303868918266)
(0.0703684653951649 -0.00450279941546036 0.000558986473543979)
(0.0853221462068492 0.00244386722143801 -0.0192928127125051)
(0.0762489588384633 -0.00519014249262298 -0.0189896406784969)
(0.077313211112155 -0.00405052735105346 -0.00661181314305473)
(0.087331215486279 0.00280021445751885 -0.00468878276494242)
(0.0829455373507923 -0.00531133600263073 -0.00142508505540346)
(0.083308023368246 -0.00441591364598639 0.0061180901047224)
(0.0841185457903283 0.0128641283603685 -0.00763249642101041)
(0.0887492997365088 -0.00896470144742138 -0.00283494015037154)
(0.083323765690694 -0.0120408530903171 0.0108882317702783)
(0.100242727254234 0.0112732812626628 -0.00337326343911853)
(0.0717072961460404 -0.000202013708832197 0.00837682732774946)
(0.0900759729836148 -0.00437727659195014 0.009018365269286)
(0.0933776589903859 0.00684028145298645 0.00702025454263868)
(0.090924536338012 0.00260346397440817 0.000979499748412828)
(0.0755929380638471 -0.00250529651703994 0.00877581035857628)
(0.0806944691605938 -0.00580638847088898 -0.00331224966288328)
(0.0769790789675033 -0.00216249124247069 -0.00642680974323355)
(0.092811325995358 -0.00725998858689784 0.0118949384464464)
(0.0736592258024773 -0.00082785087707979 0.00488579396929458)
(0.0889030925082857 -0.00501489185618271 0.00908959585580615)
(0.0784766097594101 -0.00904211595033875 0.00390804892024974)
(0.0733156643737367 -0.00809519637456487 -0.000277294489420241)
(0.075933262211495 -0.00657736644198308 0.00512440627102788)
(0.121234971483569 0.00612666438076239 -0.00226377989556047)
(0.0832434529125145 -0.000909173923026105 -0.00242799232712587)
(0.0741591217294279 -0.012099768058211 -0.0157024419907903)
(0.094325681730162 -0.0109796334542733 0.00858215323248974)
(0.10071662441301 0.00863267448653111 -0.00757999999634552)
(0.0684122612299546 -0.0106754662086982 -0.00534550864540912)
(0.0848309343200639 0.00137610770410169 -0.00421180139143064)
(0.107596427725017 0.00712668811367693 0.0170008772145892)
(0.0574266948360477 0.0091367747129882 -0.00135140954178165)
(0.0727046059897069 -0.0137723352236379 -0.00463023571379586)
(0.0785421958972186 0.00461930148612863 0.00890794540316342)
(0.0892893062861497 0.00737068629398322 0.00184475567663476)
(0.0802127437481064 0.0061267718823077 -0.00407527164420797)
(0.0886495411601423 -0.0150882940167558 -0.0111268103058017)
(0.0686607122505375 0.0149239616000879 -0.0131731355426051)
(0.0917235474346988 0.00841964818759713 -0.00243239796018734)
(0.0796696514880327 0.00100493368666078 0.00883059816172616)
(0.0885862310791203 0.00232660327953221 -0.000844066421780397)
(0.102339526992857 0.00131960255800098 -0.00514381107331776)
(0.101064149580608 -0.0101135579981498 0.000115710492914322)
(0.0834131082180553 -0.0148987252275935 0.00776318162426214)
(0.0735084491852835 0.00800183294195086 -0.00692640879153603)
(0.112482976404574 -0.0298269314374228 0.0142650288551488)
(0.0934353753010997 0.00125276612195968 -0.00776328887529135)
(0.0964933059051563 0.0165837425276974 0.00655747401534255)
(0.0766240640218318 0.00211984386060466 -0.0253457950150154)
(0.0637860616347799 0.00379639489264609 0.000190487505917146)
(0.0858070743817362 -0.00455685010075713 -0.00491641674909307)
(0.089579694889985 -0.0194057215334305 0.00576728599609074)
(0.0743546826068033 -0.0100466989359151 -0.0100340134318761)
(0.082065750019578 -0.00904029015103397 -0.00121723790716717)
(0.0700979717092585 -0.00456005464438539 0.00705622970670581)
(0.0755517449825385 -0.00650643873951175 0.000948457947113851)
(0.103773387730711 -0.0033568097685184 0.0026314861916321)
(0.0967673512721605 -0.00369094038389417 0.00419399287107055)
(0.0746589676812647 -0.00205554632272765 0.00147181705555548)
(0.0869127236582822 0.0171183741976388 -0.00520210859675606)
(0.071326001486662 -0.0101889920509839 0.0040745347969647)
(0.0543516663276223 0.00848020525885519 -0.00933203047559429)
(0.0935065678033815 0.00362190829874672 -0.00986474268527729)
(0.0867440295574333 -0.000820158693599531 0.000707494819873205)
(0.0753958509154943 0.00164413225069358 0.00290774489304338)
(0.0929167571860129 0.00587788041663261 -0.012369406407771)
(0.085204762399717 0.00731839247149612 -0.00136662307353821)
(0.0759298231405963 0.00387286148928891 -0.00836684039939877)
(0.0829437849253856 0.00515675478485392 -0.00384546928498259)
(0.0965795142821088 0.00192800818152454 -0.00186199302449165)
(0.0829969689638537 -0.0158373747624345 0.000427109241795412)
(0.0816443563316594 0.00903890804574642 0.00343331978855583)
(0.0900806447015686 -0.0150506436929417 -0.00308651263775517)
(0.0615342059189962 -0.00730132957456689 -0.00719840186304511)
(0.0720877427755229 -0.00419542501097263 -0.00861964171692692)
(0.0968199124201026 0.0147192536963722 0.00319913977548697)
(0.0807756353718458 0.00403671664630357 -0.0017291308125742)
(0.0974604640357856 0.0100885453268519 0.00389788259302117)
(0.0776735128254711 -0.00934340274043033 -0.00361626745117683)
(0.0852974298919226 0.00971282496723807 -0.00495014064975494)
(0.0845924926055074 -0.0168950441291322 -0.0200112146985055)
(0.0860980670985863 0.00124591703656958 0.00398904165760446)
(0.0924123473056457 0.00427663569950091 0.00487663734053879)
(0.0812319642666858 -0.0024689299936589 0.00851475073622631)
(0.0705809363021557 0.0048121866313138 0.00394202813005482)
(0.07296967231675 0.0142580894100816 -0.0158915829466221)
(0.109395084613481 -0.00413727129647021 0.00973535563543728)
(0.0790188101106909 -0.00350371739958386 -0.00347949380725379)
(0.085838234434168 -0.00256468242761775 4.94783339926375e-05)
(0.06966633740322 0.00151882571495448 0.0186750148514529)
(0.0766949747479943 -0.0156153156432118 -0.00401436430913885)
(0.0823484322026862 0.00823688218504721 -0.000584974414229913)
(0.0889632417080047 0.00665586508788236 0.00817711949398306)
(0.0577521230823071 -0.00314507869716121 0.00185299642923944)
(0.084197880454719 -0.00391761211865712 -0.00718433873703683)
(0.0873716055295257 -0.00837235312622735 0.00875505771057776)
(0.076520730016519 -0.0101147849873649 -0.0057871619364335)
(0.0893441883493971 -0.00470898801759188 0.00764004576220426)
(0.0828653840943896 -0.00441672563688816 -0.00892184886034986)
(0.0914131044391641 0.0197250801645364 0.00378742719304279)
(0.0759611606806877 -0.0102446520309942 0.0132939715113169)
(0.0747376084257307 -0.00273525449098278 -0.0178713152730499)
(0.0759845646233578 -0.0171857198616994 -0.0110361162804423)
(0.0967224178927079 0.00986479463100422 -0.0198583212276985)
(0.101869639045806 0.00637754095832517 -0.00698566993074068)
(0.0833382727292305 -0.00310596296065149 -0.00193926597282975)
(0.0906053035572116 0.013482247437903 -0.000370885433532831)
(0.0896673061016783 -0.000560815756238936 -0.00227105519227058)
(0.092369348152454 0.00112339829358056 0.0104605591943351)
(0.0817003324412292 0.00188333798488113 -0.00437771013432797)
(0.119770445429395 -7.75746245305338e-05 -0.00528194757208939)
(0.0729618435347504 0.000858111874734973 -0.00958586097587645)
(0.0942964060515667 0.00178799018084841 0.0122436281854807)
(0.0735323949716825 0.00870535192228785 -0.00360167311594354)
(0.061042439639117 0.0123108354642239 -0.00646761654673776)
(0.0986914986690258 0.0172391438308831 -0.00554114795013073)
(0.0903235112880327 -0.0082976736479883 0.000497521825777649)
(0.0761016096350254 -0.00274412445426338 -0.00377781780949608)
(0.0877784475140072 0.00565534680583083 -0.0109347484376177)
(0.0893581593002196 0.00993842659066421 -0.00322198497544582)
(0.0785837405109456 -0.00713247997719722 -0.00572923368105244)
(0.0682320636082987 0.00318764815622574 0.005598275535177)
(0.105499195511558 0.0106282654090203 -0.00916596701313247)
(0.0612390871714106 -0.00382087675797891 0.00205530211754537)
(0.0945941464662902 -0.0219487327790134 -0.00392346878723149)
(0.0828698845582478 0.00713893817779771 -0.00314687419074502)
(0.0987036058382808 -0.0107850246077398 0.00177417068794767)
(0.0721731609160064 -0.0116835691338748 -0.00567775325791442)
(0.112483168919701 0.00315893947663163 0.020701157738812)
(0.0749986095835342 -0.007905296351196 0.00658753886160986)
(0.0927341345774608 0.00495331122307665 0.000226906002016962)
(0.0951760958160714 0.011623346764383 0.0212100648373259)
(0.0876526061491403 0.00252812508782649 0.00971101971259632)
(0.0888578431318211 0.0037803408944257 -0.00529513658458677)
(0.0744278422166774 -0.00786136959569709 -9.88599066919927e-05)
(0.0807943101757862 0.0070376352728055 0.00520581963248581)
(0.0782269367190191 0.00319647918827198 0.00137653912048938)
(0.0934886214779926 -0.00119770655370486 0.0131009565906903)
(0.0793983999811615 0.00628830401478704 0.00242761856788295)
(0.0922820999156329 0.00654577809608045 -0.00817903226149706)
(0.0575669459243543 -0.000470589568967433 -0.0112168231481101)
(0.068921929492274 0.00313389190089906 -0.00595131762516277)
(0.0990658116096897 0.01450360375164 -0.0201520042026431)
(0.0667294038719177 -0.00732365756561993 0.000660429335011612)
(0.0750647961259559 0.0206803418065982 -0.0178506621247033)
(0.0807492894143696 -0.00604704986539294 0.00479182418969451)
(0.0734222933303612 -0.0141632665830786 0.007424745174304)
(0.0741562472063873 -0.00626057229943621 0.00968826893112318)
(0.0952180515216717 -0.00110468100775368 0.00137459135530205)
(0.0763379944633549 0.0116538291941689 -0.00445887720234951)
(0.066117215668491 -0.00707678755669334 -0.0107788539824589)
(0.0987504972986142 0.00632201590736382 -0.0138252415612909)
(0.102533539305303 -0.00214301186133196 0.0143884420264046)
(0.0704481001628538 0.0137110520504601 0.0109015398587544)
(0.0715008500258649 -0.00288208769787487 0.00412474411255487)
(0.0660147557162356 -0.00546930636738369 -0.00181081822310189)
(0.0728983158051887 -0.00274671244455907 0.010299878544014)
(0.0876635593873775 0.00526404169786305 0.00195245718900908)
(0.0925679488213557 -0.00316735360971711 -0.00187764716700726)
(0.0663127699130516 -0.00708494064595365 0.00914248536353291)
(0.0861036103639942 0.0182877771353046 0.0122353011579963)
(0.0662958070227303 0.0189209791600567 -0.00716533406857424)
(0.0922710538428399 0.0134571838346433 0.00650779268498837)
(0.0827047018047933 0.000344602960309509 -0.00288780608307837)
(0.0666953412837907 -0.00297797664961855 -0.00108812620080322)
(0.0838309287774966 0.00221631147952145 -0.0166017346153688)
(0.104601721112105 -0.00803283373002967 0.0122174659312956)
(0.0954156485111963 0.00416131145856307 -0.00660742997012902)
(0.0967020222680612 -0.00608143271651566 -0.00859334716533116)
(0.074343548291232 0.0118476288557219 -0.00579733397221934)
(0.0982524027832842 -0.011054463559239 -0.0120327313330397)
(0.0730775067701549 -3.17260387726346e-05 -0.00166276789457401)
(0.0870734539093336 -0.0154912857435453 -0.0148477306965973)
(0.0978873031600361 -0.0111685558749342 -0.00596153516350113)
(0.0698316791994555 0.0096246908727901 0.0106612200362931)
(0.0845503628855648 0.00527963367366214 -0.00879191288574448)
(0.0894986559984056 0.00744988569690008 0.000221514829831139)
(0.0754573547709029 -0.0100949922607427 -0.00558814626435895)
(0.103605567968677 -0.0164576518409433 0.0132319124628021)
(0.0808601188305629 0.0100033398616538 -0.00653379452772185)
(0.0939988686451351 -0.0111157987700355 -0.0121764491101939)
(0.0925556069917149 -0.021378786980983 -0.0066299303197889)
(0.0845571457756919 -0.00800884389324925 -0.00117513366628183)
(0.0780090960925796 -0.00611384802406109 -0.00350695392456609)
(0.0788453242302052 0.00994383239597838 0.0124122408231277)
(0.0855496567877497 0.00106338121628889 0.00362564435001646)
(0.099046255336717 0.00961455430838711 0.0121799344698258)
(0.0990218253432083 -0.0115895747305318 -0.00489536707321912)
(0.0887743296944703 0.00450990673921032 0.00640695754116908)
(0.106797110197622 -0.00547024205868853 0.00426894607094215)
(0.0874451902660904 0.00266954430056599 -0.00444262585779531)
(0.120007295222652 -0.00963646897801731 -0.000993403992091749)
(0.0850118693865096 0.00454962356725776 -0.0121049740177558)
(0.122778915280728 -0.00432346891372021 0.0186692094388739)
(0.078315509551355 -0.000765213788925402 -0.000108081428963965)
(0.111993877485194 -0.0119344598887511 -0.00843496734950997)
(0.117453494842454 -0.00678854204262447 0.0255167372534564)
(0.102552072103883 -0.00887871400088789 -0.00396596154326665)
(0.109994369380574 -0.00757831962473057 -0.000477060902389185)
(0.0863979488213459 -0.00288745949047232 -0.000113560232860446)
(0.111138077695906 0.00935189251777923 0.0124358038061665)
(0.112237148306764 -0.000790528597881805 0.00958496909778366)
(0.110104204718156 0.00472900466887513 -0.0166043336612966)
(0.112494700333757 0.00173526201916534 -0.00391517758429101)
(0.113700335610605 0.00968301806633854 -0.00570165009990538)
(0.113397631230896 -0.00439585147507587 0.00234173557217649)
(0.11142739932047 0.0085197385157344 -0.00957308428386512)
(0.113128007865737 0.0042707522383089 0.0018966269303944)
(0.101013536070018 -0.00612256515787604 -0.0140357554732631)
(0.13196699630613 -0.000494287156620411 -0.000939421844381141)
(0.115288194511147 -0.00346410874931011 0.000525471908611922)
(0.117336252118101 -0.00291873176938551 -0.00753132432776549)
(0.141350602418333 0.0195616223223721 -0.00340897311089808)
(0.125485296630824 0.00496543435854455 -0.00461664830173873)
(0.129478588409591 -0.0042848125854845 0.00329809505747777)
(0.127117232166279 -0.010893207809124 0.00199216096961986)
(0.121470678180907 0.0028526439787537 0.000439129490383485)
(0.135620092274888 0.00319995502459565 0.00419684561814917)
(0.112191607750846 0.00500378158771562 -0.00797439269961636)
(0.122398338990439 -0.00546933472518071 -0.00441167588462558)
(0.0887514771991948 0.00811875512027124 0.0123867613529997)
(0.131399929566478 -0.0170219458228937 -0.00308836972228379)
(0.115134340681884 0.00687072443143647 0.0143159524901102)
(0.103960898170806 0.0054883260132139 -0.00139480718722034)
(0.13263573614949 0.00177823716270876 -0.00896600308692234)
(0.128325592925215 -0.00378411784560942 -0.00352453468879931)