/*--------------------------------*- C++ -*----------------------------------*\
  =========                 |
  \\      /  F ield         | OpenFOAM: The Open Source CFD Toolbox
   \\    /   O peration     | Website:  https://openfoam.org
    \\  /    A nd           | Version:  7
     \\/     M anipulation  |
\*---------------------------------------------------------------------------*/
FoamFile
{
    version     2.0;
    format      ascii;
    class       volScalarField;
    location    "0.0036/particle";
    object      rhoM;
}
// * * * * * * * * * * * * * * * * * * * * * * * * * * * * * * * * * * * * * //

dimensions      [1 -3 0 0 0 0 0];

internalField   nonuniform List<scalar> 
600
(
0.000412919999999999
0.0003813
0.000420360000000002
0.000431519999999996
0.000388739999999999
0.000424079999999999
0.000388740000000002
0.000455699999999995
0.000414779999999999
0.000388739999999999
0.000435240000000002
0.000396179999999996
0.000485460000000009
0.0003627
0.000448259999999999
0.000418500000000002
0.000399899999999996
0.000425939999999999
0.000450119999999999
0.000399900000000002
0.000437099999999996
0.000433379999999999
0.000411059999999999
0.000422220000000002
0.000401759999999996
0.000438959999999999
0.0003813
0.000416640000000002
0.000412919999999996
0.0003441
0.000409199999999999
0.000411060000000002
0.000403619999999996
0.000407339999999999
0.00037944
0.000373860000000002
0.000442679999999996
0.000414780000000008
0.000399899999999999
0.000435240000000002
0.000392459999999999
0.000412919999999996
0.000459419999999999
0.000398039999999999
0.000429660000000002
0.000431519999999996
0.000409199999999999
0.000416640000000002
0.000394319999999999
0.000424079999999996
0.000422219999999999
0.000403619999999999
0.000407340000000002
0.000399899999999996
0.000433379999999999
0.000451980000000002
0.000409199999999999
0.000411059999999996
0.00038316
0.00037386
0.000466860000000002
0.000401759999999996
0.000414780000000008
0.000459419999999999
0.000418500000000002
0.000438959999999999
0.000422219999999996
0.000401759999999999
0.00038316
0.000366420000000002
0.000390599999999997
0.000405479999999999
0.000427800000000002
0.000409199999999999
0.000440819999999996
0.000429659999999999
0.000416639999999999
0.000398040000000002
0.000424079999999996
0.000438959999999999
0.000394320000000002
0.000418499999999999
0.000403619999999996
0.000448259999999999
0.000425939999999999
0.000425940000000002
0.000379439999999997
0.000364560000000008
0.00036456
0.000418500000000002
0.0003627
0.000390599999999997
0.000392459999999999
0.000399899999999999
0.000353400000000002
0.000459419999999995
0.000414779999999999
0.000403620000000002
0.00034596
0.000403619999999996
0.000375720000000008
0.000349679999999992
0.000383160000000008
0.000379439999999991
0.000373860000000008
0.000401759999999996
0.000360840000000008
0.000394319999999985
0.000383160000000008
0.000362699999999992
0.000353400000000008
0.000375719999999991
0.000412920000000008
0.000409199999999996
0.000358980000000008
0.000388739999999985
0.000342240000000007
0.000355259999999992
0.000370140000000008
0.000358979999999992
0.000347820000000008
0.000355259999999997
0.000379440000000008
0.000379439999999985
0.000327360000000007
0.000353400000000008
0.00039803999999999
0.000342240000000007
0.000329219999999993
0.000372000000000008
0.000349679999999997
0.000385020000000008
0.000355259999999987
0.000351540000000008
0.000316199999999993
0.000308760000000007
0.000357119999999992
0.000325500000000007
0.000334799999999998
0.000353400000000008
0.000358979999999986
0.000403620000000008
0.000349679999999992
0.000364560000000008
0.000388739999999991
0.000297600000000007
0.000314339999999998
0.000358980000000008
0.000325499999999988
0.000319920000000007
0.000321780000000007
0.000366419999999991
0.000301320000000007
0.000297599999999994
0.000301320000000007
0.000332939999999998
0.000299460000000007
0.000303179999999989
0.000306900000000007
0.000318059999999993
0.000303180000000007
0.000278999999999994
0.000286440000000007
0.000282719999999998
0.000282720000000007
0.000321779999999988
0.000345960000000008
0.000305039999999993
0.000275280000000007
0.000292019999999994
0.000301320000000011
0.000292019999999994
0.000284580000000007
0.000355259999999987
0.000344100000000007
0.000241800000000006
0.000301319999999994
0.000293880000000007
0.000288299999999994
0.000279000000000011
0.000295739999999994
0.000288300000000007
0.000332939999999988
0.000280860000000007
0.000284579999999994
0.000260400000000006
0.000275279999999999
0.000273420000000003
0.000236219999999999
0.000319920000000007
0.000230639999999992
0.000271560000000007
0.000264119999999995
0.000243660000000006
0.000236219999999995
0.000271560000000011
0.000318059999999993
0.000282720000000007
0.000262259999999991
0.000243660000000006
0.000323640000000007
0.000280859999999994
0.000288300000000007
0.000280859999999994
0.00024924000000001
0.000284579999999994
0.000269700000000007
0.000247379999999991
0.000230640000000006
0.000273419999999994
0.000247380000000006
0.000265979999999999
0.000243660000000002
0.000215759999999999
0.000238080000000006
0.000260399999999991
0.000260400000000006
0.000267839999999995
0.000247380000000006
0.000251099999999995
0.000273420000000011
0.000252959999999995
0.000262260000000006
0.000234359999999992
0.000234360000000006
0.000232500000000006
0.000265979999999995
0.000260400000000006
0.000236219999999995
0.000239940000000009
0.000195299999999996
0.000228780000000005
0.000239939999999992
0.000239940000000006
0.000221339999999995
0.000238080000000006
0.000219479999999999
0.000223200000000002
0.000217619999999999
0.000252960000000006
0.000215759999999992
0.000243660000000006
0.000215759999999996
0.000204600000000005
0.000206459999999996
0.000210180000000008
0.000228779999999995
0.000228780000000005
0.000223199999999992
0.000217620000000005
0.000221340000000005
0.000238079999999995
0.000210180000000005
0.000251099999999995
0.000202740000000008
0.000193439999999996
0.000212040000000005
0.000223199999999992
0.000206460000000005
0.000221339999999995
0.000225060000000005
0.000204599999999999
0.000232500000000002
0.000217619999999999
0.000204600000000005
0.000221339999999992
0.000193440000000004
0.000193439999999996
0.000215760000000005
0.000182279999999996
0.000219480000000008
0.000228779999999995
0.000193440000000004
0.000187859999999993
0.000260400000000006
0.000204600000000005
0.000217619999999995
0.000225060000000005
0.000230639999999995
0.000189720000000007
0.000215759999999996
0.000236220000000006
0.000182279999999993
0.000215760000000005
0.000189719999999996
0.000243660000000006
0.000178559999999999
0.000258540000000002
0.000176699999999999
0.000215760000000005
0.000213899999999992
0.000212040000000005
0.000223199999999995
0.000204600000000005
0.000215759999999996
0.000204600000000008
0.000271559999999995
0.000234360000000006
0.000221339999999992
0.000186000000000004
0.000161820000000004
0.000213900000000005
0.000243659999999991
0.000213899999999999
0.000202740000000011
0.000202739999999999
0.000189719999999987
0.000247380000000006
0.000226920000000005
0.000176700000000004
0.000200879999999987
0.000208320000000011
0.000178559999999999
0.000200880000000011
0.000247379999999977
0.000208320000000005
0.000243660000000006
0.000193440000000004
0.000202739999999993
0.000197159999999999
0.000245520000000013
0.000217619999999999
0.000200879999999987
0.000221340000000005
0.000172980000000004
0.000199020000000005
0.000238080000000006
0.000232499999999992
0.000236219999999999
0.000200880000000011
0.000204599999999999
0.000217619999999986
0.000208320000000005
0.000243660000000006
0.000195300000000005
0.000213899999999986
0.000202740000000011
0.000213899999999999
0.000204600000000011
0.00021017999999998
0.000202740000000005
0.000189720000000004
0.000186000000000004
0.000208319999999993
0.000180419999999999
0.000208320000000011
0.000232499999999999
0.000184139999999988
0.000213900000000005
0.000200880000000005
0.000234360000000006
0.000171120000000004
0.000200879999999993
0.000232499999999999
0.000219480000000012
0.000206459999999999
0.000189719999999987
0.000195300000000005
0.000225060000000005
0.000251100000000006
0.000215759999999986
0.000236220000000013
0.000199019999999999
0.000226920000000012
0.000176699999999983
0.000199020000000005
0.000239940000000006
0.000232500000000006
0.000189719999999993
0.000212039999999999
0.000225060000000012
0.000213899999999999
0.000212039999999986
0.000232500000000006
0.000184140000000004
0.000195300000000005
0.000217620000000005
0.000238079999999992
0.000223199999999999
0.000230640000000012
0.000200879999999999
0.000208319999999986
0.000252960000000006
0.000230640000000006
0.000206460000000005
0.000215759999999986
0.000180420000000009
0.000199019999999999
0.000232500000000012
0.000193439999999982
0.000187860000000004
0.000186000000000004
0.000202740000000005
0.000243659999999991
0.000208319999999999
0.000200880000000011
0.000187859999999999
0.000195299999999987
0.000210180000000005
0.000219480000000005
0.000223200000000005
0.000189720000000004
0.000241799999999992
0.000202739999999999
0.000204600000000011
0.000200879999999999
0.000167399999999989
0.000204600000000005
0.000225060000000005
0.000228780000000005
0.000206459999999986
0.000241800000000013
0.000234359999999999
0.000200880000000011
0.000197159999999981
0.000178560000000004
0.000208320000000005
0.000223200000000005
0.000243659999999991
0.000221339999999999
0.000212040000000011
0.000223199999999999
0.000195299999999987
0.000226920000000005
0.000228780000000005
0.000200880000000005
0.000213900000000005
0.000228779999999992
0.000217619999999999
0.000247380000000013
0.000225059999999999
0.000241799999999984
0.000243660000000006
0.000225060000000005
0.000200880000000011
0.00021575999999998
0.000206460000000011
0.000265979999999999
0.000223200000000012
0.00021203999999998
0.000243660000000006
0.000236220000000013
0.000273419999999999
0.000223199999999992
0.000299459999999998
0.000226920000000012
0.000238079999999999
0.000273419999999982
0.000251100000000014
0.000278999999999998
0.000245520000000006
0.000295740000000007
0.00028271999999999
0.000292019999999998
0.000293880000000016
0.000303179999999998
0.000269699999999983
0.000308760000000007
0.000293880000000007
0.000251100000000014
0.000377579999999963
0.000286440000000015
0.000282719999999998
0.000310620000000016
0.000293879999999972
0.000319920000000007
0.000327360000000017
0.000293879999999998
0.000329219999999988
0.000299459999999998
0.000316200000000017
0.000273419999999999
0.000332939999999978
0.000280860000000015
0.000293879999999998
0.000327360000000007
0.000277140000000007
0.000327359999999988
0.000297599999999998
0.000264120000000014
0.000318059999999998
0.000312479999999979
0.000293880000000007
0.000318060000000007
0.000303180000000016
0.000277139999999974
0.000292020000000015
0.000332939999999998
0.000293880000000016
0.000321779999999969
0.000312480000000007
0.000303180000000016
0.000301319999999998
0.00028643999999999
0.000312479999999998
0.000314340000000016
0.000280859999999998
0.000349679999999976
0.000332940000000017
0.000297599999999998
0.000338520000000007
0.000321780000000007
0.000334799999999988
0.000278999999999998
0.000284580000000015
0.000362699999999997
0.000334799999999978
0.000306900000000007
0.000308760000000007
0.000299460000000016
0.000284579999999973
0.000271560000000015
0.000310619999999998
0.000318060000000017
0.000290159999999972
0.000279000000000007
0.000275280000000015
0.000284579999999998
0.000321779999999988
0.000293879999999998
0.000301320000000016
0.000314339999999998
0.000332939999999978
0.000277140000000015
0.000271559999999999
0.000312480000000007
0.000345960000000008
0.000318059999999988
0.000306899999999998
0.000355260000000018
0.000340379999999997
0.000336659999999977
0.000295740000000007
0.000321780000000007
0.000321780000000017
0.000306899999999971
0.000316200000000017
0.000288299999999998
0.000239940000000013
0.000174839999999983
0.000124620000000003
9.48600000000048e-05
0.000130199999999999
0.000122759999999995
0.000117179999999999
0.000124620000000006
0.000133919999999999
0.000163679999999989
0.000124620000000006
0.000117179999999999
0.000133920000000003
0.000111600000000002
0.000124619999999995
0.000143219999999999
0.000126480000000006
0.000130199999999999
0.000120899999999992
0.000148800000000003
0.000141360000000003
9.30000000000047e-05
0.000120899999999988
0.000122760000000006
0.000128339999999999
0.000102300000000005
0.000124619999999988
0.000107880000000002
0.000107880000000005
0.000130199999999999
0.000122759999999995
0.000130199999999999
0.000115320000000006
0.000128339999999999
0.00014693999999999
0.000135780000000007
0.000126479999999999
0.000143220000000003
0.000120900000000002
0.000119039999999995
0.000120899999999999
0.000143220000000007
0.000120899999999999
0.000128339999999991
0.000132060000000003
0.000126480000000003
0.000100440000000005
0.000143219999999986
0.000113460000000006
9.85799999999991e-05
0.000132060000000007
0.000115319999999989
0.000109740000000002
0.000102300000000005
0.000128339999999999
0.000117179999999995
0.000109739999999999
0.000126480000000006
0.000139499999999999
0.000113459999999992
0.000124620000000006
0.000133919999999999
)
;

boundaryField
{
    DSMCSide
    {
        type            symmetry;
    }
    DSMCBound
    {
        type            symmetry;
    }
    nullDims
    {
        type            empty;
    }
}


// ************************************************************************* //
