/*--------------------------------*- C++ -*----------------------------------*\
  =========                 |
  \\      /  F ield         | OpenFOAM: The Open Source CFD Toolbox
   \\    /   O peration     | Website:  https://openfoam.org
    \\  /    A nd           | Version:  7
     \\/     M anipulation  |
\*---------------------------------------------------------------------------*/
FoamFile
{
    version     2.0;
    format      ascii;
    class       volScalarField;
    location    "0.0036/particle";
    object      translationalT;
}
// * * * * * * * * * * * * * * * * * * * * * * * * * * * * * * * * * * * * * //

dimensions      [1 2 -2 0 0 0 0];

internalField   nonuniform List<scalar> 
600
(
908.566333299418
880.991530772475
844.684786432395
921.899341922221
937.448417835059
880.243150721761
828.9701162792
917.590496577224
999.853229385266
847.810093089569
948.198645493099
835.434860552027
877.710575087583
882.878600052199
978.053992057885
871.282553016239
899.195914069658
861.604363780717
1000.07821975413
890.474585941824
816.559792867781
878.324996086635
841.906308543359
897.010302736446
937.682078800215
862.1463882088
919.049011204697
911.378450375625
907.171798146574
968.057984937093
948.698008606693
933.722231333592
936.902157200223
968.131759407356
802.34827816194
877.128748253297
898.90335307077
902.866445526017
858.620968646437
906.713365401152
902.493250838064
875.637528794545
887.040697244546
828.099218822278
863.513789566641
969.184775039401
888.96025236293
825.955272300673
898.93156695033
893.715460091265
820.187345157215
936.062777438334
843.423213963102
876.530242716681
877.316355988364
932.859106762389
872.067632773531
945.583895903332
995.108048439218
937.31483295109
881.489970149655
962.819068312397
907.865538610024
837.032154130923
877.27774373261
931.247945474135
908.260254238392
870.640229786223
901.274649163268
890.095175970445
903.910085233109
906.904846879453
909.579002287377
870.529363049752
851.294622053454
802.738878417577
833.233607551006
883.495150930916
906.865728580882
869.723616808189
818.205981342456
895.936741004714
955.830018154443
926.172086460103
840.06844712767
885.944535400027
796.967695914823
851.131851318718
892.715677268587
935.501081732285
895.898330058807
954.223215641736
883.6319030072
825.480851261482
857.780096946052
827.591500226856
890.959707432013
931.461220205103
796.50897151747
979.288274211876
987.360986367444
855.634563314033
970.573927255694
884.227884152838
889.591206554149
836.574205318121
795.972434528362
879.033186429882
843.004696319197
790.951659788434
816.989511338541
901.904011590145
884.435647602537
903.473311198337
851.784264830771
870.212251743021
903.357907572834
863.378664818751
895.494735712129
855.184319064522
793.616137318032
805.33944505979
875.045192694261
750.036823811674
872.743792324638
776.297046560251
837.516847900909
852.046904852007
833.991379802128
746.112324525364
875.084840485545
802.089306372229
855.717586637775
854.398117602337
773.754422475633
844.340944627317
815.088418485164
746.566995173982
885.250333155247
853.060998495412
787.846322166226
808.944428300853
805.927995551046
783.095197010722
831.139214926494
942.679154355038
820.531556652861
812.644450756935
835.34046291608
805.666079855308
805.265194106178
775.933762038013
844.117581235702
824.778551462614
886.34370384438
781.491897723666
803.711857942263
752.43676470314
799.098611863738
748.376263670748
752.570903567942
772.349162367188
732.895003240389
836.516758545589
802.761804777438
811.673033322621
844.335755723586
713.367473691438
705.98885943332
721.521987273732
669.54964527151
783.09590053103
744.524444214416
744.835034136692
771.631398452218
737.811794675839
800.150827272586
799.909732058103
787.487044280231
762.861572947069
853.664445782838
749.78837923785
768.611935794787
751.95097415264
815.357758403459
814.690637070685
807.749280672395
732.750856236374
755.233615816574
697.337355136534
658.617112090692
758.775169938775
785.342037223061
682.708565275775
798.378757338716
703.434611210588
676.364870526969
751.06510351705
776.880165904635
780.566469179026
819.363015285969
725.486524508005
710.463669964735
749.514301889365
745.687990924469
734.469240730902
852.337798415481
768.939619731205
598.613125089365
824.716226431448
766.000963441722
749.554040518263
779.658075559723
672.860512709341
615.288780617003
819.707378852921
775.499533119666
679.330044376977
811.771445005514
620.772703486342
632.795491904316
788.661897968013
734.131327017979
677.610101507178
682.367240476874
683.34412835241
716.867910860952
661.914382724611
763.234797857306
713.375325102944
694.029029093794
720.861660773392
639.239418398426
714.219142901918
699.627788600688
614.220120787902
718.468391356286
718.83408580044
709.921056321405
725.475670479597
730.640926027786
643.880453545282
639.866420010077
605.353704607222
687.601777428011
703.964441788481
672.919519863725
703.993754628016
698.502775031504
665.643959084322
701.621216374952
596.523729007232
667.465856895865
804.127196200192
793.120016099451
629.214796419482
610.132579751093
736.751842458792
728.067236064139
676.82411707497
722.110149462234
633.248869233707
631.582865435254
693.746221742166
711.057136134826
770.796841444719
666.592928160144
743.295607135361
698.723076307576
741.15823377753
647.004403847401
656.553230266875
681.330562839532
648.443945361355
655.589497340144
623.083432372
732.037722840067
658.955324693844
774.385646800474
729.350197890664
635.68184096279
730.659698595776
779.867255592419
627.580991979515
651.275350784054
713.769031893058
679.501303637263
697.197474988897
651.771919862707
703.720139200543
683.068079692665
719.189548985836
585.455330001183
613.585291554545
711.523092275994
683.231043355436
741.626082481988
725.079469944588
695.198082432437
742.898920450755
789.999274812508
614.999883708142
678.451526516934
622.099693679081
593.701776454974
675.176523161257
627.98108099466
673.248105486242
757.609340677315
597.322873196639
698.798353041677
674.009844925844
710.041075863937
634.133128852494
580.777958885802
653.870824855724
763.022497264449
596.563133429646
644.780049470831
760.308774746434
742.734047054215
621.57108585763
704.495033398275
650.378448892558
687.872736867927
621.191716202838
592.708742438393
671.5864302983
639.191835115245
655.137651428232
660.366581229836
625.866505260126
725.562814816972
695.592375615929
782.522152393573
631.152526880499
654.123810107198
645.483983902834
646.598355528665
632.990775030001
576.415377316158
740.583712014702
635.777883318029
823.287456382119
655.842512848965
663.639929181663
645.165047524111
678.00199356977
675.117564960592
712.275332703074
676.868812280097
661.297133988129
685.644797855733
717.765084283209
648.110511890223
595.430982699735
680.113586371799
635.458123533627
643.210976734875
680.656915515614
696.370690894803
724.008666955127
701.079625660006
634.881914267239
697.779817626087
638.334656854555
719.192166062882
735.568266398311
787.231607698806
735.3685615903
612.110854715168
725.693576928113
711.091020078986
597.438536448541
719.854217998685
654.121147164383
626.285923923637
555.506803996697
664.91971819666
711.899588338747
725.758633086267
644.064457706215
688.602835388699
653.7676188711
611.477566195875
617.878498051486
701.614165426304
662.677628819803
680.007185688375
717.131408238594
764.962145138057
632.421294409633
759.549663491401
713.733010804251
654.150461984137
661.650594157345
683.477388557889
612.790435025764
711.84595314172
750.534980639942
591.801624718383
775.671982763508
667.464598391682
652.535647506774
692.763086181904
573.204420262957
676.548867665183
601.104554281302
738.678731727181
622.026686085659
724.003255411689
673.29763014136
721.821301872018
772.178468949778
697.05011961603
783.240738694681
706.61656752263
710.462677291679
637.899440078907
615.307198334078
748.291407986019
641.373314430153
671.372556886124
689.175704385884
709.085691173522
715.276238715243
662.181709162734
681.966371127688
646.846262048482
672.036694155274
709.694658580901
640.727109074359
608.073823198285
610.557393577236
567.605636037923
622.724463163511
604.144001703014
575.145968465008
608.2437992217
547.203835611484
558.220552960415
514.767633190232
581.482303218897
659.901834968826
540.767599359482
577.385480027359
501.700713385744
534.629028431151
525.905064918438
517.478189922007
500.665736939303
464.069803746307
473.641303420244
480.860886455497
480.060831365069
525.709196939623
455.54941673287
480.703947420483
482.497481927161
395.904287593048
447.797675333419
486.186358132242
491.821982704464
458.758447973723
512.064188670866
501.822732986217
463.207942054096
471.675808173673
472.43271075889
445.298572859084
445.649882385576
476.567459686502
450.295878861234
482.874205515566
427.439801729881
515.278930698567
514.257347447223
479.398508733307
496.921967767065
461.461187812205
423.832255580122
458.941349419163
436.936530937784
453.998023521417
511.314166193437
410.813107909298
494.15985616855
480.891966796428
473.836883831605
505.848712442152
542.486197162484
480.311854842917
477.372819832256
455.722704011658
460.18246604772
492.580751055927
444.469013703436
514.308654764379
454.72438328128
430.78431639995
516.651303925221
437.141143608545
432.944033748514
495.993575996312
510.428924786034
459.934201719247
510.200343972331
475.186927380273
474.470845240132
480.312950415566
463.658094497172
476.579215307356
480.002586726748
507.469601111245
515.78047864462
445.529805324155
509.450585479649
460.150813038426
437.654610221822
480.168346628151
522.940474526321
498.695696609283
504.806181896191
474.088436369636
435.900082218491
492.685189150756
441.227732369442
478.63898028604
488.9657032955
515.964570410229
435.597852314407
475.689856646893
488.298001534159
532.964691695933
493.924775736794
469.909000003818
517.040077669342
420.377937442987
442.546773912201
421.109815074041
359.70197901325
314.841434095658
347.292891902316
294.23418070768
336.475238792822
310.558393949344
261.907889050841
270.074371977602
314.228594470105
272.165121318327
305.539643831565
342.988678041472
285.566632766225
319.590681935745
277.413401600796
245.074201635422
269.448076678227
293.596413657341
274.280200700505
310.055439501394
282.108064399528
304.200248972868
279.935330538933
250.842359805873
351.610432778267
293.709114232935
321.382775508812
321.989004520885
363.509913754327
297.290697653492
288.593259426482
322.52744907958
299.275561201481
309.063193943294
294.154130737421
302.988132209626
323.000973411172
310.702159760191
291.587927672242
287.450753822743
347.596593750726
267.02974603893
295.994593511556
272.618822371711
267.353325463439
280.889515399207
253.342593914328
334.423053525174
315.442594615893
297.825303390514
296.036807924955
343.844638970973
345.753393895905
305.939355739304
286.535556560684
302.478030683166
307.724426982006
331.245030414607
293.28032486607
261.368309770499
)
;

boundaryField
{
    DSMCSide
    {
        type            symmetry;
    }
    DSMCBound
    {
        type            symmetry;
    }
    nullDims
    {
        type            empty;
    }
}


// ************************************************************************* //
