/*--------------------------------*- C++ -*----------------------------------*\
  =========                 |
  \\      /  F ield         | OpenFOAM: The Open Source CFD Toolbox
   \\    /   O peration     | Website:  https://openfoam.org
    \\  /    A nd           | Version:  7
     \\/     M anipulation  |
\*---------------------------------------------------------------------------*/
FoamFile
{
    version     2.0;
    format      ascii;
    class       volScalarField;
    location    "0.025";
    object      dsmcRhoN;
}
// * * * * * * * * * * * * * * * * * * * * * * * * * * * * * * * * * * * * * //

dimensions      [0 -3 0 0 0 0 0];

internalField   nonuniform List<scalar> 
250
(
867
900
859
853
872
844
842
904
877
869
875
917
887
870
841
869
890
864
877
873
870
840
904
862
886
863
872
934
880
866
876
894
867
827
874
903
852
903
883
845
925
844
920
847
826
837
835
827
869
857
850
896
834
853
910
835
824
920
905
845
895
830
870
802
850
835
896
840
892
850
862
893
890
859
845
820
918
841
818
828
937
903
876
847
835
873
850
842
878
877
830
852
852
853
879
821
874
886
841
849
896
873
813
877
899
893
838
845
831
820
862
868
861
855
845
850
826
877
881
840
857
824
849
849
894
832
838
871
835
878
858
840
856
821
833
839
822
894
839
872
863
886
855
898
846
849
846
831
860
850
919
811
875
850
851
885
817
816
846
853
834
827
849
844
854
826
829
758
837
805
837
871
916
800
820
793
852
823
852
856
876
829
872
867
859
847
862
839
803
783
865
841
826
786
827
802
890
829
839
828
809
834
830
835
796
819
824
841
849
850
823
806
801
840
847
820
808
830
820
849
820
848
848
815
860
827
863
800
819
843
896
839
836
842
797
853
865
855
858
905
798
854
833
826
791
832
871
829
845
857
)
;

boundaryField
{
    sides
    {
        type            symmetry;
    }
    empty
    {
        type            empty;
    }
    procBoundary3to2
    {
        type            processor;
        value           uniform 894;
    }
}


// ************************************************************************* //
