/*--------------------------------*- C++ -*----------------------------------*\
  =========                 |
  \\      /  F ield         | OpenFOAM: The Open Source CFD Toolbox
   \\    /   O peration     | Website:  https://openfoam.org
    \\  /    A nd           | Version:  7
     \\/     M anipulation  |
\*---------------------------------------------------------------------------*/
FoamFile
{
    version     2.0;
    format      ascii;
    class       volVectorField;
    location    "0.025";
    object      momentum;
}
// * * * * * * * * * * * * * * * * * * * * * * * * * * * * * * * * * * * * * //

dimensions      [1 -2 -1 0 0 0 0];

internalField   nonuniform List<vector> 
250
(
(-0.000107157 -2.6715e-05 -9.1075e-06)
(-0.000114263 -7.02233e-05 3.57464e-05)
(-8.68656e-05 -5.24371e-05 -8.53198e-06)
(-0.000127256 -4.35347e-05 -4.30339e-06)
(-7.16533e-05 -2.63556e-05 2.19333e-05)
(-4.35154e-05 0.000105595 5.02533e-05)
(-8.86473e-05 -2.26136e-05 -3.1375e-05)
(-9.5594e-05 -4.97021e-06 -2.17384e-05)
(-0.000151165 1.30749e-05 5.76785e-05)
(-8.5534e-05 -2.15352e-06 -6.4016e-05)
(-0.000136074 7.98839e-05 -4.18055e-06)
(-5.63037e-05 -2.11638e-05 9.66588e-06)
(-0.000108643 -5.68754e-05 -5.10683e-05)
(-6.42947e-05 -1.25833e-05 -7.6458e-07)
(-0.000105852 1.46392e-05 -4.674e-05)
(-0.000139745 -6.38956e-05 5.28625e-05)
(-0.000135233 -5.48756e-05 3.77778e-05)
(-9.79311e-05 4.83374e-05 3.49898e-06)
(-5.57677e-05 7.19846e-05 5.95994e-05)
(-5.24534e-05 -4.08575e-05 -1.67655e-05)
(-0.000114402 -7.97239e-06 4.5491e-06)
(-6.41055e-05 -6.87733e-05 -2.06844e-05)
(-4.03068e-05 -2.65814e-05 -0.000118724)
(-2.38344e-05 -3.91993e-05 2.13945e-05)
(-1.7986e-05 -3.44244e-05 -1.43752e-06)
(-0.000100125 1.81835e-05 1.92669e-05)
(-8.39381e-05 1.98988e-05 2.93608e-05)
(-0.00014114 7.33459e-05 -3.22128e-05)
(-8.85203e-05 2.18395e-05 8.36727e-05)
(-9.74054e-05 -7.14004e-05 -7.52319e-06)
(-0.000121076 -5.29356e-05 -4.44503e-05)
(-2.46088e-05 5.85909e-06 -4.0633e-05)
(-0.000127778 1.38026e-05 3.46203e-05)
(-0.000125827 -4.38224e-05 -4.48265e-05)
(-0.000220458 -5.77563e-05 1.34727e-05)
(-0.000136671 -1.09521e-05 -7.61517e-08)
(-8.74015e-06 -3.14149e-05 -8.08846e-05)
(-0.000103434 -3.85057e-05 3.19869e-05)
(-0.000107365 -4.25458e-05 -4.24309e-06)
(-0.000103259 1.2947e-05 4.87861e-05)
(-7.36017e-05 -2.47756e-05 1.85179e-05)
(-7.85717e-06 -2.13923e-05 -5.11054e-07)
(-5.19627e-05 -2.3326e-06 2.74046e-05)
(-5.00707e-05 4.25617e-05 -9.27536e-05)
(-0.000142199 3.19385e-05 -6.03035e-05)
(-7.73932e-05 -9.00564e-06 -2.26969e-05)
(-0.000101371 3.04631e-08 -2.61898e-05)
(-7.63783e-05 -4.40603e-05 -4.34525e-05)
(-0.000105617 1.66301e-05 -5.32095e-05)
(-9.25558e-05 4.46157e-05 1.22629e-05)
(-0.000123343 -1.63389e-05 3.69769e-05)
(-0.000108054 1.32209e-05 1.33268e-05)
(-6.99132e-05 -1.65548e-05 5.70636e-05)
(-0.000118404 -2.84796e-05 -5.79867e-06)
(-7.75064e-05 1.28752e-05 2.16775e-05)
(-3.71255e-05 -6.71048e-05 1.85643e-06)
(-9.09358e-05 -1.84611e-05 2.93443e-05)
(-5.38588e-05 7.0539e-06 5.83448e-05)
(-2.25351e-05 1.4354e-05 1.05106e-05)
(-2.4895e-05 -2.86377e-05 1.60499e-05)
(-1.76721e-05 6.75482e-05 5.25435e-05)
(-0.000103189 -1.69098e-05 7.64362e-06)
(-2.98741e-05 2.26866e-05 -5.22839e-06)
(-5.82842e-05 1.78021e-05 2.43679e-05)
(-2.77647e-05 -7.78646e-06 1.73735e-05)
(-9.69153e-05 -2.33126e-05 -6.78558e-05)
(-4.72437e-05 1.55209e-05 -4.88958e-05)
(-5.01734e-05 6.02908e-05 2.42121e-05)
(-5.60398e-05 4.14681e-05 -2.02407e-05)
(-6.4397e-05 9.08301e-06 0.000101439)
(-0.000146774 -3.05209e-06 -2.92616e-05)
(-5.99085e-05 -5.96156e-05 -5.15492e-05)
(-6.88536e-06 -2.43592e-05 -1.57041e-05)
(1.13681e-05 -2.4034e-05 -1.45487e-05)
(-1.27951e-05 2.06674e-05 4.87335e-05)
(-6.50649e-05 -1.07157e-06 -8.60851e-05)
(-9.64724e-06 2.15491e-05 -7.41537e-05)
(-0.000121436 7.15737e-05 -7.74964e-06)
(-0.000103966 -1.9589e-06 -2.40559e-05)
(-5.37096e-05 -0.000105057 7.20409e-06)
(-7.67572e-05 2.25077e-05 -6.45444e-06)
(-6.59534e-05 4.00075e-05 -1.97089e-05)
(-4.16371e-05 8.7746e-06 3.43285e-05)
(-8.35424e-05 2.9061e-05 6.32516e-05)
(2.38602e-05 9.65534e-06 1.30422e-05)
(-0.000126769 -3.67884e-05 -1.52713e-06)
(-0.000118547 -1.70585e-05 5.07942e-06)
(-1.6355e-05 -1.20637e-05 3.51149e-05)
(-3.65441e-05 9.32464e-06 4.1395e-05)
(-5.91336e-05 -3.91621e-05 -4.39044e-05)
(-2.27085e-05 -1.63186e-05 1.37712e-05)
(-0.000111546 -3.14166e-05 2.52234e-05)
(-3.11147e-05 -3.68819e-05 -4.60627e-05)
(-9.99691e-05 3.0862e-05 -7.84671e-05)
(-5.77379e-05 -3.45182e-05 -1.3866e-05)
(-4.89651e-05 -4.15395e-05 -9.22356e-05)
(-7.46725e-05 -2.3397e-05 -9.06064e-05)
(-0.000117796 4.94493e-06 6.73442e-05)
(-4.32022e-05 9.63757e-05 6.83602e-06)
(-6.71824e-05 4.7472e-05 -6.47329e-06)
(-6.00291e-05 1.27914e-05 2.00465e-05)
(5.63841e-05 9.39741e-06 7.39455e-06)
(-1.25091e-05 -7.20217e-05 -4.72532e-05)
(-7.71323e-05 3.14101e-05 -4.6994e-05)
(-0.000152878 -4.96049e-05 4.34146e-05)
(-7.98465e-05 -5.21434e-05 2.58592e-05)
(-7.80717e-05 -4.78732e-05 5.53307e-05)
(-8.96677e-05 -3.84205e-05 1.29402e-05)
(-1.00621e-05 -2.86566e-06 -8.98432e-05)
(-6.33693e-05 6.67889e-05 -4.88913e-05)
(-2.47963e-05 1.10717e-05 1.12003e-05)
(-5.68502e-05 -6.41994e-05 1.15507e-05)
(-9.8995e-05 -5.79587e-05 6.13451e-05)
(-4.66805e-05 -7.46486e-05 -3.39226e-05)
(-5.87817e-05 2.62232e-05 -4.78962e-05)
(-3.18414e-05 6.71207e-05 5.09028e-05)
(-3.40514e-05 6.56016e-05 5.36495e-05)
(-2.59013e-05 -2.1522e-05 5.25669e-06)
(-1.54458e-05 2.27782e-05 1.97377e-05)
(-2.60208e-05 -3.42045e-05 -7.83533e-06)
(-0.000107365 -1.96178e-05 -2.56968e-05)
(-8.28536e-06 5.99704e-05 -4.44779e-06)
(5.02106e-06 2.05961e-05 -2.60894e-05)
(-1.54967e-05 -1.25874e-05 -2.56674e-05)
(-1.22772e-05 -5.29872e-05 7.19619e-05)
(-3.8689e-05 3.72857e-05 -4.83563e-05)
(-0.000120727 3.37524e-05 -2.09459e-05)
(-7.53531e-06 2.39355e-05 -5.05291e-05)
(-1.74946e-05 4.5642e-05 3.55009e-05)
(7.19563e-07 -3.16643e-05 1.667e-05)
(-0.000133482 3.21348e-05 -8.44333e-05)
(-6.24779e-05 -3.63718e-06 9.81716e-06)
(-6.06682e-05 -9.18008e-06 -1.20296e-05)
(-1.03691e-05 -2.48423e-05 -4.12295e-06)
(6.53718e-05 4.49299e-05 3.73095e-05)
(-5.48268e-05 -1.86229e-05 -5.47172e-05)
(-8.94661e-05 1.92528e-05 -2.1787e-05)
(-5.74785e-05 -3.13096e-05 -1.06281e-05)
(-5.01245e-05 -5.83447e-06 -3.29439e-05)
(-3.40275e-05 1.66164e-05 -9.39788e-06)
(-8.09077e-05 -2.63247e-05 1.30795e-05)
(-5.38351e-05 4.46888e-05 -8.59689e-06)
(-3.19755e-05 -5.56098e-05 -4.55976e-05)
(3.9674e-05 4.04581e-05 3.40086e-06)
(-4.25596e-05 -4.06108e-05 1.81803e-05)
(-3.42905e-05 3.77637e-06 -5.01844e-05)
(-6.40182e-06 -4.65713e-05 -2.14906e-06)
(-1.08739e-05 9.31274e-05 2.03578e-05)
(-5.09874e-06 4.95344e-05 1.08093e-05)
(-3.59482e-05 0.000119677 -7.12872e-05)
(-8.64743e-05 3.1176e-05 -3.98066e-05)
(-2.93347e-06 -4.90574e-05 5.68323e-05)
(-3.3279e-05 2.3179e-06 -1.38866e-05)
(1.08322e-05 1.80243e-05 3.96211e-06)
(-3.87538e-05 1.99841e-05 5.55314e-05)
(-2.14171e-05 -3.83991e-06 -2.12625e-05)
(-6.41232e-05 -7.75608e-05 1.68663e-05)
(-7.75866e-05 -3.63376e-06 -3.37493e-05)
(-0.000142312 -2.78989e-05 -6.95269e-06)
(2.01822e-05 6.03669e-05 -1.6096e-06)
(-7.84494e-06 -6.84885e-07 6.55708e-05)
(-1.35076e-05 -1.18199e-05 1.28345e-05)
(-6.39387e-05 -1.58757e-06 2.70949e-05)
(-1.3182e-05 -4.78984e-05 -2.06034e-05)
(-3.69434e-05 2.42582e-05 -3.22473e-05)
(-0.000119687 -1.88907e-05 -4.75196e-05)
(-7.31011e-05 -4.53292e-05 2.52976e-05)
(1.38344e-05 -4.22919e-05 -6.09305e-05)
(1.28414e-05 8.00649e-06 2.34238e-05)
(-2.93215e-05 5.33548e-05 5.69137e-07)
(-3.28365e-05 -8.98922e-05 1.87788e-05)
(8.96924e-05 -2.04601e-05 6.19807e-05)
(-8.50324e-05 3.45941e-05 2.08044e-05)
(5.39362e-05 -7.97348e-06 -5.41593e-05)
(-6.1055e-06 3.68499e-05 6.56114e-05)
(-3.72494e-05 1.23784e-05 0.000106971)
(-4.61175e-05 -1.66042e-05 -4.18439e-05)
(-7.99679e-06 1.00983e-05 7.84706e-06)
(-8.08052e-05 2.02517e-05 3.55058e-05)
(-4.47129e-05 2.75674e-05 -1.28353e-05)
(-3.40549e-06 -3.16305e-05 1.11082e-05)
(1.12459e-05 -2.81705e-05 -1.52323e-05)
(-8.21716e-05 -8.82064e-06 -1.35158e-05)
(-5.25739e-06 6.8945e-05 -3.22583e-05)
(2.64651e-05 1.52749e-05 -7.55342e-05)
(5.42259e-05 4.70409e-05 3.66128e-06)
(-4.41504e-05 3.61445e-05 -3.91034e-05)
(-4.94819e-06 -3.13145e-05 4.4033e-05)
(-8.68186e-06 8.75103e-05 -2.99439e-05)
(6.74833e-06 5.79915e-05 2.15653e-05)
(-7.75815e-06 7.73893e-05 -1.63134e-05)
(4.31955e-05 3.43166e-05 -1.7174e-06)
(1.18312e-05 -3.01234e-05 -7.02791e-05)
(-2.41749e-05 -2.36623e-05 5.21752e-05)
(3.17832e-05 -3.75902e-06 4.76505e-05)
(-1.31585e-05 -1.17829e-05 2.79349e-05)
(4.6965e-05 1.54276e-05 2.08244e-05)
(-7.46475e-05 -6.18125e-06 3.76675e-05)
(1.9773e-05 -5.29289e-05 -9.25762e-07)
(-1.07041e-05 -3.40749e-05 2.99798e-05)
(-4.44703e-05 5.28791e-05 -2.28942e-05)
(-9.38136e-05 3.01186e-06 -5.07906e-06)
(-1.50321e-05 7.11278e-06 2.09976e-05)
(2.4343e-05 2.73473e-06 6.55446e-05)
(2.20499e-06 -1.261e-05 -1.35511e-06)
(-1.67536e-05 -8.75876e-06 4.25797e-05)
(-1.04872e-05 3.4204e-05 1.8986e-05)
(-3.59287e-05 -6.58011e-05 -4.91637e-05)
(-4.56941e-05 -2.011e-05 -5.52531e-05)
(-0.00012549 -4.00643e-06 3.38892e-05)
(5.49364e-07 -2.11637e-05 -5.25686e-05)
(-2.16752e-05 5.06063e-06 8.13872e-06)
(-2.8245e-05 -7.42042e-06 -4.83266e-05)
(8.00773e-05 9.88007e-05 2.66014e-05)
(-5.54706e-05 3.32012e-05 -7.55062e-05)
(-7.38823e-05 -4.53486e-05 1.84164e-05)
(2.68528e-05 7.11782e-06 -5.27455e-06)
(2.93814e-05 7.67544e-05 -2.40966e-05)
(-4.31852e-05 -4.03465e-05 5.9322e-06)
(-3.76368e-05 -5.84397e-05 -7.53656e-05)
(-8.48094e-05 -7.02308e-06 5.52803e-05)
(6.20955e-05 8.68496e-05 -2.22621e-05)
(3.86717e-05 1.22942e-05 -5.1799e-05)
(2.43351e-05 -2.3926e-05 -1.54667e-05)
(-1.30295e-05 7.49593e-05 2.8155e-05)
(-3.24897e-05 -9.21589e-06 -1.06918e-05)
(-2.99992e-05 3.14118e-05 6.85306e-05)
(-6.06828e-06 -1.725e-05 -3.81974e-05)
(2.46118e-05 -1.71202e-05 -4.86599e-06)
(-4.46379e-05 -2.06846e-05 -1.17153e-05)
(4.20882e-05 4.29783e-05 -2.11297e-05)
(-1.87295e-05 3.078e-05 -4.31059e-05)
(-1.1444e-06 3.44787e-05 -3.25394e-05)
(2.51177e-05 -8.08359e-05 -7.43941e-06)
(2.35699e-05 -1.70853e-05 -4.63673e-05)
(1.56257e-05 1.77714e-06 1.82801e-05)
(9.18043e-06 -8.93765e-07 -5.67639e-05)
(8.27881e-05 5.28575e-06 4.08174e-06)
(-1.27468e-05 -2.33081e-05 1.87798e-05)
(4.45132e-05 -0.000102137 -8.30777e-05)
(-1.74626e-05 3.34283e-05 9.61561e-06)
(2.72827e-05 -1.98679e-05 2.66419e-05)
(-2.58691e-05 1.76448e-05 -3.09051e-05)
(1.93547e-05 1.5817e-05 2.58113e-05)
(3.24931e-05 3.74442e-05 2.23063e-06)
(5.95472e-05 5.32322e-05 7.35079e-06)
(2.4699e-05 4.89226e-05 -5.19438e-05)
(-4.17451e-05 -0.000131435 2.46587e-06)
(3.45756e-05 -4.7954e-05 -2.05007e-05)
(1.04644e-05 1.61529e-05 -2.4844e-06)
)
;

boundaryField
{
    sides
    {
        type            symmetry;
    }
    empty
    {
        type            empty;
    }
    procBoundary3to2
    {
        type            processor;
        value           uniform (-0.000188857 3.89778e-05 4.04133e-05);
    }
}


// ************************************************************************* //
