/*--------------------------------*- C++ -*----------------------------------*\
  =========                 |
  \\      /  F ield         | OpenFOAM: The Open Source CFD Toolbox
   \\    /   O peration     | Website:  https://openfoam.org
    \\  /    A nd           | Version:  7
     \\/     M anipulation  |
\*---------------------------------------------------------------------------*/
FoamFile
{
    version     2.0;
    format      ascii;
    class       volScalarField;
    location    "0.009";
    object      iDofMean;
}
// * * * * * * * * * * * * * * * * * * * * * * * * * * * * * * * * * * * * * //

dimensions      [0 -3 0 0 0 0 0];

internalField   nonuniform List<scalar> 
654
(
1.865443425e+20
1.656594046e+20
1.68787975e+20
1.653953329e+20
1.767518412e+20
1.840524096e+20
1.876079569e+20
1.576155134e+20
1.514042807e+20
1.563573476e+20
1.575394785e+20
1.6040339e+20
1.636328205e+20
1.682447352e+20
1.698729663e+20
1.746634869e+20
1.801131787e+20
1.910900353e+20
1.533618738e+20
1.539414887e+20
1.51526186e+20
1.577039474e+20
1.548546412e+20
1.613918464e+20
1.525609304e+20
1.608236889e+20
1.61438588e+20
1.632575642e+20
1.650060561e+20
1.738663229e+20
1.743259664e+20
1.747069943e+20
1.841966825e+20
1.86879888e+20
1.429084476e+20
1.476540022e+20
1.494674174e+20
1.517327046e+20
1.521048725e+20
1.529514514e+20
1.519619175e+20
1.482395384e+20
1.524354573e+20
1.593440867e+20
1.59535198e+20
1.571232002e+20
1.582448707e+20
1.576300785e+20
1.67572553e+20
1.662316617e+20
1.628645359e+20
1.680005867e+20
1.774670842e+20
1.768388544e+20
1.820577035e+20
1.825304578e+20
1.532820246e+20
1.522491099e+20
1.544875655e+20
1.509744725e+20
1.476004523e+20
1.507482138e+20
1.441953386e+20
1.478087881e+20
1.505810015e+20
1.497480667e+20
1.46759037e+20
1.499042157e+20
1.499786474e+20
1.520203007e+20
1.523620355e+20
1.536035967e+20
1.539070425e+20
1.567930608e+20
1.615629353e+20
1.640821143e+20
1.665086177e+20
1.642169505e+20
1.733664598e+20
1.736221699e+20
1.800723656e+20
1.874111494e+20
1.841402269e+20
1.863480783e+20
1.45431509e+20
1.490063665e+20
1.455612551e+20
1.478602484e+20
1.511954601e+20
1.506432735e+20
1.494203602e+20
1.510004482e+20
1.501584618e+20
1.501946075e+20
1.494351397e+20
1.503499631e+20
1.524710981e+20
1.525712343e+20
1.534285396e+20
1.554593978e+20
1.544290743e+20
1.557050277e+20
1.545215476e+20
1.581483726e+20
1.594949884e+20
1.619550066e+20
1.626213971e+20
1.67832639e+20
1.688898356e+20
1.698195147e+20
1.757548678e+20
1.844775089e+20
1.812673483e+20
1.948253538e+20
1.499980544e+20
1.49478447e+20
1.479746294e+20
1.52045214e+20
1.52089105e+20
1.508502722e+20
1.52267556e+20
1.539274472e+20
1.502431965e+20
1.533543519e+20
1.543897715e+20
1.486635633e+20
1.537665637e+20
1.532545219e+20
1.55984014e+20
1.566580373e+20
1.540450335e+20
1.595035447e+20
1.636701684e+20
1.627297786e+20
1.684502586e+20
1.704280933e+20
1.684284551e+20
1.682223882e+20
1.703840582e+20
1.765886111e+20
1.759457986e+20
1.779141098e+20
1.807153558e+20
1.916598296e+20
1.544000856e+20
1.51160858e+20
1.506359151e+20
1.551036533e+20
1.543899836e+20
1.533963568e+20
1.53419992e+20
1.569069921e+20
1.528381619e+20
1.51528959e+20
1.58569739e+20
1.546825518e+20
1.62638027e+20
1.585499914e+20
1.551451514e+20
1.619399053e+20
1.593255784e+20
1.617587362e+20
1.61533767e+20
1.659732537e+20
1.673812352e+20
1.64058548e+20
1.663124749e+20
1.681144573e+20
1.76959862e+20
1.778154719e+20
1.749295525e+20
1.843532021e+20
1.829484213e+20
1.899504465e+20
1.490508452e+20
1.586187095e+20
1.561456906e+20
1.568316715e+20
1.528851679e+20
1.514039936e+20
1.580870969e+20
1.600284225e+20
1.575090994e+20
1.541389518e+20
1.532546725e+20
1.587494327e+20
1.579207905e+20
1.543786382e+20
1.561173444e+20
1.563387741e+20
1.588398787e+20
1.642701981e+20
1.666048487e+20
1.674096512e+20
1.651906121e+20
1.646242047e+20
1.675784953e+20
1.712264665e+20
1.72271501e+20
1.772661312e+20
1.856216781e+20
1.870817364e+20
1.89221082e+20
1.985670017e+20
1.528596232e+20
1.61109681e+20
1.600516073e+20
1.641617299e+20
1.602192197e+20
1.51688619e+20
1.594011879e+20
1.585412769e+20
1.597969056e+20
1.600581339e+20
1.550783643e+20
1.581475364e+20
1.579754526e+20
1.544282316e+20
1.607116441e+20
1.60433201e+20
1.587551667e+20
1.631653834e+20
1.652265253e+20
1.712149411e+20
1.716923828e+20
1.67287512e+20
1.681728732e+20
1.726475574e+20
1.791497781e+20
1.804034753e+20
1.86077445e+20
1.878151448e+20
1.882990009e+20
1.906215377e+20
1.608311376e+20
1.627217846e+20
1.599048847e+20
1.561639111e+20
1.568706172e+20
1.583850233e+20
1.605849093e+20
1.607746203e+20
1.570536554e+20
1.63949103e+20
1.608937345e+20
1.618565315e+20
1.579371888e+20
1.581477341e+20
1.552062606e+20
1.568764814e+20
1.612062413e+20
1.640253175e+20
1.693098085e+20
1.675428639e+20
1.65728044e+20
1.684777525e+20
1.712636308e+20
1.710225969e+20
1.778793854e+20
1.772111987e+20
1.881468917e+20
1.871563205e+20
1.859342095e+20
1.989342043e+20
1.623865548e+20
1.616319829e+20
1.569805049e+20
1.546041082e+20
1.660535894e+20
1.683209589e+20
1.582278922e+20
1.594188504e+20
1.582028555e+20
1.619208887e+20
1.645034621e+20
1.666608789e+20
1.609708697e+20
1.629582906e+20
1.629226874e+20
1.658438951e+20
1.596531402e+20
1.624990755e+20
1.653528716e+20
1.705894152e+20
1.722064508e+20
1.783296309e+20
1.688861249e+20
1.736908915e+20
1.741165988e+20
1.786150678e+20
1.91706827e+20
1.877157028e+20
1.894908081e+20
1.916218416e+20
1.618979931e+20
1.55560236e+20
1.579418051e+20
1.631830306e+20
1.617599855e+20
1.624421982e+20
1.660237825e+20
1.676585814e+20
1.670839919e+20
1.660733906e+20
1.6380411e+20
1.643834229e+20
1.627637457e+20
1.638068869e+20
1.631226798e+20
1.639787157e+20
1.661366311e+20
1.685527853e+20
1.647670855e+20
1.701608131e+20
1.731352755e+20
1.724903902e+20
1.715251564e+20
1.750879963e+20
1.736084411e+20
1.813617711e+20
1.8899684e+20
1.872122585e+20
1.944587537e+20
1.909950695e+20
1.640366929e+20
1.620839751e+20
1.601325602e+20
1.597830643e+20
1.702136601e+20
1.65215979e+20
1.625821186e+20
1.646002127e+20
1.643831096e+20
1.644988571e+20
1.580479169e+20
1.613142816e+20
1.629441267e+20
1.687496936e+20
1.594061293e+20
1.66409608e+20
1.638323953e+20
1.697145506e+20
1.697118195e+20
1.68863423e+20
1.75483625e+20
1.746233899e+20
1.804110828e+20
1.797530121e+20
1.732454698e+20
1.82899925e+20
1.933512954e+20
1.933219378e+20
1.958324664e+20
1.941479299e+20
1.656469474e+20
1.660866041e+20
1.673473795e+20
1.679185141e+20
1.677792483e+20
1.691282549e+20
1.691160667e+20
1.692140424e+20
1.658765387e+20
1.676212384e+20
1.636642398e+20
1.651208844e+20
1.675137788e+20
1.663802328e+20
1.703946748e+20
1.69798291e+20
1.709032395e+20
1.724936755e+20
1.755352362e+20
1.741456525e+20
1.727205173e+20
1.784769392e+20
1.785685173e+20
1.775824006e+20
1.772623353e+20
1.842305486e+20
1.916513938e+20
1.955781063e+20
1.986802561e+20
1.934895044e+20
1.659161542e+20
1.676786181e+20
1.677116633e+20
1.685862734e+20
1.658789703e+20
1.685383088e+20
1.685841706e+20
1.672014024e+20
1.655111252e+20
1.681016049e+20
1.648746548e+20
1.712428994e+20
1.732477067e+20
1.621482656e+20
1.739834529e+20
1.765196512e+20
1.748791781e+20
1.726075727e+20
1.749551917e+20
1.7244862e+20
1.749812418e+20
1.782176792e+20
1.81379918e+20
1.788116143e+20
1.80958579e+20
1.821247459e+20
1.87604893e+20
1.904193723e+20
1.992510664e+20
1.939769916e+20
1.675762642e+20
1.653433313e+20
1.701705696e+20
1.731637376e+20
1.657043489e+20
1.696354004e+20
1.655127476e+20
1.693086298e+20
1.70685167e+20
1.659132684e+20
1.73514329e+20
1.705271279e+20
1.7304546e+20
1.684025401e+20
1.717612987e+20
1.764636371e+20
1.729589805e+20
1.778526028e+20
1.77459146e+20
1.798912384e+20
1.788542658e+20
1.814407508e+20
1.872464135e+20
1.865346755e+20
1.827492298e+20
1.882712561e+20
1.891569771e+20
1.942480235e+20
1.938377603e+20
1.90792476e+20
1.739873737e+20
1.691450778e+20
1.718654956e+20
1.693559794e+20
1.639786899e+20
1.707635444e+20
1.640682916e+20
1.739960285e+20
1.739580021e+20
1.709037444e+20
1.759566775e+20
1.726473298e+20
1.765164282e+20
1.731194216e+20
1.716168602e+20
1.730917575e+20
1.729872201e+20
1.715198414e+20
1.795668308e+20
1.84721698e+20
1.813252903e+20
1.803388958e+20
1.857604708e+20
1.856232569e+20
1.862155911e+20
1.877585381e+20
1.929447959e+20
1.894932883e+20
1.978271724e+20
1.949203178e+20
1.754829671e+20
1.730321992e+20
1.739247042e+20
1.702378306e+20
1.662898403e+20
1.704012954e+20
1.708942584e+20
1.743218356e+20
1.748953671e+20
1.741809104e+20
1.722877752e+20
1.723002904e+20
1.770193084e+20
1.801120849e+20
1.755445152e+20
1.78704091e+20
1.767146598e+20
1.743559156e+20
1.792394805e+20
1.857874113e+20
1.84339588e+20
1.838683671e+20
1.83347304e+20
1.902403034e+20
1.993429961e+20
1.932031145e+20
1.880113924e+20
1.883310197e+20
1.884746371e+20
1.931159725e+20
1.772078875e+20
1.765928864e+20
1.781240744e+20
1.756206838e+20
1.764383586e+20
1.754831125e+20
1.743672102e+20
1.726402575e+20
1.701079209e+20
1.718431266e+20
1.780601083e+20
1.759225251e+20
1.803918842e+20
1.772081178e+20
1.722168401e+20
1.798691263e+20
1.786856891e+20
1.73957272e+20
1.823694234e+20
1.859495866e+20
1.872195321e+20
1.822244246e+20
1.855346094e+20
1.885074119e+20
1.864696684e+20
1.945520511e+20
1.912572158e+20
1.979212895e+20
1.941513933e+20
1.952558634e+20
1.859371655e+20
1.803494313e+20
1.727913806e+20
1.782254547e+20
1.817899557e+20
1.726213573e+20
1.753944948e+20
1.791038217e+20
1.739685938e+20
1.746025655e+20
1.741545041e+20
1.805479298e+20
1.769865105e+20
1.777371122e+20
1.790999583e+20
1.895758851e+20
1.916978506e+20
1.843619056e+20
1.861023843e+20
1.890888071e+20
1.891531201e+20
1.785122913e+20
1.877338022e+20
1.846159013e+20
1.862216406e+20
1.89266173e+20
1.903210373e+20
1.911154921e+20
1.932042215e+20
1.958256595e+20
1.855682524e+20
1.840808694e+20
1.817061853e+20
1.794896083e+20
1.856675539e+20
1.802078582e+20
1.755405048e+20
1.83433885e+20
1.795663033e+20
1.789472155e+20
1.77172472e+20
1.815239804e+20
1.769591815e+20
1.837213798e+20
1.807165744e+20
1.871393946e+20
1.847343118e+20
1.839063113e+20
1.8819284e+20
1.904093633e+20
1.879146887e+20
1.806688631e+20
1.819386303e+20
1.883575094e+20
1.865362144e+20
1.903160241e+20
1.907336942e+20
1.933095054e+20
1.926647727e+20
1.910457162e+20
1.844216321e+20
1.829308034e+20
1.838969404e+20
1.788932139e+20
1.818669941e+20
1.854449243e+20
1.820953102e+20
1.852310715e+20
1.852805243e+20
1.834840093e+20
1.850912757e+20
1.823536246e+20
1.832725134e+20
1.875070068e+20
1.846942294e+20
1.837675136e+20
1.845818225e+20
1.83023596e+20
1.857233438e+20
1.881215565e+20
1.890596551e+20
1.909508788e+20
1.83650436e+20
1.86138927e+20
1.894641706e+20
1.935632379e+20
1.915035764e+20
1.940802093e+20
1.933484945e+20
1.939136846e+20
1.887638371e+20
1.839553164e+20
1.818933874e+20
1.764617547e+20
1.843373571e+20
1.804873051e+20
1.837796396e+20
1.782209946e+20
1.84560289e+20
1.863128345e+20
1.820464082e+20
1.838827727e+20
1.850216635e+20
1.823823589e+20
1.831164994e+20
1.819975561e+20
1.866432142e+20
1.839233961e+20
1.871820694e+20
1.871948478e+20
1.824352067e+20
1.870384114e+20
1.892554059e+20
1.932863548e+20
1.91635938e+20
1.934838887e+20
1.890522732e+20
1.869947216e+20
1.914039679e+20
1.884309932e+20
)
;

boundaryField
{
    flow
    {
        type            calculated;
        value           nonuniform List<scalar> 
55
(
1.865443425e+20
1.876079569e+20
1.910900353e+20
1.86879888e+20
1.825304578e+20
1.863480783e+20
1.948253538e+20
1.916598296e+20
1.899504465e+20
1.985670017e+20
1.906215377e+20
1.989342043e+20
1.916218416e+20
1.909950695e+20
1.941479299e+20
1.934895044e+20
1.939769916e+20
1.90792476e+20
1.949203178e+20
1.931159725e+20
1.952558634e+20
1.958256595e+20
1.910457162e+20
1.939136846e+20
1.884309932e+20
1.887638371e+20
1.839553164e+20
1.818933874e+20
1.764617547e+20
1.843373571e+20
1.804873051e+20
1.837796396e+20
1.782209946e+20
1.84560289e+20
1.863128345e+20
1.820464082e+20
1.838827727e+20
1.850216635e+20
1.823823589e+20
1.831164994e+20
1.819975561e+20
1.866432142e+20
1.839233961e+20
1.871820694e+20
1.871948478e+20
1.824352067e+20
1.870384114e+20
1.892554059e+20
1.932863548e+20
1.91635938e+20
1.934838887e+20
1.890522732e+20
1.869947216e+20
1.914039679e+20
1.884309932e+20
)
;
    }
    obstacle
    {
        type            calculated;
        value           nonuniform 0();
    }
    frontAndBack
    {
        type            empty;
    }
    procBoundary3to1
    {
        type            processor;
        value           nonuniform List<scalar> 
36
(
1.880131457e+20
1.614912989e+20
1.61457326e+20
1.692632196e+20
1.735944484e+20
1.821267028e+20
1.821267028e+20
1.551944909e+20
1.519125043e+20
1.530105341e+20
1.581754599e+20
1.595039668e+20
1.595039668e+20
1.436677334e+20
1.509168803e+20
1.551745616e+20
1.5542028e+20
1.575366289e+20
1.575366289e+20
1.439623213e+20
1.489883537e+20
1.495427333e+20
1.514778466e+20
1.474258987e+20
1.545770117e+20
1.545770117e+20
1.471246356e+20
1.46601192e+20
1.452943238e+20
1.496082813e+20
1.461872831e+20
1.414574953e+20
1.414574953e+20
1.458103937e+20
1.484087361e+20
1.484087361e+20
)
;
    }
    procBoundary3to2
    {
        type            processor;
        value           nonuniform List<scalar> 
19
(
1.486393653e+20
1.493817208e+20
1.509456163e+20
1.522125686e+20
1.586166231e+20
1.611653769e+20
1.59933068e+20
1.688264856e+20
1.677030543e+20
1.661639039e+20
1.697767006e+20
1.721868814e+20
1.722809131e+20
1.753097223e+20
1.760273351e+20
1.810357589e+20
1.787196098e+20
1.839012511e+20
1.846040143e+20
)
;
    }
}


// ************************************************************************* //
