/*--------------------------------*- C++ -*----------------------------------*\
  =========                 |
  \\      /  F ield         | OpenFOAM: The Open Source CFD Toolbox
   \\    /   O peration     | Website:  https://openfoam.org
    \\  /    A nd           | Version:  7
     \\/     M anipulation  |
\*---------------------------------------------------------------------------*/
FoamFile
{
    version     2.0;
    format      ascii;
    class       volScalarField;
    location    "0.009";
    object      iDofMean;
}
// * * * * * * * * * * * * * * * * * * * * * * * * * * * * * * * * * * * * * //

dimensions      [0 -3 0 0 0 0 0];

internalField   nonuniform List<scalar> 
654
(
4.882504562e+20
4.867969117e+20
4.950536109e+20
4.953298897e+20
4.953812503e+20
4.959353712e+20
4.893900405e+20
3.968507605e+20
4.121294854e+20
4.298471836e+20
4.449204928e+20
4.599657601e+20
4.771782043e+20
4.835723822e+20
4.918500178e+20
4.952507282e+20
4.935643054e+20
4.96461826e+20
2.865632665e+20
2.992516343e+20
3.161097161e+20
3.351351255e+20
3.515241705e+20
3.668080756e+20
3.883363827e+20
4.083403849e+20
4.259896028e+20
4.407000844e+20
4.512682125e+20
4.659019282e+20
4.770005343e+20
4.852378153e+20
4.881949123e+20
4.912956905e+20
2.248563934e+20
2.279606142e+20
2.322651795e+20
2.382814037e+20
2.447714878e+20
2.526175861e+20
2.635084314e+20
2.756092619e+20
2.879449369e+20
3.016831182e+20
3.172441173e+20
3.364873724e+20
3.546591824e+20
3.742064528e+20
3.935723112e+20
4.110910253e+20
4.283950714e+20
4.45411525e+20
4.57297705e+20
4.704825938e+20
4.789929147e+20
4.82343588e+20
2.066393071e+20
2.080860173e+20
2.089279975e+20
2.107815603e+20
2.131276483e+20
2.14206764e+20
2.16393629e+20
2.189991111e+20
2.223236415e+20
2.280925072e+20
2.345662987e+20
2.407702839e+20
2.499921892e+20
2.59651637e+20
2.701096846e+20
2.840857859e+20
2.997451499e+20
3.128852993e+20
3.292304107e+20
3.481036789e+20
3.672295437e+20
3.855773464e+20
4.042696771e+20
4.190980992e+20
4.364184999e+20
4.50525141e+20
4.630540839e+20
4.704158884e+20
2.028772542e+20
2.037977199e+20
2.050911031e+20
2.059145239e+20
2.072793769e+20
2.087477969e+20
2.093313855e+20
2.10754271e+20
2.12824226e+20
2.153910229e+20
2.214144819e+20
2.244431537e+20
2.279577929e+20
2.307138475e+20
2.380314518e+20
2.469314722e+20
2.552338047e+20
2.632765235e+20
2.758427286e+20
2.91594207e+20
3.059689049e+20
3.200741437e+20
3.377128122e+20
3.570356076e+20
3.762242197e+20
3.961539776e+20
4.123981791e+20
4.260056244e+20
4.408739557e+20
4.574372434e+20
2.04826511e+20
2.044957964e+20
2.038414143e+20
2.034320922e+20
2.036226233e+20
2.038005289e+20
2.053161125e+20
2.068340954e+20
2.095249146e+20
2.109769881e+20
2.120162823e+20
2.151923516e+20
2.206660331e+20
2.261126871e+20
2.301983613e+20
2.365077631e+20
2.42357183e+20
2.501098498e+20
2.613760729e+20
2.723129011e+20
2.865804128e+20
3.003821659e+20
3.13034302e+20
3.302447426e+20
3.474286116e+20
3.662088037e+20
3.83419813e+20
4.05091005e+20
4.210147158e+20
4.342845992e+20
1.999209659e+20
2.000863731e+20
2.018732749e+20
2.026267031e+20
2.029806371e+20
2.034952074e+20
2.055924885e+20
2.056202047e+20
2.065115773e+20
2.087299401e+20
2.127156348e+20
2.164991784e+20
2.176378195e+20
2.212304957e+20
2.231985801e+20
2.273667189e+20
2.34083392e+20
2.404569468e+20
2.460422244e+20
2.535992082e+20
2.635525707e+20
2.775967501e+20
2.895386008e+20
3.049169448e+20
3.242166978e+20
3.438506383e+20
3.615489963e+20
3.767925616e+20
3.953030759e+20
4.15702972e+20
2.008532177e+20
2.010204878e+20
2.018328005e+20
2.01525665e+20
2.019175079e+20
2.029725343e+20
2.061556699e+20
2.065398193e+20
2.081109233e+20
2.09365093e+20
2.101065181e+20
2.110929316e+20
2.139536735e+20
2.141441547e+20
2.170876617e+20
2.200012313e+20
2.251318786e+20
2.3055916e+20
2.354463628e+20
2.405094715e+20
2.492346512e+20
2.584232926e+20
2.705185521e+20
2.843800822e+20
2.974416252e+20
3.157610186e+20
3.345600091e+20
3.546970276e+20
3.730727665e+20
3.879983005e+20
2.010476448e+20
1.995088276e+20
1.996774589e+20
2.01173943e+20
2.023694677e+20
2.017098455e+20
2.027452953e+20
2.043800425e+20
2.053094199e+20
2.047162107e+20
2.049851179e+20
2.071833043e+20
2.074544948e+20
2.116093827e+20
2.150043917e+20
2.155763377e+20
2.180271509e+20
2.204734443e+20
2.261656514e+20
2.314393231e+20
2.387780663e+20
2.474047428e+20
2.594572086e+20
2.675728338e+20
2.792991863e+20
2.921515747e+20
3.073554462e+20
3.266907023e+20
3.43503444e+20
3.653014954e+20
2.003845998e+20
2.019294934e+20
2.020807151e+20
2.029019612e+20
2.040643083e+20
2.053737187e+20
2.052691791e+20
2.038703111e+20
2.041178527e+20
2.04641487e+20
2.062224294e+20
2.073893565e+20
2.083345335e+20
2.096146273e+20
2.106045292e+20
2.136383446e+20
2.164514575e+20
2.194255775e+20
2.234721777e+20
2.282769349e+20
2.320601532e+20
2.366925932e+20
2.442471152e+20
2.549269234e+20
2.669219196e+20
2.756591519e+20
2.881268738e+20
3.064286966e+20
3.233744788e+20
3.404394681e+20
2.004942767e+20
2.008848905e+20
2.013521499e+20
1.998180364e+20
1.998682879e+20
1.998209797e+20
1.998303087e+20
2.006332765e+20
2.027250463e+20
2.018340114e+20
2.028601672e+20
2.050088774e+20
2.0374302e+20
2.052283696e+20
2.073990755e+20
2.087989706e+20
2.114815341e+20
2.136793934e+20
2.161728063e+20
2.208053602e+20
2.240804384e+20
2.287851613e+20
2.323774175e+20
2.393069175e+20
2.48858124e+20
2.596611283e+20
2.702286524e+20
2.821453654e+20
2.977067511e+20
3.163498259e+20
2.045024658e+20
2.022408621e+20
2.017366689e+20
2.026216057e+20
2.02287292e+20
2.032933837e+20
2.036422123e+20
2.034236435e+20
2.032440394e+20
2.051378658e+20
2.042534878e+20
2.036478255e+20
2.051095408e+20
2.06953115e+20
2.065268789e+20
2.082388541e+20
2.09521803e+20
2.098865731e+20
2.116530557e+20
2.154304586e+20
2.215626807e+20
2.244720197e+20
2.296254545e+20
2.344320339e+20
2.382594067e+20
2.469957739e+20
2.57387015e+20
2.670855939e+20
2.793466706e+20
2.947862778e+20
2.000555693e+20
2.011058653e+20
2.013420294e+20
2.02030306e+20
2.019688668e+20
2.010629717e+20
2.022394735e+20
2.008907681e+20
2.011892505e+20
2.015564679e+20
2.01547541e+20
2.029537441e+20
2.024912839e+20
2.051842866e+20
2.059602299e+20
2.085637214e+20
2.104988465e+20
2.155359417e+20
2.171261467e+20
2.177588104e+20
2.18869673e+20
2.231285777e+20
2.24668353e+20
2.272006598e+20
2.343816776e+20
2.38212427e+20
2.464731672e+20
2.559663505e+20
2.641856498e+20
2.754259291e+20
1.998711113e+20
1.997699779e+20
1.994244863e+20
1.98676219e+20
1.973311583e+20
1.980097429e+20
1.976193019e+20
1.989254238e+20
1.985625101e+20
1.986262304e+20
2.005254097e+20
2.013432583e+20
2.030160301e+20
2.034154565e+20
2.037714095e+20
2.050574116e+20
2.064212485e+20
2.068625663e+20
2.093903063e+20
2.124012827e+20
2.149265489e+20
2.163701447e+20
2.204839447e+20
2.248741481e+20
2.27582044e+20
2.316020255e+20
2.380845286e+20
2.445798475e+20
2.519226004e+20
2.604150181e+20
1.983854885e+20
1.982984975e+20
1.982253909e+20
1.9849781e+20
2.000685891e+20
1.997485317e+20
2.00315269e+20
1.994666803e+20
2.006702574e+20
2.006224202e+20
2.008428074e+20
2.015818488e+20
2.01179424e+20
2.028699295e+20
2.020770196e+20
2.0305221e+20
2.029705404e+20
2.045845934e+20
2.065245421e+20
2.080167994e+20
2.080976422e+20
2.103659189e+20
2.129472513e+20
2.166893839e+20
2.182234754e+20
2.213232551e+20
2.246146698e+20
2.309682506e+20
2.387311927e+20
2.47676944e+20
2.030816534e+20
2.022157529e+20
2.017518474e+20
2.00643815e+20
1.996269011e+20
1.995156567e+20
1.995539327e+20
2.009170413e+20
2.01258095e+20
2.019460969e+20
2.018649372e+20
2.015710038e+20
2.027481901e+20
2.034209669e+20
2.051213673e+20
2.043964782e+20
2.048229664e+20
2.030925239e+20
2.038310683e+20
2.037597401e+20
2.069526758e+20
2.077733171e+20
2.081268583e+20
2.102974746e+20
2.134201754e+20
2.163242531e+20
2.19293246e+20
2.236963048e+20
2.288141162e+20
2.350148494e+20
1.989438434e+20
1.99137192e+20
2.005527505e+20
2.015511505e+20
2.034582749e+20
2.029725358e+20
2.035379194e+20
2.021256755e+20
2.007443993e+20
2.015618053e+20
2.024297975e+20
2.030621943e+20
2.027591239e+20
2.021701136e+20
2.019548012e+20
2.020440047e+20
2.022250535e+20
2.03980931e+20
2.043134798e+20
2.037944899e+20
2.039559015e+20
2.05781729e+20
2.060049326e+20
2.071255019e+20
2.070198085e+20
2.103425435e+20
2.13399026e+20
2.15933345e+20
2.2066593e+20
2.261323864e+20
2.011523364e+20
2.009602209e+20
2.006994754e+20
2.00312484e+20
2.009879119e+20
2.011354212e+20
2.027348645e+20
2.032659971e+20
2.050234442e+20
2.025865857e+20
2.016282338e+20
2.00188265e+20
2.007148064e+20
1.997290163e+20
2.006992849e+20
2.005260982e+20
1.998756319e+20
2.000058713e+20
1.992883439e+20
2.008000674e+20
2.027116251e+20
2.036781877e+20
2.034550594e+20
2.079169956e+20
2.101292477e+20
2.13028209e+20
2.149326332e+20
2.174996107e+20
2.197940321e+20
2.233467291e+20
1.997913492e+20
2.01010445e+20
2.006488821e+20
2.001493673e+20
1.990516814e+20
1.996553808e+20
1.984171407e+20
1.992302099e+20
1.995051709e+20
1.996296627e+20
2.020048058e+20
2.021403659e+20
2.013816678e+20
2.028644191e+20
2.024158963e+20
2.017023357e+20
2.016828801e+20
2.028362522e+20
2.022287673e+20
2.031573804e+20
2.02337762e+20
2.037076508e+20
2.05559152e+20
2.056084724e+20
2.070198067e+20
2.080719354e+20
2.117237642e+20
2.141806191e+20
2.170528774e+20
2.192252126e+20
1.998711113e+20
1.994736727e+20
1.989944305e+20
1.98905602e+20
2.002945667e+20
1.99707132e+20
1.99710372e+20
1.984104391e+20
1.991291658e+20
1.995656138e+20
1.989653209e+20
1.996189014e+20
1.99135105e+20
1.983293798e+20
1.988326749e+20
2.00162023e+20
2.005251122e+20
2.012473672e+20
2.005805238e+20
2.013966368e+20
2.0343015e+20
2.033953586e+20
2.039246168e+20
2.042233584e+20
2.037772785e+20
2.054778267e+20
2.062976326e+20
2.074183291e+20
2.109558512e+20
2.134956157e+20
2.000954503e+20
2.00372634e+20
2.014836949e+20
2.007406641e+20
2.016966661e+20
2.008093998e+20
2.018848778e+20
2.011114737e+20
1.998388078e+20
1.992026717e+20
1.985134326e+20
1.980572166e+20
2.008514587e+20
2.01536419e+20
2.032714251e+20
2.016911334e+20
2.008300864e+20
2.008316375e+20
2.013673151e+20
2.021727524e+20
2.02045677e+20
2.025409791e+20
2.023911238e+20
2.04325295e+20
2.057615133e+20
2.06149243e+20
2.082993263e+20
2.083257669e+20
2.09851863e+20
2.109315392e+20
2.003796145e+20
2.001466385e+20
2.008158435e+20
2.003838476e+20
1.998117931e+20
1.996295075e+20
1.993922788e+20
2.001655861e+20
2.002624772e+20
2.008679409e+20
2.001058008e+20
2.008226973e+20
1.9968718e+20
1.977011987e+20
1.974660525e+20
1.991762255e+20
1.999772895e+20
2.020959098e+20
2.008044997e+20
2.017962793e+20
2.00614469e+20
2.0109148e+20
2.020582747e+20
2.021127086e+20
2.038377735e+20
2.038664274e+20
2.051458889e+20
2.048824704e+20
2.059753605e+20
2.086966829e+20
1.975529414e+20
1.971032324e+20
1.96500108e+20
1.958369678e+20
1.959598757e+20
1.965918007e+20
1.967901723e+20
1.964030568e+20
1.95681569e+20
1.95861454e+20
1.97276118e+20
1.975149655e+20
1.980801513e+20
1.980318211e+20
1.978827046e+20
1.969973855e+20
1.960691257e+20
1.968281031e+20
1.972668028e+20
1.973712509e+20
1.989379111e+20
1.987227881e+20
1.987535416e+20
1.981672325e+20
1.981754433e+20
1.978664065e+20
1.98019861e+20
1.994689092e+20
2.012394999e+20
2.036445025e+20
)
;

boundaryField
{
    flow
    {
        type            calculated;
        value           nonuniform List<scalar> 
55
(
4.882504562e+20
4.893900405e+20
4.96461826e+20
4.912956905e+20
4.82343588e+20
4.704158884e+20
4.574372434e+20
4.342845992e+20
4.15702972e+20
3.879983005e+20
3.653014954e+20
3.404394681e+20
3.163498259e+20
2.947862778e+20
2.754259291e+20
2.604150181e+20
2.47676944e+20
2.350148494e+20
2.261323864e+20
2.233467291e+20
2.192252126e+20
2.134956157e+20
2.109315392e+20
2.086966829e+20
2.036445025e+20
1.975529414e+20
1.971032324e+20
1.96500108e+20
1.958369678e+20
1.959598757e+20
1.965918007e+20
1.967901723e+20
1.964030568e+20
1.95681569e+20
1.95861454e+20
1.97276118e+20
1.975149655e+20
1.980801513e+20
1.980318211e+20
1.978827046e+20
1.969973855e+20
1.960691257e+20
1.968281031e+20
1.972668028e+20
1.973712509e+20
1.989379111e+20
1.987227881e+20
1.987535416e+20
1.981672325e+20
1.981754433e+20
1.978664065e+20
1.98019861e+20
1.994689092e+20
2.012394999e+20
2.036445025e+20
)
;
    }
    obstacle
    {
        type            calculated;
        value           nonuniform 0();
    }
    frontAndBack
    {
        type            empty;
    }
    procBoundary3to1
    {
        type            processor;
        value           nonuniform List<scalar> 
36
(
4.726887391e+20
4.922354002e+20
4.92984419e+20
4.92084062e+20
4.888364972e+20
4.855792084e+20
4.855792084e+20
4.190511891e+20
4.401928417e+20
4.536990957e+20
4.672096058e+20
4.798190641e+20
4.798190641e+20
3.043127142e+20
3.21308894e+20
3.429360069e+20
3.583533442e+20
3.797166284e+20
3.797166284e+20
2.261168052e+20
2.343014527e+20
2.416795198e+20
2.504766311e+20
2.607160688e+20
2.737939534e+20
2.737939534e+20
2.043726583e+20
2.063885835e+20
2.089023196e+20
2.11433606e+20
2.144417365e+20
2.197875011e+20
2.197875011e+20
2.037596558e+20
2.045209085e+20
2.045209085e+20
)
;
    }
    procBoundary3to2
    {
        type            processor;
        value           nonuniform List<scalar> 
19
(
2.032519842e+20
2.03232188e+20
2.00792313e+20
2.002033762e+20
1.994758693e+20
1.987087686e+20
2.012129825e+20
2.02816469e+20
2.005745554e+20
2.01203083e+20
1.979169227e+20
2.02277024e+20
1.982138649e+20
2.007032289e+20
1.99515463e+20
2.008863447e+20
2.001786325e+20
2.004161862e+20
1.967637972e+20
)
;
    }
}


// ************************************************************************* //
