/*--------------------------------*- C++ -*----------------------------------*\
  =========                 |
  \\      /  F ield         | OpenFOAM: The Open Source CFD Toolbox
   \\    /   O peration     | Website:  https://openfoam.org
    \\  /    A nd           | Version:  7
     \\/     M anipulation  |
\*---------------------------------------------------------------------------*/
FoamFile
{
    version     2.0;
    format      ascii;
    class       volScalarField;
    location    "0.009";
    object      internalEMean;
}
// * * * * * * * * * * * * * * * * * * * * * * * * * * * * * * * * * * * * * //

dimensions      [1 -1 -2 0 0 0 0];

internalField   nonuniform List<scalar> 
654
(
2.405552198
2.208576345
2.265537072
2.297941201
2.316567036
2.356487696
2.360587806
1.498457474
1.602067946
1.697805403
1.824728798
1.937403558
2.049932545
2.139385173
2.215618126
2.26591161
2.269709283
2.305818984
0.86434532
0.9282545677
1.015634026
1.113897315
1.209773522
1.299906001
1.445487995
1.579019344
1.68108767
1.777854899
1.85638639
1.963356152
2.064674704
2.128931183
2.16437462
2.237844867
0.5348095623
0.5544123061
0.5807874078
0.6207081049
0.6518936298
0.6890587086
0.7379540005
0.8064517049
0.8715257506
0.9515601563
1.029294662
1.138556447
1.227552547
1.342022569
1.469984406
1.583026388
1.684633722
1.804886744
1.893929552
1.987351943
2.064203411
2.097740578
0.4413251783
0.4488176061
0.4604723426
0.4656945967
0.4786010106
0.4880129506
0.5002960797
0.5145066781
0.5338697804
0.5630378173
0.5919578632
0.6241542922
0.6655217814
0.710781699
0.7752349837
0.8319231597
0.9087851567
0.9834169605
1.082411121
1.178580508
1.277811405
1.399636556
1.51161144
1.608749447
1.708331343
1.816982786
1.909130182
2.00090756
0.433968344
0.437253887
0.4448271964
0.4500577516
0.4555889731
0.4610201049
0.4632288393
0.4664469233
0.4797348585
0.4939880647
0.5141556416
0.5355207926
0.5559541298
0.5785064773
0.6058815347
0.6413104929
0.6792668004
0.7246931696
0.7823532894
0.8729960559
0.9374259215
1.016982847
1.113884629
1.219040905
1.331430635
1.452568341
1.558754035
1.644414201
1.760912113
1.856215362
0.4306068092
0.4302080724
0.4293064035
0.4314576242
0.4359101109
0.4399894996
0.4457807502
0.456003426
0.4594446039
0.4709830821
0.4790466452
0.4936112162
0.5122794742
0.5370747337
0.5596270469
0.5973519782
0.6243674192
0.6615169132
0.7082732862
0.7525376804
0.8414418944
0.903215305
0.9586456454
1.063825529
1.151460086
1.258316845
1.373790496
1.486266858
1.598875617
1.679299504
0.414830095
0.4168000261
0.4229070258
0.4272441556
0.427800269
0.4330257548
0.4416631716
0.4475513556
0.4566615022
0.4588189427
0.4742808178
0.4895639808
0.5006563228
0.515047594
0.5315667583
0.5481416816
0.5743193017
0.6019881869
0.6352605744
0.6706075193
0.7203617687
0.8022142
0.859586049
0.9257907297
1.032468438
1.124907174
1.226368237
1.319775926
1.426182742
1.547618659
0.42023763
0.4185178608
0.4215609981
0.4224445015
0.4247600521
0.4306265964
0.4347151188
0.4413851343
0.4489753479
0.4553045576
0.4624739527
0.4704212295
0.4734483129
0.4818839938
0.4919083859
0.5086108273
0.5311748074
0.5577496727
0.5898797502
0.6202367385
0.6541125507
0.7053392213
0.7620427177
0.8160817517
0.8879886067
0.9734093055
1.07827656
1.191540327
1.283672905
1.379841754
0.4195040678
0.4185378817
0.4157994182
0.4198500831
0.4252540627
0.4252720917
0.4327406581
0.4342949148
0.4348222548
0.4365694054
0.4356796345
0.4448390524
0.4582015859
0.4716974502
0.4823092414
0.4860838175
0.5009419135
0.5126624509
0.5381918092
0.5688903298
0.5988698087
0.6333893104
0.6960906234
0.741361049
0.7903270845
0.8564930569
0.9348789514
1.026570034
1.125085078
1.222770187
0.4255619101
0.4272048622
0.4261294076
0.4242854315
0.4291817094
0.4327883549
0.4316300917
0.4274191681
0.4305629157
0.4370746576
0.4411027052
0.4474141425
0.4470709708
0.4522777474
0.4577032869
0.4744636328
0.4885506837
0.4998826399
0.5151694187
0.5354863394
0.5581784319
0.5801924023
0.6104246021
0.6637217498
0.7187795655
0.7592716245
0.8285768562
0.9106976012
1.00894754
1.09900302
0.4146189911
0.4170699429
0.4166735787
0.4163397167
0.416234437
0.4152740068
0.4202433498
0.4236000785
0.4333884193
0.4321229842
0.4329541549
0.4378174706
0.4369167814
0.4422835914
0.4516118038
0.4556567719
0.4615152064
0.4709412425
0.4838936222
0.4982247569
0.5129343089
0.5325695899
0.5570242705
0.5858228327
0.6301372814
0.6907219691
0.7348691542
0.7978503335
0.8699642248
0.9643208435
0.4241831397
0.4246938482
0.4262531353
0.4248902461
0.4230619317
0.4248030897
0.4252406565
0.4247471034
0.4219932238
0.4255850429
0.4229868143
0.4265824966
0.4299698639
0.435178684
0.4375928581
0.4471792753
0.4532409064
0.4552042331
0.4670085047
0.4849013609
0.5042363503
0.5211910149
0.5404422937
0.560281131
0.5858626814
0.6206348128
0.6668283794
0.7083977598
0.771411822
0.8478897103
0.4136438246
0.4126529956
0.4115555366
0.4141668719
0.4130644767
0.4134801613
0.4173271882
0.4154317296
0.4151809784
0.4145409792
0.4175225265
0.4233803566
0.4204482369
0.4321710164
0.4364038555
0.444367822
0.4565452318
0.4766744571
0.4786730933
0.4863954055
0.4884873681
0.502549145
0.5128321501
0.5285603971
0.5486669183
0.5756712317
0.6137422972
0.6575728194
0.6891024348
0.7492560881
0.4088728246
0.4101179525
0.4113192861
0.4093236782
0.4091805409
0.4103339943
0.4057638246
0.405287944
0.4051008882
0.4090102076
0.4190837681
0.4224386975
0.4279105127
0.4262309727
0.4273187434
0.4344948534
0.4406402478
0.4414150867
0.4521765898
0.4597452907
0.472073553
0.4842266814
0.4939276923
0.5079523677
0.5270850163
0.5422500137
0.5661932698
0.5977290781
0.634679869
0.672584928
0.4100867817
0.4097693005
0.4095423827
0.4094974173
0.4089154448
0.411372664
0.4162896057
0.4174773764
0.4204611207
0.4200160044
0.4180013163
0.4234317513
0.4267315977
0.4301427631
0.4275915434
0.4307625224
0.43011804
0.437275523
0.4439985612
0.4495528511
0.4519719462
0.4547361216
0.4700182275
0.4806977813
0.4923887961
0.509072468
0.525654889
0.5451281615
0.5769438425
0.6075698988
0.4173246811
0.4170072126
0.4190847163
0.4176426836
0.4157281357
0.4138161181
0.4125347711
0.4162871618
0.4179687958
0.4176749279
0.4191742561
0.4160497321
0.4187476619
0.4214871345
0.4271702734
0.4285351749
0.429367507
0.4260895254
0.4305628622
0.4321353967
0.4435604874
0.4490224898
0.4497011644
0.4618388217
0.4749125907
0.4871939385
0.4992450199
0.5220719007
0.5448111413
0.576800811
0.4117662813
0.4131161914
0.4152096773
0.4176063733
0.4225273767
0.4211043364
0.420718668
0.417181188
0.4156030198
0.4163865935
0.4176145418
0.419769222
0.4211418727
0.418434985
0.4220243763
0.4198717316
0.4212567748
0.4261167767
0.4280221912
0.4263403928
0.4287936477
0.4382524891
0.4450309712
0.4470801625
0.4473390317
0.4599211096
0.4762538139
0.4929166096
0.5116075426
0.5317333291
0.4174515135
0.417579464
0.4139404471
0.4136618561
0.4140368756
0.4154853064
0.4202920348
0.422873709
0.4260982892
0.4223792794
0.4217715625
0.4146644679
0.4155953718
0.4152515012
0.4169036413
0.4160532037
0.4119267945
0.4178701158
0.4169046088
0.4207185873
0.4294655429
0.4330443614
0.4343424328
0.4487101365
0.4580966807
0.4684536984
0.4764939999
0.4884862541
0.4994346193
0.5099481027
0.4165528629
0.4162577615
0.4151758676
0.4141588233
0.4132156782
0.411792463
0.4103476356
0.408560863
0.4084857174
0.4101795459
0.4171867094
0.4185598378
0.4196763932
0.4239735328
0.4219785764
0.4223112224
0.4257302999
0.4231245891
0.4257497016
0.4294903771
0.4250625308
0.432156963
0.4392014112
0.4455927051
0.4516174953
0.4503110992
0.459994512
0.4662410745
0.4787694485
0.4916291094
0.4151072524
0.4140339261
0.4142902432
0.4132158088
0.4137718982
0.4115188129
0.4103547102
0.4104338181
0.4129494646
0.4123766703
0.4107855527
0.4133845201
0.4086796863
0.406265609
0.4085780596
0.4112726983
0.4106586761
0.4157851595
0.4195765248
0.4230010009
0.4289293687
0.4305023782
0.4326470627
0.4299543281
0.4293735213
0.43615043
0.4398565428
0.4418256342
0.4596014798
0.4690957043
0.4153259884
0.4143148153
0.4126271502
0.4142238513
0.4148732644
0.415077911
0.4169023894
0.4157004923
0.4095987652
0.4068247998
0.4037101783
0.4057228446
0.4119401244
0.4127001493
0.4154945767
0.4168653951
0.4174983282
0.4181440759
0.4218603995
0.4249152093
0.4248230055
0.4212448294
0.4257914517
0.4291177574
0.4330591781
0.4388579865
0.4468585734
0.445911164
0.4470938009
0.4520247892
0.4106509893
0.410562233
0.4147809464
0.4119476113
0.4125606895
0.4130857912
0.4125174403
0.4109626955
0.4120576524
0.4169852914
0.414192076
0.4199526068
0.4151540591
0.4114123535
0.4103870728
0.4115597403
0.4150730581
0.4146693036
0.4115054394
0.4121882876
0.413435655
0.4197700551
0.4241911389
0.4229670336
0.4348577502
0.4307827898
0.4327600134
0.4352011233
0.4392196635
0.4533818999
0.4068209629
0.4060792856
0.4044197582
0.4055489629
0.4069119988
0.4093398898
0.4095743402
0.4091625942
0.4074878683
0.4071504345
0.4123875181
0.4099641795
0.410092355
0.4078645655
0.4088567601
0.4082309725
0.4071174089
0.4066070644
0.4111422981
0.409738187
0.4109433768
0.4095515114
0.4119727768
0.4102330005
0.4113736264
0.4168498713
0.4194965801
0.4234459852
0.4300930736
0.4323636559
)
;

boundaryField
{
    flow
    {
        type            calculated;
        value           nonuniform List<scalar> 
55
(
2.405552198
2.360587806
2.305818984
2.237844867
2.097740578
2.00090756
1.856215362
1.679299504
1.547618659
1.379841754
1.222770187
1.09900302
0.9643208435
0.8478897103
0.7492560881
0.672584928
0.6075698988
0.576800811
0.5317333291
0.5099481027
0.4916291094
0.4690957043
0.4520247892
0.4533818999
0.4323636559
0.4068209629
0.4060792856
0.4044197582
0.4055489629
0.4069119988
0.4093398898
0.4095743402
0.4091625942
0.4074878683
0.4071504345
0.4123875181
0.4099641795
0.410092355
0.4078645655
0.4088567601
0.4082309725
0.4071174089
0.4066070644
0.4111422981
0.409738187
0.4109433768
0.4095515114
0.4119727768
0.4102330005
0.4113736264
0.4168498713
0.4194965801
0.4234459852
0.4300930736
0.4323636559
)
;
    }
    obstacle
    {
        type            calculated;
        value           nonuniform 0();
    }
    frontAndBack
    {
        type            empty;
    }
    procBoundary3to1
    {
        type            processor;
        value           nonuniform List<scalar> 
36
(
2.359244999
2.284325006
2.309741927
2.348938324
2.369199973
2.363373967
2.363373967
1.660547999
1.792254769
1.91352302
2.024261603
2.130417915
2.130417915
0.953091483
1.044284938
1.172182352
1.267488885
1.385231464
1.385231464
0.5630514388
0.5950203324
0.636943863
0.6851715266
0.7280762019
0.7929838751
0.7929838751
0.4460077485
0.4548116804
0.4645836722
0.4782808489
0.4906671515
0.5139333318
0.5139333318
0.4324505527
0.4388148778
0.4388148778
)
;
    }
    procBoundary3to2
    {
        type            processor;
        value           nonuniform List<scalar> 
19
(
0.4300392045
0.4269384335
0.4163473923
0.4169863096
0.4152006311
0.4189638842
0.4176941108
0.4192371191
0.4162969924
0.4117902036
0.4083329253
0.4156544383
0.4088411868
0.4181422206
0.4144141305
0.4172790686
0.4136853694
0.4121111244
0.4054790447
)
;
    }
}


// ************************************************************************* //
