/*--------------------------------*- C++ -*----------------------------------*\
  =========                 |
  \\      /  F ield         | OpenFOAM: The Open Source CFD Toolbox
   \\    /   O peration     | Website:  https://openfoam.org
    \\  /    A nd           | Version:  7
     \\/     M anipulation  |
\*---------------------------------------------------------------------------*/
FoamFile
{
    version     2.0;
    format      ascii;
    class       volScalarField;
    location    "0.009";
    object      internalE;
}
// * * * * * * * * * * * * * * * * * * * * * * * * * * * * * * * * * * * * * //

dimensions      [1 -1 -2 0 0 0 0];

internalField   nonuniform List<scalar> 
654
(
2.724382287
2.378339586
2.154466559
2.370594449
2.920060439
2.575871768
2.016983315
1.41467692
0.8259288818
0.9985624192
1.013974094
1.478640583
1.446701242
2.94384235
1.276467273
4.165279988
1.475463555
1.161321237
0.9058503017
1.002515276
0.7842830706
0.6801736272
1.016635278
1.914937124
1.573747972
1.412671124
1.866726564
1.962379759
2.306403274
2.943118048
4.552613445
1.96749467
2.146891116
3.204157964
0.5243372712
0.8223233713
0.4026939443
0.123223757
0.3125226983
0.5491708045
1.553436371
0.443187315
1.487947264
0.6346014369
1.54079175
0.5325984131
1.719609287
1.753517197
1.571144548
1.776282693
1.643921222
1.250017641
2.07582583
1.367546277
3.478888274
1.318725439
0.6073916101
0.3785153362
0.2975937463
0.6548569033
0.4260986248
0.9907088745
0.8620580634
0.4001513183
0.5535164123
0.6506077264
0.2942657902
0.4363784116
0.3700547486
0.4626047801
1.025697923
0.7505378212
1.142902431
0.6255606391
1.019336352
1.423345318
0.9258821941
1.147630631
2.172416246
1.636425084
1.749114879
1.01387324
2.678630214
2.180075536
0.4364694846
0.1898175456
0.6524574134
0.5142467811
0.4506910615
0.3701938332
0.5258040137
0.6948537745
0.5828037148
0.1123845526
0.2066488563
0.1807235611
0.3493940574
0.04739563258
0.275531432
0.3003058717
0.6566650452
1.080342795
0.7297823131
0.7813391677
0.6619218077
1.604789819
0.4182321798
1.126066851
0.9665650542
0.8093912233
2.253690449
2.242611192
4.073232335
2.579679536
0.1663334285
0.6406731992
0.5783964215
0.363493118
0.2823010712
0.6220322581
0.4773523079
0.7696527325
0.6388015836
0.3875665655
0.2450529211
0.2613968946
0.4989455976
0.2864805193
0.340408449
0.6411674067
0.1321559266
0.413574045
0.3823464807
1.12481794
0.6388363192
0.7410678034
1.126615945
0.7143245178
0.5701725133
1.698538872
0.702697094
0.795256626
1.092728795
2.025334185
0.3852388181
0.3692475672
0.4465709823
0.7218809024
0.3478218035
0.9851497455
0.07516094587
0.6590981512
0.4551896938
0.3507292726
0.3861463023
0.7816437124
0.2973077942
0.8415169933
0.2830469084
0.4976641921
0.250603837
0.2236822709
0.545769923
0.3734705096
0.1420819959
1.310523074
0.7580502881
1.052980859
0.6772297393
1.713094757
1.809364251
0.9195094598
0.7369887957
2.227341639
0.7058748005
0.6389009235
0.3939864061
0.3148523689
0.713645217
0.2778021435
0.4990054466
0.3446164936
0.2005188711
0.1032108564
0.2267896971
0.0818801366
0.5414951502
0.6022556751
0.5379750898
0.4422536193
0.6089405992
0.6307039675
0.7972709268
1.37088957
0.3232793468
1.451372109
0.2487733131
0.9788149273
0.3322792741
0.7878769199
0.3277129743
1.400417112
1.188687925
2.71777954
0.6159547812
0.1866825726
0.3207745615
0.5007501516
0.3310694155
0.167096936
0.4518301586
0.0920795844
0.6125020959
0.3633896843
0.3180942315
0.4618944969
0.6966733471
0.5538896535
0.4431192854
0.49474961
0.4435480801
0.2973722182
0.133987517
0.5488505532
1.103086699
1.364590035
0.150574923
0.9247790907
0.6898903257
1.402778067
0.7664539446
1.761585584
1.707656557
0.8981746614
0.367474535
0.5815787147
0.1758969621
0.1760042839
0.5644568115
0.3587662103
0.3119488724
0.5643758438
0.5822063613
0.6106260197
0.3282919433
0.3086132891
0.175471046
0.1447091763
0.6176651979
0.51307497
0.9380863542
0.4245419788
0.7447614208
0.1174234362
0.09741657789
0.2606149815
0.8805141061
1.17587025
0.2866401007
0.7148129672
0.7170463482
0.7355083181
0.9089100669
1.269696196
0.2852627976
0.426741965
0.1937410304
0.6105662287
0.7660220862
0.3357961595
0.407473418
0.3529608377
0.4605599591
0.5784219529
0.3952351181
0.4012582039
0.4621189268
0.2286326025
0.4037638517
0.01679193302
0.2187248326
0.3531836524
0.6413091709
1.045815577
0.1998857009
0.4463662947
1.263116861
0.864339358
0.6256697894
0.2908572661
0.704235395
0.5467285925
0.3996740189
0.5528683809
0.216738861
0.7357974666
0.530938524
0.453641421
0.2013821986
0.3416438473
0.4968845212
0.3512090882
0.5801743192
0.6339640474
0.3723933659
0.628876181
0.2633670345
0.8603987206
0.3260725826
0.2901806307
0.5110394904
0.4873659633
0.2325000462
0.3233238933
0.8140118459
0.7540421374
0.09788704295
0.6838068133
0.4680265011
1.218369266
0.6854010419
0.8368763921
2.048226338
0.4922633748
0.3468110094
0.2492649655
0.2585879208
0.2779695605
0.3794406606
0.6891174264
0.6301560794
0.8018805082
0.2138613623
0.5760266526
0.5177116816
0.3586809225
0.4070404183
0.2024965014
0.3302699611
0.280228061
0.5399825894
0.507617725
0.4916194348
0.5728987506
0.4348385805
0.4427183581
0.4584958507
0.3547812202
0.5411704992
0.3158562866
0.6128335522
0.7307581175
0.9439346196
0.3721477221
0.431262103
0.3973835548
0.5602464353
0.4702162336
0.6196112942
0.8856710139
0.7894037568
0.2892549619
0.760867927
0.659601628
0.2555256706
0.3479439335
0.1862536495
0.3448078141
0.3422354945
0.2420117396
0.2938813158
0.08216457209
0.5950357279
0.3093318927
0.6380531776
0.410245157
0.508369681
0.2456171041
0.1083749808
0.6836351678
0.1673064048
0.3672833264
0.4980648776
1.329828327
0.3364369309
0.1888895883
0.2324646786
0.3820444258
0.5475840344
0.4952586366
0.4123674277
0.2396196335
0.5303875545
0.3476752839
0.2526463436
0.4849087631
0.210290523
0.448517726
0.5005073566
0.8574568424
0.2689018129
0.4164619545
0.3943678727
0.1907101675
0.2444973347
0.3519089514
0.3711355787
0.2467076113
0.4647841583
0.5492093554
0.1657042332
0.3217473791
0.3995983964
0.5609332245
0.2321754661
0.1924247644
0.3899960136
0.2759120029
0.288092257
0.06339292353
0.4783120402
0.1830443251
0.3113308651
0.2873355283
0.4931851014
0.4071852327
0.2513473846
0.7997643328
0.3334087311
0.5969058031
1.036982645
0.3282888677
0.4055772954
0.2591969935
0.05661910882
0.7986594342
0.3313918283
0.4877964832
0.636366591
0.4789749407
0.4737344837
0.6783420568
0.1903016209
0.4022656738
0.3891737047
0.3343022131
0.1046460536
0.497419533
0.2627254582
0.3028502774
0.1872158997
0.323792334
0.3734222185
0.3355909713
0.1971568875
0.4065753229
1.162648527
0.1346579092
0.2080390796
0.4018217096
0.4314484759
0.2599946585
0.1752055008
0.9379074229
0.3124318373
0.2178944747
0.3502350281
0.8483140852
0.1505919999
0.4757880656
0.6447764314
0.4670294726
0.5612473896
0.309178627
0.6610340973
0.2382858835
0.6189309049
0.4859477259
0.3767672599
0.9936597638
0.1712731877
0.5911420307
0.7165144058
0.365794366
0.6234105929
0.6095973337
0.3131708873
0.5171532546
0.4855546217
0.3826380636
0.4075924241
0.1045750554
0.1493785738
0.388515566
0.3170295751
0.07143964252
0.4237758701
0.396742049
0.2911958756
0.3428524376
0.8330870592
0.4011261745
0.5962772565
0.2046946644
1.016490339
0.4420809783
0.1587242854
0.2011890304
0.4400856175
0.3146302005
0.4496989979
0.4633348102
0.4379985175
0.2214107102
0.2537058632
0.5140483949
0.1978305996
0.4162366086
0.2657144699
0.4220160569
0.3412969012
0.1299422773
0.2813380576
0.1765646392
0.4155558073
0.6207071753
0.3065684886
0.3886040977
0.4758061794
0.383384788
0.7293547665
0.7517377506
0.8784865888
0.6620142967
0.3705202372
0.1942841344
0.2835439319
0.06976253671
0.2034739429
0.223397222
0.7498978699
0.1939007524
0.5358748615
0.5038329985
0.2302454814
0.4949516232
0.5181501084
0.3689764701
0.3441184516
0.4905643786
0.8663031497
0.6323951381
0.3511904455
0.2472056882
0.4738948255
0.4174420454
0.1583106992
0.5627121233
0.3620529038
0.5296576007
0.07803083655
0.6915689358
0.6100098657
0.2067023547
0.5445086437
0.504992738
0.3823380745
0.2415688447
0.2522402826
0.7701813117
0.5035192893
0.5231367344
0.2253742611
0.2632492312
0.5245961745
0.2972425353
0.3598194123
0.8033130409
0.434394301
0.6457878208
0.7542694595
0.6604939589
0.6385599944
0.3878781178
0.2657920785
0.382043129
0.497038583
0.4283355997
0.5889609153
0.3752864133
0.2501815368
0.5295769381
0.2180096693
0.9141610496
0.5616528763
0.3369294782
0.6523595528
0.4491707664
0.155053149
0.6712456312
0.4635363386
0.7556204139
0.03838810318
0.5821790779
0.4011238216
0.1590917808
0.3111044903
0.3440021183
0.4359710397
0.5325232354
0.2248641032
0.3653770685
0.1231553439
0.3125903523
0.5268639297
0.5402244449
0.6153135801
0.5161117115
0.5292817731
0.5517715313
0.2372945479
0.5851793273
0.5010031487
1.085919608
0.2170688131
0.9506238507
0.6610711382
0.20671529
0.2883971056
0.3378065314
0.5446400863
0.6594928568
0.1702312136
0.1836425368
0.6019063155
0.3530301669
0.2552021603
0.08994916974
0.3536567444
0.2966890513
0.1147905404
0.638181804
0.2426861909
0.5386111955
0.6971761553
0.2219932895
0.7987015318
0.8303253896
0.173260271
0.1634721504
0.282774647
0.4353742569
0.1554438151
0.4113697022
)
;

boundaryField
{
    flow
    {
        type            zeroGradient;
    }
    obstacle
    {
        type            calculated;
        value           nonuniform 0();
    }
    frontAndBack
    {
        type            empty;
    }
    procBoundary3to1
    {
        type            processor;
        value           nonuniform List<scalar> 
36
(
0.9975825357
2.781838339
3.107297776
2.109574117
1.816887407
1.989140514
1.989140514
2.518432427
3.017025305
1.911177481
1.605914587
2.395970651
2.395970651
0.6937209791
2.528486406
2.704320511
1.249737271
2.174052238
2.174052238
0.492480322
0.3639580169
0.7413673203
0.6525176864
1.80087257
0.8906882644
0.8906882644
0.4808700765
0.6046875979
0.3793759832
0.9097091559
0.9183908907
0.4994896155
0.4994896155
0.2370272411
0.5328544159
0.5328544159
)
;
    }
    procBoundary3to2
    {
        type            processor;
        value           nonuniform List<scalar> 
19
(
0.508668538
0.5553388832
0.3938771384
0.0743565052
0.1070313653
0.1473648174
0.4381515386
0.4496357031
0.2685102717
0.4223502883
0.1802083256
0.5580391325
0.5747703418
0.4399533265
0.1206986776
0.3408315692
0.3379391635
0.3827111511
0.4230693397
)
;
    }
}


// ************************************************************************* //
