/*--------------------------------*- C++ -*----------------------------------*\
  =========                 |
  \\      /  F ield         | OpenFOAM: The Open Source CFD Toolbox
   \\    /   O peration     | Website:  https://openfoam.org
    \\  /    A nd           | Version:  7
     \\/     M anipulation  |
\*---------------------------------------------------------------------------*/
FoamFile
{
    version     2.0;
    format      ascii;
    class       volVectorField;
    location    "0.009";
    object      momentumMean;
}
// * * * * * * * * * * * * * * * * * * * * * * * * * * * * * * * * * * * * * //

dimensions      [1 -2 -1 0 0 0 0];

internalField   nonuniform List<vector> 
654
(
(0.01529685812 0.004771016592 -2.606669897e-05)
(0.01578067795 0.005099419407 -1.415591033e-05)
(0.01594972868 0.005149023394 -1.203887056e-06)
(0.01594944524 0.005138030691 5.98362448e-06)
(0.01591264309 0.005079811428 1.193824029e-05)
(0.01594908719 0.00505906883 1.054237171e-05)
(0.01569740255 0.004916655933 3.681408387e-05)
(0.01364308408 0.003581032636 9.245537225e-06)
(0.01403375613 0.003911728282 -3.128117302e-05)
(0.01449926138 0.004228331567 -2.780419806e-05)
(0.01487923494 0.004447737488 -4.131065973e-06)
(0.01526247475 0.004642545013 1.776496472e-05)
(0.01572577237 0.004906259131 4.742345328e-05)
(0.01587507041 0.00504582607 9.749014913e-06)
(0.01607378037 0.005116579251 1.657809857e-05)
(0.01609601918 0.005134441632 2.102214198e-05)
(0.01606722312 0.005075929916 1.355054057e-05)
(0.01609910153 0.005087630741 1.71969864e-06)
(0.01065613869 0.001584931148 -1.055125849e-05)
(0.01100917455 0.001837533064 -9.648814299e-06)
(0.01147946673 0.002157048375 -1.865187625e-05)
(0.0120197876 0.002472462736 -1.655180665e-06)
(0.01246241172 0.002763415246 -3.17997196e-05)
(0.01288260977 0.003086036571 -2.214637729e-05)
(0.01344486419 0.003460426749 7.208592324e-06)
(0.01398566774 0.003754809566 2.198386353e-06)
(0.01452109136 0.004081671631 -1.310853919e-08)
(0.014898614 0.004331386409 -1.153207383e-05)
(0.01516305142 0.004563072264 -1.132366705e-05)
(0.01554446249 0.004787968721 2.875837804e-06)
(0.01581681853 0.004977974969 -2.164835806e-05)
(0.01599569555 0.005069554569 -5.856728772e-05)
(0.01604612754 0.005058193114 -2.234576458e-05)
(0.01612803163 0.005083770478 -4.633075995e-05)
(0.008983437025 0.0004087948712 -9.443745899e-06)
(0.009065286599 0.0005143057257 -8.740518459e-06)
(0.009168763592 0.0006213209375 2.254321064e-05)
(0.009323898683 0.00073866225 1.272351641e-05)
(0.009485487076 0.0008679861649 2.290622062e-05)
(0.009721836293 0.001024856684 1.604445725e-06)
(0.009993373406 0.001232529501 -2.225894372e-05)
(0.01035667302 0.001445949903 -2.261596651e-05)
(0.01069668308 0.001677315296 -2.824890979e-05)
(0.01106830294 0.001970687643 -3.042551656e-05)
(0.01151565977 0.002294537194 -8.816728509e-06)
(0.01207353424 0.002559482913 -2.233025607e-05)
(0.01256220561 0.002876198214 -5.252925397e-06)
(0.01310346713 0.003232247291 -2.521477427e-06)
(0.01365038201 0.003557203646 9.038614409e-06)
(0.01411524255 0.003866470045 -6.060416431e-06)
(0.01455696853 0.004153042442 3.197741699e-05)
(0.01508460844 0.004471956359 3.605855257e-05)
(0.01540123229 0.004659703237 -1.095492999e-05)
(0.01576560346 0.004892914072 1.237107104e-05)
(0.01598358287 0.00501915942 -3.048716579e-05)
(0.01607954986 0.005004875485 -4.738184482e-05)
(0.008507534287 0.0001209079209 -1.712200483e-05)
(0.008539149377 0.0001264687997 -9.496030164e-06)
(0.008550217351 0.0001432528565 -1.274356572e-06)
(0.008606752139 0.0001766442378 -6.749764182e-07)
(0.008671725731 0.0002092554678 -6.080813628e-06)
(0.008676247962 0.0002615917796 2.86874868e-06)
(0.008742573023 0.000332638358 -2.425860456e-06)
(0.008785203676 0.0003997015872 1.728375016e-06)
(0.008873772975 0.0004746810014 1.172356651e-05)
(0.009017594358 0.0005797837718 -1.091360779e-06)
(0.009243248263 0.0006823269573 1.009483799e-05)
(0.009412740664 0.000772356012 1.744619951e-05)
(0.009668167227 0.0009376601447 3.37067731e-05)
(0.009928744778 0.001114471785 4.947287744e-05)
(0.01024012451 0.00132186926 5.966764746e-05)
(0.01063937422 0.001580117985 6.016457684e-05)
(0.01108508975 0.001835952222 4.880356943e-05)
(0.01146410142 0.002127719429 2.731409021e-05)
(0.01194191814 0.002401791184 2.431728407e-05)
(0.01247206225 0.002737181355 -3.323586432e-05)
(0.013008421 0.003098915409 -1.224288909e-05)
(0.01345676733 0.003442286777 -1.259078925e-05)
(0.01400904033 0.003756647128 -3.979652742e-05)
(0.01441438059 0.004012309737 -2.044952202e-05)
(0.01489154112 0.004307189014 -9.641393518e-06)
(0.01530954951 0.004578811278 -3.768845605e-05)
(0.01560001396 0.004764734268 1.326119077e-06)
(0.01581701527 0.004884437725 -5.840806311e-06)
(0.008394799193 4.363481659e-05 -5.620696653e-06)
(0.008436320272 4.53412163e-05 -6.372855815e-06)
(0.008485391334 4.506487321e-05 -3.424719229e-06)
(0.008513542652 7.876698521e-05 -3.954261846e-06)
(0.00855072707 0.0001163483261 8.355300348e-06)
(0.008577972982 0.0001622971379 6.585912642e-06)
(0.008586157093 0.0001909296634 4.632862352e-06)
(0.008608751243 0.0002221666945 3.572534475e-06)
(0.008670842396 0.0002610955035 9.068641909e-06)
(0.008736911494 0.0003201611889 -2.952162506e-06)
(0.008914378531 0.0003853661835 -2.655746498e-06)
(0.009003956255 0.0004477815255 9.013479727e-06)
(0.009083218121 0.0005186600326 1.010632477e-05)
(0.009132366527 0.000627632008 1.637283986e-05)
(0.009355166358 0.0007319081208 1.822330076e-05)
(0.009606148157 0.0008630716182 1.792219764e-05)
(0.00984217604 0.001021633621 1.947755869e-05)
(0.0100467834 0.001204783108 1.647196401e-05)
(0.01042476047 0.001431030341 1.577380655e-05)
(0.01086343131 0.00170672993 1.372612758e-05)
(0.01126709851 0.001967698955 2.129249337e-05)
(0.01167348035 0.002250326545 3.006751028e-05)
(0.01214256812 0.002592559372 9.852444186e-06)
(0.01269541923 0.002932028933 -1.747654298e-05)
(0.01328491161 0.00329197898 -1.6695605e-05)
(0.01380815365 0.003606164558 1.12003076e-05)
(0.01427974695 0.003877182862 1.76707869e-05)
(0.01462361044 0.004144568251 1.561130977e-05)
(0.01505889377 0.004439960726 2.97166943e-05)
(0.01556293944 0.004667789076 6.127267777e-05)
(0.008506085322 4.385917261e-05 1.425547747e-06)
(0.008481627467 4.457819432e-05 2.003777053e-06)
(0.008441842501 6.705929544e-05 6.990353888e-06)
(0.008411032491 8.68250502e-05 -2.271452662e-06)
(0.008406512259 9.562889862e-05 6.227258562e-06)
(0.008396000454 0.0001175538146 1.020339038e-05)
(0.00843462083 0.000149887872 6.173146773e-06)
(0.00846122096 0.0001701492326 -2.149466261e-06)
(0.008569276736 0.0001846203353 -2.089076908e-06)
(0.008594664592 0.0002257250446 4.510159025e-06)
(0.008600835221 0.0002785315836 9.198327474e-06)
(0.0086853739 0.0003517514569 -4.255514348e-06)
(0.008858569076 0.0004097801219 2.749686964e-06)
(0.009054601749 0.0004639765219 -1.046285774e-05)
(0.00917249064 0.0005610023163 -4.647689802e-06)
(0.009331895732 0.0006890364852 -2.030428103e-05)
(0.009509389525 0.0007985757518 -1.030508437e-05)
(0.009719900431 0.0009387434457 -1.067475921e-05)
(0.01006827109 0.00110892459 1.492905696e-05)
(0.01039236911 0.001323247794 1.69527129e-05)
(0.01076686594 0.00160640915 2.047883496e-05)
(0.01116062348 0.001862191232 7.048719766e-06)
(0.01152547091 0.002088489611 1.685127135e-05)
(0.01200674238 0.002457594781 -2.390939371e-06)
(0.01250319246 0.002770660888 -2.033673577e-05)
(0.01298797085 0.003139037738 -1.893095812e-05)
(0.01351709038 0.003435180698 -1.480934556e-05)
(0.01415873259 0.00377740771 -1.140391094e-05)
(0.01463616259 0.004086866912 -1.891167566e-05)
(0.01500545723 0.004314077983 -2.946688302e-05)
(0.008277146528 3.663222606e-05 1.961084965e-05)
(0.008268967564 4.764129901e-05 1.377165129e-05)
(0.008331904535 5.590207254e-05 2.275115751e-05)
(0.008354377834 6.350232205e-05 1.700483861e-05)
(0.008368398299 8.524173737e-05 1.640179295e-05)
(0.008376497071 8.620494851e-05 7.956968602e-06)
(0.008449831367 0.000103575687 1.330986942e-05)
(0.008449094355 0.0001330908199 2.226199698e-05)
(0.008474383385 0.0001544267981 8.583959002e-06)
(0.008559278034 0.0001738183257 5.235172413e-06)
(0.008690385881 0.0002040259853 4.070528638e-06)
(0.008833097569 0.0002440662571 4.010152419e-07)
(0.008852689357 0.0003092245977 -1.07193954e-05)
(0.008932266962 0.0003843961352 -2.791394622e-05)
(0.008981408326 0.0004301096203 -1.987534473e-05)
(0.009096090445 0.0005057614822 -1.687504159e-05)
(0.009282902622 0.0006231853036 -1.240175427e-05)
(0.009473761942 0.0007490724694 -5.406039471e-06)
(0.009623767248 0.0008713701859 -1.312231146e-05)
(0.00984557843 0.001049039325 -9.341313778e-06)
(0.01014261865 0.00123973702 -7.749868606e-06)
(0.01052469996 0.001477649141 -3.362185994e-06)
(0.01088320638 0.00172014214 1.816101418e-05)
(0.01132318465 0.001989696396 1.694955485e-05)
(0.01187205777 0.002323957386 -1.728346743e-06)
(0.01243729607 0.002643358238 1.075029481e-06)
(0.01291760275 0.002996554484 -9.844292942e-06)
(0.01339603234 0.003260912595 -1.909232093e-05)
(0.01391978926 0.003623609927 -8.717462457e-06)
(0.01451225222 0.003976292579 -1.533303322e-05)
(0.008337135163 2.827183771e-05 2.46589133e-06)
(0.008345669121 2.676867471e-05 -2.246228724e-07)
(0.00837781833 3.647887775e-05 9.077074152e-06)
(0.008366304924 4.817878262e-05 -3.278712323e-06)
(0.008376460226 5.875488524e-05 -5.91144759e-06)
(0.008399769805 7.255299491e-05 3.311967836e-07)
(0.008520856993 7.321378976e-05 9.910278068e-06)
(0.00852964769 8.683606556e-05 7.110813401e-06)
(0.008577538631 0.0001056872213 -8.317777742e-06)
(0.008608588625 0.0001343554367 -9.310939323e-06)
(0.008604414051 0.0001633764859 -1.576609748e-05)
(0.008640471179 0.0001796239781 -1.031114604e-05)
(0.008719899874 0.0002281447454 3.997304997e-06)
(0.008712203704 0.0003027005133 -8.962098366e-08)
(0.008801185556 0.0003570714358 3.85021656e-06)
(0.008890175236 0.0003942573241 -1.019620307e-05)
(0.009042194033 0.0004878516292 -1.244961597e-05)
(0.009193103995 0.0005937071165 -1.641847396e-05)
(0.009321371689 0.0006839908185 -4.936813201e-06)
(0.009438983745 0.0007955620193 -2.151922794e-05)
(0.009706265575 0.0009624782511 -1.63140299e-05)
(0.009954168132 0.001170737099 -1.920269227e-06)
(0.01032415582 0.001360365604 -1.382975835e-05)
(0.01072948504 0.001603768657 6.913889987e-06)
(0.01111026926 0.001838146499 -3.342423415e-07)
(0.01170331976 0.002148862653 1.592137458e-05)
(0.01221038204 0.002506671865 1.81397824e-05)
(0.01280272031 0.00287192666 2.650807098e-05)
(0.01335268362 0.003155943461 -4.644620447e-06)
(0.01376828148 0.003472054541 2.675693175e-06)
(0.00836708386 1.304635163e-05 -5.455055809e-06)
(0.008293251505 2.312574799e-05 2.763247337e-06)
(0.00829476238 2.717993098e-05 -3.962925566e-06)
(0.008342689402 1.583899362e-05 8.152674368e-07)
(0.008386656254 2.956373839e-05 -5.202837582e-06)
(0.00836067865 3.447226022e-05 -1.268057158e-05)
(0.008397975996 5.214341486e-05 -1.683307698e-05)
(0.008453684979 7.053406844e-05 -1.761860503e-05)
(0.008480451827 7.243248185e-05 6.088019382e-07)
(0.008444456387 9.08492353e-05 3.498765202e-06)
(0.008440707929 0.000123180934 5.386267128e-06)
(0.008507051641 0.0001590448523 8.965077976e-06)
(0.008503302234 0.0001843255627 1.988125308e-06)
(0.008643902792 0.0002114426941 8.192193308e-06)
(0.008742929847 0.0002650642759 -4.210053693e-06)
(0.008733839311 0.000330294162 6.156372475e-06)
(0.008811241944 0.0003799725528 3.345463952e-06)
(0.00886242562 0.000459312275 -9.564897784e-06)
(0.009037945433 0.0005440583294 -1.738495519e-05)
(0.009198169008 0.0006347485321 -2.10315664e-05)
(0.009422756718 0.0007463293615 -4.077795928e-05)
(0.009684668599 0.0008884034763 -2.581184493e-05)
(0.01005696819 0.001074898901 -3.186213065e-05)
(0.01029395438 0.001269942777 -2.215440858e-05)
(0.01062973648 0.001496844936 -5.301014422e-06)
(0.01104137174 0.001709336688 -7.890357486e-06)
(0.01144222821 0.002015632986 -2.000206759e-06)
(0.01200152483 0.002383594044 2.837440875e-05)
(0.01251020647 0.002671335234 5.208990618e-05)
(0.01313189968 0.003050165414 1.708937901e-05)
(0.008337910956 1.002684385e-05 1.020578896e-05)
(0.008397868658 9.958087602e-06 9.036728873e-06)
(0.008407394492 8.836727205e-06 1.84961609e-06)
(0.008443381099 1.580447433e-05 4.724766189e-06)
(0.00847626424 2.819485792e-05 1.025399969e-05)
(0.008527065029 2.755481551e-05 1.447975136e-05)
(0.008504479153 4.476883305e-05 2.194455269e-05)
(0.008448207588 4.947944335e-05 1.637747888e-05)
(0.008446615373 7.265078068e-05 1.020706608e-05)
(0.008475631859 8.39722986e-05 -5.422591197e-07)
(0.008518332931 0.0001116941065 -1.000018452e-05)
(0.008548164871 0.0001304374577 -4.181913202e-06)
(0.008572992683 0.0001484321291 -4.80711458e-06)
(0.008600733686 0.0001764342696 -9.735135453e-06)
(0.008644603718 0.0002092214196 9.252915682e-07)
(0.008736639314 0.000254362597 -9.839537327e-06)
(0.008817044578 0.0003018975727 -4.46880139e-06)
(0.008887942141 0.000359087313 -8.969375344e-06)
(0.008995632007 0.0004452152682 -1.009433242e-05)
(0.009134480126 0.0005117358903 -2.677292706e-06)
(0.009243232719 0.0005687419871 -1.3629294e-05)
(0.009372669015 0.0006967516508 -1.886074647e-05)
(0.009589199276 0.0008218037349 -1.449369154e-05)
(0.009906739019 0.0009936804014 7.02592982e-09)
(0.0102937195 0.001209055753 -1.070406173e-06)
(0.01052375087 0.001401304443 -1.03556029e-05)
(0.01093655683 0.001624011284 -1.58477637e-05)
(0.01145772102 0.001910544471 8.143024179e-06)
(0.01193811167 0.002270461863 1.69026767e-05)
(0.01244354998 0.00255318201 3.87599615e-05)
(0.008333868589 1.527961201e-06 -1.560492349e-05)
(0.008356193662 -4.397679478e-06 -2.111963793e-05)
(0.008372090932 -1.116248946e-05 -7.582665701e-06)
(0.008313781177 -3.663212662e-06 -1.094645539e-06)
(0.008314486429 -2.097130856e-06 -1.905343186e-06)
(0.008309336295 3.835393609e-06 5.332417193e-06)
(0.008301222976 2.344713231e-05 -7.129661455e-06)
(0.008325701959 4.437262939e-05 -1.044783447e-05)
(0.008402216402 5.245197074e-05 -4.645619519e-06)
(0.008350612464 6.939513168e-05 7.374225669e-06)
(0.008388193338 7.812853547e-05 -7.46299207e-06)
(0.008477342093 8.151912124e-05 -2.018450597e-05)
(0.008422436688 0.0001148064777 -2.205911126e-05)
(0.008465602055 0.0001517386824 -1.255395388e-05)
(0.008519862392 0.0001650998802 -6.423670783e-06)
(0.008552964325 0.0001956523526 -4.562769866e-06)
(0.008631084956 0.0002250314083 -8.149886113e-06)
(0.008708461133 0.0002711680736 -1.157864111e-05)
(0.00877514635 0.0003218767851 -6.079727724e-06)
(0.008907297514 0.0004087829565 -1.111726248e-05)
(0.008985953358 0.0004883055569 -5.311505668e-07)
(0.009159455464 0.0005235485768 -9.207665544e-06)
(0.00923520704 0.0006220650949 -1.138319771e-05)
(0.009471326849 0.0007287371583 -2.677534377e-05)
(0.009724789248 0.0009070630919 -3.431594387e-05)
(0.01003549453 0.001111849719 -2.190859565e-05)
(0.01039606956 0.001277790645 -3.577567254e-05)
(0.01073820956 0.001529059334 -2.501746984e-05)
(0.01119922577 0.001806155341 -2.897903531e-05)
(0.01172929046 0.002124360753 -3.230012258e-05)
(0.008523560848 -5.996855024e-07 2.541942742e-06)
(0.008430651296 2.208641453e-05 1.522052374e-05)
(0.008402711262 2.957295886e-05 3.186888149e-06)
(0.008426080851 9.410972987e-06 -9.280486357e-07)
(0.008425170251 1.614235303e-05 -7.109541505e-06)
(0.008455924485 2.289114757e-05 -1.069221227e-05)
(0.008466637249 3.052772787e-05 -4.477970819e-06)
(0.008450822563 3.153664307e-05 -1.605396159e-05)
(0.00843608291 4.995350186e-05 -2.482177856e-05)
(0.00852010857 5.032828537e-05 -2.106631108e-05)
(0.008478103014 5.960618533e-05 -7.258295085e-06)
(0.00844471796 8.224730566e-05 6.256176448e-06)
(0.008480991409 9.730664807e-05 5.28153572e-06)
(0.008553280846 0.000116920159 1.254815888e-05)
(0.008501432993 0.0001487095984 1.990575479e-07)
(0.008570377996 0.000158913735 -1.415283697e-05)
(0.008597074293 0.0001977154013 -1.532695971e-05)
(0.008606963148 0.0002255808905 -1.962110942e-05)
(0.008659975793 0.0002522020091 -3.578437436e-06)
(0.008760650787 0.0002943239278 -2.564472311e-06)
(0.008980719405 0.0003673241177 2.9578556e-06)
(0.009057324395 0.0004310692402 -1.474039792e-05)
(0.009224483621 0.0004949925861 -2.805916726e-05)
(0.009354437987 0.0005916994665 -8.881049128e-06)
(0.009475447015 0.0006872586454 -1.04776758e-05)
(0.009726960837 0.0008450207834 -1.152883043e-05)
(0.01004318846 0.001047495991 -1.384464553e-05)
(0.01032666228 0.001231175034 -2.87687157e-05)
(0.01071582942 0.001439242965 -2.64152424e-05)
(0.0111708772 0.00172189799 -1.683511381e-05)
(0.008322329402 -3.097167227e-06 1.592913409e-05)
(0.008364967991 -8.531187903e-06 9.328326464e-06)
(0.008376143217 -3.543070246e-06 8.799987481e-07)
(0.008397742579 9.358701098e-06 4.971297167e-06)
(0.008394138095 2.068965329e-05 -7.111164753e-06)
(0.008358427229 2.487148308e-05 -9.19083938e-06)
(0.008412378826 1.89413096e-05 -1.932201157e-05)
(0.008361589239 2.895782896e-05 -7.514052631e-06)
(0.008365312249 1.847993927e-05 3.796424789e-06)
(0.008360703571 3.701482555e-05 4.435337142e-06)
(0.008348228636 6.655929762e-05 -2.967785609e-06)
(0.00840524696 7.242832976e-05 -1.177180449e-05)
(0.008388830967 8.475236785e-05 -2.178205882e-05)
(0.008491039957 8.645056374e-05 -1.995330494e-05)
(0.008530414343 9.977741658e-05 -1.934509458e-05)
(0.008622203159 0.0001301755272 -1.211036768e-05)
(0.008675785013 0.0001610138224 -1.147893999e-06)
(0.00887195719 0.0001769900202 7.645347275e-07)
(0.008923400735 0.0002008478397 -1.214042964e-05)
(0.008917593712 0.0002459498326 -2.884018001e-06)
(0.00893572329 0.0002677763671 -1.018431567e-06)
(0.009051783694 0.0003424266957 1.658804693e-05)
(0.009084744359 0.0004040583428 5.031026843e-06)
(0.00913737306 0.00048101815 1.489339665e-05)
(0.009365009979 0.0005778201531 1.840318229e-05)
(0.009484575094 0.0006667880628 -1.68856409e-06)
(0.009715122299 0.0008175196883 -9.626709604e-06)
(0.01002226357 0.0009702798219 -4.24834185e-05)
(0.0102401406 0.001135493174 -2.598818926e-05)
(0.0106054571 0.001340898553 -2.202505718e-05)
(0.00832385001 -3.942374155e-07 6.891919064e-06)
(0.008317519941 7.593063809e-06 1.482922394e-05)
(0.008303998944 -5.343947567e-07 1.47272764e-05)
(0.008276352436 1.504935639e-05 1.479747736e-05)
(0.008223846235 9.559264495e-06 2.041883424e-05)
(0.008252885714 1.626320714e-05 1.470454999e-05)
(0.008227313762 1.861722292e-05 2.118379361e-05)
(0.008273412392 1.204540135e-05 1.610973967e-05)
(0.008270436895 2.720919729e-05 1.334641897e-05)
(0.008271495725 3.34942844e-05 1.698471859e-05)
(0.008348228255 2.300135053e-05 1.350344065e-05)
(0.008383266387 2.536225882e-05 1.207862838e-05)
(0.008428426215 3.632011844e-05 4.404658455e-06)
(0.008439713711 4.662710533e-05 1.168911633e-05)
(0.008444734942 5.579920344e-05 4.039893827e-06)
(0.008494988128 5.800606897e-05 4.889373008e-06)
(0.00854027936 9.131858789e-05 2.800404511e-06)
(0.008537984808 0.0001157641456 1.32781988e-05)
(0.008631845127 0.00013466286 1.281703435e-05)
(0.00871992105 0.0001795244649 1.818281044e-05)
(0.008818897352 0.0002202776629 2.848077889e-05)
(0.008849970256 0.0002850098244 3.437592505e-05)
(0.008973314103 0.000335339176 2.514608787e-05)
(0.009119078583 0.0003789526528 5.687201126e-06)
(0.00919408543 0.0004546890505 -1.510461983e-07)
(0.009322350521 0.0005153579606 1.03350806e-05)
(0.009518990701 0.0006279826102 1.19212888e-05)
(0.009694114877 0.0007838133988 -1.181145961e-05)
(0.009897932263 0.0009351084552 -2.349331701e-05)
(0.01013897579 0.001110599 -1.445472619e-05)
(0.008268307122 5.486469579e-06 -8.566624544e-06)
(0.008258386557 8.33312412e-06 -1.355845876e-06)
(0.008257944277 7.796665257e-06 -1.114144893e-05)
(0.008268629797 3.503166569e-06 -4.77872193e-06)
(0.008336656697 1.353980046e-05 -1.101731371e-06)
(0.008306537644 -2.803600981e-06 5.83761195e-07)
(0.008325643753 1.188813587e-05 6.316737148e-06)
(0.00829270985 1.946055477e-05 9.615902608e-08)
(0.008336004159 7.661394603e-06 4.398429957e-06)
(0.008327666313 8.971117391e-06 1.370121322e-05)
(0.008335700621 7.753169686e-06 1.641158742e-05)
(0.008347350481 2.361521081e-05 1.99359754e-05)
(0.008336896203 2.610203678e-05 2.553362153e-05)
(0.008400255565 2.614176789e-05 1.711290905e-05)
(0.008362109601 3.204091809e-05 2.482585427e-05)
(0.008400849591 5.089927036e-05 2.191284767e-05)
(0.008391431407 4.738230274e-05 1.566014814e-05)
(0.008445094501 6.285461654e-05 1.637816734e-05)
(0.008514074936 9.463168797e-05 1.944559351e-05)
(0.008563739653 0.0001301125853 1.379321223e-06)
(0.008549956387 0.0001503246552 -1.686914818e-06)
(0.008634324533 0.0001791845393 -7.343609063e-06)
(0.008709376322 0.0002251793319 -8.141931437e-06)
(0.008829471617 0.0002894040649 6.410125376e-06)
(0.008863343466 0.0003385499913 2.04465653e-06)
(0.00896861821 0.0004116152097 1.103061922e-05)
(0.009075928179 0.0005054505598 1.279115382e-05)
(0.009257860491 0.0006192390379 3.366625218e-05)
(0.009486425892 0.0007301817731 2.671947057e-05)
(0.009772255418 0.0008789820903 2.101175874e-05)
(0.008453501318 1.614495697e-05 -5.927313033e-06)
(0.00841760665 2.0247044e-05 -1.204905212e-05)
(0.008399337567 1.756007043e-05 -1.374434273e-05)
(0.008345945468 1.462657715e-05 -1.28163315e-05)
(0.008304604333 1.458751277e-05 -9.595082138e-06)
(0.00830403459 2.043131461e-05 -1.358097613e-05)
(0.00829759368 8.412507138e-06 -2.582578705e-05)
(0.008366611809 3.076723523e-06 -1.446265106e-05)
(0.008376149999 6.658486307e-06 -1.009488481e-05)
(0.008394847965 6.502725935e-06 -2.973150108e-06)
(0.008407812485 1.437855141e-05 -9.497317505e-06)
(0.008403846871 1.060949802e-05 -1.701247358e-05)
(0.008429117217 1.192857085e-05 -1.316989923e-05)
(0.008461149841 1.129658703e-05 -6.947028715e-06)
(0.008508771463 2.920032601e-05 -5.890060238e-06)
(0.008451604545 2.856628818e-05 -1.716515242e-06)
(0.008475088802 3.639232662e-05 3.393218384e-06)
(0.008398245438 5.603143278e-05 9.444664673e-07)
(0.008414346777 6.859833414e-05 -1.37276427e-05)
(0.008382964991 8.285238312e-05 -1.270356678e-05)
(0.008522076382 0.0001248592561 -7.588176086e-06)
(0.008523295917 0.0001607055744 -4.784689459e-06)
(0.008531993609 0.0001755764245 8.410744103e-06)
(0.008620131648 0.0002155054516 4.391171535e-06)
(0.008693603088 0.0002948182681 2.489318673e-07)
(0.008770161431 0.0003471479046 1.07263925e-06)
(0.008877555184 0.0003813177601 1.741476256e-05)
(0.009016572296 0.000452714694 1.066555624e-05)
(0.009166628628 0.0005645849447 3.041361129e-05)
(0.009351905034 0.0006925630165 1.734346078e-05)
(0.008281973843 8.994309591e-06 2.225420179e-06)
(0.008285420582 -1.89859875e-06 -1.637737306e-06)
(0.00835339188 9.036034878e-06 -1.019166418e-05)
(0.008389620429 1.22989096e-05 -7.489994404e-06)
(0.008464272001 1.20658162e-05 1.88557068e-07)
(0.008449289608 5.210896904e-06 1.179131432e-06)
(0.008473635619 4.858774602e-06 -3.119480901e-06)
(0.008403835464 2.080138717e-05 -5.570243253e-06)
(0.008345706026 8.242052877e-06 -7.363657383e-06)
(0.00837850208 7.103209499e-06 -1.710954892e-05)
(0.008402111454 1.996281364e-06 -9.7225598e-06)
(0.008407684475 -8.16582022e-06 -9.030762012e-06)
(0.008404676368 6.11386309e-07 -1.471721934e-05)
(0.008369216037 1.394371047e-05 -5.956030626e-06)
(0.008371324934 1.380738713e-05 -5.475821832e-06)
(0.008384669516 3.515541821e-05 -2.190816866e-05)
(0.008374220611 4.575534209e-05 -7.901385447e-06)
(0.008449444607 5.735672953e-05 -6.402690768e-06)
(0.008461865373 5.998921721e-05 4.414168929e-06)
(0.008425122726 8.254371124e-05 2.920060622e-07)
(0.008418555144 9.822026065e-05 1.045465533e-05)
(0.008474496669 0.0001239104034 2.180007663e-05)
(0.008467487905 0.0001792553638 2.322558826e-05)
(0.008506148993 0.0001922110845 2.047463214e-05)
(0.008490162408 0.0002048671182 2.673860906e-05)
(0.008590183621 0.0002672433293 1.407261803e-05)
(0.008683040396 0.0003062036982 1.424792049e-05)
(0.008759438605 0.0003482888038 1.44126311e-05)
(0.008931550735 0.0004299707617 6.690849515e-06)
(0.009075543018 0.0005263843505 2.607386604e-05)
(0.008368708298 1.84025278e-06 -7.172739575e-06)
(0.008355043935 1.083106335e-05 5.445473183e-06)
(0.008347207466 -2.279012462e-06 8.352739084e-06)
(0.008331321121 -3.508573406e-06 8.38257391e-06)
(0.008357195258 2.547320235e-06 -1.913334148e-06)
(0.00836198669 9.423702007e-06 -6.874459428e-07)
(0.008416683845 -3.086997395e-06 3.604694014e-06)
(0.008431610395 -4.214519724e-06 9.611440439e-06)
(0.008503788442 1.541412227e-05 1.563939499e-05)
(0.008406227116 1.170854366e-05 8.576773791e-06)
(0.00837080902 9.862813155e-06 1.08476097e-05)
(0.008317975468 1.666796833e-05 1.218992126e-05)
(0.008330676784 5.032031201e-06 9.929306364e-06)
(0.00829780761 2.547978619e-05 2.38333675e-06)
(0.00833620887 2.459099009e-05 2.661428605e-06)
(0.008324117544 3.074709865e-05 7.784640981e-06)
(0.008292710343 3.065274409e-05 -8.581627115e-06)
(0.008293636892 4.631379868e-05 -1.013222891e-07)
(0.008256039965 6.738497593e-05 3.11002958e-06)
(0.008319201016 6.217748289e-05 8.822284481e-06)
(0.008378014175 8.307506361e-05 -2.697869574e-06)
(0.008412713248 0.0001044177082 -1.024919851e-05)
(0.008387729488 0.0001144211656 -6.57624172e-06)
(0.008565914286 0.000149654502 3.239720105e-06)
(0.008641841184 0.0001696649778 -1.07956731e-06)
(0.00874756273 0.00020064535 -3.346283519e-06)
(0.008799095131 0.0002340875349 3.155312427e-07)
(0.008887192715 0.0003064457726 -6.909152611e-06)
(0.008952013702 0.0003489636131 5.748265378e-06)
(0.009059980665 0.0004080084181 5.770829033e-06)
(0.008307150986 -1.227032066e-05 -2.78242601e-05)
(0.008362742674 -1.951867681e-05 -2.134049566e-05)
(0.008331153047 -2.185900001e-06 -2.015855141e-05)
(0.008316981864 -3.414960949e-06 -1.754086209e-05)
(0.008283869583 -2.000836973e-05 -8.626752456e-06)
(0.0083088491 -1.91637135e-05 1.830466272e-06)
(0.008256895515 -8.952961306e-06 5.901398507e-07)
(0.008287826662 3.032206858e-06 -3.022973679e-06)
(0.008309668931 -2.602197272e-06 -7.086366875e-06)
(0.008309167787 1.204083846e-05 -1.291174352e-05)
(0.008403236825 1.701866737e-05 -8.685674414e-06)
(0.008403170726 2.176914583e-05 -1.166434575e-05)
(0.008383959373 3.486573808e-05 -1.436681592e-05)
(0.008431023859 3.35297994e-05 -9.994508325e-06)
(0.008417506306 3.555500855e-05 -7.303376739e-06)
(0.008391360298 3.32130037e-05 -7.701058799e-06)
(0.008389893407 3.659423847e-05 3.498900666e-06)
(0.008442381919 3.3088379e-05 6.941438316e-07)
(0.008402828553 4.395749461e-05 -5.797346832e-06)
(0.008440559338 5.525768311e-05 -2.226664745e-05)
(0.008409798604 7.018606939e-05 -1.806535823e-05)
(0.008451163933 7.391993336e-05 -1.012057054e-05)
(0.008516630258 7.057739277e-05 -6.339248146e-06)
(0.008509813087 9.489626638e-05 -1.311276683e-05)
(0.00855241688 0.0001239093814 -1.961638443e-05)
(0.008590929593 0.0001398232329 -6.641939266e-06)
(0.008703675875 0.0002077451034 -9.751160169e-06)
(0.008773419378 0.0002278497108 5.901089467e-06)
(0.008863343315 0.0002722553226 1.824930446e-06)
(0.008924941444 0.000347027431 -9.17785276e-06)
(0.008324146009 -4.158527387e-06 1.296737579e-05)
(0.008299467494 -7.876770021e-06 1.301833273e-05)
(0.008291612312 -6.588096404e-06 3.780872768e-06)
(0.008286105027 -7.191901528e-06 1.950789084e-06)
(0.008338442851 -2.541228167e-06 1.169230218e-06)
(0.008323651091 -6.844674778e-06 -5.04097622e-06)
(0.008313841634 -1.844682298e-06 -1.122825509e-05)
(0.008268455225 -9.725786662e-06 -1.432925257e-05)
(0.00828388981 -4.442565546e-06 -3.715059205e-06)
(0.00830170497 -1.535978726e-05 -4.01170219e-06)
(0.008280129728 -9.616299589e-06 -1.255491378e-05)
(0.008314447196 3.662779263e-06 -1.49311536e-05)
(0.00830817473 1.066566851e-05 -1.589175098e-05)
(0.008261108404 1.812266705e-05 -9.933293581e-06)
(0.008277233324 2.24173764e-05 -1.05547329e-05)
(0.008311075509 2.482535495e-05 -1.755250073e-05)
(0.008324399322 3.522560666e-05 -1.186693826e-05)
(0.008358494786 3.415437074e-05 -2.109150459e-05)
(0.008339639019 3.876170151e-05 -1.249129511e-05)
(0.008370592522 4.042057609e-05 -1.801926106e-06)
(0.008449488359 4.359501941e-05 -8.456635696e-07)
(0.008429596571 5.27181139e-05 5.111465751e-06)
(0.008461006273 6.557321051e-05 -6.775519596e-06)
(0.008465172114 8.291139921e-05 -1.11133873e-06)
(0.008434975754 9.44163799e-05 4.36721459e-06)
(0.008490171536 0.0001179154435 -2.345681075e-07)
(0.00850881504 0.000129361527 4.829975645e-06)
(0.008535300078 0.0001754829877 6.682494204e-06)
(0.008668478626 0.0002011435723 3.54857845e-06)
(0.008744446431 0.0002466609283 7.349585661e-06)
(0.008343787655 7.825769737e-07 3.036677717e-06)
(0.008365655632 1.307495586e-06 -5.792457124e-06)
(0.00840126254 -4.772446433e-06 4.751740944e-06)
(0.008369685003 -7.388290462e-06 4.650873587e-06)
(0.008408216342 -1.656821174e-06 1.115861548e-07)
(0.008359812427 1.636570419e-06 1.38433757e-06)
(0.008417723198 -3.292145467e-06 2.094242589e-06)
(0.008385956119 -5.498703746e-06 9.102213576e-06)
(0.008329942078 -3.701360112e-06 1.962497306e-06)
(0.008311808818 1.828633151e-06 1.187429901e-06)
(0.008283743768 -5.036349266e-06 2.05025114e-06)
(0.008248215828 1.332729607e-05 4.46611221e-06)
(0.008348191546 3.475380241e-07 1.125001962e-05)
(0.008373198771 8.400281246e-06 1.127928545e-05)
(0.008444477973 2.781795718e-05 2.019163529e-05)
(0.008388043691 2.11037413e-05 1.313670713e-05)
(0.008350115326 1.641449725e-05 8.135492694e-06)
(0.00835527485 2.669566533e-05 3.111091407e-07)
(0.008373749667 2.165347755e-05 -3.293298992e-06)
(0.008407265162 2.414130235e-05 -1.049426827e-06)
(0.008391093024 2.78569885e-05 -3.799097144e-06)
(0.008410390529 5.046873136e-05 -8.666949619e-06)
(0.008399171387 6.429255662e-05 -1.70964472e-06)
(0.008464185445 7.631732628e-05 5.496122218e-06)
(0.008517147682 7.446923221e-05 6.370317155e-06)
(0.008519816505 8.194184598e-05 2.468639232e-06)
(0.008611238267 9.843718417e-05 2.1819633e-06)
(0.008593767623 0.0001260049793 -1.540147199e-06)
(0.00864928361 0.0001623193681 2.476924921e-06)
(0.00866453871 0.0001979579464 7.365320219e-06)
(0.008334184089 -4.349391951e-06 8.829918898e-06)
(0.008326219563 -1.312360319e-05 9.286035699e-06)
(0.008348184571 -9.910038922e-06 -5.739557752e-06)
(0.008327468928 -1.005627628e-05 -4.077360625e-06)
(0.008308495332 -1.075648524e-05 -8.085396763e-06)
(0.00829708013 3.568390168e-06 -2.684321495e-06)