/*--------------------------------*- C++ -*----------------------------------*\
  =========                 |
  \\      /  F ield         | OpenFOAM: The Open Source CFD Toolbox
   \\    /   O peration     | Website:  https://openfoam.org
    \\  /    A nd           | Version:  7
     \\/     M anipulation  |
\*---------------------------------------------------------------------------*/
FoamFile
{
    version     2.0;
    format      ascii;
    class       volScalarField;
    location    "0.009";
    object      rhoMMean;
}
// * * * * * * * * * * * * * * * * * * * * * * * * * * * * * * * * * * * * * //

dimensions      [1 -3 0 0 0 0 0];

internalField   nonuniform List<scalar> 
654
(
4.476428012e-06
3.967298885e-06
4.048551921e-06
3.964478151e-06
4.239191658e-06
4.407572341e-06
4.50178572e-06
3.781351969e-06
3.628682001e-06
3.757653301e-06
3.78278375e-06
3.848601571e-06
3.926107857e-06
4.033598187e-06
4.072823514e-06
4.185226781e-06
4.317687748e-06
4.581088537e-06
3.69028117e-06
3.693696691e-06
3.637258345e-06
3.786334472e-06
3.712772859e-06
3.877031099e-06
3.660408085e-06
3.859974469e-06
3.886167034e-06
3.912202346e-06
3.962120447e-06
4.169977293e-06
4.18057577e-06
4.179593321e-06
4.416491038e-06
4.488902584e-06
3.42944469e-06
3.545122154e-06
3.588794462e-06
3.644719935e-06
3.653407955e-06
3.673454905e-06
3.651241113e-06
3.559698787e-06
3.660511291e-06
3.830217025e-06
3.839274525e-06
3.770749223e-06
3.796774926e-06
3.78037909e-06
4.022348368e-06
3.988157737e-06
3.900335828e-06
4.030851249e-06
4.259172267e-06
4.243436573e-06
4.364122937e-06
4.381198218e-06
3.673582875e-06
3.653849165e-06
3.708114498e-06
3.625041621e-06
3.541021048e-06
3.618268907e-06
3.460697129e-06
3.545841236e-06
3.622128431e-06
3.587395182e-06
3.521862083e-06
3.59759086e-06
3.604339385e-06
3.649158849e-06
3.659346349e-06
3.687005072e-06
3.69591174e-06
3.760677074e-06
3.878637888e-06
3.932592806e-06
3.993185253e-06
3.930915715e-06
4.161205432e-06
4.175857155e-06
4.323740808e-06
4.496545769e-06
4.411648817e-06
4.47735528e-06
3.484102691e-06
3.575208435e-06
3.489503084e-06
3.543540662e-06
3.623464146e-06
3.61144882e-06
3.582660748e-06
3.616462679e-06
3.601180315e-06
3.609650272e-06
3.596359663e-06
3.60925072e-06
3.6589193e-06
3.663028036e-06
3.678058304e-06
3.731472404e-06
3.717125722e-06
3.740236593e-06
3.712442092e-06
3.792801557e-06
3.825530789e-06
3.886511648e-06
3.900053035e-06
4.021172832e-06
4.053339418e-06
4.074151502e-06
4.211901784e-06
4.416776728e-06
4.348259441e-06
4.668877704e-06
3.588146193e-06
3.581513183e-06
3.549901241e-06
3.64202218e-06
3.64488738e-06
3.623096066e-06
3.653000563e-06
3.694238555e-06
3.610302334e-06
3.683096663e-06
3.70404049e-06
3.570095771e-06
3.694810467e-06
3.682762974e-06
3.743982548e-06
3.755669903e-06
3.696513217e-06
3.843255278e-06
3.932447123e-06
3.9055499e-06
4.040895105e-06
4.08828925e-06
4.038746144e-06
4.033290986e-06
4.079129438e-06
4.238866872e-06
4.218155321e-06
4.262038129e-06
4.329196864e-06
4.595069708e-06
3.698414083e-06
3.621443776e-06
3.608996151e-06
3.716353521e-06
3.703771743e-06
3.67641724e-06
3.682142123e-06
3.765304535e-06
3.671389036e-06
3.63804159e-06
3.804857272e-06
3.705980891e-06
3.896675448e-06
3.80719587e-06
3.732956003e-06
3.89260062e-06
3.822538588e-06
3.878911792e-06
3.874031478e-06
3.984430693e-06
4.016794414e-06
3.933468642e-06
3.9848869e-06
4.027248771e-06
4.239365624e-06
4.257410843e-06
4.190307598e-06
4.420881338e-06
4.375032223e-06
4.552602301e-06
3.576915483e-06
3.80321693e-06
3.74118467e-06
3.76447684e-06
3.673527721e-06
3.627131453e-06
3.790169018e-06
3.846087677e-06
3.783827242e-06
3.700596605e-06
3.676082462e-06
3.808540905e-06
3.785516093e-06
3.703518073e-06
3.750061388e-06
3.757016333e-06
3.81408751e-06
3.942807543e-06
4.008339221e-06
4.011903019e-06
3.963406767e-06
3.955026136e-06
4.026401624e-06
4.105120536e-06
4.124814628e-06
4.254578809e-06
4.451620682e-06
4.481439572e-06
4.533515951e-06
4.759077247e-06
3.668555331e-06
3.865271199e-06
3.838712731e-06
3.936891639e-06
3.840746467e-06
3.634828131e-06
3.82344879e-06
3.813581407e-06
3.842102219e-06
3.841379949e-06
3.718412072e-06
3.794708356e-06
3.79237765e-06
3.711985094e-06
3.861917251e-06
3.850042609e-06
3.811594534e-06
3.911352437e-06
3.97235826e-06
4.121579416e-06
4.113393442e-06
4.018352275e-06
4.043093295e-06
4.13875632e-06
4.2940857e-06
4.335765096e-06
4.458425376e-06
4.506967301e-06
4.52181518e-06
4.566843045e-06
3.85998205e-06
3.90203781e-06
3.828585933e-06
3.746538658e-06
3.762160466e-06
3.799649361e-06
3.850331674e-06
3.85818384e-06
3.772133823e-06
3.93355866e-06
3.866831886e-06
3.883814251e-06
3.793243012e-06
3.797861628e-06
3.727352456e-06
3.77441252e-06
3.870339223e-06
3.937472225e-06
4.068226055e-06
4.030854842e-06
3.975321979e-06
4.041442064e-06
4.106493648e-06
4.092401952e-06
4.272698772e-06
4.249462958e-06
4.508435956e-06
4.486835606e-06
4.458819454e-06
4.764597078e-06
3.899792305e-06
3.874555524e-06
3.763139629e-06
3.707793e-06
3.98385847e-06
4.032492681e-06
3.797257073e-06
3.830506227e-06
3.80230599e-06
3.887710022e-06
3.956812281e-06
4.004220358e-06
3.862998105e-06
3.911184453e-06
3.911393236e-06
3.983016128e-06
3.829705751e-06
3.899819322e-06
3.970581486e-06
4.099942575e-06
4.134974808e-06
4.284131127e-06
4.048560667e-06
4.159381781e-06
4.180468335e-06
4.281900877e-06
4.594568221e-06
4.501733941e-06
4.54339976e-06
4.607095239e-06
3.881634676e-06
3.731691838e-06
3.794717388e-06
3.918894893e-06
3.888707124e-06
3.894184228e-06
3.982912941e-06
4.023106207e-06
4.016259875e-06
3.988018723e-06
3.934231018e-06
3.955254075e-06
3.905442369e-06
3.943244108e-06
3.926487622e-06
3.93937261e-06
3.992766056e-06
4.044602022e-06
3.959300113e-06
4.095786467e-06
4.169370357e-06
4.14721808e-06
4.110764124e-06
4.195099577e-06
4.159162372e-06
4.336225665e-06
4.536474163e-06
4.489843706e-06
4.656516805e-06
4.583658499e-06
3.932910578e-06
3.891347922e-06
3.841783914e-06
3.829300434e-06
4.093958954e-06
3.976420419e-06
3.907054027e-06
3.955530081e-06
3.947925117e-06
3.948584129e-06
3.789181405e-06
3.871099252e-06
3.916113433e-06
4.056522826e-06
3.829026445e-06
4.004159582e-06
3.934556538e-06
4.077569733e-06
4.080576293e-06
4.05739768e-06
4.213972815e-06
4.189535545e-06
4.325270803e-06
4.298460437e-06
4.141131873e-06
4.380028747e-06
4.638551098e-06
4.64234472e-06
4.699522041e-06
4.650445257e-06
3.974210316e-06
3.986869283e-06
4.016779862e-06
4.030277188e-06
4.032683937e-06
4.058028325e-06
4.06040094e-06
4.070298359e-06
3.986836834e-06
4.021797832e-06
3.929501093e-06
3.967697545e-06
4.020186714e-06
3.98881124e-06
4.08873944e-06
4.081129566e-06
4.103084969e-06
4.15323061e-06
4.222110759e-06
4.178714156e-06
4.13971456e-06
4.284337982e-06
4.278850515e-06
4.261053246e-06
4.250322798e-06
4.408642338e-06
4.592056208e-06
4.691755865e-06
4.767996267e-06
4.642178005e-06
3.981822488e-06
4.018314828e-06
4.027744747e-06
4.048249087e-06
3.986394499e-06
4.043369974e-06
4.043978145e-06
4.017486216e-06
3.977709917e-06
4.033037022e-06
3.957126851e-06
4.11972659e-06
4.153916671e-06
3.883760644e-06
4.177198542e-06
4.245373284e-06
4.20285347e-06
4.154804256e-06
4.208035434e-06
4.136171578e-06
4.203143186e-06
4.26783685e-06
4.357456088e-06
4.287548497e-06
4.336520775e-06
4.362692754e-06
4.497037287e-06
4.567165852e-06
4.779544318e-06
4.648315049e-06
4.02083258e-06
3.968806897e-06
4.08399324e-06
4.157526564e-06
3.978271598e-06
4.074290161e-06
3.97443169e-06
4.067401126e-06
4.094938769e-06
3.983288874e-06
4.177622095e-06
4.095797808e-06
4.156542001e-06
4.037252553e-06
4.122389055e-06
4.242216978e-06
4.155647839e-06
4.276600406e-06
4.269521985e-06
4.314791293e-06
4.295917359e-06
4.355450488e-06
4.496508081e-06
4.474889814e-06
4.381937912e-06
4.517074718e-06
4.529841022e-06
4.652334885e-06
4.646667222e-06
4.573855947e-06
4.178669609e-06
4.059973583e-06
4.124086892e-06
4.071324574e-06
3.932948089e-06
4.100862092e-06
3.938086415e-06
4.170991061e-06
4.180620689e-06
4.10459982e-06
4.222458502e-06
4.144105332e-06
4.239612164e-06
4.151242772e-06
4.115518691e-06
4.156701517e-06
4.151163646e-06
4.121239261e-06
4.311587232e-06
4.434327041e-06
4.348631378e-06
4.32766748e-06
4.457867748e-06
4.453540552e-06
4.462070264e-06
4.503477133e-06
4.620293024e-06
4.541705001e-06
4.754224723e-06
4.682883713e-06
4.208640256e-06
4.150731489e-06
4.174793714e-06
4.088132563e-06
3.994009248e-06
4.089938949e-06
4.106145316e-06
4.18322762e-06
4.199224101e-06
4.184609961e-06
4.140219251e-06
4.14481349e-06
4.251195573e-06
4.316010912e-06
4.205475936e-06
4.280773519e-06
4.237153644e-06
4.189892416e-06
4.301200969e-06
4.454082005e-06
4.410070647e-06
4.411112431e-06
4.395328269e-06
4.553563228e-06
4.783181351e-06
4.634649736e-06
4.511054972e-06
4.515217148e-06
4.519130146e-06
4.628443049e-06
4.247028512e-06
4.236675881e-06
4.268778252e-06
4.201591334e-06
4.226868335e-06
4.215867825e-06
4.188997222e-06
4.156915391e-06
4.086250697e-06
4.132235169e-06
4.273215148e-06
4.223879221e-06
4.333715015e-06
4.252360417e-06
4.13058991e-06
4.307545414e-06
4.284213861e-06
4.175006591e-06
4.371386865e-06
4.44819027e-06
4.492556087e-06
4.370491847e-06
4.439021833e-06
4.518374258e-06
4.472923445e-06
4.665042741e-06
4.581301426e-06
4.751933534e-06
4.65420834e-06
4.683874522e-06
4.463135824e-06
4.327971875e-06
4.144910348e-06
4.265459245e-06
4.356664905e-06
4.140493383e-06
4.216022993e-06
4.29583509e-06
4.179447076e-06
4.191604418e-06
4.175857041e-06
4.337324944e-06
4.249419825e-06
4.265480308e-06
4.293362267e-06
4.550821773e-06
4.595794361e-06
4.420910566e-06
4.459717967e-06
4.53802868e-06
4.537299312e-06
4.27542771e-06
4.498199676e-06
4.422061529e-06
4.4616102e-06
4.538064964e-06
4.564917307e-06
4.585901663e-06
4.621223993e-06
4.693140687e-06
4.448766611e-06
4.410040063e-06
4.346133935e-06
4.302477136e-06
4.454876967e-06
4.332107333e-06
4.21479192e-06
4.396613425e-06
4.309698998e-06
4.289561171e-06
4.2465768e-06
4.355225866e-06
4.249634785e-06
4.405873045e-06
4.33631798e-06
4.496880172e-06
4.433779922e-06
4.411995669e-06
4.516305e-06
4.569000007e-06
4.498702474e-06
4.334598089e-06
4.360668239e-06
4.506930258e-06
4.477193884e-06
4.573020244e-06
4.58829284e-06
4.644874135e-06
4.612647447e-06
4.580938259e-06
4.429269289e-06
4.381239749e-06
4.405978331e-06
4.289336481e-06
4.365816958e-06
4.460720775e-06
4.371506262e-06
4.439598185e-06
4.442992867e-06
4.403292028e-06
4.442494726e-06
4.366366469e-06
4.388820794e-06
4.498120397e-06
4.43718353e-06
4.409900037e-06
4.422532744e-06
4.392301945e-06
4.458204876e-06
4.512875299e-06
4.527488565e-06
4.578998892e-06
4.394034371e-06
4.462294772e-06
4.548672915e-06
4.652740501e-06
4.606824581e-06
4.66396565e-06
4.641811221e-06
4.655099739e-06
4.526083708e-06
4.408234711e-06
4.355694665e-06
4.230071725e-06
4.419087948e-06
4.333003242e-06
4.412997086e-06
4.269934669e-06
4.421654732e-06
4.468885547e-06
4.3519719e-06
4.406155012e-06
4.429922761e-06
4.371421249e-06
4.393403418e-06
4.373309303e-06
4.467226094e-06
4.408962151e-06
4.48900271e-06
4.488530317e-06
4.372232641e-06
4.490159898e-06
4.539597164e-06
4.641095353e-06
4.601629439e-06
4.636712754e-06
4.534888492e-06
4.489455993e-06
4.601853892e-06
4.522576819e-06
)
;

boundaryField
{
    flow
    {
        type            calculated;
        value           nonuniform List<scalar> 
55
(
4.476428012e-06
4.50178572e-06
4.581088537e-06
4.488902584e-06
4.381198218e-06
4.47735528e-06
4.668877704e-06
4.595069708e-06
4.552602301e-06
4.759077247e-06
4.566843045e-06
4.764597078e-06
4.607095239e-06
4.583658499e-06
4.650445257e-06
4.642178005e-06
4.648315049e-06
4.573855947e-06
4.682883713e-06
4.628443049e-06
4.683874522e-06
4.693140687e-06
4.580938259e-06
4.655099739e-06
4.522576819e-06
4.526083708e-06
4.408234711e-06
4.355694665e-06
4.230071725e-06
4.419087948e-06
4.333003242e-06
4.412997086e-06
4.269934669e-06
4.421654732e-06
4.468885547e-06
4.3519719e-06
4.406155012e-06
4.429922761e-06
4.371421249e-06
4.393403418e-06
4.373309303e-06
4.467226094e-06
4.408962151e-06
4.48900271e-06
4.488530317e-06
4.372232641e-06
4.490159898e-06
4.539597164e-06
4.641095353e-06
4.601629439e-06
4.636712754e-06
4.534888492e-06
4.489455993e-06
4.601853892e-06
4.522576819e-06
)
;
    }
    obstacle
    {
        type            calculated;
        value           nonuniform 0();
    }
    frontAndBack
    {
        type            empty;
    }
    procBoundary3to1
    {
        type            processor;
        value           nonuniform List<scalar> 
36
(
4.512484663e-06
3.880162055e-06
3.872033068e-06
4.057240236e-06
4.15936357e-06
4.369505947e-06
4.369505947e-06
3.731830649e-06
3.64158101e-06
3.674086376e-06
3.794540543e-06
3.826161739e-06
3.826161739e-06
3.451616046e-06
3.621372256e-06
3.717914384e-06
3.732258993e-06
3.77676388e-06
3.77676388e-06
3.453246083e-06
3.571640789e-06
3.587375991e-06
3.638794486e-06
3.543011558e-06
3.713711494e-06
3.713711494e-06
3.528832627e-06
3.512040445e-06
3.485803733e-06
3.588687068e-06
3.510581329e-06
3.394258543e-06
3.394258543e-06
3.496410055e-06
3.565236611e-06
3.565236611e-06
)
;
    }
    procBoundary3to2
    {
        type            processor;
        value           nonuniform List<scalar> 
19
(
3.563326644e-06
3.574639993e-06
3.612278308e-06
3.648860818e-06
3.805519826e-06
3.871396403e-06
3.83499686e-06
4.043832864e-06
4.022267091e-06
3.983041769e-06
4.064500189e-06
4.131905523e-06
4.13871129e-06
4.20547807e-06
4.226569142e-06
4.345685148e-06
4.28120321e-06
4.408785859e-06
4.430661987e-06
)
;
    }
}


// ************************************************************************* //
