/*--------------------------------*- C++ -*----------------------------------*\
  =========                 |
  \\      /  F ield         | OpenFOAM: The Open Source CFD Toolbox
   \\    /   O peration     | Website:  https://openfoam.org
    \\  /    A nd           | Version:  7
     \\/     M anipulation  |
\*---------------------------------------------------------------------------*/
FoamFile
{
    version     2.0;
    format      ascii;
    class       scalarField;
    location    "0.002/lagrangian/dsmc";
    object      Ei;
}
// * * * * * * * * * * * * * * * * * * * * * * * * * * * * * * * * * * * * * //


2891
(
1.24092e-21
3.18567e-21
3.65391e-21
2.74893e-21
5.67042e-21
6.265e-21
4.30832e-21
2.0667e-21
6.2237e-21
3.03507e-22
2.20599e-21
1.68001e-21
4.42844e-21
5.33748e-21
2.48321e-21
4.29196e-22
1.08306e-21
3.42864e-21
2.44475e-21
3.29124e-21
3.28371e-21
2.41493e-21
8.61036e-21
1.69787e-20
6.46397e-22
2.64446e-22
2.55004e-21
1.07893e-21
1.18436e-20
2.562e-22
8.42764e-22
3.3105e-21
1.18677e-21
7.21553e-22
5.54257e-22
5.27994e-21
3.48905e-23
2.07516e-21
5.07203e-21
3.28267e-21
1.38773e-21
5.34399e-21
5.63658e-21
1.27783e-21
3.3739e-21
9.72461e-22
3.97798e-21
7.11195e-21
1.53006e-21
2.37749e-21
7.26533e-24
2.19722e-21
1.35513e-21
1.14248e-22
1.8603e-21
3.56781e-22
5.52282e-21
5.91455e-22
6.8965e-23
1.17851e-22
1.98472e-21
1.16042e-20
9.29364e-21
1.00325e-20
5.81858e-22
1.7524e-20
2.07988e-21
8.23234e-21
2.42245e-21
2.60142e-21
4.74956e-21
3.2006e-21
1.36066e-20
4.06785e-21
1.10503e-21
1.45521e-22
8.6398e-21
3.39839e-22
8.90703e-21
1.7646e-21
4.72422e-22
3.87328e-21
2.81209e-21
3.86736e-21
3.68026e-21
1.1525e-20
2.64548e-21
5.57984e-21
5.18385e-22
5.43611e-22
1.61988e-21
4.63934e-21
8.71446e-21
2.57992e-21
8.75328e-22
4.16805e-21
1.23176e-20
1.58987e-21
6.88367e-22
8.25564e-21
5.83687e-21
1.1712e-20
1.38156e-20
2.32332e-21
5.84905e-21
5.21776e-21
1.11003e-20
1.28781e-21
7.7123e-21
7.74809e-22
9.17496e-22
5.35095e-22
2.24651e-21
1.28845e-20
4.11094e-21
2.35421e-21
3.13645e-21
3.1973e-21
1.20318e-22
2.36582e-21
3.23148e-21
2.23271e-21
3.03774e-21
2.52715e-21
7.96725e-21
1.49338e-21
1.94345e-21
1.43458e-21
5.3549e-21
2.62294e-21
3.11426e-21
2.52438e-21
2.58847e-21
6.3868e-21
7.0739e-21
2.8506e-22
1.27634e-21
1.04377e-20
3.11429e-21
1.90709e-20
1.95632e-21
2.92868e-21
4.90232e-21
9.28082e-22
5.65221e-21
7.20768e-21
4.52234e-21
5.12642e-21
2.21221e-21
1.88681e-20
3.0989e-21
9.95531e-21
7.70831e-22
4.31773e-21
2.38361e-21
1.34848e-21
2.42982e-21
7.0428e-21
9.16131e-23
2.35883e-21
1.03411e-21
4.65333e-21
4.01364e-22
1.32457e-21
1.21303e-20
2.55347e-22
6.88626e-21
3.9923e-21
3.27556e-21
8.54176e-22
1.74926e-20
2.47472e-21
3.74205e-21
5.43573e-21
5.57934e-21
3.22214e-21
1.86246e-21
2.47522e-22
1.71327e-22
5.32473e-21
3.05024e-21
4.54739e-22
3.94016e-22
3.88312e-21
1.69667e-21
2.05547e-21
1.6928e-21
2.0259e-21
5.24843e-22
1.45076e-20
2.81811e-22
4.82298e-21
1.9156e-21
4.8401e-22
7.97535e-22
7.19552e-22
6.08928e-21
2.8858e-21
4.77358e-21
6.06568e-22
2.66596e-22
4.606e-24
3.66941e-21
1.09838e-21
1.38773e-21
5.53747e-21
1.53205e-20
1.00263e-21
9.09907e-21
3.36582e-21
2.98422e-21
2.48915e-21
5.85832e-21
8.47659e-21
3.2019e-21
3.46591e-21
1.82743e-21
5.62027e-22
1.1822e-21
1.84699e-21
5.34091e-22
3.0373e-21
9.54958e-22
6.91635e-21
3.68609e-21
2.40055e-21
2.80222e-21
3.14384e-21
1.46654e-20
1.25327e-21
2.12167e-21
3.58918e-21
1.3163e-23
7.85958e-21
9.00606e-21
6.10016e-21
2.83875e-21
1.48433e-21
3.99638e-22
2.85686e-21
5.83729e-21
4.86377e-21
3.33679e-21
2.92331e-22
4.94316e-21
1.19676e-21
6.20714e-21
3.48451e-22
2.89001e-21
1.26032e-20
2.32118e-21
1.54678e-21
2.78075e-21
3.34318e-21
8.90069e-22
4.235e-21
2.41749e-23
1.95103e-21
1.0962e-20
1.69542e-22
4.33532e-21
3.34578e-22
7.66424e-21
1.71128e-21
1.43359e-21
9.14297e-22
4.37764e-21
5.82326e-21
5.04663e-21
5.1466e-22
6.04862e-24
1.79003e-21
1.51303e-20
5.43395e-21
4.11662e-21
9.46082e-22
8.7412e-22
5.03068e-22
4.91794e-21
3.40996e-21
4.975e-21
6.40511e-22
5.40303e-21
1.26954e-21
2.53858e-21
7.71801e-21
2.38432e-21
1.51174e-21
2.58543e-21
1.32127e-20
7.46525e-21
4.75691e-21
2.90328e-21
3.19687e-21
8.27433e-21
2.08912e-21
8.63756e-21
5.25474e-21
2.13898e-20
9.5082e-21
1.54305e-22
4.2757e-21
8.48443e-22
9.70536e-22
2.38234e-21
1.74806e-21
4.49038e-21
3.43652e-21
2.66783e-20
2.69733e-22
2.63174e-21
1.2718e-20
1.55212e-20
3.51869e-20
8.4072e-23
1.64536e-21
7.4487e-22
1.0921e-20
5.88983e-21
5.29168e-21
1.78592e-21
8.2105e-21
8.34435e-21
6.15658e-22
6.12786e-21
4.93235e-21
2.27077e-21
5.91343e-22
1.55201e-22
5.20252e-21
4.87932e-22
2.88091e-21
1.09062e-21
2.09508e-21
7.86081e-21
1.21209e-20
3.51149e-21
1.53995e-21
8.67093e-21
2.5823e-21
1.03341e-21
8.1573e-22
1.01375e-22
1.30188e-21
1.3399e-21
1.0056e-20
1.18349e-21
1.48085e-21
2.32857e-21
5.98751e-21
4.8139e-22
1.417e-21
3.97778e-21
1.87502e-21
1.64238e-21
1.10166e-20
8.29443e-21
7.4706e-22
3.70867e-21
7.06862e-22
2.3416e-21
5.01185e-21
1.70881e-21
7.03235e-21
6.72393e-21
7.12948e-22
2.59358e-21
1.02846e-21
8.62011e-21
8.06165e-21
2.03526e-20
1.88954e-21
2.07739e-22
4.82002e-21
2.23435e-21
1.79458e-20
2.52334e-21
6.10709e-21
2.04311e-21
1.05441e-21
6.45772e-21
4.34257e-21
2.54436e-21
5.43799e-21
4.66064e-22
2.20688e-21
8.62917e-21
2.28122e-22
2.78627e-21
3.64367e-21
1.34493e-20
2.12298e-21
3.33401e-21
1.47806e-20
3.88503e-21
8.50502e-22
9.90392e-21
1.04136e-21
1.26811e-21
3.30702e-23
1.88372e-21
1.60181e-20
1.53899e-21
1.82622e-20
2.54843e-21
2.09615e-22
8.70394e-22
5.90199e-22
3.96071e-21
6.17979e-21
6.49486e-21
8.64961e-21
3.33986e-21
2.75823e-21
6.14024e-21
1.14155e-20
2.87035e-22
8.98064e-22
8.07746e-21
7.62881e-21
2.91139e-22
1.8178e-21
1.72002e-21
8.3035e-21
2.31889e-21
2.04699e-21
8.63589e-24
2.52842e-21
8.78637e-21
9.29003e-22
1.0323e-21
4.0413e-21
2.16372e-21
4.42524e-21
1.05497e-21
7.42834e-21
1.77804e-21
2.10277e-21
1.12726e-21
2.96858e-21
1.55979e-20
2.78379e-21
3.7666e-21
2.87507e-21
2.02983e-21
3.15513e-21
5.595e-22
5.97591e-22
3.3843e-21
2.52651e-21
4.79842e-21
7.37551e-22
2.75535e-21
7.91588e-22
9.61899e-21
7.0633e-21
8.31169e-22
3.15548e-22
2.87515e-21
1.34556e-21
1.21859e-21
1.961e-22
3.58355e-22
1.79227e-21
7.6155e-21
2.22672e-22
1.81282e-21
8.0901e-22
1.01388e-21
1.26428e-21
5.36795e-21
6.13488e-22
9.24269e-22
1.48729e-21
2.7826e-21
1.91882e-20
1.3056e-21
3.20619e-21
3.2795e-21
2.38744e-21
3.3459e-21
7.6212e-22
1.40637e-20
6.5279e-22
5.31683e-23
2.413e-21
2.14038e-21
2.45435e-21
9.0416e-22
3.04162e-21
1.6743e-21
8.1483e-21
3.03881e-21
2.38926e-22
2.1053e-22
8.7022e-22
2.08571e-21
3.1259e-21
5.21451e-21
1.53829e-21
1.72871e-22
2.82722e-21
2.73075e-21
1.75411e-21
7.94982e-22
3.25668e-21
1.2025e-21
1.13147e-21
9.27845e-21
1.07928e-20
6.21539e-21
2.67635e-21
3.77139e-22
1.15064e-21
1.22616e-21
2.74342e-21
1.63403e-21
6.38316e-21
5.00943e-21
1.762e-21
6.53359e-22
2.95876e-21
2.557e-21
3.6231e-21
1.53364e-20
3.82308e-21
1.93422e-22
3.41234e-21
2.00509e-20
3.5707e-21
6.86331e-21
4.11796e-21
1.61664e-21
2.23988e-20
2.89733e-21
5.19425e-21
2.89893e-21
1.80063e-21
3.0101e-21
1.95805e-21
1.8523e-22
1.30591e-21
2.37054e-21
5.6865e-22
4.50466e-21
6.43009e-22
3.32195e-22
8.24277e-22
1.16865e-21
2.20359e-22
1.39076e-21
2.6402e-21
5.2303e-21
8.71818e-21
4.17238e-21
8.67274e-21
1.54949e-20
3.05112e-21
2.43095e-21
3.76599e-21
4.11804e-21
1.77815e-21
1.4517e-21
6.13791e-21
9.84375e-22
3.88961e-21
1.01881e-20
4.01415e-22
1.70741e-21
2.28936e-22
3.67556e-21
2.46075e-21
5.18193e-21
2.88621e-21
1.10841e-20
3.59484e-21
1.68527e-21
9.05647e-22
1.03933e-21
6.52021e-22
4.58e-22
6.89338e-21
2.07814e-21
1.43977e-21
1.51e-21
2.27411e-21
1.844e-21
4.67955e-21
8.86586e-21
1.77804e-21
1.69595e-21
7.44658e-21
4.74796e-22
6.70296e-21
7.3933e-22
3.23302e-21
3.15963e-21
1.82773e-22
1.28184e-21
4.68071e-21
2.0373e-21
3.81564e-21
1.72879e-21
1.82338e-21
9.6426e-22
4.26803e-21
8.08972e-22
6.98589e-22
5.60822e-21
1.15573e-21
1.98608e-21
1.19022e-20
2.39e-21
3.06294e-24
2.05627e-21
5.04987e-21
7.19497e-21
1.01231e-23
6.81871e-21
4.9587e-21
2.24785e-21
4.31967e-21
1.872e-21
3.06624e-21
4.3214e-21
8.32524e-21
1.70223e-21
5.84782e-21
2.44099e-21
6.00881e-21
3.81118e-21
1.04111e-20
4.92638e-21
1.66189e-21
1.62926e-21
2.88757e-21
2.57936e-21
5.60036e-21
1.02344e-20
2.67994e-21
2.51476e-23
5.06002e-21
1.75705e-21
1.68076e-21
9.6533e-21
2.12357e-21
4.10317e-22
4.96771e-22
1.1469e-22
5.87572e-21
8.76701e-22
7.73572e-22
3.24916e-21
5.37339e-21
9.26736e-21
1.10785e-20
7.79593e-21
3.13788e-21
6.2245e-21
1.12855e-20
5.25588e-21
1.00839e-22
8.08591e-22
1.27231e-20
1.19502e-24
3.44364e-21
2.12193e-20
7.46142e-21
3.52629e-22
1.1169e-20
2.20492e-22
2.63599e-21
4.49851e-22
1.09415e-20
1.80199e-21
2.06284e-21
9.20099e-21
6.35325e-21
1.70372e-21
6.94171e-21
1.7054e-21
2.37524e-21
6.45353e-21
4.22261e-22
1.56312e-21
6.03162e-21
6.51839e-21
2.62886e-21
4.15412e-21
5.39177e-21
8.20309e-22
7.84815e-21
2.28201e-21
6.28279e-21
8.16289e-22
9.91981e-23
1.9379e-21
4.37268e-22
1.47897e-21
2.22628e-21
8.02751e-21
1.08933e-21
8.74484e-22
3.6868e-21
3.89028e-21
3.04783e-21
4.0793e-21
3.99932e-21
1.59081e-21
4.58563e-21
8.89614e-22
1.71086e-21
2.30444e-20
1.20283e-21
3.26909e-21
2.48059e-21
5.40202e-21
1.22498e-20
5.20598e-22
3.02255e-21
1.51164e-21
3.0817e-21
9.60662e-22
4.25733e-22
4.63917e-21
9.67452e-21
4.12291e-22
1.45562e-21
5.8247e-21
3.66184e-21
1.89074e-22
2.96904e-21
1.60748e-21
1.07134e-21
3.37978e-22
2.06711e-21
6.234e-22
6.60719e-21
2.3847e-21
2.68802e-21
2.39085e-20
7.87495e-22
1.49114e-21
4.41791e-21
2.05327e-21
5.74962e-21
2.83952e-21
3.13007e-22
1.33998e-20
3.73846e-21
4.16285e-22
9.96237e-22
4.01456e-21
7.97575e-21
2.50032e-21
1.10682e-20
2.51767e-22
4.04427e-21
2.85148e-21
5.27684e-21
3.96976e-21
4.22213e-21
9.03523e-21
4.58579e-21
4.92543e-21
2.05948e-20
1.43275e-20
9.62225e-21
6.92755e-21
1.57146e-21
3.29558e-21
1.05117e-20
2.11652e-21
1.16677e-21
2.19875e-21
1.0075e-20
7.2907e-21
2.31341e-21
8.96271e-22
1.59686e-20
3.27315e-22
9.52542e-21
6.04222e-21
8.70841e-22
2.17579e-21
2.40704e-22
7.15804e-22
1.52285e-20
7.98546e-21
2.65534e-21
5.52068e-21
9.07926e-21
1.49948e-21
3.39857e-21
3.96055e-21
1.35762e-21
5.16995e-21
4.58335e-21
5.21427e-21
5.1051e-22
8.98322e-21
1.58461e-21
8.60229e-21
1.25374e-20
1.20988e-22
3.84552e-21
8.32626e-21
6.61696e-22
9.99197e-22
8.25643e-21
3.29499e-21
3.80821e-21
7.51484e-22
4.83928e-22
6.35442e-22
6.56349e-21
5.41037e-21
3.70305e-22
1.77425e-21
4.36039e-21
2.95287e-21
6.75702e-22
9.89113e-21
1.58051e-21
4.04431e-21
2.47273e-21
2.74524e-21
2.79363e-21
2.32483e-21
3.81561e-21
3.17564e-21
1.17436e-21
8.29653e-21
8.22024e-21
2.13233e-21
3.20149e-22
4.34653e-21
4.10994e-22
1.08538e-21
1.13206e-21
1.78967e-21
2.34194e-21
1.88381e-21
1.52801e-21
1.14089e-20
3.02439e-21
2.09299e-20
6.65911e-21
3.78363e-21
1.17377e-22
2.37602e-21
4.68777e-21
1.47893e-21
6.6081e-23
1.64272e-21
2.7814e-21
1.36812e-21
7.91688e-21
4.22174e-22
1.80659e-21
7.21818e-21
2.69348e-22
2.0934e-21
6.82188e-22
1.91442e-22
1.01203e-21
1.06273e-20
2.42338e-21
4.52081e-21
1.40314e-21
4.74445e-21
4.05626e-21
7.26049e-22
2.73308e-21
9.0395e-22
3.95988e-21
1.21839e-21
1.09839e-21
5.66606e-22
9.79546e-22
2.20628e-21
2.06233e-21
8.96636e-21
1.20437e-20
8.4481e-21
5.02728e-21
1.22053e-21
1.08703e-20
1.54498e-20
1.32054e-21
1.10127e-21
2.18626e-21
5.38313e-21
8.41159e-21
1.06629e-22
8.43807e-21
2.15471e-21
1.40145e-20
1.44021e-21
8.84265e-21
1.22327e-20
6.9011e-21
3.33272e-21
2.26766e-21
1.1975e-21
2.39427e-21
1.13157e-21
1.15718e-21
8.26727e-21
1.90351e-21
1.59102e-20
6.41919e-22
9.07308e-21
4.90324e-21
1.3338e-21
5.70666e-21
8.06632e-22
1.71636e-21
5.38792e-22
4.87107e-21
5.61143e-22
1.21114e-21
1.68931e-21
5.89677e-21
3.51175e-22
8.44847e-24
8.203e-21
1.57886e-21
5.26709e-21
4.20565e-22
9.52866e-21
6.15138e-21
9.75324e-21
8.98621e-22
9.41896e-22
1.3571e-21
1.72355e-21
8.48437e-22
8.33574e-23
6.00245e-21
1.61357e-21
4.17908e-22
5.49265e-21
1.01348e-20
2.46205e-21
5.83252e-21
3.498e-21
1.44455e-21
4.00581e-21
2.32597e-21
2.70785e-20
2.59792e-22
1.02546e-20
3.03344e-21
6.87612e-22
2.32642e-21
1.39899e-21
8.76882e-22
3.13466e-22
4.33729e-23
3.7845e-22
4.99475e-21
8.49237e-21
8.06609e-21
2.97818e-21
6.59007e-22
1.68993e-20
1.32112e-20
1.29935e-21
2.34993e-21
8.79908e-21
5.28518e-22
5.86619e-21
4.02897e-21
5.96287e-21
6.91562e-22
4.01074e-21
5.56533e-21
1.75249e-21
4.85576e-21
4.5276e-22
1.22073e-21
1.19888e-21
1.08959e-21
2.18891e-21
9.13137e-21
2.48365e-21
2.21935e-21
6.37146e-21
9.77496e-22
2.63389e-22
4.49667e-21
1.7892e-21
7.36818e-21
4.40665e-21
1.55313e-21
1.65524e-21
7.15801e-22
3.91373e-22
5.37442e-21
1.50631e-21
4.18653e-22
9.91856e-21
1.07055e-20
9.09992e-21
4.99266e-21
1.2359e-20
1.1455e-21
2.51458e-21
1.19832e-22
8.41323e-21
1.25363e-23
4.8598e-21
2.51598e-21
3.0584e-21
1.72102e-21
6.34884e-22
1.05035e-20
1.25539e-21
2.43682e-22
4.52626e-21
3.56403e-22
8.53558e-21
1.34322e-21
4.27917e-22
8.94299e-22
1.10217e-20
1.03663e-20
1.98133e-21
6.63372e-21
2.83006e-21
1.19302e-21
3.10937e-21
5.60824e-21
1.36626e-21
3.09843e-21
1.75306e-23
4.27049e-21
6.74353e-22
8.82055e-21
5.49919e-21
9.08275e-21
9.11717e-21
1.26938e-21
4.6546e-21
1.81577e-21
9.84362e-23
5.06324e-21
2.28968e-21
1.20819e-21
2.46271e-21
5.62656e-23
9.20485e-23
1.39608e-20
1.19356e-20
9.55865e-21
1.82324e-21
1.07393e-21
1.28157e-20
4.09258e-21
1.33882e-21
2.51227e-21
3.70772e-21
3.33835e-21
6.33264e-22
3.14353e-21
7.6507e-22
1.60639e-20
6.18607e-22
6.39235e-22
1.39705e-20
6.36852e-21
1.10005e-21
6.56949e-22
1.97881e-21
2.31642e-21
1.31517e-21
4.07523e-21
1.86623e-21
1.67155e-21
3.90549e-21
1.56829e-20
7.97741e-21
1.69115e-21
1.30683e-21
9.22193e-22
6.99645e-22
8.58096e-22
1.85037e-20
2.36383e-21
8.50791e-22
1.08413e-20
1.27333e-22
1.02368e-21
2.04587e-21
4.87909e-21
1.5113e-21
4.8787e-21
3.67747e-21
2.01053e-21
1.77969e-20
9.18782e-21
6.7913e-21
3.62372e-21
3.67235e-22
6.69774e-22
1.89099e-21
6.89317e-22
4.59921e-22
2.07367e-21
7.84593e-21
3.21343e-21
2.19048e-21
4.05346e-22
4.16374e-21
1.54725e-22
7.18326e-21
1.04923e-21
2.02163e-21
5.16236e-21
5.97573e-21
3.17804e-21
2.56851e-21
2.28767e-21
4.23949e-21
3.63619e-21
3.4522e-22
5.62059e-22
1.11177e-21
7.5223e-21
1.10636e-20
6.47156e-21
2.87162e-21
9.00697e-22
1.23287e-20
4.48858e-21
4.96876e-21
2.27002e-22
1.1059e-22
8.73632e-21
2.12134e-20
2.37646e-21
1.00894e-20
1.8101e-20
5.08486e-21
7.88455e-22
6.70887e-21
1.00637e-21
1.04113e-20
1.26256e-21
8.87628e-22
6.67093e-22
1.41553e-21
2.72785e-21
1.36357e-20
1.55551e-21
4.94242e-21
1.10631e-21
2.29401e-21
2.8172e-21
3.5002e-22
2.6491e-21
1.45433e-21
7.95854e-22
2.56638e-23
6.12352e-22
8.34887e-22
4.44007e-21
2.07068e-21
2.17177e-21
6.45563e-21
3.76111e-21
2.4118e-21
1.31795e-20
3.23245e-21
1.34572e-20
9.56197e-22
3.66618e-22
4.3312e-21
3.58632e-21
1.00643e-20
1.75134e-21
1.0403e-21
2.94956e-21
6.94773e-21
1.87407e-22
3.57818e-22
8.20319e-22
4.24882e-22
1.08693e-20
1.31198e-22
1.66147e-21
8.40853e-22
6.91534e-21
1.12847e-20
6.69496e-22
1.58279e-21
4.27468e-21
1.29788e-20
5.14365e-21
1.19885e-20
2.60806e-22
2.49567e-21
6.0341e-21
6.22389e-21
6.35862e-21
5.52218e-22
1.30126e-20
1.92384e-21
4.98922e-22
2.16806e-21
9.28611e-21
4.47684e-21
2.41271e-21
2.06353e-21
2.47002e-21
4.00712e-21
8.24876e-21
6.09687e-22
1.09101e-20
2.40727e-21
1.3323e-21
4.89271e-21
4.16604e-21
5.2481e-22
1.49428e-21
1.34727e-21
4.91537e-21
2.4462e-21
7.07518e-21
8.99863e-21
2.01141e-22
3.13557e-21
1.24706e-21
2.97122e-21
1.59164e-20
8.98286e-21
1.27094e-21
6.57477e-21
5.20412e-21
9.55939e-22
3.29598e-21
2.86886e-21
1.25056e-21
2.08775e-21
4.36707e-21
7.697e-21
3.54071e-21
2.06927e-22
4.95755e-22
2.682e-22
4.01721e-21
1.87711e-20
2.68805e-21
5.65956e-21
6.69132e-22
9.85144e-22
1.01577e-21
3.25943e-21
1.43068e-20
2.78991e-21
5.12077e-21
1.30705e-21
1.71877e-21
8.99568e-21
8.68064e-22
6.678e-22
9.89596e-22
4.40318e-22
5.28252e-21
1.80877e-21
2.39463e-20
5.4982e-22
2.06249e-21
5.73987e-21
1.63405e-21
4.9591e-21
4.79277e-21
8.34458e-21
7.38392e-22
3.92312e-21
5.13491e-21
3.7029e-21
3.98546e-21
1.77542e-20
2.81093e-21
1.1339e-20
1.37053e-21
5.1885e-21
3.07416e-21
2.01186e-21
3.51731e-22
2.34748e-21
6.4453e-21
4.60441e-21
8.41234e-21
1.22018e-21
5.11916e-21
8.75142e-23
1.56409e-21
7.3135e-21
7.11545e-21
7.91227e-21
1.5694e-22
3.52095e-22
1.83472e-22
3.66277e-21
3.74422e-21
5.84039e-21
1.18944e-21
4.80704e-21
7.51886e-23
1.15294e-21
5.90147e-21
1.42675e-20
3.41921e-23
3.03429e-21
1.572e-21
3.40165e-21
3.99403e-21
1.41228e-20
4.70737e-21
4.99833e-21
2.51974e-22
1.3895e-21
2.22734e-21
6.05971e-21
4.83724e-21
1.515e-21
7.35005e-21
7.79058e-22
2.074e-21
5.63432e-21
7.77456e-22
1.52477e-21
8.20678e-21
6.86971e-21
3.35941e-21
2.35122e-20
1.12203e-21
9.65411e-23
3.3773e-21
1.30371e-22
2.48704e-22
6.28073e-21
1.07205e-21
2.06058e-21
3.4866e-21
7.34841e-21
5.64708e-21
3.39494e-22
3.56304e-22
3.88895e-22
9.96266e-22
2.96295e-21
1.0247e-21
7.97706e-21
3.34178e-21
1.1508e-21
1.23773e-20
2.68429e-21
4.44269e-21
3.0537e-21
3.65916e-21
7.12306e-21
9.69574e-21
1.10456e-20
6.17813e-21
8.13239e-22
3.45143e-21
1.97671e-21
2.69766e-21
2.50372e-21
6.49774e-21
1.91362e-21
9.73699e-22
2.07148e-21
7.66793e-21
1.24296e-21
1.67089e-21
3.32077e-22
3.79379e-22
1.2171e-21
4.19414e-21
8.99793e-22
9.29898e-21
5.11153e-21
1.76336e-21
5.59422e-21
6.09828e-21
1.53948e-22
1.812e-21
1.34165e-21
5.80866e-21
1.90321e-21
8.32816e-22
3.90674e-21
1.99411e-20
1.78377e-20
1.13893e-20
2.69002e-21
5.19195e-22
1.4924e-20
1.92313e-20
1.3816e-21
1.20127e-21
5.72332e-21
5.32806e-21
1.09205e-21
3.83961e-21
2.52329e-21
2.17985e-20
1.365e-21
6.75341e-21
2.35476e-22
2.90218e-22
1.70762e-21
2.96444e-21
1.20086e-21
1.31189e-21
9.08242e-21
1.23761e-22
7.87385e-23
3.40696e-22
2.09968e-21
6.73032e-21
2.84827e-21
5.55442e-21
1.10234e-21
1.37499e-22
3.98944e-21
3.77035e-21
2.06176e-21
5.63517e-22
5.23977e-21
1.0592e-21
7.91539e-22
3.7523e-21
9.32005e-22
2.31748e-21
3.1468e-21
3.02235e-21
2.51511e-21
3.51416e-21
1.81403e-21
8.55005e-21
5.30541e-21
1.96917e-21
1.58245e-21
1.48243e-21
7.39122e-22
2.23453e-21
2.81234e-21
1.82406e-21
5.62431e-22
3.94085e-21
8.0692e-21
1.34265e-20
1.52016e-21
3.3391e-21
1.26823e-21
3.37353e-21
3.14081e-23
3.51847e-21
6.38325e-21
1.27282e-21
8.44731e-21
6.11362e-21
4.4389e-21
1.93875e-21
2.93707e-21
5.5576e-21
1.78019e-20
1.08877e-20
1.39641e-21
8.02624e-21
3.12923e-21
3.6124e-21
5.44169e-22
7.30601e-21
1.40803e-21
1.12041e-21
1.25451e-20
4.045e-21
6.66794e-21
1.73417e-21
6.54249e-21
1.11522e-20
8.12611e-21
1.58097e-21
2.57318e-21
2.07739e-20
1.71975e-21
6.09303e-21
6.7282e-21
3.70912e-21
5.78334e-22
3.39162e-21
2.81161e-21
6.45917e-21
9.32425e-21
7.05333e-21
2.0244e-21
2.85069e-22
2.94983e-22
8.69869e-21
4.3504e-22
5.27561e-21
5.79036e-21
2.9624e-22
6.59924e-21
1.23595e-20
2.44606e-21
4.17651e-22
1.46374e-22
3.78148e-21
3.04228e-21
3.94079e-22
1.8453e-22
8.40697e-22
6.42134e-21
1.8731e-21
1.43175e-20
1.15097e-21
1.50799e-21
1.55077e-21
2.05358e-22
2.84884e-21
4.25887e-21
8.15623e-21
9.9555e-21
1.37905e-21
1.8522e-21
4.01186e-21
1.13808e-21
7.3356e-21
2.29186e-20
4.46032e-21
2.62735e-22
9.56181e-23
2.604e-22
2.89429e-21
8.76598e-22
1.73674e-20
1.50756e-21
3.96896e-21
2.21929e-21
1.02083e-21
2.89184e-21
2.71867e-21
9.03253e-23
1.27375e-20
1.31323e-21
3.28703e-22
6.72346e-21
9.27188e-21
7.02558e-21
9.02434e-21
4.44902e-21
5.15324e-21
5.78033e-21
1.0488e-20
2.78516e-21
2.07877e-21
7.9181e-21
7.58697e-21
6.49067e-22
2.49853e-21
6.93623e-21
1.14212e-21
1.07817e-21
4.37877e-21
3.60708e-21
5.43496e-21
1.90457e-20
6.83713e-21
9.82079e-23
8.8136e-21
1.57931e-20
9.61856e-23
3.93283e-23
4.60079e-21
1.8891e-21
1.12039e-20
7.19425e-21
9.72723e-22
5.44724e-21
1.56048e-21
1.897e-20
1.06005e-21
1.36931e-21
9.30404e-22
3.19781e-21
5.10267e-21
1.24538e-21
3.83155e-21
2.71424e-21
6.73918e-21
5.75914e-21
2.66073e-21
9.71943e-21
8.41715e-22
6.3796e-22
6.4377e-22
9.72823e-23
4.17254e-21
1.85547e-21
4.18468e-21
6.53135e-21
1.27212e-21
5.88256e-22
2.68834e-21
3.42618e-21
1.24344e-21
8.24527e-22
3.98299e-21
1.02498e-20
8.32775e-22
9.22488e-21
1.11997e-20
1.55816e-21
1.30244e-21
1.69993e-20
3.3906e-21
3.19347e-21
5.14115e-21
2.38385e-21
1.40547e-21
6.66442e-21
1.40888e-21
3.70207e-21
4.32757e-21
6.12327e-21
9.11283e-22
1.14075e-20
1.13734e-21
2.24131e-21
2.25425e-21
1.92632e-21
1.46206e-21
7.83596e-21
7.08351e-22
1.28051e-21
2.64586e-22
6.19693e-21
3.8704e-23
5.73933e-21
5.70083e-21
6.99342e-21
4.61974e-21
6.83798e-23
6.7661e-21
4.28245e-21
4.54114e-21
3.53512e-21
2.00545e-21
3.58594e-22
4.32604e-21
4.68199e-23
5.56679e-21
9.74886e-22
4.22569e-21
3.57474e-21
3.17594e-21
3.61126e-21
3.98356e-21
3.69159e-21
1.26136e-21
2.09139e-21
1.85793e-21
4.54492e-21
1.60009e-22
4.9707e-21
5.61594e-24
4.47774e-21
2.26875e-21
1.36282e-21
4.18658e-21
7.78493e-22
1.83583e-21
5.00008e-21
8.4797e-21
4.56728e-21
4.82473e-22
6.16569e-21
1.13961e-20
4.81323e-22
3.79149e-21
4.95519e-21
9.52101e-21
4.31989e-21
2.32555e-21
1.8103e-21
1.16377e-21
4.28043e-21
7.55888e-21
5.20175e-21
1.05146e-20
1.86929e-21
2.22006e-22
5.59002e-21
1.2304e-20
1.51161e-22
2.33637e-21
3.73573e-21
6.87076e-21
2.21715e-21
1.1574e-20
4.11083e-21
1.83134e-21
1.37165e-21
2.66851e-21
7.35384e-22
4.20639e-22
1.1896e-21
2.95046e-21
1.45121e-21
2.17686e-21
6.02593e-21
1.39618e-21
2.52744e-21
9.15037e-21
1.07056e-22
9.77921e-21
1.46037e-21
2.70196e-21
1.91864e-21
2.4147e-21
5.1893e-21
5.0805e-21
5.12052e-21
2.79633e-21
5.47539e-21
9.28434e-21
9.35055e-22
7.13684e-21
3.10965e-22
3.09345e-22
5.76393e-21
6.60717e-21
3.53614e-21
3.39945e-21
3.67273e-21
8.40944e-21
1.66055e-21
5.79111e-21
1.1103e-21
4.64714e-22
1.26163e-21
4.05163e-21
1.78133e-21
1.66948e-21
6.70265e-21
1.15272e-21
7.6728e-21
6.61103e-22
4.60504e-21
1.8087e-21
1.00759e-20
2.1451e-21
8.8888e-22
7.54776e-21
9.90427e-21
1.58805e-21
7.92714e-21
2.19848e-21
4.73412e-21
4.18449e-21
3.48702e-23
5.88814e-23
2.65304e-21
2.05775e-21
3.17137e-21
4.05861e-21
1.63236e-21
6.43634e-21
3.12043e-22
2.7333e-21
3.25175e-21
7.59797e-22
5.25336e-21
3.51616e-21
3.15234e-21
1.24582e-20
5.95236e-22
1.77432e-21
6.32099e-22
2.19494e-20
2.19021e-21
5.84254e-22
6.19816e-21
1.42723e-20
1.43184e-21
1.65081e-21
8.9772e-22
2.96639e-21
4.65656e-22
9.21973e-22
1.87654e-21
5.84842e-21
4.60281e-21
1.11374e-20
3.02277e-21
5.37587e-21
3.86539e-22
2.74855e-22
1.04489e-21
4.50077e-21
5.55997e-21
6.60802e-22
6.49821e-21
2.215e-21
6.81524e-21
1.48276e-21
2.23954e-21
2.34856e-21
6.03103e-22
3.35108e-21
4.09641e-22
3.20521e-21
3.8565e-21
2.37351e-21
2.03998e-22
3.0328e-21
4.94616e-21
3.62402e-21
1.73388e-20
1.26429e-20
4.3442e-21
4.45833e-21
3.63378e-21
4.42688e-21
4.74283e-21
7.9073e-21
8.64939e-22
8.3184e-22
2.40219e-21
2.02612e-21
2.06568e-21
6.74219e-21
1.37914e-20
9.51103e-22
3.46034e-21
1.66237e-21
2.80933e-21
7.66541e-21
1.54178e-20
9.50932e-22
1.02069e-20
1.46959e-21
8.52246e-22
5.49571e-21
1.90593e-21
1.29677e-20
1.11576e-21
1.20465e-21
1.84517e-21
1.60907e-20
2.47765e-21
2.93396e-22
1.96571e-21
1.24159e-21
1.39414e-21
6.26563e-21
6.1271e-21
2.57574e-22
4.51689e-21
1.29229e-21
6.74386e-22
1.50726e-21
1.03905e-20
9.78978e-21
1.12702e-20
4.25059e-21
4.40473e-21
5.87319e-22
1.49421e-20
4.46799e-21
6.47463e-21
2.04489e-21
1.60654e-21
5.22624e-21
7.06868e-21
8.03257e-21
4.88337e-22
7.02861e-21
5.09663e-22
2.55299e-21
3.94545e-21
5.64817e-21
9.79139e-23
3.77262e-21
3.6055e-21
2.33048e-22
7.29155e-21
5.23522e-21
1.8397e-21
1.22779e-22
2.61217e-21
6.97777e-21
1.39054e-21
5.57454e-21
1.70254e-21
1.5173e-21
7.33302e-21
7.30091e-21
1.04201e-20
3.81829e-21
3.48968e-21
8.89197e-21
6.65407e-21
9.95645e-22
2.62521e-21
3.41989e-21
6.05938e-21
3.09795e-21
9.29815e-21
6.69345e-21
7.02648e-22
6.1006e-21
1.06643e-21
1.01685e-20
6.73974e-21
2.97325e-21
2.08056e-21
1.01531e-22
2.41835e-22
1.98202e-21
5.90233e-21
4.39684e-22
2.70617e-22
4.46286e-21
3.75027e-21
3.82734e-22
9.49252e-21
4.67988e-21
1.3619e-22
8.66885e-22
1.34206e-20
6.60596e-22
1.92416e-21
3.02601e-21
2.84344e-21
2.09346e-21
1.30113e-20
3.11734e-21
6.38151e-21
7.05458e-23
8.15443e-21
2.03772e-21
1.58182e-21
1.08278e-21
1.73191e-21
1.10474e-21
3.32749e-21
2.87729e-21
3.3931e-21
6.93228e-22
7.17209e-22
1.2116e-21
3.12122e-21
4.70521e-21
3.70668e-21
3.26426e-21
1.43336e-21
3.29268e-24
4.51286e-21
7.10521e-21
1.46077e-21
6.55144e-21
9.26625e-21
4.47788e-21
1.47957e-21
6.66639e-21
3.646e-23
9.33698e-22
1.7449e-21
2.56375e-21
2.665e-21
1.29139e-20
3.47071e-21
2.80223e-21
2.60052e-21
1.74894e-21
1.73281e-20
3.73394e-21
2.01192e-20
1.00425e-20
2.31464e-23
1.20002e-21
1.28011e-20
2.05987e-21
6.37193e-21
7.08822e-22
8.15162e-22
3.21448e-21
8.24924e-21
1.3199e-21
3.4304e-21
1.38429e-21
4.16167e-22
2.85674e-21
1.04369e-20
1.57079e-21
1.3178e-21
5.41763e-21
6.6964e-22
3.41157e-21
5.78198e-21
1.30258e-21
1.91793e-21
1.89762e-20
1.07539e-20
5.77109e-21
6.99891e-21
5.974e-22
4.28302e-21
4.77225e-22
2.76096e-22
2.76705e-21
1.33266e-21
3.19345e-21
3.33733e-22
8.63034e-21
1.6519e-20
1.00798e-20
1.38733e-21
3.2484e-21
7.65068e-21
1.81848e-20
2.29651e-21
7.02075e-22
2.12746e-21
3.32208e-21
3.32856e-21
5.95087e-21
1.604e-21
9.13058e-21
3.38867e-21
2.70944e-21
3.12668e-21
1.6827e-21
1.91929e-22
9.13776e-21
9.26618e-21
1.11802e-20
7.72342e-21
1.38147e-21
2.63384e-21
1.14766e-21
8.25488e-22
7.24293e-21
1.8448e-22
1.19216e-20
6.669e-22
2.39075e-21
3.49253e-21
2.12979e-21
3.77505e-21
1.12634e-20
3.75636e-23
7.41843e-21
7.93542e-21
5.44449e-21
2.61738e-21
1.26009e-23
2.24175e-21
1.76189e-22
7.73858e-21
5.63341e-21
3.74605e-21
2.01604e-21
1.02705e-20
3.88385e-21
5.01388e-21
1.40679e-21
1.35733e-20
7.47013e-22
2.32716e-21
4.19154e-22
4.4626e-21
5.05142e-21
2.1688e-20
3.31834e-21
6.42335e-21
3.87588e-21
3.957e-21
9.67002e-22
1.80619e-21
1.2956e-21
6.95111e-22
1.21154e-22
1.13186e-21
5.43765e-21
1.08456e-20
4.42211e-22
3.85483e-21
3.9559e-21
1.17413e-20
1.14195e-21
4.40489e-21
4.62409e-22
1.65149e-21
3.256e-21
4.75601e-22
8.17803e-21
8.60391e-22
3.37993e-21
2.65693e-21
5.17843e-21
1.46728e-21
6.33228e-22
3.6206e-21
6.46241e-21
1.13141e-21
9.15422e-22
7.09911e-21
3.7674e-22
4.58873e-21
7.25839e-21
9.74305e-21
3.96214e-21
9.39469e-22
2.36861e-22
2.26514e-21
3.36027e-21
2.98523e-22
9.69359e-22
3.0982e-21
3.06894e-21
1.03779e-22
1.15477e-20
5.5745e-21
3.97966e-21
2.29998e-21
2.19284e-21
6.90592e-21
1.87898e-21
5.26138e-21
5.68685e-21
8.60842e-22
1.05416e-20
4.36224e-21
1.72667e-21
9.43278e-21
3.09128e-21
5.89185e-22
1.36531e-21
1.41409e-21
2.47424e-21
5.02275e-22
1.02239e-20
8.28696e-22
4.77808e-21
1.1426e-21
7.02045e-21
5.02292e-22
1.28508e-21
1.27365e-21
5.82195e-23
3.3397e-21
3.53239e-21
5.40177e-22
9.20823e-21
5.47513e-21
2.85416e-21
8.59989e-22
1.23212e-21
7.34658e-21
1.4292e-21
3.2018e-21
7.00663e-22
9.2779e-22
2.83093e-22
4.99617e-21
3.75643e-21
2.23637e-21
2.90444e-21
1.74669e-21
1.28932e-23
1.64018e-21
3.67324e-22
8.3347e-21
9.45765e-21
2.62483e-21
5.68022e-21
1.16121e-20
6.92577e-22
4.91823e-21
6.44777e-21
1.84108e-21
2.45157e-21
6.48613e-22
7.44968e-22
3.05425e-21
1.76978e-20
3.56861e-21
1.35745e-21
8.53504e-22
3.4158e-21
2.48863e-21
1.33723e-21
2.82887e-21
1.65633e-21
7.31723e-21
8.54914e-21
3.38551e-21
4.02817e-22
6.96912e-21
1.5366e-21
1.30735e-21
3.40958e-22
8.19527e-21
4.98167e-21
2.74597e-21
5.67844e-21
1.24768e-20
1.01836e-21
2.10247e-21
4.50695e-21
3.21398e-21
1.07862e-21
8.39998e-22
1.85978e-21
3.92137e-21
8.43211e-22
3.49486e-21
2.15529e-21
1.83778e-21
1.46437e-20
2.15195e-20
1.29589e-20
9.19905e-21
5.4131e-21
1.61097e-21
3.40089e-21
5.644e-21
6.60298e-21
1.38352e-20
3.07111e-22
1.39263e-20
1.45453e-21
5.88848e-21
2.4934e-21
1.35104e-21
3.23759e-21
6.55667e-22
2.6423e-21
2.16077e-21
7.61914e-22
1.04236e-21
7.98174e-21
1.06003e-20
1.26794e-20
6.13697e-21
3.85688e-21
2.84277e-21
3.53122e-21
1.32207e-21
1.07181e-20
1.22013e-21
1.48303e-20
2.65684e-21
4.66154e-22
5.10289e-22
3.49405e-21
4.50098e-22
3.53589e-22
2.91707e-21
8.1321e-21
2.76448e-22
5.13364e-22
6.22393e-21
1.8564e-21
1.23217e-21
9.2141e-22
2.7521e-21
2.26984e-20
6.90604e-21
5.1501e-22
6.46393e-21
1.86818e-21
9.8331e-22
1.41575e-22
9.61332e-21
2.19035e-21
6.09912e-21
8.0401e-21
1.04325e-21
1.60072e-21
1.40812e-21
4.87315e-22
1.41585e-21
4.64667e-21
1.86392e-21
1.04921e-21
1.18471e-21
6.32317e-22
3.80632e-21
2.55622e-21
7.10526e-21
1.70804e-21
3.72224e-21
9.87972e-21
1.03423e-21
4.55827e-21
1.72149e-21
1.17472e-22
1.95222e-21
3.9881e-21
4.61182e-22
4.45873e-21
1.51076e-21
1.67534e-21
3.78701e-22
1.63481e-21
3.48568e-21
3.37885e-21
3.46556e-21
7.15199e-21
3.33677e-21
6.61222e-21
4.48084e-21
1.45742e-20
9.78652e-22
1.23348e-21
9.54178e-21
5.46332e-22
1.62936e-20
5.87043e-21
3.51972e-21
1.38187e-21
7.44572e-21
2.78318e-21
1.34757e-21
2.76244e-23
6.7765e-21
5.82894e-21
8.12121e-21
2.03975e-21
5.88229e-22
2.07585e-20
1.83998e-21
5.21238e-21
3.11335e-22
9.03409e-21
5.61538e-21
8.98265e-22
8.80831e-21
4.94492e-21
5.41906e-22
1.96574e-20
2.4773e-22
1.15859e-21
7.91324e-22
2.09256e-22
1.97484e-22
1.39769e-21
9.68334e-23
7.89075e-22
3.35829e-21
1.30253e-20
6.92397e-21
9.34206e-21
1.76387e-21
2.03079e-21
4.27165e-21
2.74961e-21
4.51353e-21
9.10552e-22
2.39096e-21
5.30992e-21
4.25673e-21
3.31254e-21
1.77673e-20
1.28996e-21
2.23408e-22
3.85899e-21
4.15655e-22
3.98596e-21
7.1153e-22
6.64939e-21
1.20822e-20
3.45327e-21
6.62859e-21
5.28733e-21
3.35738e-21
2.5347e-21
1.03822e-20
8.57338e-22
1.52929e-21
4.61176e-21
1.33495e-21
2.01278e-21
9.97579e-21
1.45272e-20
8.13112e-22
2.06294e-21
2.20351e-21
9.94473e-22
3.46192e-21
1.12567e-20
1.51491e-21
5.73844e-22
2.48502e-21
1.61207e-21
3.64422e-22
1.47591e-20
1.37e-21
1.7486e-21
4.40577e-21
2.05532e-21
5.81032e-22
1.1812e-22
1.13513e-21
1.10687e-21
8.65978e-21
2.2066e-22
1.35151e-20
1.65629e-21
1.09069e-20
6.60957e-21
6.02089e-22
1.24472e-20
1.33549e-21
9.15721e-21
8.46895e-21
8.35804e-21
8.66007e-21
3.72968e-21
9.57639e-22
2.38927e-21
2.45339e-23
5.25072e-23
9.23627e-21
8.24908e-21
7.80741e-22
1.86215e-21
5.55809e-22
2.22344e-21
1.11653e-21
3.05384e-21
8.97428e-21
1.90023e-21
1.06065e-21
1.07624e-21
3.14562e-21
1.54419e-21
2.1973e-21
2.52834e-21
3.04333e-21
2.28955e-21
2.68616e-21
6.61431e-21
5.58863e-21
1.50767e-21
1.41114e-21
1.28805e-20
1.06257e-20
2.58187e-21
4.03951e-22
1.40205e-21
3.58468e-21
2.05888e-23
3.01132e-21
1.8123e-21
8.65489e-23
7.0718e-21
1.56183e-21
1.34925e-21
4.25915e-21
6.28391e-22
3.46698e-21
4.1129e-22
6.00057e-22