/*--------------------------------*- C++ -*----------------------------------*\
  =========                 |
  \\      /  F ield         | OpenFOAM: The Open Source CFD Toolbox
   \\    /   O peration     | Website:  https://openfoam.org
    \\  /    A nd           | Version:  7
     \\/     M anipulation  |
\*---------------------------------------------------------------------------*/
FoamFile
{
    version     2.0;
    format      ascii;
    class       scalarField;
    location    "0.00108/lagrangian/dsmc";
    object      Ei;
}
// * * * * * * * * * * * * * * * * * * * * * * * * * * * * * * * * * * * * * //


13046
(
1.34472e-20
1.82037e-21
1.1872e-20
6.0927e-21
6.52274e-22
3.78853e-21
1.65602e-20
1.97508e-20
1.12569e-20
2.13519e-21
1.36377e-20
5.58996e-21
5.53973e-21
3.65358e-21
1.08358e-21
1.70825e-20
1.53086e-20
1.4462e-20
1.77015e-20
1.27938e-20
1.86001e-20
6.23155e-21
1.42458e-20
5.33277e-21
3.52961e-21
1.88611e-20
5.5506e-21
7.09568e-21
8.4305e-22
1.8993e-21
1.2268e-21
1.80588e-21
9.42023e-21
4.57226e-21
1.54821e-20
1.46079e-20
2.1253e-21
4.74583e-21
1.1399e-20
5.21442e-21
1.59511e-22
1.09895e-20
2.0736e-20
3.25616e-21
1.6406e-20
5.49146e-21
2.15211e-21
1.48775e-20
6.7361e-22
2.5059e-20
2.69487e-21
9.14727e-21
6.7256e-23
1.32218e-20
9.64249e-21
6.22258e-21
1.15284e-20
2.8458e-20
5.40699e-21
1.61714e-21
4.29995e-21
1.60139e-22
1.54651e-21
8.00756e-25
6.88088e-22
2.192e-22
1.72445e-21
3.3606e-22
1.73468e-21
6.49783e-21
9.28819e-21
1.29092e-20
3.85692e-21
6.94738e-21
3.02741e-21
1.6478e-21
1.28498e-20
3.47666e-21
1.28579e-21
1.4731e-22
1.96197e-20
2.439e-21
3.81622e-21
3.13422e-20
1.04086e-20
8.72735e-22
4.74085e-21
6.33228e-21
4.36602e-21
1.80557e-20
2.97199e-21
6.59845e-21
1.50033e-20
1.43285e-20
1.49316e-20
1.47555e-20
1.65895e-20
1.27006e-20
1.85342e-21
1.83729e-20
9.18248e-21
1.86966e-20
9.43828e-22
7.13885e-21
7.37135e-21
5.82435e-21
2.74865e-21
5.6588e-21
6.41837e-21
4.48962e-22
1.58384e-20
2.61348e-21
3.00081e-21
2.88568e-21
3.0821e-20
1.18311e-20
1.05402e-20
1.57856e-20
3.1792e-20
6.31556e-21
4.79275e-21
5.51578e-22
1.486e-21
6.07619e-21
1.08176e-20
5.98552e-20
1.26085e-20
3.07701e-20
8.24543e-22
1.86524e-20
6.25861e-21
2.48601e-20
2.07341e-20
1.20294e-20
8.4846e-21
1.66977e-20
4.07035e-20
1.48564e-20
1.67887e-20
3.35018e-21
1.27982e-20
7.85177e-21
6.91575e-22
4.47479e-22
2.9594e-21
2.12748e-22
1.94738e-21
8.71772e-21
3.89864e-21
3.29965e-21
1.65957e-20
1.31059e-20
2.03171e-21
1.54139e-21
4.09701e-21
1.92255e-20
4.63227e-22
1.04516e-20
5.39205e-21
1.95882e-20
9.57127e-22
5.84786e-21
6.8303e-21
1.95978e-20
1.11392e-20
1.81156e-20
8.82346e-21
5.59615e-21
2.72203e-21
1.28905e-20
1.0989e-20
2.35779e-21
3.79393e-21
1.1163e-20
1.45988e-20
9.02529e-21
1.34076e-20
4.29272e-21
3.13096e-21
1.14489e-20
2.18222e-21
1.72775e-21
4.3964e-21
1.82552e-20
1.75166e-20
4.84488e-21
4.2177e-21
1.50486e-21
2.3239e-21
1.73723e-20
1.38457e-20
4.68795e-21
1.60919e-20
2.7775e-21
2.65941e-21
1.31578e-21
1.29799e-20
3.02823e-20
8.87001e-21
6.07734e-21
3.75618e-20
4.20105e-21
1.58622e-21
1.53599e-21
1.03038e-22
9.9556e-22
8.91789e-22
9.29698e-22
4.44402e-21
4.52096e-21
8.82288e-21
4.14214e-21
5.19131e-21
9.0298e-21
3.89635e-21
2.04321e-21
1.20344e-21
8.82963e-21
5.45443e-21
9.58624e-22
1.82482e-21
1.03469e-20
1.06097e-21
2.75234e-21
3.03698e-21
4.15402e-21
1.49447e-20
1.4709e-21
4.71294e-21
2.46831e-21
1.1283e-20
6.14725e-22
2.74743e-20
1.35683e-21
9.94868e-21
4.43874e-22
9.16192e-21
1.12143e-21
3.04565e-22
9.1063e-21
1.43995e-20
8.30076e-21
5.78028e-21
1.65808e-20
3.87244e-22
2.85981e-22
2.10951e-21
2.33366e-21
5.43633e-22
5.03552e-21
7.24153e-21
3.43866e-21
4.96253e-21
1.78889e-21
1.69546e-20
3.12417e-21
5.86183e-21
4.60268e-21
3.66435e-21
1.04104e-20
7.87642e-21
7.44328e-21
6.20869e-21
6.31286e-21
3.13807e-21
9.6396e-21
3.79964e-22
3.4456e-20
4.17436e-22
5.98187e-21
2.17018e-21
7.41059e-21
2.84735e-21
1.58593e-20
1.1844e-20
1.52472e-20
7.28822e-21
1.99922e-22
1.26721e-20
1.66256e-20
3.05603e-21
4.01952e-21
5.92632e-22
7.84645e-22
2.37444e-21
5.71903e-21
7.00651e-22
7.89529e-21
3.60943e-21
2.35148e-22
1.72081e-20
2.93098e-21
6.68679e-21
3.01842e-21
2.06303e-21
2.13375e-22
4.5146e-21
4.44676e-21
6.5692e-21
4.21177e-21
9.14308e-21
5.58109e-21
5.00837e-21
6.41493e-21
4.51294e-21
3.96656e-21
7.42107e-21
3.91965e-21
5.03124e-21
6.61114e-21
8.69048e-21
1.39736e-20
1.72936e-20
4.91011e-22
4.12884e-21
3.75845e-21
5.43683e-22
8.23183e-21
1.59099e-20
5.52281e-21
3.74128e-21
5.57354e-21
7.10329e-21
1.38909e-21
7.72088e-21
5.6377e-21
1.58099e-20
1.00742e-20
3.87495e-20
5.45029e-21
1.27533e-20
1.34648e-21
6.94968e-23
3.9174e-20
6.19513e-21
1.38481e-20
2.10007e-21
8.00113e-23
4.5789e-21
3.80151e-20
1.80547e-21
5.34447e-21
4.51931e-21
4.34342e-22
1.13464e-21
1.00502e-21
8.45073e-22
2.70196e-20
1.24793e-20
6.18781e-21
2.03758e-20
3.97536e-22
2.54821e-21
6.07594e-22
1.07454e-20
3.20767e-21
3.31532e-21
3.30187e-21
2.80746e-21
4.1393e-21
5.07491e-21
1.01279e-21
1.99656e-22
1.61993e-20
4.52341e-22
4.96849e-21
1.36685e-21
2.19997e-21
5.94976e-21
4.30941e-21
7.36567e-22
8.15073e-21
1.17228e-20
3.27954e-21
8.93954e-21
4.53481e-21
4.35622e-21
6.23396e-22
1.08765e-20
1.10833e-21
3.01201e-21
2.72459e-21
6.30832e-21
6.16323e-21
3.57146e-21
5.57285e-21
5.05333e-23
2.50153e-21
8.3359e-21
9.99551e-21
1.83479e-21
1.38294e-20
4.22277e-21
9.95277e-21
2.12158e-21
8.64947e-21
5.77974e-21
3.05071e-20
8.59467e-21
1.00855e-20
2.78965e-21
1.85883e-20
3.12566e-21
1.51728e-20
5.03264e-21
5.64341e-22
7.24875e-21
5.52136e-21
2.56872e-21
6.75439e-23
1.32907e-21
1.63992e-20
1.27597e-20
1.47979e-20
4.33497e-21
2.79581e-22
1.53635e-20
3.32895e-21
2.56471e-22
4.15245e-21
4.33127e-21
7.5059e-21
9.30252e-21
1.00121e-20
3.88924e-21
4.78024e-21
8.07808e-22
1.15642e-20
1.4834e-21
3.49505e-22
4.64307e-23
2.23385e-20
4.99557e-21
4.74849e-23
6.01946e-21
1.33258e-20
8.56328e-21
8.09756e-21
4.54243e-21
1.84856e-21
8.67707e-21
1.33876e-21
3.64078e-22
1.13816e-21
7.20448e-21
1.26537e-23
2.06216e-20
1.41413e-22
1.82974e-21
2.35075e-21
3.3668e-21
3.69585e-21
1.15193e-20
3.97246e-22
8.83299e-22
6.83348e-21
5.65884e-22
4.94143e-21
1.22094e-21
3.98233e-21
2.47693e-21
3.43872e-21
1.69007e-20
1.88896e-20
8.62285e-21
2.43093e-21
6.69765e-21
1.81012e-20
1.65791e-20
4.37028e-21
3.09132e-21
1.14686e-21
1.30028e-20
2.55909e-22
1.64515e-20
7.89191e-21
3.31903e-22
6.54278e-21
2.42035e-21
6.65991e-21
2.87408e-22
4.10442e-21
4.62808e-21
5.1891e-22
1.5075e-21
8.77162e-22
7.86466e-21
2.11588e-20
9.49908e-22
1.03605e-20
2.26139e-21
8.93281e-21
4.70865e-21
3.71336e-22
9.55097e-21
1.1335e-20
7.8655e-21
5.37062e-21
2.24862e-22
5.26229e-21
2.86907e-22
1.68291e-21
1.23535e-21
2.70046e-22
4.06457e-22
3.63698e-21
9.83552e-22
1.18244e-21
5.22453e-23
1.94531e-20
6.04501e-21
1.68521e-20
3.34512e-21
1.50016e-20
1.01911e-20
1.72586e-20
4.46295e-21
1.06291e-23
5.74141e-21
7.82351e-21
4.27082e-21
9.48786e-21
2.23459e-20
4.81756e-21
8.18297e-21
2.32004e-21
6.81828e-21
3.08038e-22
1.03094e-20
7.76654e-21
4.31432e-21
2.00136e-20
1.09269e-22
8.03278e-21
1.07319e-20
1.0905e-20
6.90419e-21
2.14802e-20
1.62254e-20
2.95523e-21
1.64741e-21
9.82509e-21
2.86249e-21
8.27127e-22
5.25109e-21
1.45373e-21
1.57361e-20
1.85632e-21
3.21523e-21
9.60493e-21
4.27904e-20
9.46666e-21
1.4116e-20
1.60496e-20
2.56056e-21
1.94975e-22
8.61493e-21
1.62139e-20
3.86492e-21
1.28882e-20
6.90901e-21
4.97977e-21
7.847e-23
1.65625e-21
2.15838e-20
5.59306e-22
8.06608e-21
1.0859e-22
1.35293e-21
6.01453e-21
1.88288e-20
2.80355e-21
2.04463e-20
2.85963e-20
4.33323e-21
7.29361e-23
1.90907e-21
1.45162e-20
8.66815e-21
9.77285e-21
3.41283e-21
3.24261e-21
3.27901e-21
1.15053e-20
2.09092e-20
8.19158e-21
1.74887e-22
7.40898e-22
1.94202e-21
2.16453e-20
1.69352e-21
8.91045e-21
5.10843e-21
3.87819e-21
6.89599e-23
2.0198e-20
4.75405e-21
3.01577e-22
2.71866e-21
8.84341e-22
8.20338e-21
3.22952e-20
1.91114e-21
3.77124e-23
3.59397e-22
1.12231e-21
1.38945e-21
1.77765e-22
1.24075e-20
2.39659e-21
2.54122e-21
2.53522e-20
3.8211e-21
1.14251e-20
3.64713e-21
1.81161e-20
8.45707e-21
2.36e-21
3.44735e-21
1.78838e-21
6.8837e-22
1.78681e-20
8.6592e-21
9.83937e-21
3.97908e-21
9.19181e-21
8.28516e-21
5.24018e-21
5.88054e-22
4.40416e-22
1.15374e-21
5.8691e-21
7.65482e-23
3.59952e-21
6.62358e-22
4.22565e-21
1.27961e-21
4.96793e-21
1.49665e-21
6.92126e-21
1.7864e-22
2.14559e-20
1.97126e-22
4.37045e-21
1.27388e-20
3.26974e-21
2.83125e-21
1.93482e-21
3.11346e-21
1.6199e-20
8.97089e-22
8.69255e-21
8.2898e-22
8.49185e-21
3.47439e-21
3.17733e-21
2.20764e-21
2.45827e-21
1.13429e-21
2.62747e-21
8.70022e-21
6.06046e-21
4.48719e-22
1.42821e-22
2.94992e-21
9.82696e-21
1.5992e-21
2.96017e-21
2.67268e-21
9.84408e-21
6.25147e-21
3.43947e-21
1.84608e-21
5.01336e-21
8.72706e-21
2.01806e-21
1.02034e-21
2.09094e-21
4.47874e-21
1.53057e-20
9.11226e-21
7.36379e-21
3.06499e-21
6.18713e-21
3.13291e-21
2.87273e-21
2.97918e-21
1.29203e-20
2.69752e-21
4.72838e-22
6.23406e-21
5.46741e-21
5.69153e-21
2.3208e-20
7.02973e-22
2.74787e-21
1.5475e-20
1.66327e-22
1.46661e-20
8.80568e-21
1.51254e-20
1.2615e-20
9.885e-21
2.1067e-20
2.45192e-21
1.10232e-20
7.5586e-21
8.95791e-21
7.75792e-21
6.23603e-21
4.00679e-21
1.56107e-20
3.0981e-21
5.49895e-21
1.73003e-21
3.75629e-21
2.97278e-21
8.69523e-21
4.52908e-21
3.62816e-22
1.1878e-21
1.997e-21
6.71933e-21
9.78202e-21
1.18376e-21
5.8968e-21
4.93394e-22
9.5191e-22
1.99727e-21
1.48711e-20
5.32947e-21
2.37086e-20
1.0096e-21
1.21499e-20
3.83152e-21
3.17393e-21
1.03076e-20
1.57206e-21
2.87981e-22
6.20984e-21
1.88372e-21
1.39296e-22
2.45085e-21
5.80673e-21
2.36753e-21
7.6911e-21
9.78169e-22
9.29418e-21
1.82844e-21
6.35004e-21
3.58802e-22
5.54855e-21
5.21742e-22
2.4981e-21
7.34141e-22
4.12422e-21
1.05242e-20
1.30203e-21
1.06449e-20
1.12985e-20
2.04705e-21
2.20607e-20
5.96827e-21
1.67272e-20
3.04802e-21
6.33143e-22
1.14333e-20
1.41577e-20
8.9196e-22
2.09028e-20
1.07487e-20
1.05157e-20
2.38751e-20
3.43847e-21
2.55969e-21
5.16753e-21
4.8011e-21
9.44443e-22
8.06752e-22
9.7739e-22
5.70687e-22
5.52583e-21
5.39267e-21
7.62022e-22
3.1558e-21
8.09482e-21
5.11842e-21
1.24841e-20
1.60679e-21
7.58099e-21
4.50486e-22
1.25089e-20
6.32314e-21
4.77107e-20
1.51267e-20
2.29184e-21
1.33973e-21
5.90015e-21
9.22956e-21
7.34681e-21
1.84245e-20
4.66677e-21
1.51369e-21
1.05879e-20
1.06299e-20
2.55347e-21
1.61518e-21
1.0374e-20
1.5246e-20
1.14485e-20
8.29024e-21
8.20413e-21
2.91171e-21
2.40124e-20
2.28724e-21
2.93699e-21
1.03091e-20
1.19098e-21
6.40189e-21
2.13964e-20
4.25445e-21
5.50732e-21
2.24047e-23
7.45806e-21
1.68305e-20
1.72574e-22
4.91335e-21
8.55587e-21
1.23644e-20
1.52502e-21
3.98445e-21
3.07058e-21
2.3255e-21
9.19515e-21
9.27131e-21
5.09188e-21
2.16469e-20
9.32266e-21
9.61115e-21
1.75868e-21
6.89719e-21
5.38412e-21
5.81435e-21
6.58936e-21
8.06576e-21
4.76369e-21
6.69245e-22
1.91382e-21
1.40013e-20
1.58177e-20
8.88061e-22
6.39833e-21
4.46456e-21
6.08516e-21
5.44509e-21
8.79653e-21
7.24592e-22
5.06031e-21
9.62889e-21
7.25939e-21
4.88843e-21
9.23389e-21
1.5017e-20
6.10093e-22
1.60674e-21
4.16051e-21
1.95849e-22
3.46538e-21
8.35369e-21
1.09056e-20
1.89166e-21
1.50683e-20
5.21797e-22
2.67498e-21
4.94697e-22
2.37163e-21
9.68885e-21
7.22395e-21
1.35593e-20
4.38873e-21
3.30104e-22
8.07443e-22
5.30284e-21
3.2321e-21
6.96803e-22
6.25883e-21
1.1506e-20
3.95713e-20
6.78554e-22
2.43776e-21
5.97128e-22
1.34581e-20
8.76402e-21
8.1882e-21
2.98996e-21
6.10949e-21
9.11466e-21
2.22321e-21
6.64338e-21
5.41073e-21
9.57805e-21
4.9737e-21
4.79728e-21
7.51364e-21
2.57507e-22
3.45239e-21
9.5937e-21
9.39285e-21
8.87752e-22
5.26767e-21
1.04602e-20
7.24586e-21
5.2089e-21
4.94467e-21
2.16579e-22
1.31463e-20
1.35578e-20
5.38927e-22
2.67836e-22
5.6687e-21
2.28171e-21
5.30201e-21
2.68459e-20
1.46276e-21
7.55301e-21
1.41219e-21
1.21344e-20
1.48784e-20
4.53406e-21
4.80481e-21
1.96472e-21
9.71777e-21
1.06131e-21
6.19083e-21
3.33022e-21
6.79285e-21
5.14833e-21
9.53471e-22
6.16359e-21
2.3771e-22
1.45899e-21
2.52411e-20
4.18451e-22
9.42636e-21
1.61742e-21
5.38124e-21
1.73188e-22
9.34783e-23
4.47004e-21
6.17999e-22
1.24531e-21
5.13965e-21
7.56544e-21
1.17612e-21
2.75891e-21
2.45677e-21
3.32371e-21
3.08032e-21
3.03413e-23
1.31925e-20
4.72924e-22
2.26357e-21
1.43097e-20
1.01249e-20
1.82075e-21
1.69847e-20
2.49619e-21
1.15027e-20
1.21484e-21
6.07779e-22
1.11151e-21
7.1093e-22
1.97717e-20
1.43197e-20
4.76381e-21
1.68603e-21
4.85599e-21
7.04913e-22
1.04036e-20
1.94108e-20
7.36275e-21
3.68934e-20
1.70311e-20
1.71291e-20
2.55578e-22
4.22711e-21
1.1493e-20
1.24034e-21
3.19187e-21
1.71367e-21
2.05734e-20
3.30534e-22
5.93839e-22
7.09565e-21
4.49302e-21
2.96145e-21
2.63487e-21
3.21524e-21
1.88824e-20
7.23121e-22
1.36113e-23
5.32867e-21
1.0248e-20
8.8921e-21
1.68968e-21
1.52564e-21
9.90508e-21
2.20605e-21
4.10601e-22
3.59885e-21
5.26388e-21
9.54248e-21
6.48603e-21
1.07054e-20
4.13273e-21
9.11324e-21
9.5413e-22
7.26348e-21
7.76961e-21
1.27628e-21
1.84037e-21
3.71105e-21
2.28523e-21
5.34309e-21
1.41681e-20
3.13091e-22
7.16294e-21
2.18484e-21
1.58207e-20
6.50475e-21
1.39232e-21
1.95733e-21
2.25794e-21
3.28281e-21
2.23124e-20
1.22479e-20
3.0723e-21
3.69042e-21
4.80484e-21
4.14167e-22
7.84068e-21
2.13468e-21
2.47304e-21
1.77567e-21
1.00911e-20
9.34134e-22
1.64306e-21
2.06764e-20
4.61043e-21
2.17855e-21
8.62541e-23
7.80233e-22
3.15951e-20
1.07969e-20
4.227e-22
9.14668e-21
1.15162e-21
1.03772e-20
1.89356e-20
2.60739e-22
2.27228e-21
9.38563e-21
5.41516e-21
1.01082e-21
1.79662e-21
1.10336e-20
6.87499e-21
4.37445e-21
1.3933e-20
1.76012e-21
1.0903e-20
2.0158e-21
6.51295e-21
1.07373e-20
5.99813e-25
7.79646e-21
9.95925e-22
3.55693e-22
2.839e-23
4.72666e-21
1.30821e-21
3.50492e-21
5.17298e-21
4.26973e-22
2.3734e-21
3.9074e-22
1.71374e-20
3.66133e-21
1.18151e-21
1.53708e-20
1.00138e-20
1.18317e-20
3.43025e-21
4.2995e-21
7.21298e-21
3.03207e-21
2.61026e-21
1.44727e-21
2.14019e-20
2.74071e-21
1.50879e-21
7.30249e-22
1.19116e-20
1.63685e-20
5.53159e-21
2.29061e-20
2.06027e-21
1.18452e-22
3.08762e-21
6.10324e-21
1.69538e-20
5.94153e-21
9.18129e-21
6.36663e-23
1.73634e-22
1.40749e-20
5.9647e-21
3.26664e-21
1.69876e-21
1.25065e-20
5.70278e-22
5.96327e-21
8.35723e-21
3.87288e-21
2.2844e-20
2.21444e-21
9.584e-21
4.61101e-22
2.8671e-21
3.82085e-21
1.78697e-21
1.0486e-21
1.90827e-21
8.21739e-22
1.03288e-21
1.25845e-20
9.24582e-21
7.62091e-21
1.5658e-21
1.04252e-22
2.88726e-21
6.04894e-21
2.11781e-21
4.34659e-21
3.80136e-21
6.7943e-21
1.34644e-21
6.47121e-21
8.20583e-22
2.4288e-20
1.09269e-21
2.31184e-20
1.48394e-20
9.36015e-21
1.93469e-20
5.21772e-21
2.96211e-21
8.53071e-21
3.47157e-21
1.51578e-20
1.12735e-20
6.90446e-22
1.74126e-20
1.68822e-21
1.45015e-20
3.64311e-22
6.41001e-21
2.97073e-21
2.95287e-21
8.15325e-21
6.72587e-21
6.56195e-21
2.73127e-21
6.8256e-21
2.82742e-21
1.60993e-21
5.55883e-21
1.66742e-22
5.67846e-21
5.84111e-21
1.06822e-20
8.50522e-21
1.25865e-21
1.59778e-20
7.70588e-23
3.64222e-21
1.56406e-20
2.78469e-21
2.14923e-20
2.24739e-20
1.24111e-20
8.39054e-22
5.18104e-21
9.71821e-21
6.44731e-22
2.19219e-21
5.10647e-22
1.23852e-21
2.34291e-21
1.14307e-20
8.55358e-22
1.41856e-21
1.25723e-21
6.18095e-21
2.46733e-21
1.00944e-20
2.96002e-21
2.06909e-23
1.77549e-21
3.19759e-20
6.29068e-21
3.23413e-21
9.28976e-21
1.77303e-21
2.46471e-21
5.37141e-21
1.24128e-21
9.60246e-21
1.318e-21
4.99651e-21
4.36477e-21
1.02839e-20
4.73697e-21
5.33012e-21
7.96703e-22
7.67158e-21
2.18197e-20
7.34392e-21
1.13018e-21
7.18661e-22
9.1391e-21
1.16664e-20
1.91257e-20
7.2285e-22
5.35267e-22
4.77708e-21
2.28469e-20
1.20954e-20
2.45747e-22
6.76808e-22
1.01595e-21
4.80409e-21
3.66076e-21
9.81053e-21
2.07255e-21
1.67323e-20
7.62724e-21
1.22896e-20
3.00834e-21
9.07204e-22
4.76355e-21
6.54592e-21
4.32997e-21
5.77212e-21
1.14441e-20
7.87552e-21
9.50997e-21
1.23694e-21
7.90427e-21
3.58685e-21
1.58052e-20
1.30626e-20
2.27928e-20
1.30757e-20
2.96642e-22
1.5256e-21
1.08691e-20
4.92292e-21
4.28739e-21
1.39743e-20
5.84238e-21
1.44226e-21
3.49912e-20
6.37768e-21
7.08244e-21
3.30562e-21
1.99179e-21
1.72923e-21
1.25438e-21
3.44845e-22
2.50901e-21
1.07806e-20
1.7108e-20
8.9886e-21
3.92835e-20
6.75682e-21
1.2505e-21
1.52416e-21
2.89226e-21
2.87762e-21
6.58771e-22
8.45795e-21
3.43064e-21
6.28482e-21
1.21124e-21
4.42858e-21
7.49548e-21
1.3823e-20
2.43315e-21
6.6168e-22
1.69175e-20
3.41957e-21
2.75838e-21
8.67115e-22
2.99245e-21
9.5613e-21
1.2321e-20
8.10355e-21
1.21745e-22
1.28993e-20
4.88987e-21
3.46738e-21
1.16626e-20
2.81746e-21
7.1665e-21
4.64335e-21
1.05377e-20
6.84054e-21
3.56915e-21
3.29994e-24
1.27113e-21
4.11905e-21
1.33212e-21
1.33377e-20
1.0127e-20
2.05547e-20
1.08556e-21
2.58323e-21
3.42017e-21
8.43837e-21
1.08892e-20
8.27648e-21
4.75281e-21
1.05204e-20
6.5362e-21
2.84591e-21
5.56851e-20
1.34527e-21
1.63983e-20
2.45015e-21
6.41204e-21
1.42595e-21
4.88787e-21
1.46279e-20
6.51806e-21
1.00656e-20
9.34501e-21
4.85676e-21
9.24588e-21
1.82392e-21
5.59321e-22
2.42895e-21
2.37102e-21
8.75575e-21
3.52068e-21
6.49555e-21
5.06977e-21
2.19294e-21
1.96233e-20
1.3152e-21
8.45865e-23
8.73214e-21
2.88695e-21
1.02105e-20
1.05791e-21
1.3621e-20
1.63272e-20
5.13276e-21
1.67696e-21
1.03854e-21
5.62134e-22
7.47957e-22
1.03678e-20
8.89645e-22
5.26744e-21
2.94375e-20
8.0954e-21
3.62336e-22
3.88843e-21
8.94207e-21
2.38744e-21
2.46532e-21
3.54881e-21
8.88066e-22
1.76345e-20
9.73146e-24
1.24024e-20
3.94581e-21
4.24871e-21
1.82398e-21
2.06689e-20
4.36451e-21
4.41848e-21
8.93506e-21
3.77383e-21
9.07806e-22
5.88136e-22
3.19125e-23
3.23596e-21
5.13493e-21
4.58934e-22
3.63399e-21
9.25327e-22
2.09222e-20
9.96681e-22
1.165e-21
2.60918e-21
1.2547e-20
6.04801e-21
1.75256e-21
5.28243e-21
1.06577e-20
4.97799e-21
1.4325e-22
6.38203e-22
3.88901e-21
3.28407e-21
7.13408e-22
1.30922e-21
7.11285e-21
2.73835e-20
6.67949e-21
1.41599e-21
6.9213e-21
2.57771e-21
1.05734e-20
2.52702e-21
5.19701e-21
1.174e-20
1.10213e-20
1.28916e-20
1.79436e-20
1.05113e-21
1.9297e-20
6.62278e-21
1.62697e-20
8.98077e-21
7.82118e-22
5.79775e-21
2.15903e-21
4.50751e-21
1.17248e-20
5.43775e-21
2.38773e-22
1.91505e-21
1.04331e-20
9.15661e-22
1.45315e-21
5.97383e-22
1.56145e-21
8.51971e-21
7.714e-21
4.15128e-22
8.58467e-22
6.1997e-21
1.07803e-20
1.532e-22
5.24833e-21
1.10967e-20
2.25388e-21
3.57381e-21
1.84906e-20
4.58885e-21
2.43212e-21
2.30756e-20
8.91523e-21
7.88379e-21
2.2243e-21
2.19241e-20
3.47219e-21
2.50339e-20
1.87292e-21
2.48124e-22
1.09218e-20
3.99096e-21
5.29467e-21
4.28046e-21
2.00516e-20
7.11924e-21
1.00739e-20
5.67483e-21
4.14291e-20
1.22634e-20
1.35203e-21
4.88798e-21
8.34892e-22
6.99833e-21
9.918e-21
6.1552e-21
2.18954e-21
1.89404e-21
3.81281e-21
1.98499e-22
5.01398e-21
1.18208e-21
8.62268e-22
1.00149e-20
1.50206e-20
2.49495e-21
5.5319e-21
3.43879e-21
1.28879e-21
2.23624e-21
2.61728e-21
4.00853e-21
5.3458e-21
1.2298e-21
6.17635e-21
8.2285e-21
1.61189e-21
4.29988e-21
8.44952e-21
6.99494e-22
2.41437e-21
7.2289e-21
2.69149e-21
3.80462e-21
4.4194e-21
3.76689e-21
3.27494e-21
6.21981e-21
7.12406e-21
7.91038e-21
2.7708e-22
3.36304e-21
1.10154e-20
9.53056e-21
4.39588e-21
8.91625e-21
1.92583e-21
1.04339e-21
9.15927e-21
2.20566e-21
8.06896e-21
2.18286e-21
4.55915e-21
3.17508e-21
7.52852e-21
2.7384e-22
6.87965e-21
2.88185e-21
9.5909e-21
1.28974e-22
4.89199e-22
5.0832e-22
1.74535e-21
5.44497e-21
1.70772e-20
1.39326e-20
7.5866e-22
4.95361e-21
4.80766e-22
4.95485e-21
9.04132e-23
6.96655e-21
2.1577e-21
7.65584e-21
1.00812e-21
4.98899e-22
9.68233e-22
8.03498e-21
3.7797e-21
1.79906e-21
4.39253e-21
8.00994e-21
3.49891e-21
3.80735e-21
5.84248e-21
2.85667e-20
1.98969e-21
1.85662e-21
1.2607e-20
1.16147e-20
2.17407e-20
4.56502e-21
8.39697e-22
6.09064e-21
6.90383e-21
4.30958e-22
4.41144e-21
2.92199e-21
8.09648e-22
6.34575e-21
1.6859e-20
1.86873e-20
6.42027e-20
5.18688e-21
2.00229e-21
3.28042e-21
5.21274e-21
8.78749e-21
6.8592e-21
3.17743e-21
1.71956e-20
3.35602e-20
3.56434e-21
5.71568e-24
2.26793e-21
1.53491e-20
2.33016e-21
2.73289e-20
6.07621e-21
1.83245e-20
2.19355e-21
4.53844e-21
2.02486e-21
9.82211e-21
1.43697e-21
8.13459e-21
3.61175e-21
2.74145e-21
2.41958e-21
7.59481e-21
4.51565e-21
5.95056e-21
6.43482e-21
5.46596e-21
2.13323e-20
3.25448e-20
4.93879e-21
1.17279e-21
2.73413e-20
2.6368e-21
5.40001e-21
8.67519e-21
1.05167e-20
6.09828e-21
1.02178e-20
4.76004e-21
2.35545e-21
7.47225e-22
7.85479e-21
1.57687e-21
3.41348e-21
2.408e-20
3.07042e-20
1.06292e-20
7.01352e-21
2.29982e-21
5.97649e-21
7.12449e-21
1.46454e-21
1.65871e-20
2.72139e-21
7.25915e-21
1.36506e-21
1.72681e-20
8.02149e-21
6.15921e-21
5.17807e-21
1.41441e-21
2.72518e-21
1.9365e-20
7.83489e-21
8.18345e-21
2.43962e-20
8.19667e-22
2.06318e-22
1.4066e-23
2.46178e-21
6.64307e-21
6.42411e-22
1.04917e-21
5.83179e-21
1.47042e-20
6.14559e-21
5.97324e-21
4.55958e-21
3.65125e-21
5.81774e-21
3.89255e-21
1.41006e-22
1.70791e-21
3.1306e-21
1.61531e-20
2.72053e-20
2.27752e-21
1.31817e-20
6.44072e-21
5.35411e-21
2.0757e-20
1.97703e-21
4.69123e-21
2.60665e-20
7.91457e-21
1.45874e-22
1.34667e-20
2.12576e-20
6.04424e-21
8.35907e-21
8.15842e-21
1.69978e-21
1.63444e-21
1.8634e-21
6.85662e-21
5.61869e-21
6.08519e-21
1.02506e-20
2.63486e-22
1.1818e-21
5.17115e-22
7.13085e-21
4.98473e-21
3.10374e-21
2.03454e-21
3.31267e-21
1.3506e-21
8.94025e-21
2.13777e-21
3.10987e-22
7.60166e-22
3.16585e-21
1.75934e-21
3.47343e-21
9.75488e-22
4.20059e-21
5.60449e-21
4.91483e-21
5.62528e-22
4.42347e-21
6.24216e-21
1.15698e-20
4.27489e-21
3.39987e-22
4.65736e-22
1.65453e-21
6.41984e-21
7.69906e-22
1.59711e-20
3.3262e-21
8.64516e-21
8.57764e-22
1.1128e-20
1.6718e-20
6.4775e-21
8.05349e-22
2.51973e-21
7.0585e-21
8.17808e-21
3.45467e-21
9.86407e-22
1.013e-20
8.54079e-22
4.41964e-21
1.25978e-20
1.37508e-20
4.88514e-21
1.71534e-20
4.15711e-21
1.71484e-20
6.49745e-21
1.88901e-21
1.05722e-20
1.70341e-21
1.51593e-20
2.638e-21
1.71284e-20
1.36664e-21
8.67602e-22
8.20867e-21
8.57642e-21
1.51313e-20
1.59584e-21
3.00677e-22
1.04719e-20
1.06622e-20
9.36222e-22
1.58247e-20
1.52695e-20
8.57512e-21
8.74709e-21
1.37614e-20
1.19981e-20
8.62237e-21
1.26626e-21
2.74077e-21
1.23336e-21
1.35222e-21
1.16314e-20
4.9203e-21
1.25114e-21
1.64322e-21
7.00592e-21
1.86512e-21
4.0589e-21
6.12803e-21
5.60064e-21
5.02179e-21
2.39433e-21
1.47614e-20
3.98604e-21
1.41446e-20
9.12053e-22
9.58797e-21
1.04352e-20
5.27984e-21
3.35978e-20
9.08724e-21
5.87317e-21
1.84814e-21
6.41993e-22
1.43284e-21
6.02399e-21
1.06256e-20
6.84558e-22
9.639e-21
7.00493e-21
2.07441e-21
9.59756e-21
2.86853e-20
2.80163e-21
7.97409e-21
6.77263e-22
1.076e-21
1.19197e-21
1.20386e-20
4.87149e-21
8.89579e-22
6.32618e-21
4.03123e-21
9.42275e-21
3.00474e-21
6.18332e-22
2.09788e-20
3.27866e-22
3.2086e-21
3.53195e-21
6.94365e-21
5.32002e-22
1.43705e-21
1.73686e-20
8.83493e-21
1.68259e-20
1.30401e-20
7.34338e-22
4.89588e-21
5.13947e-22
3.37097e-21
5.41607e-21
2.39887e-21
1.63273e-20
7.04662e-22
6.3603e-21
1.49105e-21
4.89694e-21
5.21657e-21
2.06702e-21
2.6926e-21
1.23957e-20
3.08012e-22
9.75771e-21
1.44353e-22
1.7143e-20
9.04086e-22
2.61535e-20
1.45876e-20
6.23622e-21
5.12889e-21
2.08472e-21
4.59221e-21
6.02244e-21
1.17892e-20
3.02577e-21
9.93389e-21
2.41999e-22
2.5404e-20
3.9737e-21
1.49648e-21
5.79249e-21
2.51562e-21
3.57264e-22
1.51552e-22
6.26123e-21
3.11905e-21
1.29705e-21
2.8231e-20
9.71914e-21
5.99706e-21
1.25126e-20
4.45943e-21
1.16015e-21
7.0366e-21
4.82905e-21
4.12772e-21
3.11511e-20
3.44579e-21
5.38078e-21
1.84635e-21
2.75621e-21
1.05453e-20
6.36944e-21
3.71799e-21
7.0376e-21
1.89316e-20
3.07698e-20
3.85739e-21
1.94372e-21
1.71385e-20
2.4899e-21
7.12369e-21
1.94469e-20
9.40266e-21
1.14588e-21
1.55655e-20
8.69184e-21
6.15928e-21
8.46131e-21
7.29528e-22
8.79682e-22
7.0627e-21
1.93113e-22
1.21192e-20
1.95341e-21
1.77558e-22
1.09445e-20
2.28154e-21
4.13842e-22
1.4761e-21
1.40195e-21
4.18724e-20
3.99496e-21
1.42996e-22
1.53664e-20
2.14463e-21
9.01731e-21
5.69277e-21
5.73514e-21
1.55187e-21
7.03936e-22
5.43054e-22
1.33714e-21
5.06328e-21
1.67057e-20
3.52761e-21
1.60147e-20
6.07255e-21
4.12383e-21
9.07991e-21
3.64042e-21
7.3983e-21
6.84187e-21
2.84649e-21
4.32627e-21
7.05366e-22
1.44209e-21
4.31844e-21
6.86761e-22
2.04953e-21
2.36541e-21
2.21683e-22
3.25218e-21
1.8511e-21
5.13638e-21
4.33029e-21
2.54731e-20
1.09716e-21
4.89934e-22
3.07567e-21
2.11467e-22
2.68574e-20
5.20779e-21
3.86784e-21
3.79099e-22
1.04468e-20
6.45056e-21
4.93341e-21
4.33467e-21
2.06944e-21
2.3755e-20
1.81927e-21
2.63677e-21
8.61265e-21
1.09698e-21
4.18971e-21
2.37003e-22
9.86385e-22
1.51967e-20
3.84632e-21
1.70272e-21
2.60376e-21
4.13818e-21
1.57052e-21
5.79758e-21
1.03542e-20
6.42148e-21
4.34567e-21
1.49106e-21
4.03806e-21
9.9308e-22
1.05128e-20
8.29949e-21
2.80991e-23
4.0292e-21
6.46481e-22
4.76573e-21
3.04636e-21
4.35572e-21
6.93742e-21
4.85604e-21
3.36253e-21
8.7195e-21
7.98994e-21
4.12682e-21
3.98068e-22
1.55316e-21
1.91559e-21
1.49154e-23
5.08273e-21
1.13112e-20
1.1535e-21
5.9083e-21
3.13592e-21
6.64014e-21
1.60412e-20
2.02122e-20
2.0127e-23
7.72417e-21
3.80205e-21
4.47085e-21
4.93165e-22
9.6712e-22
4.55328e-21
8.09138e-21
8.91224e-21
6.46703e-21
2.68083e-21
2.70902e-21
1.10769e-20
3.64711e-21
6.53587e-21
5.26757e-21
2.25205e-21
1.1566e-22
1.81848e-21
7.88024e-22
1.30164e-21
9.36098e-21
6.90713e-22
6.22988e-21
2.87665e-21
2.08841e-20
2.39281e-21
9.86796e-21
5.34396e-21
1.00635e-20
7.63146e-21
9.04375e-21
7.87194e-21
1.14829e-22
2.09571e-21
1.52052e-20
2.52113e-20
4.2839e-21
2.0399e-20
1.32919e-20
1.26541e-21
6.79632e-21
7.40896e-21
5.91166e-21
3.32157e-22
7.91513e-21
1.04239e-20
1.0604e-20
8.16177e-21
1.99463e-20
4.18846e-21
4.08437e-22
7.69502e-22
7.89018e-21
3.09745e-21
2.23809e-21
2.2431e-21
4.35941e-21
8.05713e-21
1.64005e-21
1.34003e-20
3.73071e-21
7.4463e-22
1.37246e-20
4.32116e-21
7.77735e-21
1.48181e-20
7.97336e-21
8.7707e-21
2.97618e-22
5.44981e-21
3.53226e-22
4.02346e-21
5.10747e-21
1.06748e-20
6.44626e-21
2.89523e-22
1.94714e-22
9.16052e-21
3.52152e-21
2.26043e-20
2.36076e-21
4.12154e-21
4.56488e-21
1.89871e-21
1.32953e-20
5.78883e-21
3.59572e-21
2.29501e-21
2.97471e-21
1.29853e-20
4.08708e-21
4.73767e-21
7.30967e-22
4.27734e-21
5.46555e-21
8.64859e-21
8.45837e-22
1.21017e-20
5.22272e-22
1.99327e-22
3.11479e-21
4.87336e-22
1.79277e-22
1.4222e-20
3.58851e-22
7.08983e-22
7.04856e-21
7.48615e-21
2.85629e-21
9.07803e-21
8.19467e-22
1.05652e-21
5.521e-21
9.38346e-21
5.82909e-21
2.71767e-21
1.60358e-21
1.0969e-20
4.38444e-22
1.22456e-21
6.479e-22
8.08719e-22
9.48129e-22
2.60583e-21
4.08934e-21
1.33667e-20
1.15524e-20
6.77648e-22
8.80651e-22
5.22325e-21
6.72371e-21
1.00901e-20
3.3059e-21
7.52948e-21
3.05444e-21
1.27451e-20
6.22179e-21
3.06269e-21
4.13064e-21
6.43464e-21
5.40481e-21
1.55809e-20
3.32743e-22
5.30644e-21
2.28235e-21
6.7031e-21
1.34263e-20
8.96886e-21
5.50696e-21
2.03469e-22
2.83776e-21
1.40123e-20
2.50345e-21
3.53995e-21
2.00956e-21
1.33466e-20
1.89281e-21
9.26415e-21
7.16078e-21
1.64624e-20
1.28276e-20
2.47783e-21
8.75368e-21
1.15505e-20
1.06263e-20
9.0805e-21
5.73097e-22
2.50836e-21
2.42303e-21
2.14107e-20
3.21055e-21
6.88514e-21
7.08714e-21
3.62374e-21
2.47817e-21
5.20748e-22
3.37583e-21
2.41466e-22
1.72457e-21
6.17409e-21
1.9549e-20
1.30173e-20
3.4725e-21
9.40277e-21
2.99158e-21
8.40103e-21
1.93185e-21
1.08924e-20
2.93551e-21
2.73325e-21
1.07244e-20
1.90043e-21
1.06643e-20
4.64333e-21
8.20457e-21
1.13444e-22
1.0525e-23
1.58989e-21
1.13321e-21
7.90932e-23
9.01029e-22
7.56674e-22
1.82106e-21
3.1175e-21
3.4191e-21
2.11309e-21
5.87226e-21
2.78168e-21
2.38981e-21
7.02813e-21
1.16208e-20
4.54202e-21
5.47973e-21
2.49136e-22
2.55241e-21
3.72571e-21
1.00715e-21
3.47741e-21
1.77996e-21
1.31956e-21
1.98553e-21
2.39788e-20
6.79274e-22
3.629e-22
6.66811e-21
2.65085e-21
2.49351e-21
5.90552e-21
1.4321e-21
2.29914e-20
6.93394e-21
4.57417e-21
5.11911e-21
4.29753e-21
5.57077e-21
5.6068e-21
2.48113e-21
1.88802e-20
3.81779e-21
2.39622e-21
7.35115e-23
1.22867e-23
3.8595e-22
2.19613e-21
5.41162e-21
1.021e-21
2.20598e-22
2.13455e-21
7.72588e-21
1.33614e-21
2.50276e-21
6.10423e-21
1.15765e-20
9.55102e-21
6.76363e-21
8.14154e-22
9.90724e-21
3.90084e-23
3.52606e-20
3.64757e-21
1.65539e-20
7.51e-21
4.03105e-20
3.34129e-23
2.65375e-21
8.78144e-21
5.6921e-21
2.53824e-22
8.87938e-21
4.73309e-21
4.05376e-21
2.67738e-20
4.31693e-21
3.22206e-21
1.33327e-21
3.9906e-21
8.4652e-21
8.65034e-21
3.87541e-21
2.06124e-20
1.09031e-20
2.63002e-21
2.25822e-21
8.5935e-22
2.7619e-21
1.75704e-21
2.2506e-21
8.79091e-21
2.28979e-21
3.44623e-21
8.6064e-21
2.78997e-21
1.65872e-20
2.52737e-21
1.56911e-21
5.63589e-21
2.4261e-20
2.24255e-20
8.01049e-21
4.55997e-21
1.05367e-20
9.99147e-22
6.26278e-21
3.95942e-21
1.95919e-20
5.56607e-22
7.20522e-21
2.4512e-22
5.97315e-22
1.30922e-21
4.40878e-21
4.12458e-21
7.41998e-21
2.47749e-21
3.5004e-21
2.3065e-21
1.23094e-20
1.48326e-21
2.16634e-20
1.23226e-21
1.4857e-20
4.04228e-21
2.23454e-21
1.06925e-21
7.12186e-22
5.27115e-22
2.8607e-21
3.55436e-21
3.25314e-21
4.20646e-21
1.77236e-21
3.78446e-21
2.45093e-20
4.17888e-21
5.57555e-21
2.94986e-21
4.001e-21
7.66097e-21
9.63595e-21
5.24813e-21
4.64428e-21
4.99631e-22
9.91345e-21
5.0453e-21
1.12475e-21
1.1244e-21
6.627e-21
1.61098e-21
7.24599e-21
5.41131e-21
7.07304e-21
8.19601e-22
1.29614e-20
3.0518e-21
2.68753e-21
3.86648e-21
3.68629e-21
6.98985e-22
1.42551e-20
1.27531e-20
8.22445e-21
1.19124e-20
7.7465e-21
4.85845e-21
4.60194e-21
1.79198e-20
1.35697e-20
7.70103e-22
2.2153e-21
1.10531e-20
3.88786e-22
3.0357e-21
3.04933e-21
1.66439e-20
3.58397e-21
4.07326e-21
6.61367e-21
5.27275e-21
2.30225e-21
2.14473e-20
5.99333e-21
7.61079e-21
1.88784e-20
2.08579e-21
6.57172e-21
1.98861e-21
2.48578e-21
6.47189e-21
6.42862e-21
2.70471e-20
1.37285e-20
7.55064e-21
4.24872e-21
1.32156e-20
6.6636e-21
3.76788e-21
1.03197e-20
4.35616e-20
1.36116e-20
6.65775e-21
3.09117e-21
1.07114e-21
6.60318e-21
4.2014e-21
6.69618e-21
6.70889e-22
4.15241e-21
3.30048e-21
6.51556e-21
6.28716e-21
1.26549e-21
7.30793e-21
6.94986e-21
2.13132e-21
1.13683e-20
2.01105e-21
2.52165e-21
2.24118e-20
3.35914e-21
4.76921e-21
5.54167e-21
4.3857e-21
2.19221e-20
4.21258e-21
1.03811e-20
1.98605e-21
8.72934e-21
4.96201e-22
1.09833e-21
5.81662e-22
8.68356e-21
3.87324e-21
1.04754e-20
1.36706e-20
7.2584e-21
1.21604e-20
4.16851e-21
1.32687e-22
1.49143e-21
2.97293e-21
2.33657e-21
8.2214e-22
6.18249e-23
2.73258e-21
3.49636e-21
1.09359e-20
7.59711e-22
1.03333e-21
1.7791e-20
7.94384e-21
1.18215e-21
9.22948e-21
3.21266e-21
2.02808e-21
6.35424e-21