/*--------------------------------*- C++ -*----------------------------------*\
  =========                 |
  \\      /  F ield         | OpenFOAM: The Open Source CFD Toolbox
   \\    /   O peration     | Website:  https://openfoam.org
    \\  /    A nd           | Version:  7
     \\/     M anipulation  |
\*---------------------------------------------------------------------------*/
FoamFile
{
    version     2.0;
    format      ascii;
    class       volScalarField;
    location    "0.008";
    object      iDof;
}
// * * * * * * * * * * * * * * * * * * * * * * * * * * * * * * * * * * * * * //

dimensions      [0 -3 0 0 0 0 0];

internalField   nonuniform List<scalar> 
2400
(
1.457959731e+20
1.24967977e+20
2.291079578e+20
1.457959731e+20
1.874519654e+20
2.707639501e+20
3.124199424e+20
2.499359539e+20
1.041399808e+20
1.666239693e+20
1.041399808e+20
2.915919462e+20
2.499359539e+20
1.457959731e+20
1.457959731e+20
2.082799616e+20
2.291079578e+20
2.291079578e+20
1.24967977e+20
2.499359539e+20
1.457959731e+20
1.874519654e+20
1.874519654e+20
2.499359539e+20
1.874519654e+20
1.457959731e+20
1.874519654e+20
2.082799616e+20
2.499359539e+20
1.457959731e+20
1.041399808e+20
1.666239693e+20
2.082799616e+20
2.082799616e+20
1.874519654e+20
1.457959731e+20
2.915919462e+20
1.874519654e+20
8.331198464e+19
2.082799616e+20
1.24967977e+20
1.666239693e+20
2.082799616e+20
2.499359539e+20
1.874519654e+20
2.291079578e+20
2.291079578e+20
1.666239693e+20
1.666239693e+20
3.124199424e+20
3.540759347e+20
1.041399808e+20
2.707639501e+20
1.24967977e+20
1.666239693e+20
1.874519654e+20
2.707639501e+20
1.874519654e+20
1.24967977e+20
2.915919462e+20
1.041399808e+20
2.291079578e+20
2.291079578e+20
1.24967977e+20
6.248398848e+19
1.666239693e+20
2.499359539e+20
1.457959731e+20
3.332479385e+20
1.24967977e+20
2.082799616e+20
2.291079578e+20
1.457959731e+20
2.291079578e+20
1.666239693e+20
1.874519654e+20
2.291079578e+20
2.499359539e+20
2.082799616e+20
1.666239693e+20
1.874519654e+20
1.666239693e+20
2.291079578e+20
3.124199424e+20
1.874519654e+20
1.457959731e+20
1.666239693e+20
2.915919462e+20
2.499359539e+20
1.24967977e+20
2.082799616e+20
1.041399808e+20
1.24967977e+20
1.457959731e+20
1.874519654e+20
2.707639501e+20
1.457959731e+20
1.457959731e+20
2.707639501e+20
3.540759347e+20
1.874519654e+20
1.874519654e+20
1.666239693e+20
2.499359539e+20
1.874519654e+20
1.666239693e+20
1.666239693e+20
2.707639501e+20
1.666239693e+20
1.24967977e+20
2.082799616e+20
1.874519654e+20
2.082799616e+20
3.95731927e+20
2.707639501e+20
1.874519654e+20
1.041399808e+20
2.291079578e+20
2.915919462e+20
2.291079578e+20
1.24967977e+20
2.082799616e+20
2.082799616e+20
1.874519654e+20
2.082799616e+20
1.666239693e+20
2.291079578e+20
1.666239693e+20
1.874519654e+20
1.041399808e+20
2.082799616e+20
8.331198464e+19
1.874519654e+20
2.291079578e+20
4.165599232e+19
1.457959731e+20
1.666239693e+20
1.666239693e+20
2.707639501e+20
1.457959731e+20
1.457959731e+20
1.24967977e+20
1.457959731e+20
1.666239693e+20
1.874519654e+20
2.915919462e+20
1.457959731e+20
2.082799616e+20
2.915919462e+20
2.291079578e+20
1.874519654e+20
2.499359539e+20
2.291079578e+20
1.041399808e+20
2.499359539e+20
2.082799616e+20
1.666239693e+20
2.082799616e+20
1.457959731e+20
3.749039309e+20
1.457959731e+20
2.707639501e+20
1.666239693e+20
2.915919462e+20
2.291079578e+20
1.874519654e+20
1.24967977e+20
2.082799616e+20
2.082799616e+20
2.291079578e+20
2.915919462e+20
3.332479385e+20
1.874519654e+20
2.499359539e+20
1.874519654e+20
1.24967977e+20
1.874519654e+20
2.291079578e+20
1.874519654e+20
1.666239693e+20
1.24967977e+20
2.707639501e+20
1.041399808e+20
2.291079578e+20
1.874519654e+20
2.707639501e+20
2.499359539e+20
6.248398848e+19
1.457959731e+20
2.291079578e+20
2.291079578e+20
1.874519654e+20
1.874519654e+20
2.499359539e+20
1.457959731e+20
1.874519654e+20
2.082799616e+20
2.499359539e+20
2.707639501e+20
1.24967977e+20
1.666239693e+20
1.874519654e+20
3.124199424e+20
1.457959731e+20
2.082799616e+20
2.082799616e+20
2.499359539e+20
1.874519654e+20
2.291079578e+20
2.082799616e+20
2.291079578e+20
3.332479385e+20
8.331198464e+19
2.291079578e+20
1.457959731e+20
2.291079578e+20
2.499359539e+20
1.457959731e+20
2.915919462e+20
2.499359539e+20
1.041399808e+20
1.457959731e+20
2.499359539e+20
1.666239693e+20
3.124199424e+20
1.874519654e+20
1.457959731e+20
1.24967977e+20
2.707639501e+20
1.24967977e+20
2.499359539e+20
1.874519654e+20
1.874519654e+20
2.291079578e+20
2.082799616e+20
1.666239693e+20
2.707639501e+20
3.540759347e+20
2.915919462e+20
1.874519654e+20
1.24967977e+20
1.874519654e+20
2.915919462e+20
2.082799616e+20
1.457959731e+20
2.291079578e+20
2.082799616e+20
1.24967977e+20
3.124199424e+20
1.666239693e+20
1.457959731e+20
2.707639501e+20
2.291079578e+20
1.874519654e+20
1.666239693e+20
1.874519654e+20
1.24967977e+20
1.457959731e+20
2.082799616e+20
2.707639501e+20
1.666239693e+20
1.874519654e+20
1.874519654e+20
2.291079578e+20
2.082799616e+20
1.666239693e+20
3.124199424e+20
1.457959731e+20
2.082799616e+20
2.082799616e+20
3.124199424e+20
2.082799616e+20
1.874519654e+20
2.291079578e+20
1.24967977e+20
3.124199424e+20
2.082799616e+20
1.666239693e+20
1.874519654e+20
1.041399808e+20
1.457959731e+20
2.291079578e+20
1.457959731e+20
2.499359539e+20
1.24967977e+20
1.874519654e+20
1.24967977e+20
1.666239693e+20
2.915919462e+20
8.331198464e+19
2.082799616e+20
1.457959731e+20
1.457959731e+20
2.915919462e+20
2.291079578e+20
1.666239693e+20
2.082799616e+20
1.666239693e+20
2.082799616e+20
2.082799616e+20
1.24967977e+20
1.874519654e+20
2.499359539e+20
1.041399808e+20
2.499359539e+20
2.082799616e+20
1.666239693e+20
2.082799616e+20
1.666239693e+20
1.041399808e+20
2.291079578e+20
2.499359539e+20
2.499359539e+20
2.707639501e+20
1.874519654e+20
1.874519654e+20
1.666239693e+20
2.082799616e+20
1.041399808e+20
2.082799616e+20
1.666239693e+20
1.666239693e+20
1.666239693e+20
2.291079578e+20
2.499359539e+20
1.457959731e+20
3.124199424e+20
1.874519654e+20
2.082799616e+20
1.874519654e+20
2.291079578e+20
2.707639501e+20
1.457959731e+20
3.95731927e+20
8.331198464e+19
1.457959731e+20
1.457959731e+20
1.874519654e+20
2.082799616e+20
1.24967977e+20
1.666239693e+20
2.707639501e+20
1.874519654e+20
2.291079578e+20
1.874519654e+20
2.082799616e+20
1.874519654e+20
1.457959731e+20
3.124199424e+20
3.124199424e+20
2.499359539e+20
2.499359539e+20
1.457959731e+20
3.332479385e+20
1.666239693e+20
2.082799616e+20
2.291079578e+20
2.291079578e+20
1.666239693e+20
1.457959731e+20
1.666239693e+20
2.291079578e+20
1.666239693e+20
2.291079578e+20
2.499359539e+20
1.874519654e+20
3.332479385e+20
1.666239693e+20
2.291079578e+20
1.457959731e+20
1.666239693e+20
1.874519654e+20
1.24967977e+20
1.874519654e+20
1.874519654e+20
2.082799616e+20
2.291079578e+20
1.24967977e+20
1.457959731e+20
2.291079578e+20
1.041399808e+20
1.874519654e+20
2.082799616e+20
2.499359539e+20
1.457959731e+20
1.874519654e+20
1.874519654e+20
1.874519654e+20
1.457959731e+20
1.666239693e+20
2.082799616e+20
2.499359539e+20
2.499359539e+20
1.874519654e+20
2.291079578e+20
2.082799616e+20
1.666239693e+20
1.874519654e+20
6.248398848e+19
1.666239693e+20
1.24967977e+20
2.499359539e+20
1.24967977e+20
2.707639501e+20
1.457959731e+20
2.082799616e+20
1.666239693e+20
3.124199424e+20
3.540759347e+20
2.499359539e+20
1.457959731e+20
1.874519654e+20
1.041399808e+20
1.24967977e+20
2.291079578e+20
1.457959731e+20
1.457959731e+20
3.124199424e+20
2.499359539e+20
1.874519654e+20
1.666239693e+20
1.874519654e+20
1.874519654e+20
8.331198464e+19
2.499359539e+20
1.874519654e+20
1.874519654e+20
2.082799616e+20
1.457959731e+20
1.874519654e+20
2.082799616e+20
1.457959731e+20
3.124199424e+20
2.499359539e+20
4.165599232e+20
8.331198464e+19
1.457959731e+20
2.499359539e+20
1.666239693e+20
2.082799616e+20
1.457959731e+20
1.874519654e+20
1.24967977e+20
2.499359539e+20
3.124199424e+20
1.874519654e+20
1.666239693e+20
1.041399808e+20
1.24967977e+20
1.457959731e+20
2.082799616e+20
1.666239693e+20
1.874519654e+20
6.248398848e+19
1.874519654e+20
2.082799616e+20
1.457959731e+20
1.874519654e+20
2.291079578e+20
1.874519654e+20
1.874519654e+20
2.707639501e+20
2.291079578e+20
1.457959731e+20
1.24967977e+20
2.082799616e+20
1.666239693e+20
1.24967977e+20
1.457959731e+20
1.041399808e+20
1.041399808e+20
1.457959731e+20
1.457959731e+20
2.707639501e+20
2.291079578e+20
1.666239693e+20
1.874519654e+20
2.499359539e+20
2.082799616e+20
1.874519654e+20
1.874519654e+20
8.331198464e+19
2.915919462e+20
2.707639501e+20
2.499359539e+20
2.499359539e+20
1.24967977e+20
2.499359539e+20
2.915919462e+20
2.082799616e+20
1.874519654e+20
2.915919462e+20
2.082799616e+20
2.082799616e+20
2.082799616e+20
1.874519654e+20
1.874519654e+20
2.082799616e+20
2.291079578e+20
2.082799616e+20
1.666239693e+20
1.457959731e+20
1.666239693e+20
1.457959731e+20
1.874519654e+20
1.874519654e+20
3.124199424e+20
2.082799616e+20
2.707639501e+20
1.041399808e+20
3.332479385e+20
1.666239693e+20
2.291079578e+20
1.041399808e+20
3.124199424e+20
1.874519654e+20
1.457959731e+20
2.291079578e+20
3.332479385e+20
8.331198464e+19
2.082799616e+20
2.707639501e+20
2.291079578e+20
2.499359539e+20
1.874519654e+20
1.457959731e+20
1.457959731e+20
1.457959731e+20
3.540759347e+20
3.540759347e+20
1.041399808e+20
2.082799616e+20
1.24967977e+20
2.915919462e+20
2.499359539e+20
1.874519654e+20
1.457959731e+20
1.457959731e+20
2.291079578e+20
1.666239693e+20
1.874519654e+20
2.082799616e+20
8.331198464e+19
2.499359539e+20
6.248398848e+19
8.331198464e+19
3.540759347e+20
2.707639501e+20
1.874519654e+20
2.291079578e+20
8.331198464e+19
2.499359539e+20
1.457959731e+20
1.041399808e+20
1.874519654e+20
2.499359539e+20
1.666239693e+20
2.082799616e+20
1.666239693e+20
1.874519654e+20
2.082799616e+20
2.082799616e+20
1.874519654e+20
2.082799616e+20
2.707639501e+20
2.082799616e+20
2.082799616e+20
2.082799616e+20
2.291079578e+20
2.291079578e+20
1.874519654e+20
1.457959731e+20
1.457959731e+20
3.540759347e+20
1.874519654e+20
2.082799616e+20
1.666239693e+20
1.874519654e+20
3.332479385e+20
1.041399808e+20
2.082799616e+20
1.24967977e+20
2.499359539e+20
2.499359539e+20
1.666239693e+20
1.041399808e+20
2.082799616e+20
1.457959731e+20
1.457959731e+20
2.499359539e+20
1.874519654e+20
2.291079578e+20
2.707639501e+20
2.707639501e+20
1.24967977e+20
1.874519654e+20
3.332479385e+20
1.457959731e+20
2.707639501e+20
2.915919462e+20
1.666239693e+20
1.666239693e+20
2.915919462e+20
1.457959731e+20
1.24967977e+20
1.24967977e+20
3.124199424e+20
1.666239693e+20
3.749039309e+20
2.499359539e+20
1.666239693e+20
1.666239693e+20
2.082799616e+20
1.666239693e+20
1.24967977e+20
2.915919462e+20
1.666239693e+20
2.082799616e+20
1.874519654e+20
1.666239693e+20
1.24967977e+20
2.082799616e+20
2.499359539e+20
1.874519654e+20
1.666239693e+20
1.666239693e+20
2.499359539e+20
2.499359539e+20
2.291079578e+20
2.707639501e+20
2.291079578e+20
1.874519654e+20
2.291079578e+20
2.707639501e+20
2.707639501e+20
3.332479385e+20
1.874519654e+20
1.457959731e+20
1.874519654e+20
1.666239693e+20
1.24967977e+20
1.457959731e+20
2.082799616e+20
1.457959731e+20
2.499359539e+20
2.499359539e+20
2.082799616e+20
1.874519654e+20
1.874519654e+20
1.457959731e+20
4.165599232e+19
1.874519654e+20
1.24967977e+20
1.24967977e+20
2.082799616e+20
1.874519654e+20
1.457959731e+20
1.666239693e+20
2.499359539e+20
1.666239693e+20
2.082799616e+20
1.457959731e+20
2.499359539e+20
2.082799616e+20
2.082799616e+20
2.082799616e+20
2.915919462e+20
1.457959731e+20
8.331198464e+19
3.540759347e+20
2.082799616e+20
2.915919462e+20
1.457959731e+20
1.874519654e+20
2.915919462e+20
2.082799616e+20
1.874519654e+20
2.499359539e+20
1.041399808e+20
2.082799616e+20
1.874519654e+20
1.666239693e+20
1.874519654e+20
1.457959731e+20
2.082799616e+20
2.082799616e+20
1.666239693e+20
2.499359539e+20
1.666239693e+20
3.124199424e+20
1.24967977e+20
2.499359539e+20
1.874519654e+20
1.041399808e+20
1.874519654e+20
2.082799616e+20
1.457959731e+20
1.874519654e+20
2.707639501e+20
4.165599232e+19
1.457959731e+20
2.707639501e+20
2.291079578e+20
8.331198464e+19
2.499359539e+20
1.666239693e+20
2.082799616e+20
2.291079578e+20
1.041399808e+20
1.041399808e+20
2.915919462e+20
3.124199424e+20
3.332479385e+20
2.082799616e+20
1.457959731e+20
1.666239693e+20
1.874519654e+20
2.291079578e+20
2.499359539e+20
3.124199424e+20
1.666239693e+20
2.499359539e+20
2.915919462e+20
2.499359539e+20
1.666239693e+20
2.291079578e+20
2.291079578e+20
1.874519654e+20
1.041399808e+20
3.540759347e+20
2.915919462e+20
2.082799616e+20
1.041399808e+20
2.915919462e+20
8.331198464e+19
2.499359539e+20
1.874519654e+20
1.24967977e+20
8.331198464e+19
2.707639501e+20
1.24967977e+20
1.666239693e+20
1.874519654e+20
1.457959731e+20
1.874519654e+20
1.874519654e+20
1.24967977e+20
1.666239693e+20
2.082799616e+20
1.874519654e+20
1.457959731e+20
3.124199424e+20
1.666239693e+20
2.707639501e+20
1.874519654e+20
2.082799616e+20
1.457959731e+20
1.666239693e+20
1.041399808e+20
2.291079578e+20
1.874519654e+20
1.874519654e+20
2.499359539e+20
1.666239693e+20
2.915919462e+20
2.291079578e+20
2.082799616e+20
1.457959731e+20
2.082799616e+20
2.499359539e+20
1.457959731e+20
1.457959731e+20
2.915919462e+20
1.457959731e+20
1.24967977e+20
1.457959731e+20
1.457959731e+20
2.707639501e+20
2.082799616e+20
1.874519654e+20
1.24967977e+20
1.457959731e+20
1.457959731e+20
1.874519654e+20
2.291079578e+20
2.291079578e+20
1.041399808e+20
2.499359539e+20
1.874519654e+20
1.457959731e+20
2.707639501e+20
2.082799616e+20
1.874519654e+20
2.707639501e+20
1.666239693e+20
2.499359539e+20
1.457959731e+20
1.874519654e+20
2.291079578e+20
2.915919462e+20
5.643501543e+20
4.630027814e+20
6.145475425e+20
6.615102399e+20
6.016880814e+20
6.49223962e+20
5.012827299e+20
6.804876438e+20
7.075131422e+20
6.681199412e+20
3.813763359e+20
7.005860551e+20
5.919592285e+20
6.193339633e+20
6.471221167e+20
5.821837284e+20
3.989201383e+20
5.91179767e+20
5.481202262e+20
5.764398594e+20
5.809991782e+20
6.832363946e+20
6.887272748e+20
6.695104421e+20
7.749757827e+20
6.553323496e+20
5.591163786e+20
4.612891705e+20
5.944019944e+20
7.037182575e+20
6.571873433e+20
6.098502178e+20
5.884326855e+20
6.206030016e+20
5.172319208e+20
4.944066053e+20
4.988836633e+20
5.314115758e+20
3.104967044e+20
3.703663331e+20
5.643501545e+20
3.788204575e+20
4.02634597e+20
5.761540802e+20
2.363774606e+20
6.275831637e+20
3.923082237e+20
5.707315726e+20
6.854033565e+20
6.903906059e+20
4.935458468e+20
2.937941522e+20
5.691915658e+20
5.505190785e+20
6.240106125e+20
6.054710779e+20
7.039767146e+20
5.438853857e+20
5.24288912e+20
4.563482217e+20
4.599576827e+20
6.588350948e+20
5.165454557e+20
4.215436113e+20
6.74978907e+20
8.569730725e+20
5.845307595e+20
3.844076417e+20
5.68558429e+20
6.776546189e+20
6.046123564e+20
4.772740839e+20
6.151796263e+20
7.285339584e+20
3.811182575e+20
5.768077067e+20
4.711679046e+20
4.475044853e+20
4.798585431e+20
2.564074614e+20
3.344297211e+20
4.209116193e+20
2.542955348e+20
3.414246401e+20
4.297772014e+20
3.895343772e+20
5.230776312e+20
2.414633576e+20
5.969642138e+20
4.676839589e+20
4.935458465e+20
4.745905535e+20
5.008885779e+20
3.440744241e+20
3.466725627e+20
5.12321681e+20
4.693178094e+20
6.621213391e+20
5.004575982e+20
4.803665495e+20
5.809991778e+20
6.100324952e+20
4.427532477e+20
6.447137585e+20
5.249835947e+20
4.536916266e+20
3.812157127e+20
3.331532895e+20
2.067485198e+20
5.212727837e+20
2.365874434e+20
4.507588566e+20
6.954204471e+20
4.856893056e+20
6.261228516e+20
5.768077062e+20
3.88020627e+20
3.63597394e+20
4.798585431e+20
3.703663334e+20
2.090185757e+20
3.367292957e+20
4.02634597e+20
3.200855999e+20
3.653106207e+20
3.678935785e+20
4.358980263e+20
3.512194293e+20
3.758663568e+20
4.454132941e+20
5.832814549e+20
3.841923525e+20
5.008885779e+20
4.587658991e+20
4.391185792e+20
4.890343318e+20
5.162495907e+20
4.729438136e+20
5.957828546e+20
4.083115671e+20
3.389161873e+20
3.172168972e+20
2.951688318e+20
5.703237099e+20
5.749820323e+20
5.545119881e+20
5.591163786e+20
7.175609312e+20
5.42714864e+20
4.17018227e+20
5.257498751e+20
6.363654452e+20
7.48914327e+20
5.126720444e+20
3.538955248e+20
4.39472538e+20
3.325891092e+20
2.517212732e+20
5.64539463e+20
3.133868964e+20
2.299204332e+20
2.104558097e+20
2.754868295e+20
2.987465603e+20
4.942437816e+20
3.678935787e+20
4.576929276e+20
6.146340012e+20
3.095369999e+20
5.790372828e+20
5.159797486e+20
5.649887537e+20
5.008885776e+20
4.587658984e+20
6.008991083e+20
4.890343322e+20
6.570449336e+20
5.438853857e+20
5.481202262e+20
3.602749119e+20
4.841659818e+20
5.124272963e+20
6.149350667e+20
5.455270269e+20
5.249835947e+20
4.536916266e+20
5.082876173e+20
6.919337562e+20
4.651841695e+20
6.2552734e+20
3.680249119e+20
5.833349904e+20
5.081918648e+20
2.968101312e+20
4.355637236e+20
5.493406716e+20
5.543151795e+20
3.915664257e+20
5.080855167e+20
3.418766161e+20
1.672148605e+20
2.735925526e+20
2.542955348e+20
3.841027199e+20
2.363774605e+20
2.813303833e+20
5.448725321e+20
2.414633573e+20
3.979761422e+20
4.899546239e+20
4.262441407e+20
5.197896542e+20
5.464239036e+20
3.899510142e+20
5.08453092e+20
6.753331254e+20
4.693178097e+20
5.675325763e+20
6.672767971e+20
4.323298942e+20
4.357493833e+20
3.904207966e+20
7.379220789e+20
5.45527026e+20
2.999906253e+20
3.780763555e+20
5.845307595e+20
3.844076417e+20
3.876534746e+20
7.819091763e+20
4.731748876e+20
6.098502193e+20
3.744571658e+20
5.666375232e+20
3.811182548e+20
4.669395717e+20
4.711679067e+20
5.593806071e+20
4.798585418e+20
4.273457662e+20
1.881167181e+20
1.894102287e+20
2.331042404e+20
2.133904002e+20
2.148886007e+20
1.947671887e+20
3.487184211e+20
1.97560929e+20
3.095369997e+20
4.899546236e+20
3.813763359e+20
4.745905531e+20
2.95979614e+20
5.505190781e+20
6.008991083e+20
5.356090305e+20
6.570449336e+20
4.492966229e+20
7.86433368e+20
6.965314968e+20
6.778323751e+20
4.392233969e+20
4.181558454e+20
3.967469286e+20
3.749882817e+20
5.79717078e+20
5.845307595e+20
4.612891701e+20
5.168713012e+20
3.38827312e+20
4.468873968e+20
4.507588593e+20
4.546979854e+20
5.126720484e+20
5.716773932e+20
4.394725419e+20
2.771575922e+20
4.475044857e+20
4.516315729e+20
3.988560558e+20
2.299204332e+20
2.315013908e+20
2.331042404e+20
2.774075199e+20
3.867994807e+20
3.678935785e+20
2.397439145e+20
3.731706436e+20
3.537565711e+20
3.340599706e+20
2.01905119e+20
4.745905535e+20
3.415149397e+20
3.899510142e+20
5.546761e+20
5.821837284e+20
3.285224668e+20
4.965910043e+20
6.672767976e+20
4.083115671e+20
4.841659815e+20
4.392233962e+20
4.91948053e+20
4.463402947e+20
4.749851583e+20
6.553323511e+20
5.845307585e+20
6.919337517e+20
2.584356485e+20
4.430818643e+20
4.468873901e+20
4.772740782e+20
5.88432682e+20
4.317238265e+20
3.538955229e+20
5.768077011e+20
3.880206222e+20
5.034425419e+20
4.234045957e+20
4.273457662e+20
1.46313003e+20
1.894102287e+20
2.119129457e+20
2.774075201e+20
2.578663208e+20
2.164079873e+20
1.743592104e+20
1.756097146e+20
1.105489285e+20
2.672479765e+20
3.58942434e+20
4.519910033e+20
4.553532523e+20
1.605680646e+20
4.622300837e+20
2.328734915e+20
6.101131526e+20
4.965910043e+20
5.957828546e+20
3.842932393e+20
4.841659807e+20
3.904207972e+20
4.673506511e+20
6.19917077e+20
6.499796893e+20
5.797170747e+20
7.370170434e+20
5.894250526e+20
4.651841692e+20
5.994636988e+20
3.943124063e+20
6.628806754e+20
5.081918661e+20
3.777583482e+20
4.627864531e+20
3.296044035e+20
5.265994252e+20
2.796903036e+20
5.363124879e+20
2.564074621e+20
1.672148606e+20
2.104558098e+20
1.907216512e+20
2.987465601e+20
2.578663207e+20
2.59689585e+20
3.487184211e+20
3.073170006e+20
2.210978569e+20
3.117893059e+20
2.467729232e+20
1.807964012e+20
1.366059758e+20
5.505190785e+20
3.466725625e+20
4.657469827e+20
4.69317809e+20
3.547078608e+20
4.527949691e+20
4.563482203e+20
4.115410862e+20
6.100324947e+20
6.149350638e+20
3.967469286e+20
4.999843743e+20
3.780763561e+20
4.828732392e+20
4.612891716e+20
4.393406042e+20
3.127636716e+20
4.994623813e+20
5.833349894e+20
4.814449258e+20
5.396547831e+20
5.98900121e+20
4.39472538e+20
5.820309385e+20
3.076593339e+20
5.363124879e+20
6.267737905e+20
1.46313003e+20
2.315013906e+20
1.695303565e+20
1.2803424e+20
1.504220204e+20
1.514855911e+20
1.961541117e+20
3.073170004e+20
2.210978569e+20
1.336239882e+20
3.365085317e+20
3.389932515e+20
3.187472755e+20
3.440744233e+20
2.311150417e+20
4.890343329e+20
2.346589059e+20
3.074134802e+20
5.48120227e+20
3.602749113e+20
3.389161854e+20
3.172168972e+20
4.427532494e+20
3.223568795e+20
5.499828162e+20
5.54511989e+20
6.099451344e+20
4.612891678e+20
4.393406042e+20
5.212727816e+20
4.731748876e+20
4.507588593e+20
4.814449258e+20
4.856893048e+20
4.900091856e+20
3.845384708e+20
3.880206291e+20
5.034425464e+20
3.387236796e+20
3.418766192e+20
1.672148605e+20
2.946381337e+20
1.695303566e+20
8.535615997e+19
2.363774606e+20
3.029711825e+20
1.307694084e+20
1.975609302e+20
1.768782864e+20
1.11353324e+20
2.243390219e+20
2.937941534e+20
2.504442902e+20
2.293829499e+20
2.080035373e+20
4.424596319e+20
2.581247934e+20
3.31060666e+20
2.859757684e+20
3.602749141e+20
3.873327894e+20
4.636246996e+20
3.689610412e+20
4.215436117e+20
3.999874995e+20
7.561527122e+20
4.066300962e+20
3.84407643e+20
4.393406042e+20
7.037182551e+20
5.783248577e+20
3.446979454e+20
4.279510378e+20
4.856893048e+20
4.627864611e+20
6.042747451e+20
4.434521475e+20
4.754735161e+20
6.492203801e+20
3.988560485e+20
1.46313003e+20
2.104558102e+20
2.754868305e+20
1.707123201e+20
2.578663196e+20
2.16407987e+20
1.089745064e+20
1.975609273e+20
2.874272128e+20
2.895186412e+20
2.019051184e+20
1.581968501e+20
2.049089632e+20
1.376297699e+20
3.004495539e+20
4.19172286e+20
3.050565786e+20
2.601190987e+20
1.906505138e+20
2.88219929e+20
4.357493813e+20
4.148220931e+20
4.673506485e+20
3.471535626e+20
4.749851556e+20
7.309476159e+20
4.828732353e+20
4.612891716e+20
5.68558429e+20
3.388273108e+20
6.046123614e+20
5.037893133e+20
4.279510451e+20
3.237928699e+20
5.716773832e+20
5.493406677e+20
2.771575897e+20
5.314115768e+20
4.234045957e+20
5.128149195e+20
2.299204325e+20
2.525469701e+20
2.331042386e+20
2.560684792e+20
1.289331604e+20
8.656319476e+19
1.08974506e+20
2.414633573e+20
2.21097856e+20
2.227066455e+20
2.692068246e+20
2.48595052e+20
2.049089632e+20
6.881488446e+19
3.697840664e+20
3.725975848e+20
2.815906837e+20
3.310606685e+20
1.668191995e+20
4.56348221e+20
2.904995875e+20
3.904207966e+20
2.951688306e+20
2.975601941e+20
5.999812492e+20
4.536916273e+20
4.574588545e+20
6.406793997e+20
3.359663444e+20
5.212727816e+20
5.257498707e+20
5.303045358e+20
4.012041048e+20
5.666375222e+20
4.900091856e+20
2.472033026e+20
6.928939743e+20
5.593806021e+20
5.64539461e+20
5.128149242e+20
1.672148614e+20
1.262734861e+20
1.695303565e+20
1.066952004e+20
2.793551828e+20
2.813303849e+20
2.397439148e+20
2.195121445e+20
2.432076433e+20
1.781653177e+20
2.692068265e+20
1.355973021e+20
2.049089647e+20
2.752595399e+20
2.542265475e+20
2.561608414e+20
3.754542478e+20
3.31060671e+20
4.289636559e+20
4.56348221e+20
3.147078889e+20
4.148220996e+20
3.689610412e+20
3.223568795e+20
3.749882838e+20
3.024610849e+20
2.795581889e+20
4.869163478e+20
3.618099123e+20
3.127636716e+20
4.994623813e+20
4.772740863e+20
5.88432687e+20
5.666375222e+20
4.627864571e+20
2.472033048e+20
4.434521475e+20
3.635973946e+20
3.951776263e+20
4.558354881e+20
1.463130028e+20
2.525469723e+20
2.966781259e+20
2.133904008e+20
2.363774608e+20
2.164079884e+20
1.525643094e+20
2.414633556e+20
3.537565696e+20
2.449773118e+20
2.019051184e+20
2.711946002e+20
3.187472762e+20
2.981978349e+20
2.080035373e+20
1.862987938e+20
2.581247973e+20
2.364719079e+20
3.098070872e+20
2.882199313e+20
1.936663917e+20
2.928155952e+20
3.197662332e+20
3.223568795e+20
1.249960936e+20
2.268458137e+20
4.828732392e+20
4.612891716e+20
2.842792145e+20
2.60636393e+20
7.360498313e+20
6.628806754e+20
5.616857467e+20
5.126720439e+20
3.266727904e+20
3.021373672e+20
6.374624564e+20
4.195354554e+20
3.951776227e+20
3.988560521e+20
2.090185754e+20
2.315013897e+20
1.907216498e+20
1.920513594e+20
8.595544028e+19
1.731263895e+20
2.833337175e+20
1.536585012e+20
2.874272148e+20
3.117893059e+20
2.467729225e+20
2.48595052e+20
2.73211953e+20
2.523212449e+20
2.080035373e+20
1.862987924e+20
1.407953419e+20
1.65530333e+20
1.906505123e+20
2.161649484e+20
3.147078914e+20
5.612298995e+20
3.197662357e+20
2.975601965e+20
3.749882808e+20
4.032814433e+20
3.812157121e+20
4.100348192e+20
6.460891238e+20
2.606363908e+20
3.680249095e+20
2.916674922e+20
5.88432682e+20
3.777583514e+20
5.716773932e+20
6.866758467e+20
5.265994252e+20
4.195354554e+20
4.516315688e+20
7.122429437e+20
2.299204329e+20
3.367292964e+20
1.48339063e+20
2.987465591e+20
1.719108794e+20
2.596895843e+20
8.717960478e+19
2.19512143e+20
1.768782861e+20
2.227066471e+20
2.243390221e+20
1.807964015e+20
2.73211949e+20
1.376297689e+20
2.773380498e+20
2.328734922e+20
1.877271253e+20
1.655303355e+20
1.668191995e+20
1.921466194e+20
1.452497938e+20
3.41618197e+20
3.443636385e+20
2.231701474e+20
3.749882838e+20
1.260254531e+20
4.320444737e+20
4.356619918e+20
4.651841692e+20
5.473364207e+20
5.783248626e+20
6.628806754e+20
4.012041048e+20
5.126720439e+20
5.444546507e+20
3.845384674e+20
3.603048667e+20
5.034425464e+20
4.234045957e+20
4.273457701e+20
1.254111461e+20
2.315013913e+20
1.907216511e+20
8.535616032e+19
1.289331604e+20
1.514855908e+20
1.089745067e+20
1.097560715e+20
2.653174272e+20
1.558946541e+20
2.019051199e+20
3.389932527e+20
1.366059765e+20
2.064446549e+20
2.080035373e+20
1.164367452e+20
2.111930128e+20
3.547078591e+20
2.14481828e+20
9.607330968e+19
2.904995898e+20
2.440129979e+20
2.459740255e+20
2.975601965e+20
3.249898433e+20
2.52050902e+20
2.541438081e+20
2.306445858e+20
3.876534743e+20
3.127636716e+20
4.731748876e+20
3.977284019e+20
4.279510451e+20
4.856893048e+20
4.900091856e+20
6.317417734e+20
3.880206291e+20
3.076593339e+20
8.468091991e+20
6.552635142e+20
2.299204329e+20
3.156837153e+20
2.754868294e+20
2.133903993e+20
1.074443004e+20
1.731263907e+20
1.525643094e+20
1.536585001e+20
2.210978576e+20
2.004359824e+20
3.140746287e+20
6.779865006e+19
1.138383129e+20
2.523212449e+20
1.386690259e+20
2.328734922e+20
1.877271239e+20
3.547078618e+20
2.621444564e+20
2.401832742e+20
3.147078865e+20
1.952103983e+20
2.213766247e+20
1.735767813e+20
2.499921872e+20
2.772559945e+20
3.303869532e+20
1.793902334e+20
2.325920846e+20
4.691455034e+20
4.205999001e+20
4.772740863e+20
5.349388064e+20
4.856893048e+20
5.172319226e+20
3.296044064e+20
4.434521436e+20
3.635973914e+20
6.492203801e+20
7.692223863e+20
1.672148603e+20
1.473190662e+20
2.966781239e+20
1.280342405e+20
1.074443004e+20
2.81330383e+20
1.743592108e+20
1.756097156e+20
2.874272148e+20
2.672479765e+20
1.794712177e+20
1.129977517e+20
2.049089647e+20
2.523212449e+20
1.61780529e+20
1.630114445e+20
2.11193016e+20
3.074134802e+20
3.336383991e+20
2.882199313e+20
1.210414967e+20
2.440129998e+20
2.705714302e+20
2.231701491e+20
2.249929703e+20
2.268458118e+20
2.54143806e+20
1.793902305e+20
2.067485179e+20
2.345727517e+20
5.257498707e+20
3.181827188e+20
2.94216341e+20
3.237928699e+20
4.627864531e+20
4.669395676e+20
2.771575897e+20
6.712567286e+20
3.951776227e+20
5.128149195e+20
2.299204329e+20
1.262734853e+20
1.695303565e+20
1.920513607e+20
3.00844041e+20
1.298447921e+20
1.743592096e+20
1.975609287e+20
1.105489288e+20
1.781653177e+20
2.243390205e+20
2.033959502e+20
1.821412993e+20
1.376297689e+20
1.848920332e+20
2.328734905e+20
2.815906837e+20
2.601190947e+20
3.098070825e+20
2.642016016e+20
2.420829896e+20
1.952103968e+20
2.70571426e+20
1.487800971e+20
1.999937513e+20
3.024610873e+20
2.541438101e+20
3.075261144e+20
3.10122782e+20
2.345727556e+20
2.102999518e+20
3.712131782e+20
1.872285822e+20
3.237928726e+20
3.538955291e+20
3.570714403e+20
2.771575922e+20
4.475044857e+20
3.951776227e+20
4.558354881e+20
2.299204329e+20
1.262734861e+20
1.695303565e+20
3.414246389e+20
2.148886007e+20
2.164079869e+20
1.089745067e+20
6.58536429e+19
3.095369984e+20
1.336239882e+20
2.019051184e+20
1.807964015e+20
2.73211953e+20
1.835063599e+20
2.080035373e+20
2.095861414e+20
3.050565763e+20
2.601190987e+20
2.14481828e+20
1.681282919e+20
2.662912886e+20
2.928155975e+20
2.213766247e+20
4.959336608e+19
1.999937497e+20
2.772559923e+20
4.828732353e+20
1.537630572e+20
1.809049547e+20
3.38827308e+20
2.628749353e+20
2.386370411e+20
3.744571645e+20
3.777583482e+20
3.538955229e+20
4.669395717e+20
3.325891106e+20
3.91566425e+20
5.080855195e+20
4.843252062e+20
1.672148614e+20
1.894102292e+20
3.178694185e+20
2.560684792e+20
2.148885992e+20
4.328159768e+20
2.179490135e+20
2.19512143e+20
2.874272148e+20
2.004359824e+20
2.019051199e+20
2.937941524e+20
9.107065033e+19
6.881488497e+19
1.386690249e+20
1.397240953e+20
2.581247953e+20
1.18235953e+20
2.621444564e+20
1.921466194e+20
1.452497949e+20
2.440129998e+20
3.197662357e+20
1.983734643e+20
2.499921872e+20
2.520509041e+20
2.541438101e+20
3.587804668e+20
2.842792145e+20
1.824454736e+20
2.891624313e+20
5.037893133e+20
2.674694032e+20
2.158619132e+20
5.444546554e+20
5.218736389e+20
5.543151795e+20
3.91566425e+20
3.951776227e+20
2.848971801e+20
1.463130028e+20
1.262734861e+20
1.48339062e+20
2.133903993e+20
1.933997406e+20
3.029711816e+20
2.397439148e+20
1.756097156e+20
1.547684992e+20
2.004359809e+20
1.794712164e+20
2.033959516e+20
6.830298825e+19
9.175317996e+19
1.848920332e+20
1.862987924e+20
1.173294524e+20
1.418831447e+20
1.429878853e+20
2.40183276e+20
2.178746923e+20
1.708090972e+20
2.705714281e+20
9.918673216e+19
2.749914081e+20
2.772559945e+20
1.779006642e+20
2.050174079e+20
3.618099093e+20
1.303181965e+20
1.577249639e+20
2.121218143e+20
2.94216341e+20
3.50775609e+20
1.633363952e+20
2.472033026e+20
2.49441833e+20
2.517212732e+20
4.516315688e+20
5.69794355e+20
1.881167178e+20
2.525469706e+20
2.542955348e+20
1.280342405e+20
1.933997406e+20
1.298447921e+20
1.525643084e+20
1.756097132e+20
1.989880704e+20
3.563306353e+20
1.794712164e+20
1.807964001e+20
1.366059745e+20
9.175317928e+19
2.311150432e+20
2.794481927e+20
1.642612346e+20
2.364719079e+20
1.906505138e+20
3.362565839e+20
1.936663932e+20
9.760519991e+19
1.721818192e+20
1.735767813e+20
1.74994531e+20
3.528712657e+20
2.541438101e+20
1.793902334e+20
1.809049547e+20
3.127636689e+20
2.365874418e+20
1.32576134e+20
4.279510451e+20
2.968101307e+20
1.905591277e+20
3.845384674e+20
3.04873346e+20
3.915664215e+20
4.234045957e+20
3.418766161e+20
3.135278631e+20