/*--------------------------------*- C++ -*----------------------------------*\
  =========                 |
  \\      /  F ield         | OpenFOAM: The Open Source CFD Toolbox
   \\    /   O peration     | Website:  https://openfoam.org
    \\  /    A nd           | Version:  7
     \\/     M anipulation  |
\*---------------------------------------------------------------------------*/
FoamFile
{
    version     2.0;
    format      ascii;
    class       volScalarField;
    location    "0.008";
    object      internalT;
}
// * * * * * * * * * * * * * * * * * * * * * * * * * * * * * * * * * * * * * //

dimensions      [1 2 -2 0 0 0 0];

internalField   nonuniform List<scalar> 
2400
(
297.3650824
301.4863047
312.1386883
302.1644179
309.4371866
318.560942
317.0241626
309.4342764
319.1703606
317.0842198
316.9773643
321.5956786
310.6593873
315.3211228
327.9378983
322.6690263
323.8560952
328.8672335
350.9648684
377.5499412
312.5684108
310.1069224
307.2925504
307.3950713
310.8946725
315.5894668
311.8935415
311.3535821
312.501314
330.8005051
319.3138666
318.6561035
317.1168694
328.1019095
339.4722624
344.9896541
342.447957
337.2732507
357.3504262
389.0106622
310.4316965
315.4778307
314.1476961
317.1651814
313.1607601
315.9474344
317.1349099
308.9664124
314.6319855
323.9043594
315.6783798
316.6303968
321.5106075
339.9549951
345.2832215
351.2895499
345.8527658
370.9748973
365.6272077
381.0483195
305.7331357
317.3026046
307.1195188
314.147122
314.6662185
315.8457926
312.7066706
313.293532
318.2931187
328.2686423
323.9748566
329.8849478
327.6643507
343.2971604
346.0156357
347.4607255
346.5808721
372.1447951
379.063217
378.8190748
308.2802086
311.1192271
320.8374143
310.8171453
315.162573
315.7110852
317.4971224
318.8846859
314.0935542
317.9196095
325.1837582
337.0324644
339.6999482
349.5201233
344.0182831
351.0420972
357.0469096
372.616152
374.6479963
390.1848297
309.2857605
311.8266722
301.9775576
303.1731108
311.9073518
315.7624877
309.8108131
322.1947005
328.1751839
323.4532166
331.1209436
350.5282538
345.7677839
333.8474042
340.7671162
351.1261717
362.7941053
375.9967274
377.7479267
394.09822
317.2974097
308.1724379
308.2223241
309.6204335
315.0044234
320.0085853
315.8509894
332.2197722
322.979107
332.7421522
334.7342624
338.5927594
335.8233244
341.5487976
343.6374013
351.2777449
377.6224928
370.5392878
376.5480293
406.9487303
302.6609745
309.7448657
314.7742456
321.3637405
319.4258115
312.9513931
325.1521187
326.1210619
332.1376519
339.6365744
337.6796768
335.0096664
346.8817792
340.7903731
348.329778
348.1460817
347.3062696
353.4088894
375.7009971
385.0754013
312.3640547
315.2013843
312.3881252
318.6764617
315.566824
325.0910012
323.4383086
331.2623774
340.6988743
331.9064724
334.798295
335.8389694
339.2686855
361.1946433
359.0449409
358.2760266
349.2746167
357.5102606
376.7587048
381.3305674
317.8448013
312.5592029
310.2468884
322.0712412
320.5199184
320.2904842
322.4692608
325.8748828
323.3665869
325.3743068
346.5185364
350.6395388
338.9620059
353.8243325
361.4527077
351.7206921
361.9915309
367.2360724
382.1646611
377.7765141
305.774718
316.7855358
314.6169539
319.954698
310.4230458
312.1446745
307.0763993
319.5805274
323.60774
337.7934123
346.1545326
355.8735791
352.0183595
361.6246184
359.1327862
355.3917985
354.08661
367.8028541
374.4556251
374.3819283
304.426818
310.4904494
318.3565949
318.3227897
307.0114963
317.9137625
311.4681654
321.7310123
329.7930616
332.50521
333.0115916
343.7577786
351.1984802
356.2950192
363.8618122
352.0519064
354.0292988
372.2309584
373.2409873
382.3332283
308.7604429
301.0184628
311.6544172
318.0423586
312.7506715
322.9606012
329.4237409
334.5462072
324.3687451
334.6583103
338.7472911
331.6983714
357.2024189
354.0498758
354.3766545
356.9795734
370.5512869
360.397103
360.1581051
370.6076662
297.7133632
312.8014466
317.6031776
306.7102049
318.4116695
330.812089
313.7075475
329.8495771
329.6434178
330.7270143
338.228113
347.1074751
355.2613611
348.5810212
354.4518842
365.3708561
368.2325149
355.7543698
368.580757
373.6436648
296.8971653
313.6557587
298.1828098
308.7229803
321.1208502
315.6555131
324.109444
325.1317134
326.7201673
328.2165183
341.6901015
337.9369764
347.6637869
344.4306911
356.1072231
363.5691061
360.9381651
357.7815672
368.6573994
362.6218319
304.236233
307.0223377
295.2204541
311.2699024
319.8206341
311.0519741
319.4550864
326.7970446
335.2699768
329.6851753
338.526471
334.2011282
338.0580156
349.4808972
368.4020649
369.3701221
351.2062916
361.6627476
362.2988828
358.4696981
300.2727892
309.7739403
301.91875
312.8743644
315.0092834
326.8742322
328.8651778
329.3738368
314.9447022
314.6017192
340.884735
345.3354287
349.2410154
351.0120425
355.5625564
369.1236435
357.8654864
359.3767615
365.9075411
370.3448587
301.9119354
309.8091686
303.8855275
319.2251976
330.2345106
327.4151105
334.4188889
333.4748385
327.7482255
325.9121266
329.0279755
335.1417353
343.3362225
343.1750727
357.2600521
349.7050374
361.9341502
357.3777502
358.303229
371.2349854
309.1310056
309.5889368
312.2877558
317.8725531
325.5767367
328.2732793
328.1881095
333.5610529
325.6484487
316.4521943
322.6294038
336.1266819
344.5646891
338.52519
348.8896506
349.6290992
357.8332405
361.519195
355.1299261
354.7191783
307.9619361
303.2173982
318.5236748
317.5346743
312.5416768
322.8338625
324.2432316
334.0802056
322.364884
318.6280268
319.65246
328.1084928
320.8835873
329.1138143
338.414059
349.6558604
350.6153478
357.6724403
348.0589627
357.4802273
309.1640652
309.7328646
310.0145158
322.8741025
334.0011791
327.2098423
327.8010946
332.6886798
332.5410933
324.7391421
320.708963
330.7397833
330.1035665
334.7445114
346.6594736
343.8250026
347.5561948
349.5468096
346.3384671
363.4455666
303.9123066
312.0805382
318.8180569
318.8718991
325.9635378
325.7200775
326.5291889
328.4250987
330.0284268
330.9646109
337.9401062
335.8855466
326.8961385
342.0252384
348.842791
354.3223678
357.4499645
351.1522962
362.485093
366.3780913
310.7997214
310.6954394
305.7101482
307.7300067
319.7162667
318.4317752
321.6730173
322.7043851
322.8959482
330.5658306
333.3412199
334.8680929
337.8454385
345.2245771
343.051179
344.2340385
345.4714613
342.402986
359.1687856
361.3449913
312.5145634
319.5432964
307.5300638
320.7832343
317.3415757
324.2330596
326.6743483
316.298333
318.7610061
319.8822261
338.3190969
322.7324522
323.0612924
356.2341987
341.1064317
342.3175498
352.4252947
342.9110637
345.5367889
362.3938978
312.9204083
309.4635236
304.7368776
305.7800746
318.4439539
314.2545529
321.2756662
316.9957456
313.649119
320.26662
331.4263624
323.5964175
325.5146289
351.4385005
353.6208858
334.2642019
344.7675904
347.9209635
359.5818165
357.3552308
317.0574144
303.7195708
317.1264149
309.4193214
313.9130968
328.2896267
320.9714048
323.7260866
308.5587007
320.5472412
322.27906
330.1760958
327.5013873
329.6987037
342.1604648
340.993058
349.9426186
344.5050766
349.1366226
364.1138463
309.9062715
304.2305968
311.7555797
305.7792611
315.8965175
309.999138
310.7471903
318.0519059
313.9553014
325.6075749
328.0996244
339.2733046
342.0403124
333.621279
328.663679
347.4112369
347.4502412
349.872884
346.5321005
349.7878359
304.5965306
304.415754
310.9677943
312.8712692
312.3360062
319.0331612
318.0738307
319.8314559
322.5727533
318.1569705
322.3474881
328.9489813
334.1550157
332.5207818
332.8050454
342.5310157
354.2275473
341.0120474
343.4140431
348.3629519
310.9655719
306.9227372
315.7400265
308.4390001
312.0477819
311.0582843
307.7025511
312.7669541
324.6098086
318.4482358
330.6262418
329.2937918
333.777143
325.9725505
322.1114138
328.7874319
338.8387758
336.8207907
337.661385
341.9977913
300.9373253
312.0271573
302.5224273
310.4916722
305.612159
293.9557659
313.7181888
311.4177431
320.0030559
326.5741949
330.5129179
335.4708038
322.5023097
318.9649567
326.8439326
317.4124183
321.2229173
323.1015658
334.7712789
334.1762324
302.2282017
305.9274435
316.8915283
306.9695802
308.4874042
308.9469706
318.8074564
315.9944026
318.6361922
322.0156331
323.8195751
323.047723
315.7629692
321.8985463
329.53654
336.9466433
326.6389367
322.4008238
332.8893492
341.1162202
306.9674565
305.2334875
311.3749414
299.8080011
311.6907001
305.3972736
314.2865942
309.0851104
311.1751172
318.2886998
326.4829888
328.8487888
322.3911026
323.1502575
318.8450254
331.4249961
327.911003
329.2435402
338.8276274
336.703082
299.1252068
302.6603222
313.3091079
306.9908322
305.4716806
299.2552531
303.9456362
302.9901902
314.7301696
324.2914438
317.0611333
319.1154309
320.4856406
319.3080818
318.4749178
323.9896519
331.7654734
335.362156
332.1203513
323.0257343
300.6041517
306.322903
307.9562381
307.4907447
299.0164907
319.9546394
305.4586623
315.0939804
310.3023762
313.1581369
317.9053061
312.029048
328.7809935
322.0747962
322.3079949
337.8161187
319.4490363
324.6693951
322.4651121
315.1740477
300.1328303
308.1322204
303.8242645
311.1292433
302.216951
306.8261997
316.4533923
317.3646806
316.3337457
319.0926388
322.9528384
318.606778
320.8814172
315.7584954
325.190667
323.6389585
330.2054688
327.7853224
323.934714
324.5086056
296.0355237
310.6337097
315.3297495
306.6027555
313.2144022
313.2239355
311.9669825
313.0292144
320.9367979
301.6266954
308.4355074
315.1754416
327.4823428
318.0271203
322.1114489
318.3074482
331.5166308
324.3671219
329.7105549
329.8032175
303.0518833
302.4916916
302.8035217
311.8858457
302.3546502
309.4105615
308.3366421
318.2147152
316.5976835
313.7179863
318.9676327
325.8155897
331.3213203
317.2571366
315.341651
312.6281999
325.5794803
321.2578048
322.1960128
324.0322698
295.7729205
301.8075847
300.9373733
300.0286391
301.2828976
304.9382964
312.6370066
316.5590395
315.2326387
313.0577012
306.3074864
319.2331387
310.9993281
312.6102451
325.5031729
311.7235788
327.0897389
320.0227685
313.6820637
315.7238998
310.465989
305.0928988
295.8321822
296.0637151
296.0299181
307.0330067
311.3312629
303.4203754
315.820286
311.3396393
311.0392537
310.4033048
314.6849664
318.5436348
316.0387836
318.3024716
322.2724955
318.1268867
315.0208138
320.276871
316.3274588
310.4843086
300.0776468
301.8359643
306.5518753
309.1013345
300.1618132
303.2461601
303.6595749
299.8086583
310.2376778
306.8026338
301.9832815
317.3283413
314.4855025
316.555751
315.1578894
305.2625659
311.1769656
307.7548166
451.3854204
451.8009201
475.315517
477.0075386
485.4764187
471.3871191
492.9185116
504.6661755
506.4894156
496.9290274
503.2985468
516.588695
518.2271217
517.5449973
539.6898114
519.6030429
503.9250338
519.3624814
522.814532
530.1049049
524.4329681
531.2926433
540.9181006
526.264644
537.5063273
529.1133305
524.6115314
530.1099197
505.911666
517.3065434
510.2784596
517.6471429
510.0288403
502.7987883
505.2688329
485.4331133
481.7231181
471.3734479
456.4753029
435.2474167
429.4029975
434.6397492
443.1937056
456.8368424
449.3043078
459.2139718
487.005321
504.5524547
491.1415339
499.4473459
496.1261232
490.0014925
510.688261
492.0150671
517.0222353
506.5629264
509.0051775
506.0910995
505.3332812
503.7877929
517.6301903
521.5445314
525.6989647
523.1537071
519.1259224
504.1315993
510.5076644
527.8067697
505.7378855
499.7974055
500.9564257
497.9337903
491.7049894
492.5869999
476.9706643
478.688333
470.6658049
450.5527275
441.2912393
396.8353713
410.505947
407.6578434
438.5377728
453.7346156
465.7509289
454.4502098
473.5863789
474.0593778
467.1188708
485.1894982
489.8478211
480.7264378
500.0332265
489.1360869
506.7469884
503.942724
493.9199515
499.9212086
494.8043691
494.3693884
487.7889479
514.2045401
506.6814193
499.2861788
510.7735225
511.2890467
512.1946218
501.0117464
493.3657124
486.2609353
496.0714473
507.5516949
483.8168258
470.7638912
477.2011926
464.4795363
448.695137
437.3600393
416.6834548
388.351503
403.3628626
409.0190601
414.4482073
453.7038838
455.3408928
450.9108757
454.4185597
450.7964759
471.2578001
471.668917
474.4780786
473.2860518
496.3406579
501.4579106
499.3230016
505.637602
493.5381533
493.189953
503.9307069
490.2058969
486.5950202
499.3705447
501.2248542
479.2826483
493.4511952
510.0252231
494.6374209
503.0832545
492.7653214
484.0035489
470.4436348
488.4604732
475.8693932
468.8902361
452.8767277
461.2111234
446.170622
430.3120619
408.269337
374.2425872
403.7907062
402.3474545
416.6227217
433.7059321
450.837496
451.2443218
449.4631718
456.3399001
463.0362723
452.2290114
463.1267452
481.9371767
490.5890007
497.0324995
487.0007494
490.49674
474.5977323
478.7039008
498.8639934
489.3360617
504.0707514
503.5877294
493.3810295
500.9458365
481.4537072
490.7190076
484.1580717
506.075998
496.9792543
483.6201429
472.8059529
455.3768886
448.1032814
449.5168487
446.9448805
442.5808828
431.7545705
415.1735583
389.092699
369.7520424
411.0871401
404.4106712
425.566336
430.4821185
425.6524098
428.6610095
447.6176078
458.6941801
445.165046
437.4327428
447.1411803
447.0305558
447.3836121
470.8598918
468.4198247
467.2203434
457.8097068
474.2354617
485.4378417
477.2550052
468.2956365
467.8473729
485.2956188
480.7796858
479.1180199
479.9741388
486.8237262
485.2759774
475.8968759
473.3759879
464.2357845
434.6533309
430.4151842
452.1480561
439.3357691
428.2432198
414.8636638
425.9997856
400.0724045
367.3225376
396.6681727
416.0053619
408.651448
428.6035669
422.8412183
440.0283159
435.7245144
437.6196039
447.3114413
461.0705522
451.2700171
453.8886666
460.6668004
461.8854917
478.6441713
475.0926726
471.5760605
465.7276974
478.2428601
477.6762579
470.3550626
467.2912278
465.2550533
475.214648
464.0740025
474.3667459
467.8631413
465.9672341
474.5531264
448.2462502
461.374266
444.4219615
441.5244178
419.264525
424.5464853
422.0833906
423.2973958
400.7009412
394.9642827
363.4116931
400.8731642
409.8145904
405.8364241
411.3108651
427.2066436
432.8504782
443.9921184
436.2162749
439.4691638
450.1568655
448.4973225
444.729555
444.119897
447.5914409
452.280623
437.5914535
447.9090664
450.8201805
457.7180508
486.3075388
477.9510436
460.8156873
462.8851787
466.4699718
475.4359851
447.0898972
461.0930897
455.5935437
469.7128296
426.7162385
441.2543058
452.7608195
441.64081
430.1354578
427.7727343
412.6560785
416.9278762
405.2817119
384.8778863
368.7684645
380.3336938
394.3101296
392.4787971
410.5218117
415.0425047
425.7804559
453.7177144
440.9048587
441.9489318
448.1099377
445.2064247
432.9074935
447.1493624
419.2909978
442.7227345
426.6067045
468.2181118
450.3756711
463.4702846
461.3211967
467.8630877
452.1111286
456.4008079
447.0926211
459.8233959
432.4020168
446.7073781
461.4716893
454.8440791
446.2198237
438.6245905
433.1971031
439.3678148
434.0504725
428.795088
411.4610677
401.4378729
393.4700325
370.8968567
350.1850669
368.3677121
392.118531
393.7209221
400.4224394
425.3653666
412.3464211
429.1108747
443.2323949
427.4185882
434.2565194
444.4022581
417.0107846
428.954391
431.4896931
429.1783255
428.179776
449.7400175
461.752608
441.420098
468.6779592
461.7463791
453.245873
448.1497226
459.989893
443.5750935
438.8170352
450.0963936
453.6012695
452.5457121
414.6016539
424.9126654
424.4252821
439.2842619
426.4438831
417.5216031
411.7080578
394.0231067
389.8565294
372.4015988
349.9695252
374.7247016
394.9422544
395.9554971
400.3181977
409.4672363
414.9535574
428.8453046
435.4442493
421.4757233
435.2198851
426.0252683
435.2266405
438.7329844
441.010748
444.6656336
451.4295686
474.4397357
467.4663596
446.0931207
467.2145604
443.2677667
447.6940197
444.875961
440.2367523
438.7201547
437.0268465
430.5926231
436.8480258
421.9709956
423.9038683
413.4627603
420.9848116
420.6390208
417.0249214
406.6893242
417.4782701
390.1701911
368.0704852
367.1086845
352.6795827
369.7838863
379.2850502
393.5369462
394.1387085
414.0530611
409.8617785
420.276748
434.0875582
417.6135718
426.0513753
410.403017
413.1291291
429.7181093
436.0141501
441.6284401
449.2080651
469.1932548
442.7487308
439.7882492
446.168393
437.6200024
431.5162562
436.9392827
429.5557161
441.0372297
438.8811021
426.9220517
426.685833
418.2181131
423.6318062
423.1784784
402.3054707
395.5677965
401.3042137
394.4515727
398.5473397
387.9354421
367.8046667
357.8349062
361.1514427
383.8889315
376.0267627
384.2879294
389.6472739
411.0100072
400.5699463
402.235174
424.3037069
417.1889537
412.0124337
411.8864857
417.78001
426.7929735
426.5996334
430.7134869
433.8951921
440.9624377
430.0949186
419.9620003
423.1443588
423.8216982
431.4482384
435.3403685
442.0178763
446.0549091
424.2920751
415.1806083
417.4674535
410.3192892
414.060864
411.5094022
398.3527104
400.4007656
389.7018563
383.8399905
380.521656
368.8568376
376.1121882
360.5800917
349.1187203
387.8317795
386.740526
380.9356422
393.2106879
406.4565627
402.510492
413.5188876
425.4515908
411.1263051
425.6252682
419.706312
430.4578497
410.6403814
401.5807273
428.7024749
429.327785
432.8510564
427.346296
423.8118704
427.5986048
417.9416398
428.3356953
420.8244688
428.7065609
413.2464762
412.6902187
438.1714223
413.018242
399.2648776
403.9486948
408.9292003
399.7928354
387.322848
388.5140094
388.6752597
395.9135815
360.4395815
364.0118836
347.5048013
333.2489384
373.027824
369.2136602
380.6344813
389.1419182
397.4110977
395.9860252
401.8344725
406.7178178
408.0906324
420.6881748
417.2688394
433.4641522
426.8942923
418.8249888
419.958297
419.2583767
414.6195743
426.3833849
419.9151049
407.4359518
421.0232055
426.6160163
411.0258537
425.337421
402.2185808
419.0440318
425.182291
399.7733836
386.7887854
392.6438728
399.1929318
405.7320129
393.6570282
366.5343476
379.7329041
369.2190115
358.0604599
348.610549
344.4652199
331.7395681
374.7909433
378.1809022
388.6673256
379.8779103
390.4692512
407.8738405
401.5264689
399.2530328
407.0793423
422.6185754
412.7322355
420.286313
424.2084063
402.5320511
397.2050952
409.4781834
413.6789605
425.1985433
399.6544097
403.0207821
402.6468385
405.0573263
416.7705885
411.1948592
400.5980928
401.8205134
397.7781679
407.3287667
380.0842309
399.7922801
398.9615818
398.5695937
381.819413
373.0656971
361.9968096
375.2874615
357.4612828
345.3968061
332.7850481
331.9878722
366.4827354
375.9268363
384.3098765
390.8925173
399.1138888
400.6107239
395.9004169
400.7776465
390.6960828
400.137556
406.8402666
403.0783422
420.9136836
408.920496
406.174055
416.191899
421.2618879
430.0808325
413.1057244
400.7117642
406.7481591
413.4060071
417.1972828
400.9967875
397.0684625
392.9732353
384.3261673
396.2671714
393.8192539
392.2910886
397.649856
382.2673898
376.6376923
385.2348124
372.9555044
375.6199508
359.1405619
346.396529
338.5386266
327.2107329
373.837563
379.8822228
390.8719368
379.6726932
399.9362067
394.7670357
386.4733931
394.8418767
389.196615
395.0214615
399.7870277
400.0864807
406.602379
409.0775672
427.5704826
407.3182672
420.8274994
412.0331247
395.2844665
399.8235417
411.5236785
405.8516623
401.4680544
405.2950672
410.1353372
395.6634762
390.6446022
389.2265338
385.8725828
384.5032158
388.6136375
380.9299721
370.4464741
392.2557935
359.2204433
355.8062315
346.1286144
348.6131197
341.5125107
321.1129372
367.9122149
369.0083145
382.4473578
387.3826616
404.4886355
390.1837086
381.4978101
373.4817166
377.10529
398.6247344
406.3064534
388.8924725
397.1462108
402.330255
412.7002577
406.8488882
398.7113879
416.2286603
403.8667052
385.1364117
403.2044152
412.6838074
399.8904384
399.611433
396.6627078
399.857976
401.687822
381.6926005
374.4966718
361.7644393
379.208909
366.3492316
366.0286274
362.8077834
351.0728012
348.5414092
342.3463558
335.6911373
323.4602676
319.4341025
357.5891488
368.8767313
369.7487873
376.2851387
362.7873904
384.7667696
389.2753702
395.6901163
388.2468481
392.8435816
392.2411567
401.7926328
381.8721157
402.0206839
413.3351244
410.9979464
384.2423785
400.4977099
399.6432502
395.1931238
391.0302505
394.1136605
407.6200113
393.0318325
394.0789494
397.1276374
388.2410993
376.5631745
373.6410971
379.3282599
378.9327794
363.9866671
354.2039915
359.958637
352.1613284
343.2491318
348.8966521
349.4279086
332.1043019
327.5846627
376.1272665
364.0118643
351.4237153
370.8922511
380.759124
376.6122531
380.9601031
371.3204395
388.9228965
381.5011498
396.4086715
394.5578131
392.1169072
398.3990867
399.2623795
395.3434267
393.5733208
396.4952206
382.225074
386.8005514
388.4102948
400.1881247
412.8904416
395.2004576
402.2310708
388.1485059
391.9509081
381.6524344
373.4270163
368.7288824
375.9169222
366.163336
361.2579611
351.4678855
354.5916746
353.6438884
351.4581378
338.0192908
337.5706303
333.1396985
366.5759117
369.8350411
366.088647
370.1040958
386.2752141
373.0612214
375.7461557
378.4260418
383.3779702
390.6564841
379.160178
376.4112387
383.0304582
402.9513462
393.7917442
394.5589844
387.7913152
386.4579372
397.0864709
392.1525512
395.1725147
394.854676
405.108335
383.4004628
379.0239684
385.7138195
382.9620834
381.5668192
374.2994845
365.264593
369.3304497
361.9290481
358.6647236
350.587736
333.5081893
343.8350553
350.9719738
340.9144848
336.1268657
323.3671695
349.7299558
359.7264188
377.3533857
377.6194264
377.0836496
393.0411318
371.3467404
364.3663462
378.7863984
371.02605
364.1059076
364.0366929
371.6884422
388.5369099
380.5223857
383.1854655
376.8037012
386.5702779
383.5434308
388.1500303
388.6392332
400.9305793
402.7739004
374.9810807
362.1590657
371.1180773
364.9241426
378.2100102
380.7639666
360.8257781
362.324137
361.0186211
352.2690629
341.990882
348.1014622
349.3523244
342.3704461
332.6363749
333.5492716
346.1861826
351.352351
363.7866427
363.0167108
379.0375879
394.945626
375.7548023
371.1052321
369.044197
369.3966063
357.3519557
365.2104872
378.560119
378.4186741
375.4810682
366.5031511
368.3952239
368.328326
381.1039267
371.5191949
382.8741533
380.4533398
385.972417
369.3930218
353.313967
371.6341011
373.2978225
387.6657284
369.0568512
369.0149381
361.0161072
365.4152299
352.8211305
354.3063913
354.1881254
342.3076525
341.9980703
339.7236593
342.2167464
337.3688846
336.1188311
352.2775268
355.144506
354.7301963
359.4624295
362.3115389
372.2458119
365.0374136
367.8372035
367.7215337
361.2027476
366.6280491
367.9078041
384.1439671
385.1517768
360.8264898
360.1512601
368.4899824
374.793781
377.9775116
368.4144057
378.3479299
370.9444778
373.7200354
363.9444987
363.9098525
374.1675585
374.1300626
362.2543643
378.3861151
367.8594116
353.7897909
353.8382436
350.4563416
354.2716296
353.8251474
345.359742
344.9448058
328.5672792
331.5946037
323.493963
362.6174392
358.6391453
350.5974077
352.5818456
357.4089095
356.9257317
357.5487112
362.1712906
347.7739028
356.5128128
364.0492475
357.6619202
367.8528853
375.0761033
355.8790045
376.0794269
367.0452183
375.9743368
372.9337674
370.7692432
386.7389511
364.8758659
369.7165037
367.3478541
366.8369321
378.6784645
373.7208729
363.6450089
361.7873533
361.0176835
354.4436218
363.8380254
361.146698
351.6818455
330.6757667
342.3795827
344.4163969
325.3446661
335.5610039
309.923705
352.8575223
353.7135008
352.4782529
366.9639732
351.909488
361.3189426
349.3216502
350.8641269
358.5140938
365.2448603
365.2663827
371.2100858
375.3263897
365.0959938
369.1544874
365.6143987
367.9242517
373.6486929
356.7571154
356.4907459
359.5637869
359.0223226
358.8295318
361.0892469
362.7194841
370.3249213
370.2917804
370.0003243
365.1519994
354.1290146
356.1263675
354.3400436
350.5425765
342.3020931
343.6679784
330.3629072
333.6839873
334.4732482
322.3864858
320.4342441
351.8414502
349.3232306
346.2741245
355.5569738
351.7547602
340.9859841
334.9937843
354.9522535
344.8812391
365.7519714
371.6570233
358.7560232
364.463027
368.2937729
355.1130214
365.7347238
358.1315392
351.1665529
370.9772442
365.1250743
363.1460292
364.1799636
373.4461179
354.5424964
359.8833317
362.9436792
372.8711545
364.6868339
358.1843462
357.8022734
346.4122492
350.8371365
353.4973045
345.0150498
336.2803217
330.0143996
325.4057837
332.9921108
333.979805
322.2900127
341.4699492
337.5539147
340.6103234
339.5033604
347.2747216
347.9114789
350.9950313
349.1689924
362.0773466
353.7574245
373.1993245
368.2078088
361.0667465
359.5183904
377.0824455
366.0823897
354.926976
352.91413
356.0619861
364.4302633
363.8253694
356.0077813
356.6229258
347.9155654
357.9493603
367.6824599
351.5580503
343.1259042
350.0394084
341.3199635
354.9296047
347.4664312
345.5402215
339.0049873
349.2062136
332.942872
333.0127523
329.0768527
337.4010205
332.5120844
336.1375266
337.7774352
344.5199398
335.1578229
340.1745939
347.8152911
350.7878831
347.3215424
349.557697
357.2589991
357.6428084
359.3274776
358.6917346
349.5268788
374.9626946
357.7819295
348.4212701
350.7514876
356.5082917
360.9418446
355.2293605
358.9765739
351.3813824
343.9159439
351.8798128
350.1234598
341.9860385
345.3688295
348.7782512
342.9986133
358.1863209
335.8016843
322.0686313
344.8612587
352.0433202
350.2757023
342.5696037
327.4926616
329.3170475
325.3901179
340.7391365
348.2182238
336.9408846
331.7013808
342.7760626
342.4428118
341.9240865
342.3947207
344.786557
342.8514334
341.3408588
347.4880777
341.3751756
357.0579782
356.7472707
350.1096364
347.7375678
348.8599659
344.3191349
353.3423172
346.6162354
352.6202862
353.7309316
351.3637583
356.7513227
346.0658846
335.8390691
336.2089072
347.6364686
352.6060529
342.3682745
338.0217363
338.0741803
337.3372812
336.3591436
344.9934208
337.0702844
325.8698117
326.8402736
318.8893706
346.3584995
343.5749911
344.1003228
339.2567897
345.8332439
339.3555895
336.0913737
342.7714913
346.1753146
341.7070709
346.1185535
341.7010692
342.4372016
348.1495577
340.9273365
359.3308669
363.4397018
354.7007303
345.1553856
351.6707297
337.3252844
354.0685826
350.4529503
342.8416569
343.3576646
331.1588296
334.2557998
334.5938195
339.0386631
343.3518284
340.7852662
334.691672
339.4024924
335.7304172
337.2900624
336.8458146
337.203048
329.7489469
333.7098496
330.8397213
322.7920577
338.1306789
338.5250664
343.2027688
339.4110641
336.2616173
338.7518127
346.1038949
346.3037534
336.3168282
345.4234196
325.8497755
346.332036
338.6135762
348.7539128
351.7978889
348.8672366
354.2126018
352.3368696
340.8656659
336.5189308
337.9814079
344.5817851
343.0023423
351.577708
343.7171374
330.279929
337.0377458
336.2941161
334.4664073
331.4771471
334.0274073
331.6808602
334.5638295
335.1475342
328.8033315
338.1872481
329.202524
328.4032578
332.6495315
320.8123097
336.6315389
331.6382307
328.3826074
331.9799332
325.7079789
338.1455762
335.1508203
327.341908
328.5077186
319.7752487
328.3344839
344.9276792
339.3547754
328.6446291
337.9663778
339.4277225
351.769299
340.6189628
337.3150441
327.8735432
331.5895406
341.9095015
342.7616416
336.1388025
339.0810373
331.003401
335.4154508
337.8583447
330.8305468
334.5697345
330.4935642
335.3888392
333.1248223
323.0518941
321.252139
325.0323426
330.6640499
323.9011178
308.2585653
329.257244
333.1025881
335.2494026
331.5366255
330.4964647
331.6893553
333.9276973
335.5257027
335.1347772
327.5903645
333.9687729
332.2482901
347.0128845
342.3540388
323.7284526
319.8887656
345.6154608
335.8796934
339.624522
341.6097992
335.8019807
333.8907581
337.9727585
335.0866918
333.9755045
321.5004413
325.6437993
329.8569423
341.2355661
322.020828
336.6601695
333.377037
334.17794
331.4904468
332.5017502
324.0177544
332.523931
316.6668574
323.8484198
307.9452505
316.9593666
329.5147688
329.3774209
325.5871463
325.4873024
326.2989722
329.6764449
321.8179351
327.4152107
340.5587953
338.5315015
342.8654424
336.6500099
334.1353377
329.3153431
321.2039142
324.7808868
315.2448978
319.2515371
328.3663159
327.1714473
329.9764002
344.8559178
331.9489168
327.7208387
324.9142861
322.1061455
320.4129492
332.7540295
328.2451559
325.7991672
322.3958801
326.0739458
312.570847
325.6889672
329.6993585
332.0474875
330.6355348
318.4984889
314.6300196
319.89228
328.7905713
320.7752118
331.2692974
335.4734554
328.5429312
317.0771409
321.732537
322.5852699
339.0765389
323.7237935
334.759934
330.9069579
326.4523525
327.3625407
328.1274293
326.6613526
317.7519598
323.1827879
333.6939206
340.0623197
324.3776042
334.3662302
332.2431339
313.4995977
321.0192182
318.5405959
325.7828721
317.0605038
326.3228847
325.8125663
327.5568089
334.1041183
318.3285918
331.2560733
321.8811303
326.3988321
334.0179044
317.1812675
325.8184649
311.7413213
316.0604892
319.0384016
317.2221627
333.5484952
321.9777925
309.1885878
322.4605644
317.406169
322.1029188
313.0471605
317.7925874
326.9858835
333.322454
324.0982562
325.9165414
329.2509857
319.9800935
322.575224
320.9009364
318.8733695
320.235421
332.9154467
328.9996806
318.6637953
322.8757373
314.2071874
324.9659112
327.8052569
329.1017714
322.2506799
331.1654712
324.2390013
319.1475354
321.9473258
319.8392478
329.0412928
326.9525747
314.4892681
325.2043454
312.8720696
318.7176917
316.1355397
323.3018878
307.2495962
314.7261312
311.4456103
314.6915975
316.7971127
313.4667482
314.4406585
314.5776337
322.9738645
325.4325368
320.1263228
335.2306936
333.3480443
313.6672241
313.6131769
314.582324
317.3593675
319.1185911
321.5717899
317.076368
319.5347646
319.6702395
312.4124526
317.2511776
324.5614816
320.0384602
310.5752866
318.3280886
317.6333619
328.3970151
318.3742005
319.9734473
326.8640106
323.628318
318.5171628
315.7089348
302.4611764
304.3420058
315.2572132
306.8747334
294.8524656
308.9623844
310.3512896
304.7206227
309.2567348
319.272443
316.4418162
303.9029892
321.1282863
323.4962845
317.6240226
310.7224053
316.2262497
315.1871036
308.9340241
308.1695889
309.0647282
309.8411775
316.7316506
312.5517047
311.0373288
309.4964122
310.9327585
318.3098544
309.986604
314.2350339
311.681547
309.0061778
318.4355459
314.9416341
304.4275699
308.7700801
310.8147888
306.3351025
307.9676874
312.4547161
)
;

boundaryField
{
    flow
    {
        type            calculated;
        value           nonuniform List<scalar> 
160
(
297.3650824
312.5684108
310.4316965
305.7331357
308.2802086
309.2857605
317.2974097
302.6609745
312.3640547
317.8448013
305.774718
304.426818
308.7604429
297.7133632
296.8971653
304.236233
300.2727892
301.9119354
309.1310056
307.9619361
309.1640652
303.9123066
310.7997214
312.5145634
312.9204083
317.0574144
309.9062715
304.5965306
310.9655719
300.9373253
302.2282017
306.9674565
299.1252068
300.6041517
300.1328303
296.0355237
303.0518833
295.7729205
310.465989
316.3274588
435.2474167
396.8353713
388.351503
374.2425872
369.7520424
367.3225376
363.4116931
368.7684645
350.1850669
349.9695252