/*--------------------------------*- C++ -*----------------------------------*\
  =========                 |
  \\      /  F ield         | OpenFOAM: The Open Source CFD Toolbox
   \\    /   O peration     | Website:  https://openfoam.org
    \\  /    A nd           | Version:  7
     \\/     M anipulation  |
\*---------------------------------------------------------------------------*/
FoamFile
{
    version     2.0;
    format      ascii;
    class       volVectorField;
    location    "0.008";
    object      momentum;
}
// * * * * * * * * * * * * * * * * * * * * * * * * * * * * * * * * * * * * * //

dimensions      [1 -2 -1 0 0 0 0];

internalField   nonuniform List<vector> 
2400
(
(0.005773898092 -0.000416148702 0.0006110589132)
(0.005475405716 -0.000293503563 0.0001078734563)
(0.01040998014 0.0004592446809 -0.0001138919874)
(0.006414461766 0.0006781947701 -0.0001029141778)
(0.008940309599 -0.0001928368154 0.0002593573744)
(0.01131444587 5.163209793e-05 9.569054051e-05)
(0.01304792456 0.0004850578033 0.0004794624258)
(0.01022903046 -0.0002859071592 0.0007732009779)
(0.00442250962 -1.572446195e-05 -0.0001745301052)
(0.006930904535 0.0009271569137 0.0001947681103)
(0.004588392235 -0.0001170660937 0.0006766943455)
(0.01278639136 -0.0006123294296 0.0001036133032)
(0.01013679739 0.0004836078159 -0.001318930651)
(0.005698903939 -0.0006457347113 -2.661969307e-05)
(0.006296812012 -0.0008401543976 0.0004387681059)
(0.008531116129 -0.0001330808232 0.000159516638)
(0.01001560868 -0.0001147871304 -0.0001861895927)
(0.01044844747 0.0005610074362 -0.0004402481594)
(0.006138557901 -9.180967271e-06 0.0007115658697)
(0.008221831324 0.000149465428 0.0008728532424)
(0.006195777158 -0.0003772328089 -0.0002195208007)
(0.00797390338 -0.0008263980137 0.0001681495539)
(0.008578584605 0.0005608837341 -6.037847759e-05)
(0.01106331723 0.0005431645555 0.0005036273572)
(0.00753072116 0.0001970955369 -0.0005113755999)
(0.005765883484 -0.0003628390092 -0.0002296820709)
(0.007170245214 0.0001575429655 -0.0004459284481)
(0.008656907047 -0.0002770383601 -0.0009484137338)
(0.0106906013 0.0003847850433 -0.0003108407429)
(0.005924252919 0.00055735927 0.0006591543446)
(0.004085721436 -0.0003442947101 -0.0001743232315)
(0.006534430879 0.000119371516 -0.0004520402672)
(0.008671590229 -8.567831196e-05 0.0003883729951)
(0.008118450709 0.000533009854 -5.789841176e-05)
(0.008417523886 0.0008734104795 0.0004102219171)
(0.005997329451 -0.0006950758788 -0.00013817965)
(0.008290656358 -0.0002470065898 7.121531398e-05)
(0.007004437371 -0.0001907548454 -0.0003911736745)
(0.0027064698 0.0007765962081 3.694636368e-05)
(0.004501012207 0.0001801054309 -0.0007217255905)
(0.004565095172 -0.000666370063 -0.0005650426528)
(0.006807041116 0.0006227941183 0.0002258050072)
(0.008646708884 0.0001550452349 -0.0005367133909)
(0.01023054865 0.0002144906385 -0.0002686018276)
(0.007766214761 -0.0003861691075 -0.0001371611163)
(0.01008760715 -0.0007682182187 -0.00035263037)
(0.009649192484 -0.0003861159279 0.0004434298691)
(0.007251022938 -1.40646846e-05 0.0004911811652)
(0.007629096305 -2.436144394e-05 0.0008316442216)
(0.01295315334 5.073774736e-05 0.0002499207525)
(0.0138909914 0.001562193283 0.00113898541)
(0.004394786994 -0.0003514542643 -3.968631243e-05)
(0.01217914553 0.0007678200299 -0.0003991158447)
(0.005743382235 -3.230075255e-05 7.28235678e-05)
(0.006075895392 0.0006299766353 -0.0003826912304)
(0.006799856318 -8.903399595e-05 -0.0003228051416)
(0.01144178662 -0.0003591358524 0.000352260673)
(0.00785295365 0.0009330535145 0.0008489468649)
(0.003998561732 -0.0002096783875 0.0001848124672)
(0.01121852139 -3.347368944e-05 -0.0001770560263)
(0.004590596245 4.980816095e-05 0.0004230207791)
(0.008911233107 0.0008388405536 -8.038060796e-05)
(0.009488794477 0.0004262757352 -0.0006757280897)
(0.005042907933 -0.0001098985093 -0.0002931221659)
(0.002828068697 -0.0004339479511 -0.0002271050211)
(0.006598097033 -0.0003442254412 1.167766493e-05)
(0.0115541498 0.000536013497 0.0001959421791)
(0.006512959092 -0.0001428098711 0.0006309138265)
(0.01324307602 -0.0002702108117 -0.0004282342096)
(0.005286083652 -0.0003286537122 6.542925879e-05)
(0.007988003257 -0.0005240822739 -0.000116252478)
(0.01020027644 -5.679690848e-05 -0.0005611129742)
(0.005572934157 0.0001084374971 -0.0001987390941)
(0.009524296471 0.0002230691786 -0.0005217455529)
(0.00709493247 -0.001163353476 -0.000526695586)
(0.007944340226 -0.0006597815067 -0.001130900101)
(0.009482591734 -0.0005601064424 0.0001498814752)
(0.01034670577 0.0002080640584 0.0002066916696)
(0.009137817814 0.0006223763271 0.001335101779)
(0.005233907549 4.808748982e-05 -0.0003816343728)
(0.00767582554 0.0003901507079 0.0002659573021)
(0.008022667868 0.0007969580494 0.0004852107864)
(0.009895355538 -0.0001855568569 -1.070216875e-06)
(0.01234823705 0.0003490824385 0.00102986427)
(0.007002400943 0.0001502138788 -5.594572617e-05)
(0.006180471013 -6.380553807e-05 -0.0003689604258)
(0.007194755408 -1.439412953e-05 -0.0001613592323)
(0.01037785927 0.0003394038009 -0.0001656242564)
(0.01080886417 -0.0007511773104 -0.0005160598344)
(0.005378230701 -0.0002264769392 0.0002969985628)
(0.009017405319 0.0007309335933 -0.0007704693031)
(0.004548100599 -4.667096721e-05 -0.0001658984244)
(0.005530690276 0.0005329715268 -0.0001308319437)
(0.006101358129 0.0001741427438 0.0002208776301)
(0.008644118129 8.963184988e-05 -0.0003268870761)
(0.01090980003 -0.0001403684271 -0.0002956518049)
(0.00640204635 -0.0003125983527 2.453651321e-05)
(0.006235974627 -0.0004863950795 -0.000271864567)
(0.01112433302 0.0008738783854 -0.0001345034618)
(0.01406097597 0.0007790068397 -0.0003116528431)
(0.007757614161 -0.0002168031353 0.0007217903155)
(0.007895180849 -0.000322906578 2.827678936e-05)
(0.007218974306 4.067032023e-05 0.0003891596058)
(0.01090307792 -0.0002151218908 -0.00152122881)
(0.007675759459 -0.0001244536488 -0.0002893000966)
(0.007448922181 0.0001974961399 -0.0008227007446)
(0.006666304493 0.0009660759169 -0.0007034614138)
(0.01237624392 0.0001816046102 8.935060553e-05)
(0.00713971659 -0.0002639923273 -9.663127329e-05)
(0.005417539993 0.0002263825814 0.0001226401964)
(0.009142514245 0.0001719978864 -0.0001860815001)
(0.007617545211 -0.0003392960603 0.0001673420304)
(0.0100754939 0.001252441858 -0.0002628792504)
(0.01764633464 0.001031098034 -9.272812161e-06)
(0.01164314564 0.0006988835375 -0.0004119511161)
(0.007407897816 0.0002063188215 -0.0001974154114)
(0.003310210837 0.0004774925986 0.0003329051337)
(0.009279714609 -0.0003097779903 0.000951758223)
(0.01229265443 0.0001527173397 0.000908149758)
(0.007617343015 0.001692927128 -0.0001881077604)
(0.004907528404 -7.128047896e-08 0.0001650386023)
(0.00867930052 0.0003269665191 0.00014461846)
(0.008393591244 -0.0001122445704 -0.000120461314)
(0.008511549435 -0.0001788252902 1.465774895e-06)
(0.009556176077 -0.0005399847394 -0.0008939628857)
(0.007717444769 0.0002445094053 -8.540457583e-05)
(0.01052434824 -0.0008985622011 0.0002489561493)
(0.00646320571 -0.0003462806221 -0.0005307727712)
(0.008167029944 0.0003384741926 0.0005194280257)
(0.004621149458 0.0002015201044 0.0001028020022)
(0.00828557783 0.0001339464265 -0.0005673895921)
(0.003762883993 0.0001107910896 0.0004000458423)
(0.008185551173 0.000278930866 -0.0003802338837)
(0.009541628673 -0.0002756086698 0.0006513276871)
(0.001838408623 2.428143188e-05 -9.578543644e-05)
(0.005713723915 -0.0003806810324 -0.0003535973893)
(0.006823636427 8.826468955e-05 0.0004585729607)
(0.007327591739 0.0002034896634 0.0005711039276)
(0.01088685843 1.541712646e-05 -0.0004863372533)
(0.005726618635 0.0003614613375 2.473090307e-05)
(0.006395034198 0.001308926912 3.869325466e-05)
(0.004962344188 0.0002189934232 -0.0004051991406)
(0.005651978106 0.0001518770943 -0.0003296091407)
(0.007709945745 -0.0007336531841 5.250497526e-05)
(0.008579190447 9.676051883e-07 -0.0002739942222)
(0.01155585766 9.388489947e-05 -0.001398571245)
(0.006337729643 0.0003437155717 3.558388261e-05)
(0.008164711552 -0.0005762529864 -0.0006942556212)
(0.01236779719 -6.956480877e-05 -0.0001445402417)
(0.01021350163 0.002217445458 -0.0005080527581)
(0.007298332628 0.0001722789212 0.0001012578687)
(0.01020477845 0.0007793417965 -0.0002036453394)
(0.008835641316 -0.0002293160725 0.0002520820009)
(0.004605082459 -0.0003141325543 2.285095724e-05)
(0.01033203743 -0.000409366616 0.0003089720373)
(0.008468374007 -0.0003107919553 -0.0005502803396)
(0.007484515299 0.0006078175054 0.0005330640959)
(0.008962468076 0.0006481240239 -0.000313257149)
(0.005947378536 -2.900558254e-05 0.000236850493)
(0.01521122095 0.0004501458418 0.001677669764)
(0.00613927635 9.802798595e-05 -6.566986963e-05)
(0.01118394755 0.001219013169 -4.423499632e-05)
(0.007373981721 -0.0005380363693 0.000422931657)
(0.01189997451 -0.0004968243812 0.0001054503308)
(0.009417532212 0.000401266967 0.0006362097453)
(0.008349823215 0.0001445313402 0.0001126653515)
(0.005087743887 0.0002464090785 -0.000268345476)
(0.008319265617 -0.0001431210189 0.0004442272449)
(0.008553307892 -0.0004875451748 -0.0007470949368)
(0.01039639672 0.0003065773938 0.0005085267983)
(0.01138777469 0.0005282176364 -0.0002059489409)
(0.01457089144 0.0005242104719 -0.0003359611468)
(0.008135692248 -7.331348038e-05 -0.0001984380064)
(0.009842272757 0.001365859804 -0.0001458987537)
(0.007725448589 -0.0002554755538 -6.780896471e-05)
(0.005201468225 0.0001230152908 0.0002698129141)
(0.008024844833 -3.263625464e-05 -3.054595719e-05)
(0.009695631754 -0.000876922276 0.000285521007)
(0.007721820505 0.0001487767808 -0.0003346271748)
(0.006294026022 -6.393694493e-05 -0.0005768518713)
(0.004844283483 -0.001024683051 0.0001102079192)
(0.01111341347 -0.0004396876174 -0.0007322418359)
(0.004955826452 0.0002406749928 -0.0002720221787)
(0.009577506412 0.000122224197 6.449174754e-05)
(0.007824519403 0.0003088547395 0.0003259024564)
(0.01010616361 -0.0004568725678 1.74996952e-05)
(0.01122031772 -0.001386102457 0.0001011579065)
(0.002480324266 -0.0003013820346 0.0001145970608)
(0.005645896692 -1.037628302e-05 -0.0001932669999)
(0.01024825596 0.0001593084808 0.0003594713492)
(0.01012335646 -0.0001440663924 -0.0004457610011)
(0.007415570276 0.0002485969206 -0.000671730383)
(0.007143581367 0.000196443479 -0.0001608969583)
(0.010452901 6.48650643e-05 -0.0004140264697)
(0.005499227773 -0.0001426983193 0.0002652991076)
(0.008181236811 -0.0003024820071 0.0005058205784)
(0.008133571961 0.0001553646273 -0.0002637542056)
(0.01163546031 -0.0001786820931 -0.0002273602563)
(0.01070415561 -0.0001334923338 -0.0009865168669)
(0.005731816803 -0.0001536752957 0.000265285484)
(0.007235066078 0.0008133556484 0.0005753944751)
(0.008413383702 8.440713051e-05 0.0003962891975)
(0.01336234491 7.572446698e-05 -0.0002012950917)
(0.00604055879 -0.0003466131539 -0.0002303889436)
(0.009266058308 -2.987981058e-05 0.0001005584908)
(0.009754109687 8.267238264e-05 -0.0002769620498)
(0.01007703543 -0.0002526553616 -0.0003620584844)
(0.007039239193 2.922988384e-05 -0.0001159353781)
(0.009991406124 -3.224747577e-05 -0.0004198318687)
(0.008345088376 -0.0006140568378 0.0007306310582)
(0.009333994215 -0.0003182224242 -0.0007049941357)
(0.01364698604 0.000892428595 6.691156331e-05)
(0.003590399732 0.0002211043835 -0.0001803069711)
(0.00947365258 -2.631456211e-05 0.0001440678997)
(0.006111686661 0.0003233699641 -0.0008444923457)
(0.009873714705 9.85632069e-05 0.0006116975027)
(0.01080370113 0.0001353458385 -0.0001851300395)
(0.005771306769 0.0007733555207 -0.0005358481226)
(0.01201317871 0.0001466968303 -0.0009006448088)
(0.01032177079 -0.000154392292 0.0001774441395)
(0.004362942226 -9.775756662e-05 0.0004930857504)
(0.006322396615 -0.0007249484594 0.0003492096457)
(0.01111630613 -0.0008824653458 0.0007190876974)
(0.007216898791 -7.56231627e-05 0.0004823294062)
(0.01253628881 -0.0007493494337 0.000298346196)
(0.007730114549 -0.0004759347858 0.0003181501158)
(0.005780947354 -7.409090631e-06 9.578066777e-05)
(0.005362811161 -0.0002027251144 0.000116729428)
(0.01030648062 0.0004898472122 -0.0003110322065)
(0.005510018832 0.0002629659267 0.0003968921082)
(0.01059646294 -0.0003249464486 0.0007817271538)
(0.007919654143 -0.0002530921823 0.0005100079643)
(0.007454337797 0.0002056002612 -0.0002925437715)
(0.009314362847 0.0004913678388 -0.001094067897)
(0.008354869774 -0.000479357285 -0.0007431222346)
(0.006465779286 -8.889936434e-05 0.0001341741228)
(0.01100113704 0.0003106226774 -0.001323691944)
(0.01391435209 0.0004861487165 0.001456499398)
(0.01219446009 -0.001151500604 -5.360866695e-05)
(0.008160519207 0.0003722780898 0.0002280140803)
(0.005722605343 -0.0002846708249 0.0001261981304)
(0.007604576651 -0.0001118339071 0.0001040091539)
(0.01189550676 0.0005072076002 0.0002133758618)
(0.008299316972 0.0007430037975 0.0009788458167)
(0.006096580644 -0.0003735493167 -0.0003310232456)
(0.008971716696 0.0006948492496 -0.0005938898546)
(0.008215913424 -6.14857381e-05 9.786639159e-05)
(0.005582258033 0.0001198079133 -0.0001052725346)
(0.01257641809 0.0009861668278 0.0009073373751)
(0.006859069911 -0.0002620265206 -0.0002780731729)
(0.006149633622 -0.000402826198 -0.0006856198549)
(0.01093308007 0.0002178235205 -0.0002099604123)
(0.009261937283 -0.0007403954438 -0.0002680510634)
(0.007232078542 8.472169423e-05 9.981199371e-07)
(0.007086614132 0.0002899572576 -2.434834798e-05)
(0.007498545758 0.0001193439917 -0.0004037022607)
(0.005030753727 -0.0002305798788 0.0002567755042)
(0.00598042973 0.000689123365 3.032614697e-06)
(0.008686255627 -0.0005851697952 0.001315695847)
(0.01179340528 6.873726784e-05 0.0008175289695)
(0.007433710197 0.0001633699035 8.539865022e-05)
(0.007979547518 -5.25979916e-05 -0.0004939410533)
(0.007738854614 -0.0004338495673 -0.0001930618892)
(0.009635541594 -0.0001568539793 -0.0001892676044)
(0.009056407447 -0.0001434095452 0.0002166479185)
(0.006585933057 -0.0005357225734 -0.000421094594)
(0.01372476783 0.0001203318127 0.0006092434069)
(0.005926723661 0.000438671509 0.000570362467)
(0.007911664141 -0.0004797470804 -0.0001237013314)
(0.009234712397 0.0003077750373 2.94465567e-05)
(0.01337665785 -0.0007022841783 -0.0001390037595)
(0.008606810221 0.000314839076 0.0001038642802)
(0.007696227049 0.0004386998154 9.108403655e-05)
(0.008876913768 -8.983681247e-05 -0.0004181465655)
(0.005191006071 -1.903561431e-05 0.0002386121439)
(0.01211452358 0.0005756621107 0.0002684048381)
(0.008538434158 -0.0006340829355 -6.653940897e-05)
(0.006629154978 0.0002319786394 6.722580724e-05)
(0.008856281622 -0.0002043160367 0.0003399338372)
(0.00431853031 -0.0002934515679 -0.0001649802391)
(0.006117768785 -6.797583823e-05 -0.0001302700655)
(0.009525566069 0.0001778932314 -0.001036560671)
(0.006241698231 0.0004779261738 -0.0003624592004)
(0.01105540174 -0.0004653974076 3.174321113e-05)
(0.005806752162 4.774856235e-05 -0.0001951929063)
(0.00862624876 0.0004921513595 -0.0005117481383)
(0.005206336425 -0.0001799181886 0.0001758934666)
(0.007153920449 -0.0003596159167 -0.0001603823758)
(0.01225943872 0.0008182633507 0.0002814151949)
(0.003429643443 0.0001044115961 -0.0005206595187)
(0.00876451889 0.0006512596562 -0.0005633493946)
(0.005550403409 0.0003452827861 -0.0001720334755)
(0.006233236287 -0.0001699175655 -0.000569063917)
(0.01307896694 0.000122736794 -0.0003122506123)
(0.009070931718 -0.0004179042323 0.0003550666129)
(0.006310748998 -0.0003069450429 -0.0003705235797)
(0.008324367718 -4.225753311e-05 0.0003252365046)
(0.007239820271 -0.0002482039841 0.0009138687243)
(0.008266091069 0.001064448384 0.0001538376645)
(0.008462721481 -0.001064959511 0.0005114314128)
(0.004956756306 0.0001814459663 0.0006081660945)
(0.008544969232 9.834831142e-05 0.0002719092902)
(0.01042268764 0.0006163643727 0.000465408977)
(0.004968386857 0.0002231585357 -0.0001638901214)
(0.009598235348 0.0006900023954 -0.0006287562422)
(0.008631569915 0.0003236520944 0.0001980323615)
(0.006604943141 -0.0001565713066 0.0003186083093)
(0.009172537932 0.0002809850481 0.0002861962039)
(0.00678945073 0.0002466069037 0.0007324545472)
(0.004139545035 -0.0007181132304 0.0002777958137)
(0.008775559577 1.425839956e-05 -5.09677152e-05)
(0.009983419962 -0.0003127688605 0.0005453129966)
(0.01125762045 -0.0001498933384 -0.0001600554665)
(0.0109211358 0.0002533696854 -0.0003749950704)
(0.008218374871 -0.000301035737 -0.0001960709467)
(0.008824964767 0.0002287607168 5.006543276e-05)
(0.005947849733 -3.38062167e-06 0.0003111207115)
(0.009516950864 -0.0002295766737 0.0005978346174)
(0.004448855648 -0.0003052635046 0.0001256574644)
(0.008612485955 0.0002567850562 0.000138103097)
(0.006928353073 -0.0002330560608 6.353766777e-05)
(0.00632200436 0.0006840384743 -0.0001682181293)
(0.007740170716 0.0007505057782 4.750507854e-05)
(0.008695069454 8.553881488e-05 -0.0001425458644)
(0.009277323451 0.0006766115151 0.0008580517515)
(0.006354905729 -0.0003824534462 -0.000279068004)
(0.01282149865 -0.0001943004714 0.001092650786)
(0.008057753043 0.0004493996948 0.0006694043329)
(0.008746729282 2.98709587e-05 -0.0001998741722)
(0.007644521333 8.687981887e-05 -0.0002931737831)
(0.009664772547 0.0002805355594 0.0003477970867)
(0.01205260006 -0.0001647769645 0.001051590607)
(0.005792857375 0.000451656055 -8.46734569e-05)
(0.01601268869 -8.659288218e-05 -0.0006693728616)
(0.003024997187 0.0002650293956 -0.0003853701555)
(0.005794715868 7.973598157e-05 0.0001005482185)
(0.005629062061 -0.0001777085299 0.0007013379522)
(0.007576080195 -0.0005303428696 0.000530106937)
(0.008992591507 0.0004562768371 7.822217756e-05)
(0.004801754341 -2.974881908e-05 -0.0005488213035)
(0.006848870606 0.0005025345115 1.432172343e-05)
(0.01065661747 0.0001379532306 0.0001267969294)
(0.007824725831 -0.0001039057129 -0.0009874258951)
(0.01019847388 0.0006740496555 8.812089847e-05)
(0.008049158491 0.0008576345942 -0.0006772615012)
(0.008239283576 -0.0009399496748 0.0003214303487)
(0.008571857587 0.0006401672415 0.0002849720903)
(0.006202040054 -0.0003779158553 2.785986403e-05)
(0.0123832715 -0.0007361576587 2.294341763e-05)
(0.01262207549 0.000185560867 0.0006540146236)
(0.01046355487 3.766925717e-05 0.0002537066037)
(0.01139630828 -0.0005265210474 0.0007775828597)
(0.005702229898 0.000338524277 -0.0003055187026)
(0.0147685341 -0.0006963865673 0.0004346427405)
(0.006590263778 0.0002439935699 -0.0005534603032)
(0.009245970886 -0.0004567592996 -0.0003051902952)
(0.009308712476 0.0002257935655 0.0003324707211)
(0.009026448496 -0.0001029334516 -0.0002830203583)
(0.007499336242 0.0006716506229 0.0001075385301)
(0.006495639528 -0.0003036941651 -0.0005502175033)
(0.006836116182 -0.0006599095782 0.000610270229)
(0.01007344459 -0.0006736380166 -0.0001119275954)
(0.006703049827 -0.0001489392588 0.0001842404264)
(0.009553853963 -0.0001285118283 -0.0003606968686)
(0.009622088469 -5.407177914e-05 0.0005233105962)
(0.008247572013 -0.0004584609953 0.0007701286581)
(0.0136622827 0.0007016047742 0.0007152770647)
(0.006648737511 -0.0005628290905 2.112496115e-05)
(0.00955684049 0.0004694046876 -0.0005187323807)
(0.006255015408 0.0001231149147 9.370044966e-05)
(0.00683934834 -0.0001124516425 6.006107741e-06)
(0.007366871653 0.0001866290563 0.0003092031812)
(0.005821322949 -0.000174753231 2.456373406e-05)
(0.007206647873 -1.811835476e-05 -0.0003252325845)
(0.007241226637 -0.0001041159713 -0.000624068465)
(0.007640214136 -4.142779408e-05 0.0002155862393)
(0.009270449601 -0.0004111041363 -0.0005122996704)
(0.005870385839 0.0007868891488 0.000344918351)
(0.005804674844 -0.0004263838501 -0.0002375014481)
(0.009406130289 0.0005500093629 0.0002135523329)
(0.004013272441 -0.0004315154752 0.0002696945581)
(0.008357857632 0.0008676256214 -0.000209955045)
(0.009039207317 -0.0005016759344 0.0002939722567)
(0.009648421952 0.0002299938661 0.0003816687408)
(0.006023891052 -7.350361942e-05 -0.0002132851282)
(0.008419618182 0.0004184252225 0.0001339530149)
(0.007223150665 -5.957135914e-05 0.0005707252613)
(0.008453603545 0.0007492938409 -0.0004100526942)
(0.005774856894 -0.000404741272 0.0003330083226)
(0.007653618674 -0.0003206012036 -0.0003117809444)
(0.008772406688 1.414545352e-05 -0.00031970447)
(0.01071587712 0.0003198562376 0.0001971344659)
(0.00972491095 7.933009125e-05 -0.0001532562713)
(0.007895470585 -0.0002714131958 2.088745245e-05)
(0.009893717522 0.0005679540953 4.114644323e-05)
(0.008429629359 -0.0006623620304 0.0005580954547)
(0.00690074984 -0.0006774936081 -0.0003310354592)
(0.00789034665 0.0004085114312 -6.98210855e-05)
(0.002742221402 -0.0001586645319 -0.0002320983374)
(0.006418981003 -0.0001711384226 -0.0003426935709)
(0.004923273841 -0.0005425011 -0.0002770421594)
(0.01079939216 0.0004522642078 0.0006319094311)
(0.005387929638 0.0008496299306 0.000217827649)
(0.01000342867 -2.27840886e-05 -0.0005787925505)
(0.006026336239 -0.0003366930564 -6.466438462e-05)
(0.008569547532 -0.0003291658889 -0.0007900794272)
(0.006606766453 0.0005335111686 0.0003321641157)
(0.01174494702 0.0002638543844 0.0001405911883)
(0.01388590801 -0.0006024904453 9.381254744e-05)
(0.009904966882 0.0002203657513 0.0002715632328)
(0.006107932467 0.0004461376381 0.0002413821459)
(0.008556700913 0.0002004343955 -0.0004779851398)
(0.004185069655 0.0001577453113 6.735144757e-05)
(0.005198726584 0.0004522746417 3.798097412e-05)
(0.008840876929 -0.0009519201528 6.963464785e-05)
(0.006550787502 0.0002401840176 0.0004044362023)
(0.006113673632 -0.0007264626471 -0.0003216303481)
(0.01232796676 -0.001325746194 0.001140102771)
(0.01053152713 -0.0003996130432 -0.0003838487998)
(0.007857234335 -0.0001362026621 0.0004642136127)
(0.006607357469 0.0001752136642 -0.0005906449869)
(0.00852169049 0.0002507320557 0.0003550071037)
(0.00787880559 0.0007346611472 0.0005225636296)
(0.003600466166 -0.0007428254527 0.0008451598852)
(0.01046925406 -0.0005574329373 0.0001027060994)
(0.007565654388 -3.634163014e-05 6.034740804e-05)
(0.006872043021 0.0006882113968 -0.0001518824449)
(0.008587165716 -0.001046592633 -1.360018176e-05)
(0.006115986601 8.911297866e-05 -4.776446778e-05)
(0.007663296637 -0.0001461981164 -0.0005183401962)
(0.00857343328 0.000442387334 0.0003834146016)
(0.006196894152 -0.0001693112733 0.0004167089558)
(0.01345412512 -0.0005524446596 -0.0006847124006)
(0.01046251465 0.0004619546002 0.0001786997492)
(0.01649483153 -0.0001376230954 -0.0003899294864)
(0.003267345298 -0.000240134455 -9.251140031e-05)
(0.006117023918 -0.0002032557404 0.00029491746)
(0.0108206728 0.0006558509811 8.530084152e-05)
(0.006944927208 2.952787483e-05 0.0005920312698)
(0.009469214733 -0.0004911843506 0.001261644624)
(0.005245439783 -1.379983857e-05 0.0007244107867)
(0.00817514046 -0.0003472260816 0.0001524028244)
(0.005177685757 -3.100220897e-06 -0.0004588216957)
(0.01003001255 0.0005181812297 -0.001142530708)
(0.0131941199 -0.000365886242 0.000363383482)
(0.007112165933 -0.0007553116652 -0.0008270661885)
(0.007455833454 0.0003934943083 0.0005077061379)
(0.00495819102 -0.0005822680127 0.0005641717652)
(0.005785839199 -8.725927056e-05 0.000543341076)
(0.00573064996 0.0002710560007 -0.0004285998653)
(0.008251466137 0.0008193095691 -0.0004462947501)
(0.007057122165 -0.0003981226668 0.0002165998566)
(0.007718099017 0.0002323474956 -2.144755964e-05)
(0.00232782806 0.0001084033353 0.0005996498809)
(0.007595084466 -3.705999473e-05 0.0002778252192)
(0.008879853532 -0.0003320730141 0.0001121084378)
(0.006316931973 0.0002142364408 -0.0006020692377)
(0.00710766905 -0.0001098972276 -7.290510419e-05)
(0.008493890092 0.001078136815 -0.0003571697843)
(0.007442080816 -0.0005747306323 -0.0002947022461)
(0.006818804526 -9.144157764e-06 0.000970587683)
(0.01177110762 0.0005968861441 -0.0002242222216)
(0.01013662739 -0.0003557162677 0.0001554071797)
(0.006796966306 0.0009587312348 -4.935914553e-05)
(0.005518588895 0.0004055927123 -2.735724213e-05)
(0.008592623125 0.000468515282 -0.0007394421654)
(0.006094542845 0.0004974445139 -0.0003778757869)
(0.005145281348 -3.7027071e-05 1.448936727e-05)
(0.005836725314 -0.0003124092384 -3.660474607e-05)
(0.004850191888 0.0001863444967 0.0007174773402)
(0.003946602161 0.0002721625644 0.0004019402317)
(0.006040884954 0.0002104965142 1.839181979e-05)
(0.005825936407 0.0001496727099 0.001073253669)
(0.01046931961 -0.000184235927 3.720866965e-05)
(0.01011548625 0.0005302626485 -6.587403883e-05)
(0.006621980658 -0.0003856077994 0.0001243039392)
(0.0074517899 -0.000417548943 -0.000226305073)
(0.009952548971 0.0002581552368 -0.0004149627278)
(0.00884406919 0.0002867413513 0.0001272871878)
(0.007478143693 0.0002665801875 -8.119488731e-05)
(0.007284323967 2.723920949e-05 -0.0002754232676)
(0.003729188396 -0.0003014050987 4.908588943e-05)
(0.01206280852 -0.0002313587147 0.0003930006455)
(0.01114043977 -0.0006833372451 0.0002492905726)
(0.01027211696 -0.0001165571419 -0.0003247617294)
(0.01124787408 0.0002488053902 -0.0004124659337)
(0.005279416104 0.0005711790167 -6.010872284e-05)
(0.01129186508 0.000687755729 -0.0008638186663)
(0.0125815279 -0.0003122664038 0.0005751519876)
(0.008501214844 0.0003245855345 0.0008835287172)
(0.00790246212 0.0003110699756 -0.0002804559897)
(0.01254786482 -0.0002946820077 4.594139324e-05)
(0.009391311907 0.0002926516606 0.001201377148)
(0.00819975812 -0.000498952017 -0.0005216044955)
(0.008769783674 -0.0001542971964 0.0004607361945)
(0.007480484104 -0.000268040153 -0.0001693979323)
(0.007361807927 -0.0002283637909 -4.729834841e-05)
(0.008853840201 -0.0006789468241 0.0005288787282)
(0.01030475002 -0.000507080444 0.0003840852429)
(0.008955471568 0.0001084837343 -0.0001266662108)
(0.006677370037 0.0004181789631 0.0006144851489)
(0.006465257804 -0.0002747620915 -0.0001614844106)
(0.00720765984 -8.506042795e-06 0.0003662237187)
(0.005588663272 -0.0005189575936 0.0005674470078)
(0.007930237588 -7.783083426e-05 0.0009520415978)
(0.008043383933 0.0003605902207 -0.0005352709338)
(0.01334894872 -0.0006351617805 0.0005337661222)
(0.008589597719 -0.0001205891553 0.0003604469038)
(0.01102656148 0.0001258109678 -5.793680837e-05)
(0.00479436671 -0.0001703874953 -4.496523473e-05)
(0.01363786632 -0.0004774649832 -0.0009330018565)
(0.006229949602 0.0001193988981 -0.0002542402348)
(0.009222318489 -0.0006566064275 0.0002829604885)
(0.003881987402 4.668035807e-05 5.877481448e-05)
(0.01401299612 0.0005413173724 -0.000416020586)
(0.008613237286 2.069396859e-05 0.0003006245971)
(0.00572182976 -0.0003477338941 0.0007561865447)
(0.009206526183 -0.0002094396608 1.538389786e-05)
(0.01466107824 0.0006152803465 0.0002011947519)
(0.003765441311 0.0001027529211 2.917961625e-05)
(0.008959267754 3.960224004e-05 -7.051812169e-06)
(0.01062996564 0.0001827929474 6.622522018e-05)
(0.009611695382 0.0003271120877 0.00026231121)
(0.009856880393 -0.0003285509662 -7.10911e-05)
(0.007329510787 -0.0001923840611 -2.176513251e-05)
(0.005686473594 0.0003367211914 0.0005301700025)
(0.006200748601 0.0003606632078 0.0002700790482)
(0.005970414444 -0.0001610278891 4.00317289e-05)
(0.01462752927 0.0004234266196 -0.0003444842157)
(0.01436255841 -0.0004354555281 -6.981732966e-05)
(0.004121561802 -0.0002092352849 -1.851733898e-06)
(0.008450476006 4.275735986e-05 0.0005373811199)
(0.005569294529 0.0001888376787 0.000480975081)
(0.01249939009 0.000435986465 0.0005552654985)
(0.00940379723 -0.0005321695094 -0.0004787889723)
(0.00757693984 -0.0008370068798 0.0002811216139)
(0.005775514337 -0.0002374868266 0.0005029087022)
(0.00653567002 -0.0003064373475 -4.471211752e-05)
(0.009673645155 0.0006768524818 0.0001057922179)
(0.007065382966 0.0006354090455 -0.0002879497638)
(0.007101748711 0.0005734018723 0.0001675434919)
(0.009125179524 -0.000317951626 -0.0005178452143)
(0.003397494221 4.403924135e-05 1.511815423e-05)
(0.009919375214 -0.0004223332431 -6.269661717e-05)
(0.002616004748 -0.0004670805131 0.000101451692)
(0.003559083423 5.783962004e-05 -0.0003635655905)
(0.01489469328 0.0002324634148 -0.0009514866296)
(0.01098248398 0.0002717884247 0.0001167696185)
(0.007984864034 0.000324432675 0.0001967719458)
(0.009162799533 -0.0007590279481 0.001179594427)
(0.003401978177 0.0002089286984 -6.683972546e-05)
(0.01124461306 0.0004014014956 -0.0001634894038)
(0.006620609823 0.0006753300729 -0.0002548300876)
(0.004287510697 -0.0003883121638 -0.0003704112101)
(0.007195881276 -0.0001440816709 -0.0003028728587)
(0.01042842112 0.0004523890081 0.0002514775477)
(0.006809033515 2.352509142e-05 2.079956223e-06)
(0.009261021317 0.0002893816207 -0.000314932077)
(0.007310787251 0.0006267149971 -0.0002615219554)
(0.007727132927 -0.0008466094278 9.93649475e-06)
(0.008618388936 5.956191038e-05 -0.0004699084129)
(0.009249999163 -0.0007254376917 3.371806005e-06)
(0.007426807444 0.0001714945527 -2.291172522e-05)
(0.008836799872 0.0007012350899 -0.0004418904668)
(0.0106225262 0.0006719246124 -0.0001004682711)
(0.008821024538 -0.0004741779877 0.0002101819156)
(0.008560353792 -0.0002184741055 -8.639792813e-05)
(0.009587728457 0.0002407781257 0.0005766988918)
(0.008540494335 0.0007256554279 -0.0001789194588)
(0.008798566524 -0.001088661876 0.000248214229)
(0.008202984006 -0.0001477479439 0.0004485005329)
(0.005263274373 0.000117858706 0.0006019474319)
(0.006116035871 -0.0005132623451 9.635270827e-05)
(0.01601273535 0.0004197359044 0.0005913691354)
(0.008157408371 -0.0005329936686 0.0004941636263)
(0.008817658542 0.0004022462346 -0.0003493665946)
(0.007140252203 -0.0005310670026 0.001001238533)
(0.007712330541 -0.0002442846479 0.0002719450152)
(0.01357645422 -0.0006086055861 0.001106409711)
(0.004003508536 1.723901694e-05 -9.215171101e-05)
(0.008727024917 -0.0006602925095 -5.215743658e-05)
(0.00585060201 -0.0002042319481 -4.179872111e-05)
(0.009849256904 -0.0007657697536 7.400393059e-05)
(0.009878396578 0.0002742612193 -0.0003403395257)
(0.00744098233 0.0007262703586 -0.0002247762655)
(0.004532405871 0.0002071991721 0.0003496976673)
(0.009199866075 -0.0001308717621 -0.001273721954)
(0.00572164574 -0.0001213767967 -0.0006305890795)
(0.005517280199 3.305900166e-05 0.0009791218835)
(0.01024577399 0.0002540619107 0.0008381524391)
(0.007889939855 0.0002531711925 -5.25479328e-05)
(0.009931948848 -0.0005740327864 0.0003733505538)
(0.01158780778 0.001026820143 -0.0004084622335)