/*--------------------------------*- C++ -*----------------------------------*\
  =========                 |
  \\      /  F ield         | OpenFOAM: The Open Source CFD Toolbox
   \\    /   O peration     | Website:  https://openfoam.org
    \\  /    A nd           | Version:  7
     \\/     M anipulation  |
\*---------------------------------------------------------------------------*/
FoamFile
{
    version     2.0;
    format      ascii;
    class       volScalarField;
    location    "0.008";
    object      overallT;
}
// * * * * * * * * * * * * * * * * * * * * * * * * * * * * * * * * * * * * * //

dimensions      [1 2 -2 0 0 0 0];

internalField   nonuniform List<scalar> 
2400
(
291.930489
300.9098726
296.8279243
296.5362657
296.7575945
299.410935
299.3940465
298.4159769
298.0520116
298.2411592
299.9419022
299.2194877
299.489792
301.146639
307.8187753
315.3079403
337.4525048
389.2633579
545.4296278
954.9643082
294.828814
305.5289585
300.6115186
301.1834764
301.1639838
300.0084557
299.4633091
299.9391214
299.932589
300.2709379
301.3450246
301.9437123
301.7990375
305.4480055
307.0289344
322.1554003
353.2401019
413.7742648
583.6656255
859.1008607
295.7992439
305.8519118
301.4284055
302.1668876
302.1915706
301.6087112
301.2721609
301.53153
301.721191
302.5602077
302.2339612
303.1339408
302.1924431
304.0215379
307.2930619
322.1114306
351.742826
413.3961304
531.858432
715.6314423
295.497753
304.4372987
300.5978127
301.4195857
300.5213186
301.3072463
300.5134955
300.9848317
302.0032888
301.9754673
303.3242672
302.7724886
302.655343
306.0571127
309.4552757
323.2541673
343.9125711
395.6168401
478.9022478
592.1680212
296.1185514
305.4433015
300.8533419
301.7093351
302.8751264
302.9640242
301.9771657
301.681892
301.1861583
300.3693164
301.4833347
303.4142427
306.4317771
309.5438516
309.5022014
321.2015832
339.997867
372.2250677
423.0697237
507.7770627
296.8995225
305.4789053
302.0897215
301.2710205
300.4115998
299.316941
299.3242492
299.6230798
299.3594182
300.4196368
300.7254549
301.8995445
302.7563987
304.2051277
306.3738206
317.7327627
326.9945165
353.1897237
395.1709113
450.4254968
293.7088682
303.6908768
300.6661656
301.2118762
299.5129426
298.9081314
299.1409737
300.5383627
300.5895188
299.1838745
300.618073
301.1293521
303.243337
306.4165966
311.2384636
313.1076122
324.2972681
339.8223091
366.019759
406.3476398
290.8158526
302.4169107
298.3217628
298.4895505
300.5659444
302.1963891
301.3674252
300.3681829
300.4117383
301.4499509
301.3870068
300.9331996
301.4066762
301.5150533
304.0864915
313.4184175
318.4002279
330.6659961
346.3945488
381.3442959
294.7297355
302.8357759
296.6425732
297.1485266
296.8661716
296.7543994
297.2505409
297.5694849
298.9460409
299.240816
299.9346682
300.2350776
301.0367546
303.9966073
306.8449109
311.8603466
316.2929843
326.364546
332.8538559
358.6758555
294.8039018
304.3890987
301.6521372
301.8197029
301.0561522
300.5322322
301.2492567
301.259329
299.0868788
299.8461804
301.604235
301.9005328
301.7923709
304.9030536
305.5004575
305.1300367
311.4875986
317.8166884
324.0223162
341.9627719
295.5933284
305.1081223
301.0977421
301.805292
300.2200906
301.2671695
300.4538887
298.6739784
299.5422164
299.3167229
296.8630953
298.1432494
298.5924753
301.517983
303.1836146
303.8313613
306.2547084
311.1944634
317.6303791
329.4432834
294.4825406
302.7150986
298.4945237
298.5504462
301.1490778
300.3081731
299.8267925
300.6641463
301.1933802
299.7011556
301.1681415
301.5005557
301.731362
303.1037018
301.574735
301.6082029
303.4000129
306.5108491
318.1716829
329.7537664
295.6790877
305.7261244
301.6682073
301.1669673
300.2342675
299.4021443
300.3545864
301.0182005
300.3383259
301.758643
300.8667618
300.5109792
300.0342146
299.9721224
301.367888
300.9584675
303.8229035
304.6981633
313.8389192
320.7975802
293.7568929
301.4740407
298.2809152
300.5551347
301.8361072
303.8638484
302.7447608
300.9578263
301.513637
301.4793483
302.2682939
304.8877538
303.9098373
302.0918073
303.6374683
303.829687
304.5759635
305.6980167
311.1115679
313.2150493
293.5322432
304.965454
301.3494507
301.0792429
301.0373402
300.6438766
299.5961428
300.942514
300.4963951
299.2731907
298.6974125
299.7865663
300.2080561
299.5743268
301.2040009
301.6198517
304.3127951
302.9366574
307.7038754
310.9757505
295.1319405
304.6236492
298.5867967
299.2527269
298.1294034
298.6856191
299.505108
299.8844504
300.3460388
300.6024774
301.7528665
300.1472874
299.940011
301.0447819
301.5202958
301.5236669
303.8559691
303.9168745
309.0095203
306.6940258
293.9467509
303.5890124
298.5754862
299.1218178
300.0386668
299.5265737
299.7618113
299.7032266
301.1557414
302.1233327
299.4541389
300.6795744
300.8340841
302.2790075
301.6320554
301.7383099
303.0269243
303.3995976
306.9926676
307.3956966
291.8562838
300.8745696
297.381433
297.5768532
297.2648004
298.0331434
299.2768457
299.3098295
298.1705958
299.1079175
300.4108335
302.3903186
302.8845614
301.3964663
302.6061483
304.3300335
301.5843362
303.5682224
305.6784926
309.6276534
295.4084909
305.000455
302.1194545
300.8822629
300.4610273
298.7591994
297.6181985
296.919683
296.6708338
297.3677558
298.1694337
298.9488003
299.9955174
300.3962025
300.4788487
302.5578307
302.6211529
303.3309845
303.9138589
305.7414541
295.9488389
305.1186842
300.0060287
300.4018049
300.383447
301.0151919
301.829314
302.0258654
304.0370003
305.4682691
303.7627541
303.0459605
302.5135091
301.9805533
302.2266826
302.1390335
303.0177013
302.3537827
303.4984443
305.3715075
295.7468093
304.7334528
300.2626786
300.9816111
301.6905361
302.7605528
301.2106021
300.6566136
299.1267177
298.9611251
299.2729395
300.4496637
300.6511828
299.6087852
300.4779236
300.211172
301.2117056
303.1431391
301.9550406
299.8607541
294.9094849
304.9679121
301.6022758
302.0167515
301.0529943
301.6785457
302.2963162
301.4955289
301.037097
301.2774066
301.8131976
301.0777834
300.3041401
301.0936706
301.6805193
302.7958772
304.3542029
302.7866807
302.0083808
301.0011517
297.3157322
304.0057831
298.2288124
299.5259666
299.9412407
300.1456007
299.847212
301.3141353
303.1988514
303.0644515
303.3108655
302.8624093
302.4559524
302.6961462
302.6300786
300.5887498
300.0463267
300.266429
302.0739704
302.219467
292.8402312
303.61464
300.3263186
299.5556648
299.6444284
300.8581203
300.8205928
299.8350732
300.3885801
300.5860598
301.9216268
299.8346892
300.6165161
300.7456348
300.1529588
299.9646587
300.1048681
300.6028884
301.0517277
299.8941465
294.0164664
302.8341493
298.6748122
300.0014994
299.8854725
299.0061564
299.34219
298.9317284
298.1592289
298.2183128
298.5329948
299.2913529
298.8892045
299.5292445
300.8907021
301.5088033
302.3012714
301.4855854
300.2305991
301.4309726
293.6188537
302.3120168
299.5358868
299.9417897
299.7678444
300.1312488
300.3544891
300.7969597
301.2168581
299.9161461
299.9141169
299.5019346
299.9728237
298.3829637
298.7971154
298.5234517
298.5236396
299.997243
302.0181211
301.9551413
297.5068346
305.5914636
301.4151644
301.5484631
301.4576851
301.5413817
301.0910886
300.81296
300.0159427
299.1366529
298.7813323
300.5678098
300.7324827
300.6708643
300.4200059
301.6397937
304.2484308
304.1178284
303.0730375
303.4703332
293.026917
305.989859
301.6474256
301.8508118
302.2293883
302.1964323
301.750937
301.6575615
301.7184679
302.3528899
301.8771299
298.7433224
298.5719567
301.009481
302.0903354
301.4755416
300.6539963
300.6750572
299.4414466
299.6313629
295.4672826
304.7757989
300.3119136
300.442919
300.2045196
299.5583531
300.4131558
301.7511077
300.8136878
300.8762821
301.5817471
303.3608599
302.5408879
300.6411978
299.1780069
299.4683539
300.1719057
299.9193057
300.5422619
301.7509093
296.597969
305.0963922
299.7769314
300.2569499
300.1761177
300.0482222
299.3862403
299.7156735
300.4349004
300.6482484
300.4820749
298.3292425
298.5740913
299.5613693
300.3494137
299.343688
299.4404511
298.8469625
298.2131257
298.2757443
291.4986541
301.1433182
298.9759454
298.3832297
298.7877014
298.1511798
299.1011415
298.785578
298.502848
297.6356414
297.7113012
299.0004503
299.4673911
298.3250916
297.1756151
297.1374067
297.6379326
297.4014493
296.9276121
297.5126443
293.5576507
302.5346419
298.0894567
299.031043
299.7599372
300.9720069
300.8847436
299.0690062
299.5369389
300.0429002
300.4513278
298.6417685
297.8726322
298.4663351
300.0857073
300.2034763
300.2175049
301.2158944
301.2081629
300.0792142
291.747205
302.3773347
298.3494343
299.2023274
298.0376565
297.9445599
299.1787548
299.9573446
299.4602591
299.7895181
299.3149695
299.607737
299.4476624
299.0224879
299.5341383
298.8449034
299.0517621
299.2017176
299.2914914
299.9661534
293.0483048
302.3384966
298.1929495
298.0230495
297.6106633
299.5276323
299.5257796
298.6074196
298.4616581
298.8520611
299.3931774
299.0596629
300.0257502
301.6902617
301.3431288
300.0251002
299.9257907
300.5143236
300.5966081
299.063428
293.7288484
301.9262073
298.1406944
297.7226712
298.820203
296.5922747
297.9361993
298.6271018
299.4534515
298.8455014
299.6760563
300.3666795
299.1466889
296.9869116
298.9657801
299.0728756
298.3663343
298.184432
298.7842465
298.6498111
294.048674
304.4858178
299.9739548
300.6879005
301.2111102
301.4030181
300.894889
299.4839498
299.1941198
300.0505264
299.1074099
298.58087
299.4720931
299.0107861
297.9161032
299.168174
299.9775716
299.6240987
298.8179363
299.852979
294.0537932
303.9557995
299.1328457
298.5368069
297.1909055
296.832062
297.0430148
297.3219558
297.3194376
297.7496339
298.0916194
299.3499038
300.5286463
301.3949186
300.5717067
300.9745485
300.3872945
300.4207021
301.254853
299.4741491
292.514993
301.6859111
296.8793984
299.0074034
298.3245618
298.831109
298.5702944
298.453178
297.974845
297.4652238
296.2933535
296.6095249
296.0074495
295.932803
297.8282324
297.9262101
298.8676599
297.3853768
295.9869277
297.0030751
295.4123027
304.6834144
300.0722032
299.8616683
300.205017
300.2847733
299.7137326
300.2581652
300.2966999
300.3342978
300.9251465
299.287891
299.0655908
298.0807353
296.1630904
296.2661762
296.6110639
297.4159021
300.0078697
299.0687416
291.8785563
301.3755014
298.7743314
298.8501575
299.5557255
298.1015066
297.600007
297.676499
298.2586488
296.4219664
297.199462
296.7924218
298.6617617
298.1933416
299.0398897
299.9936362
299.1704965
298.6127701
297.9591524
298.4977375
1051.834778
997.9839541
966.3788503
944.9999753
926.5570535
910.3856473
895.0505341
876.2926313
856.7395854
846.7309702
836.6392204
827.474614
814.7753791
807.500048
799.9147246
792.5162082
787.4844991
786.6778962
777.1728454
772.8781223
766.3465704
765.4571133
764.3552546
755.1497935
752.0580736
753.3735498
748.472511
753.9850756
746.385987
739.207474
737.3818503
734.7303943
736.7591018
731.6435814
723.1642756
712.1491732
719.6440529
727.3698731
717.8263283
708.8340221
1013.695397
1016.254255
1000.69077
986.0395758
973.2931627
963.8032687
949.3818978
942.4796652
939.5177269
926.7987833
922.8465246
915.8045218
905.0895372
894.2729883
889.6117273
886.2752831
881.1065367
873.0982318
877.3663167
864.3290751
862.6733769
858.1635432
851.5261007
849.5271094
839.5364273
826.0053397
828.5456874
830.0360946
818.1901457
810.9461516
806.9642204
801.4156439
793.3389729
792.447782
792.259312
781.2076311
777.7848521
769.0186936
751.7714372
727.7437149
873.5779239
930.7997667
941.1422946
946.712377
941.4418851
942.3774912
947.3365398
945.478428
938.1353899
932.6600201
926.417306
924.8601923
920.2715254
923.2425676
915.9921997
914.0486946
909.5347432
903.9759057
904.941057
907.8764904
900.5704598
898.7413246
889.3523401
884.0616917
881.8114058
872.4262392
872.6157853
876.3163797
866.5530706
861.217182
853.4867425
848.6289601
846.7378279
845.1027021
833.9087316
821.0332605
810.8938684
795.3410265
777.5209574
740.2277505
728.0157355
796.0871986
858.7092477
881.7844932
894.691668
902.9986044
908.1320928
910.6321206
908.0446945
914.122057
912.6350945
916.4498088
917.2066099
910.7359927
914.5279939
917.0403186
912.8894574
910.3092814
909.4503131
910.537813
906.1634052
906.5510829
907.3876727
903.1070955
901.8376226
898.8462898
883.247255
878.6014745
880.1037122
876.1695429
879.8658592
875.9087426
868.32326
862.1629728
853.568167
837.1277867
825.2282511
815.8540573
791.4447706
756.9388102
605.3137229
682.8156487
759.0600341
797.9730595
825.9644002
850.1135411
861.8111009
872.549096
866.1792147
874.1571629
875.6271701
881.5991631
881.314702
885.62274
892.4928454
892.8207763
891.9342524
897.532873
895.5047828
898.6288139
901.5547364
900.4714957
900.2554936
894.624773
893.3676759
890.2457417
891.4464813
881.5250939
881.8362605
885.6041783
884.4105328
890.5140228
878.5151258
870.9906058
864.7227122
857.7238609
837.9506473
822.6127236
805.1055902
773.8572221
512.3980025
582.6593619
648.3528823
718.3377016
747.4324314
779.2495354
811.3018527
822.9298407
830.6650716
838.6832714
838.7647022
851.9910346
857.2439813
850.7778593
857.6007763
860.384552
868.513865
863.7536242
869.7443989
868.7837852
874.9097764
875.3982293
873.2831006
877.4566523
879.1730946
882.3985558
883.704202
885.824972
888.5139456
886.3660563
884.0951217
889.836366
879.5283877
874.613315
861.3037092
855.3371553
841.2804272
830.2184875
808.8862606
786.7523222
463.5439673
514.9818722
555.2261696
628.6291625
667.4906901
697.382783
741.4777465
768.5170942
791.0253808
796.654222
804.4715775
819.5436519
824.4452423
826.1571843
830.0331266
834.7983958
840.4688564
841.4501045
852.020355
856.3191978
859.8170681
860.5619827
868.5902662
866.3795582
869.3627645
875.8497708
871.9154319
874.3264207
877.8960637
870.7873158
876.2952625
878.9555828
871.795273
869.3571582
861.2866266
854.5697088
846.5098778
835.4759032
817.3793826
785.4530336
420.7309266
452.3285454
502.35536
553.8895716
600.1001237
631.9202796
669.4642037
699.4654183
724.5461223
746.6089297
754.788967
777.0290954
796.6342435
796.9165892
802.1054147
812.1516885
817.2894735
823.9549776
830.3019033
834.2918792
837.9671968
838.2606952
843.6062843
852.394878
852.4391299
852.1494075
854.2264658
859.6836853
862.4070529
860.4154412
854.8091183
867.3910461
865.8306378
862.3494378
857.4855192
851.9995493
844.0133099
833.4904779
818.5167462
795.9787988
387.7941661
419.8652145
447.0644985
483.2039499
527.9335592
561.8701501
593.5677428
627.2188921
661.3274842
685.839424
713.1554414
731.1539229
754.8717237
764.3241451
774.6084777
784.7672178
791.2941862
799.6241536
805.8893332
808.4634818
814.5942577
820.5750427
821.9372617
826.9036938
822.6864685
833.5664268
834.9620952
837.070053
838.377097
842.5579887
840.5678643
840.2644556
842.410129
842.7197829
843.7227629
839.2851901
827.5645009
823.2224623
815.477233
793.509437
363.1268008
385.4005859
405.6190909
437.9456868
468.509234
501.6523017
533.1650737
567.5720643
606.3344112
628.4547151
662.2064409
683.5567992
709.1342631
723.32954
733.6482967
751.2927768
765.2588735
772.5206184
777.0444498
778.7386307
785.183761
789.2177819
790.7159727
796.9081343
811.4772144
812.8019094
818.4800612
820.6620194
822.7928176
824.0570172
822.8623224
830.9815622
833.6520511
828.0666107
827.8617476
825.4871068
821.5558084
808.1111173
796.7614486
785.4759015
342.8048578
362.5603921
385.6403266
406.4207529
427.8760626
452.1928176
479.2095524
516.9157724
549.6033772
571.8804082
611.0153384
633.6764477
667.7680822
683.79139
690.7316625
715.2959962
730.4937586
735.7215353
744.2274486
751.7833746
758.1825707
772.895871
771.8632499
780.2397669
784.70012
791.8303993
798.7169907
797.1415728
804.573533
808.7579647
816.6266164
815.5229813
819.7671647
808.9677356
811.1462781
813.9491731
803.8180317
799.581873
792.5187659
780.6664707
334.455504
344.2621765
361.2020665
378.8174968
394.6828693
421.4288231
442.6645555
471.1594937
491.9748349
522.6302749
555.9066819
587.8945347
602.6263355
635.8039332
655.3895598
671.6563123
686.469079
702.5381033
718.2397491
732.5228285
740.7277266
749.8582659
752.2528906
761.8902864
771.1465138
775.2436841
776.2454423
774.8704934
779.4556523
792.3834662
793.1299558
797.1155904
798.4855686
804.1641539
794.3006681
795.8141458
795.7795595
791.0608729
783.4390541
768.5687253
330.6094645
333.0642423
341.0170689
356.8173792
368.6784488
388.7261009
405.4158418
429.5504511
453.5646396
474.3521572
504.5848253
527.4836931
555.0635878
587.9903447
605.8937233
632.3549798
654.106115
664.7441515
684.9126256
692.1787411
706.9430894
721.1236475
729.8821224
735.6997206
743.3033143
753.5877902
764.4262515
764.5159706
766.6897859
771.4282834
776.4566913
783.1747968
786.9597449
781.9890869
781.6027814
781.5126034
782.7673904
782.635055
780.1779966
770.7110035
322.0530728
323.8319909
327.6352344
340.7860224
350.1778591
362.5680666
375.3739606
394.3410098
416.8952305
439.695726
462.58286
483.7509757
511.9689563
541.006749
559.3691104
585.0680213
605.5742307
624.8672745
644.1185294
661.6146243
677.2079296
691.5847969
699.039322
713.0788346
719.6610362
725.5067764
734.0542536
738.936112
744.496682
750.9485022
761.6306762
760.1911017
764.5790917
770.8886395
771.0956281
771.5493084
775.9081288
766.3522192
769.5105514
756.4321487
314.8650886
320.0008771
325.2191932
329.3791893
343.1286234
352.7920818
362.1245998
369.583724
389.0270222
401.3354187
429.5512628
435.1357118
463.5090141
490.9816963
512.4815878
541.9116998
563.7165609
591.6166439
605.8811561
629.4679517
653.3167067
667.7965603
679.8339001
688.4989755
700.8148532
712.4740598
718.9166486
723.3731341
725.7434568
734.3797089
741.2404009
745.3586062
747.9515411
753.2924202
759.5527724
754.2345971
761.7989835
755.9194614
748.8219345
745.5390392
310.5420624
313.250475
317.996394
323.0787716
332.7944482
341.2416621
346.2170523
351.598377
364.6575731
377.4792842
395.8646609
409.5509352
426.1228807
450.7701482
471.9865252
500.6629938
523.7043985
544.0475939
572.3979749
586.8838621
606.5834653
624.0071901
643.4155897
656.7456443
670.880858
683.2435446
692.0249203
700.6826687
711.5084708
718.4684899
726.2942888
729.1700171
735.1816886
740.1015126
742.6811585
742.7380186
744.0159664
742.9870899
745.0666809
746.719621
311.6657203
312.1929344
315.7815382
319.1904847
323.4454238
328.2624978
332.7958087
343.0293514
351.9838127
363.8060341
376.0417224
390.8135509
405.3402883
422.989211
435.7425283
457.1878105
478.5616245
499.1359134
525.9470819
546.3348616
567.1506837
589.5615561
609.2684769
621.5889178
642.9340732
656.7410292
669.1070297
681.69259
690.2085924
695.887037
704.7538945
713.231388
718.6315815
723.8795512
727.6023424
730.0015173
730.5374285
729.941243
727.3371443
728.0127088
307.322947
309.1220482
311.3058231
317.6679768
317.0123154
320.1861937
326.6707982
332.032276
338.1845834
344.8900422
359.1298446
368.8916046
382.4755343
391.4649156
408.4119621
427.1303444
448.965042
467.2191313
483.0883371
506.4401905
528.4744079
552.9626417
564.6618053
590.4504061
607.1554509
620.0742422
643.3569006
651.0660617
668.4999489
675.2336476
685.3026271
691.8293888
701.8177778
705.2167631
707.3690352
712.9717694
716.2826064
720.724787
717.903413
717.8657314
306.1280085
308.2845743
311.7111297
313.1359414
314.6932116
318.8878158
321.853428
327.3689518
327.6524841
329.0465739
336.7929272
348.6426638
360.2604037
373.2175081
382.8306361
398.495597
412.7096272
430.7410294
446.9145058
466.079734
484.5063034
508.0687782
527.3727696
548.1395883
572.1503925
586.3036078
609.6175266
624.8755103
637.8376749
650.1873635
663.9655588
677.9320577
684.7189159
688.3513084
695.4806401
699.7062211
702.9362324
709.0488709
705.1366901
708.7477859
305.837481
305.6899184
305.7172427
306.8964644
310.109608
309.2573511
310.713341
316.0028942
320.3746373
325.4726514
328.8417674
339.0117364
348.1935514
355.0156368
366.8988065
379.6633155
385.6709248
405.4832575
416.138637
434.504116
450.6886656
470.7606209
492.0366022
511.5343347
534.7540948
556.7967382
573.6884472
596.1794603
615.7119469
631.4813794
642.1467494
653.1264369
665.7636528
674.7407949
681.5613821
687.8503756
690.4785248
692.090188
696.8641538
696.9595865
301.985278
300.7570826
305.5210216
306.0625387
309.2179829
311.7398664
313.177738
316.1344667
315.6050182
318.9171192
322.923248
328.7642177
334.4487477
341.8889458
351.9178352
358.6947362
368.5831311
380.0783897
388.859519
407.5970536
423.169745
444.3644436
457.7282229
469.7753945
494.1914882
511.6640291
531.3853754
556.4760815
578.1029369
596.9605433
616.2707317
632.2044865
641.7848632
656.6323282
662.5604282
671.9164236
675.8302215
681.2183947
681.5472341
684.8173748
303.320377
303.5699043
304.5836415
304.6070754
305.5444335
308.6318406
310.4217707
312.382696
314.7721817
315.4363341
318.1326511
324.1249008
326.0156968
333.3722007
340.5254536
350.1271426
353.8643612
359.9179004
369.6219198
381.1595814
397.0006364
408.4451841
427.1382056
446.6866965
461.9090647
482.1552265
498.6716342
520.023941
540.5409516
565.7037419
582.5598359
597.4441448
614.1795408
629.8370359
637.4563837
652.7168094
661.580468
665.9062292
670.3823833
673.2334629
302.4350834
301.9819719
301.8538819
303.1188447
301.9477388
304.797651
306.0624924
307.7827586
310.5480606
309.4969509
315.5981433
313.38882
318.2277559
322.6188765
327.5641072
335.8867665
345.7936214
352.0004357
354.5880504
365.8457641
375.9225483
390.148934
399.8148044
415.1080114
427.1253781
453.2313172
469.2939052
486.9929057
506.4659754
521.9418515
548.6197088
569.1771025
580.4191005
599.2082213
612.0249681
629.836896
639.4845909
647.8430746
657.2178789
659.2100224
300.6607895
302.6297867
302.3617298
303.7268112
303.6452263
304.3050664
304.181378
306.3066863
306.4459117
305.7588057
308.7036598
310.3652373
316.1098837
318.2413268
318.8860064
324.1028178
332.3042451
338.1328627
343.5330005
347.0864611
358.2494854
369.7264354
381.0576991
394.2675419
405.6677701
419.6290432
439.3848342
456.4094072
472.0652073
491.3026091
511.6747641
539.0763121
553.4218647
570.2055622
591.9398677
609.1283666
623.8417914
629.9403175
640.2341286
645.6710638
300.3807479
302.3800894
300.6496282
301.5013509
301.8866639
302.9448788
301.7473553
302.4683202
305.3159561
304.5542744
307.4201527
306.961678
307.9750497
311.0714502
313.9159585
318.8142535
322.7980961
328.7792902
331.8237011
340.2698176
347.911838
352.3861616
361.1839163
373.8604103
385.6285819
394.6713146
411.0986696
427.8534007
442.2460847
462.3233793
483.5972795
505.4721986
523.672784
543.3138433
561.7980437
573.6308736
598.7261246
612.8631579
620.6769733
636.3418924
301.91318
303.5182682
303.7858479
301.7661639
300.4856054
299.8354835
302.0642009
302.8559456
302.3107432
305.242468
306.9585386
307.2478796
307.7878875
310.1244689
312.7753478
315.3111441
319.8896681
324.7113764
324.9862005
330.1947601
337.4308229
342.2516591
348.5130203
355.5733481
368.646255
375.1899876
388.4102156
400.8274683
418.1057048
434.205224
449.4869553
469.8663466
495.9776665
513.5446223
535.547913
546.9824006
571.2064975
588.4828053
600.7317595
610.9895991
303.2074182
303.3293136
302.4988085
301.6008439
301.999193
303.7129595
303.9124838
303.780323
302.8894029
303.0728886
306.5085602
307.0599192
307.3254307
307.3746768
310.0235143
311.8275484
313.9014097
316.6922293
319.5456476
322.5617553
324.9427471
332.7743516
333.9983753
342.3935935
348.1551209
360.6469861
369.5237955
381.3704058
395.5320709
411.3609729
422.3078452
436.2143608
453.7689802
478.183627
499.2414542
519.5248459
534.0727486
553.2582945
577.2326036
592.5503033
299.9970519
300.9806784
303.449811
303.4720154
301.6258974
302.8680471
303.7087982
303.9752884
303.6223289
302.6878116
302.3883721
303.9045912
304.9595435
304.2769024
305.5250614
308.0025361
312.1986811
315.554227
320.5397327
321.9346225
324.5022256
327.5192036
332.8117704
337.1873604
340.5596804
350.1324154
355.4678012
363.6600748
374.4362684
388.1185763
401.2485519
412.4761454
430.6542719
443.2435742
469.6040797
492.9004359
502.6451994
523.6124099
543.7081801
563.4581803
302.2040356
300.2011166
299.8628213
299.8389642
299.7486098
298.7676017
299.8692473
300.7732924
300.2273621
301.9988971
304.8304112
305.8534751
305.2677228
305.4157592
304.7257752
305.8448082
305.2478252
308.2496788
310.0931884
312.562387
316.0227743
317.5232912
321.2065465
325.9946569
330.7645891
338.4297359
348.6071024
350.101437
355.6177332
370.7410311
382.6653466
395.0734675
406.5972975
422.96754
434.385012
456.4984896
477.7927723
493.1813357
517.6370861
537.3968821
298.4954185
299.2325315
298.8111121
300.056072
298.8937448
299.619308
299.5293266
300.5980988
301.9202249
300.9112289
299.7238639
298.0974636
300.3982727
300.6807759
299.7820989
301.6815209
302.7407816
302.6918075
303.4880518
306.622375
308.427337
313.7873203
314.2064927
319.9174463
322.6683725
327.3668363
333.2011231
344.9171919
346.0144558
356.3864825
360.5648866
374.9076706
384.4389238
394.1077827
407.7997305
420.2442483
445.6273838
463.7742183
481.4929982
498.6285105
298.0066342
299.0317099
299.1620516
300.5695352
299.3894608
298.9409854
298.9659818
298.1086094
296.10068
297.0805144
296.8013966
298.276155
297.983589
297.955048
300.5126393
300.9369727
302.5810416
301.9719012
303.3006724
303.3951077
310.1314861
309.8382757
314.3994287
315.4782578
316.0629959
321.0779854
327.4673539
331.0330024
335.8263489
345.6422025
351.1052801
358.721283
365.2815606
375.2003958
390.1075415
399.1012186
417.3489697
436.1542234
453.8539723
472.1113856
300.1417219
298.7029446
300.4370579
299.6064215
298.7706702
298.334926
298.6333491
298.7274427
299.9019413
300.9777602
299.72907
301.4211377
302.2241874
300.2123321
300.5619553
302.0567679
303.0056584
303.3027416
304.9917703
306.1464259
305.1609015
311.1234498
311.5244028
315.2642617
315.6306521
318.4641875
320.4488891
327.1077496
330.2447319
337.2712987
340.2212442
346.8727031
357.9887483
364.6621501
377.3524495
387.6650757
399.7073068
415.402855
433.3847264
450.9825413
299.1027987
298.4672706
297.0833573
297.6496528
298.1660061
299.2644304
298.6415485
299.8693454
299.2268198
299.884309
300.515329
300.5016796
300.0600719
300.7005078
301.3888767
300.7322031
301.8102625
302.1574776
303.1407266
304.2239814
305.3843488
305.0171787
306.9371502
308.7151516
312.5798062
315.355536
315.3753236
317.6325975
322.1013071
326.9780559
333.1760597
340.6860466
342.4864985
347.1625731
359.0773072
371.6412529
379.7277224
396.8068019
412.9875919
432.0804868
298.2167832
299.4521825
300.5928106
300.0496363
299.1276345
300.1604993
299.9760741
301.4407768
302.3690401
302.7154229
301.4378901
300.3158257
299.3376124
300.8350256
302.5401112
302.5583579
302.8392017
304.5893526
305.281788
304.2114426
303.7551879
305.5132514
307.2820855
306.6975492
309.3120751
309.3759476
312.3011405
314.2091892
316.8414045
319.7046714
323.7160385
328.3953151
338.508794
342.1072299
346.6030756
359.8983114
366.6288586
375.5847313
391.8719318
404.1542447
299.636482
299.9827499
300.2556229
299.5626828
300.3073531
301.3715143
301.5539705
299.1760297
299.8110145
300.6455474
300.618157
301.2037374
300.9241924
301.3514761
300.1651759
300.725899
302.8592042
302.2473554
305.1640691
306.0300216
304.4882824
304.5328953
304.1239101
306.4473179
308.3269525
308.5312581
308.449089
312.5377198
315.4128722
317.3860125
321.6628652
324.7727265
328.8932532
334.2405402
338.2593749
348.1987408
355.5839929
363.1253985
371.2884512
384.7075969
299.5975484
299.3018463
300.9162953
301.9709068
301.4040475
300.4366973
299.5521155
300.2715884
299.0611393
298.7245304
299.350142
298.4497709
299.8683242
300.7840583
301.0443342
299.4174335
301.0140985
300.0146242
299.8337213
299.8956271
302.9277573
302.4811391
304.4717696
304.8361796
306.2850323
307.6474822
311.2793735
308.954289
312.7664621
315.1512236
315.9149877
320.2034927
322.7696039
327.7481432
331.3942958
332.2018553
343.893052
348.3550669
356.7689836
367.8277057
299.3285056
299.6290588
299.6251108
299.176341
298.742649
300.4577565
299.4289574
300.0308525
299.8283498
301.2292096
300.9485147
301.0957213
301.6708835
300.1621451
300.7971292
300.6847122
300.4109551
300.4130682
300.7676741
300.2918715
299.7612523
302.0509282
302.0307289
302.0169116
303.3938633
303.9483987
305.1200506
305.5879458
306.7859203
307.9323818
312.0730027
315.3086784
316.9871419
318.4604549
321.0986577
325.0505503
330.4332191
339.474269
347.6611005
354.8336444
297.1435548
298.6042851
299.778694
300.1470452
299.8630369
299.0054372
300.2921612
301.6900323
300.8321394
300.9248879
301.2848527
299.942072
299.0440896
300.2594376
299.7514297
300.9406464
301.1498387
299.58399
299.1805218
298.979337
296.5857888
297.7380585
300.0087493
299.7799625
301.6821228
302.5291106
304.1705166
304.6530947
306.8476977
306.8804232
308.1278795
307.4536496
313.388343
316.0791674
317.2265388
323.5304032
325.7181319
330.7214022
333.9904674
341.4588883
298.7292378
298.8503722
298.8580711
298.1290303
298.7784968
299.0557859
299.7907822
300.4196633
299.2580679
299.8637765
299.7689668
299.1348353
299.570215
299.1557084
299.5734525
298.4321152
299.623201
299.2336697
299.0782962
299.9502817
300.0359314
300.7659104
300.1124366
299.9692662
301.899249
302.1559352
302.3682188
304.1042349
303.9029677
304.8330288
304.2780048
308.300255
311.8305044
312.6746617
316.9252764
315.48638
322.301957
324.5020917
330.2532702
335.8808336
298.3420039
299.0746326
299.0704938
298.9889765
299.0524904
298.5340567
298.6679539
297.3586355
298.4388851
297.4861346
298.137583
298.4530294
297.728278
298.3948648
297.6883578
298.6142943
299.3586201
300.1610557
299.4706753
299.7364031
300.4775231
299.0572984
299.2841169
298.5164141
300.7469398
299.713429
300.777326
302.0531794
305.0173787
304.1668558
306.5737892
305.4142134
307.9978489
309.2153941
310.233132
311.1782836
313.9655552
318.7881534
321.5867604
326.0070982
)
;

boundaryField
{
    flow
    {
        type            calculated;
        value           nonuniform List<scalar> 
160
(
291.930489
294.828814
295.7992439
295.497753
296.1185514
296.8995225
293.7088682
290.8158526
294.7297355
294.8039018
295.5933284
294.4825406
295.6790877
293.7568929
293.5322432
295.1319405
293.9467509
291.8562838
295.4084909
295.9488389
295.7468093
294.9094849
297.3157322
292.8402312
294.0164664
293.6188537
297.5068346
293.026917
295.4672826
296.597969
291.4986541
293.5576507
291.747205
293.0483048
293.7288484
294.048674
294.0537932
292.514993
295.4123027
291.8785563
708.8340221
727.7437149
740.2277505
756.9388102
773.8572221
786.7523222
785.4530336
795.9787988
793.509437
785.4759015
780.6664707
768.5687253
770.7110035