/*--------------------------------*- C++ -*----------------------------------*\
  =========                 |
  \\      /  F ield         | OpenFOAM: The Open Source CFD Toolbox
   \\    /   O peration     | Website:  https://openfoam.org
    \\  /    A nd           | Version:  7
     \\/     M anipulation  |
\*---------------------------------------------------------------------------*/
FoamFile
{
    version     2.0;
    format      ascii;
    class       volScalarField;
    location    "0.008";
    object      rhoM;
}
// * * * * * * * * * * * * * * * * * * * * * * * * * * * * * * * * * * * * * //

dimensions      [1 -3 0 0 0 0 0];

internalField   nonuniform List<scalar> 
2400
(
3.458697042e-06
3.043386799e-06
5.464641352e-06
3.458697042e-06
4.565080198e-06
6.502083841e-06
7.470585662e-06
5.879951596e-06
2.490195221e-06
4.080829287e-06
2.559135888e-06
7.055275419e-06
5.879951596e-06
3.458697042e-06
3.52763771e-06
5.049331109e-06
5.671463354e-06
5.53358202e-06
3.112327466e-06
5.948892263e-06
3.458697042e-06
4.427198864e-06
4.565080198e-06
5.948892263e-06
4.496139531e-06
3.52763771e-06
4.427198864e-06
5.049331109e-06
5.948892263e-06
3.458697042e-06
2.490195221e-06
4.01188862e-06
5.049331109e-06
4.911449774e-06
4.427198864e-06
3.389756375e-06
6.986334752e-06
4.427198864e-06
2.00594431e-06
5.049331109e-06
2.974446132e-06
4.080829287e-06
5.049331109e-06
6.086773598e-06
4.358258196e-06
5.395700685e-06
5.53358202e-06
3.942947953e-06
4.01188862e-06
7.53952633e-06
8.508028151e-06
2.490195221e-06
6.639965176e-06
3.112327466e-06
4.01188862e-06
4.358258196e-06
6.708905843e-06
4.427198864e-06
3.043386799e-06
6.917394084e-06
2.421254554e-06
5.464641352e-06
5.395700685e-06
3.043386799e-06
1.452752732e-06
3.942947953e-06
6.155714265e-06
3.458697042e-06
7.954836573e-06
2.974446132e-06
4.980390442e-06
5.53358202e-06
3.596578377e-06
5.464641352e-06
3.874007286e-06
4.496139531e-06
5.464641352e-06
5.948892263e-06
4.911449774e-06
3.942947953e-06
4.565080198e-06
4.080829287e-06
5.602522687e-06
7.401644995e-06
4.427198864e-06
3.596578377e-06
4.01188862e-06
6.848453417e-06
6.086773598e-06
3.043386799e-06
4.911449774e-06
2.490195221e-06
3.112327466e-06
3.52763771e-06
4.427198864e-06
6.502083841e-06
3.458697042e-06
3.458697042e-06
6.433143174e-06
8.576968818e-06
4.496139531e-06
4.427198864e-06
3.942947953e-06
5.879951596e-06
4.565080198e-06
3.942947953e-06
4.080829287e-06
6.639965176e-06
4.080829287e-06
2.974446132e-06
4.980390442e-06
4.565080198e-06
4.980390442e-06
9.407589305e-06
6.502083841e-06
4.496139531e-06
2.421254554e-06
5.464641352e-06
6.917394084e-06
5.602522687e-06
2.974446132e-06
4.980390442e-06
4.911449774e-06
4.496139531e-06
5.118271776e-06
3.942947953e-06
5.53358202e-06
4.080829287e-06
4.565080198e-06
2.490195221e-06
4.911449774e-06
2.00594431e-06
4.427198864e-06
5.464641352e-06
1.106383156e-06
3.458697042e-06
4.01188862e-06
4.080829287e-06
6.433143174e-06
3.389756375e-06
3.52763771e-06
3.043386799e-06
3.389756375e-06
4.01188862e-06
4.565080198e-06
6.848453417e-06
3.596578377e-06
4.980390442e-06
7.055275419e-06
5.464641352e-06
4.565080198e-06
5.948892263e-06
5.464641352e-06
2.421254554e-06
5.879951596e-06
4.980390442e-06
4.01188862e-06
4.980390442e-06
3.52763771e-06
9.061219729e-06
3.52763771e-06
6.364202506e-06
4.01188862e-06
6.986334752e-06
5.602522687e-06
4.565080198e-06
2.974446132e-06
4.911449774e-06
4.842509107e-06
5.602522687e-06
6.917394084e-06
8.092717908e-06
4.427198864e-06
5.948892263e-06
4.565080198e-06
3.043386799e-06
4.565080198e-06
5.395700685e-06
4.565080198e-06
3.942947953e-06
3.043386799e-06
6.433143174e-06
2.559135888e-06
5.464641352e-06
4.496139531e-06
6.502083841e-06
6.155714265e-06
1.452752732e-06
3.52763771e-06
5.53358202e-06
5.53358202e-06
4.427198864e-06
4.634020865e-06
5.948892263e-06
3.389756375e-06
4.427198864e-06
4.911449774e-06
6.224654932e-06
6.433143174e-06
3.043386799e-06
3.942947953e-06
4.565080198e-06
7.401644995e-06
3.665519044e-06
4.980390442e-06
4.911449774e-06
6.086773598e-06
4.427198864e-06
5.326760018e-06
4.911449774e-06
5.602522687e-06
7.954836573e-06
2.00594431e-06
5.395700685e-06
3.665519044e-06
5.464641352e-06
6.086773598e-06
3.52763771e-06
6.986334752e-06
6.086773598e-06
2.490195221e-06
3.52763771e-06
6.086773598e-06
4.01188862e-06
7.53952633e-06
4.496139531e-06
3.52763771e-06
3.043386799e-06
6.364202506e-06
3.043386799e-06
6.086773598e-06
4.496139531e-06
4.565080198e-06
5.464641352e-06
4.980390442e-06
3.874007286e-06
6.502083841e-06
8.576968818e-06
7.055275419e-06
4.496139531e-06
2.974446132e-06
4.427198864e-06
7.055275419e-06
4.911449774e-06
3.458697042e-06
5.464641352e-06
4.911449774e-06
3.043386799e-06
7.608466997e-06
3.874007286e-06
3.52763771e-06
6.433143174e-06
5.53358202e-06
4.427198864e-06
3.874007286e-06
4.358258196e-06
2.974446132e-06
3.458697042e-06
4.980390442e-06
6.639965176e-06
4.080829287e-06
4.427198864e-06
4.427198864e-06
5.602522687e-06
4.980390442e-06
4.01188862e-06
7.470585662e-06
3.52763771e-06
4.842509107e-06
4.980390442e-06
7.470585662e-06
4.911449774e-06
4.496139531e-06
5.602522687e-06
2.974446132e-06
7.608466997e-06
4.842509107e-06
3.874007286e-06
4.702961533e-06
2.490195221e-06
3.458697042e-06
5.53358202e-06
3.52763771e-06
5.948892263e-06
2.905505464e-06
4.634020865e-06
3.043386799e-06
3.942947953e-06
7.193156754e-06
2.074884977e-06
4.980390442e-06
3.596578377e-06
3.458697042e-06
7.262097421e-06
5.464641352e-06
3.942947953e-06
4.842509107e-06
3.942947953e-06
4.980390442e-06
5.049331109e-06
2.974446132e-06
4.565080198e-06
6.086773598e-06
2.490195221e-06
5.948892263e-06
4.980390442e-06
4.01188862e-06
5.187212443e-06
4.01188862e-06
2.421254554e-06
5.53358202e-06
6.086773598e-06
5.948892263e-06
6.571024508e-06
4.565080198e-06
4.702961533e-06
4.080829287e-06
5.187212443e-06
2.490195221e-06
5.049331109e-06
3.942947953e-06
3.942947953e-06
4.080829287e-06
5.53358202e-06
5.879951596e-06
3.596578377e-06
7.53952633e-06
4.358258196e-06
4.911449774e-06
4.427198864e-06
5.464641352e-06
6.571024508e-06
3.458697042e-06
9.338648638e-06
1.937003643e-06
3.596578377e-06
3.52763771e-06
4.427198864e-06
5.118271776e-06
2.905505464e-06
3.942947953e-06
6.433143174e-06
4.496139531e-06
5.53358202e-06
4.634020865e-06
4.911449774e-06
4.427198864e-06
3.52763771e-06
7.608466997e-06
7.401644995e-06
6.01783293e-06
6.086773598e-06
3.458697042e-06
8.161658575e-06
3.874007286e-06
5.187212443e-06
5.326760018e-06
5.464641352e-06
4.080829287e-06
3.52763771e-06
4.01188862e-06
5.53358202e-06
3.942947953e-06
5.464641352e-06
5.948892263e-06
4.358258196e-06
8.161658575e-06
4.01188862e-06
5.464641352e-06
3.52763771e-06
4.01188862e-06
4.634020865e-06
3.112327466e-06
4.496139531e-06
4.496139531e-06
4.911449774e-06
5.53358202e-06
3.043386799e-06
3.52763771e-06
5.326760018e-06
2.490195221e-06
4.427198864e-06
4.980390442e-06
6.224654932e-06
3.389756375e-06
4.496139531e-06
4.634020865e-06
4.496139531e-06
3.52763771e-06
4.01188862e-06
4.911449774e-06
5.948892263e-06
5.879951596e-06
4.427198864e-06
5.53358202e-06
5.049331109e-06
4.080829287e-06
4.358258196e-06
1.521693399e-06
4.01188862e-06
2.905505464e-06
6.155714265e-06
3.112327466e-06
6.295261839e-06
3.596578377e-06
4.980390442e-06
4.01188862e-06
7.332704328e-06
8.370146817e-06
5.948892263e-06
3.458697042e-06
4.427198864e-06
2.490195221e-06
3.112327466e-06
5.395700685e-06
3.596578377e-06
3.52763771e-06
7.401644995e-06
5.948892263e-06
4.496139531e-06
4.01188862e-06
4.565080198e-06
4.427198864e-06
2.00594431e-06
5.948892263e-06
4.496139531e-06
4.496139531e-06
4.842509107e-06
3.52763771e-06
4.427198864e-06
4.980390442e-06
3.52763771e-06
7.470585662e-06
5.948892263e-06
9.960780883e-06
1.937003643e-06
3.458697042e-06
5.948892263e-06
4.01188862e-06
4.911449774e-06
3.389756375e-06
4.565080198e-06
2.905505464e-06
5.948892263e-06
7.608466997e-06
4.427198864e-06
3.942947953e-06
2.559135888e-06
3.043386799e-06
3.389756375e-06
5.049331109e-06
3.942947953e-06
4.565080198e-06
1.452752732e-06
4.565080198e-06
4.980390442e-06
3.52763771e-06
4.427198864e-06
5.464641352e-06
4.496139531e-06
4.496139531e-06
6.571024508e-06
5.395700685e-06
3.596578377e-06
2.974446132e-06
5.049331109e-06
4.080829287e-06
2.905505464e-06
3.458697042e-06
2.490195221e-06
2.490195221e-06
3.665519044e-06
3.52763771e-06
6.433143174e-06
5.602522687e-06
3.942947953e-06
4.358258196e-06
6.01783293e-06
4.980390442e-06
4.427198864e-06
4.496139531e-06
1.937003643e-06
6.986334752e-06
6.571024508e-06
6.01783293e-06
6.086773598e-06
3.043386799e-06
5.948892263e-06
7.055275419e-06
4.911449774e-06
4.358258196e-06
6.917394084e-06
4.911449774e-06
4.980390442e-06
4.980390442e-06
4.496139531e-06
4.565080198e-06
5.049331109e-06
5.53358202e-06
4.980390442e-06
4.01188862e-06
3.52763771e-06
4.080829287e-06
3.458697042e-06
4.496139531e-06
4.496139531e-06
7.470585662e-06
5.118271776e-06
6.364202506e-06
2.559135888e-06
8.02377724e-06
3.874007286e-06
5.464641352e-06
2.421254554e-06
7.53952633e-06
4.496139531e-06
3.52763771e-06
5.395700685e-06
8.02377724e-06
1.937003643e-06
5.118271776e-06
6.364202506e-06
5.395700685e-06
5.879951596e-06
4.634020865e-06
3.389756375e-06
3.458697042e-06
3.52763771e-06
8.714850153e-06
8.576968818e-06
2.490195221e-06
5.118271776e-06
2.905505464e-06
6.917394084e-06
6.01783293e-06
4.496139531e-06
3.389756375e-06
3.665519044e-06
5.53358202e-06
3.874007286e-06
4.427198864e-06
5.118271776e-06
2.00594431e-06
6.01783293e-06
1.521693399e-06
2.00594431e-06
8.576968818e-06
6.571024508e-06
4.427198864e-06
5.602522687e-06
1.937003643e-06
6.01783293e-06
3.596578377e-06
2.559135888e-06
4.496139531e-06
6.086773598e-06
4.080829287e-06
4.980390442e-06
4.149769955e-06
4.427198864e-06
4.980390442e-06
4.911449774e-06
4.496139531e-06
4.911449774e-06
6.364202506e-06
4.980390442e-06
4.911449774e-06
5.187212443e-06
5.326760018e-06
5.602522687e-06
4.634020865e-06
3.389756375e-06
3.389756375e-06
8.508028151e-06
4.565080198e-06
5.118271776e-06
4.080829287e-06
4.634020865e-06
8.092717908e-06
2.490195221e-06
5.118271776e-06
3.043386799e-06
6.086773598e-06
5.948892263e-06
3.942947953e-06
2.76595789e-06
4.980390442e-06
3.389756375e-06
3.458697042e-06
5.948892263e-06
4.496139531e-06
5.602522687e-06
6.364202506e-06
6.364202506e-06
3.043386799e-06
4.427198864e-06
7.954836573e-06
3.52763771e-06
6.502083841e-06
7.055275419e-06
4.080829287e-06
3.942947953e-06
6.917394084e-06
3.596578377e-06
3.112327466e-06
2.905505464e-06
7.332704328e-06
4.01188862e-06
9.061219729e-06
5.879951596e-06
3.942947953e-06
3.874007286e-06
5.049331109e-06
4.149769955e-06
2.905505464e-06
6.848453417e-06
3.942947953e-06
4.980390442e-06
4.496139531e-06
3.942947953e-06
2.974446132e-06
5.049331109e-06
5.948892263e-06
4.565080198e-06
3.874007286e-06
3.942947953e-06
6.155714265e-06
6.086773598e-06
5.53358202e-06
6.502083841e-06
5.326760018e-06
4.565080198e-06
5.671463354e-06
6.571024508e-06
6.571024508e-06
7.954836573e-06
4.427198864e-06
3.458697042e-06
4.427198864e-06
3.942947953e-06
2.974446132e-06
3.458697042e-06
5.049331109e-06
3.458697042e-06
6.224654932e-06
5.948892263e-06
4.911449774e-06
4.496139531e-06
4.565080198e-06
3.52763771e-06
1.037442489e-06
4.358258196e-06
3.112327466e-06
2.974446132e-06
4.980390442e-06
4.358258196e-06
3.52763771e-06
4.01188862e-06
5.948892263e-06
3.942947953e-06
5.049331109e-06
3.458697042e-06
5.879951596e-06
5.187212443e-06
5.049331109e-06
4.980390442e-06
7.124216086e-06
3.596578377e-06
2.00594431e-06
8.508028151e-06
5.049331109e-06
7.124216086e-06
3.389756375e-06
4.427198864e-06
6.77951275e-06
5.118271776e-06
4.496139531e-06
5.811010928e-06
2.559135888e-06
5.118271776e-06
4.496139531e-06
4.01188862e-06
4.565080198e-06
3.389756375e-06
4.911449774e-06
5.049331109e-06
3.942947953e-06
6.01783293e-06
3.874007286e-06
7.470585662e-06
3.043386799e-06
5.879951596e-06
4.427198864e-06
2.490195221e-06
4.496139531e-06
4.980390442e-06
3.389756375e-06
4.565080198e-06
6.502083841e-06
1.037442489e-06
3.52763771e-06
6.639965176e-06
5.464641352e-06
2.00594431e-06
6.01783293e-06
3.942947953e-06
4.980390442e-06
5.464641352e-06
2.559135888e-06
2.490195221e-06
6.986334752e-06
7.470585662e-06
7.885895906e-06
4.911449774e-06
3.596578377e-06
4.01188862e-06
4.565080198e-06
5.671463354e-06
5.948892263e-06
7.53952633e-06
4.01188862e-06
5.811010928e-06
6.986334752e-06
5.879951596e-06
4.080829287e-06
5.464641352e-06
5.53358202e-06
4.565080198e-06
2.421254554e-06
8.439087484e-06
6.917394084e-06
4.980390442e-06
2.490195221e-06
6.917394084e-06
2.074884977e-06
5.948892263e-06
4.427198864e-06
3.181268133e-06
2.00594431e-06
6.708905843e-06
3.043386799e-06
3.942947953e-06
4.565080198e-06
3.389756375e-06
4.565080198e-06
4.565080198e-06
2.974446132e-06
4.149769955e-06
4.980390442e-06
4.427198864e-06
3.458697042e-06
7.470585662e-06
4.080829287e-06
6.846787177e-06
4.702961533e-06
5.049331109e-06
3.52763771e-06
3.942947953e-06
2.490195221e-06
5.464641352e-06
4.496139531e-06
4.496139531e-06
5.948892263e-06
4.080829287e-06
7.055275419e-06
5.395700685e-06
4.911449774e-06
3.52763771e-06
4.911449774e-06
5.879951596e-06
3.458697042e-06
3.458697042e-06
6.986334752e-06
3.458697042e-06
2.974446132e-06
3.458697042e-06
3.458697042e-06
6.433143174e-06
4.980390442e-06
4.427198864e-06
2.974446132e-06
3.458697042e-06
3.458697042e-06
4.702961533e-06
5.326760018e-06
5.602522687e-06
2.490195221e-06
5.879951596e-06
4.565080198e-06
3.665519044e-06
6.571024508e-06
4.911449774e-06
4.496139531e-06
6.639965176e-06
3.942947953e-06
6.01783293e-06
3.52763771e-06
4.427198864e-06
5.395700685e-06
7.055275419e-06
1.381299257e-05
1.097379729e-05
1.484937584e-05
1.573327419e-05
1.462940103e-05
1.552424338e-05
1.201552909e-05
1.669323995e-05
1.696196429e-05
1.612351583e-05
9.089768458e-06
1.726108443e-05
1.406449591e-05
1.50069207e-05
1.535158553e-05
1.407533956e-05
9.585581604e-06
1.437110719e-05
1.313820351e-05
1.411773271e-05
1.398900771e-05
1.66121609e-05
1.633857875e-05
1.60585799e-05
1.851467143e-05
1.582047907e-05
1.358830701e-05
1.123392893e-05
1.424755737e-05
1.739669723e-05
1.571466375e-05
1.461784457e-05
1.421225417e-05
1.478627125e-05
1.220585665e-05
1.204044886e-05
1.196600182e-05
1.281820659e-05
7.592773501e-06
8.799619177e-06
1.346706683e-05
9.364862621e-06
9.641827121e-06
1.360747903e-05
5.638032213e-06
1.480620169e-05
9.409730694e-06
1.385077722e-05
1.652109516e-05
1.627272929e-05
1.184622202e-05
6.905518549e-06
1.368586969e-05
1.31032716e-05
1.519673845e-05
1.453968932e-05
1.6678147e-05
1.280187962e-05
1.242636215e-05
1.100759947e-05
1.109466347e-05
1.564098916e-05
1.225393405e-05
1.012919705e-05
1.610699666e-05
2.042519703e-05
1.434743456e-05
9.361607435e-06
1.390332107e-05
1.610055247e-05
1.492735333e-05
1.118438785e-05
1.46570558e-05
1.747429173e-05
9.041213976e-06
1.386535859e-05
1.14133496e-05
1.086736674e-05
1.134357369e-05
6.15007541e-06
8.190601906e-06
1.006483864e-05
6.122800739e-06
8.432548439e-06
1.020570431e-05
9.414829489e-06
1.230583717e-05
5.904657143e-06
1.453806849e-05
1.138966334e-05
1.184622201e-05
1.133344841e-05
1.187174233e-05
8.303433385e-06
8.366133399e-06
1.245104696e-05
1.137767165e-05
1.594222654e-05
1.210892906e-05
1.116852228e-05
1.414926664e-05
1.458709702e-05
1.110818704e-05
1.531790297e-05
1.253685823e-05
1.071518802e-05
9.199751723e-06
8.00029184e-06
4.806903085e-06
1.229213351e-05
5.674681267e-06
1.100673582e-05
1.652265489e-05
1.173884069e-05
1.491778528e-05
1.368352681e-05
9.480175391e-06
8.916526862e-06
1.153043625e-05
9.176823051e-06
4.998052181e-06
8.386243109e-06
9.782113491e-06
7.583254642e-06
8.777984438e-06
8.768418831e-06
1.056747585e-05
8.383827289e-06
9.104809749e-06
1.072443859e-05
1.400683112e-05
9.306494751e-06
1.202246425e-05
1.074223291e-05
1.051550328e-05
1.167837272e-05
1.254650767e-05
1.138730467e-05
1.432524127e-05
9.81124659e-06
8.040060294e-06
7.617597768e-06
7.188344951e-06
1.358833434e-05
1.386481674e-05
1.322611912e-05
1.375655021e-05
1.744672523e-05
1.287474719e-05
9.954485715e-06
1.257173101e-05
1.523432361e-05
1.829758183e-05
1.209825077e-05
8.498392687e-06
1.07632318e-05
7.916175113e-06
6.130252074e-06
1.396642405e-05
7.380546307e-06
5.622390667e-06
4.893097575e-06
6.545355157e-06
7.299018639e-06
1.184680856e-05
8.768418837e-06
1.085778394e-05
1.443555757e-05
7.34310203e-06
1.383119633e-05
1.251632267e-05
1.36596201e-05
1.194710328e-05
1.081815865e-05
1.450639782e-05
1.144712935e-05
1.55869831e-05
1.303669622e-05
1.329596681e-05
8.455892364e-06
1.165750643e-05
1.231777615e-05
1.454149251e-05
1.284765742e-05
1.261960565e-05
1.088204572e-05
1.215417351e-05
1.65115896e-05
1.107215854e-05
1.531994647e-05
8.643590807e-06
1.408913093e-05
1.216959035e-05
7.168774151e-06
1.066750005e-05
1.313583414e-05
1.334652373e-05
9.659384341e-06
1.237357595e-05
8.231534224e-06
4.026115804e-06
6.500348593e-06
5.982514369e-06
9.283549349e-06
5.638032209e-06
6.540931413e-06
1.324541536e-05
5.977315654e-06
9.399312088e-06
1.183374041e-05
1.020720114e-05
1.260874104e-05
1.32318825e-05
9.370064106e-06
1.197453255e-05
1.616398192e-05
1.145534376e-05
1.358649341e-05
1.590859378e-05
1.044917336e-05
1.037156157e-05
9.642661637e-06
1.813369717e-05
1.317596548e-05
7.223024281e-06
9.040561813e-06
1.401094816e-05
9.276781482e-06
9.098485485e-06
1.861074158e-05
1.134936255e-05
1.488114081e-05
8.971726222e-06
1.344226102e-05
9.221428402e-06
1.112909269e-05
1.150508881e-05
1.337590908e-05
1.181073006e-05
1.031299293e-05
4.719639438e-06
4.612770436e-06
5.489816774e-06
4.961326805e-06
5.209544347e-06
4.599968182e-06
8.32412666e-06
4.738608637e-06
7.489468806e-06
1.17600245e-05
9.164024674e-06
1.125864389e-05
7.258330842e-06
1.32551231e-05
1.450639782e-05
1.299247784e-05
1.597534358e-05
1.060269089e-05
1.907339231e-05
1.690986328e-05
1.672115636e-05
1.053501719e-05
1.029204523e-05
9.963059279e-06
8.883972377e-06
1.397899516e-05
1.401094816e-05
1.089462511e-05
1.270159536e-05
8.136546943e-06
1.07381784e-05
1.118226669e-05
1.101439002e-05
1.218756373e-05
1.392225012e-05
1.02177366e-05
6.443914019e-06
1.049705678e-05
1.068729663e-05
9.462005232e-06
5.48402037e-06
5.730711701e-06
5.559959959e-06
6.590989282e-06
9.206472307e-06
8.840049875e-06
5.646187135e-06
8.894193022e-06
8.737124013e-06
7.988042017e-06
4.768550233e-06
1.148305743e-05
8.241666202e-06
9.370064106e-06
1.343171288e-05
1.376701506e-05
7.793491548e-06
1.185882965e-05
1.622412039e-05
9.731745926e-06
1.149724748e-05
1.069655377e-05
1.184487925e-05
1.062364291e-05
1.1457142e-05
1.540333486e-05
1.384270494e-05
1.668124139e-05
6.265255426e-06
1.073300657e-05
1.056415503e-05
1.144768392e-05
1.403518934e-05
1.030551757e-05
8.318178153e-06
1.386535845e-05
9.113218627e-06
1.179761659e-05
1.021788197e-05
1.0124391e-05
3.540147616e-06
4.543109563e-06
5.067262357e-06
6.661621509e-06
6.20877634e-06
5.174747793e-06
4.125992765e-06
4.155584385e-06
2.643445978e-06
6.360947254e-06
8.716692672e-06
1.080800887e-05
1.096376793e-05
3.809133258e-06
1.120584392e-05
5.568470929e-06
1.465116338e-05
1.185882965e-05
1.432524127e-05
9.093819142e-06
1.149724746e-05
9.319588442e-06
1.102873744e-05
1.482345714e-05
1.577400709e-05
1.389556623e-05
1.806098386e-05
1.378895843e-05
1.098661633e-05
1.454142551e-05
9.602821469e-06
1.576303731e-05
1.216959038e-05
9.140133061e-06
1.093999952e-05
8.117881789e-06
1.261039329e-05
6.687954539e-06
1.284299047e-05
5.961473493e-06
4.026115807e-06
5.032419324e-06
4.644707946e-06
7.087121967e-06
6.422160716e-06
6.252675983e-06
8.54055003e-06
7.508412862e-06
5.433258737e-06
7.396533163e-06
5.885982897e-06
4.278320839e-06
3.326810864e-06
1.325512311e-05
8.366133393e-06
1.09827796e-05
1.129999955e-05
8.638318769e-06
1.100077293e-05
1.100759944e-05
9.648459723e-06
1.450632871e-05
1.462290984e-05
9.552674174e-06
1.170738412e-05
9.123990677e-06
1.156328922e-05
1.09794511e-05
1.064238005e-05
7.35802601e-06
1.204755839e-05
1.408913091e-05
1.12821269e-05
1.308285091e-05
1.455517853e-05
1.030865239e-05
1.380743681e-05
7.523389476e-06
1.284299047e-05
1.523259739e-05
3.609332764e-06
5.452068205e-06
4.011723974e-06
3.047428303e-06
3.639568228e-06
3.665302082e-06
4.704865344e-06
7.363095818e-06
5.360075346e-06
3.180473627e-06
7.972335793e-06
8.031202119e-06
7.561596081e-06
8.303433367e-06
5.449923797e-06
1.175545387e-05
5.688835856e-06
7.303907819e-06
1.282267693e-05
8.773895007e-06
8.280448659e-06
7.536829465e-06
1.053826526e-05
7.823105532e-06
1.320083755e-05
1.314269029e-05
1.468595397e-05
1.106427696e-05
1.055683785e-05
1.263721604e-05
1.117533935e-05
1.109450129e-05
1.172478876e-05
1.19174664e-05
1.16630353e-05
9.21326709e-06
9.204957952e-06
1.189019419e-05
8.249050678e-06
8.325835267e-06
4.026115804e-06
6.919997482e-06
4.152010347e-06
2.055162942e-06
5.70916034e-06
7.187342081e-06
3.256812115e-06
4.738608667e-06
4.185603551e-06
2.588964783e-06
5.438650908e-06
7.204736624e-06
5.973551675e-06
5.409079341e-06
4.912581322e-06
1.051842982e-05
6.001401447e-06
8.088521487e-06
6.806699915e-06
8.614893745e-06
9.326005236e-06
1.110234748e-05
8.822596417e-06
9.965043013e-06
9.630699019e-06
1.799769481e-05
9.790636141e-06
9.191955559e-06
1.047129565e-05
1.68790733e-05
1.396812256e-05
8.18975803e-06
1.056958823e-05
1.16495278e-05
1.112021421e-05
1.404938782e-05
1.104417573e-05
1.133249172e-05
1.546809896e-05
9.650606991e-06
3.470962467e-06
5.032419334e-06
6.475211994e-06
3.969061441e-06
6.137648184e-06
5.318009874e-06
2.605798396e-06
4.665950079e-06
6.902232869e-06
6.805024308e-06
4.768550219e-06
3.678076765e-06
5.065577248e-06
3.275817907e-06
7.061951208e-06
1.005408015e-05
7.403253845e-06
6.204313447e-06
4.511506095e-06
6.780614014e-06
1.037156152e-05
9.967686872e-06
1.119157219e-05
8.07132033e-06
1.129164711e-05
1.732824746e-05
1.147916752e-05
1.09794511e-05
1.364669447e-05
7.964005623e-06
1.414424901e-05
1.206416314e-05
1.003839417e-05
7.88543569e-06
1.392224987e-05
1.28630864e-05
6.719131448e-06
1.281820661e-05
1.012445069e-05
1.220584978e-05
5.622390648e-06
6.080699672e-06
5.489816733e-06
6.23612103e-06
3.068824107e-06
2.084225322e-06
2.750080633e-06
5.904657134e-06
5.213708543e-06
5.325361307e-06
6.407571103e-06
6.079053003e-06
4.914855322e-06
1.67587182e-06
8.903475858e-06
9.048299472e-06
6.70232759e-06
7.853704945e-06
3.957428039e-06
1.116660078e-05
6.75411541e-06
9.238820126e-06
7.025510117e-06
7.082428554e-06
1.42805537e-05
1.088204573e-05
1.080416157e-05
1.51502739e-05
8.067844107e-06
1.220586282e-05
1.283276572e-05
1.268064206e-05
9.505060182e-06
1.362088673e-05
1.193335703e-05
5.838392668e-06
1.666021988e-05
1.328333147e-05
1.331240503e-05
1.230015085e-05
3.956930677e-06
2.935858553e-06
4.081867159e-06
2.480663409e-06
6.566136128e-06
6.755824582e-06
5.79046939e-06
5.2489744e-06
5.727761098e-06
4.142343636e-06
6.333314932e-06
3.302246296e-06
4.914855358e-06
6.551635815e-06
6.140264468e-06
6.109901815e-06
8.884655456e-06
7.697160602e-06
1.036781325e-05
1.084859813e-05
7.717605768e-06
9.967687028e-06
8.822596417e-06
7.658951491e-06
9.049467256e-06
7.199077922e-06
6.836214293e-06
1.149045699e-05
8.754249265e-06
7.271755364e-06
1.213456999e-05
1.144768411e-05
1.403518946e-05
1.353157386e-05
1.103010686e-05
5.747476837e-06
1.067721908e-05
8.638794406e-06
9.374742374e-06
1.078677703e-05
3.540147611e-06
5.871717105e-06
7.248482355e-06
5.243855709e-06
5.495775963e-06
5.174747818e-06
3.763543565e-06
5.904657093e-06
8.371207024e-06
5.769438399e-06
4.842806435e-06
6.454883476e-06
7.712318023e-06
7.312728443e-06
4.989080401e-06
4.408528081e-06
6.234417831e-06
5.654516261e-06
7.360778079e-06
7.019116059e-06
4.582873076e-06
7.292572398e-06
7.515982324e-06
7.823105532e-06
2.98890659e-06
5.274165168e-06
1.164741082e-05
1.114910301e-05
6.866118337e-06
6.491149367e-06
1.7461205e-05
1.576303731e-05
1.359038785e-05
1.236618935e-05
7.685249622e-06
7.206525549e-06
1.527969792e-05
1.021708679e-05
9.46817357e-06
9.839209012e-06
4.998052174e-06
5.452068183e-06
4.574564727e-06
4.535826328e-06
1.998463987e-06
4.0968196e-06
6.731791179e-06
3.645218672e-06
6.902232918e-06
7.470249063e-06
5.88598288e-06
6.079053003e-06
6.427538871e-06
6.094246213e-06
4.912581322e-06
4.485609174e-06
3.428835892e-06
4.005124643e-06
4.59038771e-06
5.105335716e-06
7.557346887e-06
1.345243668e-05
7.841651996e-06
7.164505631e-06
8.801224942e-06
9.543151253e-06
9.199751708e-06
9.787787406e-06
1.570590973e-05
6.059796086e-06
8.90462556e-06
6.956799994e-06
1.430078646e-05
9.229446007e-06
1.383214287e-05
1.660162461e-05
1.270213245e-05
1.01245093e-05
1.078072782e-05
1.69368523e-05
5.553205511e-06
8.24692138e-06
3.519026399e-06
7.228386387e-06
3.996927946e-06
6.181044922e-06
2.026925811e-06
5.321632883e-06
4.551520496e-06
5.399077245e-06
5.438650912e-06
4.353125356e-06
6.578260702e-06
3.199892128e-06
6.677606894e-06
5.49138982e-06
4.519999859e-06
3.926852502e-06
4.036309689e-06
4.546909564e-06
3.457187175e-06
8.26569629e-06
8.006454594e-06
5.51701401e-06
9.049467256e-06
3.013520633e-06
1.021327721e-05
1.046844512e-05
1.107215853e-05
1.33294663e-05
1.370708787e-05
1.620186432e-05
9.505060182e-06
1.218756362e-05
1.301899961e-05
9.576930531e-06
8.835783961e-06
1.207534917e-05
1.012445069e-05
1.031299302e-05
3.054179444e-06
5.730711712e-06
4.504421573e-06
1.984530727e-06
3.068824107e-06
3.736933118e-06
2.677939528e-06
2.624487182e-06
6.241813573e-06
3.771982508e-06
4.84280647e-06
8.18081117e-06
3.326810881e-06
4.875763983e-06
5.142078558e-06
2.861316577e-06
5.143253838e-06
8.560046529e-06
5.223347451e-06
2.313205114e-06
6.754115462e-06
5.834838805e-06
5.881730899e-06
7.000351589e-06
7.969750927e-06
5.860183473e-06
6.077086738e-06
5.447312573e-06
9.184027677e-06
7.271755364e-06
1.117533935e-05
9.598246946e-06
1.021545892e-05
1.16495278e-05
1.16630353e-05
1.523349152e-05
9.296697115e-06
7.338234495e-06
2.034233285e-05
1.532917767e-05
5.414835214e-06
7.548629001e-06
6.615498338e-06
5.031959007e-06
2.640336237e-06
4.096819628e-06
3.619261318e-06
3.717877166e-06
5.506442143e-06
4.955000191e-06
7.450747548e-06
1.725927635e-06
2.722101738e-06
6.094246213e-06
3.224054853e-06
5.568470946e-06
4.442327728e-06
8.794863198e-06
6.410385212e-06
5.663761789e-06
7.55734677e-06
4.780946667e-06
5.391258734e-06
4.117737186e-06
6.060560594e-06
6.69648842e-06
8.102104667e-06
4.340474833e-06
5.578850366e-06
1.116644489e-05
9.952970885e-06
1.153544951e-05
1.287998911e-05
1.16495278e-05
1.238607118e-05
8.026965978e-06
1.058547982e-05
8.731371819e-06
1.546809896e-05
1.807302241e-05
3.956930651e-06
3.634150907e-06
7.178339121e-06
3.118060536e-06
2.498079983e-06
6.827455578e-06
4.414557268e-06
4.155584408e-06
6.829049527e-06
6.213515453e-06
4.246962027e-06
2.702002239e-06
4.839494394e-06
6.094246213e-06
3.837896379e-06
3.944178338e-06
5.065581817e-06
7.303907819e-06
7.835974428e-06
7.019116059e-06
2.894344269e-06
5.834838851e-06
6.616455365e-06
5.270782989e-06
5.396581388e-06
5.274165125e-06
6.077086689e-06
4.340474762e-06
4.97798744e-06
5.626357768e-06
1.23977077e-05
7.397748212e-06
7.194659415e-06
7.88543569e-06
1.121032126e-05
1.112909259e-05
6.535653124e-06
1.643991635e-05
9.46817357e-06
1.26773546e-05
5.484020362e-06
3.005519406e-06
4.011723974e-06
4.606458582e-06
7.208008334e-06
3.162153504e-06
4.125992745e-06
4.956584189e-06
2.716629376e-06
4.216059536e-06
5.290138442e-06
4.728955841e-06
4.385507135e-06
3.427669395e-06
4.37523885e-06
5.722633155e-06
6.779999687e-06
6.126041153e-06
7.597422915e-06
6.222187901e-06
5.628429508e-06
4.700178328e-06
6.372203055e-06
3.541214277e-06
4.898096962e-06
7.19907798e-06
5.992965186e-06
7.319634066e-06
7.381439083e-06
5.626357862e-06
5.2375203e-06
8.894002598e-06
4.530129282e-06
7.796122891e-06
8.588500037e-06
8.392826869e-06
6.719131508e-06
1.077478925e-05
9.46817357e-06
1.097537897e-05
5.484020362e-06
3.005519426e-06
4.081867159e-06
8.0793873e-06
5.209544347e-06
5.31800987e-06
2.605798405e-06
1.676414236e-06
7.562652165e-06
3.106757727e-06
4.768550219e-06
4.203516334e-06
6.502899834e-06
4.342448624e-06
5.065579479e-06
4.872877788e-06
7.403253789e-06
6.439130052e-06
5.1444658e-06
3.988483451e-06
6.351531398e-06
6.969499245e-06
5.309841331e-06
1.153045761e-06
4.898096923e-06
6.529630668e-06
1.156328912e-05
3.659817033e-06
4.462666796e-06
8.136546848e-06
6.285865454e-06
5.98713821e-06
9.148790937e-06
8.961507328e-06
8.498392642e-06
1.140184033e-05
8.099653474e-06
9.381651853e-06
1.199985089e-05
1.173206588e-05
4.095300975e-06
4.473448702e-06
7.67103672e-06
6.024224364e-06
5.209544311e-06
1.034949564e-05
5.21159681e-06
5.321632883e-06
6.902232918e-06
4.881284291e-06
4.768550253e-06
6.980323065e-06
2.11739262e-06
1.675871832e-06
3.453552065e-06
3.325666342e-06
6.545106174e-06
2.90553031e-06
6.410385212e-06
4.546909564e-06
3.537316672e-06
5.915607154e-06
7.515982383e-06
4.694260066e-06
6.060560594e-06
6.110470068e-06
6.329451591e-06
8.511297759e-06
6.866118337e-06
4.414398551e-06
6.984061341e-06
1.197639774e-05
6.484260742e-06
5.108102349e-06
1.283878523e-05
1.240630975e-05
1.34382629e-05
9.381651853e-06
9.374742289e-06
6.81246137e-06
3.540147611e-06
2.935858553e-06
3.589169561e-06
5.102591229e-06
4.638800223e-06
7.187342061e-06
5.574046019e-06
4.155584408e-06
3.598367607e-06
4.955000155e-06
4.321218212e-06
4.878564898e-06
1.66340544e-06
2.20918719e-06
4.451737929e-06
4.485609174e-06
2.805581866e-06
3.455327518e-06
3.403349984e-06
5.822763161e-06
5.225845537e-06
4.052079811e-06
6.372203106e-06
2.470245564e-06
6.641792482e-06
6.529630721e-06
4.388555242e-06
4.851480686e-06
8.583164792e-06
3.288710006e-06
3.754117015e-06
5.195128385e-06
7.017594672e-06
8.512784376e-06
3.887678433e-06
5.838392668e-06
5.799522617e-06
5.852519602e-06
1.078072782e-05
1.362492262e-05
4.788824581e-06
5.871717066e-06
6.052657554e-06
3.047428314e-06
4.638800223e-06
3.162153504e-06
3.763543538e-06
4.228242869e-06
4.699656027e-06
8.653266772e-06
4.246961997e-06
4.278320814e-06
3.326810832e-06
2.209187174e-06
5.526422913e-06
6.497170481e-06
4.052089999e-06
6.045877269e-06
4.511506095e-06
8.056467566e-06
4.502743642e-06
2.269320898e-06
4.166062103e-06
4.035660165e-06
4.316865088e-06
8.287685777e-06
5.992965186e-06
4.170822926e-06
4.377124596e-06
7.530567239e-06
5.848704436e-06
3.082395115e-06
1.030399129e-05
6.900835539e-06
4.610714209e-06
9.39509877e-06
7.363522779e-06
9.474229258e-06
1.021788197e-05
8.042932291e-06
7.704633707e-06
3.425168288e-06
6.545355153e-06
5.031959041e-06