/*--------------------------------*- C++ -*----------------------------------*\
  =========                 |
  \\      /  F ield         | OpenFOAM: The Open Source CFD Toolbox
   \\    /   O peration     | Website:  https://openfoam.org
    \\  /    A nd           | Version:  7
     \\/     M anipulation  |
\*---------------------------------------------------------------------------*/
FoamFile
{
    version     2.0;
    format      ascii;
    class       volScalarField;
    location    "0.008";
    object      translationalT;
}
// * * * * * * * * * * * * * * * * * * * * * * * * * * * * * * * * * * * * * //

dimensions      [1 2 -2 0 0 0 0];

internalField   nonuniform List<scalar> 
2400
(
293.1426368
301.0546666
310.571056
312.1175197
324.2338747
311.4170992
314.004586
317.253238
315.7022448
320.1344755
322.8527256
338.7640053
337.9049005
342.2115157
346.6139277
346.750114
346.707225
347.9119944
368.7651647
393.9578767
301.0990023
309.0700847
309.1157033
313.3298452
316.238735
323.9377714
334.0271346
330.8202623
330.9964691
338.1639576
342.880425
346.6239252
353.250165
352.7082612
366.5286067
369.8489638
372.4741231
387.9186398
404.1124402
421.9097525
299.448001
302.0617502
315.4752192
318.0748602
324.3073877
325.9634684
331.8664846
333.0857725
334.3055483
339.726425
353.6626414
352.3510742
352.0555534
364.3871296
377.3804733
386.0846779
383.5988606
398.597844
422.4258625
443.922839
300.7267047
304.579147
321.3186629
317.4622967
325.3543202
331.7905682
332.9734912
341.2930556
341.9668634
352.1093536
356.9761561
355.1580607
355.191404
380.0809953
391.8544562
393.3845118
389.5307036
413.697164
430.9784902
447.2993723
296.3408366
308.7248895
320.1301596
326.6830411
325.6498738
317.2734473
327.9756946
335.0324967
348.4919545
353.8667746
350.7590587
362.4960482
363.7569136
362.0609787
388.315483
393.1028511
409.2514579
421.3874543
434.3571983
459.3625827
305.0606273
308.9977511
318.0343812
319.7118708
321.057874
324.7111757
331.9464313
342.3424511
344.2491458
347.4906808
350.3611199
361.3126525
366.7552951
375.1474009
382.6561676
384.5672393
399.5627119
415.7892571
439.8228439
446.9748289
310.1252783
319.2149669
317.5840846
313.3656401
330.0755784
335.084628
333.3319878
338.418274
338.4642046
363.1790241
360.3639856
354.3643122
369.7323776
377.5998052
385.9217763
395.4564719
397.6260791
417.5090253
428.4734181
448.2543181
307.4601233
317.6177059
322.8212198
318.4741775
321.7542866
336.1341641
342.9049842
348.0123712
348.5811715
361.2824275
367.6061509
365.8341619
373.3284669
389.8705645
395.8197553
390.2867431
403.4772962
419.9502818
413.7794352
441.0170769
314.5698969
316.615181
321.301843
322.5940434
327.440682
325.2618406
345.5201747
354.9727702
350.7102487
354.4158157
364.8607818
364.981809
369.0122005
387.3739728
391.6686137
401.0250398
420.9563946
422.9991529
435.4884441
441.6010222
317.7835875
316.1503919
320.9131079
331.2410642
330.807505
342.5319188
346.2094354
348.7372729
349.3460236
348.606143
355.1988536
361.7576509
377.175608
395.5347971
400.5223996
403.7512505
411.9996048
424.4120252
421.9501906
436.4506868
310.6813499
317.1130876
322.9967102
332.9899524
329.2610978
339.6679677
337.3312792
346.297093
352.5905277
358.0207234
357.9391306
373.3154863
376.4402645
388.2199212
395.9201715
402.7940294
407.5737208
412.1451254
424.6067973
437.5410049
311.6380297
320.5827989
313.6186272
317.8687413
326.8091935
335.7705987
339.1738232
351.2809505
355.3209559
363.9468223
358.7467569
371.6390305
377.3992447
385.7398216
395.0760775
406.0488535
422.8551253
417.8585267
426.6111539
442.7538365
303.8588748
319.837325
319.1718863
324.2184364
330.5730126
337.2316267
352.577755
355.3867181
352.6470516
363.3412578
366.9931531
370.9381369
384.7796633
398.8191488
404.6106822
410.657122
425.862229
437.316782
445.7561268
443.2897482
301.7519997
317.3299093
321.738117
329.5504324
333.7877156
333.4059682
344.663298
351.3468954
360.5760358
359.9085818
370.603193
375.9445282
384.3990563
395.9646064
401.9067562
410.3053171
413.2970186
433.4022015
428.3952723
429.8348318
309.441568
326.0140116
329.8922128
326.8287028
333.5028279
335.638866
345.2408422
346.5691336
360.1527603
356.9735129
367.6245424
379.6986628
387.3434497
384.3156763
385.8296519
397.4157671
411.1702886
415.9804371
424.2579672
434.0283468
309.8986708
313.6771781
331.9092384
337.6761265
329.4173175
340.8419977
337.9913794
346.4524724
349.0915925
361.4104895
365.2898837
377.5462253
381.7823645
381.8265281
399.2369124
403.156553
401.87607
409.7110519
423.8195872
430.7793886
308.6066492
321.9515163
325.1129617
332.7512013
335.7616561
345.9462689
339.7962795
353.7319729
358.6350022
366.9689275
378.1343056
377.6583574
378.0456433
378.5578208
375.9328909
391.9007279
406.4404194
414.0921384
424.4872402
431.074338
307.0723316
317.3227902
327.4912242
338.8084957
339.7756215
338.2658859
346.9848783
352.642543
352.9961666
365.7636772
362.154772
382.5408575
381.5401504
378.8063187
377.7947718
393.3694123
405.7057205
409.3527743
415.4377815
413.3040998
310.4733241
318.2689127
325.0256162
329.39162
317.7158344
332.7605676
345.6023084
349.5170175
362.2633952
365.8136601
362.8192386
364.3845874
379.2960294
380.3425788
383.9458409
405.5843678
405.0750833
410.5969167
415.7683362
424.7607237
305.7355747
311.9089723
318.5203221
324.0576832
327.8537441
326.4387969
342.300086
347.6401985
359.3189709
357.2488216
361.8630239
369.9660023
378.2431972
387.6212903
393.8104329
410.203097
401.7689047
394.1626173
409.5783133
414.0627782
307.6123902
311.4851328
319.3301748
317.3207527
333.650949
334.0878823
334.5163442
340.5265558
347.1281638
358.844054
368.7236788
373.5963584
383.8724736
388.9172684
397.3090922
399.9104885
409.1650989
411.4394265
420.3975776
415.3106401
317.4335341
321.9707168
323.3230151
325.0717808
323.753333
339.0858486
343.8722088
347.9878292
353.4310725
365.8149089
388.1238437
372.7197305
379.7781255
380.7727432
397.0449184
391.9414738
398.4427168
405.0023079
406.8904978
410.1198755
320.547991
320.2438828
325.3304119
329.0590272
326.9426495
326.6201238
341.1545207
347.4604123
350.6879725
357.2166837
369.6174291
370.5681744
368.9440172
380.0119549
386.3361931
406.704427
400.7352088
398.7150494
413.6791177
420.1797169
315.1095219
317.229417
319.8699722
325.0682601
331.8997096
332.3589581
332.8648068
333.4191863
341.8497435
351.0364774
360.1092951
362.253771
367.8944885
381.97895
380.2067336
393.9127484
401.3888752
399.0057288
403.7629044
415.1018659
311.0869022
312.289236
315.9371604
320.3227103
326.3076318
328.1362857
333.8105461
336.4700634
338.5698911
350.1681073
349.6757456
356.4353194
362.9196702
369.4837969
376.0717715
392.4525512
389.2556539
401.1141446
413.9035936
414.7233607
311.2679247
313.6524022
322.5943274
325.6142493
324.9638567
324.3332207
336.3651992
347.6298282
349.3476327
354.6001557
350.4279545
360.8728037
363.644817
379.845066
382.9124766
387.1006957
400.5615985
403.2897485
403.0367076
414.1259681
310.9397727
315.8108271
321.2264908
330.0540125
333.0495031
335.662547
331.7632471
347.0425854
349.9290901
349.0465216
355.0347713
360.4662923
370.5888274
374.7854776
386.3799974
385.9799742
386.5565927
393.9403918
402.6374108
399.284378
305.5282162
314.6775322
316.8435466
325.9680857
319.8399044
330.1419495
336.2050663
337.5570559
335.5932216
354.0881055
352.3921616
359.7190564
377.1994841
367.3378638
375.4350872
374.7587168
392.629972
389.0679568
398.062133
393.4575397
305.3521242
307.8101639
308.6523858
315.3946005
324.3177514
335.1665692
337.334697
336.6832612
339.5714168
338.7560026
345.475851
360.5592745
379.4190929
369.7527581
373.0928825
380.6437358
378.5474661
391.5754567
391.4752363
404.9479799
303.8400445
314.704972
315.9093641
319.6831894
327.4597783
331.797724
328.185323
334.5402322
342.1467655
337.7114161
344.7759842
357.5868247
364.8528319
357.5949235
362.5727748
383.2462441
391.794065
385.7158082
394.5776741
388.9370018
306.1628127
312.7861067
319.691003
319.7243156
316.8644956
320.0680498
325.8517921
345.8390896
339.2736059
343.4527216
341.6819114
351.9062586
357.4041668
359.0537664
351.4714478
369.0134725
377.0911869
372.2065227
389.4856861
383.8373199
311.6691639
306.6648048
311.4730028
319.939616
324.0164792
325.1094051
330.0835303
335.6112652
335.6458542
340.9027213
344.5163331
356.830165
359.7413717
372.3151546
355.1669273
364.0541144
367.6787804
378.2841276
376.7423662
375.0510184
314.2311058
306.9319701
308.0398806
317.1622391
320.8405573
324.7931241
318.9678224
332.1801886
333.7448871
341.1947742
351.0375036
349.3271308
361.022431
356.5297228
355.857792
362.2136209
363.4260746
368.9872294
367.8374939
384.8486835
304.3849777
306.7571607
309.5511737
316.0638398
319.6492077
315.2716169
323.6534831
339.1089634
329.0189631
333.1888202
342.4186448
341.4734826
351.9846827
355.0351492
356.5925665
351.185745
352.0242458
369.7104384
372.7369828
370.4418895
298.1425757
309.2831433
319.4313806
314.8708895
317.6746842
320.7713454
326.1694374
329.4763411
337.6129998
342.5398349
348.3147109
352.6477747
353.9853248
347.8414615
359.0616594
361.9146985
367.3175912
375.6286371
376.4104112
377.9603352
300.6974171
307.5600399
309.8407539
312.8646948
316.6600489
318.6424294
324.8173873
320.9541844
325.1773085
329.7135429
336.8463757
355.3662884
344.2410542
342.0528597
361.7419272
363.2135056
365.4051238
368.7720018
372.6170016
362.1312311
305.1936451
304.0281388
308.3851865
313.2380751
312.7843337
321.6159662
318.8193635
323.0181397
327.2306159
335.761094
333.5174706
345.0371423
344.3167367
340.6427839
352.8701159
355.2477983
358.3532418
359.2482216
362.0949257
360.841179
297.5018936
303.8723966
318.5478531
318.1677843
316.3260525
324.5100998
319.9390262
325.469208
329.0028941
333.0049301
328.8215038
345.726846
337.9033917
341.7631311
344.2104513
336.237398
349.0392507
350.5850528
355.0491049
362.9790034
302.5882919
304.6888935
306.3991089
313.5533246
312.8979418
318.3070166
319.9190331
325.1744756
330.0666086
322.7139513
324.5425323
334.3260186
338.5009185
342.6284915
333.1581552
346.2636659
351.6550969
349.7907469
348.6353387
355.823443
295.8683222
298.1290445
304.6510263
302.1520726
304.9782004
316.8540632
312.891826
312.3516557
313.6125849
317.0995856
320.4197985
319.7439843
327.3734208
323.5003088
319.6611276
326.6634493
335.0118703
340.6512904
329.9033795
331.5354965
473.9239981
481.0528084
513.615665
536.08937
540.5895153
544.5562635
558.4883927
559.7000507
556.9528
546.8659969
557.2325985
572.49579
584.4495216
560.5591783
577.2726547
579.3459426
581.2735427
567.585677
570.4530078
588.4663803
593.2131537
587.5894925
585.5606187
587.6245007
592.0499362
595.2582999
593.6729618
597.0071533
575.6325504
591.5710751
597.0365226
574.1052204
566.3536219
556.6026109
569.1245542
560.5853115
558.3990301
553.3551426
531.2029886
489.2872495
461.0515405
495.957661
516.0809582
525.6017624
528.5529564
555.5963754
565.4224521
569.3516128
583.1616784
578.0309491
583.0487971
573.1222731
587.5000582
569.2910939
579.6152445
593.4051
590.2389126
588.5624639
600.6388608
617.4933446
602.1084098
591.8647928
581.3909111
615.2472969
626.9850336
611.4251546
620.6756343
617.3476569
609.8883067
608.6106329
593.8968236
587.547137
585.5730503
592.526439
578.8411472
566.6688987
581.9385149
559.9700962
535.1384201
492.1598297
466.6828285
488.5892729
512.5770455
530.370256
522.6411935
527.4734283
535.8787499
559.4634533
578.9746357
582.139674
579.2582876
580.5998986
585.9550696
576.3559563
595.0161762
605.468487
597.1095457
623.8447619
610.2197633
612.2946901
603.3929305
590.6311488
602.2454228
618.8463075
607.1340457
598.7114514
620.3740181
624.7682984
611.8731962
600.5099905
619.5342733
608.4789036
600.8641881
585.850986
571.6321676
553.7041532
557.1663053
563.8662763
514.3723486
493.321273
465.6004135
476.834729
501.5546126
510.7353019
516.9823965
523.2837722
554.5515539
563.1196085
555.2160539
585.0231897
580.076648
580.5011825
601.2328654
584.3351509
587.9344015
602.0333186
602.7759417
623.1264707
618.9383672
600.5479911
618.144923
613.5864007
617.5812625
642.9073438
641.007089
639.2478747
633.9242085
639.0706305
619.5273316
612.1713806
600.4944735
606.6374762
597.1012
589.1433169
566.4389729
577.8906928
577.6894121
561.2205071
527.8383318
493.1282872
461.3233457
476.6377698
494.565261
498.4602724
515.9814492
526.0098976
535.8284392
532.1843846
546.4739447
560.0297083
557.0249677
579.3249979
578.9372027
562.578154
585.4394216
589.9004856
591.7372906
603.75197
611.0100303
597.7850401
615.9509389
621.960024
622.4655673
624.6361325
636.2520563
632.4860308
629.02544
638.89652
617.2339027
604.8879444
596.6461876
606.7617847
592.7108899
593.6738322
573.5534132
570.8332591
557.2465565
543.7755338
525.9890861
493.7850718
456.8923924
465.5611858
482.8351279
500.0355589
499.3870863
507.2392916
516.5104863
527.1636211
538.8399916
546.7405326
543.1318152
559.4110667
565.7487138
579.3978411
580.4137395
583.5589375
588.4356985
599.6994695
597.392402
615.5555381
623.4038119
608.9001298
604.6632904
616.0784874
612.0226512
622.5025038
624.5915755
633.4300529
624.3792922
607.3862998
602.2988221
587.4997808
603.3210215
601.8409295
575.2766005
566.7668261
549.1727479
521.4371186
508.9221103
497.6886442
455.8927148
461.1253892
472.1518094
498.4284789
505.5643674
519.6365861
518.154912
511.6246616
537.730113
553.2704539
538.7444584
562.6851254
553.1886057
558.5280287
562.0559914
564.5596354
587.4085365
595.1096707
583.8816636
595.1648599
616.3338586
610.8954923
619.4920358
588.8476966
614.6737476
621.1515913
611.3914806
627.2134325
641.3480075
599.1999324
610.701564
605.1906025
607.3250833
591.2288349
587.3272197
567.3493489
560.7996763
545.2452589
523.5957184
501.6524477
455.1599728
456.5496077
468.0302779
481.1088533
481.6159245
496.4957197
514.7753562
514.4632161
528.5554591
525.6036588
537.9890019
555.952837
554.4449935
555.0353504
568.3718606
567.9264992
572.8000297
591.1377474
593.3909461
602.3424904
596.2291791
604.1440819
602.0125784
588.4905159
602.81836
623.6003619
600.3557557
622.5161365
623.7217557
603.3591596
604.2034216
611.1775912
603.0152178
579.3231066
553.3874184
560.5464062
552.8793707
530.9632892
517.9970016
510.6504757
437.3956311
449.9302658
461.3274656
486.1059509
495.2387389
504.2467745
513.9389794
509.8564606
523.6359191
526.5524387
525.6107472
547.4305824
554.0624392
559.3653779
546.8312291
566.973099
580.5233508
577.5443359
569.979948
583.4410466
604.7496296
585.7992019
618.3988218
598.4243571
591.4611061
606.4191445
617.2815462
615.1896406
616.4045061
602.2252018
580.4330236
561.2046538
583.8139339
585.7812287
581.0628179
556.0773344
545.5754883
529.6562804
524.174563
492.701308
434.7813797
463.2573647
479.4367237
478.1466799
492.3960278
499.6632925
513.3617105
516.6585157
525.8447696
533.2688441
540.6863757
550.0256932
555.5736745
552.1280181
574.0954798
572.5601196
573.6134092
565.6482498
562.8871417
564.6052539
569.9124604
588.4761829
596.5146852
586.4270317
601.727219
598.3341342
587.7111509
601.8677187
594.3307002
588.1012596
589.1976906
574.082495
583.5646327
580.3383678
580.8643527
561.3597993
540.3287232
532.111216
510.8068794
501.0544803
447.0026634
465.8115451
471.11101
478.1019693
487.0330565
493.4441627
513.7814834
509.7469714
515.0478893
512.0517625
517.5638618
528.9139443
535.1613575
532.2556648
543.9474933
569.1187728
567.2008692
557.748635
567.0867609
566.5346774
588.3274141
581.0587486
593.3957492
589.8015117
592.4828866
596.5465112
593.64377
608.7149265
602.2297579
600.1431265
583.5516362
590.2722019
562.7551255
569.4067635
562.1817417
552.7355855
549.516462
533.4663763
531.3177942
497.6172368
448.7497228
459.1875145
467.0741096
490.4942231
485.2623772
479.0788132
494.4678405
491.6917446
493.5229422
508.8396967
508.8630544
527.2130082
531.307704
523.9065405
528.5766266
538.2334966
554.3487752
544.8353784
554.9683631
582.1431131
560.5343958
552.6918121
570.6023683
571.1833175
553.378107
571.7790247
591.0749709
589.7920685
583.1074974
561.9908623
566.9369243
559.3647648
559.2493026
558.1466636
556.0052652
551.1043101
534.257145
521.2761889
532.214139
503.6760651
461.5011854
459.805802
465.1342877
474.1462715
480.5070867
481.5570124
488.1668376
481.472968
503.3966028
517.8719617
506.302405
514.4364765
519.6540665
534.0259801
538.1147791
536.862859
541.3160339
545.0752729
549.1181202
551.6136241
554.6533884
556.3273201
550.5638917
568.9715997
561.1495522
553.9421232
559.4784803
567.1865161
567.2883689
552.7595659
576.0572509
575.6426842
556.1914875
556.1501676
538.9257593
538.3621082
531.6234515
524.8807458
508.997055
489.5046854
442.2623066
449.0302248
458.3308306
467.87329
465.0897477
471.4802726
478.6958297
472.7913701
490.0799857
497.7934327
493.4337754
503.7939747
534.2799086
527.4530023
520.819657
515.7712638
534.7658649
540.748326
532.7121718
552.9609947
564.1511266
557.5404035
557.253611
544.9547642
546.982491
549.0342768
573.0264217
576.4912738
563.4811257
572.823777
572.9857431
560.3088534
552.3348648
541.5057527
539.6040331
530.5489738
511.4808571
509.5244927
503.7772669
491.8868317
451.2276646
442.2600818
460.4526757
462.2760412
464.6347132
478.8120484
487.3122568
490.7886181
498.7933559
515.4164504
521.3872177
505.1230711
521.8112155
516.2747929
517.1028014
517.5209282
525.5944349
534.3927805
538.2029388
533.8906541
536.0885984
548.0558269
535.9544726
535.8168589
554.4876626
553.8222768
548.3520381
546.7130733
549.1434746
525.7945296
550.7062851
538.7972991
548.9658553
543.3625162
530.3142339
514.0098003
508.957731
510.0355927
497.8623501
475.1609493
440.2795701
458.3731248
477.3253529
470.2104988
462.5767536
484.4617688
477.4221313
478.4137243
487.2197384
498.4067424
498.3692205
518.6848528
512.7728014
509.1168347
519.2083182
511.2480791
527.9428871
534.3684032
539.3887848
530.2917776
523.268841
533.829147
546.7706541
539.7732835
543.4238341
549.6469118
531.6200704
539.7612958
535.4341995
536.1463204
540.0704368
540.685636
525.6027438
505.4626563
527.5973083
524.5806205
517.2073552
505.3333654
498.4937091
480.6471278
445.0268534
445.3146329
434.8266219
451.4581852
463.2556061
466.172423
470.5641408
464.0978762
482.1437198
496.1703724
500.900478
501.2035231
511.4140521
499.9690051
504.2725397
509.8255926
514.8020093
519.0874211
525.3493247
524.8796259
518.2209147
522.7579065
527.9748661
525.4854286
526.3660309
539.4801546
536.4914168
540.7322745
532.6394643
537.1232156
526.1240295
532.6050834
519.5957105
505.5372011
513.0102432
499.1034383
498.4692735
484.0439198
479.3736077
454.1775804
432.6057424
450.5531533
452.6081478
452.6059747
456.3101885
473.5367868
469.4136722
476.2268893
486.4108765
484.2023783
494.9377097
506.3442841
506.8106708
504.4428829
489.3878548
506.3072871
510.0169114
499.8641037
511.9402305
515.815199
509.0858078
512.0228399
516.5714046
510.0616159
521.8959305
514.3564619
509.9192834
510.0941048
504.1615102
509.1366968
506.8092732
527.1799353
515.995943
503.9491781
504.3891999
503.6125284
486.5052285
486.9300596
489.8925472
468.6523352
427.4866299
434.4197659
434.435475
442.0572668
447.3241477
467.1625111
458.8447856
468.613684
473.9035775
481.5071215
486.5771099
488.4953318
486.0875906
487.8903981
491.4207681
493.3097938
480.5442336
492.6294037
500.3456499
505.762613
505.9106662
505.1066951
524.7278167
505.3914739
508.1710765
507.7884508
503.5022592
490.9698819
513.2074129
507.6798642
517.5786975
510.4503562
514.1409876
508.7112375
505.3735589
497.6098114
500.1899905
500.7377046
484.1009637
470.1211951
424.2697756
427.4707921
434.2200098
432.6555929
439.0228532
445.6714575
456.1048086
451.1767937
454.127399
483.7655098
479.3767242
476.6242818
482.8378345
487.9468018
491.8312361
484.7649432
487.8210139
501.4045898
512.1603487
502.7609603
510.6276479
502.289448
503.7592152
497.8045148
508.1830955
518.3928142
505.6077761
503.7205473
502.824494
494.1113601
495.3829256
499.6844673
495.4353115
500.6606641
498.9376463
489.3877765
471.6081193
473.3108689
474.153104
479.9086103
418.0266112
422.0771061
431.9199547
434.0686377
431.8641366
446.528087
443.5647894
444.1729169
462.0531407
461.3074631
469.4150442
463.4592883
471.5560214
479.0577583
479.1907672
485.0364006
492.31218
477.8986066
514.8094973
490.7579889
493.2022137
507.6446072
505.5276021
500.4790624
508.0419465
494.5883677
507.1442198
512.2058944
502.914326
490.4782816
487.5207514
496.4493674
495.6614135
510.3381435
486.528459
475.2544376
475.5143712
471.1607359
471.4227853
455.5486591
409.0775307
417.6563398
436.0166443
435.7436807
437.342489
441.7450342
444.5937918
451.0129838
460.4630897
467.0877949
484.4921608
485.2174628
486.4615885
475.8895021
473.4437559
494.2280887
496.2228128
479.9159057
491.4169988
494.1955392
500.125915
507.868525
511.8611683
494.237733
496.931066
502.8610377
499.5789737
492.3360955
495.0975829
487.3681545
494.9030869
503.7252301
493.4576706
487.4608414
479.7132888
488.5498516
467.7497481
445.6238921
458.7552254
437.714778
402.3528953
410.5252611
424.6934618
434.7584714
433.6239684
432.2973126
437.3027846
456.3674965
462.5039112
469.5578695
475.4018033
482.013103
482.1588294
470.6120442
466.679914
480.8358152
480.5047132
482.5458046
481.8759229
485.7589908
482.593645
499.9099226
480.7742412
499.6414208
499.6824214
495.9937566
499.9801342
497.295952
488.1099102
470.7505556
480.538691
470.3429985
483.3344837
482.0870013
489.9394539
465.7012944
477.2170186
470.3894018
461.7153217
457.4752576
417.7214076
415.3443996
429.3495818
419.3440928
427.5886823
426.1567232
428.3347742
445.2352476
448.2848806
454.4239761
456.0496682
471.5020431
462.1378065
459.7382539
466.2456846
471.814216
474.5229425
469.8891
476.5564779
494.4036721
473.122346
493.9480544
472.0033261
493.4176729
499.3169045
475.8400561
481.6620117
483.5099039
495.1429695
489.7188255
501.4752857
507.1115765
506.4566693
488.9572876
481.2918484
475.3270042
491.2028356
471.5417686
472.714057
461.697345
409.7688661
417.7753536
422.2859183
416.3688704
419.9350662
415.1387073
425.0341413
428.0960018
440.5392529
458.6673448
461.4098151
454.6228748
455.3556928
455.7237815
465.1047535
467.7064228
469.9120588
464.7986762
471.0054726
476.1185036
477.833554
475.8570971
471.5655633
487.86621
488.9851173
475.3881815
487.4186729
498.3607338
482.4187754
481.802794
483.3189017
476.130813
488.019042
483.8696854
479.4999546
456.2532257
452.121929
450.7551952
460.0564115
453.5557512
413.8109753
401.4130812
414.7393804
413.2299
422.3359389
424.1038736
440.6398124
443.1613285
440.5413885
435.9780267
444.7741356
436.767869
443.3332762
444.0093379
455.866622
463.176547
454.4155385
466.3086356
463.910469
473.4632836
483.1304854
472.0415054
477.6510601
493.8829164
468.6805211
473.9295907
486.7684772
484.9126123
480.3366689
464.5061454
469.4898618
473.981547
478.4289056
470.8027132
454.8942727
452.4910271
448.5514501
447.1374976
448.0102968
446.1912958
402.2450302
412.4518643
411.4373908
409.4497486
413.5786497
425.1518874
427.9789645
426.3725782
428.7917269
434.5493266
435.5089334
432.3333633
438.0889557
455.6590033
458.4873659
454.5718161
450.9534753
449.6587289
455.2882824
454.2980994
456.1230062
457.6613474
460.5204818
469.1918179
468.8628381
483.4304486
477.7651876
489.6267524
471.3535255
473.3927588
478.3716837
471.879638
471.6210168
465.1201657
456.1628978
449.7098931
445.9197659
436.9449336
437.4695285
426.2889125
409.1754097
414.9277563
411.0116912
409.7756302
417.8050129
423.3949878
416.4503753
421.3413095
433.6202461
440.6561906
443.2000761
451.0308156
443.0928614
456.8375983
440.2155351
448.1150489
449.5320676
456.0531095
444.0200511
441.6090979
455.9322788
463.7750855
467.4245457
462.2251645
459.0130052
463.3129972
475.0613322
477.9288489
476.804103
461.3616303
464.3741001
459.7292311
469.3682901
452.7700793
457.8626232
448.6680145
426.2905132
432.1605913
436.8247232
440.5695566
401.1819622
410.4491741
406.6280305
414.9748059
411.0358527
415.6191742
413.5195752
425.7744039
432.7968082
413.3553333
436.276244
451.0572225
449.3197954
433.3265001
447.1739663
444.6017235
448.8557539
446.5576799
448.5266657
454.7265943
455.287972
460.3327036
464.2418948
460.83356
468.4728835
470.0073219
470.0876386
474.5840625
474.3028473
472.8508121
467.2211732
478.3609187
459.07847
464.8538357
463.3768553
457.1495539
427.4129674
444.8174956
438.0566512
444.3553944
403.4683871
396.9324965
408.2569286
410.333773
419.0954712
415.2558111
412.1265855
427.338754
427.5085629
414.0973325
436.1444499
439.2387535
443.3162949
438.3696024
435.3199956
438.4878317
443.7584597
434.1908627
445.2552953
438.2767267
441.2228402
448.1138024
448.5975269
448.41151
463.8083014
445.8263929
454.9393748
464.6385146
458.9716611
462.2883659
444.9962396
446.5062329
441.8221416
449.8388611
456.0760975
454.3266796
433.3155443
434.7782979
437.5123153
438.9774119
390.2576955
404.8351515
404.003489
395.940142
406.5648852
417.4797779
419.382257
411.5576202
417.0638596
422.7429073
430.1696136
434.3087354
430.2029993
437.5882286
442.4157693
429.8178927
432.0440438
426.5910572
437.3490664
445.6835824
457.4624247
449.264956
443.5095171
451.7953299
448.4454103
459.7770791
452.7481839
451.4747906
457.306193
458.939245
456.9989223
449.4171794
444.3134743
459.1860906
459.7159846
441.9789806
428.1570004
436.8418138
434.669288
441.709277
387.6102012
394.2484769
381.3742662
385.2155586
400.1947132
407.1181667
415.5613791
415.4749748
405.3465732
416.0972667
414.5021993
411.6791243
413.0197797
417.2314434
431.0772726
422.1512163
430.6793999
430.6366744
430.5346974
446.9516221
447.6033294
440.897231
438.965035
452.1271742
442.4685093
439.4380328
441.6333655
444.5236739
440.7710665
438.1962084
439.0722233
429.8780772
427.898322
445.847658
447.4699517
450.9918353
440.1697656
431.7348564
427.297618
426.2256218
389.435882
383.5700855
376.7897575
393.4821237
401.9256683
401.6042535
412.0421305
403.3480845
411.0971879
408.6278005
408.3448276
410.6525845
410.9475845
415.1654589
433.01582
428.2762738
438.7178841
430.4922851
432.8383992
443.3665095
425.8506536
432.8899325
433.7181876
442.1341108
433.6856819
428.690001
434.2451842
432.6640107
430.8065262
434.0021504
436.6814686
428.590354
421.0835872
431.2141825
444.5808649
428.9140087
432.3100546
426.1205859
415.3161875
419.0453999
388.6831121
384.3972657
393.2632237
403.0895205
398.7914481
406.3398224
402.0712269
408.9292741
402.7694035
404.5999401
403.1719395
394.0485577
408.7389076
417.8024815
428.1439392
417.789361
427.328502
413.3467212
419.4559225
423.5000491
421.1925225
437.2865418
433.4109056
436.0349655
425.3038933
431.8325664
423.0024939
435.4435299
433.2990169
426.8209782
427.6268017
433.17768
434.1643639
433.5173258
425.0930162
421.509062
420.5865525
419.5311626
409.1332412
411.4080187
386.9989264
385.6823322
391.328499
393.6539578
399.282628
392.9792967
391.3196755
395.4062783
392.7108155
398.2246878
398.5896241
381.7179107
394.7162969
413.400505
418.3445271
415.4417576
418.7978989
416.7036977
413.8594214
423.3398053
425.0595707
430.4802825
429.9756011
415.8917823
432.5395162
432.6293189
437.1846153
429.2020482
421.0692005
412.4321495
411.336476
417.5203163
427.1817449
416.0200384
406.3572604
412.3565019
416.521605
418.492448
423.100251
408.8681645
373.069791
377.0008416
370.115749
378.0658123
390.6321875
387.9304098
386.4512271
393.7237826
388.1580845
395.6772562
391.1133064
392.0774848
402.7502332
407.1686228
403.7752203
412.5599996
418.8926784
413.9499663
420.7060834
414.9455783
407.6277178
418.8904786
412.367956
409.4760593
424.5743473
413.3029069
405.8929968
428.1274781
418.638726
413.9668413
402.6352494
407.4807155
408.7923361
409.0852002
414.4331254
414.2837281
410.2820913
410.5371516
412.7290683
398.2900955
367.3796269
371.8559703
368.854351
378.2132065
381.0267188
384.3031742
382.1094743
379.4459608
390.2870171
388.662931
387.5206295
387.7554152
397.2182621
384.1940542
401.7899649
403.7880161
399.559458
404.4594338
402.5894506
406.4987085
401.0837
399.9030634
406.119689
408.1893402
412.2259763
411.3730462
403.4882241
411.3579568
401.927985
392.7605215
393.5057592
413.2658382
404.5608945
404.7776741
411.9785807
400.2472285
395.8663499
396.8075836
405.0016247
388.5077884
362.3562071
355.066019
361.7726072
365.8381945
360.0498243
359.9117153
362.8540948
361.6540045
372.2760285
376.4089444
368.649691
369.8906607
373.6142706
379.8189583
381.3981901
382.8069863
387.0614269
382.478821
382.0806486
390.8922876
380.5165789
383.2518843
393.5219224
380.3946193
388.5385793
381.9973583
384.8562891
387.51918
388.8340701
379.1253175
388.428529
389.7893645
396.0627518
390.2251501
390.2699901
386.7909186
385.6398099
386.5558172
392.41487
389.9077542
352.0077116
358.4891489
356.9606619
360.1714851
358.8370982
359.7693782
357.3226966
360.034087
356.885969
361.3988471
363.0729956
366.8202215
368.573647
376.2836471
370.4998817
371.8944651
373.064669
371.0875025
371.7411812
363.5077464
364.0335942
362.7184205
372.8000987
371.9508241
378.210366
373.2572184
372.8360458
375.741064
380.5521921
371.7493888
376.223001
362.4000343
369.1878848
362.9845098
365.9336848
377.0187072
371.2434367
379.2965462
380.410264
357.2873953
333.250904
328.9283968
336.9785358
344.0229135
336.4259689
331.9664187
337.6821456
337.5612402
345.8971678
339.8237963
334.2186321
350.9279958
351.2837391
350.1169269
352.133594
351.2121314
349.4605151
355.0239641
348.6005851
343.443692
348.3202656
344.6712887
353.8445442
356.8834157
353.871197
344.5352809
345.4398516
350.7359827
352.9169438
352.2154559
357.4497812
348.6729611
351.1212768
342.4014625
360.6771976
357.1450801
348.0559564
345.6571925
343.1191102
349.7583986
)
;

boundaryField
{
    flow
    {
        type            calculated;
        value           nonuniform List<scalar> 
160
(
293.1426368
301.0990023
299.448001
300.7267047
296.3408366
305.0606273
310.1252783
307.4601233
314.5698969
317.7835875
310.6813499
311.6380297
303.8588748
301.7519997
309.441568
309.8986708
308.6066492
307.0723316
310.4733241
305.7355747
307.6123902
317.4335341
320.547991
315.1095219
311.0869022
311.2679247
310.9397727
305.5282162
305.3521242
303.8400445
306.1628127
311.6691639
314.2311058
304.3849777
298.1425757
300.6974171
305.1936451
297.5018936
302.5882919
295.8683222
489.2872495
492.1598297
493.321273
493.1282872
493.7850718
497.6886442
501.6524477
510.6504757
492.701308
501.0544803
497.6172368
503.6760651
489.5046854
491.8868317