/*--------------------------------*- C++ -*----------------------------------*\
  =========                 |
  \\      /  F ield         | OpenFOAM: The Open Source CFD Toolbox
   \\    /   O peration     | Website:  https://openfoam.org
    \\  /    A nd           | Version:  7
     \\/     M anipulation  |
\*---------------------------------------------------------------------------*/
FoamFile
{
    version     2.0;
    format      ascii;
    class       volScalarField;
    location    "0.025";
    object      iDof;
}
// * * * * * * * * * * * * * * * * * * * * * * * * * * * * * * * * * * * * * //

dimensions      [0 -3 0 0 0 0 0];

internalField   nonuniform List<scalar> 
250
(
3.543e+20
3.708e+20
3.909e+20
3.585e+20
3.456e+20
3.546e+20
3.57e+20
3.528e+20
3.651e+20
3.63e+20
3.465e+20
3.51e+20
3.564e+20
3.717e+20
3.42e+20
3.423e+20
3.669e+20
3.564e+20
3.612e+20
3.63e+20
3.489e+20
3.456e+20
3.777e+20
3.576e+20
3.489e+20
3.687e+20
3.453e+20
3.543e+20
3.627e+20
3.576e+20
3.618e+20
3.573e+20
3.648e+20
3.57e+20
3.558e+20
3.654e+20
3.666e+20
3.579e+20
3.444e+20
3.492e+20
3.426e+20
3.369e+20
3.492e+20
3.57e+20
3.417e+20
3.57e+20
3.666e+20
3.585e+20
3.57e+20
3.405e+20
3.48e+20
3.447e+20
3.561e+20
3.477e+20
3.408e+20
3.492e+20
3.492e+20
3.63e+20
3.498e+20
3.423e+20
3.255e+20
3.387e+20
3.303e+20
3.408e+20
3.459e+20
3.474e+20
3.516e+20
3.492e+20
3.459e+20
3.363e+20
3.447e+20
3.444e+20
3.507e+20
3.372e+20
3.573e+20
3.456e+20
3.273e+20
3.291e+20
3.339e+20
3.375e+20
3.495e+20
3.492e+20
3.258e+20
3.339e+20
3.393e+20
3.342e+20
3.261e+20
3.294e+20
3.285e+20
3.318e+20
3.228e+20
3.345e+20
3.54e+20
3.396e+20
3.297e+20
3.255e+20
3.264e+20
3.303e+20
3.381e+20
3.288e+20
3.489e+20
3.522e+20
3.303e+20
3.258e+20
3.363e+20
3.333e+20
3.408e+20
3.435e+20
3.255e+20
3.348e+20
3.273e+20
3.285e+20
3.273e+20
3.351e+20
3.312e+20
3.336e+20
3.165e+20
3.231e+20
3.306e+20
3.243e+20
3.099e+20
3.297e+20
3.207e+20
3.129e+20
3.099e+20
3.507e+20
3.192e+20
3.333e+20
3.435e+20
3.273e+20
3.096e+20
3.393e+20
3.354e+20
3.132e+20
3.276e+20
3.306e+20
3.237e+20
3.192e+20
3.399e+20
3.186e+20
3.261e+20
3.048e+20
3.027e+20
3.132e+20
3.264e+20
3.186e+20
3.273e+20
3.192e+20
3.144e+20
2.985e+20
3.105e+20
3.186e+20
3.18e+20
3.105e+20
3.219e+20
3.057e+20
3.18e+20
3.24e+20
3.162e+20
3.201e+20
3.261e+20
3.273e+20
3.201e+20
3.258e+20
3.087e+20
3.231e+20
3.219e+20
3.078e+20
3.123e+20
3.051e+20
3.258e+20
3.129e+20
3.087e+20
3.039e+20
3.096e+20
3.3e+20
3.18e+20
3.255e+20
2.928e+20
3.048e+20
3.207e+20
2.949e+20
3.144e+20
3.288e+20
3.096e+20
2.949e+20
3.057e+20
3.078e+20
3.216e+20
2.949e+20
3.192e+20
3.231e+20
3.213e+20
3.078e+20
3.216e+20
3.126e+20
3.048e+20
3.135e+20
3.24e+20
3.234e+20
3.255e+20
3.27e+20
3.165e+20
3.072e+20
3.258e+20
3.126e+20
3.045e+20
3.225e+20
3.189e+20
3.132e+20
3.117e+20
3.021e+20
3.192e+20
3.018e+20
3.099e+20
3.066e+20
2.994e+20
3.177e+20
3.126e+20
3.276e+20
2.964e+20
2.967e+20
3.096e+20
3.333e+20
3.096e+20
3.105e+20
2.922e+20
3.297e+20
3.138e+20
3.096e+20
3.252e+20
3.18e+20
3.195e+20
3.096e+20
2.925e+20
3.171e+20
3.03e+20
3.09e+20
2.958e+20
3.03e+20
3.087e+20
3.06e+20
2.964e+20
3.096e+20
3.126e+20
3.12e+20
3.057e+20
2.991e+20
3.063e+20
3.012e+20
)
;

boundaryField
{
    sides
    {
        type            symmetry;
    }
    empty
    {
        type            empty;
    }
    procBoundary0to1
    {
        type            processor;
        value           uniform 3.357e+20;
    }
}


// ************************************************************************* //
