/*--------------------------------*- C++ -*----------------------------------*\
  =========                 |
  \\      /  F ield         | OpenFOAM: The Open Source CFD Toolbox
   \\    /   O peration     | Website:  https://openfoam.org
    \\  /    A nd           | Version:  7
     \\/     M anipulation  |
\*---------------------------------------------------------------------------*/
FoamFile
{
    version     2.0;
    format      ascii;
    class       volScalarField;
    location    "0.025";
    object      internalE;
}
// * * * * * * * * * * * * * * * * * * * * * * * * * * * * * * * * * * * * * //

dimensions      [1 -1 -2 0 0 0 0];

internalField   nonuniform List<scalar> 
250
(
0.29205
0.305694
0.331651
0.301624
0.291189
0.28044
0.293621
0.279768
0.298165
0.296077
0.281813
0.278294
0.290815
0.306131
0.281963
0.288958
0.288366
0.296775
0.290289
0.279631
0.267388
0.27027
0.301171
0.279833
0.289895
0.299994
0.269545
0.289542
0.308649
0.28861
0.29327
0.297663
0.305552
0.295985
0.289505
0.292785
0.305245
0.296699
0.281615
0.280193
0.281778
0.263658
0.290599
0.284809
0.276978
0.294704
0.291375
0.288096
0.301015
0.27345
0.26542
0.277397
0.287577
0.274604
0.284512
0.28221
0.266858
0.292183
0.28874
0.282791
0.260475
0.278277
0.269037
0.277841
0.290228
0.278698
0.283194
0.270823
0.268372
0.26452
0.27905
0.270461
0.286958
0.272199
0.286188
0.289074
0.258659
0.256
0.273891
0.264475
0.296563
0.265878
0.257571
0.26243
0.262629
0.26692
0.278783
0.257284
0.261168
0.270045
0.265522
0.269295
0.278089
0.280639
0.255644
0.247022
0.254408
0.264676
0.268054
0.272531
0.291696
0.286333
0.277117
0.248212
0.271118
0.266308
0.28056
0.274296
0.261632
0.275606
0.260223
0.274795
0.254192
0.282369
0.271271
0.263543
0.254115
0.264188
0.250677
0.254191
0.239247
0.267174
0.248408
0.253781
0.247013
0.267425
0.242785
0.251446
0.272685
0.254581
0.246056
0.270667
0.276675
0.24045
0.250329
0.267337
0.254842
0.26605
0.26682
0.25639
0.261352
0.250963
0.2333
0.237212
0.263913
0.250054
0.260501
0.234935
0.254277
0.235523
0.242315
0.248114
0.245713
0.246724
0.254561
0.243242
0.239853
0.249629
0.255974
0.252422
0.265804
0.258177
0.238728
0.25481
0.238249
0.261515
0.260098
0.248313
0.243278
0.236515
0.253317
0.226531
0.238185
0.238855
0.255733
0.259483
0.248943
0.265419
0.235034
0.247737
0.261902
0.242864
0.235413
0.252343
0.237428
0.221982
0.245687
0.23339
0.248058
0.234682
0.248158
0.250453
0.269993
0.245159
0.260099
0.255752
0.247287
0.23396
0.253682
0.256024
0.25357
0.262036
0.252403
0.243218
0.260527
0.249215
0.250283
0.252282
0.253994
0.25428
0.246199
0.234614
0.259175
0.23774
0.245118
0.247366
0.241479
0.261797
0.23804
0.240425
0.23149
0.231429
0.252113
0.258775
0.258097
0.255932
0.244365
0.258504
0.251594
0.246526
0.26837
0.255366
0.255614
0.248284
0.227225
0.253953
0.229493
0.229791
0.232579
0.255585
0.248971
0.258219
0.246029
0.255782
0.252473
0.240359
0.227688
0.25255
0.243394
0.246663
)
;

boundaryField
{
    sides
    {
        type            symmetry;
    }
    empty
    {
        type            empty;
    }
    procBoundary0to1
    {
        type            processor;
        value           uniform 0.268403;
    }
}


// ************************************************************************* //
