/*--------------------------------*- C++ -*----------------------------------*\
  =========                 |
  \\      /  F ield         | OpenFOAM: The Open Source CFD Toolbox
   \\    /   O peration     | Website:  https://openfoam.org
    \\  /    A nd           | Version:  7
     \\/     M anipulation  |
\*---------------------------------------------------------------------------*/
FoamFile
{
    version     2.0;
    format      ascii;
    class       volScalarField;
    location    "0.025";
    object      rhoN;
}
// * * * * * * * * * * * * * * * * * * * * * * * * * * * * * * * * * * * * * //

dimensions      [0 -3 0 0 0 0 0];

internalField   nonuniform List<scalar> 
250
(
1.7715e+20
1.854e+20
1.9545e+20
1.7925e+20
1.728e+20
1.773e+20
1.785e+20
1.764e+20
1.8255e+20
1.815e+20
1.7325e+20
1.755e+20
1.782e+20
1.8585e+20
1.71e+20
1.7115e+20
1.8345e+20
1.782e+20
1.806e+20
1.815e+20
1.7445e+20
1.728e+20
1.8885e+20
1.788e+20
1.7445e+20
1.8435e+20
1.7265e+20
1.7715e+20
1.8135e+20
1.788e+20
1.809e+20
1.7865e+20
1.824e+20
1.785e+20
1.779e+20
1.827e+20
1.833e+20
1.7895e+20
1.722e+20
1.746e+20
1.713e+20
1.6845e+20
1.746e+20
1.785e+20
1.7085e+20
1.785e+20
1.833e+20
1.7925e+20
1.785e+20
1.7025e+20
1.74e+20
1.7235e+20
1.7805e+20
1.7385e+20
1.704e+20
1.746e+20
1.746e+20
1.815e+20
1.749e+20
1.7115e+20
1.6275e+20
1.6935e+20
1.6515e+20
1.704e+20
1.7295e+20
1.737e+20
1.758e+20
1.746e+20
1.7295e+20
1.6815e+20
1.7235e+20
1.722e+20
1.7535e+20
1.686e+20
1.7865e+20
1.728e+20
1.6365e+20
1.6455e+20
1.6695e+20
1.6875e+20
1.7475e+20
1.746e+20
1.629e+20
1.6695e+20
1.6965e+20
1.671e+20
1.6305e+20
1.647e+20
1.6425e+20
1.659e+20
1.614e+20
1.6725e+20
1.77e+20
1.698e+20
1.6485e+20
1.6275e+20
1.632e+20
1.6515e+20
1.6905e+20
1.644e+20
1.7445e+20
1.761e+20
1.6515e+20
1.629e+20
1.6815e+20
1.6665e+20
1.704e+20
1.7175e+20
1.6275e+20
1.674e+20
1.6365e+20
1.6425e+20
1.6365e+20
1.6755e+20
1.656e+20
1.668e+20
1.5825e+20
1.6155e+20
1.653e+20
1.6215e+20
1.5495e+20
1.6485e+20
1.6035e+20
1.5645e+20
1.5495e+20
1.7535e+20
1.596e+20
1.6665e+20
1.7175e+20
1.6365e+20
1.548e+20
1.6965e+20
1.677e+20
1.566e+20
1.638e+20
1.653e+20
1.6185e+20
1.596e+20
1.6995e+20
1.593e+20
1.6305e+20
1.524e+20
1.5135e+20
1.566e+20
1.632e+20
1.593e+20
1.6365e+20
1.596e+20
1.572e+20
1.4925e+20
1.5525e+20
1.593e+20
1.59e+20
1.5525e+20
1.6095e+20
1.5285e+20
1.59e+20
1.62e+20
1.581e+20
1.6005e+20
1.6305e+20
1.6365e+20
1.6005e+20
1.629e+20
1.5435e+20
1.6155e+20
1.6095e+20
1.539e+20
1.5615e+20
1.5255e+20
1.629e+20
1.5645e+20
1.5435e+20
1.5195e+20
1.548e+20
1.65e+20
1.59e+20
1.6275e+20
1.464e+20
1.524e+20
1.6035e+20
1.4745e+20
1.572e+20
1.644e+20
1.548e+20
1.4745e+20
1.5285e+20
1.539e+20
1.608e+20
1.4745e+20
1.596e+20
1.6155e+20
1.6065e+20
1.539e+20
1.608e+20
1.563e+20
1.524e+20
1.5675e+20
1.62e+20
1.617e+20
1.6275e+20
1.635e+20
1.5825e+20
1.536e+20
1.629e+20
1.563e+20
1.5225e+20
1.6125e+20
1.5945e+20
1.566e+20
1.5585e+20
1.5105e+20
1.596e+20
1.509e+20
1.5495e+20
1.533e+20
1.497e+20
1.5885e+20
1.563e+20
1.638e+20
1.482e+20
1.4835e+20
1.548e+20
1.6665e+20
1.548e+20
1.5525e+20
1.461e+20
1.6485e+20
1.569e+20
1.548e+20
1.626e+20
1.59e+20
1.5975e+20
1.548e+20
1.4625e+20
1.5855e+20
1.515e+20
1.545e+20
1.479e+20
1.515e+20
1.5435e+20
1.53e+20
1.482e+20
1.548e+20
1.563e+20
1.56e+20
1.5285e+20
1.4955e+20
1.5315e+20
1.506e+20
)
;

boundaryField
{
    sides
    {
        type            symmetry;
    }
    empty
    {
        type            empty;
    }
    procBoundary0to1
    {
        type            processor;
        value           uniform 1.6785e+20;
    }
}


// ************************************************************************* //
