/*--------------------------------*- C++ -*----------------------------------*\
  =========                 |
  \\      /  F ield         | OpenFOAM: The Open Source CFD Toolbox
   \\    /   O peration     | Website:  https://openfoam.org
    \\  /    A nd           | Version:  7
     \\/     M anipulation  |
\*---------------------------------------------------------------------------*/
FoamFile
{
    version     2.0;
    format      ascii;
    class       Cloud<dsmcParcel>;
    location    "0.0036/lagrangian/dsmc";
    object      positions;
}
// * * * * * * * * * * * * * * * * * * * * * * * * * * * * * * * * * * * * * //

17195
(
(0.732659 0.13367 0 0.13367) 99 99 1
(0.118457 0.440772 0.440772 0) 92 91 1
(0.83439 0.0828048 0.0828048 0) 102 101 1
(0.199772 0.400114 0 0.400114) 101 101 1
(0.278999 0.360501 0 0.360501) 99 98 2
(0.520505 0.239747 0.239747 0) 109 108 1
(0.13509 0.432455 0 0.432455) 100 100 1
(0.605629 0.197186 0.197186 0) 101 101 2
(0.239162 0.380419 0 0.380419) 94 93 2
(0.709952 0.145024 0.145024 0) 104 104 2
(0.661321 0.169339 0.169339 0) 96 96 2
(0.0178957 0.491052 0 0.491052) 92 92 1
(0.501843 0.249079 0 0.249079) 109 108 2
(0.947146 0.0264271 0.0264271 0) 95 95 2
(0.145373 0.427313 0 0.427313) 101 101 1
(0.0551585 0.472421 0 0.472421) 101 100 2
(0.176677 0.411662 0.411662 0) 94 94 2
(0.983764 0.00811783 0.00811783 0) 88 87 1
(0.324778 0.337611 0.337611 0) 103 103 2
(0.436796 0.281602 0.281602 0) 92 92 2
(0.855403 0.0722987 0.0722987 0) 99 99 2
(0.0158591 0.49207 0.49207 0) 92 91 1
(0.797695 0.101152 0.101152 0) 101 100 1
(0.845329 0.0773354 0 0.0773354) 100 100 1
(0.498386 0.250807 0.250807 0) 102 102 2
(0.205299 0.397351 0 0.397351) 103 102 2
(0.432431 0.283785 0 0.283785) 101 100 2
(0.887057 0.0564714 0.0564714 0) 93 93 2
(0.343784 0.328108 0.328108 0) 104 104 2
(0.836959 0.0815206 0.0815206 0) 95 94 1
(0.336446 0.331777 0 0.331777) 107 106 2
(0.989469 0.00526546 0.00526546 0) 101 100 1
(0.161766 0.419117 0 0.419117) 104 103 2
(0.155366 0.422317 0 0.422317) 102 102 1
(0.499381 0.25031 0.25031 0) 99 98 1
(0.122681 0.438659 0 0.438659) 102 101 2
(0.245325 0.377337 0 0.377337) 99 99 1
(0.949636 0.025182 0 0.025182) 100 99 2
(0.160016 0.419992 0.419992 0) 108 107 1
(0.456419 0.271791 0 0.271791) 96 96 1
(0.312807 0.343597 0 0.343597) 101 101 1
(0.850456 0.0747718 0.0747718 0) 97 97 2
(0.850485 0.0747575 0.0747575 0) 99 99 2
(0.793055 0.103473 0.103473 0) 99 98 1
(0.274864 0.362568 0 0.362568) 100 99 2
(0.846328 0.0768358 0 0.0768358) 103 103 1
(0.494793 0.252604 0 0.252604) 101 100 2
(0.236666 0.381667 0 0.381667) 99 98 2
(0.45557 0.272215 0 0.272215) 102 101 2
(0.929835 0.0350827 0 0.0350827) 99 99 1
(0.80784 0.09608 0.09608 0) 96 96 2
(0.00167958 0.49916 0 0.49916) 99 98 2
(0.363735 0.318132 0 0.318132) 97 97 1
(0.206537 0.396731 0.396731 0) 97 96 1
(0.530191 0.234904 0 0.234904) 99 99 1
(0.210855 0.394572 0 0.394572) 101 101 1
(0.0111975 0.494401 0 0.494401) 97 96 2
(0.269357 0.365322 0.365322 0) 105 105 2
(0.981178 0.00941107 0.00941107 0) 97 97 2
(0.893413 0.0532935 0.0532935 0) 98 97 1
(0.38088 0.30956 0 0.30956) 99 98 2
(0.286556 0.356722 0 0.356722) 93 93 1
(0.0798732 0.460063 0.460063 0) 96 96 2
(0.926893 0.0365533 0 0.0365533) 103 102 2
(0.168511 0.415744 0.415744 0) 105 105 2
(0.895669 0.0521654 0.0521654 0) 96 96 2
(0.101503 0.449248 0 0.449248) 104 103 2
(0.917136 0.0414321 0 0.0414321) 103 103 1
(0.235644 0.382178 0.382178 0) 95 94 1
(0.341252 0.329374 0.329374 0) 107 106 1
(0.746925 0.126538 0 0.126538) 104 104 1
(0.90823 0.045885 0 0.045885) 93 93 1
(0.223364 0.388318 0 0.388318) 105 105 1
(0.372757 0.313621 0 0.313621) 103 102 2
(0.983268 0.00836616 0 0.00836616) 102 101 2
(0.639581 0.18021 0 0.18021) 104 104 1
(0.372138 0.313931 0 0.313931) 94 93 2
(0.316059 0.34197 0 0.34197) 100 99 2
(0.206052 0.396974 0.396974 0) 106 106 2
(0.156408 0.421796 0 0.421796) 99 99 1
(0.0961084 0.451946 0 0.451946) 99 98 2
(0.576051 0.211975 0 0.211975) 102 101 2
(0.847037 0.0764816 0 0.0764816) 101 101 1
(0.857998 0.0710011 0 0.0710011) 100 99 2
(0.963626 0.0181871 0.0181871 0) 95 95 2
(0.905788 0.0471062 0.0471062 0) 95 94 1
(0.799119 0.10044 0 0.10044) 100 99 2
(0.184329 0.407836 0 0.407836) 99 99 1
(0.54276 0.22862 0 0.22862) 103 103 1
(0.85351 0.073245 0 0.073245) 98 98 1
(0.239585 0.380207 0 0.380207) 98 98 1
(0.772604 0.113698 0.113698 0) 105 105 2
(0.595082 0.202459 0 0.202459) 103 102 2
(0.9161 0.0419499 0.0419499 0) 97 97 2
(0.762291 0.118855 0 0.118855) 98 97 2
(0.524078 0.237961 0 0.237961) 96 95 2
(0.447015 0.276493 0.276493 0) 102 102 2
(0.552587 0.223707 0.223707 0) 98 97 1
(0.548366 0.225817 0 0.225817) 103 102 2
(0.21357 0.393215 0 0.393215) 99 99 1
(0.126378 0.436811 0.436811 0) 101 100 1
(0.823123 0.0884385 0 0.0884385) 106 105 2
(0.0897053 0.455147 0.455147 0) 96 95 1
(0.0539049 0.473048 0 0.473048) 99 99 1
(0.850104 0.074948 0 0.074948) 98 98 1
(0.424736 0.287632 0.287632 0) 100 99 1
(0.519912 0.240044 0 0.240044) 101 100 2
(0.902321 0.0488393 0.0488393 0) 97 97 2
(0.716418 0.141791 0 0.141791) 97 97 1
(0.876829 0.0615854 0.0615854 0) 99 98 1
(0.71849 0.140755 0 0.140755) 102 102 1
(0.412312 0.293844 0 0.293844) 97 96 2
(0.831695 0.0841525 0.0841525 0) 104 103 1
(0.921603 0.0391987 0.0391987 0) 105 105 2
(0.757426 0.121287 0.121287 0) 102 101 1
(0.700928 0.149536 0.149536 0) 101 101 2
(0.22629 0.386855 0 0.386855) 103 103 1
(0.69379 0.153105 0.153105 0) 95 95 2
(0.34841 0.325795 0 0.325795) 96 96 1
(0.334397 0.332801 0.332801 0) 103 102 1
(0.750034 0.124983 0 0.124983) 101 101 1
(0.351446 0.324277 0.324277 0) 101 100 1
(0.341945 0.329027 0 0.329027) 99 99 1
(0.357452 0.321274 0 0.321274) 94 93 2
(0.26973 0.365135 0 0.365135) 98 97 2
(0.700099 0.14995 0.14995 0) 102 102 2
(0.781512 0.109244 0 0.109244) 86 86 1
(0.961069 0.0194653 0.0194653 0) 98 98 2
(0.482114 0.258943 0 0.258943) 90 90 1
(0.823175 0.0884124 0.0884124 0) 99 98 1
(0.589082 0.205459 0 0.205459) 109 108 2
(0.0738438 0.463078 0.463078 0) 95 94 1
(0.0253335 0.487333 0.487333 0) 106 105 1
(0.724598 0.137701 0.137701 0) 108 107 1
(0.0473531 0.476323 0.476323 0) 96 95 1
(0.351122 0.324439 0 0.324439) 101 100 2
(0.825708 0.0871458 0 0.0871458) 104 104 1
(0.510813 0.244594 0 0.244594) 100 100 1
(0.879242 0.0603789 0 0.0603789) 98 98 1
(0.741678 0.129161 0.129161 0) 106 105 1
(0.369817 0.315092 0 0.315092) 97 97 1
(0.374283 0.312859 0.312859 0) 98 97 1
(0.313993 0.343004 0 0.343004) 96 96 1
(0.481407 0.259296 0 0.259296) 98 98 1
(0.326703 0.336649 0 0.336649) 98 98 1
(0.42783 0.286085 0.286085 0) 100 99 1
(0.00525246 0.497374 0.497374 0) 101 101 2
(0.633305 0.183348 0 0.183348) 101 101 1
(0.712315 0.143843 0.143843 0) 98 98 2
(0.669187 0.165406 0.165406 0) 95 95 2
(0.58058 0.20971 0.20971 0) 103 103 2
(0.194652 0.402674 0 0.402674) 95 94 2
(0.866935 0.0665327 0 0.0665327) 101 101 1
(0.3512 0.3244 0.3244 0) 108 108 2
(0.0367802 0.48161 0.48161 0) 92 91 1
(0.216466 0.391767 0.391767 0) 96 96 2
(0.341023 0.329489 0 0.329489) 98 98 1
(0.355244 0.322378 0.322378 0) 102 102 2
(0.274644 0.362678 0.362678 0) 105 104 1
(0.0162587 0.491871 0.491871 0) 106 106 2
(0.00589646 0.497052 0.497052 0) 95 95 2
(0.295088 0.352456 0 0.352456) 106 105 2
(0.471424 0.264288 0.264288 0) 102 102 2
(0.10705 0.446475 0 0.446475) 94 93 2
(0.13637 0.431815 0 0.431815) 102 101 2
(0.215826 0.392087 0.392087 0) 101 101 2
(0.484617 0.257691 0 0.257691) 102 101 2
(0.596971 0.201514 0 0.201514) 99 99 1
(0.87191 0.0640451 0 0.0640451) 102 101 2
(0.214636 0.392682 0.392682 0) 101 101 2
(0.233262 0.383369 0.383369 0) 103 103 2
(0.60207 0.198965 0.198965 0) 100 100 2
(0.705949 0.147026 0.147026 0) 103 102 1
(0.410292 0.294854 0.294854 0) 97 97 2
(0.248639 0.375681 0 0.375681) 100 99 2
(0.493367 0.253317 0 0.253317) 105 105 1
(0.378707 0.310646 0 0.310646) 107 106 2
(0.109376 0.445312 0 0.445312) 104 104 1
(0.91807 0.0409648 0.0409648 0) 106 105 1
(0.965668 0.0171658 0 0.0171658) 98 98 1
(0.952361 0.0238195 0.0238195 0) 106 105 1
(0.40348 0.29826 0 0.29826) 99 98 2
(0.0786753 0.460662 0.460662 0) 101 100 1
(0.468859 0.265571 0.265571 0) 104 104 2
(0.799195 0.100402 0 0.100402) 100 100 1
(0.366676 0.316662 0.316662 0) 107 106 1
(0.30093 0.349535 0.349535 0) 103 103 2
(0.376929 0.311535 0 0.311535) 103 103 1
(0.207414 0.396293 0.396293 0) 102 101 1
(0.383964 0.308018 0.308018 0) 101 100 1
(0.941313 0.0293437 0 0.0293437) 102 102 1
(0.271422 0.364289 0 0.364289) 106 106 1
(0.435513 0.282243 0.282243 0) 96 95 1
(0.323402 0.338299 0 0.338299) 103 103 1
(0.100476 0.449762 0 0.449762) 102 102 1
(0.222018 0.388991 0.388991 0) 95 95 2
(0.939923 0.0300386 0 0.0300386) 94 93 2
(0.733117 0.133442 0 0.133442) 100 99 2
(0.44702 0.27649 0 0.27649) 102 102 1
(0.109576 0.445212 0.445212 0) 103 102 1
(0.612519 0.193741 0.193741 0) 101 100 1
(0.278974 0.360513 0 0.360513) 104 104 1
(0.786426 0.106787 0.106787 0) 103 103 2
(0.360738 0.319631 0 0.319631) 100 100 1
(0.160255 0.419873 0.419873 0) 100 100 2
(0.8121 0.09395 0.09395 0) 105 104 1
(0.301646 0.349177 0.349177 0) 99 99 2
(0.123087 0.438456 0.438456 0) 99 99 2
(0.141761 0.42912 0 0.42912) 101 101 1
(0.684486 0.157757 0 0.157757) 90 90 1
(0.643149 0.178425 0 0.178425) 98 97 2
(0.784308 0.107846 0.107846 0) 96 96 2
(0.806884 0.0965579 0 0.0965579) 101 100 2
(0.196227 0.401887 0.401887 0) 110 109 1
(0.907681 0.0461593 0 0.0461593) 97 96 2
(0.908175 0.0459125 0 0.0459125) 102 101 2
(0.0120291 0.493985 0 0.493985) 100 100 1
(0.385611 0.307194 0 0.307194) 100 100 1
(0.210547 0.394726 0 0.394726) 97 97 1
(0.647331 0.176334 0.176334 0) 107 107 2
(0.718865 0.140567 0.140567 0) 96 96 2
(0.326003 0.336998 0.336998 0) 100 100 2
(0.177349 0.411325 0 0.411325) 92 91 2
(0.0380823 0.480959 0 0.480959) 100 100 1
(0.694987 0.152507 0.152507 0) 98 98 2
(0.428095 0.285953 0 0.285953) 104 103 2
(0.250636 0.374682 0.374682 0) 104 104 2
(0.335478 0.332261 0 0.332261) 107 106 2
(0.067194 0.466403 0.466403 0) 101 101 2
(0.282652 0.358674 0 0.358674) 106 105 2
(0.994973 0.00251327 0.00251327 0) 100 100 2
(0.983426 0.00828685 0 0.00828685) 103 102 2
(0.29763 0.351185 0 0.351185) 105 104 2
(0.0345346 0.482733 0.482733 0) 98 98 2
(0.373788 0.313106 0 0.313106) 100 99 2
(0.539135 0.230432 0.230432 0) 102 101 1
(0.828376 0.085812 0 0.085812) 104 103 2
(0.793035 0.103482 0.103482 0) 96 96 2
(0.994433 0.0027836 0 0.0027836) 101 100 2
(0.85832 0.0708402 0 0.0708402) 98 97 2
(0.00031345 0.499843 0 0.499843) 100 100 1
(0.661847 0.169076 0 0.169076) 98 97 2
(0.202455 0.398772 0.398772 0) 111 111 2
(0.0134504 0.493275 0.493275 0) 107 107 2
(0.92154 0.0392302 0.0392302 0) 102 102 2
(0.0465888 0.476706 0.476706 0) 91 91 2
(0.792475 0.103762 0.103762 0) 100 100 2
(0.249948 0.375026 0 0.375026) 100 99 2
(0.884949 0.0575255 0 0.0575255) 98 97 2
(0.11453 0.442735 0.442735 0) 97 97 2
(0.507417 0.246292 0 0.246292) 107 107 1
(0.418978 0.290511 0 0.290511) 102 102 1
(0.88924 0.0553799 0 0.0553799) 98 97 2
(0.381145 0.309428 0.309428 0) 101 101 2
(0.90183 0.0490848 0.0490848 0) 101 100 1
(0.641998 0.179001 0 0.179001) 102 102 1
(0.243015 0.378492 0 0.378492) 97 96 2
(0.00994458 0.495028 0 0.495028) 97 97 1
(0.163623 0.418189 0.418189 0) 106 105 1
(0.0474564 0.476272 0 0.476272) 99 99 1
(0.989649 0.00517543 0.00517543 0) 99 98 1
(0.422386 0.288807 0.288807 0) 103 102 1
(0.947403 0.0262984 0.0262984 0) 103 103 2
(0.239337 0.380331 0.380331 0) 100 99 1
(0.67115 0.164425 0.164425 0) 99 98 1
(0.860158 0.0699208 0.0699208 0) 95 94 1
(0.104807 0.447597 0.447597 0) 95 94 1
(0.840194 0.0799028 0.0799028 0) 112 112 2
(0.0152872 0.492356 0.492356 0) 107 106 1
(0.0690941 0.465453 0 0.465453) 104 104 1
(0.287564 0.356218 0.356218 0) 99 98 1
(0.811569 0.0942154 0.0942154 0) 105 105 2
(0.419027 0.290487 0 0.290487) 102 101 2
(0.876474 0.0617631 0.0617631 0) 103 103 2
(0.402599 0.298701 0 0.298701) 100 100 1
(0.0505543 0.474723 0.474723 0) 104 104 2
(0.248249 0.375875 0.375875 0) 100 99 1
(0.23894 0.38053 0 0.38053) 98 98 1
(0.17996 0.41002 0 0.41002) 104 104 1
(0.318679 0.340661 0.340661 0) 105 105 2
(0.773797 0.113101 0 0.113101) 99 98 2
(0.925863 0.0370685 0.0370685 0) 101 101 2
(0.846099 0.0769505 0.0769505 0) 99 98 1
(0.146693 0.426653 0 0.426653) 100 99 2
(0.294515 0.352743 0 0.352743) 102 102 1
(0.0197533 0.490123 0 0.490123) 90 90 1
(0.139139 0.430431 0.430431 0) 98 98 2
(0.781167 0.109417 0.109417 0) 106 105 1
(0.14222 0.42889 0.42889 0) 94 93 1
(0.959035 0.0204824 0.0204824 0) 100 99 1
(0.220364 0.389818 0 0.389818) 106 105 2
(0.122074 0.438963 0 0.438963) 103 102 2
(0.352143 0.323928 0.323928 0) 101 101 2
(0.946693 0.0266534 0 0.0266534) 103 102 2
(0.304588 0.347706 0 0.347706) 91 90 2
(0.539014 0.230493 0.230493 0) 103 103 2
(0.26586 0.36707 0.36707 0) 100 100 2
(0.255241 0.372379 0 0.372379) 97 97 1
(0.783742 0.108129 0 0.108129) 99 98 2
(0.156721 0.42164 0 0.42164) 104 103 2
(0.411879 0.29406 0 0.29406) 102 101 2
(0.96679 0.016605 0.016605 0) 103 103 2
(0.994317 0.00284126 0 0.00284126) 103 102 2
(0.673899 0.163051 0 0.163051) 95 95 1
(0.756813 0.121594 0.121594 0) 100 100 2
(0.534111 0.232945 0 0.232945) 100 99 2
(0.248767 0.375617 0.375617 0) 106 106 2
(0.3461 0.32695 0 0.32695) 105 104 2
(0.828179 0.0859106 0.0859106 0) 97 97 2
(0.24913 0.375435 0 0.375435) 105 104 2
(0.37066 0.31467 0 0.31467) 98 97 2
(0.662814 0.168593 0 0.168593) 99 98 2
(0.651563 0.174219 0 0.174219) 109 108 2
(0.848668 0.0756662 0 0.0756662) 96 95 2
(0.288336 0.355832 0.355832 0) 95 95 2
(0.212959 0.393521 0 0.393521) 101 100 2
(0.329562 0.335219 0 0.335219) 105 104 2
(0.308092 0.345954 0 0.345954) 90 89 2
(0.467802 0.266099 0 0.266099) 93 92 2
(0.0258633 0.487068 0 0.487068) 98 97 2
(0.394213 0.302893 0.302893 0) 99 99 2
(0.365911 0.317045 0 0.317045) 104 103 2
(0.869875 0.0650625 0 0.0650625) 106 105 2
(0.857704 0.071148 0 0.071148) 98 97 2
(0.0505998 0.4747 0 0.4747) 111 110 2
(0.990565 0.00471767 0.00471767 0) 104 104 2
(0.419396 0.290302 0.290302 0) 98 98 2
(0.00473016 0.497635 0 0.497635) 101 100 2
(0.186389 0.406806 0.406806 0) 92 92 2
(0.73471 0.132645 0 0.132645) 100 99 2
(0.00367906 0.49816 0 0.49816) 104 103 2
(0.779118 0.110441 0.110441 0) 106 106 2
(0.193861 0.40307 0 0.40307) 103 102 2
(0.00136549 0.499317 0.499317 0) 86 86 2
(0.0100119 0.494994 0.494994 0) 104 104 2
(0.146234 0.426883 0 0.426883) 100 99 2
(0.157039 0.42148 0.42148 0) 101 101 2
(0.515894 0.242053 0.242053 0) 95 95 2
(0.822979 0.0885103 0.0885103 0) 105 105 2
(0.197239 0.401381 0.401381 0) 102 102 2
(0.0912227 0.454389 0 0.454389) 103 102 2
(0.961326 0.0193372 0 0.0193372) 101 100 2
(0.924456 0.0377722 0.0377722 0) 100 100 2
(0.507555 0.246222 0 0.246222) 106 105 2
(0.498128 0.250936 0.250936 0) 105 105 2
(0.821017 0.0894915 0 0.0894915) 104 103 2
(0.935084 0.0324579 0 0.0324579) 100 100 1
(0.492346 0.253827 0 0.253827) 110 109 2
(0.0102514 0.494874 0.494874 0) 98 98 2
(0.00500425 0.497498 0 0.497498) 108 108 1
(0.0443477 0.477826 0 0.477826) 104 104 1
(0.415903 0.292048 0 0.292048) 103 102 2
(0.0693915 0.465304 0 0.465304) 105 104 2
(0.0719607 0.46402 0 0.46402) 102 101 2
(0.869681 0.0651595 0 0.0651595) 99 99 1
(0.212053 0.393974 0.393974 0) 98 98 2
(0.656919 0.17154 0 0.17154) 104 103 2
(0.389852 0.305074 0 0.305074) 98 97 2
(0.641564 0.179218 0 0.179218) 93 92 2
(0.58744 0.20628 0.20628 0) 98 97 1
(0.609167 0.195417 0.195417 0) 104 103 1
(0.617354 0.191323 0 0.191323) 104 104 1
(0.347295 0.326352 0 0.326352) 108 108 1
(0.138788 0.430606 0.430606 0) 103 103 2
(0.701185 0.149408 0.149408 0) 99 98 1
(0.856851 0.0715745 0 0.0715745) 105 104 2
(0.614822 0.192589 0 0.192589) 99 98 2
(0.620187 0.189906 0 0.189906) 100 99 2
(0.272214 0.363893 0.363893 0) 101 101 2
(0.108255 0.445873 0.445873 0) 102 102 2
(0.362873 0.318564 0 0.318564) 96 95 2
(0.313115 0.343442 0.343442 0) 100 99 1
(0.91133 0.0443349 0.0443349 0) 110 109 1
(0.80011 0.0999451 0 0.0999451) 98 97 2
(0.0320976 0.483951 0 0.483951) 110 109 2
(0.51937 0.240315 0 0.240315) 93 93 1
(0.861991 0.0690045 0 0.0690045) 94 93 2
(0.570067 0.214966 0 0.214966) 108 107 2
(0.935525 0.0322373 0.0322373 0) 97 97 2
(0.202264 0.398868 0 0.398868) 100 99 2
(0.54766 0.22617 0.22617 0) 101 101 2
(0.889939 0.0550305 0.0550305 0) 106 105 1
(0.53857 0.230715 0.230715 0) 104 104 2
(0.950316 0.0248419 0 0.0248419) 99 98 2
(0.773763 0.113118 0.113118 0) 109 108 1
(0.00115393 0.499423 0.499423 0) 109 109 2
(0.11105 0.444475 0.444475 0) 99 99 2
(0.0372561 0.481372 0 0.481372) 104 103 2
(0.400431 0.299784 0 0.299784) 95 94 2
(0.410642 0.294679 0.294679 0) 96 96 2
(0.285416 0.357292 0 0.357292) 105 104 2
(0.943063 0.0284685 0.0284685 0) 103 103 2
(0.914829 0.0425856 0.0425856 0) 96 96 2
(0.988951 0.0055245 0 0.0055245) 95 94 2
(0.655626 0.172187 0.172187 0) 102 101 1
(0.615407 0.192296 0 0.192296) 101 101 1
(0.0775564 0.461222 0.461222 0) 100 99 1
(0.011449 0.494275 0.494275 0) 101 101 2
(0.274768 0.362616 0 0.362616) 108 107 2
(0.286077 0.356962 0 0.356962) 108 107 2
(0.455295 0.272353 0.272353 0) 104 103 1
(0.116799 0.441601 0.441601 0) 99 98 1
(0.928914 0.0355432 0 0.0355432) 96 95 2
(0.650768 0.174616 0 0.174616) 100 99 2
(0.950329 0.0248356 0.0248356 0) 97 97 2
(0.336152 0.331924 0 0.331924) 98 98 1
(0.392898 0.303551 0.303551 0) 99 98 1
(0.960114 0.0199429 0.0199429 0) 109 109 2
(0.662961 0.16852 0 0.16852) 95 94 2
(0.437856 0.281072 0 0.281072) 104 104 1
(0.418296 0.290852 0 0.290852) 101 101 1
(0.746764 0.126618 0.126618 0) 103 102 1
(0.671541 0.16423 0 0.16423) 102 102 1
(0.659754 0.170123 0.170123 0) 104 103 1
(0.312227 0.343887 0.343887 0) 102 101 1
(0.260733 0.369634 0.369634 0) 106 106 2
(0.699401 0.150299 0.150299 0) 101 100 1
(0.253476 0.373262 0.373262 0) 96 95 1
(0.589432 0.205284 0 0.205284) 106 106 1
(0.728703 0.135648 0.135648 0) 111 110 1
(0.0455634 0.477218 0.477218 0) 99 99 2
(0.580722 0.209639 0.209639 0) 104 104 2
(0.945702 0.0271491 0 0.0271491) 96 96 1
(0.22197 0.389015 0.389015 0) 97 97 2
(0.199469 0.400265 0 0.400265) 103 102 2
(0.479551 0.260224 0 0.260224) 92 92 1
(0.52225 0.238875 0.238875 0) 103 102 1
(0.105996 0.447002 0.447002 0) 107 106 1
(0.555049 0.222476 0.222476 0) 104 104 2
(0.495059 0.252471 0 0.252471) 105 104 2
(0.555446 0.222277 0 0.222277) 103 102 2
(0.513087 0.243457 0 0.243457) 103 102 2
(0.930337 0.0348315 0 0.0348315) 98 97 2
(0.17283 0.413585 0.413585 0) 101 100 1
(0.916064 0.0419679 0.0419679 0) 106 105 1
(0.943644 0.0281779 0 0.0281779) 107 107 1
(0.44578 0.27711 0 0.27711) 113 112 2
(0.116409 0.441796 0 0.441796) 98 98 1
(0.914274 0.042863 0 0.042863) 104 103 2
(0.562145 0.218928 0.218928 0) 113 113 2
(0.623074 0.188463 0.188463 0) 102 102 2
(0.894115 0.0529425 0.0529425 0) 96 96 2
(0.403198 0.298401 0 0.298401) 108 107 2
(0.450354 0.274823 0.274823 0) 99 99 2
(0.00643103 0.496784 0.496784 0) 99 99 2
(0.463159 0.26842 0.26842 0) 103 103 2
(0.173494 0.413253 0.413253 0) 104 104 2
(0.161498 0.419251 0 0.419251) 105 104 2
(0.169377 0.415312 0.415312 0) 104 104 2
(0.733765 0.133117 0.133117 0) 98 97 1
(0.268168 0.365916 0.365916 0) 108 108 2
(0.620553 0.189723 0.189723 0) 107 107 2
(0.810633 0.0946834 0.0946834 0) 102 102 2
(0.407298 0.296351 0 0.296351) 103 102 2
(0.169844 0.415078 0 0.415078) 106 105 2
(0.336951 0.331524 0.331524 0) 107 106 1
(0.822134 0.0889328 0 0.0889328) 103 102 2
(0.00165374 0.499173 0.499173 0) 102 102 2
(0.507566 0.246217 0.246217 0) 94 94 2
(0.55717 0.221415 0.221415 0) 103 103 2
(0.0157196 0.49214 0 0.49214) 102 101 2
(0.514131 0.242934 0.242934 0) 106 105 1
(0.207227 0.396387 0.396387 0) 109 108 1
(0.0553005 0.47235 0.47235 0) 102 102 2
(0.746645 0.126677 0.126677 0) 102 102 2
(0.59174 0.20413 0 0.20413) 112 112 1
(0.861832 0.0690841 0.0690841 0) 103 103 2
(0.320844 0.339578 0 0.339578) 101 100 2
(0.280365 0.359818 0.359818 0) 100 100 2
(0.264755 0.367623 0.367623 0) 97 96 1
(0.99251 0.00374518 0 0.00374518) 103 103 1
(0.00541878 0.497291 0 0.497291) 110 110 1
(0.444747 0.277626 0 0.277626) 104 104 1
(0.510561 0.24472 0.24472 0) 111 110 1
(0.200274 0.399863 0 0.399863) 100 100 1
(0.975531 0.0122345 0 0.0122345) 100 99 2
(0.932631 0.0336847 0 0.0336847) 96 96 1
(0.958141 0.0209293 0 0.0209293) 107 107 1
(0.711598 0.144201 0 0.144201) 99 99 1
(0.383608 0.308196 0 0.308196) 102 101 2
(0.667959 0.16602 0.16602 0) 97 96 1
(0.70196 0.14902 0.14902 0) 98 98 2
(0.207868 0.396066 0 0.396066) 105 104 2
(0.796092 0.101954 0.101954 0) 108 107 1
(0.519464 0.240268 0 0.240268) 100 99 2
(0.875174 0.0624132 0 0.0624132) 105 105 1
(0.716894 0.141553 0 0.141553) 106 106 1
(0.0638708 0.468065 0.468065 0) 102 101 1
(0.937223 0.0313884 0 0.0313884) 103 103 1
(0.272886 0.363557 0 0.363557) 106 106 1
(0.134965 0.432518 0 0.432518) 98 97 2
(0.59117 0.204415 0.204415 0) 104 103 1
(0.29398 0.35301 0.35301 0) 106 105 1
(0.405993 0.297004 0 0.297004) 98 97 2
(0.4929 0.25355 0.25355 0) 105 105 2
(0.0830098 0.458495 0 0.458495) 101 101 1
(0.373776 0.313112 0 0.313112) 107 107 1
(0.13955 0.430225 0.430225 0) 108 107 1
(0.289503 0.355248 0.355248 0) 99 98 1
(0.671634 0.164183 0 0.164183) 104 104 1
(0.915638 0.0421809 0 0.0421809) 102 101 2
(0.316886 0.341557 0.341557 0) 103 103 2
(0.512946 0.243527 0.243527 0) 103 102 1
(0.989709 0.00514537 0.00514537 0) 106 106 2
(0.370881 0.314559 0 0.314559) 102 101 2
(0.591042 0.204479 0.204479 0) 106 106 2
(0.229707 0.385146 0.385146 0) 105 105 2
(0.493607 0.253196 0.253196 0) 105 104 1
(0.956222 0.0218891 0 0.0218891) 106 105 2
(0.0739422 0.463029 0 0.463029) 100 100 1
(0.587067 0.206467 0.206467 0) 105 104 1
(0.694195 0.152902 0.152902 0) 106 105 1
(0.322518 0.338741 0 0.338741) 102 102 1
(0.374829 0.312585 0 0.312585) 103 102 2
(0.249811 0.375095 0.375095 0) 106 106 2
(0.501434 0.249283 0.249283 0) 102 102 2
(0.378596 0.310702 0.310702 0) 98 98 2
(0.653695 0.173152 0.173152 0) 99 99 2
(0.218166 0.390917 0 0.390917) 107 106 2
(0.978273 0.0108635 0.0108635 0) 106 105 1
(0.0731586 0.463421 0 0.463421) 110 109 2
(0.0837082 0.458146 0 0.458146) 101 101 1
(0.344972 0.327514 0 0.327514) 105 105 1
(0.418246 0.290877 0.290877 0) 105 104 1
(0.963524 0.0182382 0 0.0182382) 104 103 2
(0.417654 0.291173 0.291173 0) 98 98 2
(0.879578 0.0602109 0 0.0602109) 103 102 2
(0.539081 0.23046 0.23046 0) 98 97 1
(0.76668 0.11666 0.11666 0) 102 102 2
(0.729576 0.135212 0.135212 0) 98 98 2
(0.651869 0.174065 0 0.174065) 109 108 2
(0.151172 0.424414 0.424414 0) 103 102 1
(0.127525 0.436237 0.436237 0) 101 101 2
(0.740361 0.12982 0 0.12982) 95 94 2
(0.586227 0.206886 0 0.206886) 100 99 2
(0.162965 0.418517 0 0.418517) 98 97 2
(0.643567 0.178216 0 0.178216) 101 100 2
(0.943391 0.0283043 0 0.0283043) 103 102 2
(0.892311 0.0538447 0 0.0538447) 103 102 2
(0.460115 0.269942 0 0.269942) 100 99 2
(0.778551 0.110724 0.110724 0) 105 105 2
(0.616665 0.191667 0 0.191667) 105 105 1
(0.242585 0.378708 0 0.378708) 97 96 2
(0.658888 0.170556 0 0.170556) 108 108 1
(0.752832 0.123584 0.123584 0) 103 102 1
(0.864083 0.0679586 0.0679586 0) 99 99 2
(0.598196 0.200902 0 0.200902) 98 98 1
(0.280138 0.359931 0 0.359931) 102 102 1
(0.0662169 0.466892 0.466892 0) 105 104 1
(0.327212 0.336394 0 0.336394) 98 98 1
(0.590488 0.204756 0.204756 0) 101 101 2
(0.535446 0.232277 0 0.232277) 103 103 1
(0.839078 0.0804612 0.0804612 0) 105 105 2
(0.0848005 0.4576 0.4576 0) 108 107 1
(0.508205 0.245897 0 0.245897) 101 101 1
(0.270348 0.364826 0 0.364826) 107 107 1
(0.373008 0.313496 0 0.313496) 100 100 1
(0.896127 0.0519364 0 0.0519364) 99 99 1
(0.246742 0.376629 0 0.376629) 113 113 1
(0.343595 0.328202 0 0.328202) 99 99 1
(0.947742 0.0261291 0 0.0261291) 101 101 1
(0.752511 0.123744 0.123744 0) 102 102 2
(0.477972 0.261014 0 0.261014) 102 102 1
(0.0404475 0.479776 0.479776 0) 103 102 1
(0.138808 0.430596 0 0.430596) 107 107 1
(0.146478 0.426761 0 0.426761) 104 104 1
(0.702497 0.148751 0.148751 0) 110 109 1
(0.269394 0.365303 0.365303 0) 102 102 2
(0.723047 0.138477 0 0.138477) 105 105 1
(0.592206 0.203897 0 0.203897) 106 106 1
(0.0103275 0.494836 0.494836 0) 103 103 2
(0.751774 0.124113 0 0.124113) 103 103 1
(0.172583 0.413709 0.413709 0) 107 106 1
(0.326865 0.336568 0 0.336568) 95 95 1
(0.773526 0.113237 0.113237 0) 102 102 2
(0.219664 0.390168 0 0.390168) 100 99 2
(0.950318 0.0248412 0 0.0248412) 107 106 2
(0.380178 0.309911 0.309911 0) 100 100 2
(0.387106 0.306447 0.306447 0) 102 102 2
(0.337153 0.331423 0.331423 0) 97 97 2
(0.340409 0.329796 0 0.329796) 103 102 2
(0.692529 0.153736 0.153736 0) 107 106 1
(0.565321 0.217339 0 0.217339) 95 95 1
(0.342379 0.32881 0 0.32881) 98 98 1
(0.762503 0.118748 0.118748 0) 98 97 1
(0.699123 0.150439 0.150439 0) 101 100 1
(0.996589 0.00170556 0 0.00170556) 101 101 1
(0.674677 0.162661 0 0.162661) 105 104 2
(0.0509277 0.474536 0 0.474536) 105 104 2
(0.194801 0.4026 0.4026 0) 100 100 2
(0.900905 0.0495474 0 0.0495474) 107 106 2
(0.0916965 0.454152 0 0.454152) 106 105 2
(0.600538 0.199731 0 0.199731) 103 103 1
(0.605721 0.197139 0 0.197139) 104 103 2
(0.928581 0.0357096 0.0357096 0) 101 101 2
(0.686858 0.156571 0 0.156571) 98 97 2
(0.149248 0.425376 0.425376 0) 110 109 1
(0.436419 0.28179 0.28179 0) 108 108 2
(0.268444 0.365778 0 0.365778) 106 105 2
(0.236501 0.381749 0.381749 0) 106 106 2
(0.201416 0.399292 0.399292 1.18576e-322) 113 113 2
(0.894717 0.0526414 0.0526414 0) 100 100 2
(0.527146 0.236427 0 0.236427) 107 106 2
(0.880838 0.0595809 0 0.0595809) 103 102 2
(0.234513 0.382743 0.382743 0) 95 95 2
(0.955538 0.0222309 0 0.0222309) 111 111 1
(0.188229 0.405885 0.405885 0) 103 103 2
(0.692915 0.153543 0.153543 0) 100 99 1
(0.903429 0.0482857 0 0.0482857) 102 101 2
(0.316237 0.341882 0.341882 0) 106 106 2
(0.496408 0.251796 0 0.251796) 101 100 2
(0.523844 0.238078 0.238078 0) 104 103 1
(0.977212 0.0113938 0 0.0113938) 105 105 1
(0.88438 0.0578101 0 0.0578101) 103 102 2
(0.260431 0.369784 1.23516e-322 0.369784) 108 107 2
(0.4969 0.25155 0.25155 0) 101 100 1
(0.0850825 0.457459 0.457459 0) 104 104 2
(0.0649416 0.467529 0 0.467529) 101 100 2
(0.833477 0.0832617 0 0.0832617) 100 100 1
(0.0232486 0.488376 0.488376 0) 95 94 1
(0.245244 0.377378 0 0.377378) 103 103 1
(0.177562 0.411219 0 0.411219) 108 107 2
(0.798772 0.100614 0.100614 0) 105 104 1
(0.6921 0.15395 0.15395 0) 100 100 2
(0.601054 0.199473 0 0.199473) 103 103 1
(0.726036 0.136982 0.136982 0) 104 103 1
(0.837766 0.0811168 0 0.0811168) 108 108 1
(0.140183 0.429908 0.429908 0) 105 104 1
(0.415928 0.292036 0.292036 0) 105 104 1
(0.685351 0.157325 0.157325 0) 108 107 1
(0.706908 0.146546 0.146546 0) 104 103 1
(0.518633 0.240684 0.240684 0) 106 105 1
(0.852945 0.0735274 0.0735274 0) 101 100 1
(0.833247 0.0833767 0.0833767 0) 95 94 1
(0.525116 0.237442 0 0.237442) 100 100 1
(0.760299 0.11985 0 0.11985) 106 106 1
(0.0553222 0.472339 0.472339 0) 103 103 2
(0.822511 0.0887444 0.0887444 0) 102 102 2
(0.509823 0.245088 0.245088 0) 101 100 1
(0.792692 0.103654 0 0.103654) 102 102 1
(0.20896 0.39552 0.39552 0) 104 103 1
(0.150127 0.424937 2.96439e-323 0.424937) 101 101 1
(0.471528 0.264236 0.264236 0) 107 106 1
(0.287369 0.356315 0 0.356315) 102 101 2
(0.492607 0.253696 0.253696 0) 105 104 1
(0.847751 0.0761245 0.0761245 0) 107 106 1
(0.540355 0.229822 0 0.229822) 102 102 1
(0.90585 0.0470749 0.0470749 0) 105 104 1
(0.552898 0.223551 0 0.223551) 110 109 2
(0.826322 0.086839 0 0.086839) 108 107 2
(0.541628 0.229186 0.229186 0) 99 99 2
(0.715942 0.142029 0.142029 0) 105 105 2
(0.959025 0.0204874 0 0.0204874) 99 98 2
(0.224853 0.387573 0 0.387573) 100 100 1
(0.640216 0.179892 0 0.179892) 107 107 1
(0.781709 0.109146 0.109146 0) 96 95 1
(0.289481 0.35526 0 0.35526) 103 103 1
(0.186289 0.406855 0.406855 0) 107 106 1
(0.53452 0.23274 0 0.23274) 101 101 1
(0.675029 0.162486 0.162486 0) 108 108 2
(0.385864 0.307068 0.307068 0) 99 99 2
(0.269117 0.365441 0 0.365441) 103 103 1
(0.393166 0.303417 0.303417 0) 107 107 2
(0.149497 0.425251 0 0.425251) 105 104 2
(0.240551 0.379725 0.379725 0) 109 109 2
(0.679104 0.160448 0.160448 0) 109 109 2
(0.953243 0.0233786 0.0233786 0) 102 102 2
(0.167879 0.41606 0.41606 0) 102 102 2
(0.621391 0.189305 0.189305 0) 109 109 2
(0.166881 0.416559 0 0.416559) 103 103 1
(0.0234255 0.488287 0.488287 0) 101 101 2
(0.635504 0.182248 0 0.182248) 104 103 2
(0.542254 0.228873 0.228873 0) 101 101 2
(0.604719 0.197641 0 0.197641) 108 107 2
(0.978113 0.0109435 0 0.0109435) 97 96 2
(0.751604 0.124198 0.124198 0) 102 102 2
(0.983524 0.00823785 0 0.00823785) 103 102 2
(0.451113 0.274444 0 0.274444) 97 96 2
(0.943033 0.0284837 1.18576e-322 0.0284837) 105 104 2
(0.769711 0.115145 0.115145 0) 104 104 2
(0.824527 0.0877365 0.0877365 0) 106 106 2
(0.170759 0.414621 0 0.414621) 105 105 1
(0.111546 0.444227 0 0.444227) 100 99 2
(0.209804 0.395098 0.395098 0) 104 103 1
(0.522188 0.238906 0.238906 0) 99 99 2
(0.680186 0.159907 0 0.159907) 101 100 2
(0.178114 0.410943 0.410943 0) 106 106 2
(0.445686 0.277157 0 0.277157) 108 107 2
(0.905343 0.0473287 0 0.0473287) 95 94 2
(0.778836 0.110582 0.110582 0) 101 100 1
(0.562182 0.218909 0 0.218909) 105 104 2
(0.869097 0.0654515 0.0654515 0) 100 100 2
(0.846436 0.076782 0.076782 0) 113 113 2
(0.756586 0.121707 0 0.121707) 103 103 1
(0.720742 0.139629 0 0.139629) 102 101 2
(0.488249 0.255876 0 0.255876) 107 107 1
(0.270642 0.364679 0.364679 0) 101 100 1
(0.935245 0.0323773 0.0323773 0) 104 104 2
(0.707556 0.146222 0 0.146222) 108 107 2
(0.959117 0.0204413 0.0204413 0) 109 109 2
(0.440883 0.279559 0 0.279559) 107 106 2
(0.0783408 0.46083 0 0.46083) 106 105 2
(0.576001 0.212 0 0.212) 105 105 1
(0.995496 0.0022521 0 0.0022521) 98 98 1
(0.282303 0.358849 0 0.358849) 104 103 2
(0.107464 0.446268 0.446268 0) 97 96 1
(0.188304 0.405848 0.405848 0) 102 101 1
(0.137769 0.431116 0.431116 0) 109 108 1
(0.0144161 0.492792 0.492792 0) 100 99 1
(0.872112 0.0639441 0 0.0639441) 105 105 1
(0.866784 0.0666081 0.0666081 0) 104 103 1
(0.64254 0.17873 0 0.17873) 102 102 1
(0.395017 0.302492 0 0.302492) 97 97 1
(0.211979 0.394011 0.394011 0) 108 107 1
(0.453857 0.273071 0 0.273071) 107 107 1
(0.957835 0.0210823 0.0210823 0) 107 106 1
(0.206805 0.396597 0.396597 0) 102 101 1
(0.969571 0.0152145 0.0152145 0) 100 99 1
(0.663741 0.16813 0 0.16813) 107 107 1
(0.336189 0.331906 0 0.331906) 109 108 2
(0.92721 0.0363952 0 0.0363952) 104 103 2
(0.698356 0.150822 0.150822 0) 107 107 2