/*--------------------------------*- C++ -*----------------------------------*\
  =========                 |
  \\      /  F ield         | OpenFOAM: The Open Source CFD Toolbox
   \\    /   O peration     | Website:  https://openfoam.org
    \\  /    A nd           | Version:  7
     \\/     M anipulation  |
\*---------------------------------------------------------------------------*/
FoamFile
{
    version     2.0;
    format      ascii;
    class       volScalarField;
    location    "0.001";
    object      dsmcSigmaTcRMax;
}
// * * * * * * * * * * * * * * * * * * * * * * * * * * * * * * * * * * * * * //

dimensions      [0 3 -1 0 0 0 0];

internalField   nonuniform List<scalar> 
2400
(
5.082118907e-16
5.597607896e-16
6.601222141e-16
5.262474951e-16
5.587080392e-16
5.213795515e-16
6.623885915e-16
7.053870988e-16
5.720063718e-16
7.514708388e-16
6.178186141e-16
6.000052255e-16
7.623160186e-16
6.172568954e-16
7.460368481e-16
6.206315067e-16
6.392324822e-16
7.374230692e-16
6.703834324e-16
7.163252914e-16
5.575201068e-16
5.008501699e-16
6.164691203e-16
4.845480777e-16
5.397817091e-16
5.153229991e-16
5.498786146e-16
5.453196658e-16
5.362733651e-16
5.192740625e-16
5.701885862e-16
6.216395426e-16
6.466513432e-16
5.907660661e-16
5.945292235e-16
5.869709679e-16
6.256235383e-16
5.485213161e-16
6.905962079e-16
6.518082896e-16
5.552207513e-16
5.070531682e-16
5.160882153e-16
5.404381496e-16
4.865844872e-16
5.591830018e-16
5.196974282e-16
5.239107659e-16
5.628107397e-16
6.047277918e-16
5.422435021e-16
5.188600322e-16
5.263223731e-16
5.25878751e-16
5.388864387e-16
6.78101621e-16
5.663739871e-16
5.364393934e-16
6.105034113e-16
7.446691556e-16
5.501312796e-16
6.003061291e-16
5.44202302e-16
5.171782663e-16
5.042125113e-16
5.44538456e-16
5.227917404e-16
5.230918466e-16
5.196838749e-16
5.315390748e-16
5.125973113e-16
5.010273017e-16
6.392621377e-16
5.545115252e-16
5.170819807e-16
5.664686774e-16
6.148102035e-16
6.233652721e-16
8.315381562e-16
6.090672533e-16
5.772087893e-16
5.956931295e-16
5.521518517e-16
5.911535986e-16
5.38442938e-16
5.392443561e-16
5.668560761e-16
5.013946188e-16
5.359742038e-16
5.464547852e-16
5.482716245e-16
6.368625923e-16
5.21682572e-16
6.648379739e-16
5.407079994e-16
4.990672809e-16
6.387831248e-16
5.989977926e-16
6.086691478e-16
7.787975053e-16
5.725421548e-16
5.397375175e-16
5.093516132e-16
5.519089874e-16
5.582136732e-16
5.084305395e-16
4.969909774e-16
5.215476291e-16
4.882250338e-16
5.109194588e-16
5.707357857e-16
5.503842902e-16
6.654219189e-16
5.748830458e-16
5.59641938e-16
4.851502718e-16
5.627653267e-16
6.025498075e-16
5.076686296e-16
5.780050356e-16
5.224350827e-16
4.976024337e-16
5.141685539e-16
5.311883588e-16
6.134889321e-16
4.818401501e-16
5.18545552e-16
5.118911038e-16
5.264826203e-16
5.917659375e-16
5.482423174e-16
5.819731172e-16
5.519039923e-16
5.569827804e-16
6.138200224e-16
5.759336666e-16
5.782113293e-16
5.509295777e-16
6.033788333e-16
5.79142612e-16
5.223301798e-16
5.445758154e-16
5.206784334e-16
4.965566816e-16
4.940959144e-16
4.782457741e-16
5.880482639e-16
5.424088702e-16
5.56838283e-16
5.026380985e-16
5.621467462e-16
5.17393996e-16
5.590443148e-16
5.883700908e-16
5.353380846e-16
4.869063517e-16
5.792615519e-16
4.758693558e-16
4.949576181e-16
7.16478488e-16
5.539572423e-16
4.974217683e-16
6.099765745e-16
5.708288597e-16
5.018897946e-16
5.583448789e-16
4.712723168e-16
6.776108752e-16
5.241506755e-16
6.570599782e-16
4.993375855e-16
5.468962903e-16
5.304214584e-16
5.909594172e-16
5.171514678e-16
4.947776682e-16
4.89471754e-16
5.65185032e-16
6.930231041e-16
5.577620311e-16
6.007238665e-16
5.492371211e-16
5.022074863e-16
5.321698807e-16
5.023573887e-16
5.403981383e-16
4.748933333e-16
5.268024783e-16
5.262439748e-16
5.985247534e-16
5.147345238e-16
5.302872177e-16
5.206055827e-16
5.63282659e-16
5.827779559e-16
5.284591149e-16
5.754908818e-16
4.544088982e-16
5.515212032e-16
5.942143322e-16
5.970781653e-16
5.000513509e-16
5.32791688e-16
5.143003687e-16
5.097216101e-16
5.709988606e-16
5.334324814e-16
5.405576587e-16
5.436220114e-16
5.711100772e-16
5.79179365e-16
5.327344039e-16
4.943612086e-16
5.439901886e-16
5.564547172e-16
5.853207717e-16
5.143767726e-16
5.276733169e-16
6.273226896e-16
5.282616524e-16
6.551255091e-16
5.358359593e-16
5.323670507e-16
5.876180849e-16
5.782131325e-16
5.197019686e-16
5.272261697e-16
5.77130132e-16
5.667330728e-16
5.024959264e-16
5.734031346e-16
5.591694011e-16
5.502518818e-16
6.155842596e-16
4.840412644e-16
5.333705203e-16
6.275011371e-16
5.717595663e-16
5.21639317e-16
5.043386028e-16
5.766647171e-16
5.581488786e-16
6.558000928e-16
5.475714053e-16
4.624252198e-16
5.768675444e-16
5.892560966e-16
5.664807215e-16
5.8339655e-16
5.107071989e-16
6.466368402e-16
5.512348633e-16
5.752844245e-16
5.87954798e-16
5.298390669e-16
5.574716973e-16
5.773671721e-16
5.245622524e-16
5.520621194e-16
5.640077578e-16
5.157958034e-16
5.573735463e-16
5.377180462e-16
5.356542508e-16
5.605146234e-16
4.970626062e-16
5.41112781e-16
5.45179778e-16
6.219771639e-16
5.415501286e-16
5.927098439e-16
5.950498904e-16
6.818038615e-16
5.273816879e-16
6.177785608e-16
5.644631894e-16
5.831795627e-16
5.821734056e-16
5.48376521e-16
6.144231517e-16
5.0501794e-16
5.792967928e-16
5.24310792e-16
5.184964021e-16
5.256539143e-16
5.711152993e-16
4.829298138e-16
5.598903004e-16
5.379459633e-16
5.734286842e-16
5.755391287e-16
5.201566438e-16
5.176094181e-16
5.576992863e-16
6.050475408e-16
5.620632602e-16
5.420176464e-16
5.786955001e-16
6.168990306e-16
5.978419924e-16
5.523616633e-16
5.846811661e-16
5.60561215e-16
5.066696464e-16
6.308445475e-16
5.392118868e-16
6.044903414e-16
5.911647429e-16
5.0563989e-16
6.437195535e-16
5.186472158e-16
5.721694423e-16
5.575490664e-16
5.0343738e-16
5.426648355e-16
5.392921816e-16
5.118655598e-16
5.554677332e-16
5.698624451e-16
5.17583026e-16
5.351314378e-16
5.774005461e-16
5.037225202e-16
4.893548585e-16
5.023402928e-16
5.289785374e-16
6.11714161e-16
5.306406592e-16
4.882109893e-16
5.222099722e-16
5.629494702e-16
5.393140733e-16
5.261700921e-16
6.049466056e-16
5.170772453e-16
5.927306037e-16
5.900448132e-16
5.87790186e-16
5.589907312e-16
6.155989807e-16
5.124743358e-16
6.014002928e-16
5.660195081e-16
4.829352941e-16
5.317406923e-16
5.625608337e-16
5.68013338e-16
5.652798726e-16
5.205072688e-16
5.736394268e-16
5.014535005e-16
5.646844074e-16
5.716618059e-16
5.726047699e-16
5.731774081e-16
5.669997703e-16
5.221094585e-16
5.320592615e-16
6.237784564e-16
5.75553796e-16
5.238747677e-16
5.512202694e-16
5.025452775e-16
5.66284832e-16
5.877133285e-16
5.990721052e-16
5.250754038e-16
5.670894455e-16
5.388699531e-16
5.437423519e-16
5.717047594e-16
5.756148727e-16
5.570369768e-16
6.391061744e-16
5.703077311e-16
5.668377269e-16
5.040741147e-16
5.267624178e-16
5.639813247e-16
5.34805982e-16
5.377648956e-16
5.463447372e-16
5.591371159e-16
5.254989241e-16
5.770318097e-16
5.476227348e-16
5.616632204e-16
6.05966255e-16
5.287829873e-16
4.641939922e-16
5.452867426e-16
5.487263205e-16
5.240947318e-16
5.625061688e-16
6.212671508e-16
5.519642395e-16
5.912378085e-16
5.681935391e-16
5.490960751e-16
5.724117237e-16
5.391906673e-16
5.432309452e-16
5.385064406e-16
4.909562513e-16
6.187399548e-16
5.291873932e-16
5.725268027e-16
5.111450307e-16
5.468447795e-16
5.415260101e-16
5.427638749e-16
5.451144461e-16
5.52663039e-16
6.220585219e-16
5.642092811e-16
5.447472829e-16
5.760471365e-16
5.289488049e-16
5.403666435e-16
6.432238708e-16
5.098626142e-16
5.396106139e-16
5.250649623e-16
5.32097401e-16
6.545732699e-16
5.570346477e-16
5.27978945e-16
5.822899291e-16
5.5621897e-16
5.306453228e-16
5.514838664e-16
5.588862715e-16
5.836794529e-16
5.674581527e-16
5.727407571e-16
5.72601171e-16
5.856255882e-16
5.719237024e-16
5.282846525e-16
5.720225465e-16
5.127407524e-16
5.824880368e-16
4.935837446e-16
4.983885816e-16
5.191642847e-16
4.716942971e-16
5.566760104e-16
6.852089164e-16
5.351075974e-16
5.567386278e-16
5.481957578e-16
5.563549306e-16
5.240042004e-16
6.543175546e-16
5.296775199e-16
5.315462287e-16
5.96001374e-16
5.715484555e-16
5.478982093e-16
5.649673471e-16
5.175083172e-16
5.018713931e-16
5.28986798e-16
5.009708819e-16
5.274217714e-16
5.399904679e-16
5.437560937e-16
5.085585769e-16
5.238732636e-16
5.631534011e-16
5.5226057e-16
5.585983712e-16
5.052367638e-16
5.561526419e-16
5.066404436e-16
5.49725607e-16
6.093571743e-16
6.133316112e-16
5.309818706e-16
6.799591974e-16
4.788805372e-16
5.618669594e-16
5.620664182e-16
4.988995438e-16
5.891690239e-16
5.089515809e-16
5.280126438e-16
5.055359195e-16
5.799033049e-16
5.963201929e-16
5.333720286e-16
5.592300048e-16
6.015469011e-16
4.891462947e-16
5.752605621e-16
5.369734607e-16
5.666763276e-16
5.711501505e-16
4.971115912e-16
5.061180483e-16
5.717606783e-16
4.760606304e-16
5.215290452e-16
5.131337686e-16
5.303713819e-16
5.281923185e-16
5.714355886e-16
5.589257217e-16
5.143402643e-16
5.345497845e-16
5.407037912e-16
6.132160849e-16
5.230782044e-16
5.706706445e-16
5.185543053e-16
5.566957569e-16
5.925561594e-16
5.838673662e-16
5.536020762e-16
5.649559781e-16
5.412186092e-16
5.360784516e-16
5.138410999e-16
6.103374435e-16
5.521687374e-16
5.500577002e-16
5.455470157e-16
5.112160548e-16
5.321281032e-16
5.745936537e-16
5.793802849e-16
5.390808134e-16
6.18913634e-16
5.583312718e-16
5.854408787e-16
4.855294455e-16
5.424532474e-16
6.069608909e-16
5.398922926e-16
5.391663182e-16
5.153433934e-16
5.738094113e-16
5.041019284e-16
5.794850012e-16
5.326866655e-16
5.193181559e-16
5.794812742e-16
5.088586825e-16
5.105517505e-16
5.545020246e-16
5.569121829e-16
6.121697294e-16
5.507545884e-16
6.232616872e-16
5.735183107e-16
5.049392431e-16
5.32405727e-16
5.654069061e-16
6.3979535e-16
6.579070927e-16
5.383619501e-16
5.001420733e-16
5.06568858e-16
5.763453928e-16
5.234790141e-16
5.797495756e-16
5.380154308e-16
4.950393121e-16
6.073086685e-16
5.592171316e-16
5.403343067e-16
5.426561813e-16
6.074074122e-16
5.726572722e-16
5.636533087e-16
5.559546354e-16
5.5326733e-16
5.320326373e-16
5.722560888e-16
5.949269554e-16
4.972688415e-16
5.452206311e-16
5.544295279e-16
5.055348535e-16
5.08578814e-16
5.315617002e-16
5.598104946e-16
5.283797886e-16
5.45424968e-16
5.491057758e-16
5.883123616e-16
5.573462352e-16
4.987149169e-16
6.292095731e-16
5.357745183e-16
6.320507722e-16
4.97643446e-16
5.516729984e-16
5.645690328e-16
5.749231113e-16
5.273436127e-16
5.705829897e-16
5.187209439e-16
4.778334407e-16
5.638128972e-16
6.084490172e-16
4.905804437e-16
5.350533283e-16
5.029426425e-16
5.217899664e-16
5.528539437e-16
6.085495682e-16
5.850296872e-16
5.833927298e-16
6.116181811e-16
5.833323761e-16
5.367636861e-16
5.720034334e-16
5.635408668e-16
5.084165312e-16
5.440286795e-16
4.997982332e-16
5.216679409e-16
5.998473367e-16
5.469714918e-16
5.562149237e-16
5.396500143e-16
5.950626531e-16
5.172377209e-16
5.868556726e-16
5.024769131e-16
5.684982471e-16
5.74577196e-16
5.938353375e-16
5.918451883e-16
5.745743521e-16
4.789855342e-16
5.403950849e-16
6.002323146e-16
6.17790272e-16
6.363987511e-16
5.346781702e-16
5.033008747e-16
5.24242942e-16
6.130309262e-16
5.649791241e-16
4.91454491e-16
5.294143068e-16
5.90689795e-16
5.635063747e-16
5.373867331e-16
5.995003467e-16
5.966623047e-16
6.771652078e-16
5.780115062e-16
5.333151599e-16
5.087170778e-16
5.427157401e-16
5.408455187e-16
5.236042356e-16
5.648629918e-16
5.675805391e-16
5.424294527e-16
5.067940605e-16
5.412187045e-16
5.371343897e-16
5.43057193e-16
5.647593826e-16
5.441158591e-16
5.440326197e-16
5.5198471e-16
4.974448116e-16
5.351606931e-16
5.377270405e-16
5.641276333e-16
5.750352128e-16
6.214669562e-16
5.608958791e-16
5.865269312e-16
5.409781905e-16
5.342362759e-16
5.430480345e-16
5.71757814e-16
5.332574834e-16
5.367563639e-16
4.996374244e-16
5.1375867e-16
6.027147749e-16
5.619453085e-16
5.878885412e-16
5.557014e-16
5.782113508e-16
5.443047514e-16
5.24636477e-16
5.898441866e-16
5.122696066e-16
5.126086062e-16
6.021550357e-16
5.936338288e-16
4.985949332e-16
6.07917454e-16
5.022471755e-16
5.545038846e-16
5.18060837e-16
5.787510245e-16
6.069581963e-16
6.033546205e-16
5.646930038e-16
5.499901392e-16
5.584890645e-16
5.625018653e-16
5.213984622e-16
5.333642506e-16
5.234035182e-16
5.046948416e-16
5.472091505e-16
5.950188832e-16
5.983560315e-16
5.220587863e-16
5.215615534e-16
5.367618379e-16
5.133910274e-16
5.603130915e-16
5.056375497e-16
4.985388692e-16
6.200688667e-16
5.687344088e-16
5.344321848e-16
5.85829605e-16
5.70314588e-16
5.730484599e-16
5.909266748e-16
5.550740036e-16
5.4971497e-16
5.470805317e-16
6.075451044e-16
5.46439613e-16
6.945480233e-16
5.51913391e-16
5.123103401e-16
5.572084755e-16
5.121310222e-16
5.604029742e-16
5.706555393e-16
5.296560446e-16
5.909991703e-16
5.204732837e-16
5.812744169e-16
5.612829552e-16
5.391027307e-16
6.15006981e-16
7.379224157e-16
6.087202519e-16
6.413983465e-16
5.615093447e-16
6.823249826e-16
5.250826644e-16
5.29720786e-16
6.108452765e-16
6.068955299e-16
5.499912088e-16
5.361015618e-16
6.027098278e-16
5.61988221e-16
5.297092345e-16
5.754732873e-16
6.380302507e-16
5.60506279e-16
5.594707944e-16
6.352448139e-16
6.700887164e-16
6.932409583e-16
6.788330792e-16
5.874375387e-16
6.838630155e-16
6.028877364e-16
6.84191269e-16
6.24567722e-16
6.25481647e-16
6.014225542e-16
5.529197437e-16
5.493529662e-16
5.740425423e-16
6.738809893e-16
6.16592582e-16
5.398266535e-16
6.666887802e-16
6.468014665e-16
6.613034332e-16
7.061908935e-16
6.850023143e-16
6.79927522e-16
6.835144989e-16
7.899107091e-16
6.880342745e-16
6.651740926e-16
6.42248658e-16
6.57866739e-16
6.739954547e-16
6.359502931e-16
7.222927994e-16
8.445895963e-16
7.532392756e-16
8.083284946e-16
8.018689122e-16
8.131048853e-16
7.651834848e-16
7.580078981e-16
7.671402661e-16
8.07758569e-16
8.10224316e-16
8.377965003e-16
7.901243389e-16
8.194706469e-16
8.471659165e-16
8.596242447e-16
7.876367534e-16
8.487319469e-16
7.73432851e-16
7.932841247e-16
7.977749904e-16
7.785152181e-16
7.905372387e-16
7.559515157e-16
7.523244256e-16
7.882022936e-16
8.081121842e-16
7.394685913e-16
8.56732801e-16
8.092146518e-16
7.85600665e-16
8.102533611e-16
7.098818981e-16
8.169294981e-16
7.573042422e-16
7.949493354e-16
7.987389428e-16
7.66712361e-16
7.499838564e-16
7.406401854e-16
7.2562476e-16
7.369576669e-16
7.997962673e-16
7.019602936e-16
7.445560165e-16
7.674585479e-16
7.787976193e-16
7.984194853e-16
8.200646584e-16
8.104916577e-16
7.88481101e-16
7.569431775e-16
7.454658089e-16
7.690991955e-16
7.260693982e-16
7.086306125e-16
8.036027998e-16
7.628577066e-16
7.909611695e-16
6.76015879e-16
7.393501588e-16
7.84629915e-16
7.763483601e-16
7.908943839e-16
7.671634067e-16
7.799581262e-16
8.783146393e-16
7.630329198e-16
7.28532654e-16
8.186503111e-16
7.399345476e-16
7.25066012e-16
7.465636079e-16
7.966611163e-16
7.679056398e-16
8.427023679e-16
8.279239058e-16
8.255379587e-16
7.252186483e-16
7.83889879e-16
7.347348464e-16
7.179610809e-16
6.700679916e-16
8.155660629e-16
7.521289833e-16
7.038545893e-16
7.748868844e-16
7.440072805e-16
7.669324047e-16
7.532009478e-16
6.978341046e-16
6.548677423e-16
7.030759773e-16
7.386909661e-16
7.365580109e-16
7.390252474e-16
8.292171457e-16
7.79447539e-16
7.893929866e-16
7.712553692e-16
7.399549612e-16
7.794999803e-16
7.173968399e-16
7.569327295e-16
7.526684401e-16
7.505944707e-16
8.256827553e-16
7.384840119e-16
7.963100767e-16
7.548240578e-16
7.412098941e-16
7.410334109e-16
7.357178502e-16
7.690589087e-16
8.063729618e-16
7.997493091e-16
8.093368227e-16
7.880857686e-16
7.685379369e-16
7.296506209e-16
7.232486846e-16
7.175430929e-16
7.439098059e-16
7.362191489e-16
6.246107486e-16
8.315054913e-16
6.91703256e-16
6.72560767e-16
7.333287214e-16
7.558093144e-16
7.000370419e-16
7.077565598e-16
7.256863056e-16
7.00818084e-16
7.663993617e-16
7.56271608e-16
7.1803588e-16
6.642202292e-16
6.94314609e-16
7.035474269e-16
7.477527748e-16
7.13560556e-16
8.143573282e-16
7.776384927e-16
7.655948233e-16
7.057251124e-16
7.61663318e-16
8.904675896e-16
7.854921532e-16
7.372694812e-16
7.335251472e-16
7.399257364e-16
7.128128974e-16
7.391151827e-16
7.246582115e-16
7.594785812e-16
8.249874256e-16
8.016087471e-16
7.603801187e-16
7.59311322e-16
6.644732763e-16
5.751926095e-16
7.818101833e-16
8.10127818e-16
5.44117168e-16
6.947651161e-16
6.796934369e-16
7.468385479e-16
7.758697282e-16
7.521128814e-16
6.695574525e-16
7.115519098e-16
7.342742911e-16
7.119425834e-16
7.168112008e-16
6.692375149e-16
7.119934263e-16
6.770745979e-16
7.395866524e-16
7.241580229e-16
7.761675371e-16
7.238499036e-16
6.594953645e-16
8.61445052e-16
8.209755458e-16
7.385602668e-16
6.848811629e-16
7.206908159e-16
7.218412232e-16
6.715441934e-16
7.027086131e-16
7.184044655e-16
7.419618136e-16
7.689274407e-16
7.141986561e-16
7.64178865e-16
7.655983701e-16
8.385655981e-16
8.167132659e-16
7.801836727e-16
4.980626575e-16
5.716976618e-16
6.958720409e-16
6.638233332e-16
6.268823686e-16
6.058778148e-16
6.586415734e-16
6.886176797e-16
7.69149608e-16
6.351783587e-16
7.966964978e-16
6.941843217e-16
7.299189316e-16
6.905172784e-16
6.844520458e-16
7.776837009e-16
6.207059152e-16
6.986669264e-16
7.142674904e-16
7.859120867e-16
7.303679319e-16
7.708621917e-16
7.579136161e-16
7.447550301e-16
7.403193705e-16
7.099098512e-16
7.553452421e-16
7.409894443e-16
7.120650747e-16
6.466064348e-16
6.809564516e-16
7.097869122e-16
8.184601002e-16
6.643313546e-16
7.231302785e-16
7.417716382e-16
7.220512112e-16
7.265046966e-16
7.602649764e-16
7.578965229e-16
5.589297232e-16
5.106070825e-16
7.146372126e-16
6.998833838e-16
6.580112616e-16
6.448377672e-16
6.233120928e-16
7.949666448e-16
7.017343575e-16
5.84044151e-16
6.722368914e-16
7.754814997e-16
6.548386029e-16
7.19627307e-16
7.561010967e-16
7.777476784e-16
7.379927993e-16
8.016029834e-16
7.32481454e-16
7.470012282e-16
7.825977717e-16
6.332622541e-16
7.630539643e-16
7.290274035e-16
7.369666511e-16
7.151841732e-16
7.106921828e-16
7.141951923e-16
7.458735149e-16
8.206366819e-16
7.221605128e-16
7.157937931e-16
7.929286228e-16
7.529280683e-16
8.634759989e-16
6.951406774e-16
7.456362067e-16
7.744871204e-16
7.363354648e-16
8.328645039e-16
6.689545771e-16
5.469361587e-16
7.234560474e-16
5.740714534e-16
5.291062477e-16
5.932032058e-16
7.047360523e-16
5.863591843e-16
5.910927022e-16
7.158155313e-16
6.692811573e-16
6.539296475e-16
7.044024806e-16
7.076503807e-16
7.891906884e-16
6.822239098e-16
7.485045427e-16
7.895091046e-16
7.906124525e-16
7.674994916e-16
6.931784156e-16
7.055736427e-16
6.668432531e-16
7.278596424e-16
7.760059996e-16
6.831950305e-16
7.318453829e-16
7.963249756e-16
6.948180627e-16
7.954114443e-16
7.378900377e-16
7.955643473e-16
7.672523248e-16
7.591706526e-16
6.895713355e-16
7.442643692e-16
7.371668327e-16
7.544074207e-16
8.177620641e-16
7.926414608e-16
6.333946324e-16
6.009389055e-16
4.946777296e-16
5.788646105e-16
5.671109834e-16
5.198150639e-16
6.858565142e-16
6.5779677e-16
6.942557679e-16
6.465653456e-16
6.201209918e-16
6.347759515e-16
6.14139608e-16
7.179762138e-16
6.709625297e-16
6.955705131e-16
6.828177819e-16
7.78022919e-16
7.0665962e-16
6.202613097e-16
7.136314742e-16
7.344898522e-16
7.095509202e-16
6.973230035e-16
7.383348695e-16
7.23370828e-16
6.72788501e-16
7.87647923e-16
7.241569678e-16
6.895412848e-16
6.725584853e-16
6.826844256e-16
7.050581979e-16
6.606350691e-16
7.134663488e-16
7.231969786e-16
7.53461189e-16
7.772932677e-16
7.236495764e-16
8.226556077e-16
5.747519441e-16
4.838747199e-16
7.387306489e-16
7.736153811e-16
5.986115982e-16
5.953303359e-16
5.457985751e-16
6.464820006e-16
6.247543514e-16
6.416396603e-16
7.155760714e-16
6.240050011e-16
7.865808578e-16
5.933117055e-16
7.381348394e-16
7.318073382e-16
6.477047585e-16
6.510334382e-16
6.496285582e-16
6.533689641e-16
6.817532387e-16
6.558581981e-16
7.349741828e-16
6.361589176e-16
7.133322093e-16
6.882743841e-16
7.034243637e-16
7.082932694e-16
7.408525243e-16
6.609774557e-16
6.509889922e-16
6.88606428e-16
7.906881195e-16
7.055618172e-16
6.668907379e-16
7.513074378e-16
7.232604442e-16
7.164172814e-16
8.332545161e-16
8.438005389e-16
5.70006864e-16
6.08830656e-16
7.196939736e-16
4.524562299e-16
4.843626753e-16
5.298978694e-16
5.714140523e-16
5.432915837e-16
7.174128902e-16
5.950094594e-16
5.50624448e-16
5.556291375e-16
5.952128116e-16
5.858263597e-16
6.496936213e-16
7.350177531e-16
5.993500307e-16
6.201742997e-16
7.762206979e-16
6.644932545e-16
6.037599802e-16
6.690486567e-16
6.849276005e-16
6.34200316e-16
6.747783332e-16
7.895851839e-16
7.813596321e-16
7.524945307e-16
6.500727132e-16
7.123212866e-16
7.686309742e-16
7.349165499e-16
7.007881753e-16
6.568933566e-16
6.533217589e-16
7.334527366e-16
7.114699589e-16
7.216076621e-16
9.198194299e-16
8.346739767e-16
5.371450809e-16
5.77619846e-16
6.186587821e-16
6.200060297e-16
7.175049213e-16
5.416261226e-16
5.472891474e-16
5.340199927e-16
6.257998653e-16
6.349613334e-16
6.166131204e-16
6.046036991e-16
6.835459397e-16
5.861205845e-16
7.558399384e-16
6.222132985e-16
6.785211765e-16
6.450711253e-16
7.009177433e-16
7.027604153e-16
6.625564273e-16
6.378846527e-16
6.538695811e-16
6.148397103e-16
7.393834712e-16
6.969619535e-16
6.83584521e-16
6.560471042e-16
6.545810614e-16
6.434967531e-16
6.577796145e-16
7.251331536e-16
6.421578838e-16
6.968407262e-16
6.172203445e-16
6.761462589e-16
7.914940862e-16
6.614934909e-16
7.486428575e-16
8.48675742e-16
5.096672681e-16
6.003978795e-16
4.964739198e-16
5.917526839e-16
5.924506546e-16
5.074189078e-16
6.010371307e-16
5.8434591e-16
6.170208255e-16
6.084293048e-16
5.574717478e-16
5.85458703e-16
6.886485749e-16
6.079525523e-16
6.044192991e-16
6.60641582e-16
5.990850794e-16
6.003693261e-16
5.845639261e-16
6.331261009e-16
6.156107687e-16
5.994210916e-16
6.536863231e-16
5.659809175e-16
6.209778742e-16
5.561231725e-16
7.115015583e-16
6.107850717e-16
7.422275486e-16
7.163039649e-16
7.395796787e-16
7.385751176e-16
6.426205204e-16
7.606724018e-16
6.779361309e-16
6.362850913e-16
6.815888827e-16
6.865072545e-16
7.704539742e-16
8.079979553e-16
4.878577389e-16
5.660488923e-16
5.603014287e-16
5.617657431e-16
6.200563207e-16
6.459657879e-16
5.426560336e-16
5.504227921e-16
5.776754507e-16
5.834108033e-16
6.147505693e-16
6.440933213e-16
5.860779583e-16
6.303902293e-16
5.41545487e-16
5.485191322e-16
5.713285431e-16
7.245707479e-16
6.800073528e-16
6.607963601e-16
6.582695937e-16
6.122082555e-16
6.278510492e-16
6.401380339e-16
6.740553911e-16
5.992261353e-16
6.610116777e-16
6.928477286e-16
6.697732391e-16
7.408536352e-16
7.011881621e-16
7.349721793e-16
7.199632125e-16
6.477741244e-16
6.143572752e-16
6.31151101e-16
6.335154516e-16
6.900482683e-16
7.38671922e-16
7.478774113e-16
5.828959818e-16
5.623202339e-16
5.564002878e-16
5.172394517e-16
6.058244492e-16
5.567159725e-16
5.491638186e-16
6.492079706e-16
6.283596814e-16
5.947037905e-16
5.444055347e-16
5.597958403e-16
4.933965974e-16
5.837597219e-16
5.820604096e-16
5.795631814e-16
6.066768411e-16
5.74899659e-16
7.062512481e-16
7.273464321e-16
6.407581238e-16
6.312167244e-16
6.359151876e-16
6.396176454e-16
5.403006195e-16
5.928321534e-16
6.298909514e-16
6.093918393e-16
7.638251615e-16
5.817081279e-16
6.152009102e-16
7.417308946e-16
6.902528679e-16
7.157469497e-16
6.062460137e-16
6.715072739e-16
7.000753862e-16
7.634752731e-16
7.132302918e-16
8.543814599e-16
6.135191565e-16
5.51352571e-16
5.532863458e-16
6.208913923e-16
6.004671201e-16
5.833110259e-16
5.850289278e-16
5.59902403e-16
5.968390552e-16
5.767984218e-16
5.943468944e-16
5.617033441e-16
5.426862433e-16
6.070648181e-16
5.81215574e-16
5.189173392e-16
5.440612167e-16
7.071120625e-16
6.050232304e-16
5.762179154e-16
6.755644136e-16
6.029090381e-16
6.19665506e-16
5.956789256e-16
6.451960307e-16
6.41700199e-16
6.553979647e-16
5.649947881e-16
6.77508125e-16
6.643799905e-16
6.016535169e-16
6.223335997e-16
6.334153754e-16
6.415082274e-16
6.839602965e-16
6.193536428e-16
6.76144245e-16
6.892185218e-16
7.566701912e-16
7.547042589e-16
6.088497987e-16
5.468920546e-16
5.9723379e-16
6.118125254e-16
6.288434181e-16
5.658787293e-16
5.588474579e-16
5.39605951e-16
6.064757303e-16
5.748445276e-16
6.594168382e-16
6.022500424e-16
5.907678644e-16
6.373804764e-16
5.556147833e-16
5.802865096e-16
6.570047485e-16
5.574581679e-16
7.154989079e-16
5.80950649e-16
6.483483755e-16
6.13930565e-16
6.133911123e-16
6.128626365e-16
5.512925764e-16
6.283869495e-16
6.454100865e-16
6.337169339e-16
6.291104987e-16
6.050271391e-16
6.623626532e-16
6.150157779e-16
6.282458992e-16
7.128754628e-16
6.227091882e-16
6.522572274e-16
7.582816127e-16
7.450608211e-16
7.423340567e-16
7.713935066e-16
5.031429755e-16
5.412619368e-16
5.531503408e-16
5.171688074e-16
5.609423409e-16
5.302475612e-16
7.054255909e-16
7.232632487e-16
5.233637e-16
5.767397598e-16
4.983094605e-16
5.52785664e-16
5.949152567e-16
5.579470437e-16
5.853900536e-16
6.230096465e-16
6.094625161e-16
6.09887468e-16
5.931915428e-16
5.486162265e-16
6.723760014e-16
6.377612855e-16
5.436775747e-16
5.276850014e-16
6.812772643e-16
6.049643407e-16
7.189155218e-16
7.382917141e-16
6.465895851e-16
6.250833884e-16
5.952157248e-16
6.482460877e-16
6.685320934e-16
6.431513894e-16
7.795706884e-16
6.944782642e-16
6.501612982e-16
6.526719381e-16
8.055381584e-16
8.33479789e-16
5.512738787e-16
5.720730943e-16
5.913802569e-16
6.150908358e-16
6.162592224e-16
6.104046961e-16
5.778458455e-16
5.416171308e-16
5.291864879e-16
5.44793449e-16
5.548299726e-16
6.293331003e-16
5.972978116e-16
5.985555616e-16
6.32093681e-16
5.385767293e-16
6.447114983e-16
6.552988049e-16
6.21255531e-16
5.660242058e-16
5.7301793e-16
6.305585745e-16
6.365807795e-16
6.845966446e-16
6.555334423e-16
5.588141868e-16
5.793857386e-16
6.406649967e-16
7.10749727e-16
6.253410263e-16
6.19904242e-16
5.923559269e-16
6.196827918e-16
6.319602282e-16
6.058597656e-16
6.661402635e-16
6.231523068e-16
7.279231298e-16
7.416977114e-16
7.616837893e-16
5.123821066e-16
5.743298354e-16
5.360061559e-16
5.961678488e-16
5.419978325e-16
5.18073644e-16
5.890661305e-16
5.508519612e-16
5.648976739e-16
6.240109599e-16
5.369766755e-16
5.912868314e-16
6.015497368e-16
6.025714958e-16
5.842646978e-16
6.338342878e-16
5.572770617e-16
5.263203305e-16
6.464817833e-16
5.256655677e-16
6.516533577e-16
6.428955115e-16
5.867661469e-16
6.332581852e-16
6.021407515e-16
5.873695e-16
6.341401236e-16
5.725423882e-16
7.069187629e-16
6.138366681e-16
6.314763204e-16
6.522754455e-16
6.026791806e-16
6.981764142e-16
6.539641102e-16
6.174287434e-16
7.496803282e-16
7.772038148e-16
7.553753244e-16
7.707991551e-16
5.605426194e-16
5.871633492e-16
5.260645297e-16
5.232202957e-16
5.168108767e-16
6.037091229e-16
5.64088172e-16
6.317614249e-16
5.563178035e-16
6.015462716e-16
5.824646895e-16
5.68118848e-16
5.747938022e-16
6.071318947e-16
6.607957404e-16
6.497968085e-16
5.538148276e-16
5.312022332e-16
5.864316748e-16
6.430438459e-16
6.693470969e-16
6.368176294e-16
6.063882791e-16
6.80629503e-16
5.756945876e-16
6.277768131e-16
5.804995264e-16
5.282800632e-16
5.959525289e-16
6.264401321e-16
6.06084723e-16
6.290826147e-16
6.028938213e-16
6.163027744e-16
6.358852291e-16
6.665007136e-16
7.414123381e-16
7.928084864e-16
7.482775757e-16
7.660461225e-16
5.7373511e-16
6.179222076e-16
5.96776303e-16
6.331837168e-16
5.736580803e-16
5.755684915e-16
5.593631014e-16
6.310098011e-16
6.087218218e-16
6.065166751e-16
6.45698153e-16
6.362752765e-16
5.321139319e-16
5.57117211e-16
5.318938703e-16
6.393291632e-16
5.668005337e-16
4.98916844e-16
6.774039716e-16
6.207091248e-16
5.925745938e-16
5.620693003e-16
6.224444242e-16
5.726520328e-16
5.264468384e-16
6.290896576e-16
6.08206515e-16
5.959312615e-16
5.945982362e-16
5.473171348e-16
7.114206044e-16
5.940650774e-16
6.548333326e-16
7.280646611e-16
7.075246463e-16
7.49169183e-16
7.895384088e-16
6.730145664e-16
7.7144571e-16
7.639104764e-16
5.516001485e-16
6.28702694e-16
6.241392055e-16
5.629974408e-16
5.639668606e-16
5.285250396e-16
6.950441004e-16
5.980196355e-16
5.711204207e-16
6.291079378e-16
5.601937881e-16
7.061717282e-16
5.579043208e-16
6.340788442e-16
5.552067253e-16
5.914070424e-16
5.900013114e-16
5.839653401e-16
6.701674917e-16
5.520188351e-16
5.616546398e-16
6.272712261e-16
6.156379743e-16
7.904357597e-16
6.596114386e-16
5.662925091e-16
6.176496831e-16
5.584369599e-16
6.39159014e-16
5.953233749e-16
5.629765372e-16
6.154396901e-16
7.771555828e-16
5.349252502e-16
6.940212389e-16
7.149803333e-16
7.315811576e-16
7.279225289e-16
7.55504033e-16
7.931016579e-16
6.357170012e-16
5.601538712e-16
5.605260789e-16
4.906065224e-16
5.711890267e-16
5.821655755e-16
5.927488796e-16
5.874913413e-16
5.344485696e-16
5.451158826e-16
6.670172882e-16
6.489906606e-16
5.981800515e-16
6.754242127e-16
6.089537021e-16
5.444215749e-16
5.722323365e-16
5.902470382e-16
5.691527141e-16
5.572886236e-16
6.712319853e-16
6.199988598e-16
5.622797188e-16
5.738919901e-16
7.454760526e-16
5.944262559e-16
5.576906214e-16
5.620484129e-16
6.08388404e-16
6.598757397e-16
5.80482688e-16
7.425781904e-16
6.540194569e-16
5.428848937e-16
6.740207442e-16
6.135899611e-16
7.882768181e-16
7.216785846e-16
7.517738751e-16
8.132830178e-16
6.011363777e-16
5.309337902e-16
5.46471506e-16
5.980821798e-16
6.069027645e-16
5.360234635e-16
6.155634982e-16
5.334808889e-16
5.538147646e-16
5.55511334e-16
5.771568256e-16
5.819946717e-16
6.437855463e-16
5.579193009e-16
5.510427962e-16
6.458715789e-16
5.355203651e-16
5.574510722e-16
7.122701899e-16
6.108331824e-16
7.072415457e-16
6.126289616e-16
5.573845022e-16
5.61098257e-16
5.830747544e-16
6.58348395e-16
6.069922381e-16
6.331082203e-16
6.208305609e-16
6.183015173e-16
7.110269944e-16
5.524187377e-16
5.447318975e-16
7.549560455e-16
6.145637188e-16
6.453827125e-16
6.761797662e-16
7.576150541e-16
7.247461391e-16
7.720233858e-16
5.751743219e-16
5.531839282e-16
5.753438168e-16
5.726184078e-16
6.073441068e-16
5.917016563e-16
5.761158952e-16
5.248121317e-16
5.264662968e-16
5.06876171e-16
5.303913394e-16
5.393189461e-16
5.863124946e-16
5.838870922e-16
5.25408101e-16
5.216942967e-16
6.734553025e-16
5.568461788e-16
5.873513459e-16
5.88807843e-16
6.484437795e-16
5.356180713e-16
6.077829787e-16
6.626712092e-16
5.990458247e-16
6.404190847e-16
6.977118871e-16
6.090091431e-16
6.473315944e-16
6.603304791e-16
7.073003476e-16
5.657089283e-16
6.450050249e-16
6.436060061e-16
5.680670467e-16
7.442893782e-16
7.31848422e-16
7.017706505e-16
7.153322821e-16
7.561573148e-16
5.102403489e-16
5.523610198e-16
5.32799123e-16
6.538808476e-16