/*--------------------------------*- C++ -*----------------------------------*\
  =========                 |
  \\      /  F ield         | OpenFOAM: The Open Source CFD Toolbox
   \\    /   O peration     | Website:  https://openfoam.org
    \\  /    A nd           | Version:  7
     \\/     M anipulation  |
\*---------------------------------------------------------------------------*/
FoamFile
{
    version     2.0;
    format      ascii;
    class       volScalarField;
    location    "0.001";
    object      dsmcRhoNMean;
}
// * * * * * * * * * * * * * * * * * * * * * * * * * * * * * * * * * * * * * //

dimensions      [0 -3 0 0 0 0 0];

internalField   nonuniform List<scalar> 
2400
(
7.382
9.578
9.682
9.548
9.478
9.39
9.398
9.366
9.082
9.084
9.28
9.288
9.382
9.246
9.164
9.142
9.176
9.484
10.148
12.88
7.502
9.436
9.492
9.438
9.726
9.656
9.654
9.618
9.87
9.746
9.718
9.428
9.372
9.43
9.614
9.788
9.842
10.016
10.652
12.798
7.332
9.604
9.656
9.572
9.65
9.766
9.736
9.676
9.552
9.57
9.612
9.682
9.766
10.06
10.064
10.014
9.928
10.058
10.478
11.302
7.542
9.566
9.722
9.83
9.63
9.67
9.484
9.556
9.592
9.636
9.65
9.73
9.684
9.442
9.374
9.494
9.452
9.87
10.232
10.876
7.426
9.628
9.61
9.446
9.552
9.586
9.608
9.676
9.724
9.562
9.592
9.668
9.704
9.734
9.654
9.67
9.8
9.874
9.92
10.296
7.466
9.472
9.49
9.436
9.44
9.374
9.334
9.532
9.346
9.522
9.482
9.372
9.344
9.764
9.856
9.974
9.944
10.094
10.054
10.302
7.52
9.612
9.778
9.876
9.94
9.78
9.684
9.684
9.638
9.532
9.57
9.754
9.626
9.446
9.406
9.45
9.59
9.742
9.746
9.978
7.474
9.558
9.564
9.29
9.418
9.48
9.606
9.596
9.588
9.78
9.718
9.806
9.876
9.91
9.94
9.892
9.79
9.828
10.056
10.102
7.502
9.632
9.614
9.67
9.664
9.756
9.678
9.724
9.656
9.714
9.556
9.686
9.46
9.448
9.51
9.552
9.598
9.62
9.548
9.62
7.488
9.554
9.798
10.01
9.906
9.896
9.896
9.812
9.692
9.79
9.772
9.982
10.102
10.006
9.976
9.998
9.962
10.078
10.196
10.076
7.494
9.556
9.668
9.572
9.578
9.756
9.764
10.114
10.028
9.998
9.988
9.74
9.564
9.766
9.822
9.714
9.924
9.928
9.87
10.006
7.436
9.726
9.706
9.644
9.674
9.77
9.516
9.48
9.398
9.326
9.304
9.414
9.602
9.554
9.552
9.596
9.472
9.338
9.316
9.474
7.402
9.62
9.844
9.686
9.714
9.7
9.852
9.776
9.836
9.688
9.73
9.532
9.452
9.338
9.432
9.452
9.404
9.516
9.556
9.626
7.524
9.518
9.384
9.404
9.39
9.36
9.508
9.544
9.524
9.762
9.704
9.64
9.69
9.59
9.488
9.536
9.616
9.558
9.618
9.534
7.378
9.358
9.53
9.38
9.536
9.358
9.36
9.222
9.252
9.014
9.222
9.516
9.52
9.584
9.764
9.68
9.784
9.71
9.758
9.52
7.478
9.644
9.588
9.67
9.676
9.712
9.698
9.67
9.65
9.66
9.57
9.374
9.384
9.436
9.284
9.332
9.264
9.298
9.536
9.596
7.228
9.358
9.42
9.388
9.404
9.404
9.51
9.506
9.608
9.5
9.476
9.49
9.432
9.656
9.698
9.74
9.878
9.846
9.732
9.816
7.558
9.614
9.666
9.6
9.542
9.554
9.464
9.49
9.482
9.652
9.67
9.75
9.838
9.66
9.752
9.608
9.574
9.724
9.69
9.568
7.378
9.592
9.652
9.888
9.932
9.76
9.748
9.916
9.802
9.766
9.846
9.822
9.72
9.776
9.752
9.788
9.702
9.488
9.418
9.384
7.596
9.802
9.792
9.676
9.53
9.752
9.728
9.848
9.778
9.812
9.658
9.59
9.642
9.498
9.498
9.56
9.624
9.776
9.834
9.85
7.426
9.416
9.492
9.472
9.482
9.382
9.294
9.398
9.324
9.232
9.562
9.586
9.74
9.88
9.902
9.83
9.784
9.82
9.898
9.962
7.548
9.81
9.79
9.648
9.642
9.648
9.578
9.614
9.692
9.748
9.562
9.464
9.648
9.586
9.646
9.662
9.762
9.71
9.482
9.418
7.348
9.336
9.382
9.488
9.582
9.716
9.712
9.748
9.67
9.592
9.79
9.952
9.684
9.584
9.56
9.278
9.03
9.316
9.474
9.506
7.566
9.908
9.9
9.892
10.018
9.932
10.058
9.778
9.84
9.846
9.858
9.586
9.518
9.672
9.718
9.912
10.026
9.918
9.684
9.556
7.402
9.328
9.474
9.578
9.61
9.54
9.366
9.544
9.512
9.676
9.396
9.414
9.602
9.61
9.542
9.464
9.284
9.256
9.396
9.438
7.28
9.566
9.544
9.498
9.39
9.424
9.54
9.396
9.512
9.532
9.532
9.61
9.632
9.486
9.444
9.366
9.436
9.608
9.722
9.634
7.498
9.62
9.668
9.54
9.548
9.526
9.5
9.494
9.36
9.304
9.394
9.374
9.344
9.466
9.66
9.88
9.844
9.928
9.646
9.81
7.456
9.748
9.758
9.71
9.85
9.716
9.658
9.684
9.574
9.808
9.84
9.698
9.694
9.682
9.628
9.6
9.644
9.484
9.594
9.634
7.488
9.576
9.674
9.662
9.66
9.88
9.864
9.784
9.876
9.536
9.452
9.592
9.624
9.688
9.67
9.534
9.558
9.786
9.822
9.698
7.466
9.638
9.782
9.8
9.748
9.884
9.844
9.858
9.82
10.042
10.16
9.97
9.858
9.674
9.624
9.688
9.632
9.418
9.412
9.642
7.446
9.442
9.468
9.502
9.414
9.212
9.518
9.546
9.466
9.412
9.392
9.598
9.546
9.618
9.636
9.652
9.71
9.788
9.726
9.846
7.39
9.624
9.59
9.452
9.478
9.71
9.674
9.588
9.522
9.604
9.782
9.524
9.662
9.808
9.842
9.656
9.81
9.812
9.852
9.684
7.612
9.824
9.946
9.946
9.926
9.95
9.84
9.846
9.852
9.698
9.78
9.804
9.98
9.828
9.892
10.042
9.784
9.804
9.794
9.732
7.598
9.628
9.752
9.768
9.662
9.618
9.6
9.55
9.54
9.704
9.618
9.59
9.522
9.542
9.43
9.352
9.456
9.366
9.324
9.198
7.526
9.436
9.432
9.59
9.6
9.556
9.458
9.68
9.732
9.762
9.84
9.776
9.65
9.574
9.65
9.594
9.448
9.456
9.274
9.462
7.422
9.614
9.854
9.52
9.612
9.728
9.614
9.632
9.588
9.274
9.304
9.386
9.548
9.516
9.412
9.6
9.646
9.678
9.798
9.72
7.422
9.55
9.612
9.638
9.504
9.414
9.398
9.542
9.382
9.702
9.76
9.788
9.882
9.752
9.748
9.788
9.81
9.892
9.702
9.856
7.484
9.514
9.394
9.53
9.556
9.688
9.718
9.46
9.534
9.432
9.39
9.306
9.182
9.13
9.154
9.134
9.238
9.338
9.568
9.43
7.352
9.574
9.676
9.53
9.682
9.48
9.518
9.662
9.766
9.8
9.718
9.666
9.858
9.904
9.966
9.804
9.716
9.672
9.666
9.7
7.25
9.418
9.522
9.532
9.516
9.624
9.698
9.788
9.714
9.598
9.754
9.736
9.772
9.602
9.61
9.52
9.592
9.48
9.442
9.41
22.988
27.166
28.068
26.7
26.446
26.97
27.202
27.166
26.922
26.712
25.616
25.062
25.122
25.148
23.568
23.616
23.308
22.722
23.15
22.928
21.036
21.31
22.068
21.13
21.398
21.138
19.818
19.568
19.81
20.102
19.726
18.706
17.874
18.612
18.24
17.78
16.4
16.902
14.704
12.048
16.122
18.502
19.512
22.066
21.902
22.848
22.868
23.192
22.87
23.102
22.91
22.766
22.892
21.75
20.802
21.496
21.484
21.398
21.49
21.526
19.94
19.334
19.664
19.374
19.426
18.714
19.034
18.422
17.874
18.576
18.344
17.706
16.702
17.152
16.192
15.828
15.196
13.998
13.916
11.44
13.03
14.846
16.126
18.104
19.586
20.126
20.668
21.244
21.184
21.714
21.17
21.544
21.322
20.66
20.074
20.498
20.56
19.74
19.446
19.278
19.21
18.854
18.706
17.652
18.798
17.368
17.106
17.25
16.794
16.71
16.798
16.45
16.202
15.75
15.404
14.76
14.16
13.984
13.268
11.71
12.02
12.866
14.31
15.124
16.28
17.482
18.396
19.204
18.934
19.562
20.35
20.384
20.178
20.18
19.466
19.584
19.934
19.706
19.546
18.968
19.088
18.74
19.408
18.086
18.298
17.584
17.566
17.444
17.17
16.94
16.224
15.87
16.104
15.72
14.996
14.18
13.972
14.382
12.888
11.592
11.016
11.574
12.662
13.436
14.392
16.018
17.392
17.694
18.298
18.422
19.308
19.662
19.818
19.784
19.498
19.696
19.73
19.634
18.406
18.748
18.476
18.836
18.736
17.88
17.254
17.46
17.262
16.782
16.596
16.34
16.692
15.964
15.65
15.3
14.838
14.87
14.452
13.426
12.818
11.518
10.56
10.988
11.586
12.532
13.032
13.706
14.95
15.828
16.404
16.916
17.31
17.756
18.524
18.924
19.376
18.848
19.204
19.364
18.9
18.426
18.502
18.242
18.73
18.044
18.018
17.632
17.694
16.732
16.658
16.55
16.154
15.61
16.214
15.688
15.114
15.046
14.132
13.43
12.906
12.162
10.276
10.748
10.726
11.37
11.782
12.304
13.26
13.898
14.638
15.252
15.668
16.372
16.462
17.286
18.398
18.714
18.466
18.792
18.93
18.986
18.304
17.662
17.712
17.598
17.24
17.3
17.188
17.332
16.818
16.254
15.89
15.79
15.434
14.932
14.03
15.118
14.532
14.17
13.44
12.722
10.242
10.254
10.632
10.63
11.164
11.514
11.602
12.506
13.332
14.07
14.554
15.204
15.7
16.348
16.908
17.53
17.652
17.784
18.018
17.622
18.002
18.35
18.334
18.192
17.914
17.52
17.682
17.18
17.106
16.346
16.38
15.94
15.594
15.49
14.736
14.878
14.594
14.018
13.52
13.068
9.77
10.008
10.002
10.288
10.48
11.134
11.434
11.422
12.136
12.756
13.342
14.302
14.936
15.33
15.578
15.992
16.58
16.82
17.12
17.466
17.77
17.692
17.994
17.87
17.598
17.594
17.166
17.456
17.222
17.054
16.694
16.528
16.12
15.704
14.958
14.782
14.952
14.624
13.778
12.876
10.114
10.16
10.356
10.394
10.24
10.378
10.69
11.022
11.51
11.958
12.294
12.728
13.546
13.966
14.286
14.704
15.242
15.75
16.044
16.386
16.684
16.852
16.644
17.01
17.214
17.11
17.212
17.218
17.134
17.246
16.602
16.12
16.15
16.086
15.754
15.426
15.08
14.612
13.996
13.076
9.89
9.928
10.048
9.856
9.816
10.154
10.298
10.72
10.912
11.21
11.706
11.668
12.292
13
13.42
13.806
14.24
14.558
15.052
15.59
15.93
16.248
16.15
16.742
16.85
16.706
16.936
16.836
17.082
16.966
16.8
16.882
16.316
16.052
15.562
15.298
14.896
14.292
14.234
14.37
9.402
9.164
9.17
9.4
9.604
9.764
9.918
9.862
9.962
10.198
10.266
11.008
11.144
11.572
12.134
12.714
13.224
13.88
14.03
14.422
14.984
15.516
15.7
15.97
16.48
16.606
16.722
16.562
16.386
16.682
16.582
16.008
15.814
15.488
15.194
15.186
14.682
14.608
14.344
14.526
9.76
10.058
9.936
9.77
9.618
9.428
9.564
9.79
9.992
9.862
10.184
10.194
10.468
10.962
11.47
11.882
12.29
13.094
13.436
13.722
14.274
14.428
14.866
15.12
15.336
15.746
16.086
16.388
16.406
16.396
16.304
16.31
16.32
15.566
15.16
15.188
15.574
15.334
14.854
14.018
9.512
9.286
9.268
9.436
9.376
9.386
9.548
9.612
9.464
9.308
9.528
9.94
10.494
10.934
10.888
11.28
11.432
11.642
12.09
12.716
13.208
13.846
14.016
14.144
14.594
15.114
15.594
15.68
15.586
15.732
15.846
15.844
15.878
16.152
15.676
15.554
15.142
15.158
14.588
14.442
9.448
9.428
9.552
9.43
9.644
9.64
9.476
9.314
9.622
9.848
9.932
9.994
9.982
10.088
10.136
10.488
10.668
11.196
11.478
11.628
11.952
12.298
12.568
13.136
13.574
13.658
14
14.4
14.91
15.42
15.422
16.052
16.07
15.898
15.912
15.526
15.118
14.408
14.746
14.52
9.602
9.752
9.66
9.682
9.528
9.478
9.324
9.41
9.344
9.524
9.54
9.462
9.482
9.616
9.868
9.97
9.952
10.174
10.576
10.78
11.448
12.102
12.48
12.578
12.858
13.196
13.596
14.092
14.098
14.412
14.356
14.37
15.094
15.438
14.998
15.272
15.282
15.374
14.88
14.592
9.848
9.67
9.516
9.35
9.366
9.386
9.454
9.45
9.406
9.354
9.36
9.46
9.416
9.588
9.79
9.822
9.77
10.14
10.488
10.83
10.974
11.288
11.91
11.958
12.02
12.306
12.516
12.812
13.404
13.73
14.03
14.178
14.168
14.456
14.65
14.508
14.806
14.574
14.89
14.684
9.498
9.472
9.458
9.432
9.48
9.476
9.444
9.33
9.352
9.552
9.416
9.438
9.412
9.546
9.418
9.4
9.444
9.494
9.572
9.66
9.73
9.874
9.782
10.358
10.772
11.286
11.814
12.19
12.71
12.954
13.034
13.116
13.474
13.906
14.554
14.47
14.52
14.586
14.448
14.408
9.748
9.754
9.542
9.586
9.502
9.404
9.56
9.524
9.278
9.154
9.11
9.192
9.244
9.008
8.88
9.066
8.968
8.95
8.72
8.74
8.894
9.19
9.668
10.046
10.482
10.71
10.802
11.336
11.686
12.22
12.826
13.164
13.49
13.512
13.822
14.086
14.206
14.27
14.124
13.938
9.686
9.746
9.852
9.816
9.626
9.724
9.53
9.326
9.226
9.024
9.028
8.854
8.678
8.724
8.918
8.902
9.098
9.272
9.34
9.394
9.38
9.46
9.566
9.614
9.852
10.23
10.614
10.6
11.092
11.364
11.984
12.278
12.598
13.016
13.08
13.37
13.502
13.55
13.742
13.64
9.79
9.682
9.492
9.41
9.292
8.964
8.972
8.888
8.842
8.818
8.684
8.824
8.78
8.788
8.882
8.926
8.824
8.776
8.894
8.846
8.886
9.202
9.098
9.202
9.364
9.474
9.832
10
10.426
10.524
10.902
11.52
11.964
11.972
12.494
12.58
12.954
13.214
13.48
13.792
9.256
9.334
9.144
9.06
8.924
8.986
9.078
9.004
9.014
9.074
8.996
8.888
9.036
8.844
8.62
8.578
8.678
8.836
8.922
8.77
8.926
8.894
8.93
8.89
9.166
9.328
9.354
9.694
10
10.43
10.576
10.454
10.834
11.028
11.248
12.014
12
12.48
12.472
12.784
9.474
9.344
9.34
9.132
9.264
9.132
9.066
8.98
8.958
8.886
8.942
8.838
8.698
8.844
8.762
8.706
8.554
8.49
8.376
8.414
8.496
8.494
8.95
9.184
9.18
9.262
9.428
9.466
9.416
9.422
9.672
9.94
9.93
10.588
10.582
10.632
11.068
11.358
11.94
12.254
9.512
9.484
9.204
9.316
9.316
9.314
9.318
9.434
9.216
9.048
8.936
8.606
8.578
8.488
8.532
8.42
8.354
8.238
8.318
8.418
8.584
8.606
8.632
8.472
8.438
8.472
8.58
8.7
8.68
8.916
9.098
9.284
9.628
9.682
10.182
10.642
11.016
11.208
11.498
11.804
9.418
9.424
9.542
9.462
9.432
9.296
9.046
8.904
8.91
8.938
8.888
8.988
8.92
8.78
8.688
8.738
8.8
8.79
8.706
8.656
8.528
8.344
8.228
8.25
8.272
8.358
8.336
8.224
8.664
8.484
8.688
8.834
9.068
9.356
9.536
9.818
10.032
10.468
10.594
10.692
9.708
9.426
9.432
9.384
9.364
9.134
9.186
9.03
9.104
9.068
9.04
8.898
8.91
8.95
8.988
8.714
8.7
8.684
8.578
8.522
8.484
8.504
8.328
8.408
8.25
8.054
8.302
8.212
8.14
8.244
8.306
8.344
8.882
9.196
9.33
9.394
9.356
9.618
9.71
10.154
9.544
9.464
9.452
9.302
9.254
9.37
9.248
9.216
9.208
8.976
8.974
9.018
8.826
8.814
8.902
8.632
8.628
8.746
8.736
8.718
8.678
8.574
8.528
8.438
8.232
8.246
8.08
8.172
8.356
8.486
8.614
8.676
8.588
8.698
9.086
9.206
9.41
9.698
9.912
9.986
9.766
9.838
9.668
9.558
9.234
9.082
9.02
8.898
8.7
8.796
8.784
8.89
8.85
8.67
8.632
8.746
8.606
8.55
8.488
8.392
8.244
8.234
8.23
8.096
8.184
8.178
8.288
8.25
8.256
8.248
8.264
8.258
8.268
8.198
8.63
8.82
8.842
9.144
9.352
9.682
9.516
9.216
9.292
9.178
9.17
9.246
9.168
9.114
9.316
9.24
9.186
9.03
8.904
8.778
8.76
8.822
8.904
8.616
8.618
8.41
8.208
8.176
8.082
8.314
8.172
8.114
8.18
8.09
7.93
8.122
8.276
8.358
8.29
8.338
8.17
8.364
8.516
8.628
8.78
9.142
9.558
9.552
9.662
9.766
9.658
9.582
9.682
9.556
9.316
9.096
8.892
8.986
8.91
8.85
8.654
8.478
8.484
8.358
8.23
8.356
8.298
8.202
8.116
8.092
8.05
8.184
8.014
8.25
8.366
8.316
8.346
8.154
8.242
8.064
8.194
8.112
8.458
8.484
8.574
8.782
9.96
9.96
9.79
9.76
9.624
9.498
9.13
9.15
9.214
9.252
9.122
9.088
8.796
8.732
8.578
8.374
8.234
8.196
8.09
8.144
8.232
8.418
8.382
8.308
8.368
8.396
8.332
8.142
8.008
7.898
7.918
7.856
7.818
8.092
8.254
8.198
8.068
8.088
8.096
8.088
9.708
9.542
9.458
9.36
9.064
9.148
9.32
9.2
9.052
9.03
8.824
8.628
8.61
8.438
8.36
8.434
8.316
8.328
8.32
8.308
7.982
7.972
8.048
8.02
7.962
7.976
7.792
7.808
7.858
7.75
7.728
7.83
8.026
7.83
7.6
7.584
7.514
7.636
7.784
7.9
9.782
9.584
9.508
9.338
9.218
9.196
8.916
8.656
8.614
8.566
8.54
8.422
8.35
8.472
8.606
8.396
8.55
8.418
8.158
8.174
8.42
8.368
8.26
8.18
8.046
8.158
8.066
8.062
8.086
7.984
7.84
7.632
7.314
7.438
7.42
7.408
7.398
7.452
7.5
7.462
9.084
9.05
9.032
9.016
8.972
8.744
8.756
8.796
8.842
8.684
8.656
8.676
8.7
8.76
8.684
8.598
8.396
8.594
8.59
8.538
8.398
8.348
8.27
8.142
8.18
8.01
7.968
7.736
7.84
7.692
7.734
7.628
7.584
7.488
7.332
7.368
7.5
7.358
7.47
7.544
9.302
9.36
9.14
9.132
9.078
9.228
9.052
9.128
9.162
9.29
9.272
9.128
9.072
8.75
8.834
8.888
8.876
8.656
8.684
8.562
8.48
8.462
8.266
8.098
8.02
7.918
7.766
7.608
7.496
7.58
7.508
7.622
7.594
7.784
7.734
7.618
7.556
7.562
7.57
7.598
9.744
9.692
9.778
9.678
9.742
9.558
9.74
9.516
9.298
9.126
9.06
8.982
8.832
8.88
8.848
8.716
8.79
8.738
8.506
8.338
8.178
8.012
8.096
8.116
7.962
7.93
7.936
8
7.966
7.872
7.746
7.778
7.856
7.744
7.676
7.786
7.844
7.716
7.582
7.49
9.848
9.782
9.598
9.666
9.652
9.628
9.49
9.376
9.356
9.442
9.246
9.278
9.174
8.954
8.92
8.836
8.526
8.488
8.5
8.61
8.512
8.402
8.176
8.17
8.174
8.094
8.054
7.77
7.742
7.59
7.628
7.64
7.66
7.45
7.42
7.202
7.408
7.482
7.684
7.47
9.284
9.296
9.44
9.394
9.324
9.166
9.074
8.994
8.94
8.788
8.636
8.472
8.556
8.552
8.73
8.578
8.526
8.444
8.472
8.378
8.288
8.26
8.424
8.192
8.156
8.1
7.952
8.03
7.994
7.884
7.75
7.738
7.554
7.51
7.51
7.504
7.322
7.108
7.104
7.174
9.788
9.688
9.57
9.44
9.33
9.232
9.09
9.158
9.036
9.09
9.148
9.284
9.264
9.056
8.856
8.882
8.72
8.644
8.366
8.44
8.346
8.282
8.112
8.048
8.052
7.976
7.93
8.008
7.786
7.796
7.74
7.61
7.526
7.378
7.25
7.226
7.218
7.038
7.006
7.062
9.352
9.3
9.124
9.038
9.152
9.096
9.092
9.072
8.988
8.868
8.774
8.486
8.536
8.436
8.43
8.254
8.362
8.36
8.302
8.358
8.196
8.126
7.984
7.982
7.802
7.798
7.558
7.546
7.582
7.544
7.476
7.396
7.502
7.516
7.566
7.326
7.142
7.206
7.1
7.174
)
;

boundaryField
{
    flow
    {
        type            calculated;
        value           nonuniform List<scalar> 
160
(
7.382
7.502
7.332
7.542
7.426
7.466
7.52
7.474
7.502
7.488
7.494
7.436
7.402
7.524
7.378
7.478
7.228
7.558
7.378
7.596
7.426
7.548
7.348
7.566
7.402
7.28
7.498
7.456
7.488
7.466
7.446
7.39
7.612
7.598
7.526
7.422
7.422
7.484
7.352
7.25
12.048
11.44
11.71
11.592
11.518
12.162
12.722
13.068
12.876
13.076
14.37
14.526
14.018
14.442
14.52
14.592
14.684
14.408
13.938
13.64
13.792
12.784
12.254
11.804
10.692
10.154
9.986
9.682
9.142
8.782
8.088
7.9
7.462
7.544
7.598
7.49
7.47
7.174
7.062
7.174
7.382
9.578
9.682
9.548
9.478
9.39
9.398
9.366
9.082
9.084
9.28
9.288
9.382
9.246
9.164
9.142
9.176
9.484
10.148
12.88
7.25
9.418
9.522
9.532
9.516
9.624
9.698
9.788
9.714
9.598
9.754
9.736
9.772
9.602
9.61
9.52
9.592
9.48
9.442
9.41
9.352
9.3
9.124
9.038
9.152
9.096
9.092
9.072
8.988
8.868
8.774
8.486
8.536
8.436
8.43
8.254
8.362
8.36
8.302
8.358
8.196
8.126
7.984
7.982
7.802
7.798
7.558
7.546
7.582
7.544
7.476
7.396
7.502
7.516
7.566
7.326
7.142
7.206
7.1
7.174
)
;
    }
    obstacle
    {
        type            calculated;
        value           nonuniform List<scalar> 
40
(
22.988
27.166
28.068
26.7
26.446
26.97
27.202
27.166
26.922
26.712
25.616
25.062
25.122
25.148
23.568
23.616
23.308
22.722
23.15
22.928
21.036
21.31
22.068
21.13
21.398
21.138
19.818
19.568
19.81
20.102
19.726
18.706
17.874
18.612
18.24
17.78
16.4
16.902
14.704
12.048
)
;
    }
    frontAndBack
    {
        type            empty;
    }
}


// ************************************************************************* //
