/*--------------------------------*- C++ -*----------------------------------*\
  =========                 |
  \\      /  F ield         | OpenFOAM: The Open Source CFD Toolbox
   \\    /   O peration     | Website:  https://openfoam.org
    \\  /    A nd           | Version:  7
     \\/     M anipulation  |
\*---------------------------------------------------------------------------*/
FoamFile
{
    version     2.0;
    format      ascii;
    class       volScalarField;
    location    "0.001";
    object      iDofMean;
}
// * * * * * * * * * * * * * * * * * * * * * * * * * * * * * * * * * * * * * //

dimensions      [0 -3 0 0 0 0 0];

internalField   nonuniform List<scalar> 
2400
(
1.537522676e+20
1.994905472e+20
2.016566588e+20
1.988657073e+20
1.974077476e+20
1.955748839e+20
1.957415079e+20
1.95075012e+20
1.891598611e+20
1.892015171e+20
1.932838044e+20
1.934504283e+20
1.9540826e+20
1.925756525e+20
1.908677568e+20
1.904095409e+20
1.911176928e+20
1.975327156e+20
2.11362505e+20
2.682645905e+20
1.562516272e+20
1.965329718e+20
1.976993395e+20
1.965746278e+20
2.025730906e+20
2.011151309e+20
2.010734749e+20
2.003236671e+20
2.055723221e+20
2.029896506e+20
2.024064667e+20
1.963663478e+20
1.9519998e+20
1.964080038e+20
2.002403551e+20
2.038644264e+20
2.049891382e+20
2.086132095e+20
2.218598151e+20
2.665566948e+20
1.527108678e+20
2.000320751e+20
2.011151309e+20
1.993655792e+20
2.009901629e+20
2.034062105e+20
2.027813706e+20
2.015316908e+20
1.989490193e+20
1.993239232e+20
2.001986991e+20
2.016566588e+20
2.034062105e+20
2.095296414e+20
2.096129533e+20
2.085715535e+20
2.067803459e+20
2.094879854e+20
2.182357438e+20
2.353980126e+20
1.57084747e+20
1.992406113e+20
2.024897787e+20
2.047392022e+20
2.00573603e+20
2.014067229e+20
1.975327156e+20
1.990323313e+20
1.997821392e+20
2.00698571e+20
2.009901629e+20
2.026564026e+20
2.016983148e+20
1.966579397e+20
1.95241636e+20
1.977409955e+20
1.968662197e+20
2.055723221e+20
2.131120567e+20
2.265252862e+20
1.546686995e+20
2.00531947e+20
2.001570431e+20
1.967412517e+20
1.989490193e+20
1.996571712e+20
2.001153871e+20
2.015316908e+20
2.025314347e+20
1.991572993e+20
1.997821392e+20
2.013650669e+20
2.021148747e+20
2.027397146e+20
2.010734749e+20
2.014067229e+20
2.041143624e+20
2.056556341e+20
2.066137219e+20
2.144450485e+20
1.555018193e+20
1.972827796e+20
1.976576836e+20
1.965329718e+20
1.966162837e+20
1.95241636e+20
1.944085162e+20
1.985324594e+20
1.946584521e+20
1.983241794e+20
1.974910596e+20
1.9519998e+20
1.946167961e+20
2.033645545e+20
2.052807301e+20
2.077384337e+20
2.071135938e+20
2.102377932e+20
2.094046734e+20
2.145700164e+20
1.566265311e+20
2.001986991e+20
2.036561464e+20
2.056972901e+20
2.070302818e+20
2.036978024e+20
2.016983148e+20
2.016983148e+20
2.00740227e+20
1.985324594e+20
1.993239232e+20
2.031562745e+20
2.00490291e+20
1.967412517e+20
1.959081319e+20
1.968245637e+20
1.997404832e+20
2.029063386e+20
2.029896506e+20
2.078217457e+20
1.556684433e+20
1.990739873e+20
1.991989553e+20
1.934920843e+20
1.961580678e+20
1.974494036e+20
2.000737311e+20
1.998654511e+20
1.996988272e+20
2.036978024e+20
2.024064667e+20
2.042393303e+20
2.056972901e+20
2.064054419e+20
2.070302818e+20
2.06030538e+20
2.039060824e+20
2.046975463e+20
2.094463294e+20
2.104044172e+20
1.562516272e+20
2.00615259e+20
2.002403551e+20
2.014067229e+20
2.012817549e+20
2.031979305e+20
2.015733468e+20
2.025314347e+20
2.011151309e+20
2.023231547e+20
1.990323313e+20
2.017399708e+20
1.970328437e+20
1.967829077e+20
1.980742435e+20
1.989490193e+20
1.999071071e+20
2.003653231e+20
1.988657073e+20
2.003653231e+20
1.559600352e+20
1.989906753e+20
2.040727064e+20
2.084882416e+20
2.0632213e+20
2.0611385e+20
2.0611385e+20
2.043642983e+20
2.018649388e+20
2.039060824e+20
2.035311785e+20
2.079050577e+20
2.104044172e+20
2.084049296e+20
2.077800897e+20
2.082383056e+20
2.074884977e+20
2.099045453e+20
2.123622488e+20
2.098628893e+20
1.560850032e+20
1.990323313e+20
2.013650669e+20
1.993655792e+20
1.994905472e+20
2.031979305e+20
2.033645545e+20
2.106543532e+20
2.088631455e+20
2.082383056e+20
2.080300256e+20
2.028646826e+20
1.991989553e+20
2.034062105e+20
2.045725783e+20
2.023231547e+20
2.066970339e+20
2.067803459e+20
2.055723221e+20
2.084049296e+20
1.548769794e+20
2.025730906e+20
2.021565307e+20
2.00865195e+20
2.014900348e+20
2.034895225e+20
1.981992115e+20
1.974494036e+20
1.957415079e+20
1.942418922e+20
1.937836763e+20
1.960747558e+20
1.999904191e+20
1.989906753e+20
1.989490193e+20
1.998654511e+20
1.972827796e+20
1.944918281e+20
1.940336122e+20
1.973244356e+20
1.541688276e+20
2.003653231e+20
2.050307942e+20
2.017399708e+20
2.023231547e+20
2.020315627e+20
2.051974182e+20
2.036144905e+20
2.048641702e+20
2.017816268e+20
2.026564026e+20
1.985324594e+20
1.968662197e+20
1.944918281e+20
1.964496598e+20
1.968662197e+20
1.958664759e+20
1.981992115e+20
1.990323313e+20
2.00490291e+20
1.567098431e+20
1.982408674e+20
1.95449916e+20
1.958664759e+20
1.955748839e+20
1.949500441e+20
1.980325875e+20
1.987823953e+20
1.983658354e+20
2.033228985e+20
2.021148747e+20
2.00781883e+20
2.018232828e+20
1.997404832e+20
1.976160276e+20
1.986157714e+20
2.002820111e+20
1.990739873e+20
2.003236671e+20
1.985741154e+20
1.536689557e+20
1.949083881e+20
1.984908034e+20
1.95366604e+20
1.986157714e+20
1.949083881e+20
1.949500441e+20
1.920757806e+20
1.927006205e+20
1.877435574e+20
1.920757806e+20
1.981992115e+20
1.982825234e+20
1.996155152e+20
2.033645545e+20
2.016150028e+20
2.037811144e+20
2.022398427e+20
2.032395865e+20
1.982825234e+20
1.557517553e+20
2.00865195e+20
1.996988272e+20
2.014067229e+20
2.015316908e+20
2.022814987e+20
2.019899068e+20
2.014067229e+20
2.009901629e+20
2.011984429e+20
1.993239232e+20
1.95241636e+20
1.95449916e+20
1.965329718e+20
1.933671163e+20
1.943668602e+20
1.929505564e+20
1.936587083e+20
1.986157714e+20
1.998654511e+20
1.505447562e+20
1.949083881e+20
1.961997238e+20
1.955332279e+20
1.958664759e+20
1.958664759e+20
1.980742435e+20
1.979909315e+20
2.001153871e+20
1.978659635e+20
1.973660916e+20
1.976576836e+20
1.964496598e+20
2.011151309e+20
2.019899068e+20
2.028646826e+20
2.057389461e+20
2.050724502e+20
2.026980586e+20
2.044476103e+20
1.57417995e+20
2.002403551e+20
2.013234109e+20
1.999487631e+20
1.987407394e+20
1.989906753e+20
1.971161557e+20
1.976576836e+20
1.974910596e+20
2.010318189e+20
2.014067229e+20
2.030729626e+20
2.049058262e+20
2.011984429e+20
2.031146185e+20
2.001153871e+20
1.994072352e+20
2.025314347e+20
2.018232828e+20
1.992822673e+20
1.536689557e+20
1.997821392e+20
2.010318189e+20
2.05947226e+20
2.068636579e+20
2.032812425e+20
2.030313066e+20
2.065304099e+20
2.041560184e+20
2.034062105e+20
2.050724502e+20
2.045725783e+20
2.024481227e+20
2.036144905e+20
2.031146185e+20
2.038644264e+20
2.020732187e+20
1.976160276e+20
1.961580678e+20
1.95449916e+20
1.582094588e+20
2.041560184e+20
2.039477384e+20
2.015316908e+20
1.984908034e+20
2.031146185e+20
2.026147466e+20
2.051141062e+20
2.036561464e+20
2.043642983e+20
2.011567869e+20
1.997404832e+20
2.00823539e+20
1.978243075e+20
1.978243075e+20
1.991156433e+20
2.00448635e+20
2.036144905e+20
2.048225142e+20
2.051557622e+20
1.546686995e+20
1.961164118e+20
1.976993395e+20
1.972827796e+20
1.974910596e+20
1.9540826e+20
1.935753963e+20
1.957415079e+20
1.942002362e+20
1.922840605e+20
1.991572993e+20
1.996571712e+20
2.028646826e+20
2.057806021e+20
2.06238818e+20
2.047392022e+20
2.037811144e+20
2.045309223e+20
2.06155506e+20
2.074884977e+20
1.57209715e+20
2.043226423e+20
2.039060824e+20
2.009485069e+20
2.00823539e+20
2.009485069e+20
1.994905472e+20
2.002403551e+20
2.018649388e+20
2.030313066e+20
1.991572993e+20
1.971161557e+20
2.009485069e+20
1.996571712e+20
2.00906851e+20
2.012400989e+20
2.033228985e+20
2.022398427e+20
1.974910596e+20
1.961580678e+20
1.530441158e+20
1.944501721e+20
1.9540826e+20
1.976160276e+20
1.995738592e+20
2.023648107e+20
2.022814987e+20
2.030313066e+20
2.014067229e+20
1.997821392e+20
2.039060824e+20
2.072802178e+20
2.016983148e+20
1.996155152e+20
1.991156433e+20
1.932421484e+20
1.880768053e+20
1.940336122e+20
1.973244356e+20
1.979909315e+20
1.575846189e+20
2.063637859e+20
2.06197162e+20
2.06030538e+20
2.086548655e+20
2.068636579e+20
2.094879854e+20
2.036561464e+20
2.049474822e+20
2.050724502e+20
2.053223861e+20
1.996571712e+20
1.982408674e+20
2.014483789e+20
2.024064667e+20
2.064470979e+20
2.088214895e+20
2.065720659e+20
2.016983148e+20
1.990323313e+20
1.541688276e+20
1.942835482e+20
1.973244356e+20
1.994905472e+20
2.001570431e+20
1.986990834e+20
1.95075012e+20
1.987823953e+20
1.981158995e+20
2.015316908e+20
1.956998519e+20
1.960747558e+20
1.999904191e+20
2.001570431e+20
1.987407394e+20
1.971161557e+20
1.933671163e+20
1.927839325e+20
1.956998519e+20
1.965746278e+20
1.51627812e+20
1.992406113e+20
1.987823953e+20
1.978243075e+20
1.955748839e+20
1.962830358e+20
1.986990834e+20
1.956998519e+20
1.981158995e+20
1.985324594e+20
1.985324594e+20
2.001570431e+20
2.00615259e+20
1.975743716e+20
1.966995957e+20
1.95075012e+20
1.965329718e+20
2.001153871e+20
2.024897787e+20
2.00656915e+20
1.561683152e+20
2.003653231e+20
2.013650669e+20
1.986990834e+20
1.988657073e+20
1.984074914e+20
1.978659635e+20
1.977409955e+20
1.949500441e+20
1.937836763e+20
1.956581959e+20
1.95241636e+20
1.946167961e+20
1.971578116e+20
2.011984429e+20
2.057806021e+20
2.050307942e+20
2.067803459e+20
2.00906851e+20
2.043226423e+20
1.552935394e+20
2.030313066e+20
2.032395865e+20
2.022398427e+20
2.051557622e+20
2.023648107e+20
2.011567869e+20
2.016983148e+20
1.994072352e+20
2.042809863e+20
2.049474822e+20
2.019899068e+20
2.019065948e+20
2.016566588e+20
2.00531947e+20
1.999487631e+20
2.00865195e+20
1.975327156e+20
1.998237952e+20
2.00656915e+20
1.559600352e+20
1.994488912e+20
2.014900348e+20
2.012400989e+20
2.011984429e+20
2.057806021e+20
2.054473541e+20
2.037811144e+20
2.056972901e+20
1.986157714e+20
1.968662197e+20
1.997821392e+20
2.00448635e+20
2.017816268e+20
2.014067229e+20
1.985741154e+20
1.990739873e+20
2.038227704e+20
2.045725783e+20
2.019899068e+20
1.555018193e+20
2.00740227e+20
2.037394584e+20
2.041143624e+20
2.030313066e+20
2.05863914e+20
2.050307942e+20
2.053223861e+20
2.045309223e+20
2.091547374e+20
2.11612441e+20
2.076551217e+20
2.053223861e+20
2.014900348e+20
2.00448635e+20
2.017816268e+20
2.00615259e+20
1.961580678e+20
1.960330999e+20
2.00823539e+20
1.550852594e+20
1.966579397e+20
1.971994676e+20
1.979076195e+20
1.960747558e+20
1.918675006e+20
1.982408674e+20
1.988240513e+20
1.971578116e+20
1.960330999e+20
1.956165399e+20
1.999071071e+20
1.988240513e+20
2.003236671e+20
2.00698571e+20
2.010318189e+20
2.022398427e+20
2.038644264e+20
2.025730906e+20
2.050724502e+20
1.539188916e+20
2.00448635e+20
1.997404832e+20
1.968662197e+20
1.974077476e+20
2.022398427e+20
2.014900348e+20
1.996988272e+20
1.983241794e+20
2.000320751e+20
2.037394584e+20
1.983658354e+20
2.012400989e+20
2.042809863e+20
2.049891382e+20
2.011151309e+20
2.043226423e+20
2.043642983e+20
2.051974182e+20
2.016983148e+20
1.585427068e+20
2.046142343e+20
2.071552498e+20
2.071552498e+20
2.067386899e+20
2.072385618e+20
2.049474822e+20
2.050724502e+20
2.051974182e+20
2.019899068e+20
2.036978024e+20
2.041976743e+20
2.078634017e+20
2.046975463e+20
2.06030538e+20
2.091547374e+20
2.037811144e+20
2.041976743e+20
2.039893944e+20
2.026980586e+20
1.582511148e+20
2.00531947e+20
2.031146185e+20
2.034478665e+20
2.012400989e+20
2.003236671e+20
1.999487631e+20
1.989073633e+20
1.986990834e+20
2.021148747e+20
2.003236671e+20
1.997404832e+20
1.983241794e+20
1.987407394e+20
1.964080038e+20
1.947834201e+20
1.969495317e+20
1.95075012e+20
1.942002362e+20
1.915759087e+20
1.567514991e+20
1.965329718e+20
1.964496598e+20
1.997404832e+20
1.999487631e+20
1.990323313e+20
1.969911877e+20
2.016150028e+20
2.026980586e+20
2.033228985e+20
2.049474822e+20
2.036144905e+20
2.009901629e+20
1.994072352e+20
2.009901629e+20
1.998237952e+20
1.967829077e+20
1.969495317e+20
1.931588364e+20
1.970744997e+20
1.545853875e+20
2.002403551e+20
2.052390742e+20
1.982825234e+20
2.001986991e+20
2.026147466e+20
2.002403551e+20
2.00615259e+20
1.996988272e+20
1.931588364e+20
1.937836763e+20
1.95491572e+20
1.988657073e+20
1.981992115e+20
1.960330999e+20
1.999487631e+20
2.00906851e+20
2.015733468e+20
2.040727064e+20
2.024481227e+20
1.545853875e+20
1.989073633e+20
2.001986991e+20
2.00740227e+20
1.979492755e+20
1.960747558e+20
1.957415079e+20
1.987407394e+20
1.9540826e+20
2.020732187e+20
2.032812425e+20
2.038644264e+20
2.05822258e+20
2.031146185e+20
2.030313066e+20
2.038644264e+20
2.043226423e+20
2.06030538e+20
2.020732187e+20
2.052807301e+20
1.558767233e+20
1.981575555e+20
1.956581959e+20
1.984908034e+20
1.990323313e+20
2.017816268e+20
2.024064667e+20
1.970328437e+20
1.985741154e+20
1.964496598e+20
1.955748839e+20
1.938253323e+20
1.912426607e+20
1.901596049e+20
1.906594768e+20
1.902429169e+20
1.924090285e+20
1.944918281e+20
1.992822673e+20
1.964080038e+20
1.531274278e+20
1.994072352e+20
2.015316908e+20
1.984908034e+20
2.016566588e+20
1.974494036e+20
1.982408674e+20
2.012400989e+20
2.034062105e+20
2.041143624e+20
2.024064667e+20
2.013234109e+20
2.053223861e+20
2.06280474e+20
2.075718097e+20
2.041976743e+20
2.023648107e+20
2.014483789e+20
2.013234109e+20
2.020315627e+20
1.510029722e+20
1.961580678e+20
1.983241794e+20
1.985324594e+20
1.981992115e+20
2.00448635e+20
2.019899068e+20
2.038644264e+20
2.023231547e+20
1.999071071e+20
2.031562745e+20
2.027813706e+20
2.035311785e+20
1.999904191e+20
2.001570431e+20
1.982825234e+20
1.997821392e+20
1.974494036e+20
1.966579397e+20
1.959914439e+20
4.804919018e+20
5.717242527e+20
5.94797256e+20
5.697523679e+20
5.682943928e+20
5.836523419e+20
5.928649052e+20
5.963266881e+20
5.952396505e+20
5.948939957e+20
5.746668365e+20
5.663899262e+20
5.719692207e+20
5.768522411e+20
5.446919302e+20
5.499540372e+20
5.469429754e+20
5.373114667e+20
5.516949233e+20
5.506922124e+20
5.092457797e+20
5.199916989e+20
5.428154821e+20
5.239539126e+20
5.349332838e+20
5.327852002e+20
5.036621996e+20
5.014725826e+20
5.119610221e+20
5.239312745e+20
5.185471014e+20
4.959938336e+20
4.780748101e+20
5.02202742e+20
4.96542644e+20
4.883638579e+20
4.545384488e+20
4.727325502e+20
4.150494128e+20
3.432441216e+20
3.369797478e+20
3.893853392e+20
4.134845398e+20
4.708672568e+20
4.706490129e+20
4.944489698e+20
4.984058033e+20
5.090925627e+20
5.056507988e+20
5.144968961e+20
5.139606977e+20
5.145013591e+20
5.21197333e+20
4.989079149e+20
4.807655097e+20
5.005848574e+20
5.041411912e+20
5.060025862e+20
5.121349418e+20
5.170185168e+20
4.827134839e+20
4.717747305e+20
4.836833257e+20
4.804109368e+20
4.85634824e+20
4.716880611e+20
4.83737325e+20
4.721038384e+20
4.6192788e+20
4.841581615e+20
4.822177854e+20
4.694786072e+20
4.467273965e+20
4.628079428e+20
4.407904875e+20
4.347482086e+20
4.211686752e+20
3.915104866e+20
3.92806558e+20
3.259223731e+20
2.723512041e+20
3.12442695e+20
3.417308162e+20
3.863219803e+20
4.208808133e+20
4.355427153e+20
4.504570201e+20
4.663315972e+20
4.683737002e+20
4.835852135e+20
4.749257077e+20
4.868847088e+20
4.854521027e+20
4.739051734e+20
4.63940335e+20
4.773440826e+20
4.82458708e+20
4.66795544e+20
4.63423736e+20
4.630253171e+20
4.650414252e+20
4.600621066e+20
4.60119014e+20
4.377110487e+20
4.69935315e+20
4.377620095e+20
4.347383988e+20
4.42068788e+20
4.340168302e+20
4.355234108e+20
4.415773193e+20
4.361754818e+20
4.333539263e+20
4.249781424e+20
4.193389741e+20
4.054134163e+20
3.924551485e+20
3.911189198e+20
3.745154794e+20
3.336145973e+20
2.512403279e+20
2.707724449e+20
3.032474254e+20
3.227316408e+20
3.498386415e+20
3.783244435e+20
4.009390046e+20
4.2155112e+20
4.186266823e+20
4.35658743e+20
4.56529908e+20
4.606692302e+20
4.594058966e+20
4.628947922e+20
4.498885401e+20
4.560594454e+20
4.677690609e+20
4.659915396e+20
4.65806867e+20
4.555796356e+20
4.620880131e+20
4.57280358e+20
4.773863906e+20
4.484728095e+20
4.574357056e+20
4.43206309e+20
4.46429014e+20
4.470404602e+20
4.437340102e+20
4.415180478e+20
4.264882987e+20
4.207966506e+20
4.307327258e+20
4.241686599e+20
4.082320992e+20
3.894825368e+20
3.872445861e+20
4.022505946e+20
3.6378923e+20
3.302528094e+20
2.302548629e+20
2.435815541e+20
2.68324172e+20
2.867113417e+20
3.092676741e+20
3.466423144e+20
3.790569237e+20
3.884047864e+20
4.045648589e+20
4.102701855e+20
4.33153782e+20
4.44352355e+20
4.512095377e+20
4.538112267e+20
4.506281082e+20
4.586676289e+20
4.629820193e+20
4.642889418e+20
4.386391688e+20
4.502956032e+20
4.47272534e+20
4.596228835e+20
4.608569364e+20
4.433646928e+20
4.313365211e+20
4.400808778e+20
4.387030425e+20
4.300752703e+20
4.288998043e+20
4.25879864e+20
4.38790845e+20
4.232890812e+20
4.185896149e+20
4.128359098e+20
4.039309082e+20
4.084347893e+20
4.005481487e+20
3.755122022e+20
3.618133419e+20
3.28144572e+20
2.207236159e+20
2.312488437e+20
2.455223388e+20
2.674208492e+20
2.800428241e+20
2.966087872e+20
3.258337742e+20
3.474438199e+20
3.626889243e+20
3.767305645e+20
3.883308461e+20
4.01277613e+20
4.217481829e+20
4.340842937e+20
4.478085051e+20
4.389199568e+20
4.506389609e+20
4.579042003e+20
4.504118381e+20
4.425617017e+20
4.479019495e+20
4.451285107e+20
4.607093513e+20
4.474313481e+20
4.504359239e+20
4.444161534e+20
4.496820547e+20
4.287939108e+20
4.305021053e+20
4.313532289e+20
4.246481741e+20
4.139026923e+20
4.336748918e+20
4.233052126e+20
4.114443788e+20
4.13268988e+20
3.916791093e+20
3.756240777e+20
3.642973142e+20
3.464919473e+20
2.147874883e+20
2.261979042e+20
2.272978257e+20
2.42624885e+20
2.531817494e+20
2.662683878e+20
2.890003915e+20
3.050779768e+20
3.23643043e+20
3.396721781e+20
3.514943783e+20
3.69999835e+20
3.74801262e+20
3.96511366e+20
4.252054536e+20
4.35799452e+20
4.333211337e+20
4.443780073e+20
4.511267775e+20
4.560119654e+20
4.431087069e+20
4.309757575e+20
4.356691961e+20
4.363720281e+20
4.309865317e+20
4.36048063e+20
4.36822378e+20
4.441702164e+20
4.346370772e+20
4.236383945e+20
4.177082786e+20
4.186754346e+20
4.128122769e+20
4.029062645e+20
3.819349441e+20
4.15246618e+20
4.02765413e+20
3.963211602e+20
3.793705212e+20
3.624461958e+20
2.140768252e+20
2.158013874e+20
2.25305844e+20
2.268339951e+20
2.399016335e+20
2.491721566e+20
2.528644451e+20
2.745218864e+20
2.947676629e+20
3.133482524e+20
3.265030113e+20
3.436035607e+20
3.574523036e+20
3.749952459e+20
3.907693124e+20
4.082272303e+20
4.142198988e+20
4.205416391e+20
4.293926193e+20
4.232509668e+20
4.357977999e+20
4.477638511e+20
4.509687802e+20
4.511012579e+20
4.478360066e+20
4.415931843e+20
4.493770814e+20
4.402748835e+20
4.420800203e+20
4.260362444e+20
4.305891441e+20
4.226527115e+20
4.170917838e+20
4.179626295e+20
4.011541866e+20
4.086545227e+20
4.044837829e+20
3.92069864e+20
3.816286756e+20
3.723036316e+20
2.042111484e+20
2.106241743e+20
2.119553282e+20
2.195360436e+20
2.252032535e+20
2.409486531e+20
2.492029015e+20
2.507267701e+20
2.683243592e+20
2.84084599e+20
2.993131222e+20
3.232187665e+20
3.400578088e+20
3.516440614e+20
3.600310122e+20
3.724112876e+20
3.890644642e+20
3.977457473e+20
4.079920988e+20
4.195041074e+20
4.301814739e+20
4.317077965e+20
4.42605664e+20
4.431167266e+20
4.399362527e+20
4.434583571e+20
4.362632609e+20
4.473479877e+20
4.450778756e+20
4.444893008e+20
4.388434207e+20
4.382436721e+20
4.31160678e+20
4.237369357e+20
4.071976332e+20
4.060176911e+20
4.144060319e+20
4.090190999e+20
3.889112347e+20
3.668336091e+20
2.114013876e+20
2.138231028e+20
2.194570467e+20
2.217979818e+20
2.20045927e+20
2.245882094e+20
2.329874951e+20
2.419462843e+20
2.544836333e+20
2.663126086e+20
2.758023926e+20
2.876470743e+20
3.08410758e+20
3.203562271e+20
3.301709485e+20
3.424171817e+20
3.576671022e+20
3.724432538e+20
3.823496045e+20
3.935643125e+20
4.038912636e+20
4.11210704e+20
4.093991681e+20
4.217915785e+20
4.30336551e+20
4.312590969e+20
4.37432326e+20
4.412487198e+20
4.428036419e+20
4.494935233e+20
4.364249713e+20
4.274254559e+20
4.319630862e+20
4.34044342e+20
4.288669321e+20
4.237064607e+20
4.179536453e+20
4.086834716e+20
3.950647148e+20
3.725315493e+20
2.067193713e+20
2.089405278e+20
2.129301278e+20
2.103175783e+20
2.109346503e+20
2.197406703e+20
2.244438936e+20
2.353170175e+20
2.412619815e+20
2.496541514e+20
2.626112581e+20
2.636915506e+20
2.798601079e+20
2.981978335e+20
3.101563859e+20
3.215051429e+20
3.34154282e+20
3.442558035e+20
3.587089416e+20
3.744457245e+20
3.856382024e+20
3.964723189e+20
3.972480544e+20
4.151460675e+20
4.212368388e+20
4.210762404e+20
4.304179498e+20
4.31459135e+20
4.414597765e+20
4.421957006e+20
4.416298951e+20
4.476300625e+20
4.364030783e+20
4.331269289e+20
4.236401637e+20
4.201906804e+20
4.128539493e+20
3.997333819e+20
4.01782738e+20
4.093972515e+20
1.965192648e+20
1.928617041e+20
1.943241713e+20
2.005869759e+20
2.06379012e+20
2.11300759e+20
2.16161832e+20
2.164828771e+20
2.202576862e+20
2.271162397e+20
2.303064399e+20
2.487758493e+20
2.537228337e+20
2.654419496e+20
2.804349913e+20
2.960753558e+20
3.103129334e+20
3.282230032e+20
3.343533359e+20
3.463923207e+20
3.627371572e+20
3.786105705e+20
3.861792231e+20
3.960030281e+20
4.119871245e+20
4.185557313e+20
4.249792793e+20
4.244372922e+20
4.234726553e+20
4.347936271e+20
4.358992178e+20
4.244557469e+20
4.22976107e+20
4.17908664e+20
4.136222053e+20
4.171143763e+20
4.069227769e+20
4.085715955e+20
4.048877014e+20
4.1384164e+20
2.040021298e+20
2.116764539e+20
2.105567037e+20
2.084824209e+20
2.066798552e+20
2.040294502e+20
2.084464358e+20
2.149023865e+20
2.209209777e+20
2.196332953e+20
2.284668584e+20
2.303798129e+20
2.383318919e+20
2.514495897e+20
2.650889526e+20
2.767002834e+20
2.883957962e+20
3.096363162e+20
3.201975378e+20
3.295794889e+20
3.455492594e+20
3.520619506e+20
3.656649864e+20
3.749258476e+20
3.833880182e+20
3.968793504e+20
4.088157296e+20
4.199781636e+20
4.239895266e+20
4.273394299e+20
4.285913018e+20
4.324633526e+20
4.36510066e+20
4.200133177e+20
4.126966252e+20
4.171693031e+20
4.316452303e+20
4.288771115e+20
4.192834577e+20
3.993688634e+20
1.988184685e+20
1.954292637e+20
1.964009167e+20
2.013551808e+20
2.01479552e+20
2.031205365e+20
2.080977166e+20
2.109950718e+20
2.092470109e+20
2.072953456e+20
2.137502187e+20
2.246395288e+20
2.389238511e+20
2.508073156e+20
2.516380572e+20
2.626812973e+20
2.68262058e+20
2.753005931e+20
2.881205889e+20
3.054170515e+20
3.197432127e+20
3.378603969e+20
3.447571942e+20
3.507242821e+20
3.64838598e+20
3.809497364e+20
3.963118543e+20
4.018341195e+20
4.027978034e+20
4.1003317e+20
4.165516225e+20
4.201072533e+20
4.246879184e+20
4.358252028e+20
4.267435552e+20
4.27222241e+20
4.196720224e+20
4.239545584e+20
4.117750828e+20
4.114485075e+20
1.974807513e+20
1.984177379e+20
2.024192457e+20
2.01227148e+20
2.072385679e+20
2.086173008e+20
2.065284852e+20
2.044536114e+20
2.127403586e+20
2.19321506e+20
2.228135167e+20
2.258599062e+20
2.272668096e+20
2.314015199e+20
2.342582078e+20
2.442377186e+20
2.503341197e+20
2.647539481e+20
2.735358246e+20
2.792851112e+20
2.893375914e+20
3.000871871e+20
3.091401577e+20
3.257292284e+20
3.393393976e+20
3.442511248e+20
3.558013313e+20
3.690313373e+20
3.853275566e+20
4.019013179e+20
4.054057287e+20
4.256224241e+20
4.298233309e+20
4.289715871e+20
4.331681239e+20
4.264531678e+20
4.190068479e+20
4.029777894e+20
4.162349483e+20
4.136707055e+20
2.006996361e+20
2.052365061e+20
2.047079069e+20
2.066045861e+20
2.047458588e+20
2.051114914e+20
2.032156602e+20
2.065609251e+20
2.065938367e+20
2.121058107e+20
2.140194255e+20
2.138369423e+20
2.158829766e+20
2.205746446e+20
2.280643229e+20
2.321748717e+20
2.335325439e+20
2.405865191e+20
2.520399811e+20
2.589175716e+20
2.771366065e+20
2.953045277e+20
3.069755839e+20
3.118926793e+20
3.214399543e+20
3.32606373e+20
3.455339242e+20
3.61138167e+20
3.643425787e+20
3.756291695e+20
3.773832635e+20
3.810238122e+20
4.037183172e+20
4.165595271e+20
4.082865425e+20
4.194765339e+20
4.235522286e+20
4.299958727e+20
4.20017359e+20
4.157219652e+20
2.05841493e+20
2.035107671e+20
2.016563577e+20
1.995200234e+20
2.012646634e+20
2.031205365e+20
2.060489973e+20
2.074389766e+20
2.079646448e+20
2.083197977e+20
2.099813232e+20
2.137917447e+20
2.143803124e+20
2.199323724e+20
2.262616256e+20
2.287283423e+20
2.292617483e+20
2.39782511e+20
2.499428216e+20
2.60118488e+20
2.656618769e+20
2.754418742e+20
2.929550667e+20
2.965187358e+20
3.00490609e+20
3.101738401e+20
3.180863902e+20
3.283353815e+20
3.464071446e+20
3.578537645e+20
3.688135343e+20
3.759328823e+20
3.789506472e+20
3.900624806e+20
3.988130386e+20
3.984917274e+20
4.10359531e+20
4.076206484e+20
4.202996287e+20
4.183430154e+20
1.985258429e+20
1.993437434e+20
2.004272654e+20
2.012698247e+20
2.037143921e+20
2.050682084e+20
2.058310469e+20
2.048048294e+20
2.067707164e+20
2.127293893e+20
2.112376232e+20
2.132945546e+20
2.142892387e+20
2.189689624e+20
2.176641461e+20
2.189010827e+20
2.216118714e+20
2.245064293e+20
2.281133397e+20
2.320170429e+20
2.355467489e+20
2.409384341e+20
2.406117937e+20
2.568440429e+20
2.692915862e+20
2.844646526e+20
3.002454948e+20
3.123952753e+20
3.284717106e+20
3.376283806e+20
3.426311936e+20
3.477737176e+20
3.603882739e+20
3.752219707e+20
3.961996493e+20
3.974479731e+20
4.024328203e+20
4.079562768e+20
4.078233066e+20
4.104798571e+20
2.037513086e+20
2.052785973e+20
2.022073327e+20
2.045560382e+20
2.041871484e+20
2.035100709e+20
2.083592569e+20
2.09063365e+20
2.051345908e+20
2.038656662e+20
2.043728491e+20
2.077350653e+20
2.104642745e+20
2.066281613e+20
2.052301568e+20
2.111231065e+20
2.104421043e+20
2.11642356e+20
2.0780906e+20
2.099201817e+20
2.153086126e+20
2.24247945e+20
2.378076879e+20
2.491074778e+20
2.620418106e+20
2.699465161e+20
2.745261415e+20
2.905096694e+20
3.020079e+20
3.184976722e+20
3.371633949e+20
3.490464455e+20
3.608162249e+20
3.645907715e+20
3.762726091e+20
3.869006357e+20
3.937300755e+20
3.991180632e+20
3.986777709e+20
3.970896896e+20
2.024553921e+20
2.051102326e+20
2.087766341e+20
2.09464016e+20
2.06851767e+20
2.104351279e+20
2.077054098e+20
2.047170246e+20
2.039848834e+20
2.009704783e+20
2.025332677e+20
2.000964159e+20
1.975777759e+20
2.001136855e+20
2.061083955e+20
2.073039828e+20
2.134926716e+20
2.19256753e+20
2.225844748e+20
2.256281678e+20
2.270738443e+20
2.30836296e+20
2.352987547e+20
2.383953107e+20
2.462923028e+20
2.578480749e+20
2.697482401e+20
2.716480677e+20
2.866568225e+20
2.961871945e+20
3.150293252e+20
3.255539573e+20
3.369579542e+20
3.512073328e+20
3.560733446e+20
3.672342428e+20
3.742181777e+20
3.789803579e+20
3.878950636e+20
3.885997536e+20
2.046291853e+20
2.037633141e+20
2.01147768e+20
2.008003671e+20
1.996744878e+20
1.939881194e+20
1.955438549e+20
1.951023941e+20
1.954947257e+20
1.963827214e+20
1.948160068e+20
1.994184322e+20
1.999000789e+20
2.015817364e+20
2.052763799e+20
2.078628791e+20
2.070630192e+20
2.075277464e+20
2.119557087e+20
2.12466126e+20
2.151149479e+20
2.245407624e+20
2.237871702e+20
2.281790791e+20
2.340926859e+20
2.387930246e+20
2.4987419e+20
2.562717578e+20
2.69445006e+20
2.742937377e+20
2.865862545e+20
3.054554101e+20
3.200003913e+20
3.230373532e+20
3.401208203e+20
3.4553528e+20
3.590299417e+20
3.695827671e+20
3.804995967e+20
3.929301872e+20
1.934675934e+20
1.964394519e+20
1.937731975e+20
1.933317031e+20
1.917665873e+20
1.94464217e+20
1.97854113e+20
1.976487336e+20
1.992976088e+20
2.020840116e+20
2.018153828e+20
2.008648006e+20
2.057285976e+20
2.028662794e+20
1.992211658e+20
1.997588801e+20
2.036369961e+20
2.089465746e+20
2.126229838e+20
2.106407315e+20
2.160832765e+20
2.170251586e+20
2.196548031e+20
2.204425105e+20
2.291428406e+20
2.351130852e+20
2.3772612e+20
2.484298461e+20
2.584356517e+20
2.718437601e+20
2.780165363e+20
2.771901832e+20
2.897763514e+20
2.9756565e+20
3.062013009e+20
3.299889449e+20
3.325891106e+20
3.490534989e+20
3.520468079e+20
3.64212555e+20
1.980241983e+20
1.966499091e+20
1.979266912e+20
1.948681127e+20
1.990727997e+20
1.976237736e+20
1.975925756e+20
1.971219044e+20
1.980594594e+20
1.978971266e+20
2.006039521e+20
1.997348245e+20
1.980331306e+20
2.028662809e+20
2.025029994e+20
2.027396608e+20
2.007272272e+20
2.007646498e+20
1.996110879e+20
2.020902069e+20
2.05673708e+20
2.072646404e+20
2.201467546e+20
2.27732737e+20
2.294928278e+20
2.334495455e+20
2.396067822e+20
2.425868499e+20
2.433430076e+20
2.455716074e+20
2.542526375e+20
2.635613543e+20
2.655971174e+20
2.856932422e+20
2.880709557e+20
2.920295015e+20
3.06758023e+20
3.176722468e+20
3.370300613e+20
3.491130045e+20
1.988184702e+20
1.995962904e+20
1.950446752e+20
1.98794496e+20
2.00190219e+20
2.015624004e+20
2.030848907e+20
2.070877557e+20
2.037637855e+20
2.015049743e+20
2.004693501e+20
1.944917289e+20
1.953010096e+20
1.947002479e+20
1.971873534e+20
1.960794804e+20
1.960340491e+20
1.948055562e+20
1.982288717e+20
2.021862802e+20
2.078040399e+20
2.099975876e+20
2.123247805e+20
2.100774987e+20
2.109434075e+20
2.135375259e+20
2.180553891e+20
2.229564329e+20
2.243221438e+20
2.32383406e+20
2.391636182e+20
2.461673676e+20
2.575195414e+20
2.612468805e+20
2.771818651e+20
2.923041719e+20
3.053168009e+20
3.134768922e+20
3.245537361e+20
3.362926314e+20
1.968536943e+20
1.983335556e+20
2.022073327e+20
2.019099959e+20
2.026829282e+20
2.011728646e+20
1.971566776e+20
1.954536135e+20
1.969981897e+20
1.990551997e+20
1.993925214e+20
2.03124757e+20
2.030875517e+20
2.0139823e+20
2.00792748e+20
2.03484856e+20
2.064998363e+20
2.07858807e+20
2.074754216e+20
2.079026437e+20
2.064483751e+20
2.036044438e+20
2.023874282e+20
2.045726351e+20
2.067935389e+20
2.106641456e+20
2.118542767e+20
2.107578953e+20
2.239086468e+20
2.211239158e+20
2.283857477e+20
2.342355135e+20
2.425412527e+20
2.524505075e+20
2.595959774e+20
2.696713362e+20
2.780444965e+20
2.927798098e+20
2.990365525e+20
3.046120622e+20
2.02915233e+20
1.983756454e+20
1.998762903e+20
2.002455521e+20
2.012216857e+20
1.976670552e+20
2.002079624e+20
1.982194637e+20
2.012874881e+20
2.019503876e+20
2.028024745e+20
2.010907961e+20
2.028598721e+20
2.052977386e+20
2.077262008e+20
2.029259626e+20
2.041532488e+20
2.053522048e+20
2.044250134e+20
2.046841863e+20
2.0538321e+20
2.07508655e+20
2.048471701e+20
2.08490511e+20
2.062435544e+20
2.030017981e+20
2.109901912e+20
2.104503709e+20
2.103666187e+20
2.148686406e+20
2.183439213e+20
2.212430524e+20
2.375663239e+20
2.481332693e+20
2.539880945e+20
2.580253116e+20
2.593086387e+20
2.690061316e+20
2.740839083e+20
2.892845967e+20
1.994873283e+20
1.991753775e+20
2.003001162e+20
1.984957508e+20