/*--------------------------------*- C++ -*----------------------------------*\
  =========                 |
  \\      /  F ield         | OpenFOAM: The Open Source CFD Toolbox
   \\    /   O peration     | Website:  https://openfoam.org
    \\  /    A nd           | Version:  7
     \\/     M anipulation  |
\*---------------------------------------------------------------------------*/
FoamFile
{
    version     2.0;
    format      ascii;
    class       volScalarField;
    location    "0.001";
    object      iDofMean;
}
// * * * * * * * * * * * * * * * * * * * * * * * * * * * * * * * * * * * * * //

dimensions      [0 -3 0 0 0 0 0];

internalField   nonuniform List<scalar> 
2400
(
1.610837223e+20
1.537939236e+20
1.52086028e+20
1.275506485e+20
1.266342166e+20
1.312163758e+20
1.199276019e+20
1.327159915e+20
1.370898707e+20
1.344238872e+20
1.35756879e+20
1.24634729e+20
1.343405752e+20
1.131793311e+20
1.190111701e+20
1.153037867e+20
1.088471079e+20
1.310497518e+20
1.225519294e+20
1.102634117e+20
1.565015631e+20
1.505031002e+20
1.394226063e+20
1.333408314e+20
1.306331919e+20
1.269674646e+20
1.270507766e+20
1.307165039e+20
1.217188096e+20
1.253845369e+20
1.19136138e+20
1.143040429e+20
1.125128353e+20
1.181363942e+20
1.145123229e+20
1.036401089e+20
1.135958911e+20
1.057645645e+20
1.03015269e+20
9.993272557e+19
1.458792851e+20
1.456710051e+20
1.328409595e+20
1.258010968e+20
1.283004563e+20
1.254678489e+20
1.181363942e+20
1.088054519e+20
1.141790749e+20
1.143040429e+20
1.089720759e+20
1.151788188e+20
1.112214995e+20
1.076390842e+20
1.127627712e+20
1.005992214e+20
1.098885077e+20
1.012657173e+20
8.40617925e+19
9.180980707e+19
1.524609319e+20
1.439214535e+20
1.288003282e+20
1.365899988e+20
1.14012451e+20
1.210523137e+20
1.055979405e+20
1.055979405e+20
1.106799716e+20
1.133042991e+20
1.03181893e+20
1.127627712e+20
1.08263924e+20
1.056395965e+20
1.097635398e+20
1.157203467e+20
1.017655892e+20
1.03140237e+20
9.472572653e+19
9.135159115e+19
1.350903831e+20
1.376313986e+20
1.372564947e+20
1.205107858e+20
1.257177848e+20
1.1921945e+20
1.055146285e+20
9.70584621e+19
1.078057081e+20
9.414254264e+19
9.018522337e+19
9.243464696e+19
1.070975563e+20
1.093053238e+20
9.905794973e+19
1.037650769e+20
9.722508607e+19
9.789158195e+19
9.264292692e+19
8.751923986e+19
1.413387819e+20
1.130960191e+20
1.180530822e+20
1.292585442e+20
1.165118105e+20
1.165951225e+20
1.118463394e+20
1.066393403e+20
1.127211152e+20
1.048897887e+20
1.106383156e+20
1.058062205e+20
1.08597172e+20
1.075974282e+20
9.243464696e+19
8.843567169e+19
8.614459211e+19
9.293451886e+19
7.881313747e+19
7.69802738e+19
1.220520575e+20
1.196776659e+20
1.166367785e+20
1.212189376e+20
1.041816368e+20
1.067643083e+20
1.14012451e+20
1.129710512e+20
1.186362661e+20
1.051397246e+20
1.110132195e+20
1.158869706e+20
1.038900448e+20
1.009324694e+20
9.006025539e+19
8.068765712e+19
8.881057562e+19
8.293708071e+19
8.526981628e+19
8.551975223e+19
1.420885898e+20
1.283421123e+20
1.13970795e+20
1.171366504e+20
1.143040429e+20
1.200942259e+20
1.184696422e+20
1.089720759e+20
1.064310604e+20
9.984941359e+19
1.003492855e+20
1.050147566e+20
1.058895325e+20
9.343439077e+19
9.418419863e+19
9.280955089e+19
8.835235971e+19
8.581134418e+19
8.472828838e+19
7.893810544e+19
1.167200905e+20
1.212605936e+20
1.168867144e+20
1.034734849e+20
1.118463394e+20
1.266342166e+20
1.116797154e+20
9.843310985e+19
9.984941359e+19
9.930788569e+19
9.564215836e+19
1.018489012e+20
1.070975563e+20
9.701680611e+19
9.897463775e+19
9.247630295e+19
8.377020055e+19
8.422841647e+19
8.047937716e+19
7.614715396e+19
1.188028901e+20
1.124711793e+20
1.111381875e+20
9.81831739e+19
1.03181893e+20
1.059728445e+20
1.062644364e+20
1.044732287e+20
9.97661016e+19
1.041399808e+20
9.92662297e+19
9.672521416e+19
9.251795894e+19
9.59754063e+19
9.447579058e+19
9.397591867e+19
8.385351254e+19
8.143746498e+19
8.24372088e+19
7.489747419e+19
1.231351133e+20
1.018905572e+20
1.008075014e+20
1.015573093e+20
1.018489012e+20
9.718343008e+19
1.063477484e+20
1.042649488e+20
9.105999921e+19
8.972700745e+19
8.864395165e+19
9.718343008e+19
8.810242375e+19
9.564215836e+19
9.422585462e+19
9.547553439e+19
8.647784005e+19
7.960460132e+19
8.472828838e+19
8.901885558e+19
1.204274738e+20
1.099718197e+20
1.002243175e+20
1.015989653e+20
9.43508226e+19
8.543644025e+19
1.157203467e+20
1.185112981e+20
1.008075014e+20
1.08597172e+20
1.008075014e+20
9.743336603e+19
8.685274398e+19
9.535056642e+19
8.73109599e+19
9.897463775e+19
8.331198464e+19
6.989875511e+19
8.443669643e+19
8.302039269e+19
1.195943539e+20
1.148039148e+20
1.155120667e+20
9.401757466e+19
9.143490314e+19
9.70584621e+19
8.964369547e+19
1.048481327e+20
1.053480046e+20
1.010157814e+20
1.107632836e+20
9.797489393e+19
8.02710972e+19
8.843567169e+19
7.960460132e+19
9.00185994e+19
8.314536067e+19
8.335364063e+19
8.601962414e+19
8.481160036e+19
1.225102734e+20
1.153454427e+20
9.81831739e+19
1.001826615e+20
9.339273478e+19
9.855807783e+19
9.739171004e+19
8.718599192e+19
9.510063046e+19
9.610037428e+19
9.59754063e+19
1.063894044e+20
9.447579058e+19
7.91880414e+19
8.939375952e+19
8.564472021e+19
8.102090506e+19
7.64387459e+19
8.143746498e+19
8.885223162e+19
1.155537227e+20
1.071392122e+20
1.162618746e+20
8.926879154e+19
9.135159115e+19
9.464241455e+19
8.931044753e+19
9.884966977e+19
8.706102395e+19
8.739427188e+19
9.930788569e+19
9.722508607e+19
8.997694341e+19
7.060690698e+19
7.798001762e+19
8.377020055e+19
9.176815108e+19
7.739683373e+19
9.372598272e+19
8.214561685e+19
1.186362661e+20
1.092220119e+20
9.539222241e+19
9.393426268e+19
9.035184734e+19
8.560306421e+19
8.94770715e+19
1.008075014e+20
9.322611081e+19
9.160152711e+19
7.981288128e+19
9.522559844e+19
9.343439077e+19
9.560050237e+19
8.106256105e+19
7.856320151e+19
8.106256105e+19
8.431172845e+19
8.868560765e+19
8.289542471e+19
1.116797154e+20
9.455910256e+19
1.000993495e+20
1.026403651e+20
9.593375031e+19
9.305948684e+19
8.318701666e+19
8.6769432e+19
8.389516853e+19
8.560306421e+19
8.389516853e+19
9.655859019e+19
9.522559844e+19
8.960203948e+19
8.072931311e+19
8.002116124e+19
8.285376872e+19
9.555884638e+19
8.6769432e+19
8.343695261e+19
1.184696422e+20
1.147206028e+20
1.03181893e+20
1.034734849e+20
9.455910256e+19
9.276789489e+19
7.748014571e+19
8.94770715e+19
9.201808703e+19
9.947450966e+19
8.860229566e+19
9.180980707e+19
1.008908134e+20
8.656115204e+19
8.114587304e+19
8.797745578e+19
8.589465616e+19
8.252052078e+19
8.339529662e+19
8.743592788e+19
1.164284985e+20
1.080973001e+20
1.027236771e+20
1.060145005e+20
8.835235971e+19
8.872726364e+19
1.008491574e+20
9.851642183e+19
9.293451886e+19
9.05601273e+19
1.004742535e+20
8.968535146e+19
8.901885558e+19
8.635287208e+19
8.114587304e+19
8.78524878e+19
8.6769432e+19
7.881313747e+19
7.914638541e+19
8.268714475e+19
1.170949944e+20
1.03306861e+20
9.11016552e+19
9.610037428e+19
9.226802299e+19
9.551719039e+19
1.015156533e+20
9.530891043e+19
1.005159095e+20
8.427007246e+19
8.768586383e+19
9.660024619e+19
8.968535146e+19
7.914638541e+19
7.897976144e+19
7.410601033e+19
8.985197543e+19
8.685274398e+19
8.106256105e+19
8.02710972e+19
1.080139881e+20
1.063060924e+20
1.024737411e+20
9.122662318e+19
9.789158195e+19
9.276789489e+19
9.635031023e+19
9.072675127e+19
1.005575655e+20
8.764420784e+19
8.793579978e+19
9.676687016e+19
9.701680611e+19
8.672777601e+19
8.156243296e+19
7.514741014e+19
8.997694341e+19
8.493656834e+19
7.993784926e+19
8.08126251e+19
1.053480046e+20
1.024737411e+20
1.02973613e+20
9.180980707e+19
1.08555516e+20
8.939375952e+19
9.230967898e+19
9.230967898e+19
8.806076776e+19
8.193733689e+19
8.943541551e+19
8.331198464e+19
8.935210352e+19
8.910216757e+19
8.156243296e+19
7.789670564e+19
7.993784926e+19
8.701936795e+19
8.24372088e+19
7.706358579e+19
1.010157814e+20
9.930788569e+19
9.010191139e+19
9.626699825e+19
9.455910256e+19
9.193477505e+19
9.639196623e+19
9.314279882e+19
9.006025539e+19
8.043772117e+19
8.593631215e+19
9.439247859e+19
9.143490314e+19
8.814407975e+19
9.497566249e+19
8.389516853e+19
7.802167361e+19
7.952128934e+19
9.322611081e+19
8.385351254e+19
1.208023777e+20
1.041399808e+20
1.081389561e+20
9.205974302e+19
7.627212194e+19
8.601962414e+19
8.739427188e+19
8.522816028e+19
9.285120688e+19
8.052103315e+19
7.989619327e+19
8.639452807e+19
9.205974302e+19
9.051847131e+19
9.576712634e+19
9.560050237e+19
9.060178329e+19
8.522816028e+19
8.414510448e+19
8.214561685e+19
1.225102734e+20
1.198442899e+20
9.618368626e+19
9.92662297e+19
9.914126172e+19
9.859973382e+19
9.714177409e+19
8.318701666e+19
8.443669643e+19
7.927135338e+19
7.964625731e+19
8.35202646e+19
8.556140822e+19
8.647784005e+19
9.051847131e+19
9.464241455e+19
8.397848051e+19
8.956038349e+19
8.897719959e+19
8.631121608e+19
1.281754884e+20
1.095552598e+20
9.643362222e+19
9.572547035e+19
8.931044753e+19
1.055562845e+20
1.018905572e+20
7.243977064e+19
7.931300937e+19
9.047681532e+19
8.94770715e+19
9.235133497e+19
9.247630295e+19
8.481160036e+19
8.714433593e+19
8.581134418e+19
8.856063967e+19
8.73109599e+19
8.831070372e+19
8.576968818e+19
1.291752322e+20
1.022238051e+20
1.004742535e+20
8.822739173e+19
9.59754063e+19
9.393426268e+19
9.210139902e+19
9.035184734e+19
9.235133497e+19
8.202064888e+19
9.87247018e+19
9.551719039e+19
8.56863762e+19
8.876891963e+19
8.185402491e+19
8.322867265e+19
8.756089585e+19
8.56863762e+19
8.876891963e+19
8.810242375e+19
1.215938416e+20
1.186779221e+20
1.13804171e+20
1.005992214e+20
1.071808682e+20
1.114297795e+20
9.955782164e+19
9.235133497e+19
9.205974302e+19
9.076840726e+19
9.018522337e+19
9.676687016e+19
9.310114283e+19
8.960203948e+19
9.197643104e+19
8.618624811e+19
9.097668722e+19
8.247886479e+19
8.726930391e+19
9.130993516e+19
1.186362661e+20
1.24718041e+20
1.19552698e+20
1.106799716e+20
1.02848645e+20
1.058062205e+20
1.053480046e+20
1.017655892e+20
1.011824053e+20
9.343439077e+19
9.368432672e+19
1.007658454e+20
9.268458291e+19
9.097668722e+19
9.105999921e+19
9.735005405e+19
1.013073733e+20
9.151821512e+19
9.589209432e+19
9.460075856e+19
1.170949944e+20
1.217604655e+20
1.156786907e+20
1.125961472e+20
1.001410055e+20
1.090970439e+20
1.123045553e+20
1.038900448e+20
1.124711793e+20
1.057645645e+20
9.610037428e+19
9.405923066e+19
9.210139902e+19
9.993272557e+19
1.02890301e+20
1.053063486e+20
8.876891963e+19
9.343439077e+19
8.51448483e+19
9.289286287e+19
1.212189376e+20
1.19552698e+20
1.144290109e+20
1.055146285e+20
1.115547474e+20
1.08680484e+20
1.170949944e+20
1.059728445e+20
1.095969158e+20
9.585043833e+19
9.743336603e+19
8.810242375e+19
8.976866345e+19
9.197643104e+19
9.485069451e+19
9.11016552e+19
9.285120688e+19
9.060178329e+19
8.747758387e+19
8.772751982e+19
1.19136138e+20
1.360901269e+20
1.388810784e+20
1.174698983e+20
1.238849212e+20
1.150955068e+20
1.101384437e+20
1.169700264e+20
1.045565407e+20
9.335107879e+19
9.893298176e+19
9.251795894e+19
9.610037428e+19
9.343439077e+19
9.901629374e+19
9.81415179e+19
9.847476584e+19
1.005575655e+20
9.201808703e+19
8.997694341e+19
1.269258086e+20
1.337990473e+20
1.221770255e+20
1.175948663e+20
1.147206028e+20
1.003909415e+20
1.08347236e+20
1.220937135e+20
1.08472204e+20
9.92662297e+19
9.189311905e+19
1.000576935e+20
1.078057081e+20
9.397591867e+19
1.074308042e+20
9.839145386e+19
9.555884638e+19
1.02931957e+20
9.214305501e+19
8.94770715e+19
1.283837683e+20
1.24593073e+20
1.370898707e+20
1.19136138e+20
1.124711793e+20
1.147206028e+20
1.277589284e+20
1.120962753e+20
1.099718197e+20
9.655859019e+19
1.134709231e+20
1.060145005e+20
9.726674206e+19
1.044315727e+20
9.576712634e+19
1.038067329e+20
9.680852615e+19
1.017655892e+20
9.101834322e+19
9.11016552e+19
1.377563666e+20
1.361734389e+20
1.219270895e+20
1.196360099e+20
1.14095763e+20
1.106799716e+20
1.211772817e+20
1.161369066e+20
1.097635398e+20
1.126378032e+20
1.074724602e+20
1.017655892e+20
9.739171004e+19
1.008908134e+20
1.024737411e+20
1.003076295e+20
9.864138981e+19
1.13762515e+20
9.710011809e+19
9.668355817e+19
1.471289649e+20
1.567514991e+20
1.501281963e+20
1.240515451e+20
1.142623869e+20
1.14137419e+20
1.172616184e+20
1.213439056e+20
1.196776659e+20
1.226352414e+20
1.141790749e+20
1.040983248e+20
1.102217557e+20
1.063894044e+20
9.572547035e+19
1.062227804e+20
1.075557722e+20
1.110965315e+20
1.041399808e+20
1.063060924e+20
1.433382696e+20
1.418386538e+20
1.552102274e+20
1.189278581e+20
1.405473181e+20
1.155120667e+20
1.205524418e+20
1.212605936e+20
1.197193219e+20
1.128044272e+20
1.260093768e+20
1.08222268e+20
1.14095763e+20
1.177198343e+20
1.021821492e+20
9.255961493e+19
1.03181893e+20
1.074724602e+20
1.209273457e+20
1.208856897e+20
1.35590255e+20
1.501698523e+20
1.329242715e+20
1.330492395e+20
1.306748479e+20
1.250929449e+20
1.186779221e+20
1.360068149e+20
1.231767693e+20
1.212605936e+20
1.252595689e+20
1.088471079e+20
1.125544912e+20
1.117630274e+20
1.080556441e+20
1.015573093e+20
1.077223961e+20
1.08222268e+20
1.177198343e+20
1.133042991e+20
1.437548295e+20
1.696648567e+20
1.546686995e+20
1.307998159e+20
1.346738232e+20
1.474205568e+20
1.396725422e+20
1.328826155e+20
1.325077116e+20
1.294251681e+20
1.228851773e+20
1.200109139e+20
1.296334481e+20
1.150538508e+20
1.204274738e+20
1.264675927e+20
1.090137319e+20
1.1942773e+20
1.211772817e+20
1.221770255e+20
1.476288368e+20
1.73497208e+20
1.618751862e+20
1.541688276e+20
1.310497518e+20
1.35756879e+20
1.366316548e+20
1.330075835e+20
1.244264491e+20
1.185946101e+20
1.402140701e+20
1.331742074e+20
1.485452686e+20
1.276756165e+20
1.269258086e+20
1.286337043e+20
1.24759697e+20
1.278005844e+20
1.288836402e+20
1.243014811e+20
8.097379622e+19
7.319653062e+19
8.463803051e+19
9.380641983e+19
1.028456842e+20
1.020147252e+20
1.015206503e+20
1.031268049e+20
1.120523939e+20
1.076118519e+20
1.12528453e+20
1.14444122e+20
1.056874899e+20
1.254265967e+20
1.284075171e+20
1.394912213e+20
1.33708644e+20
1.302014319e+20
1.222546418e+20
1.227336534e+20
1.311605645e+20
1.441628793e+20
1.335638965e+20
1.475898575e+20
1.455454518e+20
1.490629044e+20
1.508089359e+20
1.418207927e+20
1.561468196e+20
1.593009626e+20
1.656637855e+20
1.565989298e+20
1.659380173e+20
1.743624607e+20
1.83807891e+20
1.884787847e+20
1.820371056e+20
1.995870003e+20
2.052100946e+20
2.325330778e+20
8.778780181e+19
7.500645059e+19
8.32817877e+19
8.108835203e+19
9.433609565e+19
1.00326743e+20
8.831294013e+19
9.592680662e+19
9.507207849e+19
1.050284548e+20
1.125284531e+20
1.126813571e+20
1.125177887e+20
1.151502406e+20
1.049262289e+20
1.043738989e+20
1.213186538e+20
1.149253467e+20
1.182033183e+20
1.192269775e+20
1.242854075e+20
1.373305153e+20
1.456166237e+20
1.330590011e+20
1.414455798e+20
1.39182509e+20
1.352553349e+20
1.404369251e+20
1.495825539e+20
1.476765796e+20
1.459481653e+20
1.562807472e+20
1.660984991e+20
1.731212547e+20
1.606685683e+20
1.846883343e+20
1.815382221e+20
1.684295007e+20
1.930724962e+20
2.221628204e+20
8.193528166e+19
7.732146447e+19
8.476517826e+19
8.386242723e+19
8.488099728e+19
9.084807309e+19
8.752832362e+19
8.784875975e+19
8.963307121e+19
1.040930868e+20
1.041381736e+20
9.952841893e+19
1.025910878e+20
1.13085794e+20
1.16112197e+20
1.133162409e+20
1.237591063e+20
1.201277287e+20
1.183939689e+20
1.220131036e+20
1.234623253e+20
1.253250758e+20
1.350397406e+20
1.257191829e+20
1.230461549e+20
1.268824249e+20
1.351536773e+20
1.263932326e+20
1.393485023e+20
1.503350708e+20
1.530457884e+20
1.517201281e+20
1.466802205e+20
1.672390176e+20
1.632819506e+20
1.716689602e+20
1.778243102e+20
1.821343254e+20
1.854512134e+20
1.911660075e+20
8.494514915e+19
7.744773801e+19
8.832531581e+19
7.297951677e+19
8.423633136e+19
9.379122171e+19
8.927191579e+19
8.398534603e+19
8.994260821e+19
9.705555679e+19
1.03824099e+20
9.930242336e+19
1.056419546e+20
1.042316123e+20
1.023839635e+20
1.101491614e+20
1.161561579e+20
1.205533781e+20
1.113398999e+20
1.170653281e+20
1.260768217e+20
1.232265639e+20
1.229378184e+20
1.21107e+20
1.248460987e+20
1.325787753e+20
1.423713615e+20
1.41872047e+20
1.564569422e+20
1.507520891e+20
1.426885161e+20
1.379852407e+20
1.394585465e+20
1.511573049e+20
1.555506945e+20
1.58484784e+20
1.733897889e+20
1.838124675e+20
1.912095161e+20
2.086017141e+20
8.469432686e+19
7.386998919e+19
7.751775557e+19
8.057621512e+19
7.912198278e+19
7.747405952e+19
8.103344309e+19
8.635607717e+19
9.171139113e+19
9.104247739e+19
9.036375771e+19
8.981061229e+19
9.462240583e+19
9.367999646e+19
9.692964847e+19
1.045601977e+20
1.091633225e+20
1.108580299e+20
1.057157097e+20
1.181701711e+20
1.188143319e+20
1.199567899e+20
1.220031172e+20
1.164452236e+20
1.256460737e+20
1.172036702e+20
1.325105818e+20
1.366441033e+20
1.452925223e+20
1.407957788e+20
1.428462408e+20
1.417504027e+20
1.548112902e+20
1.651343639e+20
1.581640771e+20
1.61121619e+20
1.674586157e+20
1.791136707e+20
1.896288056e+20
2.185161371e+20
7.905082531e+19
7.727937331e+19
7.806872918e+19
7.682054397e+19
7.465229978e+19
7.725765143e+19
7.806933641e+19
8.552193091e+19
8.684723815e+19
8.070888896e+19
7.771103703e+19
8.235276086e+19
9.44858e+19
9.372587319e+19
9.933324498e+19
1.010205206e+20
9.621015099e+19
9.383205262e+19
9.508694359e+19
1.138468721e+20
1.076300977e+20
1.030710903e+20
1.168868573e+20
1.266614568e+20
1.186462923e+20
1.221438679e+20
1.34594561e+20
1.361315595e+20
1.315437457e+20
1.286501231e+20
1.277046447e+20
1.33901896e+20
1.53527438e+20
1.567157493e+20
1.543528932e+20
1.612864215e+20
1.747201461e+20
1.758133248e+20
1.817817064e+20
1.954394638e+20
8.657549404e+19
6.806140884e+19
6.942268104e+19
7.626572904e+19
7.19017258e+19
8.110971371e+19
7.593343619e+19
7.656583558e+19
7.747268907e+19
8.418311259e+19
8.663972995e+19
8.800264828e+19
8.86117429e+19
8.785366955e+19
9.295446976e+19
9.440691346e+19
1.01137988e+20
9.23659268e+19
9.804202655e+19
9.602527325e+19
1.097120116e+20
1.141492806e+20
1.099011951e+20
1.194208255e+20
1.203462392e+20
1.240090445e+20
1.323072667e+20
1.378229531e+20
1.260132232e+20
1.344362519e+20
1.356960437e+20
1.367125105e+20
1.480710616e+20
1.509954096e+20
1.584907516e+20
1.548042029e+20
1.753853243e+20
1.702754568e+20
1.793541884e+20
2.139008048e+20
7.131713801e+19
7.184961347e+19
7.264375782e+19
7.310755101e+19
6.575591173e+19
6.431645384e+19
6.926419638e+19
7.270242186e+19
7.963944807e+19
7.26914496e+19
7.802511154e+19
8.14487788e+19
9.207242775e+19
8.826655899e+19
9.337047683e+19
1.008807965e+20
1.073799149e+20
1.027706907e+20
1.019980248e+20
9.655367645e+19
1.031273541e+20
1.057552333e+20
1.108850911e+20
1.1108914e+20
1.231461521e+20
1.17909413e+20
1.273768766e+20
1.288021865e+20
1.255997252e+20
1.209874126e+20
1.344868169e+20
1.386746349e+20
1.381746925e+20
1.451671367e+20
1.507594928e+20
1.506292111e+20
1.567603314e+20
1.624441269e+20
1.701521935e+20
2.174335259e+20
6.889252254e+19
7.365953338e+19
7.111798456e+19
8.044818083e+19
7.486718849e+19
6.708647608e+19
7.641292396e+19
7.489754329e+19
7.596922365e+19
7.977352098e+19
9.108164264e+19
8.633028163e+19
9.211796295e+19
9.721249395e+19
9.757677066e+19
1.059574386e+20
1.08412414e+20
1.033855177e+20
8.85571635e+19
9.04530212e+19
9.121687077e+19
1.083417712e+20
1.075890394e+20
1.015176205e+20
1.052967097e+20
1.130196245e+20
1.203625075e+20
1.191663693e+20
1.247727316e+20
1.226554855e+20
1.256016452e+20
1.407958555e+20
1.402074612e+20
1.438179997e+20
1.562040393e+20
1.63373916e+20
1.550973886e+20
1.706110852e+20
1.943144825e+20
2.20453438e+20
7.708605075e+19
8.174103653e+19
6.679496052e+19
7.04615101e+19
7.516803248e+19
7.314589977e+19
7.867959375e+19
8.354632174e+19
7.778222607e+19
8.511848051e+19
8.910745919e+19
8.090638953e+19
8.861174297e+19
9.01933757e+19
8.921040608e+19
9.282337365e+19
1.048455985e+20
1.044732886e+20
9.527759403e+19
9.78026291e+19
9.910877687e+19
1.042911553e+20
9.578228554e+19
1.029062346e+20
1.060966842e+20
1.148848021e+20
1.184310155e+20
1.179875192e+20
1.231704306e+20
1.263565233e+20
1.324889685e+20
1.370306921e+20
1.457708247e+20
1.423609318e+20
1.523384126e+20
1.643077952e+20
1.573700795e+20
1.776033428e+20
1.982098048e+20
2.072911863e+20
7.700244327e+19
7.669009704e+19
7.13722801e+19
7.396111266e+19
7.8004562e+19
8.007095532e+19
8.421549863e+19
7.617071367e+19
7.716315207e+19
7.790278515e+19
7.995442713e+19
7.765205414e+19
8.984119636e+19
8.432117201e+19
8.648324859e+19
8.988916786e+19
9.297185852e+19
8.929179242e+19
9.53729195e+19
9.982016876e+19
9.915719254e+19
1.003381447e+20
9.740571488e+19
1.04046882e+20
1.105965445e+20
1.147335715e+20
1.199558764e+20
1.252656362e+20
1.252379158e+20
1.274511951e+20
1.200812715e+20
1.324170437e+20
1.346440976e+20
1.375040387e+20
1.494528016e+20
1.577706412e+20
1.65407651e+20
1.675344918e+20
1.962903724e+20
2.264932602e+20
8.70353349e+19
8.148848956e+19
7.58648346e+19
7.741803709e+19
7.753180708e+19
7.730093313e+19
7.706677132e+19
7.682925064e+19
8.08333769e+19
7.563117767e+19
7.483949771e+19
7.914362502e+19
8.915816732e+19
7.496234803e+19
7.867156012e+19
8.145914697e+19
7.814141473e+19
8.593389002e+19
9.360940154e+19
9.761048339e+19
9.247570346e+19
9.433542572e+19
9.514275383e+19
9.690543732e+19
9.54970155e+19
1.041474336e+20
1.169569814e+20
1.129133383e+20
1.160376066e+20
1.167129758e+20
1.152969466e+20
1.212806463e+20
1.279038664e+20
1.341042136e+20
1.423204482e+20
1.539801919e+20
1.601416568e+20
1.692685717e+20
1.891207194e+20
2.209092714e+20
8.415087856e+19
7.812119676e+19
6.980412458e+19
7.788749602e+19
9.029618958e+19
7.327574441e+19
7.959497944e+19
7.766339565e+19
7.623454075e+19
7.678925191e+19
8.139019663e+19
8.086118997e+19
8.10528788e+19
8.244023219e+19
7.774709996e+19
7.838521748e+19
7.471539587e+19
7.964373858e+19
8.097880572e+19
9.256663388e+19
8.531004554e+19
9.340817486e+19
8.904259724e+19
9.829405157e+19
9.719696237e+19
1.005178997e+20
1.111625016e+20
1.112219447e+20
1.156757967e+20
1.295362873e+20
1.073581254e+20
1.237200493e+20
1.312739831e+20
1.398245543e+20
1.385092631e+20
1.51398288e+20
1.638001355e+20
1.705551471e+20
1.847173116e+20
2.14698513e+20
8.716074576e+19
8.115175971e+19
7.531386038e+19
7.272344809e+19
7.740287397e+19
7.673827215e+19
8.02488262e+19
7.840973748e+19
7.526171018e+19
8.177788022e+19
8.55180346e+19
7.688366972e+19
7.822968864e+19
8.198146569e+19
8.602101844e+19
7.861809039e+19
7.607641638e+19
8.593389067e+19
8.498246651e+19
9.367147694e+19
9.237886883e+19
9.604351596e+19
9.469999983e+19
9.487210856e+19
9.539701863e+19
9.875354422e+19
1.035890162e+20
1.037388084e+20
1.109205808e+20
1.217693218e+20
1.215533701e+20
1.254170227e+20
1.246942358e+20
1.285997348e+20
1.437904732e+20
1.429933771e+20
1.376364591e+20
1.605422328e+20
1.798622723e+20
2.162369597e+20
8.268774897e+19
8.283540691e+19
8.379037871e+19
7.579627036e+19
7.90790056e+19
7.743077825e+19
7.972574913e+19
7.911217689e+19
7.694205443e+19
8.186696346e+19
8.282596695e+19
8.099678844e+19
7.891271909e+19
7.5971633e+19
7.668397133e+19
8.481252586e+19
8.611981808e+19
8.654871829e+19
8.622169484e+19
9.006872782e+19
9.141053758e+19
9.038241512e+19
9.460161097e+19
9.710381078e+19
1.055467023e+20
1.0873476e+20
1.06181283e+20
1.042000984e+20
1.063204271e+20
1.128034309e+20
1.276520697e+20
1.283336988e+20
1.197727988e+20
1.334026624e+20
1.377470278e+20
1.498052027e+20
1.531572854e+20
1.61213491e+20
1.666520504e+20
1.852971259e+20
7.545570571e+19
7.492226844e+19
9.29450186e+19
8.492937952e+19
7.800456206e+19
7.769046783e+19
7.292573991e+19
7.419510381e+19
7.119350963e+19
7.028621782e+19
7.412161236e+19
7.579889076e+19
7.804754733e+19
7.610926277e+19
7.668397077e+19
7.633593075e+19
8.419561569e+19
8.456235426e+19
9.222718673e+19
9.967605956e+19
9.465444894e+19
9.71171724e+19
9.794685697e+19
9.447536238e+19
9.844692331e+19
9.572893337e+19
9.693044918e+19
1.023036874e+20
1.040461925e+20
1.09467285e+20
1.127207742e+20
1.27432181e+20
1.224474928e+20
1.284918039e+20
1.310502344e+20
1.393127933e+20
1.6834552e+20
1.548924901e+20
1.594823977e+20
1.956673833e+20
8.089018867e+19
7.626918511e+19
8.234937012e+19
7.285148233e+19
7.598460921e+19
6.76924183e+19
8.212318827e+19
8.587315094e+19
7.340448871e+19
7.077617244e+19
7.506383625e+19
7.543729851e+19
7.873057779e+19
8.436704897e+19
7.765465394e+19
7.764002173e+19
7.43399405e+19
9.298075277e+19
9.194120956e+19
9.098142497e+19
9.383136823e+19
9.018720472e+19
8.997729925e+19
9.080545329e+19
8.909721551e+19
9.603139368e+19
1.02979071e+20
1.080441749e+20
1.125228818e+20
1.139502301e+20
1.103023229e+20
1.223412554e+20
1.218590591e+20
1.315678373e+20
1.416126571e+20
1.388183892e+20
1.511617508e+20
1.590878447e+20
1.707731869e+20
1.91678821e+20
7.633358373e+19
8.582387941e+19
8.404467482e+19
8.014943399e+19
8.079811331e+19
7.647858257e+19
7.881036272e+19
8.003412733e+19
8.277903787e+19
7.585388399e+19
8.040310551e+19
8.325674287e+19
7.704576962e+19
8.083455095e+19
8.509655828e+19
8.197146926e+19
8.086345922e+19
8.900802613e+19
8.498246651e+19
8.872370149e+19
9.276620162e+19
8.638060125e+19
9.091200055e+19
9.001195944e+19
9.204712405e+19
1.001146199e+20
1.065370843e+20
9.630692737e+19
1.045113767e+20
1.105098297e+20
1.110383736e+20
1.187351866e+20
1.262455583e+20
1.337264552e+20
1.34861417e+20
1.383789142e+20
1.349203147e+20
1.475086661e+20
1.713377264e+20
2.033026277e+20
9.246981837e+19
8.127803391e+19
8.260366622e+19
7.664983197e+19
7.693011905e+19
8.041720793e+19
7.632574452e+19
7.573168933e+19
8.167354801e+19
7.914994293e+19
7.856352553e+19
7.941481934e+19
8.050645548e+19
8.546808713e+19
8.643702552e+19
8.406733006e+19
8.780936154e+19
8.427858733e+19
8.054984206e+19
9.078927765e+19
9.257253594e+19
9.052882221e+19
8.756675309e+19
1.011208734e+20
9.839692487e+19
9.482154935e+19
1.002851467e+20
1.033800288e+20
1.034776341e+20
1.209352863e+20
1.199235465e+20
1.267427841e+20
1.275829053e+20
1.340502481e+20
1.423748912e+20
1.386535857e+20
1.457848935e+20
1.570740745e+20
1.602163005e+20
2.066644144e+20
8.034674038e+19
8.498205617e+19
8.366323095e+19
7.464396169e+19
8.359166568e+19
8.141268523e+19
8.469498663e+19
8.056095648e+19
8.353077059e+19
8.324774468e+19
7.376266993e+19
8.099678727e+19
8.036984892e+19
8.115568767e+19
9.281580135e+19
9.682879806e+19
9.376969838e+19
8.172469136e+19
8.155075726e+19
8.843548156e+19
9.30567012e+19
8.613658825e+19
8.869823431e+19
9.110301349e+19
9.464704206e+19
9.088955601e+19
8.747629944e+19
9.441051712e+19
1.039945054e+20
1.160874485e+20
1.228677458e+20
1.17144273e+20
1.200402682e+20
1.174828463e+20
1.253334617e+20
1.406312134e+20
1.364723972e+20
1.555078074e+20
1.703215554e+20
1.878612006e+20
8.440170074e+19
6.671449139e+19
7.493241758e+19
7.673518813e+19
7.723096309e+19
7.279964679e+19
7.527958925e+19
7.564388501e+19
8.437094245e+19
7.963989699e+19
7.842892212e+19
7.620568376e+19
8.706354235e+19
9.11109077e+19
9.461849799e+19
9.943698117e+19
9.409822155e+19
8.711625086e+19
8.417220182e+19
8.934817869e+19
9.213678727e+19
8.501412912e+19
9.558550708e+19
9.963307325e+19
9.889691004e+19
9.023422293e+19
8.706966793e+19
9.410298946e+19
1.062170511e+20
1.030035016e+20
1.141402969e+20
1.158715401e+20
1.1608172e+20
1.276823217e+20
1.363314445e+20
1.303036064e+20
1.542104829e+20
1.706670232e+20
1.685150291e+20
1.835307617e+20
8.168445926e+19
7.938393108e+19
8.362084836e+19
8.556955072e+19
7.697309677e+19
7.409809471e+19
7.706677062e+19
8.776095477e+19
8.613972531e+19
8.409402993e+19
8.273623075e+19
8.416072427e+19
8.747335901e+19
9.377174923e+19
8.3571199e+19
9.207817813e+19
9.639787739e+19
8.082609689e+19
9.227484795e+19
9.165393743e+19
8.787612523e+19
9.05776241e+19
9.238784326e+19
8.897049804e+19
9.404706157e+19
9.698918867e+19
9.230503184e+19
1.070190878e+20
9.64481852e+19
1.055056128e+20
1.214482222e+20
1.175154861e+20
1.201472559e+20
1.282219776e+20
1.339902919e+20
1.383789166e+20
1.485010379e+20
1.498021266e+20
1.598775754e+20
2.027328334e+20
7.704424688e+19
7.706891771e+19
8.26884314e+19
8.817291301e+19
8.943663561e+19
8.9116809e+19
8.203600867e+19
8.68829062e+19
8.565330942e+19
8.618747242e+19
7.923654203e+19
8.71890646e+19
8.665372442e+19
1.005156086e+20
8.953396707e+19
8.546457101e+19
9.489606112e+19
9.397393619e+19
8.464882811e+19
8.343966946e+19
9.044220492e+19
9.443303018e+19
9.027246808e+19
9.60623501e+19
9.334708269e+19
9.678754639e+19
9.006856557e+19
9.989473282e+19
9.923928942e+19
1.05505611e+20
1.188720458e+20
1.158715411e+20
1.185959334e+20
1.324852492e+20
1.232100874e+20
1.368407615e+20
1.481130173e+20
1.543890476e+20
1.576194189e+20
2.005676148e+20
7.507947278e+19
7.61850033e+19
7.819587695e+19
8.548419398e+19
9.231614223e+19
9.180026867e+19
8.046677577e+19
8.420485805e+19
7.977210701e+19
7.701195856e+19
7.470489435e+19
8.70534673e+19
8.84751368e+19
9.634083896e+19
9.216867855e+19
9.384801736e+19
9.574083318e+19
9.288616471e+19
9.370472751e+19
8.055747017e+19
9.678477999e+19
1.008261715e+20
9.868477982e+19
9.278918794e+19
9.184712957e+19
9.104078655e+19
8.991608002e+19
9.533309546e+19
1.092665926e+20
1.099364296e+20
1.254964952e+20
1.322579524e+20
1.325578362e+20
1.35507316e+20
1.331736087e+20
1.335996516e+20
1.43623063e+20
1.580250215e+20
1.529901939e+20
2.000547999e+20
8.339841158e+19
8.451905339e+19
9.764948536e+19
8.813023493e+19
8.101300247e+19
8.903024581e+19
9.467705145e+19
9.487314887e+19
9.272844081e+19
8.320320275e+19
8.094151859e+19
8.230756176e+19
9.389384118e+19
9.29459713e+19
8.149116363e+19
8.280981321e+19
8.931117919e+19
9.463605754e+19
8.63170201e+19
8.267108361e+19
9.078112181e+19
9.931328936e+19
9.691376606e+19
9.769893118e+19
9.754695222e+19
8.771371462e+19
9.266083166e+19
1.104018742e+20
1.082845372e+20
1.134810855e+20
1.210801973e+20
1.201670078e+20
1.246407408e+20
1.243904275e+20
1.310502344e+20
1.389282561e+20
1.572592178e+20
1.550043662e+20
1.669907726e+20
1.946987311e+20
9.046323942e+19
8.687615788e+19
8.548568228e+19
8.403313983e+19
7.19017258e+19
7.665170896e+19
8.011805679e+19
9.131705084e+19
8.808538583e+19
8.257962473e+19
8.973560819e+19
8.176517197e+19
9.166260889e+19
7.895361077e+19
8.162983326e+19
7.754687348e+19
9.02028837e+19
8.044774306e+19
9.461031745e+19
9.016480113e+19
9.121687119e+19
1.043399587e+20
1.024727798e+20
9.874039187e+19
9.834692643e+19
9.759411006e+19
9.70321067e+19
1.060452551e+20
1.140734957e+20
1.19371467e+20
1.198183955e+20
1.217579214e+20
1.23249901e+20
1.276283562e+20
1.374203538e+20
1.524420353e+20
1.488336244e+20
1.482358596e+20
1.682892133e+20
1.957813422e+20
8.703533479e+19
7.828956088e+19
7.582245196e+19