/*--------------------------------*- C++ -*----------------------------------*\
  =========                 |
  \\      /  F ield         | OpenFOAM: The Open Source CFD Toolbox
   \\    /   O peration     | Website:  https://openfoam.org
    \\  /    A nd           | Version:  7
     \\/     M anipulation  |
\*---------------------------------------------------------------------------*/
FoamFile
{
    version     2.0;
    format      ascii;
    class       volScalarField;
    location    "0.001";
    object      internalE;
}
// * * * * * * * * * * * * * * * * * * * * * * * * * * * * * * * * * * * * * //

dimensions      [1 -1 -2 0 0 0 0];

internalField   nonuniform List<scalar> 
2400
(
0.3350562601
0.1549983471
0.6994272078
0.294775552
0.6992760204
0.364796942
0.4497726995
0.1777123361
0.2697816461
0.3047509497
0.2608028154
0.4941942122
0.1802818521
0.4532991475
0.1803562443
0.3105879592
0.6054983435
0.3407612586
0.04504031252
0.1352750593
0.3927871955
0.5385305004
0.07245688194
0.2575298022
0.712573709
0.7162932216
0.51352293
0.2065697849
0.3798348283
0.459236302
0.2985401445
0.08886955049
0.6838704087
0.3712780386
0.3591864415
0.3532383886
0.3011220376
0.2180945384
0.3222162762
0.2279549559
0.2587650158
0.2569098157
0.3727486351
0.5206062077
0.6282746291
0.2521120412
0.2490139239
0.08947570079
0.3587760888
0.32837441
0.1797104832
0.6449805956
0.3678241657
0.1857319361
0.3484424259
0.4976030038
0.1497364623
0.05436259224
0.6043910924
0.2834686909
0.369510734
0.2561597139
0.4383247733
0.317720498
0.1540396279
0.3704388816
0.2664627445
0.3289737436
0.2680143772
0.1134986783
0.3811979167
0.1168829265
0.3430205292
0.294465265
0.2405528665
0.4843091728
0.5186660465
0.3374882044
0.3531510686
0.3885626283
0.7664943259
0.1637248741
0.1468290706
0.144959366
0.1532106471
0.2837174779
0.2715900088
0.229956881
0.4279703439
0.2564620149
0.1332717793
0.2672239422
0.1747460829
0.4438030759
0.3985344408
0.1147907447
0.6203716808
0.4131938042
0.2830688712
0.3241185115
0.1714679554
0.240570008
0.2310741204
0.5640033567
0.3855755416
0.3496182194
0.2123919605
0.2310606635
0.2090585177
0.2320802982
0.2478454014
0.1198718197
0.1719505709
0.141019898
0.1214149605
0.4460790229
0.3588040336
0.1034792118
0.1437320453
0.07827290548
0.3122291784
0.09578639473
0.4347694036
0.2202686451
0.381022591
0.4104755543
0.1750211712
0.4152496746
0.4130081881
0.4485403761
0.2138416733
0.06152727238
0.05704581943
0.2392457158
0.1866566967
0.08125544509
0.08382985993
0.4068319374
0.3024840562
0.2828461329
0.614291239
0.1223633356
0.1825953795
0.2002083535
0.258571159
0.362467927
0.143552847
0.4105574911
0.3005953105
0.3153289743
0.2872372977
0.3543551175
0.5131624931
0.5291617208
0.3187590762
0.4076576142
0.1792244782
0.6821141099
0.03191158047
0.276525994
0.2357760574
0.4651530861
0.2886893569
0.5546772083
0.03817174062
0.3917616397
0.1427323311
0.138904692
0.2022011155
0.5535335701
0.4154075599
0.1043149932
0.2349478491
0.1212117006
0.1532149316
0.2832255237
0.2267033422
0.1884589071
0.330375081
0.2800762185
0.4137705177
0.04656509409
0.2478370309
0.1823346576
0.2718966679
0.2545874044
0.5168376631
0.1801723164
0.1469718953
0.4774384102
0.2530512812
0.06112964792
0.009765038905
0.8613563186
0.3127023397
0.5374542401
0.04425761071
0.239309733
0.2896415092
0.1627434162
0.2915513659
0.09953682624
0.2473201331
0.1754771352
0.08547844555
0.8320373419
0.2134555007
0.1423041323
0.4916703625
0.151606054
0.3019525816
0.3536247925
0.1572394513
0.08920163744
0.5143269135
0.2956244859
0.06680948616
0.3199469548
0.03086309696
0.2283749824
0.3530288317
0.2390249917
0.3188462685
0.3674617381
0.1398879552
0.2166552793
0.4934496913
0.2347344778
0.656671045
0.4015570108
0.1410197872
0.3676300692
0.03697630818
0.3556428815
0.6137728116
0.3178286221
0.6474337063
0.2594320998
0.3504785834
0.2250072751
0.269371387
0.5338376344
0.0118244778
0.1715172409
0.1872885085
0.2271417502
0.3342988646
0.5380785224
0.1786645498
0.5708032017
0.4659327593
0.2438883381
0.1792717927
0.2228629506
0.491335619
0.08757221883
0.6441120778
0.4657656238
0.1804251006
0.2986909466
0.31688108
0.1371834069
0.2892099294
0.2266231743
0.09470292192
0.5514630237
0.4277752861
0.4700773955
0.5875652001
0.2615905072
0.2042668727
0.9613883833
0.1964721404
0.3731460089
0.2079281324
0.4491315869
0.3034836245
0.3103835021
0.3497253754
0.314774886
0.1347569525
0.4548230241
0.1876098101
0.2417762111
0.0681932954
0.2803036172
0.3513056919
0.537962144
0.3313443191
0.09743333353
0.4274257442
0.6844226009
0.3401436296
0.2411689946
0.6490489731
0.7081393865
0.241950028
0.2168360675
0.369684738
0.3918998212
0.6276565569
0.1131392599
0.1895431766
0.1080163015
0.1519375634
0.1310177893
0.1526020792
0.493441154
0.2041614471
0.4324825713
0.175050542
0.4706352341
0.3567496239
0.3565457038
0
0.2524007954
0.2163653224
0.6152260024
0.4516783891
0.3802421451
0.1172677244
0.3206813967
0.2542151319
0.5731734964
0.4688974232
0.07625056521
0.6239091249
0.1871185744
0.7163851109
0.2887322285
0.6325436799
0.423250114
0.6172263932
0.07269432619
0.3997798872
0.0998478426
0.5462526917
0.2764076987
0.3408786301
0.4334758651
0.5234207631
0.4415403219
0.2352930214
0.2603867945
0.2354380613
0.1269663408
0.1460781165
0.4048517849
0.3642837374
0.2735159332
0.3665073682
0.1081873761
0.3419472717
0.3200620492
0.2868414302
0.02355564418
0.5608029006
0.2951434633
0.2012041917
0.6178893138
0.5365606771
0.1593305861
0.2794086234
0.03263681528
0.2300494949
0.2417418106
0.4624400484
0.3714590854
0.05987598511
0.08506277198
0.3255487102
0.1990793948
0.3683877604
0.1619485327
0.3657443959
0.3724359492
0.5108250681
0.3614905372
0.1024521681
0.3999217724
0.3060693657
0.3972445973
0.1267723524
0.3539119847
0.3108422655
0.187829018
0.3409172466
0.3376769689
0.1598768603
0.3227216632
0.1144009467
0.07223536174
0.2504974078
0.2780033268
0.2153656479
0.1902233989
0.4978340143
0.1263997582
0.3106443568
0.5063047364
0.3667181392
0.5881202695
0.1031036734
0.6160720184
0.4114347422
0.07716298991
0.416052263
0.3705588953
0.5425755994
0.0841607038
0.3774207191
0.09651118014
0.2819550257
0.2811825147
0.2362264731
0.1947533437
0.05521685888
0.4506263779
0.1669350364
0.5663113505
0.2369607848
0.2339652944
0.03785925356
0.1522771183
0.3208425326
0.09861190154
0.2445502973
0.335003417
0.5186625076
0.1241797393
0.1461543634
0.5312855607
0.3816653933
0.177110514
0.211146779
0.1670502654
0.1219940736
0.1097152788
0.5843531779
0.6227129043
0.1195052739
0.1448577761
0.3650633136
0
0.2936614759
0.555103993
0.1436932536
0.05408323133
0.3093193341
0.3942542128
0.2129196745
0.3365470148
0.3086894334
0.1913948085
0.301952967
0.116998507
0.4593161957
0.09068509126
0.05563883356
0.2965002869
0.7718217574
0.2199781206
0.3073767202
0.1041050539
0.1119826375
0.222673108
0.4234557908
0.1429853529
0.3544013824
0.3060860691
0.3765839267
0.4901574793
0.355486025
0.3265471504
0.4671589805
0.5741256823
0.1945964241
0.5410005999
0.5890604461
0.376660309
0.1425047019
0.0932827271
0.5668014596
0.2459329044
0.5608650548
0.1623051587
0.2820234441
0.4655224586
0.6045823868
0.285590679
0.05721277581
0.2376370781
0.5089228709
0.2981898206
0.03914048729
0.176845065
0.3848340237
0.07356018211
0.2423294071
0.566941287
0.3474790276
0.2950367837
0.2622535514
0.5015431811
0.1088042181
0.5623988931
0.2688902921
0.3036655292
0.07171843717
0.4758774443
0.2878343188
0.2633419722
0.7619519178
0.2242206996
0.1043490889
0.1688940558
0.3161355373
0.4282397153
0.2892232016
0.1341494007
0.4015125925
0.304382595
0.08567061179
0.5907403333
0.2899019247
0.1571045492
0.218759479
0.1096137493
0.3215371727
0.273208553
0.6984116426
0.2157484126
0.08379773795
0.4749742712
0.20402613
0.4080456543
0.4222402878
0.2706331189
0.1750877814
0.3054266454
0.4249337001
0.4928784689
0.2867354238
0.1474739807
0.4482570986
0.1744521235
0.2454387027
0.2591938623
0.2378824503
0.5803192401
0.1109800693
0.4999379144
0.5581923946
0.3341418576
0.151388641
0.2896390682
0.6568927355
0.3491681996
0.1197119384
0.2096721661
0.4180206688
0.6795046504
0.3385400397
0.2506722845
0.5839789967
0.5423807711
0.2160704479
0.2984651095
0.02215002269
0.6020650479
0.4533614843
0.1821139282
0.2532735578
0.1654698261
0.1441749586
0.1925227245
0.2499037507
0.2224878182
0.3558486683
0.5672718478
0.2243644652
0.2857447288
0.38010961
0.1365062029
0.3639342644
0.1644634426
0.1629885627
0.177262842
0.4194612773
0.5534088927
0.2029916891
0.2569462898
0.3087709233
0.4659672014
0.08859975554
0.144821398
0.4954980362
0.1775864866
0.1178434196
0.207293216
0.2635077664
0.4923774889
0.3224205263
0.5468302596
0.1042502536
0.1584473159
0.2416447914
0.5964013003
0.203297509
0.2557830745
0.1369589187
0.590510605
0.1894551154
0.4275793185
0.2466521209
0.169105806
0.2447072362
0.0646713978
0.1742463422
0.4528443387
0.3174880098
0.5568098117
0.2682990052
0.297636948
0.2654187228
0.3183113664
0.6132008925
0.2581175637
0.03080151887
0.2447414969
0.3439988135
0.493211199
0.5067623965
0.1717186943
0.188055362
0.3538175049
0.5503494542
0.3426424116
0.4719235126
0.1081682697
0.401279703
0.4586107004
0.2576618168
0.306038031
0.2247580384
0.3316991746
0.2881839814
0.6012549072
0.1195434768
0.1041304867
0.3804127555
0.1430137587
0.412733058
0.4943795845
0.2485141626
0.5075235217
0.4036533819
0.3316860195
0.2640433768
0.5566524565
0.2140055508
0.9114558555
0.4348878262
0.6598133806
0.1380413611
0.07814290444
0.3052158422
0.7080938289
0.2992101251
0.4284776812
0.3276439404
0.1627048189
0.1336452121
0.4559872457
0.5830703343
0.5304261198
0.5441217469
0.5639584095
0.3150641937
0.06290632725
0.4322627641
0.3029429101
0.396837859
0.2602816381
0.3111293254
0.2804500325
0.6301934288
0.1623553471
0.510650942
0.2818254538
0.4245510535
0.2079896386
0.1203821363
0.2954068458
0.09702836521
0.3574814231
0.1074668603
0.3627877868
0.003241288475
0.2921707452
0.2372438724
0.4475719187
0.6249431695
0.6653172716
0.1117797001
0.448214826
0.1624683888
0.9889008837
0.3080436804
0.275860007
0.2938505891
0.2563979103
0.3988212464
0.1651019493
0.2820273653
0.2739904689
0.2272758332
0.1367526587
0.2090020897
0.4465871573
0.3050749571
0.4304987217
0.4531030335
0.355942402
0.6844912592
0.07929952684
0.46459315
0.2029585889
0.09377124388
0.4292770856
0.1510100147
0.5391793054
0.5261599181
0.2316260081
0.06925100755
0.1694373013
0.1418551413
0.2624213214
0.3884718692
0.431572132
0.3757035813
0.2589192195
0.4314279313
0.280531304
0.2723030881
0.2867658841
0.1452284626
0.3397223949
0.2172428685
0.8077276398
0.4884352485
0.3244908963
0.4489949465
0.4610138187
0.3548415199
0.3933962859
0.5143709133
0.2163515421
0.2293277871
0.1832501952
0.655969168
0.1839521613
0.7554942075
0.0834753181
0.3734530066
0.4432695479
0.3586190408
0.708485021
0.3449795156
0.331761227
0.2311970168
0.2551566145
0.1780455039
0.4295709083
0.5837838895
0.2516319659
0.0590273849
0.3445570968
0.3234447749
0.3178686159
0.3115709069
0.4438622198
0.1899236306
0.7299312547
0.3533105848
0.04367800656
0.4837338052
0.3101895902
0.2180041099
0.4011569856
0.5112103062
0.2310499098
0.3188335665
0.5149890799
0.1195331807
0.2921910598
0.06835133766
0.4525664356
0.1099653907
0.3588225723
0.2051085776
0.294032746
0.5166955367
0.2895875939
0.2173487275
0.1930898045
0.1434412485
0.1125845219
0.391097219
0.5897142203
0.1004160589
0.2651281607
0.4515023765
0.4779514069
0.3365427939
0.233363969
0.1027100601
0.4182538717
0.4210590355
0.1445916329
0.4454802464
0.6158162101
0.5074617464
0.791999081
0.4181309026
0.6618926206
0.2884042444
0.1179210706
0.2776622122
0.2194299875
0.6593159218
0.255970895
0.6067758747
0.1815262282
0.2713364252
0.4401066523
0.836735742
0.06523615711
0.3376914533
0.1365653258
0.2252810004
0.3110195447
0.1312447852
0.1425236466
0.2977892388
0.2883168772
0.2270439274
0.2686975333
0.3168060789
0.1220449938
0.5148813513
0.8926248365
0.1818974071
0.1188864982
0.3700398515
0.4936562364
0.3233721354
0.4203819244
0.6900199977
0.1848941121
0.1634174507
0.2703853826
0.3486730469
0.03513217118
0.1413088641
0.2896765601
0.3752191865
0.7621241458
0.4294334954
0.2462070665
0.05778238946
0.1111450103
0.9031440661
0.543025321
0.3172116839
0.2715045587
0.7405456379
0
0.4532160297
0.689823134
0.195231086
0.3487948436
0.807937702
0.1080653781
0.2650950708
0.05078933022
0.2476242128
0.3655344464
0.4311947723
0.5637096651
0.4869267721
0.636909503
0.5729154437
0.691105884
0.8930935874
1.114077819
0.1400096278
0.5657867578
0.280858904
0.5377207733
0.475010676
0.4176043334
0.4145928917
0.1871222098
0.530284338
0.2122548171
0.06769252185
0.5811397291
0.09558349254
0.8542217486
0.5590441153
0.02963595826
0.6905663494
0.3375734586
0.3246262204
0.7863666174
0.3051767325
0.6536919824
0.8860967763
0.1257239713
0.3337879572
0.1936156497
0.3398098411
0.1726108646
0.2971990254
0.385218154
0.0259658206
0.4551413804
0.677715319
0.1512199451
0.6313160063
0.6396384039
0.203386061
0.4000940788
0.3966150944
0.3926977186
0.07863837331
0.6538916984
0.1212619765
0.2580724691
0.837188323
0.4135052001
0.3003352498
0.06127575106
0.2497871994
0.7895422446
0.8927785544
0.229672049
0.4528505053
0.3207179297
0.9250328848
0.3131422622
0.4889238916
0.6625888312
0.4536176308
0.3995530406
0.6165885945
0.1662286151
0.5888880841
0.1320855293
0.6361384906
0.1459846602
0.1177849042
0.1925677987
0.3274674382
0.3053666249
0.3118966828
0.04973369514
0.3528596978
0.6057820588
0.1757431219
0.1275522461
0.6074366258
0.2842088409
0.9687048197
0.3414950749
0.1278088757
0.2387255252
0.2798693304
0.1918424924
0.2151974397
0.1268815232
0.402336245
0.9460682383
0.5413890754
0.520672605
0.3314064086
0.7676875197
0.1885537
0.2426530707
0.2725690319
0.2523970801
0.285254864
0.1506808761
0.6462868223
0.7280237343
0.4519607652
0.3725884734
0.1577259686
0.5220477203
0.1891184826
0.2899007662
0.410864667
0.1836290309
0.5825557409
0.4115709787
0.3327380772
0.3186195726
0.2841793286
0.3726706719
0.421922894
0.5020631743
0.6925852857
0.0802780317
0.6906113938
0.3031627904
0.1165260912
0.6463391381
0.1071209083
0.4630107355
0.008912916081
0.4410945181
0.3935884864
0.165440924
0.1735397113
0.407848456
0.5691020859
0.3161236886
0.5188691746
0.3621133034
0.1805891407
0.2668055813
0.6424589667
0
0.05446033978
0.5081844265
0.2556740736
0.1825477778
0.4879506471
0.03516171714
0
0.2914697025
0.3433197731
0.1395220339
0.1414457128
0.4178461196
0.5362440099
0.3801906714
0.579446916
0.1300685317
0.2913740897
0.2554462546
0.09244666761
0.09230641697
0.3887213783
0.3945066243
1.215660452
0.4431903137
0.06383223784
0.1973121648
0.3702046865
0.001817384363
0.1927723302
0.498677868
0.1304592505
0.1710417746
0.0574735773
0.07278054189
0.6507606688
0.4439382298
0.07436092146
0.7507863453
0.421326537
0.326234045
0.06276044616
0.06178926166
0.1636030133
0.9210418774
0.3351957486
0.31893551
0.5788298496
0.4256102536
0.3868830438
0.1636740196
0.1442561253
0.4455965552
0.3166139035
0.07925264839
0.3079326313
0.3826690184
0.6488798433
0.0362315972
0.41226952
0.4773378953
0.3045965261
0.07200316115
0.2027454796
0.8348898295
0.2230099399
0.711327014
0.4150509901
0.7405738515
0.2972462767
0
0.5650062343
0.7554923343
0.3077849813
0.2941810513
1.133379741
0.1056490425
0.7402413645
0.2379401308
0.8845674711
0.3056297522
0.2560291703
0.3868642238
0.1369599271
0.3552031574
0.2588052221
0.8445077975
0.1905392579
0.2836407676
0.4764379593
0.4088428998
0.5670546745
0.462816752
0.2588097666
0.1661266113
0.249665658
0.2827304073
0.3752525905
0.2720571082
0.7833175176
0.2191907526
0.2806935745
0.1491080744
0.4658728745
0.5027945884
0.3008870886
0.003263270131
0.2312694229
0.200088731
0.1144963369
0.08048600314
0.2202254208
0.6395474402
0
0.1040799912
0.9928615464
0.5826716557
0.2055007538
1.28616404
0.0936703581
0.6744764136
0.001006773702
0.140639004
0.5326368944
0.7860995412
0.3388640763
0.5581376753
0.1072754137
0.2800589617
0.1679526168
0.1514397778
0.06749716981
0.1752501786
0.2216347989
0.1241837567
0.4524780343
0.8771032633
0.06898716254
0.3158194998
0.3889627691
0.2115721482
0.1732809822
0.2039659
0.6788748513
0.3277531301
0.3579765627
0.4279550998
0.277119557
1.042957781
0.2406265905
0.8128287138
0.6638382077
0.1508508113
0.7825598512
0.1804031448
0.07082933148
0.8208289894
0.3748484495
0.6755070526
0.6069753011
0.5851052768
0.1931600456
0.2995012673
0.1327268846
0.4048758005
0.02867739597
0.2931664524
0.2948899643
0.7303115752
0.1624251522
0.1312020054
1.028316106
0.2160852522
0.24552386
0.3881348419
0.2652232994
0.02596489971
0.05843089762
0.3260135503
0.3628281713
0.2138335984
0.2327071524
0.04126480872
0.3087649713
0.07118038688
0.1174363146
0.09683206072
0.1721311238
0.1668528159
0.2957684839
0.05673032463
0.4756780372
1.066042983
0.1813417932
0.4681162698
1.24627925
1.082955712
0.5974008344
0.3690328535
0.8467159826
0.4920126
0.06317224788
0.3814051682
0.4653411976
0.1342020973
0.1154469561
0.4827568926
0.2931371777
0.2851597784
0.4736830449
0.4048222063
0.2361211335
0.1200864774
0.4228119745
0.3902231182
0.5655733953
0.1642072832
0.2872345465
0.1118591914
0.3040044447
0.5967892535
0.210360888
0.181623402
0.3330721871
0.4045398375
0.543297706
0.675022551
0.4921566653
0.1886433354
0.5994151155
0.2602466743
0.2692527006
0.2534983932
0.4020820444
0.1117847732
0.1407943697
0.3216738682
0.4366984907
0.9834920939
0.004543632357
0.6759692379
0.369361354
1.240458943
0.4740225013
0.322448365
0.111532957
0.2995415668
0.1523219837
0.3987979658
0.1941747372
0.1176295909
0.3386971831
0.4679937447
0.344484801
0.1465221496
0.663857805
0.1702210325
0.3402479705
0.2617354458
0.294516642
0.2352577255
0.3121075492
0.03886972749
0.3152500581
0.6774549463
0.1807004906
0.6264487181
0.2468847959
0.5799643123
0.01889915808
0.9024468545
0.1765946767
0.7278780069
0.06833616313
0.285916834
0.3708434653
0.3170715995
0.1728085889
0.2078919644
0.1584865693
0.237132353
0.6967573259
0.2234839738
0.2206510341
0.1067932687
0.4669679853
0.1318546528
0.2256166351
0.1193024846
0.09493739637
0.3784158624
0.3972543079
0.6295834974
0.2140846492
0.3809867275
0.2190000472
0.4640220959
0.1506808874
0.4904413282
0.1202852712
0.07154544153
0.5892781539
0.3366021667
0.4546525944
0.7394212419
0.6921574682
0.1582255881
0.2116105968
0.5927680579
0.09223054054
0.7808247683
0.1480486042
0.3580359584
0.736463364
0.02921443157
0.3143010661
0.3438263179
0.4207947091
0.3933886501
0.3503135025
0.04501268209
0.4451717545
0.4275010804
0.2001661226
0.2984992851
0.4352159416
0.3522300017
0.1940556899
0.3151500517
0.7175345181
0.2079655343
0.2207880683
0.2474964452
0.5042139886
0.1546344013
0.3705517222
0.2885686176
0.3976508599
0.4136640395
0.07058399245
0.2865046192
0.2555796612
0.3210006578
0.5168954655
0.6144957703
0.3768062158
0.7133267962
0.3152791419
0.1171469457
0
0.3104735543
0.7751955112
0.2933188191
0.5742405281
0.3559557967
0.1049551407
0.006506399525
0.6426194425
0.0799953699
0.1230725382
0.1848563649
0.5493449583
1.366114936
0.232046608
0.5070967009
0.5160163059
0.3397787268
0.340164264
0.3248516084
0.563901467
0.08512731743
0.3419458035
0.3348538977
0.2986865893
1.385370168
0.5395089393
0.1502791272
0.2041926194
0.2044838736
0.645098019
0.5373121183
0.2427531559
0.174373627
0.590818179
0.335445509
0.4131333544
0.082492148
0.1623059076
0.2553155993
0.1627518758
0.5613358942
0.1043539475
0.4648670461
0.2183390998
0
0.3027251473
0.3603653585
0.03851935305
0.3985109919
0.3372393347
0.1604203105
0.8177114516
0.4265876298
0.0929116612
0.1765636296
0.3566946509
0.0705614722
0.2705072513
0.1833259119
0.5254802858
0.1005767905
0.1619580322
0.1439757488
0.2593123606
0.2275506494
0.8663634642
0.3036833209
0.6483193505
0.4253792159
0.07530441843
0.2065246804
0.4594443006
0.5306105177
0.1744536823
0.5212531584
0.6523926209
0.653176119
0.3220386828
0.1734286352
0.1525267019
0.4910889036
0.9330398902
0.07023707306
0.4476928682
0.4458652455
0.2046775772
0.1905571534
0.8028422062
0.3261480841
0.3600649719
0.1314635319
0.6414886081
0.3612017079
0.789637184
0.4501852081
0.6281083936
0.1890033533
0.4580948741
0.4767120478
0.2331100592
0.1602939077
0.1293359137
0.2106768207
0.2484689489
0.1137121166
0.51386674
0.6258237064
0.8454262217
0.9681049715
0.557126558
0.5672938187
0.1898312351
0.0157791316
0.4131172529
0.9023477002
0
0.3265649005
0.789714124
0.2965803895
0.4595402068
1.27182758
0.4463418248
0.5140467731
0.1510128635
0.4935624087
0.2839827572
0.3212679717
0.07821819281
0.2318433881
0.2515101415
0.3276499655
0.08757867223
0.6444033505
0.4132653465
0.18108865
0.4013452025
0.3532984579
0.5944976766
0.1839413421
0.2149265744
0.3378317517
0.5461984162
0.2187349357
0.3835341129
0.2065688447
0.4748106348
0.1763533525
0.4146995075
0.6283343383
0.1806116649
0.08977755808
0.4453442523
0.1779994036
0.5402569849
0.1015819531
0.7145080675
0.409130887
0.3490195595
0.4842557741
0.1978954587
0.3283900168
0.157308162
0.3204857677
0.0435185351
0.338942925
0.2464023793
0.8810467137
0.2633125172
0.2896503462
0.5017311705
0.2986251535
0.2658539716
0.07374359383
0.4337944224
0.4322677868
0.4392373868
0.4100310271
0.3035411928
0.06806518038
0.5576889139
0.3727362195
0.2988212232
0.4209499011
0.5529546321
0.0788515326
0.9010042802
0.187429436
0.3658986275
0.4178130168
0.1567336655
0.2878549967
0.05783719112
0.4387375322
0.1311104521
0.3112712378
0.1515180224
0.3737802316
0.2927759381
0.2007445129
0.5930418212
0.1196616771
0.09021896078
0.2219108214
0.7034166595
0.272287418
0.1781393048
0.4778767198
0.3729871353
0.2753474632
0.1559207143
0.3455369109
0.2847056535
0.6229187085
0.312123149
0.1889689746
0.6621336138
0.7921244216
0.2785399718
0.1501807653
0.4074956346
0.646110652
0.7599451873
0.09080603629
0.6354663761
0.3890545622
0.1093458367
0.4007150691
0.5877265333
0.2446445532
0.7390748416
0.8788201972
0.1929161747
0.6578128599
0.2661203629
0.3709147634
0.4851599891
0.0308521138
0.5250191872
0.3816495304
0.26410259
0.2675201943
0.1486620379
0.4245833773
0.485135759
0.596162557
0.1006838618
0.6707882777
0.5778943965
0.08268957306
0.2293738562
0.2558751784
0.2637851066
0.4109948912
0.136590375
0.6189791184
0.1874707861
0.08152511358
0.1694479011
0.3421365589
0.05012436975
0.6775130117
0.1674084136
0.20218401
0.1323692767
0.1875509941
0.1488998085
0.3162225132
0.5186323403
0.4600938784
0.4647896765
0.5125239617
0.3481651323
0.4536110608
0.1926302098
0.5261049684
0.6354977252
0.8650945474
0.3933031408
0.3994575777
0.6193520346
0.1688040748
0.1257443601
0.6205805162
0.08848696823
0.1027790105
0.1980924027
0.4085940868
0.5781072275
0.6386683329
0.3037952981
0.6213897702
0.3062262394
0.04715828596
0.5455767595
0.8012438362
0.3487693099
0.3675135304
0.3114175481
0.05623255933
0.3504157764
0.3154074223
0.4296399159
0.1557165265
0.4908436701
0.07498588113
0.3508686749
0.08621372695
0.3194849119
0.4507339926
0.5562543272
0.2730488842
0.09086213115
0.2745354446
0.5477082164
0.4608053833
0.2607282382
0.2269025672
0.19600937
0.1506279985
0.9432377445
0.4187204232
0.2546132163
0.3785989523
0.2623746645
0.3295760146
0.2021381063
0.2516437816
0.4334903566
0.4398760363
0.6960264947
0.05833356044
0.4909086559
0.55792929
0.4469026809
0.1935877568
0.1957772579
0.5847420529
0.4876479209
0.2881711986
0.3549044883
0.1641158128
0.3182785578
0.318846438
0.07783423228
0.155756724
0.1057092429
0.2231373611
0.05427055276
0.1300775126
0.09985643086
0.3351603541
0.1782356991
0.3476657099
0.5357236514
0.4441958533
0.3233486183
0.6714807026
0.28929134
0.1622425604
0.6139032898
0.4387298177
0.3961859676
1.227694488
0.6349765801
0.1347545882
0.2930221358
0.2814693785
0.4536410857
0.3687843741
0.1768118538
0.2560079703
0.8632887315
0.2128544775
0.5336475995
0.4401770554
0.4771351875
0.38577474
0.05276975982
0.3173372114
0.472105339
0.8054058742
0.0832841813
0.277884895
0.2947154376
0.2166708487
0.4506182221
0.16292695
0.08773795398
0.4389741918
0.6190014896
0.7819788109
0.4993894813
0.3422375531
0.1160108376
0.05199974853
0.3154908109
0.5051554855
0.004404512899
0.2603991189
0.2879237004
0.4225537207
0.3287257985
0.3279612344
0.4724633589
0.3969308116
0.5478653773
0.00241978209
0
0.2576676768
0.7982768574
0.4056911208
0.04581894937
0.3198478588
0.655132686
0.2130675826
0.2995195948
0.314484245
0.2481895308
0.2758084523
0.09048958687
0.4286724433
0.5715567461
0.3948335011
0.1096733005
0.388525247
0.1343484912
0.3095504358
0.5840179516
0.2089261318
0.3560461255
0.3089391519
0.2925207264
0.8815139911
0.400574363
0.04095533721
0.369092101
0.8959496059
0.1393108112
0.1011567889
0.63284669
0.2302007344
0.2969590192
0.1606474076
0.3644763359
0.5200047494
0.6819475749
0.2575900496
0.3988418391
0.6927065361
0.2978417084
0.09395557722
0.4416246211
0.1258816611
0.4286282059
0.1489624641
0.3818824381
0.3960255933
0.2777470485
0.5779446224
0.2685747334
0.1914409249
0.6289800966
0.3650938021
0.5053641932
0.1844226643
0.01110233805
0.2917565052
0.1697091942
0.3667500306
0.1191435279
0.3475333116
0.4456911554
0.5084126082
0.2511762954
0.2349164805
0.3059772283
0.6021555361
0.2509723059
0.1843637443
0.2400199112
0.307592656
0.30523664
0.6089505001
0.2070253349
0.3085529704
0.4378836904
0.1908361809
0.4233743142
0.6693332335
0.4957927795
0.366185527
0.2661439407
0.3107069623
0.6174840515
0.181637279
0.5445127117
0.6725765162
0.00724611749
0.470344506
0.05307574827
0.1586348505
0.3171620964
0.6780697769
0.519322379
0.2187985821
0.126179619
0.2443401045
0.8258754085
0.2528219468
0.2331753295
0.723310921
0.2169081164
0.1650317095
0.1792048487
0.5392217349
0.2860072558
0.5953485464
0.4048125962
0.4926343285
0.1512201205
0.1051547662
0
0.08166971844
0.2449992496
0.2898472122
0.195625261
0.84717451
0.3232805251
0.1444048893
0.3753932132
0.3370787944
0.03448068431
0.1664163552
0.2472910063
0.5831374711
0.490210244
0.6932740844
0.5197942809
0.06142525837
0.8092840174
0.7620663083
0.4427393172
0.2796683461
0.3289854023
0.2947940172
0.2938710539
0.3108563724
0.1940126943
0.7923219353
0.4889912379
0.2685981805
0.3657319783
0.3093120431
0.4939198304
0.6588892811
0.1188712854
0.6543363343
0.5457896615
0.2552624775
0.1185960187
0.04326843964
0.3388862441
0.1446504284
0.5138579873
0.2044871675
0.740025822
0.7124035048
0.3063561273
0.1634416584
0.6071957237
0.1566793658
0.2495420419
0.03257277153
0.1178712559
0.3603979299
0.5893633972
0.5172435987
0.3998424594
0.2208730923
0.3711355334
0.1498062415
0.224371481
0.3049324643
0.272412305
0.669582575
0.3959940104
0.6855165757
0.2350674988
0.4743268012
0.4331057621
0.3061790056
0.1759401113
0.1891524538
0.198592807
0.3905207536
0.02850355324
0.3409718666
0.4287847722
0.1922985329
0.2157525757
0.04518045411
0.325304402
0.5448820174
0.5754682525
0.1362443157
0.2430271694
0.2816233171
0.395914526
0.3304096895
0.2939230543
0.1492038999
0.1025599288
0.09272033905
0.5430276041
0.1715877159
0.5543567001
0.3396626599
0.3353241187
0.37539282
0.5540479896
0.2026606174
0.4566471231
0.5157499066
0.01714611635
0.4121472237
0.131921271
0.9153790005
0.4047509487
0.6198793461
0.3261697846
0.1816213501
0.2101608722
0.3027612542
0.5600393919
0.5480816017
0.07180984058
0.2988975681
0.4460366433
0.2758193075
0.3015218481
0.2627678863
0.2206655296
0.09088743404
0.7070373317
0.4373994824
0.3307969468
0.1923283994
0.2423406142
0.03900034257
0.4480517392
0.1440668884
0.3917216073
0.3099102167
0.4686782907
0.4402967553
0.7548254676
0.1799432628
0.08879734926
0.1070936686
0.261293393
0.273857319
0.1240639556
0.5309421644
0.4128911844
0.6173480051
0.3292662039
0.1199170725
0.4484690468
0.42732469
0.227429219
0.5254150582
0.07479495711
0.3643835608
0.7912685742
0.2548101684
0.2225469081
0.2548870344
0.1717798235
0.170745895
0.05079822901
0.3103555587
0.4495488969
0.6008503843
0.4133608877
0.2865723399
0.2839688565
0.5415178228
0.5068531634
0.1237372094
0.2592750201
0.04830946688
0.3490292247
0.5760548531
0.3449214329
0.0739773347
0.2234340534
0.3602799761
0.2690445441
0.1715831775
0.2142063897
0.7865275845
0.3499145023
0.1219905097
0.1741037823
0.1873510979
0.2907280918
0.2663235153
0.3398973664
0.254056783
0.5707606188
0.9970517563
0.4812589767
0.6983426627
0.02049378635
0.4284842289
0.3037061948
0.2195765548
0.358435063
0.4240763768
0.1244695833
0.2629176212
0.2396393178
0.09304970902
0.006777179416
0.3793192315
0.5118388077
0.3395239303
0.5275343953
0.05305420212
0.5785567611
0.2093050524
0.07462901929
0.2679321314
0.1978856505
0.1857421253
0.1828832275
0.4885769831
0.1582604523
0.4605023813
0.19218674
0.4123107397
0.6481863467
0.1860435938
0.1181174608
0.451326795
0.7198983429
0.1087593402
0.2616644108
0.3399475262
0.1921325923
0.1926898122
0.3801332706
0.5169787222
0.2193806671
0.112944618
0.2357786913
0.1760625312
0.08729861866
0.1741128677
0.3212731371
0.1252266771
0.4000425252
0.3102625375
0.2428942973
0.2105578756
0.2604660274
0.7543173338
0.518226739
0.2855482527
0.5127876715
0.3745005301
0.619634152
0.137908402
0.5400091348
0.3318086823
0.1084145227
0.3234026018
0.1568236733
0.1852387951
0.4637940584
0.2095750408
0.1028783111
0.3342763778
0.8175413477
0.5808512156
0.1655136213
0.6307347634
0.8718891338
0.4061702128
0.5855867184
0.4126164667
0.4504584606
0.1262068841
0.3281581899
0.5178092998
0.009817493587
0.1886424893
0.6035293156
0.4201366317
0.4435806601
0.6308676188
0.4997480398
0.190371914
0.3913137886
0.4286330668
0.1699167159
0.1695142296
0.1573835347
0.4689043544
0.4184354365
0.6721461592
0.3796258555
0.409255648
0.4707477255
0.4942715084
0.2586254386
0.2639829751
0.1857942891
0.07913005922
0.227055578
0.3482094747
0.6272034805
0.1552183352
0.1988842758
0.398422201
0.06172310748
0.284531639
0.2110892649
0.2062904567
0.4978200619
0.2807160744
0.6889166542
0.1087095552
0.2735670983
0.1181860292
0.174909508
0.5804724898
0.09635009237
0.4633479196
0.1260672457
0.3419744943
0.2521248742
0.1173251694
0.1067370675
0.3993835702
0.2607983252
0.4822722729
0.568977768
0.5330947151
0.5483394002
0.2062582665
0.4650217696
0
0.04295538328
0.4843653118
0.4345760322
0.2592548768
0.2447679505
0.3248459619
0.4475752833
0.4520896572
0.4266932244
0.08953843546
0.3650676703
0.4301858751
0.3048822808
0.4527686471
0.5790494715
0.3657341869
0.1147858546
0.2650298658
0.2893278259
0.2016035267
0.3098136935
0.217464904
0.2511151462
0.2901557117
0.2536656489
0.06798749437
0.1509110838
0.003021327449
0.2849331499
0.3984509564
0.2434829239
0.2406201101
0.5950496888
0.5462731755