/*--------------------------------*- C++ -*----------------------------------*\
  =========                 |
  \\      /  F ield         | OpenFOAM: The Open Source CFD Toolbox
   \\    /   O peration     | Website:  https://openfoam.org
    \\  /    A nd           | Version:  7
     \\/     M anipulation  |
\*---------------------------------------------------------------------------*/
FoamFile
{
    version     2.0;
    format      ascii;
    class       volScalarField;
    location    "0.001";
    object      internalT;
}
// * * * * * * * * * * * * * * * * * * * * * * * * * * * * * * * * * * * * * //

dimensions      [1 2 -2 0 0 0 0];

internalField   nonuniform List<scalar> 
2400
(
297.6674699
294.6465646
297.0355598
297.3401937
296.0290993
301.1389375
301.6582932
297.6281299
293.2082589
290.80365
290.8608703
293.6057369
296.8608456
294.9475643
295.2550619
294.4021587
296.7864723
311.8611917
344.2112468
419.5721691
301.4240497
305.4817639
306.076402
300.7850281
300.4526141
303.113335
304.4798915
300.7267575
302.7605072
304.4815156
307.1302237
304.9320726
305.1003307
307.926231
307.2192325
313.7532505
302.3427538
317.187386
349.5437892
400.2446242
297.9709945
300.6770122
301.7831059
305.1112329
307.8036265
305.2992016
305.9754348
306.3331684
305.2121211
305.2825753
302.9734842
304.2787912
304.4396757
308.3635494
308.8948197
311.3153196
311.62817
323.1358421
361.4137636
396.2747068
303.2491696
299.8434957
297.6448127
294.8616031
295.2126879
297.571926
296.6492534
296.2761501
298.033702
296.602204
298.8530614
293.8786622
300.0955963
311.3325778
306.8841103
305.6596848
311.7478798
325.213638
339.3399572
369.3155781
300.4760743
304.6731665
304.6583474
306.5231079
305.8214932
304.1760695
305.8833984
306.6717099
304.0790766
314.2705817
310.4051103
304.8105543
306.0461222
306.1783548
305.6137519
311.8366582
322.6397334
337.5868054
331.7504851
347.2365584
311.9594133
313.7023971
310.1682406
317.7524368
315.3592491
307.9689819
302.9892002
297.630036
299.1813907
295.386656
296.4082042
300.8472378
297.1160382
290.8325541
289.4960004
290.7209605
296.5304588
314.6093469
310.0958294
335.551013
299.675746
302.3861451
298.8378694
293.3514156
296.7496488
300.8716907
309.7466684
312.4502699
312.2939186
309.7969211
308.0907657
306.6145329
308.4822948
310.4330922
308.4705992
303.7145811
303.4010083
306.4371885
306.6844479
314.7970646
296.091106
298.4835005
303.6142211
304.843257
306.7713066
307.0660362
299.32416
294.5332298
293.9862951
289.5276522
293.7255725
291.409709
294.9607824
294.5925166
293.0859962
299.9492602
304.7865627
304.6697673
311.0895021
308.9744488
303.4930235
300.7503598
295.2901705
295.8236456
285.7978093
290.1994517
290.8782228
290.3207655
296.4607221
302.2005442
299.7869998
301.3001507
301.1017174
304.2781031
305.0977294
303.4931055
301.1213092
299.4121972
302.6674472
307.5568189
289.4795281
297.9074329
298.0838555
298.0179471
299.9809926
303.109113
304.194953
303.0140421
303.0064351
304.5072946
302.8256233
302.3251508
300.8429056
302.6257739
303.5178366
305.731274
306.3502474
302.7211136
300.8688607
300.0951037
307.7160195
305.946048
304.9934308
302.6889827
300.3129691
299.0346781
300.4129224
301.5236635
302.2478962
292.6454127
299.2307029
300.5244539
299.682489
298.5174636
301.9558488
301.6060733
303.0555465
302.9304029
303.5660663
299.597487
294.1020033
297.4798233
299.0416694
302.900774
298.6023602
305.6918293
304.7190131
306.4013937
300.7608752
298.0847567
294.3363211
293.5677764
293.8584176
287.9373023
290.2351214
293.7549366
294.1565757
291.3041101
303.1794889
301.2555192
286.4226898
284.917546
285.1245771
293.4940561
296.3036854
299.2536946
302.2617598
294.3348766
296.7356771
298.7545539
298.7382859
300.5654719
304.8368951
311.3803934
305.7951527
304.5796698
297.2607699
295.6801755
299.3779063
308.2103473
296.0150355
293.2998544
293.4738029
286.8609857
290.4787801
293.799557
294.7378608
298.7403014
306.3098484
310.0503403
298.4372408
296.8944619
297.5902585
289.7957699
293.0854978
291.6651052
295.6025681
300.2225029
298.812514
296.8819885
296.6969163
299.5875312
295.600288
298.1678651
291.5303352
287.5139396
287.5335679
285.2872857
283.4496046
283.7310658
293.7056767
294.9268757
291.0137623
292.7396293
294.6924685
297.866989
296.3228001
299.003579
295.838301
298.238648
302.1479917
296.9839131
294.1341757
296.1394086
297.6328632
295.688673
297.401622
296.8206494
302.6361465
299.6475416
295.1590131
292.0421909
300.5083794
298.7089023
303.1136778
306.7890724
307.5524917
309.0922842
299.6229962
304.4752545
304.0204084
304.9484813
305.2660371
299.6491076
295.3049198
295.6215543
294.2724183
289.2819599
284.4704949
287.5592036
290.1473364
294.7876165
293.5265915
297.3235231
290.5912304
288.5969779
292.7082984
295.741859
302.9546273
306.1409937
290.5089685
284.2418831
285.4768308
289.8761237
291.9908851
296.5986465
297.0208056
303.6320849
300.4454391
301.6783588
297.8315587
298.1254207
293.467739
292.8028729
296.1411831
297.0472918
301.3381929
305.4749148
302.1690683
298.1820822
300.1702253
301.120271
302.470274
297.4934752
297.367552
294.8615592
289.8032316
286.7776255
285.6646691
290.8261651
296.4582882
296.6812816
295.2336386
290.6197087
293.0307229
292.1371748
290.0910655
288.1324381
292.7976256
293.6836356
294.7803999
301.8473045
298.2395399
304.0911186
304.5002317
306.2467944
307.1481219
314.2481646
318.5561556
319.1805748
309.1261614
304.7990826
311.1506618
308.7063173
308.9396251
311.0076216
306.8106287
308.9802633
303.3566004
301.6318181
302.0651007
299.0116949
296.7667386
295.0022543
297.3014087
292.339195
288.6395825
287.0214632
279.6680156
281.6739402
286.8667923
286.3139181
287.4733669
294.0194476
296.4014021
294.4799163
294.4990485
294.8319889
293.8980501
297.0639234
296.7009935
296.8387267
296.9402937
302.0689853
297.9098433
299.6392738
301.7692563
297.4360533
300.4565138
304.1138604
305.9183783
304.0350081
306.7677513
304.7461752
299.6472088
300.0665281
302.2983477
304.9172641
300.0866273
296.5299603
306.7645298
304.6573902
303.6431308
302.9382385
305.8030182
307.7625699
306.5957019
306.041003
312.5693877
309.7210722
309.3990042
307.9082222
303.3080252
306.2305403
305.1415128
304.7365985
296.540652
291.4877311
300.1521602
307.1164331
291.3691764
290.3104574
295.0090593
297.4868097
294.1599088
292.6173551
292.5755656
300.0392925
296.8268917
292.6981166
297.4044608
299.6720713
301.2376468
303.8657043
302.8877668
304.8108225
309.1241615
313.9986377
310.5530142
308.9553829
293.073051
300.0258227
295.312742
297.0050251
300.2125844
303.1118624
299.0382793
293.9754641
296.123877
298.1352001
296.5185101
294.9160547
297.9395376
293.1562394
293.9195667
294.3809207
294.0328205
291.869737
293.306846
295.8106059
297.5629619
293.1245273
296.3943564
296.7779596
294.3450216
303.468219
304.5668622
301.6505027
300.6036332
298.2068693
303.2029788
300.3591797
296.400695
296.073807
292.3259596
291.4040887
291.0973205
289.6476329
293.0904817
293.1162203
308.183239
313.4451297
312.3480543
304.9713874
296.2130496
290.8601103
282.3794681
284.6744723
289.2946584
285.7682888
282.1468489
285.3548934
286.762957
288.8826816
297.7833033
297.2795217
306.5520668
305.5586891
310.6551399
304.5176764
296.3353409
294.128218
293.2201666
293.4646447
297.2712354
299.697936
304.4881742
302.8174659
300.7824329
298.7141901
298.5000629
301.0466752
304.3160305
304.0117506
301.5725305
295.6174178
293.318489
290.0341307
286.2078878
290.4331089
297.9297962
302.3320167
301.2013169
301.9737759
303.2917094
298.2324721
302.473093
303.3724651
305.4940199
309.3488166
309.9068058
308.2409903
304.592444
300.9266518
305.7745046
303.202293
304.4661155
306.3546136
307.0988435
302.5712968
303.5085387
298.7601896
298.8006654
302.7726426
302.6436812
302.1661093
301.9251225
301.4661032
302.2491963
302.4123557
297.9757358
301.0490862
308.4906142
306.444337
308.3929546
311.0613674
310.9945443
315.7130773
311.6210357
312.3655802
300.555585
291.4170614
295.5120403
296.3051025
296.6311835
293.9386745
298.4781884
298.8689512
299.1540293
299.8921497
298.9930402
303.6066969
299.1250583
300.6358657
293.5456798
292.276732
296.9158919
299.1299072
303.4126748
302.945545
289.4611228
294.522969
295.8114446
294.550093
296.8521381
303.2085063
303.1569338
301.2588418
301.6610851
301.1065094
301.2835292
297.1830784
297.2095768
299.1640322
301.83538
299.8483197
299.9641365
295.0092167
293.6802585
293.2689712
301.8616478
307.2171182
310.5924341
308.6485474
308.552652
304.2556653
303.9337579
305.8884855
301.6326373
302.2917826
297.8655292
303.2307604
298.168692
290.9883207
293.0392139
294.0190311
294.1794552
294.5822185
295.6298697
295.3628074
309.3906398
303.1956272
299.2001685
293.3257276
287.9889279
294.6663031
291.3675043
294.5728689
297.4646749
298.7107741
300.1986399
288.5480508
287.8020748
293.333653
294.3386771
295.8619637
293.2468254
293.459213
294.4935028
293.1685206
301.6246902
303.6949078
299.737602
302.4694785
304.9700532
305.3553555
307.6479251
308.4992579
304.1429195
301.0513986
302.9861302
305.8189635
301.8085621
296.3087054
298.9651872
298.564825
301.7534289
302.686141
301.5207371
303.2350726
288.7131453
291.3102204
295.724462
292.4596039
302.5572535
299.6983348
303.4169987
293.3729258
300.9770007
301.2133684
300.9434498
302.9489563
310.4998736
311.4087749
311.6030143
309.682985
306.140336
304.3225141
301.3823395
301.2249218
297.779804
299.5100423
296.5643143
291.8318508
287.9875771
288.3048198
290.1771803
300.1027028
300.3731329
301.5532154
302.6633084
306.1729118
303.4626093
303.2862684
303.9011008
299.5289021
299.8670446
305.2333104
306.3185105
303.6133721
298.0561159
298.4625934
298.064663
297.6188256
298.2919146
296.6333486
297.9380983
294.4929796
291.5835126
294.0787487
289.7471093
291.6949661
294.3512666
298.3250811
300.5895177
305.167076
307.148479
305.4645507
303.3045339
297.5721147
307.2768389
307.4528968
307.8116441
304.0236279
306.9668128
311.1184821
311.2638387
311.5534042
310.7846635
313.7832481
309.3323406
301.4480194
302.9685028
300.0185268
297.8581295
292.2115712
292.581299
298.1510159
304.3852435
307.0206945
291.8535805
294.0683539
295.9399397
293.2337099
296.9880957
296.9191132
293.6302865
296.2758668
293.3899892
293.5777821
297.0557228
297.6140376
304.9124122
304.1368091
300.4943161
302.6221182
299.5829239
295.4778311
291.6783793
289.7639391
533.0685428
579.4701815
631.3132187
641.2538216
654.5029754
670.3618168
687.6383888
703.249642
703.6002621
705.8329477
700.9526746
682.9673914
671.686396
692.7667689
700.5674788
697.5557129
691.5956806
667.3580379
660.1347136
678.1237475
695.962101
688.3838971
679.7649977
670.8464942
675.3704142
695.1020901
713.3654766
687.5580654
673.6374185
660.8022626
672.2649353
670.48327
687.2551242
688.9148876
646.7083958
668.179963
668.0267611
675.7124254
669.1834447
702.3910538
483.3869511
567.7871881
592.2621422
632.6681499
662.402499
692.4600752
708.6525886
710.6021416
754.3291672
782.5634945
779.6216259
730.0120321
766.0288085
754.5809831
760.4565217
759.6362978
768.150267
753.0189865
765.5175338
749.3195105
747.0123937
764.0235933
764.4097265
763.5539563
754.2216891
722.241256
746.0179586
768.6497442
744.3106194
732.7803248
734.4248144
722.6074584
720.234356
713.9460224
724.0840457
706.8097056
707.2912872
715.0079232
725.290269
730.288237
432.8341076
496.7256379
540.7258454
618.9558042
626.1628512
657.3262669
685.0119115
733.5408777
722.220569
736.5655515
734.6399998
754.2187185
749.6528404
746.6543108
730.8538708
748.6389258
749.5077539
761.5589936
755.8148839
767.9489936
776.7938981
788.5499787
794.4036624
805.8763498
784.1237994
766.751038
766.5293629
775.9364759
796.8863709
781.6184207
783.8625527
764.3167723
763.1435871
765.6471412
765.1239688
762.7046728
729.0986361
728.0574796
749.6563844
729.9139705
399.1062142
433.4871394
506.3908687
560.6988489
574.8025925
605.4816999
618.5280784
670.3211967
668.8940958
710.2953488
703.9218922
716.3701309
750.1633354
741.1724693
767.011303
746.4925278
738.5427343
767.9724455
761.1753311
778.8204789
789.977574
786.8234314
791.6846796
793.2943439
797.3306765
772.0647203
773.4403197
786.7678645
764.6058217
767.9430617
739.414626
749.7994411
751.7777234
783.9100699
798.8172691
757.2033903
745.1128022
750.7874288
767.3101465
763.7452504
393.94863
410.0914868
445.1426209
459.348503
503.8555244
548.1730679
551.4356835
589.698239
606.9000158
641.4530834
666.173609
693.1881128
686.9304434
720.5575551
712.9528436
730.9500906
735.3184992
748.578293
793.1096658
749.5724631
769.8918321
780.9388912
808.2527445
787.7717273
761.8031916
763.468167
785.8175136
744.8932014
767.8326392
755.1595237
787.0630492
788.761562
779.2125837
762.923265
792.2004988
775.2920969
763.0904158
748.5579551
790.3552568
749.4555031
355.1741724
357.1933193
400.0561971
429.0498407
460.0350151
477.2648549
529.7874744
551.5713144
572.7186324
591.411121
594.5911511
634.2067343
661.9443409
668.8872124
665.6299602
689.3130128
718.59261
715.3271438
723.2406296
725.4611567
724.8850323
748.05835
768.849334
752.4690424
763.3980204
754.8551453
753.5094349
768.8100378
773.2853182
789.3527523
796.1268176
827.912505
786.2391532
794.9521211
774.8441833
788.7109055
757.9687455
731.8960715
748.7594008
758.042144
330.3196008
357.6528803
365.1134201
403.6314857
423.8671414
435.6539924
453.1710481
500.5336702
526.5848851
554.396917
579.061413
606.5304056
619.2996751
609.1013268
635.7709896
650.0882641
666.0410776
697.6662913
689.3570685
723.0031015
712.737955
709.0049256
706.4597041
727.4750684
747.9997082
728.8393452
735.0420188
753.7457679
762.245747
767.1272257
785.1920569
766.345711
771.2113452
769.4772106
756.0978906
746.000479
776.6118317
781.5182958
748.0892997
734.6254525
321.4852249
335.3738228
352.1340261
375.3245805
385.557672
415.0657885
428.6430417
449.6815022
465.9127744
491.6900896
537.7775908
553.9473596
581.4101666
599.8137524
592.2322446
627.2322525
622.943551
631.4026171
671.7991797
689.0361119
695.0722075
683.8920757
680.4562339
728.1131901
708.5344903
717.9668413
733.7285537
739.1581406
731.7624071
711.1865041
733.9439065
755.0165528
773.755829
787.964048
767.2885113
758.6775292
781.2460247
781.7469884
761.8665203
750.4712391
309.7976048
327.3005717
341.5342069
337.5942247
363.6976774
382.1468829
397.3001066
421.2844757
439.200174
443.7177822
465.1172867
477.3073915
535.6514987
544.186034
554.4363327
591.5537803
609.9484714
628.6909748
642.3483528
645.4567042
658.5890688
679.8458093
701.8912689
695.335796
701.7647107
701.4524928
703.1032577
707.9729467
709.4815267
737.09165
725.424343
724.8075405
728.346789
727.7395604
753.030497
732.2389766
733.9694195
756.9421959
768.4937378
731.4093756
313.6674303
308.7584962
336.607762
351.6865674
344.9858662
354.0491919
377.4900685
395.7116883
410.0422418
408.0722901
435.2734621
457.4280156
486.5397412
500.4171793
518.8799834
533.9636101
562.2471609
592.1837207
608.1264913
625.3935565
637.1446424
632.7868531
643.4692848
647.6718961
675.178372
696.094112
713.2829233
712.2887346
703.9289087
714.3253685
711.9050217
715.0643983
721.5158079
721.1400953
729.109424
735.7505464
720.9304426
712.5441964
713.6999759
715.3088451
309.8192665
319.5506738
318.8047185
325.1620662
334.1372601
324.6743251
338.2619047
348.1821698
388.4494582
406.4348911
419.7641883
425.468173
447.4319783
468.412268
489.2650059
512.305723
540.2635187
542.4721504
563.4171285
583.7573042
583.9828391
608.9680933
599.0513891
621.6818184
622.8784235
648.4714589
668.7903217
650.6697746
667.4492114
663.3712705
692.7014559
699.6265478
717.6303802
681.9406798
702.4052297
713.7885931
722.1646403
702.3735781
685.4938624
699.1468102
294.9694024
302.9571714
309.7521157
316.24683
339.5557189
337.1978324
344.6598424
359.6078692
350.5469144
372.5601296
384.8164115
408.0239946
412.8974306
428.5044892
444.9590297
456.7837346
476.4105855
495.0895023
496.2041042
524.0772784
540.5512022
550.4734734
584.2183777
585.9750498
617.5348432
626.6274074
628.7354393
639.0486243
647.4651629
661.4812423
683.7907848
682.1288022
689.5651719
694.2550949
673.1096908
695.054971
717.4724481
683.0453484
694.0878891
688.9882912
305.6641933
300.8611074
303.2044707
306.9091618
311.0550088
331.463673
316.0610286
319.888198
339.5229371
336.1113927
350.5143125
361.6152377
378.5030985
386.9585789
401.1824021
410.020775
426.9818609
441.4734469
468.6878011
469.5980593
478.7021552
524.6957894
530.4885466
546.6576575
570.130422
593.5582974
609.175303
635.7905913
655.97553
649.6495707
630.7584031
631.5356188
650.5980971
654.8965427
663.5186701
667.8718292
686.7079306
712.8746515
701.3569781
711.1073936
297.8271313
299.6660176
297.5739934
304.6700692
304.6397286
316.7620808
316.9843872
317.2683512
325.3630598
343.1377107
354.8178678
359.012751
373.9920873
370.8807876
386.3190902
402.4579705
411.4169615
435.54847
470.1659269
475.3606858
489.2848139
489.438788
503.5226743
516.4317759
539.0303202
551.3767712
566.6453084
577.8810247
594.3462787
615.544707
634.6792661
642.0505863
629.4617082
647.4902674
651.2498488
643.6807264
650.6437485
644.8656116
660.409804
655.3426111
299.4757019
308.2414281
308.6558275
313.0780149
314.2520859
311.8382644
323.1105557
331.4384216
332.5578954
338.4943753
339.0338916
346.0095445
356.9780045
357.7677305
368.0929581
379.9795731
400.0064943
416.1771759
416.8440302
431.345459
466.8500745
472.8521761
487.4730856
505.4992313
511.8689616
517.020114
522.9038324
549.8054365
564.7151459
566.0568714
579.4464507
592.9607612
618.9966273
618.3004795
626.6066798
624.4409029
650.9518231
626.7581089
618.4865154
624.6703179
302.1404482
299.7068898
303.8966188
302.2910836
303.801886
310.7919293
317.887747
314.049839
315.7882692
323.3146829
329.1337645
332.699496
326.1682779
350.5716643
357.3463084
360.4777798
366.5552069
380.353896
411.4829988
409.3772635
413.4670871
449.708067
453.210934
475.0367143
482.7052967
498.0842144
494.5190185
519.6933643
532.2630978
543.2752121
566.2099004
572.3948762
582.8529166
592.2140366
591.9590323
605.1586194
609.222742
619.8744041
618.2763233
632.7450703
306.8957454
308.8316063
310.1892127
309.554769
308.2820382
316.6126327
318.8068784
328.9694498
331.2746856
325.9228202
318.8947017
331.7808066
340.3072456
328.6109344
340.2906958
343.7966109
351.6107177
359.0269374
376.8758566
394.3504157
398.3764416
411.140737
416.5835486
436.6628326
461.3913356
483.1300943
495.9042638
496.7566611
510.521021
508.7799677
527.3553504
542.3198618
546.131226
563.5102162
566.2206483
586.9758783
576.6788096
605.0550378
619.2155237
632.6712508
300.2650537
302.9624365
306.6442163
308.1593796
305.5353139
307.0750431
306.2940818
307.1424788
307.6520482
304.8850306
305.0808818
300.8196604
310.9602414
313.1251123
328.6512962
325.6820158
339.0376428
351.0029234
355.4400127
369.5853764
390.0239585
382.2016082
399.6419576
414.7788238
423.4357332
431.8523897
459.1652535
481.8340153
497.189361
503.22224
516.3450652
507.365275
540.094378
560.8872822
564.706178
554.6257546
568.9500651
576.8835144
588.8641124
595.1207164
300.7162959
302.8429596
294.9896198
295.8866325
292.9020226
302.1092829
293.5922369
299.7037732
297.9697507
295.8856084
304.1713632
308.0607814
312.2403191
317.0571213
314.7923834
321.9753716
329.0867903
327.6595496
337.478078
343.6284702
357.5926453
365.7250352
377.8826592
387.1558109
405.3057098
411.2878713
414.1775699
434.1899752
461.7105487
485.2037506
487.2217761
502.1228049
503.8288881
509.9103563
538.4444222
548.2370255
566.6382817
563.8152236
560.3833542
571.1990724
305.5277022
306.8015852
304.9718969
300.331021
301.1560957
293.7922577
297.275611
298.3764194
297.3831249
303.5317212
307.1735963
308.8167088
310.127851
322.3621578
323.5801974
326.5819827
326.8500439
329.8982255
327.8648335
333.5847277
353.341785
360.4794532
365.0487925
369.7721347
383.1550394
398.2402299
413.9381111
430.8563426
417.8291273
441.1487689
454.4868632
467.9972862
494.0769975
502.9613593
501.5480149
527.6817649
532.9320036
534.2670158
541.3968639
544.1764436
297.9059521
290.9192066
291.5657756
288.8509007
288.5844317
291.8591473
299.6722119
310.4308302
305.5000738
303.1575168
302.8772552
303.4581328
306.827537
296.3263638
302.071746
304.2822935
310.7028985
317.4058851
324.47162
324.9056157
335.5219592
350.7968062
353.1480924
362.3502635
374.482415
372.0472333
388.1974165
396.7954002
414.3026872
413.5200414
429.9101056
439.849832
447.0651516
467.6650505
478.914898
491.1832124
491.4643721
512.7042197
510.2066629
536.6905018
294.467787
291.8162146
294.6440326
301.2143715
303.6887344
304.5468053
302.8197344
303.1326277
305.637229
300.0298965
294.1510336
291.4999367
297.8289406
303.3774618
301.358312
300.7417631
306.3419852
305.775567
315.1851615
320.3041313
319.6729561
324.7382448
337.394911
349.9701688
348.5196135
363.7529715
369.6011918
366.5537781
373.1324371
397.2592845
408.0203536
419.5861133
437.41643
446.2764214
459.1523314
477.7071616
479.5234621
499.631584
525.1303216
518.428492
306.9358491
306.5236603
309.8059224
311.208291
302.225155
300.3900546
300.770204
297.8003302
290.2377713
293.5430379
297.5765511
299.1427184
292.1975299
294.2795412
298.9537851
297.7846834
294.816789
302.7311696
293.7716237
313.630064
314.0898926
315.1694968
320.3005315
320.608468
329.0304948
328.2450073
346.4938391
364.131858
357.0814103
365.3168259
379.5556423
380.9016872
379.9111831
404.5304095
428.1406329
437.2521123
458.1327146
452.1233813
472.8603415
481.1738967
307.9268236
309.3557682
305.5462378
308.9049774
309.3092635
301.4651502
299.1467743
298.5690618
304.7088653
296.4120092
291.8803769
293.6864577
293.9141412
296.1626947
291.7243368
294.9416019
291.0101335
302.9688212
316.482738
308.227282
313.11318
319.7999671
322.8919506
326.8618076
330.6413495
323.6369798
330.0460522
332.749315
363.7674417
359.3983984
357.3178818
384.9751395
386.367789
393.5356981
409.1892693
424.5989656
428.3887295
436.6499421
437.1010891
465.6949992
296.4692458
299.0334295
297.6410956
295.876029
298.2097088
305.2834504
303.1007582
298.8770098
296.9919129
301.363029
299.3533708
296.9220032
298.3271105
296.3599761
299.571086
303.0185415
299.7292945
304.6314242
297.9350899
298.06641
302.3649577
300.3673475
297.4336124
297.3077467
308.8488403
321.0345396
327.696174
331.9692355
341.2294589
346.2966642
361.9133334
367.320161
387.5066331
386.7407151
377.9766499
389.5863289
402.2548194
426.4622131
435.3177794
445.4815542
298.4883604
299.7120911
303.2024114
297.2965529
293.1395041
293.547804
301.4232653
305.8334803
306.3300995
304.7160747
304.3078421
302.0100133
303.6109296
304.1557963
299.2990515
298.3013244
304.9840516
301.4736521
300.7128271
303.4603068
298.5338789
302.6373684
307.6803686
314.8598299
310.821038
317.6018746
328.636685
325.6936126
315.6030486
326.8992026
334.0363485
334.9254251
344.5858655
357.0354152
378.3890879
383.3599172
383.3605653
400.3867564
421.1510166
443.3186537
301.7176934
291.3522145
288.6842763
296.8135919
304.5042296
305.9460902
301.5969063
298.8238096
299.1338813
303.8367234
308.5843807
307.652916
304.1519181
296.750895
297.7205354
299.5989792
304.3783837
304.0443663
307.3397189
306.9281735
306.2574866
306.9650862
307.7177402
311.819666
316.5546052
314.1047611
311.441631
310.6342687
312.7154751
319.368257
319.4962879
326.8963989
330.7746988
332.3160489
351.0591905
359.0607659
375.535786
383.2635202
400.8602981
422.3542087
294.0805286
295.2643677
304.6331858
307.6218501
299.6661249
297.1132503
295.0965057
298.4364119
301.1283378
299.6310594
304.272483
301.0292179
300.3792774
304.750058
306.6108922
301.7022438
297.9839486
302.4060503
305.0590281
306.7465739
310.283074
310.1936121
321.7394193
314.1316562
316.0652084
321.7621435
314.4955968
317.381074
318.2627741
315.3799029
326.3216517
325.0060408
331.5601714
335.1409146
342.7753314
358.0768508
355.6154693
374.0614816
380.2871538
390.1798867
304.9098023
307.384985
304.3371725
296.4116476
303.0197375
297.7527295
307.8409797
308.4068176
305.3976848
302.6829456
302.4964704
304.663046
305.4593222
303.6473359
303.3920128
303.2604122
307.8364139
305.3826332
308.909599
304.0805129
299.7925717
302.9355498
311.0120149
306.8994345
306.4888283
307.9650627
315.9071114
317.3975607
313.8961545
323.9671964
324.0368553
331.8996715
347.7680108
344.9451668
346.641523
350.5819012
359.6902383
359.3112309
364.0633264
381.1367963
308.8295493
307.437576
305.9492897
306.6177492
305.7483363
307.8682317
304.1885132
302.6821513
302.0152995
300.7774035
298.3746699
297.650563
298.0806785
300.6789108
293.608925
290.8081968
291.127771
294.1626901
282.7809359
285.8664454
292.6038294
299.1384516
294.4922232
300.2493459
300.9023384
308.0188551
312.6926675
324.8394257
331.7632796
331.5514003
329.7871495
324.890937
321.3696864
322.5339948
328.6283368
332.3066537
339.0917721
345.1542795
352.7842386
365.011791
298.5995277
307.2172814
307.075905
309.9609676
303.5054585
303.9631194
301.6943019
295.4757789
292.9416541
296.6461351
294.7781001
292.3287058
298.1445662
291.1700767
296.377799
301.3453011
296.7285794
289.3017182
290.4651219
291.2513536
298.4566942
304.6339499
297.0105949
299.7016238
306.9442256
309.1390981
312.7357405
308.3541964
305.8069951
306.5237083
305.8599574
312.2224817
312.5605511
318.2383412
317.0309409
321.7078059
329.0777485
325.834301
334.3228404
339.5226529
298.4081775
292.2066951
294.7731663
296.0999743
294.5098565
290.8292426
292.0812893
294.4798185
292.7544695
294.8060389
296.4890358
300.4493666
294.1000702
298.5067484
291.328405
291.4248923
294.2269483
297.4100364
303.8937613
305.0648459
308.3656955
310.1620537
318.5894437
316.9399169
306.7715715
306.7120509
299.2934014
301.4637572
305.5090632
304.483436
304.8602105
301.1155303
305.9007745
307.0824281
314.7875337
323.1462153
324.6008503
323.1843294
325.8512134
331.352841
290.8493285
289.3390225
291.2667494
289.6606008
288.5836165
294.7584106
294.3537199
294.3574432
295.9898302
295.9458444
288.2681566
289.9978801
302.0153203
305.775985
311.1719828
311.9192007
315.4873613
313.0331149
313.6338812
303.878884
305.4587583
302.4514157
296.2159529
295.9634039
297.7764828
295.5227949
299.2142644
293.1231849
294.3606062
300.7402126
302.7716282
311.1202203
302.8396323
304.9892996
311.1479639
316.0858709
315.2801305
318.0679717
320.4538982
325.8561832
294.2425463
295.556519
296.2532882
296.6449956
299.6105584
293.4658458
292.2843386
291.0323874
288.8683145
288.1000625
296.0755948
296.925855
290.2674528
298.5276617
294.9376109
300.8972575
300.2931299
299.9371844
296.6838106
298.3852261
301.4756829
296.0364517
303.2722769
301.1810349
302.2723552
298.4555591
299.6709755
307.1011666
313.1801297
320.1137716
320.8806167
311.8440547
321.5024557
317.4143199
311.805612
316.6034384
326.8144181
325.0849072
322.8327257
319.4683506
299.0449308
299.7750022
298.2302047
297.9543985
300.6304496
299.6413074
299.0354116
302.6322428
305.8098508
304.9157385
304.2012199
298.9340922
300.4494498
303.8779648
298.6055334
301.8740868
298.1049531
303.4822811
308.6907621
305.3580531
305.1119222
304.7678622
306.6761031
302.9033951
309.1418081
306.6874888
305.1374401
307.9539096
306.9852735
300.4087679
305.9149345
307.8012799
306.851931
315.9636467
313.0621079
316.0753048
321.7485552
324.7689723
326.3842564
321.1360064
305.8945778
304.4862296
306.3131913
304.7112352
309.2508406
307.3758726
309.4937488
315.8076879
311.3576872
313.8999435
318.3623383
312.5850825
315.4275759
313.0823049
314.3862043
309.2442699
309.5911725
309.454076
300.7300786
302.5852085
305.4849444
309.651336
313.4889668
310.1765285
305.8095056
304.0308592
306.5971706
301.681895
305.5921481
301.9982205
306.63327
317.3554602
319.2738969
322.8611509
322.6772319
312.2484798
304.5611154
310.7062411
313.9914162
320.9899613
306.5635003
307.4393922
303.3474643
302.3114508
302.2331924
306.1079797
306.6319602
300.3375177
304.8179743
304.0815466
303.7297026
305.3969736
308.0268389
305.752218
302.2266894
298.7362392
296.1723957
298.2326136
298.3922993
294.2018568
297.5201568
292.4783518
287.8518746
288.0190793
294.5537065
297.5221909
296.9921465
296.3391948
303.9412429
304.4328545
305.112365
305.209913
308.2616702
303.0161476
301.1818652
311.51276
305.0595276
306.9046578
309.4510234
306.3117987
291.1039791
295.9254247
297.8870315
296.9828228
294.0802078
289.7461792
292.3708743
299.1919306
296.2064083
297.9722921
300.9126187
295.4650285
292.1336058
293.476819
297.0331497
299.1368997
300.5467392
300.5558497
301.9598109
301.2091906
302.1001361
300.9677194
303.9846261
302.6996916
297.610204
298.7660171
296.5863007
299.0020882
296.7104639
298.5247832
298.10214
293.8736961
293.2825363
297.0419034
285.5705732
291.5238196
291.136007
289.2081076
292.1087347
297.6160171
306.160715
306.345163
304.8700571
305.8288203
311.3366306
312.3913957
308.5529688
308.3401773
293.8439322
295.5776509
295.4881018
300.7455467
302.4402061
296.7327968
294.1709975
296.9486772
298.8675369
298.1868359
299.8754033
299.9592989
298.2718523
304.545472
300.0420488
301.0947878
306.4629481
307.2026245
308.9381823
308.3532843
297.4673671
299.6272471
296.816223
297.4508957
293.1994228
296.8797476
300.8529949
293.7215785
293.8466849
296.3025392
299.5142134
298.1157547
288.0035634
294.621748
296.5930461
300.7827568
298.9666084
299.9503418
300.6335382
303.6372565
308.4709005
306.4075678
308.133419
302.1173291
295.1552023
295.0928224
298.2914389
300.200342
294.7300513
291.8198166
293.632705
297.8143631
290.9887109
291.1729045
299.6906777
299.5162748
301.4234705
306.5450071
308.1901391
301.7486484
309.4921783
297.8744435
295.5470547
294.6732932
294.8435911
294.0361588
297.4805651
303.1585326
309.5804539
306.9348211
306.7994649
300.1842553
)
;

boundaryField
{
    flow
    {
        type            calculated;
        value           nonuniform List<scalar> 
160
(
297.6674699
301.4240497
297.9709945
303.2491696
300.4760743
311.9594133
299.675746
296.091106
303.4930235
289.4795281
307.7160195
294.1020033
286.4226898
296.0150355
296.6969163
302.1479917
304.0204084
290.5089685
300.1702253
294.7803999
302.0651007
296.7009935
306.7645298
291.3691764
293.073051
297.5629619
308.183239
296.3353409
297.9297962
303.5085387
300.555585
289.4611228
301.8616478
309.3906398
301.6246902
288.7131453
297.779804
298.0561159
307.2768389
291.8535805
702.3910538
730.288237
729.9139705
763.7452504
749.4555031
758.042144
734.6254525
750.4712391
731.4093756
715.3088451
699.1468102
688.9882912
711.1073936
655.3426111
624.6703179