/*--------------------------------*- C++ -*----------------------------------*\
  =========                 |
  \\      /  F ield         | OpenFOAM: The Open Source CFD Toolbox
   \\    /   O peration     | Website:  https://openfoam.org
    \\  /    A nd           | Version:  7
     \\/     M anipulation  |
\*---------------------------------------------------------------------------*/
FoamFile
{
    version     2.0;
    format      ascii;
    class       volScalarField;
    location    "0.001";
    object      internalT;
}
// * * * * * * * * * * * * * * * * * * * * * * * * * * * * * * * * * * * * * //

dimensions      [1 2 -2 0 0 0 0];

internalField   nonuniform List<scalar> 
2400
(
259.8768446
277.2564592
293.3412534
299.149244
309.9468258
326.7467138
314.9816161
302.0309337
312.2923983
320.19307
312.8996313
287.2450811
290.7449522
332.5495082
391.6281988
354.117319
325.717637
326.8260649
342.9501407
379.4814497
300.8347774
308.3247717
292.7858914
271.5651609
298.2301124
294.3788591
305.0515596
284.9759502
323.5637754
293.2949929
307.7155001
301.6483218
305.2187305
300.6548792
331.3033365
339.6103217
330.3722931
365.3261772
360.1307077
401.9735231
316.1286882
349.0480366
319.8667309
297.180398
305.6972298
266.2936685
280.9181023
289.360633
335.0630396
306.7706251
308.4122367
295.4468256
281.7467599
338.4059988
331.6759783
297.7925082
348.1287272
376.0445372
339.4067882
383.911742
321.1627996
351.5303124
292.4224362
279.4209412
301.6619362
285.4219082
269.6551001
322.9489234
328.0192118
322.1432381
327.3573138
317.3736347
341.3988371
323.8881378
274.3934644
324.3346
330.8633922
336.016151
356.7738811
395.7751682
344.7508549
278.9197824
304.3773532
301.0892138
283.2478265
291.9031601
316.7173718
311.7164407
304.9982428
293.1359595
320.3363252
355.6201181
333.8944884
318.3056058
324.9951929
333.5556776
303.3608491
314.7673122
370.1834061
347.4313641
310.4587858
306.0109525
323.2543589
314.3375481
291.9722406
277.8062104
285.0140503
300.6031387
292.6133307
273.4745767
305.4950879
304.4473101
300.7465868
300.7899194
314.2348979
306.1300357
289.4961817
322.9056171
348.7853123
386.6463213
284.6104215
309.1913532
309.8909164
301.9349693
314.8896014
310.4261006
288.911039
317.6106442
319.391722
315.3741974
297.8841091
287.8788729
278.4052753
351.2468509
295.5340718
334.0299418
333.3627465
334.6769703
334.6861649
365.6269508
251.0612175
270.0006635
284.8453746
269.5835402
280.3739157
280.8340343
297.9193941
277.2293955
325.8539757
314.7621913
318.5783229
291.5455106
316.8642269
312.2072741
278.8428553
317.1065281
315.6548577
326.5577781
357.79075
359.2851209
277.9513019
302.2898651
311.66127
308.2722474
287.1089641
272.0189543
284.6919692
299.9239587
314.8360268
310.9035865
330.3184657
293.1922557
307.5147142
266.2665403
283.4272916
354.967394
310.0486397
297.9903796
352.0093884
346.5165097
272.7069633
303.8992548
310.2015596
323.8496509
312.0812223
313.0854661
272.032484
320.6599362
308.0282024
302.803182
311.2139877
311.590941
321.7368089
336.0408463
309.8149608
347.0572705
356.2740433
311.5948331
343.896354
340.9141098
286.6269361
322.8455979
296.4718887
313.8155646
290.8461279
297.4386019
284.4725726
289.5749423
296.8755351
303.9058149
319.2850001
327.1128658
334.0888117
357.7729122
341.9525434
357.3393528
332.0599149
352.6647263
343.8757206
337.3736941
268.3413237
272.3302365
314.935321
293.562519
272.3167846
269.4899516
311.3527553
304.9129924
335.306355
347.0183477
332.1739961
331.7523522
310.0574668
350.5415316
382.9179607
317.4474619
326.9073449
334.5438119
326.873158
379.4760736
290.0810022
290.2517221
265.2476242
237.4357758
257.4918643
276.8189075
276.5381069
336.1330538
277.223619
302.9723351
339.6411552
335.7788148
305.1261031
331.2423985
331.5616485
312.5846593
315.3967963
320.9851768
322.0253088
374.7923615
295.8963908
299.9790023
296.2596489
268.5538545
285.4926543
268.2487201
265.1471389
311.6531038
306.2241778
296.3839395
296.4418091
343.7648746
358.1251694
333.6323137
346.8279787
314.4535899
319.4695346
300.2950037
337.5777589
345.394882
296.0250465
273.9781832
283.5079772
268.0207275
270.5037859
244.4211088
245.0989421
280.7939447
326.6208555
316.7513302
327.7096163
334.3072396
351.8640802
322.0126466
321.9693419
315.690911
316.5776097
327.3075292
358.9647878
357.7598028
305.9831699
296.6896841
246.7893091
283.5351803
251.409225
245.7340786
287.9119143
285.8911912
314.7354709
325.9665938
303.9218108
326.2299646
338.9507234
306.0298019
349.5001908
346.4414159
333.1066361
333.701809
329.9002592
317.0606737
318.6072814
290.1618667
266.2543184
295.6180027
303.6132254
290.4297472
278.3655763
290.8477249
307.1327196
322.0890268
296.0674355
313.5369747
326.2262166
285.7596492
339.5407839
341.184859
330.7287329
358.5371569
341.1711603
326.6633696
279.828635
270.7434524
298.1976055
297.3852165
310.5019118
271.8693797
271.1958886
277.4174755
302.2374776
329.7649188
308.532458
306.815035
315.3400386
315.565992
316.3747748
335.1560289
334.612313
340.6039073
331.2756649
342.2429689
301.1854152
276.936146
331.6289416
330.0561079
292.0887444
293.2696443
311.1805684
278.6970344
292.8874902
322.878082
332.0383186
290.9191086
332.6956179
309.4963383
302.9446807
316.5330984
330.2517586
312.2451785
346.8483051
309.8149174
288.4927073
280.8022797
306.9873511
291.976692
288.2640075
310.2623598
293.0009425
303.5210158
281.1731431
310.866685
323.0272609
340.5103523
325.3390406
335.3778108
322.2083693
342.3616992
338.9207139
333.5645228
333.0204753
306.1022074
297.128091
275.084199
276.6114758
294.9944888
299.0246629
281.3858905
264.686978
283.2932153
274.5847691
316.7964545
313.0662532
348.7437035
339.5571638
304.5806072
310.7836999
335.1407416
313.6732255
317.930649
320.9080645
360.3882686
281.8264396
268.9087228
278.4442641
315.2994203
293.7843369
290.2701229
302.6649897
282.9738807
287.363896
305.6833047
308.7532558
309.4981578
326.2732084
286.5967783
300.2362146
347.1571947
311.6518274
315.7079424
300.4897234
349.6425136
278.6052293
312.7558433
304.5727083
304.4695915
303.6749257
277.1607073
279.6691138
313.026187
318.3580584
335.8244079
312.5965864
356.7706247
357.1413912
337.6554178
309.8740502
343.0244193
337.2096163
309.9912128
314.562527
361.1692069
297.1853838
295.8424401
273.2163354
296.7320659
287.5990712
310.3991949
330.9298801
299.9942478
283.386041
313.9391362
342.6508431
312.4395159
341.4126794
348.1686881
320.6639419
314.6794669
291.6950799
326.5703645
370.6857229
363.9486765
301.2188118
302.0762863
259.5946512
270.8325404
298.262537
324.514456
303.9504237
320.3367452
312.1135903
321.3186327
307.1142542
302.2761423
313.2997238
342.9001295
307.2454471
316.40714
332.9635693
319.0970827
345.9040635
408.7339927
312.1558708
312.1229083
288.1133115
253.466357
278.8268555
328.245085
275.5109026
332.3478866
297.938455
318.28079
318.3360869
314.697643
331.9527314
314.994456
310.0718034
301.7181236
355.2815054
330.5714976
330.4763445
327.337137
284.0013664
291.8352026
288.0582118
294.549758
269.3630734
277.577957
343.033733
321.0195872
325.6026665
321.4086025
354.9318642
311.8666273
337.3402801
346.6007021
311.1858237
329.4235462
347.8207979
347.6234486
331.6324054
330.9025544
279.0127829
307.2926192
330.1728482
288.6727732
286.5140576
321.552009
305.014149
341.0173314
341.7689993
331.0773638
322.0992108
334.4915499
344.9922152
337.0806003
306.6131332
307.470642
331.5301381
340.8318496
307.0862136
378.002839
325.9346412
293.3776458
281.5477653
317.9273128
317.3180245
271.5149976
275.9112403
312.2623096
361.8805977
338.8540174
346.7544407
361.9145435
347.8835458
353.1538141
323.5300883
334.2467654
323.0793292
344.0089944
344.6874062
331.941525
287.7753219
278.2030024
263.6996777
309.7020227
282.3779692
255.6851653
311.7913562
351.4629344
348.4425775
333.0227915
339.544188
324.3236642
332.2066773
289.9950058
312.1216088
318.8296517
310.8448252
311.5213414
323.6608617
341.641134
323.0172952
304.2410823
294.8939471
296.580363
287.821466
293.7995097
309.267887
322.6979657
314.674201
328.2095292
352.6205412
323.3038555
322.0476508
300.1641163
308.1612618
323.5685229
338.7247823
322.4663183
313.0257964
310.2172422
302.8646653
290.7880623
288.3571439
271.6252198
305.2338245
267.8932837
308.0047654
307.1058517
302.0116896
295.4407886
343.392178
341.0524135
324.3685488
304.8322335
311.4230109
292.917567
349.3001347
343.6688304
324.0063051
321.1633132
271.8137949
285.5950616
271.802353
285.5183343
295.2743666
298.09467
293.3031429
320.7277373
323.3524105
327.0112824
303.21231
302.5093189
316.0182484
309.7549998
324.6217257
305.6118368
345.8961558
323.707619
355.6452932
317.4212059
297.3627388
280.2885947
298.1701834
310.2967181
266.5364875
282.3579299
313.0325052
306.7351477
299.8407516
348.7413945
307.5815208
285.3104006
342.0423617
296.1571851
315.9047961
328.586683
320.6799144
335.8413836
373.1432255
328.3933798
293.7865237
313.9101332
300.1105322
298.2423456
268.6047096
300.3664059
290.4329151
288.7132461
299.6152465
317.1705203
326.0412619
334.2322312
354.3359304
291.302811
301.8732636
313.8973946
321.1488627
317.1287887
337.9925779
331.0725715
308.5822345
324.0234934
325.166088
305.8492686
286.5800599
318.3061301
311.5552424
326.7798911
321.8416916
310.1249805
304.8399061
308.9669158
317.9350193
317.5864522
320.5672779
301.2992372
355.833154
334.6044221
332.7257417
295.9005717
294.7384453
288.6516939
277.2156374
276.6168036
278.690107
284.7165589
317.8284819
311.9750339
271.6269958
292.8409036
287.6809792
332.0883527
342.4651927
329.7247018
352.1136698
331.467111
320.7811772
331.3363729
340.2875542
352.1775538
313.0228921
284.1521003
294.3402141
279.6402057
310.5227165
287.7103782
304.8661722
300.4974728
283.2291438
274.1051787
264.6957348
282.7499274
320.1555831
318.7946511
322.6782244
324.7836887
346.5549203
342.9308329
320.1204845
300.0078407
347.6495846
285.1970281
286.8662645
288.8279048
277.6869602
289.8115721
300.3532307
286.9359706
286.5943815
290.3851953
301.7543338
309.2705225
294.8445586
308.8033154
321.6526189
311.6135892
328.1141052
331.2097706
322.3884445
323.5853049
306.3026583
312.6160917
307.7173067
286.1311598
294.2961669
284.9029556
308.3009178
312.2275592
305.3528019
308.2117644
304.0079429
298.5488742
292.6014307
314.4580839
303.4763969
303.8096377
282.9986901
304.7364567
285.8584623
288.6964159
463.8355612
468.2712353
514.052636
517.7257504
566.0498256
546.9263074
537.8175712
572.7494133
572.7699803
578.4126728
553.3937325
591.973533
555.1570202
561.3511874
600.9118539
575.9694657
573.079402
584.8646472
626.4153676
618.6631761
553.4001036
578.8453571
575.3308522
578.0874416
658.8675616
620.222299
614.6918826
661.7412762
600.6355082
645.4158747
644.1162658
560.220404
573.6437934
600.2050727
607.6739685
561.8637953
554.9465468
584.5783449
604.1013837
576.2687608
468.8450142
487.6301772
410.1996658
406.3455487
478.8866409
462.8980437
486.3118508
575.8871803
595.3786835
538.4572235
547.0050357
505.1889416
497.4232576
551.3588431
531.887667
615.5516311
592.1437749
599.6473897
618.150942
555.110711
585.6393451
639.5924412
617.0177932
611.3316991
645.2826422
599.0050079
591.3242317
668.3013672
611.1773689
605.7825335
646.2775305
579.8230391
621.7588158
592.5496349
611.1221457
644.0507946
581.985168
582.8767443
547.7506132
557.9198255
392.6436856
414.9215798
475.4748551
437.5796604
540.3749216
448.2711015
484.7558871
430.5867625
457.4158693
552.2325824
536.1632614
534.3170043
544.8140034
553.4919234
562.893173
558.467666
624.1086566
592.8053982
589.1962083
628.751012
594.5067909
603.5137056
604.6299472
609.4931847
588.2117433
615.7234446
590.2528909
552.3334283
553.8393602
561.8746761
602.0452376
591.096089
601.2518049
576.9499819
559.9925654
592.1011161
560.5332079
605.0769572
562.3076074
467.8850974
391.5663494
391.9983108
439.4659737
423.6050046
449.8856044
475.6831515
461.3199806
411.9592977
456.5362055
510.0450375
544.9165337
521.5515146
536.9777257
546.2040137
567.9111909
608.029208
603.6455765
552.3761998
552.5278512
569.1044063
537.0265764
568.285618
601.6707989
588.4902771
583.1955044
605.2466642
572.0622397
568.8425036
535.255721
482.519661
529.7132708
565.485311
594.7257491
570.0084397
588.6070069
596.2725534
573.0264776
560.7303095
534.7298072
501.4289678
371.5267969
429.271853
388.1079087
448.7032827
436.5970398
376.4526405
449.6137177
444.7030084
505.9173382
456.4908178
464.5204757
448.461089
503.6266371
489.6649919
540.022613
595.9899382
580.8528927
514.8934898
539.2154641
516.6927268
516.5995929
572.0401238
544.1562998
566.3114048
550.4814757
572.1738627
584.7063095
596.1676544
539.5034124
554.1857321
520.823601
490.0826991
498.2732383
534.1251841
575.923282
584.5242114
566.6880861
539.7931999
476.0598254
509.4819108
422.4051911
397.037015
375.7751879
422.2692564
429.4181279
409.3111469
456.433967
428.2766577
440.3726123
456.1997727
457.9440025
389.3298406
493.3202109
476.0718451
454.3507578
521.3583567
530.3589744
530.9142072
576.8755983
523.3659915
503.6663209
492.3068634
517.169718
480.1429525
527.2150809
546.4352282
612.9125174
559.1924032
583.3805776
562.3597481
566.4927195
496.6422076
489.6776618
516.9725855
522.3707272
541.4206696
543.6637626
528.6722245
506.9449139
508.4680615
390.2027042
364.8258852
411.6427934
487.6601458
456.8808833
407.3703167
407.7320061
402.8533167
429.2217056
457.1338048
472.7348238
484.4540775
553.3988434
514.2363628
553.0939521
551.4531107
522.1398613
518.9358618
490.8029931
559.0929813
517.6703305
475.4785449
481.7778597
513.6462149
538.3880775
552.7275038
534.8250985
533.5730243
563.357441
566.8382962
558.031197
548.1534811
491.583949
485.9745114
523.9050479
495.1797481
542.0145643
534.6590695
487.7904889
454.9430497
367.1013841
341.2429927
403.3889974
446.6976515
379.4410029
396.1896262
420.7076027
382.9883409
431.2629694
448.284435
435.7676391
427.5166123
469.3493899
455.1060207
447.4362513
439.0384677
443.5323009
468.4909727
486.4264386
523.4836463
528.9208725
507.3029107
484.8580293
475.1580998
491.2488445
474.7739551
501.7695098
471.7129268
528.8473828
527.2437823
513.8708323
522.7708489
529.9991227
525.7156685
519.1968543
516.3130541
510.1325548
506.1907178
523.2248894
468.5265061
334.3619631
350.6260542
441.413566
496.6206536
456.9087348
416.7841665
415.4224495
426.8031834
417.0968563
408.7886324
442.8625753
372.0179993
402.4233715
424.7135491
449.9089241
403.1414813
453.5638948
458.5957006
465.3732933
439.2773623
497.1657523
479.963063
503.3382389
484.8583589
488.1165497
479.496956
475.6266419
489.8385895
496.5386201
546.4051008
520.0809461
548.2275714
482.8096523
516.8690319
488.5356408
493.8085574
492.1008048
517.2609044
502.6695988
451.6305056
368.5738327
384.8854207
388.5066086
425.3904977
452.3682611
364.7288913
376.4334959
411.5086086
378.4164821
422.400207
428.9804145
405.0624423
414.8499347
392.6770278
436.825803
397.910661
410.7319193
439.4242181
443.1468001
463.6869902
469.7246764
471.0106185
438.1716434
429.4436535
464.3092858
463.5787104
486.5743014
459.0988664
478.1451937
510.9120828
474.6703561
490.8674995
493.7762326
499.3592731
525.6976435
533.62207
504.0452866
475.1997308
500.9060004
452.9241687
394.7548968
405.3694876
393.8983779
368.4772521
398.1144396
335.6612786
362.8998806
362.0519943
429.2778119
393.6399931
446.4106373
472.5382168
436.9763879
373.2506493
396.6240267
421.3513694
438.2484108
396.2985363
426.9430775
483.0491084
453.6147769
478.9907459
447.4510979
434.9346179
459.3010827
466.5191154
515.0875092
465.8226297
447.6194771
446.0426456
451.6131008
482.8929262
494.6188893
502.4148169
481.7987701
516.6379731
472.9383678
472.0638246
463.176392
478.1464746
340.8632366
392.3535718
339.6111958
379.308234
400.1081203
349.9889426
379.0130168
344.7355459
436.1288253
434.1466231
450.5965504
465.7949005
403.3509929
362.538946
412.2770715
459.8713409
425.3250702
426.0313956
415.079265
451.7538882
457.440743
417.7755355
431.0970819
421.973522
431.4065992
412.6692762
450.1694992
524.5867027
442.7542735
418.5256352
414.0250747
432.8700066
455.2592971
479.2462799
482.4960849
494.7948518
522.1502357
446.5918345
442.6681
462.2176563
351.5069847
363.4686131
375.1274915
335.8556695
409.1300147
381.4905975
380.0616474
355.685898
378.0507532
393.8372696
395.5892596
438.5287084
422.9160867
421.4428395
430.8720743
409.2450894
405.2165858
409.4207979
413.0043873
394.3538804
375.6977299
388.572153
445.3044626
437.6059339
435.7861995
416.8696394
415.1158426
423.5248434
403.084413
430.8152295
457.5671237
430.266849
457.4473969
470.6093743
511.4806633
483.1090133
481.3801727
462.364443
449.7488312
475.883165
378.0741048
346.1129866
356.6716463
382.2550801
375.0404174
371.9405361
400.3958047
394.6383805
395.9580848
416.9795018
397.698382
440.1003762
421.8651389
408.8917653
469.9993197
391.2383442
399.0178863
403.9353187
417.6497091
405.0487676
388.1684805
391.3305959
409.4114484
410.5375639
425.0142042
382.7398252
449.6791592
436.937264
412.5528342
391.8082588
390.3960513
419.7261681
452.4382819
452.8998452
475.529177
473.300304
422.7877518
447.4087199
400.3996155
403.4373546
357.0964541
330.8207221
370.2146884
338.8333075
384.5718215
411.119834
405.8878095
383.3110848
388.5241786
429.5821661
431.5462924
428.9211193
417.7806075
431.9343251
413.4645802
371.0130152
412.32804
422.8604136
435.5681451
399.2647204
430.0325638
436.3620853
426.1615063
410.3626708
406.1511359
384.7533618
421.1771259
459.3979972
392.3872618
398.9849759
442.0807915
388.9048707
437.8346871
399.5041073
434.2653129
457.1135266
401.7460608
420.9804869
392.1788114
436.5126876
345.0012607
339.9528643
356.0983977
356.049061
379.8310665
380.916934
341.1367766
380.3076167
388.9501755
409.2666416
386.053744
368.9833894
451.9185177
424.9033939
359.2642864
342.9108938
355.4702504
407.5816679
416.7601774
400.2553389
448.1935495
419.8870407
410.9520367
456.1701371
413.0296263
383.278262
365.7365745
413.0629308
405.4435369
419.263251
476.6259184
395.6930092
417.7482453
431.4643246
417.1250124
439.3085741
417.5714182
442.1706231
404.707364
407.3199454
357.8005978
335.7234648
376.6117566
373.1227144
365.1296467
362.712797
362.500656
387.935794
379.3875501
340.4698939
386.6912231
344.0881916
399.3395501
386.8270023
378.9668455
398.1557981
414.1988626
418.0623808
423.7506685
430.2298335
450.877902
414.1281303
413.4411205
454.138575
411.7584769
442.4294944
329.5131932
376.8375364
399.8431671
402.4606762
399.389545
395.0776863
388.5778662
440.1891601
432.2786225
412.2642907
427.3041762
453.8484552
426.175792
387.5946711
356.9916295
302.2334117
332.6893162
378.5214251
395.8882226
401.960901
338.1068773
349.6304737
374.0127046
402.2262318
435.5598149
439.2412712
450.822447
384.9876716
394.9000273
397.0859529
440.4053384
438.592736
390.9054761
415.6670701
460.8716968
392.9842423
380.3863809
417.8166461
442.2578298
403.408969
383.1367707
381.6594279
398.6136771
416.1556862
422.6305165
401.5546682
378.6811563
449.6116538
392.1084838
364.2388956
364.9773566
403.0391065
436.6291342
388.6867272
343.0641145
381.6901542
427.4838398
366.6447661
420.5176706
400.1210189
372.62257
338.5834387
329.9791103
375.3672349
466.4130515
422.9676242
461.3430058
403.5523901
414.6893351
383.4415973
344.7890477
389.2269932
406.02514
352.946626
400.6099591
386.6453339
390.0268306
384.9195974
391.7332346
396.1555731
401.6928301
392.8881544
413.2137404
406.4424781
365.9549505
394.0444747
402.2852892
409.7779911
411.4358939
387.6702694
377.4750556
395.8045544
407.1352091
380.5237926
352.6335184
375.3554824
400.6087041
321.3458149
356.5120411
399.5219489
436.5164065
364.9333597
367.1935744
359.0016183
384.576105
389.3845282
425.4177179
456.3092026
449.1051879
397.8396935
371.4022881
380.4151712
349.8859959
399.5040867
365.4200624
380.0220204
361.5256073
378.0815657
411.3600603
423.8221855
413.5037114
396.4663151
396.4558197
377.9575264
403.4328858
406.2935502
389.1188996
418.1270285
394.6571066
384.0412091
371.7043722
385.3924838
396.1400913
378.26704
381.2815897
350.1752289
370.7888739
356.6364564
354.719311
367.1488132
348.3524937
320.074169
392.3375106
356.8442553
343.495157
376.6500674
421.6568242
425.824922
452.3793103
394.3299876
373.5603253
398.0646076
427.7505329
376.6889398
386.2771006
382.4959104
452.4880492
404.2120837
408.8775681
390.7457481
418.4582588
402.2741817
382.4831132
385.8244326
416.4316436
397.032002
382.4819562
382.0266973
425.9941773
394.6481088
397.0502083
368.1143361
420.3921395
424.8729132
381.8610918
360.7888796
403.3335577
381.4287828
349.6416037
358.4548056
376.6911446
345.0731615
356.1633619
380.1140855
371.9728233
365.5252394
377.4765748
425.1720612
409.4602669
433.6102109
377.2943274
359.7800798
450.1846267
430.3051493
389.7688041
361.0312284
389.031746
397.4916277
404.1943634
414.1758498
409.883651
375.4545908
383.7104226
362.0225763
423.8065379
414.6263589
389.1688856
392.2204012
366.1653805
369.7017162
396.6061575
414.2916173
397.3510699
392.7887492
354.3262545
359.2722102
374.2128221
362.7788944
316.3631557
368.7154985
331.1745841
375.7874393
393.3450725
378.5171591
344.4855447
397.2232098
370.36872
448.4815619
383.7059036
370.4197345
422.6154264
417.8705081
424.4441861
348.6334863
401.7552586
395.9239217
419.9504932
409.3749613
394.4068515
400.7431354
367.423062
373.0332643
391.8670997
363.7157894
419.0315503
438.2482267
372.3013499
337.6629852
390.0253012
403.5287805
401.6477214
434.766526
428.0856222
430.6187333
377.2540679
356.7940308
373.6965927
343.1039245
400.9779452
353.0708252
334.0459323
336.9264596
357.8340011
330.1533582
343.6646089
411.6728985
395.6766365
409.448825
410.1163221
364.3630041
379.4046692
406.5992859
419.5582694
398.1807635
415.604676
340.1011979
403.3093258
368.7933635
345.5908758
347.9487863
367.487972
372.3933719
339.9883206
360.1856217
410.019297
433.1200097
374.9028335
395.9137059
377.7893316
418.8668035
393.8178793
385.802349
390.3300899
406.192633
383.5778954
336.4801933
353.0118095
360.8030171
383.7160724
387.1582259
369.5110326
352.1440125
300.0074292
345.1072899
389.6573322
349.2888213
382.7492758
400.8493237
359.0343556
368.4455236
359.5921015
380.4145928
384.5616952
355.9653298
384.7646871
356.0517023
420.1549028
342.8236881
327.8808621
347.1767901
389.8541059
403.148975
402.388436
413.0535157
395.319295
406.5826366
410.7786188
384.3792731
386.08869
389.5445531
375.1281776
343.8914691
380.0937082
361.343719
364.388296
385.3417192
367.3296359
392.2511508
366.3776245
353.3280261
326.3505668
345.1376114
314.3470984
306.7944545
383.0176168
355.6541164
381.8527508
404.6610424
371.913284
386.0766038
333.7371971
336.9142864
348.5453058
380.9302303
370.0908289
367.4570426
357.0709049
353.7827536
398.7668687
374.7033491
364.761994
364.8660619
405.1234544
410.9512087
424.0688934
410.435619
404.8300644
396.492896
367.7786495
386.0506508
374.5922519
346.7119275
377.8218638
349.7194553
337.6963652
383.4961421
322.8576508
395.5168128
367.7059535
333.0649141
331.2039402
324.7436049
312.0973961
328.6868932
373.6515981
364.698493
403.0914591
412.218081
383.7114598
345.6610647
358.6854536
363.771339
323.8692706
333.72611
379.6750447
360.2570496
373.8709511
398.9369729
367.0451303
376.5002081
392.362519
379.0963044
415.853283
421.7373928
407.780073
393.0151947
396.4802359
418.8708035
434.1165545
383.1359081
385.8049689
334.4149782
346.7635878
359.1585499
344.9251354
339.0343372
329.1253424
369.3560352
399.2507937
334.9711897
360.9977967
338.6668308
312.0291092
334.7964849
343.9494027
359.4956984
373.6513932
400.1115515
377.9946618
367.8945979
358.9076593
370.1718098
372.3090665
347.4288813
386.3916916
373.3354783
384.9447861
395.178553
387.1141547
359.7733868
381.7425125
357.0721653
395.9571869
426.9307642
434.480559
415.8741713
390.3845017
404.0766523
381.7761559
403.1710677
358.712963
337.3670924
353.2017471
350.8081644
318.7135164
354.0675859
337.7565613
351.5908132
328.7191337
335.7341834
322.4534114
322.0948129
348.2697298
363.3707719
387.5766421
495.8210185
350.4862516
349.8691119
388.3707882
335.3122718
368.3827429
355.1695062
335.9547807
362.8686506
376.8312909
361.1675174
365.4200461
370.7054555
375.3763358
389.748458
367.2286923
349.8545914
384.1716761
385.7499266
372.7376723
401.1396405
394.0784326
417.7485887
426.4914307
382.3938903
383.2444194
360.7649539
397.3809729
386.8738209
345.3934445
332.8252929
355.7546825
329.010784
356.4180062
305.5374811
296.5935903
312.3211117
317.5996095
379.068063
371.7118697
374.325039
374.8689483
358.5481236
381.5568936
339.4049011
390.0536613
375.2842886
435.2823538
383.8626787
355.9775734
358.193605
370.5754606
332.1318505
423.0538366
413.0866569
437.2286171
417.2873321
393.3049014
419.0429032
405.8785167
386.978711
376.9178393
381.4164734
410.4723415
432.6630199
417.832921
381.0550802
366.6498241
374.1428328
325.9829719
323.882293
309.8599342
316.8888597
326.4661016
276.8097254
312.6608621
325.5181249
330.2786094
389.5281517
368.9772245
378.4468427
328.0116968
354.8428925
397.0628263
358.4061779
350.7118946
353.9963593
354.2311587
388.156012
390.677835
391.0773445
347.9532109
357.0390386
413.8744093
407.7155384
349.3334543
383.2586702
376.826427
366.4019935
364.1110423
383.8528674
379.021212
371.9717752
399.0152232
424.7901316
416.7254784
425.8012045
405.6875553
381.2307991
331.7160036
349.0902723
334.7068197
325.1048593
317.9716005
295.8830395
332.0746153
340.7453421
360.9113892
370.787975
363.4178186
390.3922793
395.0922573
383.7870566
367.7229593
377.0052712
372.1388906
360.7427815
369.0743352
394.7455222
359.5809002
355.7969345
374.1205396
356.9901212
359.3830734
368.7382209
362.4246839
398.7935493
416.5075152
379.6205078
371.4706574
366.3464852
393.4291707
394.7454849
361.4047646
376.8400357
414.4553625
393.3664238
419.7489994
405.6570266
336.0193284
341.7316307
319.7622515
323.5101784
318.4435147
317.0109748
318.5599491
306.0032607
337.2008592
369.1166254
414.3368574
347.7961146
363.5929579
362.8376967
364.5125498
373.6218173
364.1109298
346.9960891
357.2793171
359.1295832
344.7254946
336.3013132
327.851338
331.0404778
386.6504844
366.7871819
360.1401541
355.0977983
385.2105803
356.7532739
383.319853
346.4758845
372.71955
376.0411587
386.2866703
381.1859331
430.5591361
409.4947193
421.8966665
421.7213212
352.7655629
347.3189227
315.6722756
323.5234303
322.7623537
326.6419035
329.3588941
347.3601985
360.3750891
333.4603877
368.1682285
324.4844418
365.4451366
381.7226669
356.8682834
355.8577679
336.3040408
325.925758
347.8024835
338.2224923
334.4465622
331.1676589
336.4005701
375.92758
350.6938289
349.7693621
362.4142988
377.5410287
375.0508273
362.8939121
406.6372695
371.3269907
376.6080226
402.7613672
400.3252864
405.474999
406.9668596
384.0216483
397.5490987
381.4271564
319.7653182
349.1370064
344.5913845
350.9389331
314.1700776
307.5452948
355.6796575
333.5713631
379.0841815
363.4125876
372.5936493
351.4278453
357.3224768
348.5620323
361.7253738
348.1755387
352.369224
349.8905423
343.5636555
369.7689682
341.3461646
389.195826
354.2364794
332.9366322
341.9369557
336.5432022
338.3705307
340.9097559
363.7757886
373.5871955
387.4229717
376.0704978
449.8467108
401.7778737
414.902462
408.0685901
452.2295806
381.5619535
418.1147744
361.3578006
323.5107096
370.5567406
341.4918909
307.4851211
300.0275526
315.5152381
300.2073208
321.038133
357.0493122
356.3210531
416.8578891
383.3520779
376.1457222
352.043707
361.9403559
341.6171943
343.0070399
320.6819925
318.2667192
361.8457813
345.6273424
374.0211135
372.7580885
332.5242846
329.7264202
347.1347648
331.5177087
325.296048
340.5593839
373.1130824
347.0853641
341.9675404
342.2733239
382.6875851
385.3754883
423.9802691
403.2564616
401.2610966
389.5867481
355.8125101
370.5778654
349.2545562
330.0286789
318.3020227
308.3920474
297.4832968
297.9261463
303.8387878
336.2966982
363.9367561
335.3950053
346.7941389
344.6149284
319.407485
344.4417038
323.7352764
332.6668073
333.9989973
324.5735862
342.716872
413.9139734
386.462653
318.3269921
325.9611424
302.9778379
346.4437333
357.5894038
328.8984766
351.2695767
356.1316433
356.1107104
356.3531535
380.4317926
357.2980969
373.8062613
378.598505
357.7688827
395.3667458
391.0355982
406.0507751
328.7238256
311.2093382
297.5835498
291.0208848
350.6514197
295.2811199
314.5076116
288.4774215
347.0992009
357.2411314
360.7599857
349.8564469
332.6012649
387.1351379
361.7590245
343.8817044
351.7289959
331.0095357
351.5852981
341.599
337.4844246
364.6385644
375.8378068
347.4916722
348.0728374
337.7539459
346.7590157
354.5901543
347.6297904
359.4860585
372.9785397
352.7610435
375.7502807
376.7698871
370.5917779
355.0447085
398.76954
389.1287778
374.7439197
364.9861941
306.2889636
313.1581352
295.8737211
304.2529479
284.5780307
277.1670017
272.2810719
280.2683158
322.81279
303.4671537
322.4950561
308.5932281
327.6217817
340.2160002
367.6446569
359.109433
342.6812269
332.4413509
327.1307803
330.0769645
325.5731784
319.6243607
340.5499766
322.467066
353.0160753
392.3241079
398.4262833
352.1673091
351.1318044
366.2262454
338.4301911
356.0997398
336.8212194
351.9709957
371.7787553
382.8886699
372.0536579
369.9343914
343.2660123
372.4840982
312.9990627
298.1626423
311.3389016
289.7651231
259.6097468
299.0431236
297.5527955
308.1564493
294.716531
314.4753156
319.0944578
298.391105
366.3629723
363.7499595
365.2831256
338.3518243
354.2298871
328.3493551
336.0037816
348.0747251
351.6575864
344.7101903
338.2096512
326.1883875
304.7161615
376.1783082
353.9233909
345.110665
359.4221406
361.535792
336.2040913
334.5471391
346.6827384
337.2836964
369.4320434
341.0087214
377.3009366
310.5945399
328.2469771
343.4321097
)
;

boundaryField
{
    flow
    {
        type            calculated;
        value           nonuniform List<scalar> 
160
(
259.8768446
300.8347774
316.1286882
321.1627996
344.7508549
310.4587858
284.6104215
251.0612175
277.9513019
272.7069633
286.6269361
268.3413237
290.0810022
295.8963908
296.0250465
305.9831699
318.6072814
279.828635
301.1854152
288.4927073
297.128091
281.8264396
278.6052293
297.1853838
301.2188118
312.1558708
284.0013664
279.0127829
325.9346412
287.7753219
323.0172952
302.8646653
271.8137949
297.3627388
293.7865237
308.5822345
294.7384453
313.0228921
347.6495846
306.3026583
576.2687608
557.9198255
467.8850974
501.4289678
509.4819108
508.4680615
454.9430497
468.5265061
451.6305056
452.9241687
478.1464746
462.2176563
475.883165