/*--------------------------------*- C++ -*----------------------------------*\
  =========                 |
  \\      /  F ield         | OpenFOAM: The Open Source CFD Toolbox
   \\    /   O peration     | Website:  https://openfoam.org
    \\  /    A nd           | Version:  7
     \\/     M anipulation  |
\*---------------------------------------------------------------------------*/
FoamFile
{
    version     2.0;
    format      ascii;
    class       volVectorField;
    location    "0.001";
    object      momentum;
}
// * * * * * * * * * * * * * * * * * * * * * * * * * * * * * * * * * * * * * //

dimensions      [1 -2 -1 0 0 0 0];

internalField   nonuniform List<vector> 
2400
(
(0.004181011311 -7.749907422e-05 -8.634926415e-05)
(0.01117778083 0.0004237005581 0.0001798265717)
(0.008091078222 -0.0001548408132 -0.000649863966)
(0.007642430723 -2.683036488e-05 -9.566795854e-05)
(0.008965399605 0.0002108663538 -0.000593544788)
(0.005006203535 0.000488302585 1.683230655e-05)
(0.01246366245 0.0003461720718 -0.0007641087802)
(0.0143676079 -0.001398272838 0.0001863852844)
(0.006393175661 0.000177647566 -0.0009444453733)
(0.007646297597 -0.0002224332437 0.0003468587258)
(0.01019074899 -0.0005259895804 -0.0004545641504)
(0.00747371318 0.0002466523799 -0.0001240612034)
(0.01079443403 0.0001436326286 0.0001383879581)
(0.008514879883 0.0002687016048 0.0002212120494)
(0.005608184982 4.331825191e-05 -0.0004372863938)
(0.00679128885 0.0002526584091 -0.0002748649586)
(0.004665922461 -9.993285928e-05 -3.999449706e-05)
(0.007982504166 -0.0002790821287 -0.0001204949782)
(0.01412921837 -0.0002135532536 -0.001213749951)
(0.0093221346 0.0006088896644 0.0009335235127)
(0.008966302823 0.0006041247436 5.935412275e-05)
(0.00736436031 -0.0002152470645 -0.0006762548184)
(0.005672382634 -0.0002529551268 -5.150184142e-05)
(0.006765735592 0.0001170902782 -0.0003212104992)
(0.003379265325 0.0001473485153 0.0002809917719)
(0.005302524528 -0.00024287284 0.0001468805647)
(0.01281519721 0.0003304796753 -0.0008086115723)
(0.008171752491 -0.0002813145997 0.000296002292)
(0.01265074464 -0.0006184207676 0.0006404664526)
(0.0106186803 0.0005459145473 0.000137557613)
(0.007263126275 -0.0005699488249 -0.0001179871344)
(0.009396422501 -0.0004110067584 -0.0005444569418)
(0.007659250955 -0.0002670626097 -4.403766565e-05)
(0.007816505631 -0.0001169293951 0.0007835538252)
(0.005032814542 0.000518636327 -0.0006325261896)
(0.00432824088 0.0004087726771 0.0005946881668)
(0.01443484715 -8.683093082e-05 -0.0001198145639)
(0.005912341573 0.0007213731931 5.736821182e-05)
(0.005171372427 -0.001062877578 0.001534712883)
(0.006315902467 0.0006075329986 -0.0006206159121)
(0.004443213146 -0.0004275085885 -0.000111143661)
(0.01037380076 1.821669165e-05 -4.574735497e-05)
(0.009388030128 0.0004865414105 -0.0002240323722)
(0.009479944526 0.0004284846015 0.000659057404)
(0.01269625215 0.0001105639365 0.0005400222401)
(0.01487295313 -0.0005073528379 1.671210926e-05)
(0.005354519412 -0.0003355376431 -0.0004410613471)
(0.008819458576 -0.0004300372501 0.0002824426998)
(0.006834929498 0.0001669663271 -0.0004741670797)
(0.004354126346 0.0002790361319 -0.0001791843786)
(0.008209744558 0.0008999463712 -0.0004982567767)
(0.009894719604 -0.0004140377929 -0.0002304326079)
(0.00690640284 0.0004609478956 -1.72134286e-05)
(0.007369541764 1.821999339e-05 -0.0004655153018)
(0.00876768918 0.0002214032999 0.0003614384534)
(0.01322708449 0.0003143004318 0.0006719718416)
(0.008327298133 9.024275851e-05 0.000274269357)
(0.006971266114 0.000126915979 0.0002285101437)
(0.01323306635 0.0004201375208 -0.000718964045)
(0.01366361945 -0.0003268307211 -0.001214649081)
(0.005804243535 5.784860815e-06 -0.0001407260164)
(0.004900625089 0.0004769717722 -0.0002330843505)
(0.008821498503 -0.0005300354825 -0.0004277875791)
(0.008795173967 -6.327003395e-05 -0.001068554124)
(0.00844555384 0.0008056183163 0.0002404100238)
(0.005970510536 0.0001005156539 7.343939062e-05)
(0.008462222983 3.276965116e-05 0.0001788847977)
(0.01299507495 0.0003840193072 0.0003462050278)
(0.003618192289 4.536652482e-05 -0.0002270027557)
(0.01110376499 -0.0007465274464 6.145478139e-05)
(0.00813330131 -0.0002609108279 -0.0005267940118)
(0.005478274281 0.0003102148456 2.633328078e-05)
(0.003292569048 -0.0003978292907 -0.0001068216329)
(0.007165681051 0.0007458211917 -1.967552426e-05)
(0.007694679653 -0.000486136698 0.0001063966059)
(0.008319777733 -6.426768992e-05 -0.000361723673)
(0.01131872417 -8.614059732e-05 1.190250585e-05)
(0.009935110779 0.0003720149487 -0.0001901214965)
(0.01122469492 0.0003062623178 0.0004141381099)
(0.007318674105 0.0006759808211 -0.001164850404)
(0.005834398652 5.982941698e-05 0.0004207701174)
(0.01008901565 0.0002928903668 0.0006459358118)
(0.00899365481 0.0004294147556 -0.0003767518338)
(0.01150874034 -0.0003338020774 -0.000743539672)
(0.008307053619 -0.0004440503757 -0.0003270452022)
(0.006947402243 0.0002279303521 -0.0002291466426)
(0.006304911796 -0.0001308656301 0.0008183791929)
(0.004950525272 0.0005831697048 -0.0003216779539)
(0.01364230163 -0.0002146647145 0.0005746779253)
(0.007318770908 0.0002097203643 0.0002629253114)
(0.006141698182 -0.0004151934436 0.0002655184659)
(0.00851498205 0.0006200457617 -8.821243345e-05)
(0.003537900824 -9.815188112e-06 0.0003681007711)
(0.00871142309 0.0001844716869 0.00021444412)
(0.007574614228 -0.0001244554778 4.630765195e-05)
(0.009323542252 0.0007416039598 -0.0004565581066)
(0.009821315021 3.831761558e-05 -0.0002854357732)
(0.007530999419 0.000226762567 0.0001925419652)
(0.008629056993 -0.0003849494673 -0.0003266950639)
(0.006068757469 -0.0003801036169 -0.0001614072112)
(0.006508240119 -0.0004524184485 0.0002947667724)
(0.007026571361 4.021883979e-05 9.166153714e-05)
(0.008307815952 -0.0001752165873 0.0002402582552)
(0.00705394077 0.0002124106055 0.000125571927)
(0.01029038963 0.0002134439101 9.511150207e-05)
(0.0065926796 -0.0006965995432 -6.960689527e-05)
(0.008233791334 -0.0001593643753 3.138611685e-05)
(0.007486571674 0.0002941120389 -6.872433302e-05)
(0.009706587503 -0.0007011246672 0.0002835461028)
(0.009041030554 -3.426749295e-05 0.0006585356425)
(0.0113633805 0.0002953826297 0.0001171932031)
(0.005692687254 -0.0001820523284 0.0005388917909)
(0.007654465297 0.0004570302191 0.0006108294877)
(0.007142239813 -2.559644274e-05 -0.0003551745643)
(0.006218697174 -0.0003816283587 0.0003613141511)
(0.008191787625 -7.007870093e-05 -0.001380019205)
(0.007038331898 -0.0004014562725 -0.0009869475553)
(0.00843270089 -0.0002515294885 -0.0001632601599)
(0.008740018924 -0.0008450485624 -0.0009057080299)
(0.01139684495 0.001058550822 0.0005349051918)
(0.005396765674 4.196845298e-05 0.0002627661992)
(0.0077626056 0.0004075702449 0.000591787066)
(0.009059016435 7.682130708e-05 -8.681090538e-05)
(0.006743527192 -0.0003056280801 -0.0002581673141)
(0.003255339964 0.0001600543644 0.0002051670108)
(0.006742756085 -0.0001355660322 0.0002523300695)
(0.006754977983 0.0006532046975 -0.0004550784472)
(0.007146855163 8.207279793e-05 -0.0001162275959)
(0.004038078605 -0.0002602068755 4.128488309e-05)
(0.00952576802 -4.278928709e-05 -0.000536499236)
(0.007998135183 0.0002357010958 0.0002264073587)
(0.00775747214 -0.0001992230472 4.023241942e-05)
(0.01058502159 0.0003850419872 0.0004020040192)
(0.009443839316 5.984534495e-05 0.0003414307024)
(0.005892851524 -0.0001762537745 0.0007122493936)
(0.003823630362 0.0002795007278 0.001256033871)
(0.009528162396 -0.0001130583642 -0.0004391027606)
(0.01146291105 0.000552928425 -0.0008279101013)
(0.009439477252 -0.0004856069941 -0.000559330081)
(0.01181052973 -0.0004149425917 -0.0007763463213)
(0.007310209172 0.000358311866 -0.0001679301565)
(0.008956147488 -8.635365676e-05 -0.0001135743469)
(0.01078609862 -0.0001973791501 -9.567880852e-05)
(0.008180823454 0.0003075507968 0.0003020528768)
(0.008008285066 0.0001148251121 3.024366024e-05)
(0.00875301541 8.075448509e-05 -0.0002723587421)
(0.009394843919 0.001211912128 5.795448774e-05)
(0.006368508533 -0.0003313360432 -0.0001958779606)
(0.009738713343 0.0007082219869 -0.0004891527028)
(0.006680825432 -0.0003573270405 0.0002064506051)
(0.01379634077 0.0006122720761 0.0002436540044)
(0.008392990817 -8.529915686e-05 -0.0004757275088)
(0.009548424181 -0.0006457240146 -0.0003363771165)
(0.004265862247 0.0004381684772 -1.186585928e-05)
(0.007176895686 0.000113173192 0.0001301084336)
(0.009411480312 2.486419203e-05 6.700093947e-05)
(0.01447766772 -0.0004903369276 0.0009450810379)
(0.006048077994 -0.000303749506 -0.0007318226277)
(0.01009495438 0.0001159498886 -6.926270031e-05)
(0.01217535467 0.0004221846674 -8.432387657e-05)
(0.006326718454 0.0002222623255 0.0005519698172)
(0.006651500311 0.0002265470301 -6.449558583e-05)
(0.007352866423 0.000199035135 -0.0001352216364)
(0.01009307668 -6.498976285e-05 -8.991982969e-05)
(0.007605577027 -0.0002279390743 -0.0002109959368)
(0.0049472013 0.0001203764424 -0.0006460699215)
(0.01155688852 0.0004832390918 -0.0009499271172)
(0.008241520869 -0.0003140955473 -0.0002022631817)
(0.003695885047 0.0002703277515 -0.0004114105717)
(0.01062250235 -0.0002629299557 0.0008276942708)
(0.01053894403 -0.0002038748151 -0.0002570336099)
(0.006118893238 0.0001466680122 0.000287910465)
(0.008378750685 -0.0008265329655 0.0001269519991)
(0.01258257949 -0.001151335036 0.0009997291988)
(0.009530479911 -0.0003095992719 -0.0003695315712)
(0.006145003679 0.0003326872716 9.283081471e-05)
(0.004364395118 0.0002806187924 0.000653437003)
(0.01048478805 0.0007966350091 -8.043753463e-05)
(0.01050199335 0.00101411429 -0.0005530472148)
(0.007351340509 -0.0002650271766 -0.0008259613518)
(0.007848538751 0.0004665257851 -0.000181576511)
(0.006534412332 -0.0001739595426 -0.0005389855269)
(0.01030888756 5.118859625e-05 0.000978193774)
(0.00874456707 1.238230935e-05 -0.0009746267612)
(0.008040883791 -0.0001505835496 0.0001615347481)
(0.013377466 7.504731773e-05 0.0003232607621)
(0.003367970098 0.0001225212161 -3.609525762e-05)
(0.007315706857 0.0003942070852 0.0003579067539)
(0.009004148696 -0.0005489623986 -0.0005024133964)
(0.008967279625 -0.000463236751 0.0001160631218)
(0.009743725617 0.0004503485517 7.207922474e-05)
(0.01040885798 -0.0005640733872 -0.0001824521928)
(0.004990821552 0.000439503372 5.314452659e-05)
(0.01035234686 0.0007714274057 -0.000277535333)
(0.009518121457 -8.818179262e-05 0.0002164969563)
(0.003508245738 -0.0001095064089 -0.0001584910922)
(0.007333862397 0.0006690560514 0.0002105550558)
(0.002749502996 -6.561158131e-05 -0.0001242427398)
(0.008642627286 0.0002132162481 -0.0002968041565)
(0.005779454417 0.001480307099 -0.0004531129911)
(0.006523559603 0.0004350423421 -0.0002881316684)
(0.009401186986 2.708444437e-05 -0.0002489551573)
(0.008600783433 -0.0001388113937 0.0005968155201)
(0.005884193753 -0.0002486530549 -9.964217465e-05)
(0.008733161862 0.0004388585928 -0.0002116048)
(0.004441358882 -0.0001473709075 -0.0003421042725)
(0.009348188746 9.998375336e-05 -0.0007228570138)
(0.01112647389 0.000400405181 -0.00058001418)
(0.008815904465 0.0008253390014 0.0005678450255)
(0.008793374285 -0.0002508487593 -0.0006377835512)
(0.01083657099 -0.0009240129724 -0.0001187350771)
(0.01160154015 6.59377471e-05 -0.0003171384148)
(0.01015332087 0.000289259954 0.0002206621405)
(0.003768571696 -0.0007184145388 -0.0001405190962)
(0.01220057663 -0.0003585745779 -0.0006087467407)
(0.008362234099 -0.0003560343779 -4.526042836e-05)
(0.01103433127 0.0006016752028 4.896647649e-05)
(0.009324124794 0.0008710723618 -0.0006804155939)
(0.005279818311 0.0004176227806 -0.0001456681291)
(0.008043432712 0.0003356027286 -0.0001669023721)
(0.00617661665 -0.0001770779044 5.790462094e-05)
(0.01063790633 -0.0006722077357 -0.001579515611)
(0.007482383451 5.22877913e-05 -0.0003255745627)
(0.006173240627 0.0003750911294 -0.0002050463343)
(0.008747143515 0.0004924843201 0.0004787788229)
(0.009099008508 -0.0009146832777 0.000272764451)
(0.005800902116 -0.000394761578 -0.0003045433179)
(0.01358365688 0.0004827060935 -0.0002461361942)
(0.01009121732 0.0003160426122 -0.001354616548)
(0.00763372288 0.0002323926427 -0.0001189119111)
(0.006081343125 0.0001575021964 0.0003476646394)
(0.01224873975 -0.0001214976477 8.951253757e-05)
(0.00922085337 -1.479881981e-05 4.741855298e-05)
(0.008136314759 0.0001939339507 -0.0002880004065)
(0.007089335233 -0.0001135993438 0.0001578558508)
(0.005488291239 -0.0007087975651 -0.0007250825516)
(0.007678741994 -0.0005167050394 -0.0006574656637)
(0.005570311182 0.0007526891767 0.0003953021067)
(0.005956126263 6.662290703e-05 -0.0001794643806)
(0.005610124991 0.0003939675186 0.0001441792429)
(0.005819870352 5.381499124e-05 -8.85831167e-05)
(0.009933095022 0.0001163946763 -8.023468036e-05)
(0.007116388365 1.163825615e-05 -0.0006433730995)
(0.01018156739 0.000629787116 -0.001345679171)
(0.01031381541 -0.0004115380688 -0.0003443371548)
(0.010504843 -0.0005953111994 0.0006346244491)
(0.008688797271 0.00127187219 0.0006670417522)
(0.00713937084 -1.253390223e-07 -0.0001712118798)
(0.008458684714 -0.0003265262453 -7.890496171e-06)
(0.006743044621 -0.000803456812 0.0009454918615)
(0.01149831644 0.0001305323111 -0.0003904768337)
(0.006036717415 -8.190456871e-05 -0.0002885268541)
(0.005824916212 -0.0004361570855 7.442522673e-05)
(0.01081020811 2.296373952e-06 0.0004690777121)
(0.003739691477 -8.176864932e-05 -0.0001362325546)
(0.008264279667 0.000874700172 -0.0004820672271)
(0.00917885033 0.0002582541098 0.000321143997)
(0.007858279065 -4.104654956e-05 0.0002562894868)
(0.002636273715 2.06527476e-05 -2.750046454e-05)
(0.01312159124 0.0004194539738 0.001164391184)
(0.005232262451 5.926876998e-05 0.0002122995749)
(0.009529782706 0.0003989773464 -0.000447066912)
(0.01170422551 -0.001179460212 0.0001796636249)
(0.008427562675 -6.845262148e-05 -0.0001530516761)
(0.009785035514 -3.724565008e-05 -3.801703392e-05)
(0.004149008357 7.148680258e-05 0.0001119215313)
(0.01004963434 0.0003166438114 -0.001262471937)
(0.005295494606 0.0002248311742 -0.001214798491)
(0.01390117694 0.000878426002 0.0003400087705)
(0.008593751236 7.324037276e-05 0.001213322926)
(0.01167994039 0.0008477701086 -0.0003271853861)
(0.008716551798 -0.0008677782448 -0.0002673089143)
(0.01466315033 0.001067270974 -0.000394864217)
(0.01018800302 -0.0004138224424 0.0002347327483)
(0.005676479818 0.0003035439211 -0.0002798154909)
(0.004864629889 -0.0003443660753 4.52693135e-05)
(0.01302824133 0.0006434173113 0.0001602923692)
(0.008747215114 0.0003772741859 -0.0002406849853)
(0.01165741758 4.497802794e-05 -0.0003226663256)
(0.005991219951 -0.000591562525 0.0001799868554)
(0.005078988031 -0.00029808599 8.82945263e-05)
(0.008675105135 -0.0002858911407 -0.000125602361)
(0.006225828248 -0.0002025578902 7.465416237e-05)
(0.005565433629 0.0002694113809 2.455623245e-05)
(0.009679496882 7.412811629e-05 3.809784492e-05)
(0.005917386463 -0.0003600664122 -0.0002900782993)
(0.01176437531 0.0005580062874 -0.0001730698867)
(0.003888388477 0.0002181746705 -0.0003723038482)
(0.006017516845 4.705504828e-05 0.0006795888317)
(0.003545561563 0.0002018204817 0.0002650576808)
(0.00858804067 -0.0005507248123 0.0007172770409)
(0.0080044444 -0.0009648594231 -0.000682667196)
(0.007935910487 0.0001876181372 0.0007150346383)
(0.01038864865 0.001349976615 -0.0004679168859)
(0.005552990349 0.000573998557 9.005583252e-05)
(0.01019336633 -0.0002400161067 0.000667714403)
(0.007930597742 -0.0001129712977 -0.0001717842062)
(0.009715815678 -0.0004710954857 0.0002727975606)
(0.01389289093 0.0009791202595 1.216715011e-05)
(0.005143478259 0.0005299393575 0.0003386026167)
(0.009753638675 0.0003826353009 -0.0001476155279)
(0.005378994422 0.0005653431204 0.0004084168235)
(0.009356988477 -0.0009160140206 -0.001143867061)
(0.009020544585 -0.0003549675701 -3.896721391e-05)
(0.01083818504 0.0005029470984 -0.0005084903003)
(0.010722951 9.562255465e-06 0.0001215095109)
(0.006507102354 0.0002865027451 0.0003060559254)
(0.00712425059 -0.0001367716192 -0.0001190622149)
(0.01420555598 0.0001238714415 0.0009861353131)
(0.007494681603 -0.0005995967318 0.0002437010277)
(0.01339331558 0.0003538093477 9.944685565e-05)
(0.006338353215 -0.0006957180638 -0.000412494624)
(0.00940118301 -0.0002397638765 8.044843155e-05)
(0.01286737448 -0.0001496413817 -0.0005191175315)
(0.00622369871 0.0005665308839 0.0004818819545)
(0.002093170577 7.248738439e-05 -6.223586506e-05)
(0.008615832211 0.0003842133894 -0.0001546948276)
(0.007996626431 0.0003492760779 0.000157063404)
(0.009727753895 -0.0004078968046 0.0007345945167)
(0.009548546606 -0.0003831604662 0.0001244005171)
(0.007268912156 -0.0004692262509 -0.000235241848)
(0.003580795803 -0.0001936819994 0.0001801513419)
(0.006557332433 0.0006261779335 0.0002487892909)
(0.006603512859 -3.254921146e-05 -8.289831064e-05)
(0.01435336525 -0.0001705364649 0.0001420462094)
(0.007390693362 -0.0002005761046 4.981794974e-05)
(0.01146229509 -8.414868679e-05 -0.0003615823183)
(0.008438054842 -0.0004587750596 0.0001477336042)
(0.008029834823 0.0005064459594 -0.0005968041027)
(0.00793445957 0.0008673040057 6.49700031e-05)
(0.01021813457 -0.0007546036618 -0.001243487255)
(0.007367263765 5.3244973e-05 -8.614659927e-06)
(0.005422342935 0.0007937634075 0.0005308641212)
(0.005362180879 -8.675910616e-05 -0.000118045755)
(0.01078232794 0.0003063867836 0.0003069565563)
(0.008279835086 3.479266776e-05 -0.0002679227279)
(0.008053034594 -0.0005399483653 -0.0005161729924)
(0.006188955743 0.0001987757281 0.0001703920941)
(0.01224946497 0.0007636488648 -0.0002840446882)
(0.006286845491 -0.0003782834751 6.808871838e-05)
(0.006196939569 0.0004802490193 -0.0008026655881)
(0.01030144751 -0.0003681445808 -0.0003250708751)
(0.009522741849 -0.0001806177257 0.0002177785736)
(0.009194783697 0.0002343729368 -0.0005340163879)
(0.006404253881 -9.156463365e-06 0.0004748642844)
(0.006153244931 0.0001730975102 0.0007857241159)
(0.006554410421 0.000213020185 -0.0006710791991)
(0.007175503573 -0.0004815222658 -0.0006250263567)
(0.01147425441 -0.0001571070877 -0.0005563923576)
(0.00718367611 -0.0003701882895 -0.0001876351639)
(0.01333868374 0.0004789591367 -0.001298780178)
(0.01336012468 -0.00126068365 -0.0004440838588)
(0.01178382116 -0.0004188103071 -6.130684235e-06)
(0.008866077643 -4.963528058e-05 -0.0007142667679)
(0.005645271637 0.0007581958164 0.0003562823239)
(0.006627274636 -0.0001612323739 0.0004849341703)
(0.01313544633 -0.0004677308726 0.0003086471578)
(0.009258882218 0.0002473417467 8.124008746e-05)
(0.01209051133 -0.0002359143425 -2.664026084e-05)
(0.00364357771 0.0003546842565 0.0003014249383)
(0.003581377395 -8.198451885e-05 -0.000138215628)
(0.009975832042 -0.0002294987255 -0.0007070142672)
(0.009379412456 -0.00062663046 -0.0004723489559)
(0.004195020402 -0.0001264592237 -0.0003733150004)
(0.008518157679 -0.0003812199069 -0.0009144529313)
(0.008556986418 0.0006299422772 -0.0001038202338)
(0.005770488869 -0.0004429183283 -0.0006551743185)
(0.005539607736 -0.0001255361061 -0.0003768093534)
(0.006478889564 0.0001187125853 -0.0003817939052)
(0.008735840089 0.0003063879225 0.0005762413534)
(0.002407569748 -4.280594214e-05 4.05476727e-05)
(0.009058992804 0.0001243157279 -0.0004423782444)
(0.005521284552 -0.0004199169191 9.888800937e-05)
(0.005474786884 -6.762969841e-05 -0.0001982994647)
(0.005208557838 0.0006432659765 -0.0004181734919)
(0.01287488877 0.0002555900026 0.0009067389291)
(0.00587678075 -0.0002059160831 3.178436742e-05)
(0.01158221426 -0.0003791782798 0.0002727594039)
(0.007786360595 -0.0001255708363 0.00084181562)
(0.008805255135 -0.0006559477509 -8.49329295e-05)
(0.005781657219 -9.004809186e-05 -0.0002636716934)
(0.01034236919 0.0005230447638 0.0004163407104)
(0.009211074977 0.0003647840656 -0.0007584392819)
(0.01278601315 0.0001603431007 -0.000301029425)
(0.009244652062 -0.0004865193469 -0.0002613184559)
(0.007053575851 0.0003572982838 -8.588212343e-05)
(0.01002558586 -0.000230076511 -0.0005583152297)
(0.0059642952 -4.967217037e-05 -0.00022645132)
(0.01233354805 -0.0004157151554 -0.0001239508749)
(0.006620463797 0.0005551195672 -0.0002299651957)
(0.01053060738 0.0001582931659 0.001415917215)
(0.009531518427 -0.0001919933195 0.0002745222606)
(0.006499875087 -0.0002373354208 -0.0003549765824)
(0.01640338477 -0.0005987438629 -0.0008198841293)
(0.004680679251 0.0002657765187 -0.000280476309)
(0.007788136719 -0.0004669276945 -0.0004218735913)
(0.004036450186 -0.0001850715962 0.0001638213264)
(0.01071877736 -0.0003976907212 0.0006031843817)
(0.005919166751 0.0002327133828 0.00054891134)
(0.005520120372 0.0003623542897 0.0004945760464)
(0.007102506932 -0.0002076581905 0.0003494709802)
(0.007344725254 3.558314593e-05 0.0002573962875)
(0.007657974066 -0.000297696126 0.001544083675)
(0.006810752028 -0.0004435648368 0.0003506562672)
(0.008432606442 -0.000253366889 -0.0002645540491)
(0.008886667236 0.001108090978 -0.0008865345325)
(0.002704210812 0.0004685570457 -1.057459272e-06)
(0.007411701909 -0.0003387873928 -0.0001827357765)
(0.01035513939 -0.0003806370809 0.0008097716185)
(0.008893884705 0.0002714284868 2.951590889e-05)
(0.005613361263 -0.0006252788416 -0.0004602176674)
(0.004329245274 -6.38766943e-05 -0.000324178247)
(0.00858827078 0.0005564143797 -0.0003895136355)
(0.009244653266 2.378238255e-05 0.0004411573617)
(0.01232206433 0.0006465716386 -0.0006351217245)
(0.01226100598 0.000176596785 -0.0003027809631)
(0.009694935802 -0.0002383934555 0.0003470971201)
(0.0083638769 -0.0005432862449 0.000676024755)
(0.003931196263 -3.022781718e-05 0.000676502593)
(0.008058517892 -0.0007621688788 -0.001706857076)
(0.005772703883 0.0003606464245 0.0006827542035)
(0.00922709448 0.0007481073633 3.554153322e-05)
(0.009492846611 -0.0001429657875 0.0001936065843)
(0.003504670353 -6.350994379e-05 -0.0003599302109)
(0.007668001888 1.654900797e-06 -0.00058713109)
(0.008935268297 0.0004866152792 7.330414923e-05)
(0.008567402662 0.0009344864213 -0.0003866480221)
(0.005743119199 6.512180922e-06 0.0005156060596)
(0.009737517617 -0.0002991283748 -0.0004513604294)
(0.01279693922 -0.001268505 0.001283380716)
(0.007854471437 -1.745881538e-05 0.0001972170139)
(0.00458338902 -8.198322646e-05 -0.0005219970062)
(0.008849538473 -0.0003283650907 -0.0005095998554)
(0.0140909257 1.898347622e-05 -0.0006271717138)
(0.004441490135 0.0001429534522 0.0001800307088)
(0.01170717217 4.245854072e-05 -0.0004516691473)
(0.007030756106 -0.0003984897306 0.000752453338)
(0.01056661453 -0.0001758857065 -0.001282897721)
(0.01071617245 9.588515825e-05 0.001056329217)
(0.01018372643 0.0002098586389 -0.0008546195371)
(0.005756601777 -0.0001958931224 -0.0009723325817)
(0.008619916595 -0.0006433733745 0.0003876540627)
(0.009155684214 -0.0006401701699 0.0001480750262)
(0.01334347821 -3.858705712e-05 0.0007134014079)
(0.008959704424 -0.0005731616368 0.0001693400094)
(0.008125018722 0.000262568069 0.0006094384414)
(0.01049596886 -0.0004918532847 0.001102294285)
(0.00789618147 -0.0007347406285 0.0002717257299)
(0.009041627629 -0.0001493670983 0.0001071665326)
(0.004266337134 0.0004918361023 0.0002779874477)
(0.007983355268 0.0009006046662 0.0002256509398)
(0.007852851752 8.000122022e-05 -0.0007146503629)
(0.006115467538 -0.0001895979573 0.0001894552425)
(0.006679704722 -2.802760922e-05 -0.0001403448843)
(0.01198245434 -0.0006316016306 -0.0003359044793)
(0.007622664682 0.000644091992 0.0004197105589)
(0.006157404501 -0.0007849600662 -0.0004214332048)
(0.001782740474 0.0002392912973 0.0003941727161)
(0.009943423106 -5.897447721e-05 -0.00125541787)
(0.01053133502 -0.000800504751 0.0006070901797)
(0.00706587306 0.0005583110184 0.0002327722249)
(0.009945240091 4.774707331e-05 0.0001118975461)
(0.006709041817 0.0006002295142 -0.0009948674963)
(0.007737081952 0.0002213860355 -9.560483082e-05)
(0.006430955526 -0.0007087386118 0.0001409836455)
(0.01007462683 0.0003833749099 -0.0002718097389)
(0.01033212419 0.0006270343289 0.001901769213)
(0.004340216082 0.0001869457645 0.0002578085254)
(0.009042039508 0.0002382845942 0.0003630517433)
(0.01073506283 -0.0001292546911 -7.816851889e-05)
(0.007278463102 0.0002314476848 0.0001839072848)
(0.009428084601 -0.0002926924638 -0.0003211824564)
(0.007300055928 0.0003213964531 -0.0002439358578)
(0.005982071801 -0.0004478059583 0.0001238171322)
(0.01222642179 -0.000731062187 -0.000496721267)
(0.009470017544 -0.0001537592406 -0.0001949216509)
(0.009949182621 -3.130597527e-05 -0.0006091876659)
(0.01771235713 0.0001405466624 -0.0001425021887)
(0.009538484687 7.873481585e-05 -0.0006689510791)
(0.00496257887 0.0001196346878 7.448326242e-05)
(0.003503080243 6.027479987e-05 -0.000398450318)
(0.009989997014 0.001006177793 0.0002629002695)
(0.008129996286 0.0001796553581 -0.0007426944902)
(0.004607386944 0.0001879645201 -4.347949862e-05)
(0.009634641567 0.0002617785643 0.0002975913281)
(0.006490674532 0.0004074140513 -4.066477726e-05)
(0.01523855777 -0.0004511287401 -0.0002961327016)
(0.005816551627 -0.0002518824682 -0.000563632349)
(0.001918069297 -0.0002966199851 9.788668084e-05)
(0.00870742365 -3.079843908e-05 0.000330161541)
(0.007421096694 -0.000313125841 0.0003257684256)
(0.008137397438 -9.781967384e-05 0.0003169282831)
(0.007873488384 -4.624886159e-05 -0.0001478981083)
(0.008155661629 -4.540168896e-05 5.900371009e-06)
(0.0094889639 -0.0006231128249 -2.450804902e-05)
(0.007274565271 -0.0008703311187 0.0003566089914)
(0.009841980357 -3.81411535e-05 -0.0006290494292)
(0.005197019028 0.000484198853 8.515317814e-06)
(0.003432161863 -0.0002125784015 -0.0002531219179)
(0.005240896052 0.0003146725995 -0.0002885920768)
(0.006285117137 0.0001178827467 0.0005383192631)
(0.01095203595 -0.0002911615443 0.0001393383175)
(0.009409183029 0.000262864055 0.0001827092512)
(0.009296277589 0.0007838055336 0.0006108136903)
(0.007102576584 -0.0001899880257 -0.0003068281812)
(0.0106687779 0.0001633693581 0.0005411573823)
(0.01130892058 -0.0007877792266 0.0001079083668)
(0.00945465466 0.0006852234057 -0.0002004551296)
(0.01586481478 -0.0005026330294 -0.0001855195416)
(0.005727290407 0.0003849327385 0.0002067888221)
(0.007213007932 -0.0001835891479 4.681943451e-05)
(0.007500338473 -4.469801733e-05 0.0004082244385)
(0.01375843953 -4.28053239e-05 -0.0003884759343)
(0.01008860829 -0.0004452405568 -0.0001469784005)
(0.006465126214 -0.0005083857843 -0.001091107261)
(0.004988693531 0.0003621643828 -5.768391863e-05)
(0.004522992737 0.0004340844621 7.751203354e-05)
(0.004980869532 8.708422541e-05 5.935810389e-05)
(0.01320501681 -0.001058496721 -0.0005512714527)
(0.007160257541 -8.402070169e-05 -0.0004495440626)
(0.007822032175 0.00107106389 -0.0002635862037)
(0.007017031231 0.0002240183477 -0.0002638462556)
(0.004839720823 -0.0003035588296 -0.0004423209156)
(0.01036276165 1.683144041e-05 0.000673306024)
(0.005759754244 0.0006492312892 0.0001208438305)
(0.003285841781 -0.0007041559028 0.0001447816905)
(0.01025302527 -0.0004589858142 9.143862395e-05)
(0.01336907723 -0.0001756469876 -0.0002553217035)
(0.006174367194 -0.0002419776964 0.000137910018)
(0.008631697804 0.000374741645 -0.000121639242)
(0.01074493003 0.0006804957318 -0.0007169839531)
(0.006947219255 -0.0003093566797 -0.0003535006089)
(0.009770757828 8.80949308e-05 -0.0004345378102)
(0.007823973277 0.0003284572255 -0.0002604193371)
(0.01416548572 7.663855816e-05 0.001272878807)
(0.008385082607 0.0003430699818 0.0001089525992)
(0.007650134163 0.0006067869554 -0.0009633760515)
(0.007401949855 -0.0003548684162 0.00025539994)
(0.008241433389 0.0006666209252 0.0003503849978)
(0.004019159412 9.161825836e-05 0.00053840934)
(0.005607591665 -0.0003976341578 7.970166507e-05)
(0.01211269136 -0.0001196540901 0.000163672321)
(0.007413423997 -0.0003483445442 -0.0001596228465)
(0.007430211194 0.0006241901946 0.0002707034208)
(0.00707739695 -0.000520748763 -0.0003087205279)
(0.007744853687 -0.0001733791597 0.00011855769)
(0.006452476749 0.0003601685409 -0.0001133689069)
(0.009305168229 -0.000522842567 0.001146943021)
(0.003377937323 1.684733013e-05 9.909917719e-05)
(0.005608376935 -0.0003734266622 -0.0001414637799)
(0.01064269434 0.0004571293277 0.0001370534551)
(0.01025573695 0.0002191570278 0.0002081147296)
(0.004676286616 -0.0002687645276 0.0001204116693)
(0.008422036346 0.000372467045 -0.0005075065709)
(0.005038102962 -0.0001580462412 -0.0004026152061)
(0.004738305595 0.0004036640881 0.0001109933761)
(0.004773953377 -0.0001188118293 0.0002936133477)
(0.005394676598 0.0001102215439 -0.0001647234319)
(0.003088603582 0.0002546043671 -0.0001555479368)
(0.01021694022 6.276271841e-06 0.0002344820293)
(0.005224737827 0.0001298426718 -0.0006215430609)
(0.01131281892 -0.0001515070401 -0.0001168567303)
(0.007607810713 -0.0004050010066 -0.0003284545662)
(0.005401674787 -3.104386462e-05 0.0002888350143)
(0.01078334057 0.0004645038121 0.0001654727967)
(0.009001908283 0.0002885809925 7.814942833e-05)
(0.01033099952 0.0004726854042 0.0003312425554)
(0.005803377556 5.741638203e-05 -0.0002295624887)
(0.01078848568 -0.001044200005 -0.0003470050318)
(0.007456504559 6.658725205e-05 -0.0001138190906)
(0.004301857007 -1.083637125e-05 8.936168264e-05)
(0.006963658239 -0.0004140451116 -0.0003627050576)
(0.008145050077 0.0008158043547 0.0003074790228)
(0.01495640094 0.0007046000716 0.0001823496307)
(0.004135053893 5.835029333e-05 -3.392949096e-07)
(0.01377117057 -0.0001534003457 0.0006120357748)
(0.009150863074 0.0001341616085 0.0004215591789)
(0.008683208312 -4.685383794e-05 -0.0006684210668)
(0.007113162116 -0.0007864525694 -0.0004305172216)
(0.006290082425 -0.001202925441 0.0004738475224)
(0.006027639921 0.0003930965396 0.0004463505785)
(0.008038846763 -0.0003885454484 1.216132467e-05)
(0.006996524314 -0.0003098006315 -0.0005919293316)
(0.007775431742 0.0004948096856 0.0005176260878)
(0.008127656827 -0.0002140724152 0.0001128505323)
(0.008547965135 -0.0006243051716 0.0004225874383)
(0.009529631732 0.0003847618202 0.0007232423316)
(0.0107922623 0.0005109715493 0.0004099912559)
(0.01079615678 -9.283282337e-05 -0.000609349539)
(0.01006339795 -0.0009734865302 -0.0008761991717)
(0.006726061115 -0.0004671065911 5.212704744e-05)
(0.007641863501 -6.697272672e-05 0.0001404908494)
(0.009921245121 -0.0003188327519 -0.0002426971659)