/*--------------------------------*- C++ -*----------------------------------*\
  =========                 |
  \\      /  F ield         | OpenFOAM: The Open Source CFD Toolbox
   \\    /   O peration     | Website:  https://openfoam.org
    \\  /    A nd           | Version:  7
     \\/     M anipulation  |
\*---------------------------------------------------------------------------*/
FoamFile
{
    version     2.0;
    format      ascii;
    class       volScalarField;
    location    "0.001";
    object      overallT;
}
// * * * * * * * * * * * * * * * * * * * * * * * * * * * * * * * * * * * * * //

dimensions      [1 2 -2 0 0 0 0];

internalField   nonuniform List<scalar> 
2400
(
289.4917412
298.910511
295.8927969
293.2856403
293.5947856
297.6994108
300.6560819
299.3238965
293.7300128
293.860211
298.9524359
293.182023
297.7664593
302.3705731
302.5657185
305.3595769
322.1401571
375.4365518
539.7521851
955.6146698
293.8383399
304.3678961
300.1922293
302.6103215
306.4043086
306.2798164
303.1813218
300.3731674
303.0290142
303.5389299
303.8520021
307.7283394
304.8141935
309.995239
315.1568889
342.4404681
352.8881217
408.1944013
543.4739513
860.3803486
295.2109516
312.7007344
306.835459
307.8880538
305.1673007
302.1991105
302.9148697
303.9258492
300.5721815
301.3385164
301.1112147
298.6165801
301.7666584
309.1780156
314.8416165
325.9359817
346.8837309
419.0992612
553.8216061
690.7375394
293.5759839
299.6530835
296.8132193
295.6112651
293.4261731
294.7493931
292.73691
293.9648904
297.7590336
299.8100634
304.15949
302.4502868
306.1230915
313.1781946
304.1598909
324.0001043
356.35641
403.5917627
462.5795505
593.0167445
296.4140676
305.3013632
299.7930215
299.8913478
301.2416877
298.6779994
301.1491882
304.7360285
298.4418844
300.0769764
296.4885866
295.8277995
303.3413456
310.3644038
315.3947493
333.4197984
364.437806
396.4798601
421.7641221
512.5266834
299.8812258
311.5183288
307.3900824
310.0559323
310.8129403
304.9824465
304.4326235
300.7819473
301.9672233
300.6135858
301.033004
296.965627
298.0474387
309.0400512
308.4419905
316.1995353
326.7223348
362.3485619
367.4563915
453.0439406
291.4715855
302.1203302
298.2488168
297.3072363
299.1981727
300.2060558
302.6268684
304.5805247
304.9058805
302.6772001
306.1049833
307.0457292
310.4813722
323.7718743
316.0401272
335.0264084
337.0202116
342.6506452
340.9344414
383.2690467
294.3926751
307.9005846
300.6754259
298.6359859
303.3671186
302.6177907
299.7502299
295.278786
292.3741606
291.6414951
291.7570566
292.0388333
296.6731041
301.1948514
301.2293608
311.1511586
313.505709
314.1241885
334.3955193
365.5312684
293.4791398
301.0171701
292.4596286
294.9603125
289.1827036
290.978051
290.1616875
290.3532297
296.3243584
300.6343198
296.2706234
301.6868635
305.1904736
306.2357713
312.682304
314.8915651
314.4977583
310.3719783
320.8880139
337.8973542
284.2521605
299.1840617
295.5321985
296.6497373
296.0356746
298.4032826
299.0253705
300.8862602
297.6016163
302.6436169
299.5004906
303.2909054
301.0910732
297.5840737
295.3037113
295.2364764
300.7396851
307.0289757
315.1122568
323.5722041
295.1745513
303.2649282
301.7596196
303.4945612
301.9636031
301.4924561
299.9111615
301.082498
305.1185237
303.1558208
302.7110179
299.5990383
296.3301389
295.386284
300.474894
305.2267049
299.515639
303.6663679
310.2950045
320.970984
295.5649136
307.058432
303.6399391
305.0114044
302.3454926
305.8886491
305.0381247
306.9994655
302.6314724
297.1860792
297.7638746
296.8933629
303.8479252
299.8228612
296.3311334
299.7589092
300.1078828
302.8674201
313.8654623
324.4096519
289.8166757
299.7561997
295.0806161
298.4816022
299.7754674
300.8191526
301.9221536
297.5800418
294.7332264
297.8493666
298.0628439
297.3293909
294.627628
298.8123597
301.4073371
298.4094717
294.3630816
298.7398399
302.8035022
309.5669036
291.6633825
298.5174235
292.8493806
296.1187084
294.1443232
294.0448944
292.8082372
296.4637193
300.8802874
303.9496974
298.2094775
297.0146448
297.6663679
293.1839189
297.9599264
298.0450434
300.4152443
308.6668053
313.5572529
313.7990149
288.5323581
301.5277772
300.3284952
297.6959836
294.3841437
294.5709515
294.8004908
294.6586041
291.5652538
289.8390178
291.438828
297.1388727
296.4849362
301.1262995
301.715306
297.9388041
298.5895152
298.9654114
301.9028637
309.7996841
295.1920071
302.3211709
291.89284
294.2601597
298.3073131
295.8368752
296.0528488
297.1258932
297.8558684
296.1123922
297.8224176
292.8374
298.518282
295.8299434
299.9632892
302.5112606
303.5585817
309.5384184
311.5497471
303.7891631
300.1951479
307.4188897
305.3482591
302.1788609
300.7424348
298.6462508
302.4498792
301.0956363
301.5737646
301.363424
298.8038192
302.9320693
297.483097
299.1653709
300.7139825
297.2952156
301.9929242
299.0723385
307.5726508
314.5177034
286.6830129
295.8332533
292.9633842
295.470923
297.1746051
298.3888043
296.5782874
300.9889886
299.3063704
301.6262746
302.4729776
303.4291936
302.1881074
297.6962898
299.7722913
296.402567
298.0948794
302.8150894
300.8340324
299.5503623
292.8449159
303.7082295
299.9179157
296.7615968
295.4141921
294.0364276
290.308388
289.1152547
288.4663604
289.2413544
294.6816465
294.4310856
298.1056528
301.0384266
302.0549623
298.6359754
297.4692791
294.2068456
298.559436
301.2373188
291.7136411
303.2720851
299.9586728
299.6197188
298.9019069
298.9298209
298.8105786
301.8808783
306.023662
308.328959
301.9257105
301.4180709
302.6620402
302.8557098
300.992592
304.72977
302.1715579
305.0109713
303.7582158
303.3699784
294.8691675
304.0805424
297.6675479
297.548589
299.785794
299.7155297
297.5183979
297.8048932
293.8783962
295.2277729
298.0966777
296.2049944
295.1484169
295.0801428
292.7215276
294.8735987
296.3291352
298.5401807
296.3437967
294.2264646
294.2710344
303.9726414
300.1543458
302.2601181
302.2515067
304.5005453
303.6094871
300.7531212
303.7218288
303.6152677
301.9505472
298.3628383
300.4513616
299.8075787
297.2938678
297.4411416
298.5022762
300.5646736
298.9117276
297.8621189
301.522703
306.0994667
299.5022883
299.2913655
300.1071421
303.5232986
302.8727797
306.0383234
306.6429302
305.0574769
307.9066916
307.6483321
304.6301343
310.4838286
305.17306
300.382607
293.0933923
294.3106987
300.0576336
302.5260425
283.1616868
299.1892377
296.0088393
301.8370281
299.0895544
299.7121971
302.6918231
300.5101173
299.5951128
297.2730358
299.1226768
302.6600497
304.2732687
302.8832097
302.9975655
303.6358974
307.5651673
305.0635338
301.9821255
301.1295658
292.2941635
304.5290621
299.5988282
300.8481015
303.0793763
300.2321537
296.647117
295.1755306
296.5611098
298.7514522
297.370733
292.3535977
295.8167826
297.553646
300.1440393
300.1870579
296.0846087
296.8167299
296.2014657
297.8474378
291.8181517
295.7404844
293.4267236
292.909578
290.9146757
297.2969423
300.4519199
300.1649919
299.1418136
298.7570748
302.135828
302.2054704
300.0984614
300.3455951
296.5166421
295.0824862
295.9647914
295.276274
298.7367228
297.9295839
297.7026106
305.8172838
301.247026
297.6779049
293.6593851
290.7910387
289.9509906
293.4836142
295.1165831
294.045178
291.9388431
294.190177
293.657916
296.3834568
301.9090539
301.6165322
306.2715587
306.9843057
306.3980584
305.4505009
296.6465635
309.4394109
298.9168451
299.4156532
302.4130747
302.7352143
303.2187938
300.6864458
297.7137163
298.2645686
297.7504282
296.1255151
301.7523125
303.8519109
304.2811064
301.333386
300.0116772
298.7166358
293.0677993
293.7773739
297.3032791
303.7864297
302.3554927
304.5968326
302.8544986
302.8601443
304.6564871
303.0524582
304.3697773
305.2774659
302.8009417
302.8124569
300.9273472
297.8824126
296.2963602
296.2312878
299.8823119
304.4720065
304.0177847
304.4824489
297.4830919
307.8074225
303.7930361
306.6441869
304.9220914
303.010116
302.6218329
302.8021181
300.6385374
304.8806541
303.5558558
302.3414935
305.6492256
303.1546243
304.6019984
304.0836091
302.8140717
306.2865276
308.7074006
304.73429
293.3845616
301.4604222
299.3126013
300.7688432
303.474727
304.3713405
307.8298999
307.3366038
307.8764009
305.1889669
303.864565
304.1979227
300.7994233
299.581739
298.4760078
297.6574408
300.2063561
298.9476156
298.4833972
301.292515
293.5691787
301.1321463
297.9157086
298.9144526
299.8803113
303.3316271
300.3729039
297.3024222
299.0686119
299.4164868
301.6248394
295.5307385
298.6650577
300.5128618
302.8246654
301.5349461
301.886539
300.9078039
302.942353
303.0105037
296.0341313
309.0618901
306.8068506
305.7600028
305.2104944
301.3275138
302.2538
302.2539695
300.804629
300.9832407
296.0859226
301.0923855
298.8775776
296.5629192
297.352769
297.1410196
295.7500717
295.8860598
296.0759887
295.8112348
297.3222029
306.4539609
301.3845721
298.2126538
295.718878
298.4689339
297.518992
295.3726602
295.314247
296.921461
301.7343735
297.7347241
299.4305541
301.1262331
298.6889631
297.5341803
299.6161909
299.2192562
299.2830078
297.4466328
299.722739
305.4848453
295.1257939
300.7743709
301.6822751
300.2523317
303.1753763
306.5261506
304.5656161
302.97075
305.0218371
306.1303124
301.9054504
298.6464409
303.2805053
300.7413458
298.2013788
298.9587218
297.2619154
297.9281257
288.1309642
301.2716285
302.5998664
299.1404228
304.5929121
303.4310337
299.8505942
295.1047567
300.4408184
302.121075
299.7931854
300.6680406
308.2701248
305.0808119
304.1895382
307.3029159
309.6349888
305.9118476
304.2711651
305.7274379
293.5733694
302.8279784
298.1129398
298.1598409
296.809628
293.8862674
296.3163879
302.4912756
299.0256761
299.9009032
300.9109502
302.9650176
301.5245729
302.8882601
298.6114424
297.5111873
297.7767812
302.9847418
303.3966119
301.4277181
291.8504002
303.2844317
297.0425585
296.7723105
296.8941223
294.9997933
295.1936775
292.8819858
292.972913
294.3572495
294.5870239
293.6594988
293.0576187
294.6925166
298.6657791
299.2606718
298.1457391
298.9950969
297.8767646
297.5721342
291.1641743
300.9602899
297.9099838
297.0443586
297.7812392
301.7440475
301.4990617
304.686747
305.5935979
304.8248415
299.1989734
296.7922368
298.7538234
296.1185397
294.2637706
294.9119545
295.3190356
296.3064921
300.2060527
298.7795094
292.9929125
301.7933853
298.3513643
297.4424233
300.5366717
300.5394462
297.9787904
297.9901629
296.436347
292.9815267
296.4923896
296.6816237
297.7973759
299.9692946
300.7669068
303.7394572
300.9266635
298.3014708
294.3173148
294.2986761
1055.562295
1004.884266
969.4632095
952.7405294
920.1473059
902.7824505
899.3909964
890.8261855
876.1762704
873.8014627
865.2655082
846.4341502
833.2223518
824.5048557
832.1925038
836.0356111
811.2889428
813.3036886
797.3618471
801.2053482
826.7842141
809.0279195
813.2464085
800.1070301
795.6031993
807.3348409
802.2967764
797.8488032
786.0776272
769.028774
800.4655284
795.4069532
801.1391297
791.9826156
754.1464084
779.7686355
783.4213282
786.9661032
768.8924531
783.2429937
1002.011724
1014.490495
980.0180784
965.1846031
961.57522
972.6435925
942.9891974
933.9324008
963.6510103
945.7873346
942.5620426
913.1769984
929.196825
902.6076676
911.1347739
896.4634579
899.1118996
883.2507008
910.0146577
896.4007272
897.8165284
905.8215199
886.0149726
887.3939723
883.0748473
856.6782762
855.3180064
881.2101823
867.6018553
857.7918729
873.2345607
855.965464
848.3670348
848.5866463
854.9741846
838.3898944
843.1778839
836.1265394
817.6690335
788.3060512
875.8409861
919.4999017
923.3429525
953.9390601
930.7155057
932.8753552
933.4032232
946.33441
932.944099
936.28738
916.2877765
910.8345928
906.1773465
902.7404529
895.1919089
913.628674
897.8294236
908.7659194
910.7793232
917.3859039
922.9064581
930.486435
933.4394622
906.8039516
904.6685065
898.7897518
923.2648329
905.3601702
919.565071
922.8592178
905.1274604
875.2038753
876.2281751
890.8214058
880.4722158
864.4397176
862.7019624
858.1389422
829.4590005
777.7526996
735.6921884
766.7382229
836.8628477
882.250421
885.0857302
894.2804626
900.5622648
904.3393191
893.4680604
909.8864025
896.0950523
887.4259393
908.3697501
896.6700531
915.4963899
903.930721
907.4269872
911.8834826
903.4162276
915.2022785
910.6973502
907.8817386
912.6533564
903.3963344
915.8381729
907.9209975
911.8255098
907.3612007
906.219056
900.0351826
894.7475413
888.4036736
884.8477081
884.5609599
895.12703
855.413393
846.7758391
844.8854959
821.3305388
778.6824654
639.9065653
665.3988614
762.5610557
765.3254658
786.0008429
827.0421363
830.2833974
842.6397945
834.3632143
845.3464547
856.1708113
857.3930851
845.7194373
871.4833577
867.2147319
873.1591738
868.9700844
887.91738
888.9898344
864.5301593
888.6360291
889.9450944
903.3735907
887.7303272
881.3157124
892.8195527
915.3291725
885.6390002
893.1349863
884.6565284
892.8414468
901.5187189
883.8888093
873.1900985
867.8492797
848.3087094
850.5672974
823.879923
823.0009859
777.8700315
483.4057391
541.5848328
629.1936988
699.1363397
713.929674
746.1524451
803.2347434
797.2455084
799.410524
804.6552784
802.7424381
822.5760561
824.8682538
825.0974151
832.5745538
837.7029855
839.9671406
843.5392113
831.7630441
842.8426296
851.824926
852.8212316
869.7460543
847.3220687
851.8257483
850.1101228
870.64793
872.4680974
887.691622
892.3734815
897.1942483
899.3850056
880.7705238
873.0657344
827.8615457
859.8079166
838.7533526
831.19674
804.0767716
784.1441508
425.1765015
496.9011305
524.4903176
614.6395067
645.7180968
647.554093
701.6695292
740.9489803
750.2978061
765.3616141
766.518142
793.4819071
791.4902449
800.7712929
813.011771
810.4503108
810.5252374
829.1296536
816.2137797
823.4439948
824.9369883
825.4049682
827.7898931
829.3605767
836.9965663
829.8287105
826.6622218
846.3629993
864.2204308
860.4186821
877.3324426
854.6555023
868.4117012
860.2750567
827.868144
843.8136347
844.8939115
838.8285787
802.9934141
776.4128974
404.9874752
434.0758404
486.1627584
504.6416661
557.3277005
615.2788808
632.1470972
670.1000063
703.0218132
739.1302953
741.5077265
758.8722472
766.4852811
778.0938055
783.1143687
786.2326288
771.9781654
777.0547929
803.9330209
799.1692593
785.0470758
791.8863029
803.2496729
824.1217105
810.4849191
814.3400515
822.0808336
826.1159474
840.5399073
817.581529
827.4411208
837.0127344
830.6772114
838.1879863
815.1713386
822.4262145
827.7632693
830.183452
803.180265
794.8936821
374.4315965
418.4963631
456.4301482
439.2468454
475.8334008
539.7517811
552.4834846
591.6894872
638.3533134
657.0421684
670.5368232
685.2540448
738.7006322
735.3660872
728.6528604
750.3072835
761.3942879
761.0271334
775.6843326
775.4824512
766.5813446
777.6223913
783.6006928
788.0351081
776.8783917
798.6603374
792.9987432
792.4956883
800.7969407
804.4087816
807.4579638
788.4956485
795.8367602
797.9395512
813.0840639
807.108496
801.2074046
803.1637756
799.3681091
764.0879183
350.6690004
350.4427496
397.197994
424.7404421
432.7646373
458.2356785
512.0949611
522.2665697
563.9951037
589.6423642
627.9230459
625.834564
690.241076
709.7637669
705.4571887
709.8541503
735.3744619
744.8096598
738.9556306
747.3059036
755.2625991
751.3237123
748.7459428
749.0367119
768.7473452
769.9401009
788.4723769
792.581052
785.9048011
799.92958
773.199942
787.6175951
795.4085402
783.074323
782.7271878
781.763944
791.4635368
765.7697005
752.3977884
752.2489137
328.8587618
343.3673568
370.6258042
385.2716645
409.744572
414.8266875
455.0748167
474.9139637
529.2677652
533.6278005
579.6327592
583.1689241
628.3088115
661.475653
671.0233865
670.3701721
704.776205
698.5592549
705.2572814
720.8190746
719.933888
729.4929411
705.6198282
729.8769712
734.9497776
738.4996475
760.3492642
749.2278533
757.8059024
750.468219
767.0981523
764.5489481
770.8689382
761.766065
759.4597006
770.6679581
773.3421203
753.8306978
738.734914
746.0510667
327.2921834
328.2500092
338.8602243
375.594231
379.1764886
410.2214032
446.2818961
463.3143397
473.2578263
503.9071975
511.0452844
555.8962844
556.224887
590.7293307
618.5209205
635.6849889
656.6779566
675.3540228
671.1114817
682.1420278
707.1239125
709.6954507
706.8812267
714.8810192
719.8466646
730.9060083
725.7758749
736.2668105
739.1394374
752.6297108
755.8263523
757.6451025
758.3895061
761.1850482
735.8626321
756.9059815
755.3793172
747.9449871
749.7936635
736.3244315
322.3915412
319.037616
327.1146624
349.1427528
349.4431835
365.0575809
387.2823517
423.4445313
444.6777027
435.2914916
481.7726054
504.8000167
524.8808673
541.9318412
567.1831289
584.2169058
594.2887576
607.7253251
629.8342126
617.1564181
646.7029911
675.4219817
671.2907783
673.653153
689.5065101
704.708953
718.9481576
719.3768672
737.5416123
730.5936162
731.0617304
724.946633
747.6954723
731.1294241
729.9413124
734.5786376
760.6464935
754.7341328
752.7729944
746.6971469
308.9162258
315.2759766
316.8414869
346.697152
340.9016039
354.702203
356.5562076
369.8207589
406.2701223
414.4647357
423.6156209
455.6489129
495.8660115
515.5351315
525.4973641
557.0728448
569.0707205
594.2615184
611.8805946
622.9544838
634.7384945
651.5280382
651.932783
648.9646599
661.6805873
673.8792366
688.8235204
688.1939037
690.2802129
698.3455043
713.2627445
719.2306066
724.2539282
729.7907098
716.3977715
724.2070636
720.4318375
722.4970424
715.3690235
718.4952028
301.1556681
315.5273655
316.3301405
322.2562162
332.8717963
345.1763015
356.8046511
352.1086415
365.1014907
386.7784716
399.087339
408.216516
445.2083643
464.1379391
484.0965161
502.3570188
519.9682238
553.7954839
555.7481754
578.3299373
628.0427445
638.1628929
646.2145488
647.0776002
661.4412339
655.1373402
662.9852327
671.4918488
675.7298488
668.353351
669.3461542
680.540404
695.2332884
701.552211
694.6395091
682.6727583
706.1163702
698.9655126
699.2235278
693.810758
303.6059179
305.8207229
310.8227437
307.4458029
328.1961289
328.1676471
332.9669196
330.5577929
342.9877544
355.5609599
383.8125716
388.4073904
400.9762982
429.9592304
447.5317028
464.4066844
468.8651538
491.5668533
534.4354975
527.4817711
552.0512622
588.4314498
604.9301195
608.9054042
615.3288845
634.5825779
629.9350457
644.368873
653.6397329
676.0367907
667.3865377
666.970147
680.9282045
692.9839012
682.6491903
693.4550045
671.5658672
686.631222
694.6119752
704.9121274
315.4915843
316.2505958
318.3703049
317.8865828
326.1271269
338.3907919
332.0261821
338.8338233
352.4725462
366.3603009
356.5862218
364.9762916
377.9413264
395.3024406
410.2178252
431.0128065
442.3610791
449.1124044
489.5422401
498.7189212
517.1696212
534.3391289
559.306283
570.7188586
576.8638859
607.9660788
609.8178958
626.0397403
637.294481
642.4951677
647.8907941
650.0958713
652.09633
666.317041
674.0324567
673.5103983
671.1279965
677.4244896
673.5249749
673.6872264
299.7792323
307.747521
310.7992534
312.4240225
325.4980789
320.8764452
325.364593
321.308396
331.7532639
334.0518248
343.2314832
340.163819
367.4271974
371.0708297
382.1929623
400.3521907
413.5131738
424.3153933
436.2065952
460.8574585
485.6073493
503.6582119
532.5820313
562.301968
563.2489293
569.2983605
584.0016941
606.6732056
627.1787439
631.3005142
640.7105589
628.4238397
646.6270775
664.1451796
664.8607223
656.201957
667.0601778
672.7191408
681.4533225
667.2925335
309.0098627
308.7283753
305.7123029
302.4225638
311.358865
312.0066067
311.8409338
315.2554638
316.6892648
313.5065837
318.6904673
334.9268511
336.2496912
358.0852558
360.1417815
381.5680809
402.7836291
409.1743659
420.6087729
437.3881722
462.7010464
466.7288817
497.0791732
517.5083774
537.7700849
542.5371936
543.4229113
559.6796111
584.1840503
610.646746
616.111516
611.4356383
619.3217664
618.3211117
647.8367165
648.9606853
660.236797
658.2302464
652.7074667
658.4227631
303.7836969
302.1472937
306.53693
306.0420605
309.2211553
303.3747426
304.2555675
311.4243136
310.3077767
314.0937183
315.5508637
329.874218
332.9176778
338.0396638
358.3462656
366.0638327
382.8892218
381.433353
381.3113894
395.4622592
422.7969121
424.5496685
451.7580384
464.505298
479.8439468
511.0829869
532.4605191
536.2047968
549.1428991
563.932949
580.9553301
599.4070597
607.6538938
612.8849665
614.5039372
640.0403628
632.5233042
623.7402821
625.6418446
633.6920399
295.9450631
292.3239925
298.5539203
302.9428634
302.3110429
295.6878008
305.0953581
317.7247497
316.6830293
317.6401991
311.458871
315.3393532
328.6018326
321.0361998
333.2507312
339.5911868
350.928153
357.3169394
374.9572951
378.2271343
395.6096698
421.5353006
412.6431437
435.5398984
451.8785705
449.6051222
486.9219437
494.1379586
535.7484802
531.0023191
544.7959702
569.4501007
580.5372096
587.9835254
597.0330167
606.6692971
603.3524537
619.0049627
616.2387438
623.9299515
303.2001746
299.5682831
303.1138141
302.8211595
302.2042189
313.0950689
314.1065442
310.509542
312.0437899
315.8166132
312.4685914
311.3623589
315.3009185
321.2778943
319.1622485
333.3731708
338.0173658
345.4455091
352.1450921
358.2404608
366.0294308
375.9639347
396.8850257
406.0278231
426.545021
447.5154621
450.9790615
464.2553041
477.6201561
492.7410787
506.5129722
534.4325742
565.9378752
579.7412045
566.0622609
594.5539021
592.8781754
604.1503971
617.5784236
624.8503972
300.4136335
303.7395714
302.0465013
309.966755
301.3326967
304.0360989
306.3541437
308.7609161
308.0905569
315.1671642
311.2374318
307.4852487
303.7021038
305.1937995
311.8840355
318.4340958
323.7683523
328.5562017
328.5715994
351.399387
349.6449977
359.4025415
372.3756487
382.4845101
386.1349172
403.4777153
425.9452743
435.1872224
453.1623058
457.0738841
485.1553178
501.4787769
501.0193246
534.4099558
554.0413572
561.2570443
577.6034302
572.4349839
585.1956179
596.8059307
300.4227076
306.7533856
305.4638724
313.7821283
306.8494089
303.5052753
303.3001917
303.9433024
304.9200384
307.2713631
308.2750036
304.8067719
305.8263107
306.0940882
311.6204812
316.6311633
323.4884328
325.7886816
329.6010641
330.0589048
340.9408719
344.606476
357.8108881
375.9820183
389.0762168
394.517646
405.4570072
421.5647528
441.4532802
452.5637434
452.7664947
475.2476492
491.710189
507.6928757
518.7385106
530.090305
549.9366456
551.9843934
561.2819274
578.5945253
296.1981052
300.2575928
297.3201459
301.1958359
299.774217
305.5200449
302.2683429
300.0965186
303.5944253
306.6154805
310.3672425
305.0052124
309.9287292
307.4965216
306.7488876
314.5849385
322.2811014
319.8399043
313.8884133
320.7433499
348.0209903
340.7459949
340.1356617
352.8889939
366.6684606
368.916508
388.4989069
399.2247947
419.1719948
414.3335767
427.5007065
440.8013669
465.492955
496.4669695
489.1256208
507.519571
522.9351704
534.4932324
536.9298777
557.1741716
300.6314246
301.258983
300.8990968
303.9867663
305.5553753
301.7810276
307.5287979
304.0261273
305.9018638
302.8999199
304.956828
306.7775548
307.8314112
309.2669616
308.7262275
308.3973652
314.455705
327.596759
315.8011097
321.538156
327.5115175
340.8403256
337.4381905
341.266663
344.6504463
356.0790539
372.4083047
376.7285617
383.0721831
406.7547179
422.2179676
417.4600582
427.5761678
459.8048439
480.2214503
488.7592057
498.8057042
520.4593759
522.3351958
545.5740851
301.2964008
300.8328103
296.2633893
296.0862468
299.0172629
303.9514401
300.0710288
296.6620149
302.1673526
300.8228989
305.340619
306.5682494
306.4024443
306.1700131
306.5125756
308.6064927
311.2578815
321.5817857
320.9599347
322.715687
320.486455
331.9406051
329.2034392
329.7618629
327.3352079
340.3400849
343.5330519
359.4265622
361.6174208
374.4130585
385.8281613
395.8087793
403.3503244
415.9599441
454.3312963
461.3885813
472.5585842
494.6818812
521.1542823
520.3549671
298.1209509
302.0794582
306.7344012
309.2656166
297.5300285
301.0843844
303.6106798
305.312457
302.3187294
304.218093
307.410462
304.3544148
309.5975764
309.1664832
307.790742
309.2534018
308.4424652
320.5553904
317.7914733
316.3363667
319.3531774
320.2663599
341.5145623
329.4072345
333.2127629
329.0909489
333.4042622
349.5832035
347.2620645
348.1880936
378.0758915
385.0082592
391.6003005
389.1339306
420.8478822
433.6940442
445.1158963
457.0373195
483.1886897
499.3169085
304.4583512
303.152281
301.1101622
300.1202125
304.5626576
302.422482
305.6438899
304.4965331
307.1487991
306.9513898
304.9994231
304.3099287
298.5899737
299.2436437
302.0665548
303.6239795
308.5884422
312.0994836
315.5575609
310.3901346
305.2758472
310.4231043
315.6534212
326.7518183
326.2556452
324.4695289
334.7009283
339.5358258
335.3354881
350.4361816
352.6075972
366.2139175
376.1890192
386.1514833
379.3391004
403.6920296
426.1486047
440.4815259
452.2056915
474.5058928
304.7609227
306.8375711
306.1282567
309.312566
302.7798058
304.8196643
304.3129139
303.4320287
302.0771581
302.8030594
298.7735828
302.6541954
304.9411928
306.6818046
303.2318349
300.0522367
301.6220477
297.9802688
292.8609354
297.4912183
300.7116943
303.5362806
302.8335294
307.7996257
320.726078
324.6584401
316.8654601
334.7755643
342.3800768
344.7098551
339.7666592
352.6126048
353.5832127
358.4349889
375.3155209
368.5102689
389.9490632
400.0393617
414.539314
431.7502969
302.163422
305.1675715
302.8840921
305.3369893
305.5996762
305.2611951
305.4513485
302.9872175
296.7748886
297.6131106
297.7513418
294.7907876
295.3576674
291.5646205
298.1142188
292.2747588
291.0423681
293.1768963
298.9739329
295.8702445
301.9040329
313.1640462
304.0316848
307.2488392
309.9518587
319.6363271
328.8221541
321.0292728
323.002433
322.5104811
323.8113038
331.4364994
344.6482127
351.0008023
363.6640586
372.461116
364.830681
374.9501031
396.5363861
406.9282989
305.3969754
299.0008276
301.503968
302.2515741
293.8815746
292.1297675
292.3621574
294.5335981
296.9243907
303.5006421
302.9038347
304.6682853
305.0468847
306.5883619
300.7025865
306.2084762
301.1428958
298.854025
303.9911061
300.8231785
302.9373928
306.5717092
321.1576675
316.4144863
315.6639103
326.0487706
318.5282178
316.2496255
321.372126
322.1451195
319.7520545
317.2756258
334.6167333
341.131286
348.2242614
353.9509267
357.8354559
369.5888976
378.5882313
389.3270626
293.7439224
296.4892211
297.108403
296.5850216
297.4504704
300.7032634
300.2843568
299.3199028
298.1318128
296.2617949
299.2425193
304.6702691
306.3574832
307.2563677
309.170172
310.8697139
313.2074502
311.3182157
311.3345333
306.6501753
307.7262442
304.4630531
303.5998108
304.6038219
308.6861184
308.4554477
311.873138
314.3556114
313.012428
316.6905297
323.4807792
332.0905555
327.3228182
331.9661988
338.5815213
346.9146947
346.2653286
351.488339
367.5985312
383.8470643
294.3120788
296.6746084
300.0332073
306.5508455
303.9401806
300.5622688
302.0159368
298.4167887
302.1318758
299.4155868
299.7744993
297.0527396
292.7935462
299.7079198
299.6520645
302.5273683
301.8779478
307.6640034
307.1576827
301.7912128
307.5368227
303.5816375
303.8624261
305.0810869
304.9713587
300.0073162
307.4451275
311.9761588
322.8382013
324.0064636
329.5587979
323.1496799
331.0394189
333.1241624
338.2649718
343.4082924
355.1545652
355.3663128
359.9948477
363.3066784
299.3302241
301.5382462
298.978072
297.2980724
299.296794
301.8069772
305.6884411
305.5673796
303.7083032
306.0758185
304.1238286
301.8163141
301.2504899
299.542632
298.375403
299.8376322
301.1806736
300.0910095
311.4120907
309.858835
305.9969272
309.2176806
311.0014083
309.6332009
315.379919
308.7439666
306.4144569
308.0827143
302.3176682
308.4932406
308.1445391
315.1947252
311.8140502
323.8691898
321.9878042
330.8036687
339.0134291
340.4321645
340.602149
351.308275
305.1356966
301.7204622
305.2020151
302.0445931
300.4893718
297.9178718
300.1043588
304.5331698
297.6392751
296.3069154
297.3432896
298.0219403
303.7100908
302.1908802
301.7049614
300.5309855
308.1625539
308.7329204
303.5970681
301.429658
304.6593441
302.8625133
302.9733488
305.2897196
305.4948184
308.7873954
306.6326385
305.9133984
306.7336128
305.7867874
301.9632997
310.8248239
310.4740361
313.2265804
317.8731081
317.288475
321.598964
328.9266405
330.3259125
339.6837044
301.4731895
300.7265077
300.3791931
300.9280471
302.0804567
303.9047558
299.9860023
301.4289179
303.915478
303.999989
304.8785427
304.3275838
301.9480971
296.2634825
297.6738898
301.4839242
304.6227179
302.5534493
301.5939212
299.8487509
301.80666
300.4207176
297.2845168
295.9627867
301.5066449
299.3328594
302.1039368
301.069665
304.8713581
306.4358442
308.8057866
308.3194398
313.0922577
308.8159647
304.515762
317.0764963
314.024294
319.8773471
327.7025313
327.8441895
294.3083162
297.8515818
300.6200843
298.8789038
298.7225256
295.4330592
298.3450403
303.2031027
298.5705538
300.959968
301.632941
298.8720058
300.7587994
306.046314
308.2545232
304.6279723
304.4485133
302.5349188
304.6636581
307.166771
303.6251036
302.1654622
306.0349977
300.4506725
298.8602844
298.2646242
297.5498146
299.4480699
301.5667455
302.5238495
300.9039424
300.9017174
306.8288226
312.3138035
303.732593
299.8333077
307.8485825
306.7198409
313.7918413
321.0500235
301.9726524
302.6524627
304.2942293
300.6444061
303.6491407
304.4521284
303.594389
306.5491546
298.4085943
297.8262772
300.0465641
300.2132921
301.1263816
301.7179638
298.0857287
296.8150463
299.6075631
296.181406
296.2597313
296.3960852
294.7052662
295.7146466
295.7760529
299.567784
302.4015227
307.5880685
302.008289
305.7859886
299.5210722
306.4098547
304.1189783
303.5725142
301.9176456
309.287994
309.6529499
308.4352704
312.8471145
315.5168829
318.7149783
323.2223172
295.7677443
299.6982197
299.4685442
299.4674269
298.8188404
299.7880219
301.9449682
300.7056499
297.1229701
297.9336877
299.7229882
298.6676255
296.0555579
294.9382434
291.3352537
294.4671637
293.6062265
290.996752
293.7861268
299.1801967
292.9076238
293.2825831
297.8952965
298.5468799
300.7458704
302.3751718
302.3678814
301.6272896
307.514882
307.7542987
302.407118
302.375849
301.4910672
302.3467008
306.440524
304.2059532
305.7062624
309.3538385
314.9875777
311.184771
)
;

boundaryField
{
    flow
    {
        type            calculated;
        value           nonuniform List<scalar> 
160
(
289.4917412
293.8383399
295.2109516
293.5759839
296.4140676
299.8812258
291.4715855
294.3926751
293.4791398
284.2521605
295.1745513
295.5649136
289.8166757
291.6633825
288.5323581
295.1920071
300.1951479
286.6830129
292.8449159
291.7136411
294.8691675
294.2710344
301.522703
283.1616868
292.2941635
291.8181517
297.7026106
296.6465635
297.3032791
297.4830919
293.3845616
293.5691787
296.0341313
297.3222029
299.722739
288.1309642
293.5733694
291.8504002
291.1641743
292.9929125
783.2429937
788.3060512
777.7526996
778.6824654
777.8700315
784.1441508
776.4128974
794.8936821
764.0879183
752.2489137
746.0510667
736.3244315
746.6971469