/*--------------------------------*- C++ -*----------------------------------*\
  =========                 |
  \\      /  F ield         | OpenFOAM: The Open Source CFD Toolbox
   \\    /   O peration     | Website:  https://openfoam.org
    \\  /    A nd           | Version:  7
     \\/     M anipulation  |
\*---------------------------------------------------------------------------*/
FoamFile
{
    version     2.0;
    format      ascii;
    class       volScalarField;
    location    "0.001";
    object      q;
}
// * * * * * * * * * * * * * * * * * * * * * * * * * * * * * * * * * * * * * //

dimensions      [1 0 -3 0 0 0 0];

internalField   uniform 0;

boundaryField
{
    flow
    {
        type            zeroGradient;
    }
    obstacle
    {
        type            calculated;
        value           nonuniform List<scalar> 
40
(
2498.290486
2925.382496
5441.265633
2326.445468
2559.193689
2618.172826
0
0
0
681.5035844
1674.42069
485.215323
913.3450824
1635.461905
1998.532255
7596.991538
0
-18.24370671
98.86094277
3174.240724
3337.968936
2984.534069
324.1465104
1238.7686
1796.604747
-854.1067627
664.1595224
0
1961.163217
0
-113.4205531
409.7018056
217.0885515
645.8350542
-260.1819571
0
0
0
1610.848745
-171.1199648
)
;
    }
    frontAndBack
    {
        type            empty;
    }
}


// ************************************************************************* //
