/*--------------------------------*- C++ -*----------------------------------*\
  =========                 |
  \\      /  F ield         | OpenFOAM: The Open Source CFD Toolbox
   \\    /   O peration     | Website:  https://openfoam.org
    \\  /    A nd           | Version:  7
     \\/     M anipulation  |
\*---------------------------------------------------------------------------*/
FoamFile
{
    version     2.0;
    format      ascii;
    class       volScalarField;
    location    "0.001";
    object      rhoMMean;
}
// * * * * * * * * * * * * * * * * * * * * * * * * * * * * * * * * * * * * * //

dimensions      [1 -3 0 0 0 0 0];

internalField   nonuniform List<scalar> 
2400
(
3.869013982e-06
3.697320062e-06
3.644099116e-06
3.056830021e-06
3.040900353e-06
3.151985637e-06
2.886764017e-06
3.193194244e-06
3.297230918e-06
3.216908584e-06
3.263343352e-06
2.997583536e-06
3.243650898e-06
2.706013251e-06
2.851530962e-06
2.765610062e-06
2.60928762e-06
3.123430871e-06
2.922960991e-06
2.655866934e-06
3.749793699e-06
3.609364267e-06
3.348709393e-06
3.17862881e-06
3.137599324e-06
3.032516251e-06
3.052653591e-06
3.133055904e-06
2.922067054e-06
3.013913518e-06
2.858572907e-06
2.745399408e-06
2.690103578e-06
2.826090814e-06
2.755757171e-06
2.47967625e-06
2.738586571e-06
2.532378995e-06
2.478523212e-06
2.394306876e-06
3.528058018e-06
3.506256105e-06
3.192928479e-06
3.013257436e-06
3.060888564e-06
2.999718405e-06
2.844015388e-06
2.602941746e-06
2.73601348e-06
2.726509665e-06
2.605023296e-06
2.766840997e-06
2.671524172e-06
2.565344714e-06
2.689985691e-06
2.414352989e-06
2.667694737e-06
2.436605203e-06
2.022136411e-06
2.192626056e-06
3.684941984e-06
3.48433089e-06
3.116218969e-06
3.282161863e-06
2.728692439e-06
2.886578231e-06
2.550014475e-06
2.536502105e-06
2.647627379e-06
2.727394855e-06
2.464610527e-06
2.696466114e-06
2.576011564e-06
2.524233998e-06
2.624527881e-06
2.783430079e-06
2.444780192e-06
2.487081852e-06
2.269934996e-06
2.189831772e-06
3.248123085e-06
3.31588822e-06
3.329370599e-06
2.88460457e-06
2.996429248e-06
2.840654999e-06
2.533324169e-06
2.322654403e-06
2.59183126e-06
2.276230883e-06
2.158853044e-06
2.21611587e-06
2.567369612e-06
2.623388173e-06
2.379621472e-06
2.482719636e-06
2.33576646e-06
2.352641302e-06
2.208549059e-06
2.088044522e-06
3.388572512e-06
2.725447854e-06
2.862484822e-06
3.112394949e-06
2.787216193e-06
2.78336218e-06
2.694048817e-06
2.57312397e-06
2.716317694e-06
2.506387322e-06
2.642108793e-06
2.528383768e-06
2.618367793e-06
2.587678157e-06
2.220941717e-06
2.127689779e-06
2.065597774e-06
2.226221197e-06
1.891418657e-06
1.839015002e-06
2.921404307e-06
2.883021226e-06
2.831348217e-06
2.922854352e-06
2.500401772e-06
2.545833464e-06
2.719040746e-06
2.71344218e-06
2.835782497e-06
2.512749858e-06
2.661304291e-06
2.791440527e-06
2.480937177e-06
2.417826682e-06
2.15512025e-06
1.931692087e-06
2.134062313e-06
1.987989744e-06
2.057530674e-06
2.042797367e-06
3.396078088e-06
3.076472487e-06
2.73627258e-06
2.818565243e-06
2.746502459e-06
2.887466753e-06
2.853142216e-06
2.610952194e-06
2.55780248e-06
2.396782075e-06
2.391306811e-06
2.51784147e-06
2.544246787e-06
2.244461523e-06
2.243280576e-06
2.214904931e-06
2.112516168e-06
2.063227131e-06
2.031703543e-06
1.886327045e-06
2.80115887e-06
2.925339548e-06
2.811789062e-06
2.506274017e-06
2.704527798e-06
3.052758147e-06
2.680109472e-06
2.351581574e-06
2.392783516e-06
2.377159603e-06
2.283796444e-06
2.434997282e-06
2.568886306e-06
2.329269375e-06
2.375478367e-06
2.229355811e-06
1.996880799e-06
2.025596774e-06
1.935122458e-06
1.822816237e-06
2.845999046e-06
2.704302023e-06
2.668621999e-06
2.359696578e-06
2.484189676e-06
2.555973365e-06
2.546069236e-06
2.501666031e-06
2.396499647e-06
2.487299713e-06
2.376880508e-06
2.307736559e-06
2.224257534e-06
2.304918948e-06
2.271983221e-06
2.251674675e-06
2.007228564e-06
1.938370376e-06
1.973334333e-06
1.796518809e-06
2.942311033e-06
2.456785865e-06
2.409957448e-06
2.427804125e-06
2.430860842e-06
2.345690583e-06
2.552280561e-06
2.489102168e-06
2.190773614e-06
2.145304016e-06
2.118330511e-06
2.330661518e-06
2.105602106e-06
2.301721017e-06
2.258588737e-06
2.288333198e-06
2.081894431e-06
1.899754854e-06
2.033496e-06
2.142627618e-06
2.875911381e-06
2.644399456e-06
2.391296814e-06
2.420913391e-06
2.254462294e-06
2.029002568e-06
2.772813217e-06
2.849698515e-06
2.415748464e-06
2.588999069e-06
2.41216355e-06
2.324752615e-06
2.079304678e-06
2.2779821e-06
2.081409555e-06
2.370928283e-06
1.991880414e-06
1.671612066e-06
2.029336233e-06
2.005369457e-06
2.853645837e-06
2.75702143e-06
2.785481637e-06
2.246438517e-06
2.187494455e-06
2.313554235e-06
2.151502011e-06
2.51065831e-06
2.526554654e-06
2.40887106e-06
2.65039167e-06
2.342168986e-06
1.928625373e-06
2.12051995e-06
1.911199005e-06
2.166009543e-06
2.004414286e-06
2.010497727e-06
2.079100147e-06
2.034467834e-06
2.955911298e-06
2.751549499e-06
2.35473285e-06
2.397636022e-06
2.22474116e-06
2.36386301e-06
2.348878517e-06
2.079331338e-06
2.284442528e-06
2.297069709e-06
2.303402253e-06
2.550491437e-06
2.265778561e-06
1.899032123e-06
2.136866595e-06
2.063627445e-06
1.939991627e-06
1.841315663e-06
1.964429948e-06
2.122207851e-06
2.778039377e-06
2.565166843e-06
2.794917552e-06
2.13920058e-06
2.195071263e-06
2.265240365e-06
2.15547391e-06
2.368160659e-06
2.103312693e-06
2.097961981e-06
2.380882399e-06
2.325011716e-06
2.147254349e-06
1.684767445e-06
1.864465147e-06
2.005015798e-06
2.206962383e-06
1.867314001e-06
2.251103155e-06
1.974965582e-06
2.843917496e-06
2.612626764e-06
2.276882382e-06
2.249878885e-06
2.158590611e-06
2.047078353e-06
2.141423344e-06
2.424710751e-06
2.24334181e-06
2.197986766e-06
1.915352108e-06
2.285831339e-06
2.227777882e-06
2.282000654e-06
1.934617588e-06
1.875404428e-06
1.942476824e-06
2.01126378e-06
2.129915876e-06
1.985642429e-06
2.683832268e-06
2.255582007e-06
2.389908003e-06
2.444712292e-06
2.300779175e-06
2.236296532e-06
1.9860794e-06
2.067991744e-06
1.995511983e-06
2.057005809e-06
2.012471388e-06
2.303586789e-06
2.27245685e-06
2.133436224e-06
1.923836184e-06
1.910405042e-06
1.987845198e-06
2.287788338e-06
2.078194963e-06
1.996578377e-06
2.858105944e-06
2.76059968e-06
2.474813746e-06
2.485591817e-06
2.268680734e-06
2.2274488e-06
1.86056448e-06
2.142388513e-06
2.199123141e-06
2.386686745e-06
2.105228452e-06
2.189179023e-06
2.408033775e-06
2.074179741e-06
1.935727303e-06
2.104075414e-06
2.063509559e-06
1.976512269e-06
2.000711484e-06
2.092312178e-06
2.789691392e-06
2.605229077e-06
2.483325731e-06
2.540947632e-06
2.121754217e-06
2.126885819e-06
2.429677812e-06
2.379026624e-06
2.224015096e-06
2.168396848e-06
2.402209434e-06
2.141026362e-06
2.128150078e-06
2.065200792e-06
1.936968235e-06
2.104065417e-06
2.082331403e-06
1.883007896e-06
1.895168113e-06
1.963840516e-06
2.80408437e-06
2.492748317e-06
2.208012114e-06
2.300103099e-06
2.224651183e-06
2.285027378e-06
2.436900961e-06
2.280460632e-06
2.409520477e-06
2.021463667e-06
2.098674715e-06
2.315999442e-06
2.135373227e-06
1.893375656e-06
1.882056056e-06
1.770258038e-06
2.14807164e-06
2.075995526e-06
1.94826784e-06
1.920766137e-06
2.589090296e-06
2.546761976e-06
2.459590147e-06
2.182927708e-06
2.355674692e-06
2.225242698e-06
2.302329195e-06
2.186472633e-06
2.421243723e-06
2.098671382e-06
2.107105471e-06
2.32621599e-06
2.316860055e-06
2.069642987e-06
1.948583592e-06
1.79102355e-06
2.154975704e-06
2.035167238e-06
1.927633544e-06
1.939561321e-06
2.529588043e-06
2.455453707e-06
2.473556151e-06
2.21165368e-06
2.622638782e-06
2.154791168e-06
2.208522399e-06
2.211004263e-06
2.101738096e-06
1.956886465e-06
2.145142807e-06
2.006082191e-06
2.139483007e-06
2.130638607e-06
1.961406556e-06
1.869008567e-06
1.913018122e-06
2.088556058e-06
1.978987468e-06
1.846329378e-06
2.433000294e-06
2.382123331e-06
2.166981378e-06
2.314042443e-06
2.275299038e-06
2.216765287e-06
2.315431254e-06
2.236441079e-06
2.174423637e-06
1.939944972e-06
2.063926535e-06
2.262600625e-06
2.187908099e-06
2.119531453e-06
2.286914395e-06
2.023639776e-06
1.876188393e-06
1.910916578e-06
2.23300071e-06
2.014949919e-06
2.897726624e-06
2.499571152e-06
2.569521144e-06
2.199540118e-06
1.821309539e-06
2.050558711e-06
2.105269691e-06
2.044842259e-06
2.236969277e-06
1.942847145e-06
1.925699873e-06
2.068237514e-06
2.206572066e-06
2.17708004e-06
2.300627964e-06
2.307646582e-06
2.181636789e-06
2.035328447e-06
2.027796211e-06
1.964762363e-06
2.938262487e-06
2.868694897e-06
2.32244654e-06
2.383498812e-06
2.374250765e-06
2.33987499e-06
2.33107183e-06
2.007175245e-06
2.021339115e-06
1.901244889e-06
1.914373608e-06
1.997963855e-06
2.063207137e-06
2.072104856e-06
2.160947924e-06
2.258208417e-06
2.005170342e-06
2.146255855e-06
2.137246914e-06
2.073056696e-06
3.061567973e-06
2.60906851e-06
2.316951281e-06
2.296763954e-06
2.146511623e-06
2.528639536e-06
2.438034004e-06
1.736205931e-06
1.900145171e-06
2.170458403e-06
2.140458174e-06
2.214178867e-06
2.226873947e-06
2.031158682e-06
2.092426732e-06
2.073154587e-06
2.130871048e-06
2.096852265e-06
2.129058595e-06
2.062120748e-06
3.090465152e-06
2.433372698e-06
2.39352291e-06
2.118021424e-06
2.307538693e-06
2.233746769e-06
2.196096417e-06
2.171413575e-06
2.230448864e-06
1.968888806e-06
2.359326256e-06
2.289991106e-06
2.066664167e-06
2.122063305e-06
1.97246039e-06
2.001801205e-06
2.097285904e-06
2.048877475e-06
2.128267965e-06
2.103533886e-06
2.91833426e-06
2.828891763e-06
2.708131458e-06
2.398358754e-06
2.565859582e-06
2.649341939e-06
2.389037393e-06
2.227001831e-06
2.222704182e-06
2.18688961e-06
2.162024315e-06
2.348277004e-06
2.240849949e-06
2.139778765e-06
2.211529129e-06
2.068634496e-06
2.181391019e-06
1.974027072e-06
2.095608e-06
2.186105644e-06
2.858257155e-06
3.008482826e-06
2.894317498e-06
2.679064323e-06
2.463756579e-06
2.545205291e-06
2.534965415e-06
2.456362224e-06
2.443630486e-06
2.25756025e-06
2.245033044e-06
2.425534707e-06
2.225098152e-06
2.174772714e-06
2.172573278e-06
2.335914339e-06
2.4184082e-06
2.195084593e-06
2.296087877e-06
2.25255195e-06
2.821733181e-06
2.928964453e-06
2.783013103e-06
2.713136425e-06
2.414040569e-06
2.639917271e-06
2.710769115e-06
2.496931411e-06
2.700717108e-06
2.538997299e-06
2.297621235e-06
2.258851169e-06
2.22532726e-06
2.396650858e-06
2.478375333e-06
2.543372844e-06
2.131163473e-06
2.238532626e-06
2.038906697e-06
2.230492186e-06
2.923543759e-06
2.857641063e-06
2.744582117e-06
2.5427001e-06
2.681064644e-06
2.647605301e-06
2.832212162e-06
2.54618379e-06
2.628237348e-06
2.303530137e-06
2.341022613e-06
2.110703716e-06
2.161163702e-06
2.20642752e-06
2.293798464e-06
2.197671013e-06
2.224697838e-06
2.175156366e-06
2.099209578e-06
2.098540166e-06
2.855539518e-06
3.281708229e-06
3.322468617e-06
2.818591902e-06
3.002073635e-06
2.777175432e-06
2.642344566e-06
2.79966217e-06
2.519045745e-06
2.245144265e-06
2.381817576e-06
2.224946941e-06
2.317338265e-06
2.245978218e-06
2.373275598e-06
2.35086884e-06
2.361512362e-06
2.414349656e-06
2.196365515e-06
2.159525788e-06
3.052229949e-06
3.222925375e-06
2.944992012e-06
2.814327579e-06
2.751085868e-06
2.409924124e-06
2.59477009e-06
2.925957723e-06
2.618219914e-06
2.385015506e-06
2.195114585e-06
2.395833568e-06
2.609617952e-06
2.258844504e-06
2.577047965e-06
2.353232817e-06
2.290545964e-06
2.488995528e-06
2.217885e-06
2.16072673e-06
3.090126072e-06
3.011919862e-06
3.298196087e-06
2.86918977e-06
2.7081627e-06
2.74722519e-06
3.062499818e-06
2.679315509e-06
2.639022084e-06
2.320270431e-06
2.71444734e-06
2.551978139e-06
2.335769792e-06
2.507040071e-06
2.285461017e-06
2.483412376e-06
2.317257036e-06
2.461877477e-06
2.178774606e-06
2.197257369e-06
3.298800932e-06
3.249864306e-06
2.923048885e-06
2.860543236e-06
2.750070711e-06
2.660726106e-06
2.926435934e-06
2.795183318e-06
2.628940084e-06
2.702798658e-06
2.568226892e-06
2.456362224e-06
2.330402418e-06
2.415065723e-06
2.452420317e-06
2.406194663e-06
2.352839168e-06
2.721778378e-06
2.324863837e-06
2.316971276e-06
3.541394601e-06
3.746918186e-06
3.587686905e-06
2.983335104e-06
2.746499126e-06
2.752142264e-06
2.815679732e-06
2.930034179e-06
2.866475466e-06
2.933860282e-06
2.723052634e-06
2.49446621e-06
2.633940469e-06
2.537806354e-06
2.29841853e-06
2.524142772e-06
2.563683473e-06
2.652762313e-06
2.500260558e-06
2.540557316e-06
3.439610683e-06
3.408881058e-06
3.706395653e-06
2.847112094e-06
3.397471481e-06
2.797753076e-06
2.899223324e-06
2.906725568e-06
2.875303204e-06
2.702122581e-06
3.021409097e-06
2.587176619e-06
2.719598936e-06
2.814613339e-06
2.446605974e-06
2.213506122e-06
2.476054678e-06
2.575810365e-06
2.897874503e-06
2.902697017e-06
3.249817651e-06
3.58893117e-06
3.184110738e-06
3.169781077e-06
3.131673759e-06
3.011959852e-06
2.849160319e-06
3.287630461e-06
2.956929787e-06
2.921065227e-06
2.982604458e-06
2.577161269e-06
2.681696149e-06
2.675566053e-06
2.59240278e-06
2.422288872e-06
2.574313665e-06
2.588003907e-06
2.829366641e-06
2.70616113e-06
3.444607736e-06
4.062872222e-06
3.710764533e-06
3.124513927e-06
3.213343664e-06
3.52197666e-06
3.349418795e-06
3.186865033e-06
3.178148516e-06
3.112959804e-06
2.966696034e-06
2.865536956e-06
3.10511723e-06
2.743942698e-06
2.880047821e-06
3.009312197e-06
2.601165951e-06
2.857493184e-06
2.907270429e-06
2.922517355e-06
3.530541965e-06
4.157765406e-06
3.885898822e-06
3.716653441e-06
3.145767647e-06
3.239627762e-06
3.253899522e-06
3.152404696e-06
2.967922387e-06
2.849429417e-06
3.365732114e-06
3.203296239e-06
3.578322222e-06
3.061527983e-06
3.052092068e-06
3.082838356e-06
3.010278616e-06
3.075050352e-06
3.076653691e-06
2.988043064e-06
1.944492285e-06
1.742083322e-06
2.023247325e-06
2.253467921e-06
2.461152234e-06
2.437742922e-06
2.441441741e-06
2.476895999e-06
2.685866255e-06
2.590582068e-06
2.699899031e-06
2.757024439e-06
2.529731388e-06
3.018971848e-06
3.072836722e-06
3.336439058e-06
3.210942453e-06
3.118605222e-06
2.930610105e-06
2.944824204e-06
3.159420757e-06
3.4632472e-06
3.217716609e-06
3.54046247e-06
3.497792197e-06
3.578341474e-06
3.602711115e-06
3.405401695e-06
3.759924446e-06
3.830910312e-06
4.00499746e-06
3.767482827e-06
3.986962037e-06
4.184859874e-06
4.402386827e-06
4.53214295e-06
4.363366229e-06
4.782596781e-06
4.890166152e-06
5.57443838e-06
2.104716729e-06
1.795449022e-06
1.99676499e-06
1.939973525e-06
2.271270651e-06
2.414685951e-06
2.120944232e-06
2.308188187e-06
2.283609215e-06
2.535383335e-06
2.715195814e-06
2.705417914e-06
2.704060193e-06
2.761824386e-06
2.513126936e-06
2.497761947e-06
2.904855255e-06
2.744650914e-06
2.834839203e-06
2.869972045e-06
3.005182421e-06
3.311017739e-06
3.484101558e-06
3.190144352e-06
3.396015875e-06
3.338443961e-06
3.259428399e-06
3.382218324e-06
3.604225751e-06
3.543389279e-06
3.50101521e-06
3.765351006e-06
3.994234533e-06
4.16457587e-06
3.849259555e-06
4.423467987e-06
4.365528062e-06
4.044668602e-06
4.625905794e-06
5.316167121e-06
1.960758528e-06
1.854985287e-06
2.031534393e-06
2.014641813e-06
2.036218195e-06
2.190009013e-06
2.108761752e-06
2.106568478e-06
2.154371327e-06
2.50626444e-06
2.51061702e-06
2.391533214e-06
2.460905199e-06
2.718229698e-06
2.778708628e-06
2.70782967e-06
2.954915975e-06
2.883452356e-06
2.830437085e-06
2.919008345e-06
2.965853132e-06
3.012506878e-06
3.226627754e-06
3.02195589e-06
2.950024814e-06
3.038284102e-06
3.247811485e-06
3.033817377e-06
3.341647898e-06
3.616586925e-06
3.687439801e-06
3.632284867e-06
3.514252131e-06
4.020311576e-06
3.929664074e-06
4.118040062e-06
4.276060479e-06
4.373674455e-06
4.47132134e-06
4.592662192e-06
2.039455276e-06
1.865862486e-06
2.124969355e-06
1.751443105e-06
2.011983055e-06
2.254998928e-06
2.136314868e-06
2.017470694e-06
2.153225156e-06
2.332469073e-06
2.498413875e-06
2.385530771e-06
2.544649216e-06
2.503866287e-06
2.460598185e-06
2.644678105e-06
2.782963095e-06
2.884738763e-06
2.668165375e-06
2.793637479e-06
3.015582306e-06
2.956124256e-06
2.939396012e-06
2.901262005e-06
2.990715043e-06
3.167220237e-06
3.414613183e-06
3.396753546e-06
3.752763708e-06
3.626110057e-06
3.425924458e-06
3.304874318e-06
3.354139059e-06
3.630335439e-06
3.737657785e-06
3.810416977e-06
4.165435248e-06
4.406581146e-06
4.596419338e-06
5.010112894e-06
2.022692404e-06
1.769165616e-06
1.857420361e-06
1.934564506e-06
1.900614032e-06
1.856857574e-06
1.943471838e-06
2.069683853e-06
2.211035172e-06
2.193402136e-06
2.166005812e-06
2.152279006e-06
2.275331899e-06
2.24457088e-06
2.323228489e-06
2.500860096e-06
2.611991086e-06
2.654469041e-06
2.529830316e-06
2.827593147e-06
2.840960098e-06
2.889632671e-06
2.944043448e-06
2.791890779e-06
3.002529174e-06
2.799904439e-06
3.170544654e-06
3.259086924e-06
3.480872868e-06
3.382720494e-06
3.415495678e-06
3.391712211e-06
3.709850897e-06
3.968520366e-06
3.789408206e-06
3.864268287e-06
4.006435463e-06
4.298259896e-06
4.571066435e-06
5.257786006e-06
1.892587956e-06
1.844950754e-06
1.87051107e-06
1.848799061e-06
1.790292371e-06
1.848244533e-06
1.875566333e-06
2.051452488e-06
2.093698979e-06
1.940024774e-06
1.860840136e-06
1.9927976e-06
2.257686508e-06
2.246700475e-06
2.38385505e-06
2.422570823e-06
2.294518707e-06
2.244212984e-06
2.274665575e-06
2.72993847e-06
2.588458822e-06
2.492032519e-06
2.811900785e-06
3.048624224e-06
2.840280742e-06
2.922940063e-06
3.22639987e-06
3.268885725e-06
3.14752706e-06
3.096538092e-06
3.064497707e-06
3.199404705e-06
3.677345363e-06
3.764034915e-06
3.709088046e-06
3.852280581e-06
4.199485185e-06
4.215972204e-06
4.36470297e-06
4.698621116e-06
2.078744498e-06
1.63467341e-06
1.663037277e-06
1.822903285e-06
1.719797739e-06
1.954996432e-06
1.822443879e-06
1.835666786e-06
1.863885003e-06
2.008858498e-06
2.085511176e-06
2.115629768e-06
2.135282542e-06
2.115638395e-06
2.235548526e-06
2.270654403e-06
2.435654775e-06
2.214508802e-06
2.343529017e-06
2.296347135e-06
2.627888819e-06
2.737646735e-06
2.628315614e-06
2.849582742e-06
2.875998125e-06
2.978986603e-06
3.179950006e-06
3.318559393e-06
3.028009886e-06
3.22209344e-06
3.246295201e-06
3.273528033e-06
3.542516699e-06
3.606922545e-06
3.778441296e-06
3.70975143e-06
4.207978402e-06
4.073700459e-06
4.296490835e-06
5.123886657e-06
1.694376477e-06
1.723863742e-06
1.744520772e-06
1.751029555e-06
1.582597811e-06
1.550226931e-06
1.653532958e-06
1.740756321e-06
1.901381873e-06
1.732536562e-06
1.873934353e-06
1.953228498e-06
2.22086801e-06
2.114304765e-06
2.236040801e-06
2.425180401e-06
2.582643705e-06
2.449375065e-06
2.445287301e-06
2.303544467e-06
2.471109576e-06
2.534892915e-06
2.658193094e-06
2.659154135e-06
2.950363811e-06
2.824488987e-06
3.050176548e-06
3.079646441e-06
3.001629784e-06
2.898882906e-06
3.216614468e-06
3.313881501e-06
3.320748159e-06
3.478202975e-06
3.610583683e-06
3.611046383e-06
3.741554259e-06
3.878290878e-06
4.053207032e-06
5.213755099e-06
1.644922682e-06
1.747275266e-06
1.707783966e-06
1.926502189e-06
1.791020846e-06
1.603455505e-06
1.829263502e-06
1.78903187e-06
1.812829086e-06
1.904566311e-06
2.180765975e-06
2.068518747e-06
2.216048548e-06
2.323816268e-06
2.326799218e-06
2.519625508e-06
2.584435091e-06
2.474471355e-06
2.112751337e-06
2.16615627e-06
2.194511358e-06
2.604075972e-06
2.566253418e-06
2.42578214e-06
2.521628203e-06
2.711301975e-06
2.897187058e-06
2.850184831e-06
2.992667248e-06
2.928693454e-06
3.002029158e-06
3.367237088e-06
3.360927441e-06
3.453801945e-06
3.736088103e-06
3.904269633e-06
3.71830302e-06
4.088539708e-06
4.64637316e-06
5.297170192e-06
1.846906947e-06
1.958297624e-06
1.608816807e-06
1.696007268e-06
1.797446444e-06
1.753219356e-06
1.879366494e-06
1.994330163e-06
1.86873987e-06
2.035618483e-06
2.132192986e-06
1.939421075e-06
2.128198613e-06
2.163962502e-06
2.126008317e-06
2.218266715e-06
2.507254365e-06
2.500544752e-06
2.2820957e-06
2.347210739e-06
2.380722577e-06
2.501176175e-06
2.297934114e-06
2.463156193e-06
2.533442324e-06
2.745823897e-06
2.838652171e-06
2.821928306e-06
2.944293263e-06
3.017330703e-06
3.184782443e-06
3.277590669e-06
3.494702263e-06
3.400812162e-06
3.643328851e-06
3.941256191e-06
3.766739602e-06
4.258515896e-06
4.748711744e-06
4.992845258e-06
1.84330263e-06
1.824701958e-06
1.701771996e-06
1.76409417e-06
1.873780462e-06
1.919670857e-06
2.01240475e-06
1.825317665e-06
1.848198995e-06
1.851488636e-06
1.909731682e-06
1.85882068e-06
2.150302361e-06
2.035633748e-06
2.079737699e-06
2.143263292e-06
2.216276868e-06
2.144600622e-06
2.28778281e-06
2.388076485e-06
2.377200731e-06
2.402645678e-06
2.336330186e-06
2.491646094e-06
2.648986734e-06
2.752486107e-06
2.883863291e-06
3.002341552e-06
3.006049046e-06
3.074529418e-06
2.873506447e-06
3.173131839e-06
3.215289281e-06
3.28824665e-06
3.565425526e-06
3.76853854e-06
3.959851405e-06
4.012565193e-06
4.712120033e-06
5.450420993e-06
2.087913725e-06
1.947688967e-06
1.809590761e-06
1.849553182e-06
1.859659272e-06
1.854121744e-06
1.847062534e-06
1.841355235e-06
1.932799888e-06
1.810173443e-06
1.79912627e-06
1.898137583e-06
2.140752258e-06
1.791163373e-06
1.88419311e-06
1.952198498e-06
1.868517509e-06
2.067155568e-06
2.24646549e-06
2.346082379e-06
2.218650933e-06
2.258074827e-06
2.278831297e-06
2.320026267e-06
2.285510573e-06
2.504189249e-06
2.799165339e-06
2.718713317e-06
2.779310529e-06
2.807266608e-06
2.766099404e-06
2.895428802e-06
3.057162388e-06
3.216345745e-06
3.401760884e-06
3.676592128e-06
3.820353554e-06
4.071027739e-06
4.546546776e-06
5.305127891e-06
2.018221079e-06
1.876644141e-06
1.672747558e-06
1.867955118e-06
2.170799047e-06
1.761825465e-06
1.90122634e-06
1.863946081e-06
1.832756186e-06
1.843143373e-06
1.952321094e-06
1.924456546e-06
1.945672534e-06
1.972920458e-06
1.860863433e-06
1.88566283e-06
1.791658767e-06
1.918561382e-06
1.943653867e-06
2.215297765e-06
2.047562134e-06
2.243139244e-06
2.12967509e-06
2.361996636e-06
2.337777439e-06
2.419302014e-06
2.664948413e-06
2.669548604e-06
2.77603098e-06
3.104545895e-06
2.573516744e-06
2.966889509e-06
3.134986408e-06
3.346128403e-06
3.301436888e-06
3.620017665e-06
3.911101013e-06
4.099459377e-06
4.454071261e-06
5.170346455e-06
2.088477232e-06
1.943064398e-06
1.80954667e-06
1.733623295e-06
1.844712052e-06
1.834593082e-06
1.913254068e-06
1.869091898e-06
1.811894277e-06
1.968712047e-06
2.049629939e-06
1.841404569e-06
1.870236438e-06
1.968783752e-06
2.083372675e-06
1.881519065e-06
1.821438363e-06
2.066372862e-06
2.040683063e-06
2.242416378e-06
2.221688071e-06
2.303764779e-06
2.272445301e-06
2.275706145e-06
2.295101273e-06
2.374609879e-06
2.489537849e-06
2.481314925e-06
2.658286665e-06
2.921720909e-06
2.907036646e-06
3.006695203e-06
2.979351311e-06
3.0730048e-06
3.43413682e-06
3.424603486e-06
3.290319009e-06
3.858882609e-06
4.311106723e-06
5.187820956e-06
1.988907907e-06
2.001574919e-06
2.018550063e-06
1.809304346e-06
1.903313476e-06
1.85484845e-06
1.908450921e-06
1.885423614e-06
1.837057437e-06
1.979039414e-06
1.99090069e-06
1.934491226e-06
1.884911121e-06
1.82282923e-06
1.84884454e-06
2.050359813e-06
2.060384499e-06
2.072370751e-06
2.062869063e-06
2.152292408e-06
2.192603754e-06
2.171174965e-06
2.277322492e-06
2.34006893e-06
2.53935616e-06
2.609509727e-06
2.537526299e-06
2.494584697e-06
2.54346321e-06
2.704291799e-06
3.062405222e-06
3.082757869e-06
2.872541685e-06
3.185030118e-06
3.291464141e-06
3.580069125e-06
3.668425186e-06
3.860973049e-06
3.982666733e-06
4.421319338e-06
1.807756092e-06
1.786665022e-06
2.22213654e-06
2.033232819e-06
1.874634001e-06
1.863608212e-06
1.751504965e-06
1.780837906e-06
1.705160171e-06
1.687082581e-06
1.775158326e-06
1.811395969e-06
1.871578364e-06
1.826636528e-06
1.845478567e-06
1.82753388e-06
2.011918534e-06
2.0202391e-06
2.210700441e-06
2.403965108e-06
2.264979772e-06
2.334542608e-06
2.332139754e-06
2.267466721e-06
2.361377702e-06
2.293108211e-06
2.327491709e-06
2.445573235e-06
2.486652314e-06
2.62431083e-06
2.703941094e-06
3.063903952e-06
2.94552927e-06
3.074425172e-06
3.144594203e-06
3.322483223e-06
4.012194244e-06
3.69586459e-06
3.830547588e-06
4.676195763e-06
1.939919374e-06
1.817702191e-06
1.974805708e-06
1.744087106e-06
1.811737397e-06
1.617257138e-06
1.968664131e-06
2.062524695e-06
1.755979968e-06
1.699506048e-06
1.797807594e-06
1.810319792e-06
1.884595105e-06
2.013770809e-06
1.863304008e-06
1.855387399e-06
1.773142744e-06
2.221445919e-06
2.214463849e-06
2.197203815e-06
2.250490656e-06
2.1572672e-06
2.157757469e-06
2.172784555e-06
2.127447512e-06
2.30180899e-06
2.469972842e-06
2.583789822e-06
2.701357033e-06
2.730782338e-06
2.643535543e-06
2.945188867e-06
2.916797682e-06
3.149515464e-06
3.390170533e-06
3.32771685e-06
3.611754219e-06
3.810625997e-06
4.096048238e-06
4.586102116e-06
1.827336535e-06
2.062279635e-06
2.006646079e-06
1.901191947e-06
1.925927467e-06
1.823827651e-06
1.880386921e-06
1.915577984e-06
1.980817475e-06
1.818300001e-06
1.925509903e-06
1.996610144e-06
1.845875481e-06
1.93574022e-06
2.037399271e-06
1.959485124e-06
1.933669175e-06
2.131115102e-06
2.035161347e-06
2.138987696e-06
2.222840871e-06
2.060040692e-06
2.181931797e-06
2.16073783e-06
2.203976638e-06
2.403585166e-06
2.55892165e-06
2.308693342e-06
2.513720864e-06
2.642338506e-06
2.646552843e-06
2.851869106e-06
3.015596625e-06
3.194880436e-06
3.218787039e-06
3.312953261e-06
3.231021697e-06
3.534559361e-06
4.098335752e-06
4.876158825e-06
2.200566806e-06
1.945303665e-06
1.973002342e-06
1.833246322e-06
1.835000807e-06
1.921990746e-06
1.825505193e-06
1.80377562e-06
1.966092344e-06
1.895817962e-06
1.875759584e-06
1.899804971e-06
1.929350866e-06
2.045444007e-06
2.071778095e-06
2.012067943e-06
2.105414119e-06
2.013954607e-06
1.930998486e-06
2.169681196e-06
2.21288934e-06
2.167632856e-06
2.109691176e-06
2.420989929e-06
2.363194145e-06
2.279186413e-06
2.411881667e-06
2.477044945e-06
2.469669473e-06
2.89629064e-06
2.878366478e-06
3.04102977e-06
3.053418403e-06
3.215091048e-06
3.419606414e-06
3.319884871e-06
3.492613593e-06
3.751400457e-06
3.828550846e-06
4.945456076e-06
1.911648357e-06
2.030307609e-06
2.001986099e-06
1.793531796e-06
1.99656781e-06
1.951152602e-06
2.039135329e-06
1.925065738e-06
2.009858236e-06
1.995072511e-06
1.769486138e-06
1.9311998e-06
1.923913934e-06
1.940625174e-06
2.225286571e-06
2.315246889e-06
2.234360611e-06
1.95504616e-06
1.948905812e-06
2.114319432e-06
2.227992397e-06
2.066159562e-06
2.119063295e-06
2.173793284e-06
2.270217051e-06
2.187934426e-06
2.106168539e-06
2.264262501e-06
2.497255411e-06
2.789617354e-06
2.940032207e-06
2.808912317e-06
2.871854823e-06
2.809714247e-06
2.997442293e-06
3.361864416e-06
3.268391963e-06
3.730537764e-06
4.095638382e-06
4.509412965e-06
2.021562029e-06
1.596809457e-06
1.809937026e-06
1.845119364e-06
1.855509775e-06
1.741873946e-06
1.80608768e-06
1.812196997e-06
2.018853824e-06
1.913696393e-06
1.87604584e-06
1.813074238e-06
2.06884105e-06
2.177246991e-06
2.269035245e-06
2.385907693e-06
2.238891892e-06
2.080556462e-06
2.007330185e-06
2.14746474e-06
2.197950416e-06
2.029562509e-06
2.272841829e-06
2.393949661e-06
2.378128697e-06
2.164355047e-06
2.091498816e-06
2.26678264e-06
2.551838033e-06
2.482309847e-06
2.742861786e-06
2.77809256e-06
2.773090117e-06
3.058819974e-06
3.274771133e-06
3.118292748e-06
3.701168551e-06
4.091136353e-06
4.031026276e-06
4.393453505e-06
1.956448981e-06
1.900847809e-06
2.008576168e-06
2.053908641e-06
1.838133882e-06
1.770343715e-06
1.839415558e-06
2.087088968e-06
2.064076295e-06
2.011652576e-06
1.980497626e-06
2.015084357e-06
2.086960437e-06
2.240022665e-06
2.003158653e-06
2.192616158e-06
2.322651007e-06
1.949808277e-06
2.202816056e-06
2.196780595e-06
2.101454165e-06
2.168929036e-06
2.21119726e-06
2.131270923e-06
2.261397844e-06
2.332086894e-06
2.213557514e-06
2.563010282e-06
2.303839606e-06
2.523747427e-06
2.909986678e-06
2.8168409e-06
2.877883583e-06
3.084763905e-06
3.219438263e-06
3.315498964e-06
3.547507426e-06
3.586771388e-06
3.839735467e-06
4.849520369e-06
1.844274564e-06
1.846745105e-06
1.982548596e-06
2.123760267e-06
2.136446536e-06
2.129986955e-06
1.960721633e-06
2.089925065e-06
2.058475429e-06
2.067844135e-06
1.891852754e-06
2.075020639e-06
2.069411152e-06
2.402284051e-06
2.144546977e-06
2.045016282e-06
2.272820737e-06
2.258782975e-06
2.03292597e-06
1.992601754e-06
2.173295198e-06
2.268744034e-06
2.16820251e-06
2.301737721e-06
2.232545728e-06
2.322059263e-06
2.162400889e-06
2.396520769e-06
2.378997843e-06
2.530994119e-06
2.853222992e-06
2.777741522e-06
2.848720859e-06
3.174060555e-06
2.948254056e-06
3.267554129e-06
3.531146813e-06
3.703230514e-06
3.768360213e-06
4.800876455e-06
1.797209863e-06
1.824661556e-06
1.877254987e-06
2.058280997e-06
2.207235983e-06
2.205127718e-06
1.928132589e-06
2.02446347e-06
1.910028132e-06
1.841834303e-06
1.782927648e-06
2.086230468e-06
2.112964765e-06
2.296868823e-06
2.199990089e-06
2.250568606e-06
2.300228897e-06
2.235527364e-06
2.254834589e-06
1.931950674e-06
2.320760069e-06
2.416092277e-06
2.361671906e-06
2.22235362e-06
2.202802157e-06
2.184776228e-06
2.153471818e-06
2.283337321e-06
2.627359154e-06
2.636771313e-06
3.01037386e-06
3.165922348e-06
3.178469978e-06
3.246288491e-06
3.185492576e-06
3.192016491e-06
3.444002338e-06
3.786470824e-06
3.662599356e-06
4.794422964e-06
2.006399404e-06
2.030827856e-06
2.34975262e-06
2.109630409e-06
1.939885784e-06
2.148317577e-06
2.276268215e-06
2.279767084e-06
2.224289535e-06
1.985338435e-06
1.943374454e-06
1.9764866e-06
2.245430685e-06
2.233123301e-06
1.946382932e-06
1.987918031e-06
2.137224496e-06
2.281534883e-06
2.074235647e-06
1.979502174e-06
2.164988863e-06
2.369125594e-06
2.31691347e-06
2.325835138e-06
2.323738396e-06
2.103083506e-06
2.227045398e-06
2.662357597e-06
2.600933592e-06
2.71745915e-06
2.919354489e-06
2.891302527e-06
3.002896617e-06
2.994787236e-06
3.146216134e-06
3.339908339e-06
3.771684681e-06
3.717906983e-06
4.000445738e-06
4.670837374e-06
2.163046285e-06
2.084933926e-06
2.044498379e-06
2.008157313e-06
1.730182445e-06
1.852207394e-06
1.933298839e-06
2.199122243e-06
2.115460307e-06
1.991185835e-06
2.179024648e-06
1.974348669e-06
2.198226913e-06
1.894286134e-06
1.973321715e-06
1.85846322e-06
2.16696659e-06
1.92316549e-06
2.264372834e-06
2.161522171e-06
2.184094537e-06
2.491003292e-06
2.461629847e-06
2.360390803e-06
2.359218269e-06
2.346485031e-06
2.33002349e-06
2.538672153e-06
2.736211216e-06
2.868731446e-06
2.878009996e-06
2.926887022e-06
2.973392628e-06
3.068104195e-06
3.292519265e-06
3.660831479e-06
3.565514846e-06
3.558132187e-06
4.039043301e-06
4.688275403e-06
2.084731205e-06
1.880279963e-06
1.812954242e-06