/*--------------------------------*- C++ -*----------------------------------*\
  =========                 |
  \\      /  F ield         | OpenFOAM: The Open Source CFD Toolbox
   \\    /   O peration     | Website:  https://openfoam.org
    \\  /    A nd           | Version:  7
     \\/     M anipulation  |
\*---------------------------------------------------------------------------*/
FoamFile
{
    version     2.0;
    format      ascii;
    class       volScalarField;
    location    "0.001";
    object      rhoNMean;
}
// * * * * * * * * * * * * * * * * * * * * * * * * * * * * * * * * * * * * * //

dimensions      [0 -3 0 0 0 0 0];

internalField   nonuniform List<scalar> 
2400
(
8.054186115e+19
7.689696182e+19
7.604301398e+19
6.377532424e+19
6.331710832e+19
6.56081879e+19
5.996380094e+19
6.635799576e+19
6.854493536e+19
6.721194361e+19
6.787843948e+19
6.231736451e+19
6.717028761e+19
5.658966556e+19
5.950558503e+19
5.765189337e+19
5.442355396e+19
6.552487592e+19
6.12759647e+19
5.513170583e+19
7.825078157e+19
7.525155012e+19
6.971130315e+19
6.667041571e+19
6.531659596e+19
6.348373229e+19
6.352538829e+19
6.535825195e+19
6.085940478e+19
6.269226844e+19
5.956806902e+19
5.715202146e+19
5.625641763e+19
5.906819711e+19
5.725616144e+19
5.182005444e+19
5.679794553e+19
5.288228225e+19
5.15076345e+19
4.996636279e+19
7.293964255e+19
7.283550257e+19
6.642047975e+19
6.29005484e+19
6.415022817e+19
6.273392443e+19
5.906819711e+19
5.440272597e+19
5.708953747e+19
5.715202146e+19
5.448603795e+19
5.758940938e+19
5.561074975e+19
5.381954208e+19
5.63813856e+19
5.029961072e+19
5.494425387e+19
5.063285866e+19
4.203089625e+19
4.590490354e+19
7.623046594e+19
7.196072673e+19
6.440016412e+19
6.829499941e+19
5.700622549e+19
6.052615684e+19
5.279897026e+19
5.279897026e+19
5.53399858e+19
5.665214955e+19
5.159094649e+19
5.63813856e+19
5.413196202e+19
5.281979826e+19
5.488176988e+19
5.786017333e+19
5.088279462e+19
5.157011849e+19
4.736286327e+19
4.567579558e+19
6.754519154e+19
6.881569931e+19
6.862824734e+19
6.025539289e+19
6.285889241e+19
5.960972501e+19
5.275731427e+19
4.852923105e+19
5.390285406e+19
4.707127132e+19
4.509261168e+19
4.621732348e+19
5.354877813e+19
5.465266192e+19
4.952897487e+19
5.188253843e+19
4.861254304e+19
4.894579097e+19
4.632146346e+19
4.375961993e+19
7.066939097e+19
5.654800957e+19
5.902654112e+19
6.462927208e+19
5.825590526e+19
5.829756125e+19
5.592316969e+19
5.331967017e+19
5.636055761e+19
5.244489433e+19
5.53191578e+19
5.290311024e+19
5.429858599e+19
5.379871408e+19
4.621732348e+19
4.421783585e+19
4.307229606e+19
4.646725943e+19
3.940656873e+19
3.84901369e+19
6.102602875e+19
5.983883297e+19
5.831838925e+19
6.060946882e+19
5.209081839e+19
5.338215416e+19
5.700622549e+19
5.648552558e+19
5.931813306e+19
5.256986231e+19
5.550660976e+19
5.794348532e+19
5.194502242e+19
5.046623469e+19
4.50301277e+19
4.034382856e+19
4.440528781e+19
4.146854035e+19
4.263490814e+19
4.275987612e+19
7.10442949e+19
6.417105617e+19
5.698539749e+19
5.85683252e+19
5.715202146e+19
6.004711293e+19
5.923482108e+19
5.448603795e+19
5.321553019e+19
4.992470679e+19
5.017464275e+19
5.250737832e+19
5.294476624e+19
4.671719539e+19
4.709209932e+19
4.640477544e+19
4.417617985e+19
4.290567209e+19
4.236414419e+19
3.946905272e+19
5.836004524e+19
6.063029682e+19
5.844335722e+19
5.173674246e+19
5.592316969e+19
6.331710832e+19
5.58398577e+19
4.921655492e+19
4.992470679e+19
4.965394284e+19
4.782107918e+19
5.092445061e+19
5.354877813e+19
4.850840306e+19
4.948731887e+19
4.623815147e+19
4.188510028e+19
4.211420823e+19
4.023968858e+19
3.807357698e+19
5.940144505e+19
5.623558963e+19
5.556909375e+19
4.909158695e+19
5.159094649e+19
5.298642223e+19
5.31322182e+19
5.223661437e+19
4.98830508e+19
5.20699904e+19
4.963311485e+19
4.836260708e+19
4.625897947e+19
4.798770315e+19
4.723789529e+19
4.698795934e+19
4.192675627e+19
4.071873249e+19
4.12186044e+19
3.744873709e+19
6.156755665e+19
5.094527861e+19
5.040375071e+19
5.077865464e+19
5.092445061e+19
4.859171504e+19
5.317387419e+19
5.213247439e+19
4.55299996e+19
4.486350373e+19
4.432197583e+19
4.859171504e+19
4.405121188e+19
4.782107918e+19
4.711292731e+19
4.77377672e+19
4.323892003e+19
3.980230066e+19
4.236414419e+19
4.450942779e+19
6.02137369e+19
5.498590986e+19
5.011215876e+19
5.079948263e+19
4.71754113e+19
4.271822012e+19
5.786017333e+19
5.925564907e+19
5.040375071e+19
5.429858599e+19
5.040375071e+19
4.871668302e+19
4.342637199e+19
4.767528321e+19
4.365547995e+19
4.948731887e+19
4.165599232e+19
3.494937756e+19
4.221834821e+19
4.151019635e+19
5.979717697e+19
5.740195742e+19
5.775603335e+19
4.700878733e+19
4.571745157e+19
4.852923105e+19
4.482184773e+19
5.242406633e+19
5.267400229e+19
5.050789069e+19
5.538164179e+19
4.898744697e+19
4.01355486e+19
4.421783585e+19
3.980230066e+19
4.50092997e+19
4.157268033e+19
4.167682031e+19
4.300981207e+19
4.240580018e+19
6.12551367e+19
5.767272137e+19
4.909158695e+19
5.009133076e+19
4.669636739e+19
4.927903891e+19
4.869585502e+19
4.359299596e+19
4.755031523e+19
4.805018714e+19
4.798770315e+19
5.319470219e+19
4.723789529e+19
3.95940207e+19
4.469687976e+19
4.28223601e+19
4.051045253e+19
3.821937295e+19
4.071873249e+19
4.442611581e+19
5.777686135e+19
5.356960612e+19
5.813093728e+19
4.463439577e+19
4.567579558e+19
4.732120727e+19
4.465522377e+19
4.942483489e+19
4.353051197e+19
4.369713594e+19
4.965394284e+19
4.861254304e+19
4.49884717e+19
3.530345349e+19
3.899000881e+19
4.188510028e+19
4.588407554e+19
3.869841686e+19
4.686299136e+19
4.107280843e+19
5.931813306e+19
5.461100593e+19
4.76961112e+19
4.696713134e+19
4.517592367e+19
4.280153211e+19
4.473853575e+19
5.040375071e+19
4.66130554e+19
4.580076355e+19
3.990644064e+19
4.761279922e+19
4.671719539e+19
4.780025119e+19
4.053128053e+19
3.928160076e+19
4.053128053e+19
4.215586423e+19
4.434280382e+19
4.144771236e+19
5.58398577e+19
4.727955128e+19
5.004967477e+19
5.132018254e+19
4.796687515e+19
4.652974342e+19
4.159350833e+19
4.3384716e+19
4.194758426e+19
4.280153211e+19
4.194758426e+19
4.82792951e+19
4.761279922e+19
4.480101974e+19
4.036465656e+19
4.001058062e+19
4.142688436e+19
4.777942319e+19
4.3384716e+19
4.171847631e+19
5.923482108e+19
5.736030142e+19
5.159094649e+19
5.173674246e+19
4.727955128e+19
4.638394745e+19
3.874007286e+19
4.473853575e+19
4.600904352e+19
4.973725483e+19
4.430114783e+19
4.590490354e+19
5.04454067e+19
4.328057602e+19
4.057293652e+19
4.398872789e+19
4.294732808e+19
4.126026039e+19
4.169764831e+19
4.371796394e+19
5.821424927e+19
5.404865003e+19
5.136183853e+19
5.300725023e+19
4.417617985e+19
4.436363182e+19
5.04245787e+19
4.925821092e+19
4.646725943e+19
4.528006365e+19
5.023712674e+19
4.484267573e+19
4.450942779e+19
4.317643604e+19
4.057293652e+19
4.39262439e+19
4.3384716e+19
3.940656873e+19
3.95731927e+19
4.134357238e+19
5.85474972e+19
5.165343048e+19
4.55508276e+19
4.805018714e+19
4.613401149e+19
4.775859519e+19
5.075782664e+19
4.765445521e+19
5.025795473e+19
4.213503623e+19
4.384293192e+19
4.830012309e+19
4.484267573e+19
3.95731927e+19
3.948988072e+19
3.705300517e+19
4.492598772e+19
4.342637199e+19
4.053128053e+19
4.01355486e+19
5.400699404e+19
5.31530462e+19
5.123687055e+19
4.561331159e+19
4.894579097e+19
4.638394745e+19
4.817515512e+19
4.536337563e+19
5.027878273e+19
4.382210392e+19
4.396789989e+19
4.838343508e+19
4.850840306e+19
4.3363888e+19
4.078121648e+19
3.757370507e+19
4.49884717e+19
4.246828417e+19
3.996892463e+19
4.040631255e+19
5.267400229e+19
5.123687055e+19
5.148680651e+19
4.590490354e+19
5.427775799e+19
4.469687976e+19
4.615483949e+19
4.615483949e+19
4.403038388e+19
4.096866845e+19
4.471770775e+19
4.165599232e+19
4.467605176e+19
4.455108378e+19
4.078121648e+19
3.894835282e+19
3.996892463e+19
4.350968398e+19
4.12186044e+19
3.853179289e+19
5.050789069e+19
4.965394284e+19
4.505095569e+19
4.813349912e+19
4.727955128e+19
4.596738752e+19
4.819598311e+19
4.657139941e+19
4.50301277e+19
4.021886058e+19
4.296815608e+19
4.71962393e+19
4.571745157e+19
4.407203987e+19
4.748783124e+19
4.194758426e+19
3.901083681e+19
3.976064467e+19
4.66130554e+19
4.192675627e+19
6.040118886e+19
5.20699904e+19
5.406947803e+19
4.602987151e+19
3.813606097e+19
4.300981207e+19
4.369713594e+19
4.261408014e+19
4.642560344e+19
4.026051658e+19
3.994809663e+19
4.319726403e+19
4.602987151e+19
4.525923565e+19
4.788356317e+19
4.780025119e+19
4.530089165e+19
4.261408014e+19
4.207255224e+19
4.107280843e+19
6.12551367e+19
5.992214495e+19
4.809184313e+19
4.963311485e+19
4.957063086e+19
4.929986691e+19
4.857088704e+19
4.159350833e+19
4.221834821e+19
3.963567669e+19
3.982312866e+19
4.17601323e+19
4.278070411e+19
4.323892003e+19
4.525923565e+19
4.732120727e+19
4.198924026e+19
4.478019174e+19
4.44885998e+19
4.315560804e+19
6.408774418e+19
5.47776299e+19
4.821681111e+19
4.786273517e+19
4.465522377e+19
5.277814227e+19
5.094527861e+19
3.621988532e+19
3.965650469e+19
4.523840766e+19
4.473853575e+19
4.617566749e+19
4.623815147e+19
4.240580018e+19
4.357216797e+19
4.290567209e+19
4.428031983e+19
4.365547995e+19
4.415535186e+19
4.288484409e+19
6.458761609e+19
5.111190257e+19
5.023712674e+19
4.411369587e+19
4.798770315e+19
4.696713134e+19
4.605069951e+19
4.517592367e+19
4.617566749e+19
4.101032444e+19
4.93623509e+19
4.775859519e+19
4.28431881e+19
4.438445982e+19
4.092701245e+19
4.161433633e+19
4.378044793e+19
4.28431881e+19
4.438445982e+19
4.405121188e+19
6.079692079e+19
5.933896106e+19
5.690208551e+19
5.029961072e+19
5.359043412e+19
5.571488973e+19
4.977891082e+19
4.617566749e+19
4.602987151e+19
4.538420363e+19
4.509261168e+19
4.838343508e+19
4.655057142e+19
4.480101974e+19
4.598821552e+19
4.309312405e+19
4.548834361e+19
4.12394324e+19
4.363465195e+19
4.565496758e+19
5.931813306e+19
6.23590205e+19
5.977634898e+19
5.53399858e+19
5.142432252e+19
5.290311024e+19
5.267400229e+19
5.088279462e+19
5.059120267e+19
4.671719539e+19
4.684216336e+19
5.038292271e+19
4.634229145e+19
4.548834361e+19
4.55299996e+19
4.867502702e+19
5.065368666e+19
4.575910756e+19
4.794604716e+19
4.730037928e+19
5.85474972e+19
6.088023277e+19
5.783934533e+19
5.629807362e+19
5.007050277e+19
5.454852194e+19
5.615227765e+19
5.194502242e+19
5.623558963e+19
5.288228225e+19
4.805018714e+19
4.702961533e+19
4.605069951e+19
4.996636279e+19
5.144515051e+19
5.265317429e+19
4.438445982e+19
4.671719539e+19
4.257242415e+19
4.644643144e+19
6.060946882e+19
5.977634898e+19
5.721450545e+19
5.275731427e+19
5.577737371e+19
5.434024198e+19
5.85474972e+19
5.298642223e+19
5.47984579e+19
4.792521916e+19
4.871668302e+19
4.405121188e+19
4.488433172e+19
4.598821552e+19
4.742534725e+19
4.55508276e+19
4.642560344e+19
4.530089165e+19
4.373879193e+19
4.386375991e+19
5.956806902e+19
6.804506345e+19
6.94405392e+19
5.873494917e+19
6.194246058e+19
5.754775339e+19
5.506922185e+19
5.848501322e+19
5.227827036e+19
4.667553939e+19
4.946649088e+19
4.625897947e+19
4.805018714e+19
4.671719539e+19
4.950814687e+19
4.907075895e+19
4.923738292e+19
5.027878273e+19
4.600904352e+19
4.49884717e+19
6.34629043e+19
6.689952366e+19
6.108851274e+19
5.879743316e+19
5.736030142e+19
5.019547074e+19
5.417361801e+19
6.104685674e+19
5.4236102e+19
4.963311485e+19
4.594655953e+19
5.002884677e+19
5.390285406e+19
4.698795934e+19
5.371540209e+19
4.919572693e+19
4.777942319e+19
5.146597851e+19
4.60715275e+19
4.473853575e+19
6.419188416e+19
6.229653651e+19
6.854493536e+19
5.956806902e+19
5.623558963e+19
5.736030142e+19
6.387946422e+19
5.604813766e+19
5.498590986e+19
4.82792951e+19
5.673546154e+19
5.300725023e+19
4.863337103e+19
5.221578637e+19
4.788356317e+19
5.190336643e+19
4.840426307e+19
5.088279462e+19
4.550917161e+19
4.55508276e+19
6.88781833e+19
6.808671944e+19
6.096354476e+19
5.981800497e+19
5.704788148e+19
5.53399858e+19
6.058864083e+19
5.806845329e+19
5.488176988e+19
5.631890161e+19
5.373623009e+19
5.088279462e+19
4.869585502e+19
5.04454067e+19
5.123687055e+19
5.015381475e+19
4.932069491e+19
5.688125751e+19
4.855005905e+19
4.834177909e+19
7.356448243e+19
7.837574955e+19
7.506409816e+19
6.202577256e+19
5.713119347e+19
5.706870948e+19
5.863080919e+19
6.067195281e+19
5.983883297e+19
6.131762069e+19
5.708953747e+19
5.20491624e+19
5.511087784e+19
5.319470219e+19
4.786273517e+19
5.311139021e+19
5.377788608e+19
5.554826576e+19
5.20699904e+19
5.31530462e+19
7.166913478e+19
7.091932692e+19
7.760511369e+19
5.946392903e+19
7.027365904e+19
5.775603335e+19
6.027622089e+19
6.063029682e+19
5.985966096e+19
5.64022136e+19
6.300468838e+19
5.411113402e+19
5.704788148e+19
5.885991715e+19
5.109107458e+19
4.627980747e+19
5.159094649e+19
5.373623009e+19
6.046367285e+19
6.044284485e+19
6.77951275e+19
7.508492615e+19
6.646213574e+19
6.652461973e+19
6.533742395e+19
6.254647247e+19
5.933896106e+19
6.800340746e+19
6.158838464e+19
6.063029682e+19
6.262978445e+19
5.442355396e+19
5.627724562e+19
5.58815137e+19
5.402782204e+19
5.077865464e+19
5.386119807e+19
5.411113402e+19
5.885991715e+19
5.665214955e+19
7.187741475e+19
8.483242836e+19
7.733434974e+19
6.539990794e+19
6.733691158e+19
7.371027841e+19
6.983627112e+19
6.644130775e+19
6.625385578e+19
6.471258407e+19
6.144258867e+19
6.000545693e+19
6.481672405e+19
5.752692539e+19
6.02137369e+19
6.323379634e+19
5.450686595e+19
5.971386499e+19
6.058864083e+19
6.108851274e+19
7.381441839e+19
8.6748604e+19
8.093759308e+19
7.708441379e+19
6.552487592e+19
6.787843948e+19
6.83158274e+19
6.650379174e+19
6.221322453e+19
5.929730507e+19
7.010703507e+19
6.658710372e+19
7.42726343e+19
6.383780823e+19
6.34629043e+19
6.431685214e+19
6.23798485e+19
6.390029222e+19
6.444182012e+19
6.215074054e+19
4.048689811e+19
3.659826531e+19
4.231901525e+19
4.690320992e+19
5.14228421e+19
5.100736262e+19
5.076032513e+19
5.156340243e+19
5.602619695e+19
5.380592593e+19
5.62642265e+19
5.722206102e+19
5.284374497e+19
6.271329836e+19
6.420375857e+19
6.974561066e+19
6.685432199e+19
6.510071594e+19
6.112732088e+19
6.13668267e+19
6.558028224e+19
7.208143963e+19
6.678194825e+19
7.379492873e+19
7.277272592e+19
7.453145222e+19
7.540446797e+19
7.091039637e+19
7.807340979e+19
7.965048129e+19
8.283189275e+19
7.829946492e+19
8.296900866e+19
8.718123036e+19
9.190394551e+19
9.423939237e+19
9.101855279e+19
9.979350013e+19
1.026050473e+20
1.162665389e+20
4.38939009e+19
3.750322529e+19
4.164089385e+19
4.054417601e+19
4.716804782e+19
5.01633715e+19
4.415647007e+19
4.796340331e+19
4.753603924e+19
5.251422738e+19
5.626422654e+19
5.634067856e+19
5.625889437e+19
5.75751203e+19
5.246311446e+19
5.218694945e+19
6.06593269e+19
5.746267335e+19
5.910165917e+19
5.961348875e+19
6.214270377e+19
6.866525766e+19
7.280831184e+19
6.652950054e+19
7.072278992e+19
6.95912545e+19
6.762766743e+19
7.021846256e+19
7.479127697e+19
7.383828982e+19
7.297408266e+19
7.814037362e+19
8.304924955e+19
8.656062736e+19
8.033428413e+19
9.234416714e+19
9.076911104e+19
8.421475033e+19
9.653624809e+19
1.110814102e+20
4.096764083e+19
3.866073223e+19
4.238258913e+19
4.193121361e+19
4.244049864e+19
4.542403654e+19
4.376416181e+19
4.392437987e+19
4.48165356e+19
5.204654342e+19
5.20690868e+19
4.976420946e+19
5.129554391e+19
5.654289702e+19
5.805609851e+19
5.665812044e+19
6.187955316e+19
6.006386433e+19
5.919698447e+19
6.100655179e+19
6.173116264e+19
6.26625379e+19
6.751987028e+19
6.285959146e+19
6.152307746e+19
6.344121245e+19
6.757683867e+19
6.31966163e+19
6.967425117e+19
7.516753542e+19
7.652289419e+19
7.586006405e+19
7.334011023e+19
8.361950878e+19
8.16409753e+19
8.583448008e+19
8.89121551e+19
9.106716268e+19
9.272560672e+19
9.558300375e+19
4.247257457e+19
3.8723869e+19
4.416265791e+19
3.648975839e+19
4.211816568e+19
4.689561086e+19
4.46359579e+19
4.199267301e+19
4.49713041e+19
4.85277784e+19
5.191204949e+19
4.965121168e+19
5.282097731e+19
5.211580614e+19
5.119198173e+19
5.50745807e+19
5.807807895e+19
6.027668905e+19
5.566994993e+19
5.853266406e+19
6.303841084e+19
6.161328196e+19
6.146890922e+19
6.055349998e+19
6.242304934e+19
6.628938767e+19
7.118568075e+19
7.093602349e+19
7.822847111e+19
7.537604453e+19
7.134425805e+19
6.899262035e+19
6.972927324e+19
7.557865244e+19
7.777534726e+19
7.924239201e+19
8.669489445e+19
9.190623375e+19
9.560475806e+19
1.043008571e+20
4.234716343e+19
3.69349946e+19
3.875887779e+19
4.028810756e+19
3.956099139e+19
3.873702976e+19
4.051672155e+19
4.317803859e+19
4.585569556e+19
4.552123869e+19
4.518187885e+19
4.490530615e+19
4.731120292e+19
4.683999823e+19
4.846482424e+19
5.228009885e+19
5.458166127e+19
5.542901496e+19
5.285785486e+19
5.908508554e+19
5.940716597e+19
5.997839497e+19
6.100155862e+19
5.822261178e+19
6.282303684e+19
5.86018351e+19
6.625529092e+19
6.832205164e+19
7.264626114e+19
7.039788939e+19
7.142312041e+19
7.087520134e+19
7.740564509e+19
8.256718196e+19
7.908203856e+19
8.056080949e+19
8.372930786e+19
8.955683536e+19
9.481440281e+19
1.092580686e+20
3.952541266e+19
3.863968665e+19
3.903436459e+19
3.841027199e+19
3.732614989e+19
3.862882571e+19
3.90346682e+19
4.276096545e+19
4.342361907e+19
4.035444448e+19
3.885551851e+19
4.117638043e+19
4.72429e+19
4.686293659e+19
4.966662249e+19
5.051026031e+19
4.81050755e+19
4.691602631e+19
4.754347179e+19
5.692343607e+19
5.381504884e+19
5.153554515e+19
5.844342865e+19
6.333072838e+19
5.932314616e+19
6.107193396e+19
6.729728048e+19
6.806577976e+19
6.577187286e+19
6.432506157e+19
6.385232233e+19
6.695094799e+19
7.676371898e+19
7.835787464e+19
7.71764466e+19
8.064321073e+19
8.736007306e+19
8.790666241e+19
9.089085322e+19
9.771973188e+19
4.328774702e+19
3.403070442e+19
3.471134052e+19
3.813286452e+19
3.59508629e+19
4.055485686e+19
3.796671809e+19
3.828291779e+19
3.873634454e+19
4.20915563e+19
4.331986498e+19
4.400132414e+19
4.430587145e+19
4.392683478e+19
4.647723488e+19
4.720345673e+19
5.0568994e+19
4.61829634e+19
4.902101327e+19
4.801263662e+19
5.485600578e+19
5.707464029e+19
5.495059756e+19
5.971041276e+19
6.01731196e+19
6.200452225e+19
6.615363334e+19
6.891147657e+19
6.300661162e+19
6.721812597e+19
6.784802184e+19
6.835625525e+19
7.403553081e+19
7.549770481e+19
7.924537579e+19
7.740210144e+19
8.769266217e+19
8.513772841e+19
8.967709419e+19
1.069504024e+20
3.565856901e+19
3.592480673e+19
3.632187891e+19
3.655377551e+19
3.287795586e+19
3.215822692e+19
3.463209819e+19
3.635121093e+19
3.981972404e+19
3.63457248e+19
3.901255577e+19
4.07243894e+19
4.603621388e+19
4.413327949e+19
4.668523842e+19
5.044039823e+19
5.368995743e+19
5.138534535e+19
5.099901239e+19
4.827683823e+19
5.156367703e+19
5.287761664e+19
5.544254557e+19
5.554457001e+19
6.157307605e+19
5.895470651e+19
6.36884383e+19
6.440109326e+19
6.279986258e+19
6.04937063e+19
6.724340846e+19
6.933731747e+19
6.908734626e+19
7.258356833e+19
7.537974639e+19
7.531460554e+19
7.838016568e+19
8.122206343e+19
8.507609677e+19
1.087167629e+20
3.444626127e+19
3.682976669e+19
3.555899228e+19
4.022409041e+19
3.743359424e+19
3.354323804e+19
3.820646198e+19
3.744877165e+19
3.798461182e+19
3.988676049e+19
4.554082132e+19
4.316514082e+19
4.605898147e+19
4.860624698e+19
4.878838533e+19
5.297871932e+19
5.420620702e+19
5.169275883e+19
4.427858175e+19
4.52265106e+19
4.560843538e+19
5.417088561e+19
5.379451968e+19
5.075881026e+19
5.264835483e+19
5.650981224e+19
6.018125375e+19
5.958318466e+19
6.23863658e+19
6.132774275e+19
6.280082258e+19
7.039792773e+19
7.010373058e+19
7.190899985e+19
7.810201964e+19
8.168695801e+19
7.75486943e+19
8.530554259e+19
9.715724124e+19
1.10226719e+20
3.854302538e+19
4.087051826e+19
3.339748026e+19
3.523075505e+19
3.758401624e+19
3.657294989e+19
3.933979688e+19
4.177316087e+19
3.889111304e+19
4.255924026e+19
4.455372959e+19
4.045319477e+19
4.430587148e+19
4.509668785e+19
4.460520304e+19
4.641168683e+19
5.242279927e+19
5.223664429e+19
4.763879701e+19
4.890131455e+19
4.955438843e+19
5.214557765e+19
4.789114277e+19
5.145311731e+19
5.304834212e+19
5.744240104e+19
5.921550776e+19
5.899375961e+19
6.158521528e+19
6.317826165e+19
6.624448426e+19
6.851534603e+19
7.288541237e+19
7.118046589e+19
7.616920629e+19
8.215389758e+19
7.868503973e+19
8.880167138e+19
9.910490238e+19
1.036455932e+20
3.850122164e+19
3.834504852e+19
3.568614005e+19
3.698055633e+19
3.9002281e+19
4.003547766e+19
4.210774931e+19
3.808535684e+19
3.858157604e+19
3.895139257e+19
3.997721356e+19
3.882602707e+19
4.492059818e+19
4.2160586e+19
4.324162429e+19
4.494458393e+19
4.648592926e+19
4.464589621e+19
4.768645975e+19
4.991008438e+19
4.957859627e+19
5.016907236e+19
4.870285744e+19
5.202344102e+19
5.529827225e+19
5.736678577e+19
5.997793821e+19
6.263281812e+19
6.261895788e+19
6.372559755e+19
6.004063574e+19
6.620852186e+19
6.732204879e+19
6.875201937e+19
7.472640081e+19
7.888532058e+19
8.270382551e+19
8.376724592e+19
9.814518618e+19
1.132466301e+20
4.351766745e+19
4.074424478e+19
3.79324173e+19
3.870901855e+19
3.876590354e+19
3.865046657e+19
3.853338566e+19
3.841462532e+19
4.041668845e+19
3.781558883e+19
3.741974886e+19
3.957181251e+19
4.457908366e+19
3.748117401e+19
3.933578006e+19
4.072957348e+19
3.907070736e+19
4.296694501e+19
4.680470077e+19
4.880524169e+19
4.623785173e+19
4.716771286e+19
4.757137691e+19
4.845271866e+19
4.774850775e+19
5.207371678e+19
5.847849071e+19
5.645666917e+19
5.801880332e+19
5.83564879e+19
5.764847332e+19
6.064032316e+19
6.395193321e+19
6.70521068e+19
7.116022408e+19
7.699009593e+19
8.007082839e+19
8.463428586e+19
9.456035971e+19
1.104546357e+20
4.207543928e+19
3.906059838e+19
3.490206229e+19
3.894374801e+19
4.514809479e+19
3.663787221e+19
3.979748972e+19
3.883169782e+19
3.811727038e+19
3.839462596e+19
4.069509831e+19
4.043059498e+19
4.05264394e+19
4.12201161e+19
3.887354998e+19
3.919260874e+19
3.735769793e+19
3.982186929e+19
4.048940286e+19
4.628331694e+19
4.265502277e+19
4.670408743e+19
4.452129862e+19
4.914702579e+19
4.859848119e+19
5.025894987e+19
5.558125082e+19
5.561097235e+19
5.783789837e+19
6.476814365e+19
5.36790627e+19
6.186002463e+19
6.563699155e+19
6.991227715e+19
6.925463157e+19
7.569914401e+19
8.190006777e+19
8.527757356e+19
9.235865582e+19
1.073492565e+20
4.358037288e+19
4.057587986e+19
3.765693019e+19
3.636172405e+19
3.870143699e+19
3.836913608e+19
4.01244131e+19
3.920486874e+19
3.763085509e+19
4.088894011e+19
4.27590173e+19
3.844183486e+19
3.911484432e+19
4.099073285e+19
4.301050922e+19
3.930904519e+19
3.803820819e+19
4.296694534e+19
4.249123325e+19
4.683573847e+19
4.618943442e+19
4.802175798e+19
4.734999992e+19
4.743605428e+19
4.769850931e+19
4.937677211e+19
5.179450808e+19
5.18694042e+19
5.546029039e+19
6.088466089e+19
6.077668505e+19
6.270851136e+19
6.234711789e+19
6.429986741e+19
7.189523662e+19
7.149668853e+19
6.881822953e+19
8.027111641e+19
8.993113613e+19
1.081184798e+20
4.134387449e+19
4.141770345e+19
4.189518936e+19
3.789813518e+19
3.95395028e+19
3.871538912e+19
3.986287456e+19
3.955608845e+19
3.847102722e+19
4.093348173e+19
4.141298348e+19
4.049839422e+19
3.945635954e+19
3.79858165e+19
3.834198567e+19
4.240626293e+19
4.305990904e+19
4.327435914e+19
4.311084742e+19
4.503436391e+19
4.570526879e+19
4.519120756e+19
4.730080548e+19
4.855190539e+19
5.277335113e+19
5.436738001e+19
5.30906415e+19
5.210004921e+19
5.316021355e+19
5.640171544e+19
6.382603484e+19
6.416684938e+19
5.988639938e+19
6.670133119e+19
6.887351391e+19
7.490260136e+19
7.657864272e+19
8.060674549e+19
8.332602519e+19
9.264856297e+19
3.772785286e+19
3.746113422e+19
4.64725093e+19
4.246468976e+19
3.900228103e+19
3.884523392e+19
3.646286995e+19
3.709755191e+19
3.559675482e+19
3.514310891e+19
3.706080618e+19
3.789944538e+19
3.902377367e+19
3.805463139e+19
3.834198538e+19
3.816796537e+19
4.209780785e+19
4.228117713e+19
4.611359337e+19
4.983802978e+19
4.732722447e+19
4.85585862e+19
4.897342848e+19
4.723768119e+19
4.922346165e+19
4.786446668e+19
4.846522459e+19
5.115184369e+19
5.202309625e+19
5.473364252e+19
5.636038708e+19
6.371609052e+19
6.122374639e+19
6.424590193e+19
6.552511721e+19
6.965639667e+19
8.417276e+19
7.744624506e+19
7.974119886e+19
9.783369164e+19
4.044509434e+19
3.813459256e+19
4.117468506e+19
3.642574117e+19
3.799230461e+19
3.384620915e+19
4.106159414e+19
4.293657547e+19
3.670224436e+19
3.538808622e+19
3.753191812e+19
3.771864925e+19
3.936528889e+19
4.218352449e+19
3.882732697e+19
3.882001086e+19
3.716997025e+19
4.649037639e+19
4.597060478e+19
4.549071248e+19
4.691568411e+19
4.509360236e+19
4.498864962e+19
4.540272665e+19
4.454860775e+19
4.801569684e+19
5.148953551e+19
5.402208743e+19
5.62614409e+19
5.697511503e+19
5.515116143e+19
6.117062769e+19
6.092952953e+19
6.578391863e+19
7.080632855e+19
6.940919459e+19
7.558087539e+19
7.954392233e+19
8.538659347e+19
9.583941051e+19
3.816679186e+19
4.291193971e+19
4.202233741e+19
4.0074717e+19
4.039905666e+19
3.823929128e+19
3.940518136e+19
4.001706367e+19
4.138951894e+19
3.7926942e+19
4.020155276e+19
4.162837143e+19
3.852288481e+19
4.041727547e+19
4.254827914e+19
4.098573463e+19
4.043172961e+19
4.450401306e+19
4.249123325e+19
4.436185074e+19
4.638310081e+19
4.319030062e+19
4.545600028e+19
4.500597972e+19
4.602356203e+19
5.005730995e+19
5.326854217e+19
4.815346368e+19
5.225568834e+19
5.525491485e+19
5.551918681e+19
5.936759329e+19
6.312277916e+19
6.686322762e+19
6.743070849e+19
6.91894571e+19
6.746015734e+19
7.375433305e+19
8.56688632e+19
1.016513139e+20
4.623490918e+19
4.063901695e+19
4.130183311e+19
3.832491598e+19
3.846505953e+19
4.020860396e+19
3.816287226e+19
3.786584467e+19
4.0836774e+19
3.957497147e+19
3.928176277e+19
3.970740967e+19
4.025322774e+19
4.273404357e+19
4.321851276e+19
4.203366503e+19
4.390468077e+19
4.213929367e+19
4.027492103e+19
4.539463882e+19
4.628626797e+19
4.526441111e+19
4.378337655e+19
5.056043672e+19
4.919846244e+19
4.741077467e+19
5.014257333e+19
5.169001439e+19
5.173881704e+19
6.046764317e+19
5.996177325e+19
6.337139203e+19
6.379145266e+19
6.702512406e+19
7.118744558e+19
6.932679287e+19
7.289244675e+19
7.853703724e+19
8.010815024e+19
1.033322072e+20
4.017337019e+19
4.249102808e+19
4.183161547e+19
3.732198084e+19
4.179583284e+19
4.070634262e+19
4.234749332e+19
4.028047824e+19
4.17653853e+19
4.162387234e+19
3.688133497e+19
4.049839363e+19
4.018492446e+19
4.057784384e+19
4.640790067e+19
4.841439903e+19
4.688484919e+19
4.086234568e+19
4.077537863e+19
4.421774078e+19
4.65283506e+19
4.306829413e+19
4.434911715e+19
4.555150674e+19
4.732352103e+19
4.544477801e+19
4.373814972e+19
4.720525856e+19
5.199725269e+19
5.804372423e+19
6.14338729e+19
5.857213648e+19
6.002013408e+19
5.874142314e+19
6.266673084e+19
7.03156067e+19
6.823619859e+19
7.77539037e+19
8.516077769e+19
9.393060028e+19
4.220085037e+19
3.33572457e+19
3.746620879e+19
3.836759406e+19
3.861548155e+19
3.63998234e+19
3.763979463e+19
3.78219425e+19
4.218547122e+19
3.98199485e+19
3.921446106e+19
3.810284188e+19
4.353177118e+19
4.555545385e+19
4.730924899e+19
4.971849059e+19
4.704911078e+19
4.355812543e+19
4.208610091e+19
4.467408934e+19
4.606839364e+19
4.250706456e+19
4.779275354e+19
4.981653662e+19
4.944845502e+19
4.511711147e+19
4.353483397e+19
4.705149473e+19
5.310852554e+19
5.150175082e+19
5.707014846e+19
5.793577005e+19
5.804086e+19
6.384116084e+19
6.816572226e+19
6.515180319e+19
7.710524147e+19
8.533351162e+19
8.425751455e+19
9.176538087e+19
4.084222963e+19
3.969196554e+19
4.181042418e+19
4.278477536e+19
3.848654839e+19
3.704904736e+19
3.853338531e+19
4.388047738e+19
4.306986265e+19
4.204701497e+19
4.136811537e+19
4.208036213e+19
4.37366795e+19
4.688587461e+19
4.17855995e+19
4.603908907e+19
4.819893869e+19
4.041304845e+19
4.613742398e+19
4.582696872e+19
4.393806261e+19
4.528881205e+19
4.619392163e+19
4.448524902e+19
4.702353078e+19
4.849459434e+19
4.615251592e+19
5.35095439e+19
4.82240926e+19
5.275280638e+19
6.072411108e+19
5.875774307e+19
6.007362796e+19
6.411098878e+19
6.699514593e+19
6.918945832e+19
7.425051895e+19
7.49010633e+19
7.993878768e+19
1.013664167e+20
3.852212344e+19
3.853445885e+19
4.13442157e+19
4.40864565e+19
4.471831781e+19
4.45584045e+19
4.101800433e+19
4.34414531e+19
4.282665471e+19
4.309373621e+19
3.961827102e+19
4.35945323e+19
4.332686221e+19
5.025780432e+19
4.476698354e+19
4.27322855e+19
4.744803056e+19
4.69869681e+19
4.232441405e+19
4.171983473e+19
4.522110246e+19
4.721651509e+19
4.513623404e+19
4.803117505e+19
4.667354135e+19
4.839377319e+19
4.503428279e+19
4.994736641e+19
4.961964471e+19
5.27528055e+19
5.943602288e+19
5.793577054e+19
5.929796669e+19
6.624262462e+19
6.160504372e+19
6.842038077e+19
7.405650864e+19
7.719452378e+19
7.880970947e+19
1.002838074e+20
3.753973639e+19
3.809250165e+19
3.909793847e+19
4.274209699e+19
4.615807111e+19
4.590013434e+19
4.023338789e+19
4.210242903e+19
3.988605351e+19
3.850597928e+19
3.735244718e+19
4.352673365e+19
4.42375684e+19
4.817041948e+19
4.608433927e+19
4.692400868e+19
4.787041659e+19
4.644308236e+19
4.685236375e+19
4.027873508e+19
4.839239e+19
5.041308575e+19
4.934238991e+19
4.639459397e+19
4.592356478e+19
4.552039328e+19
4.495804001e+19
4.766654773e+19
5.463329631e+19
5.496821482e+19
6.274824759e+19
6.612897618e+19
6.627891811e+19
6.775365802e+19
6.658680436e+19
6.679982578e+19
7.18115315e+19
7.901251076e+19
7.649509696e+19
1.000273999e+20
4.169920579e+19
4.225952669e+19
4.882474268e+19
4.406511746e+19
4.050650123e+19
4.45151229e+19
4.733852572e+19
4.743657443e+19
4.63642204e+19
4.160160138e+19
4.047075929e+19
4.115378088e+19
4.694692059e+19
4.647298565e+19
4.074558181e+19
4.140490661e+19
4.465558959e+19
4.731802877e+19
4.315851005e+19
4.133554181e+19
4.53905609e+19
4.965664468e+19
4.845688303e+19
4.884946559e+19
4.877347611e+19
4.385685731e+19
4.633041583e+19
5.520093708e+19
5.414226858e+19
5.674054275e+19
6.054009863e+19
6.008350391e+19
6.232037041e+19
6.219521375e+19
6.552511721e+19
6.946412804e+19
7.862960891e+19
7.750218312e+19
8.349538628e+19
9.734936555e+19
4.523161971e+19
4.343807894e+19
4.274284114e+19
4.201656992e+19
3.59508629e+19
3.832585448e+19
4.00590284e+19
4.565852542e+19
4.404269292e+19
4.128981237e+19
4.486780409e+19
4.088258598e+19
4.583130445e+19
3.947680539e+19
4.081491663e+19
3.877343674e+19
4.510144185e+19
4.022387153e+19
4.730515872e+19
4.508240057e+19
4.56084356e+19
5.216997935e+19
5.123638992e+19
4.937019593e+19
4.917346322e+19
4.879705503e+19
4.851605335e+19
5.302262756e+19
5.703674785e+19
5.968573349e+19
5.990919776e+19
6.087896071e+19
6.16249505e+19
6.38141781e+19
6.871017692e+19
7.622101765e+19
7.441681218e+19
7.411792978e+19
8.414460666e+19
9.789067108e+19
4.351766739e+19
3.914478044e+19
3.791122598e+19
3.738599822e+19