/*--------------------------------*- C++ -*----------------------------------*\
  =========                 |
  \\      /  F ield         | OpenFOAM: The Open Source CFD Toolbox
   \\    /   O peration     | Website:  https://openfoam.org
    \\  /    A nd           | Version:  7
     \\/     M anipulation  |
\*---------------------------------------------------------------------------*/
FoamFile
{
    version     2.0;
    format      ascii;
    class       volScalarField;
    location    "0.001";
    object      translationalT;
}
// * * * * * * * * * * * * * * * * * * * * * * * * * * * * * * * * * * * * * //

dimensions      [1 2 -2 0 0 0 0];

internalField   nonuniform List<scalar> 
2400
(
273.1734453
282.7442741
337.6693256
360.1058635
376.4604777
380.8613883
399.4459359
395.0987522
379.171895
387.5489938
431.8985961
466.4204894
462.2005903
511.6996289
494.7290755
505.0796997
530.8910829
493.6577416
536.0009726
593.4697333
279.7804223
305.9375686
339.0393948
331.3105661
374.3361793
396.0396618
434.5297754
439.2515971
482.2422945
454.3279553
507.4332736
530.2183654
573.7290448
537.5904458
587.5623835
636.142437
580.4558658
639.0700306
706.1774608
677.6069351
298.7795194
316.4591881
331.7046687
354.1302319
390.266403
411.090339
448.5278319
473.7790748
491.6152537
509.241337
545.7182083
525.1277222
552.0805022
600.1420905
602.8848779
682.6921584
640.3601657
670.3104408
762.6706594
761.340265
281.1595435
278.9673871
327.1252424
356.7176235
357.6308425
414.2357209
443.8440432
490.0251522
478.0020082
512.0907836
584.150952
558.4183479
584.8840889
635.3543467
661.9549953
662.8749628
729.1089714
740.5594169
790.6556623
837.4397412
282.5026333
286.919274
318.5118124
375.20096
366.333133
396.0059725
435.0107868
474.2106129
458.2450549
539.7687588
591.176663
601.3859297
614.0443281
621.7061083
671.0944236
642.5802688
739.566521
767.0703661
860.525243
899.0053439
282.5959702
294.275411
309.214239
326.4133009
354.5127602
381.6213929
437.0297511
468.8600229
446.2103726
498.5088361
539.4409522
584.5934428
607.4879946
614.4329081
660.3562509
671.1167935
694.8470772
708.2635232
826.3765976
865.8715974
293.6379281
316.708177
366.7005119
362.7981603
432.8852493
464.0568182
443.2929279
468.2395918
472.9995561
550.3745274
545.6035095
525.1815444
612.8865339
610.1707841
699.9220811
710.4775291
715.4396206
780.3293644
823.9522692
879.45348
302.5834837
320.5088667
352.0193626
351.2627233
361.0196656
387.177288
422.6257315
472.4042614
516.4496319
551.0091035
584.8873277
577.469218
620.0460096
681.4799871
706.6710906
670.1366544
743.3621219
757.6027878
798.584017
843.2592301
297.3701847
319.0397075
365.6083898
372.4570647
391.7936071
389.3486962
435.0828381
505.9629901
520.3648102
544.804599
554.5449484
584.5250093
572.5413144
654.3305306
622.1051908
672.7881712
754.0799731
763.9398275
809.4472288
854.1980804
297.0342453
330.1163109
345.2309239
405.4341646
422.2626694
429.9520041
470.0981704
481.8800879
544.9906332
530.5814749
566.2842346
577.7797342
622.3349462
663.0945514
688.098202
709.0965708
740.503171
721.0315315
735.3515076
782.4815111
303.8645405
346.4348012
368.5436401
406.5481842
402.6060403
441.2263491
419.4969123
481.3935326
533.071092
550.7585072
608.4062704
597.3299622
622.811402
659.4649839
671.4382791
696.4866598
758.6148088
776.8972947
793.4031817
786.5813839
289.7167453
319.1274147
375.2900933
418.7887525
444.8300186
459.9838991
444.5285621
467.8878399
549.9953431
562.0646376
602.7207628
650.2763166
658.1459352
638.8445218
684.799078
698.6239125
768.009646
824.3083781
783.7294442
807.3975592
264.3831643
311.9716412
349.2351743
389.908438
446.2350757
472.9734321
535.958936
494.709078
563.7101872
586.28935
564.4081594
640.4208207
747.4470762
767.5846423
823.1132803
785.7935869
794.3181339
789.490024
792.3118807
805.9049829
280.439245
339.7673539
370.3898275
393.25999
412.9743031
431.454791
457.8392298
556.9235442
541.1274348
593.8719203
561.453122
583.7923375
681.360766
770.2075325
732.2603243
772.5859491
808.0813959
828.0889443
789.3833285
788.8687353
310.2174461
342.9828066
365.459293
416.2132338
427.7963303
452.4515408
446.0200849
492.6293322
555.1271899
569.5446362
559.058036
623.2695326
632.9099757
762.779056
687.5871701
717.6311182
713.6554817
757.5643603
798.2534305
856.8872355
279.616349
308.383094
378.208403
402.8921079
440.2572968
454.2053034
472.8937227
519.2128378
514.758751
573.3862435
587.9430341
561.2960558
578.5476869
654.512703
732.7787125
766.3748429
779.9866632
753.7387528
809.7976103
869.8154922
302.9785845
367.4285687
362.4072676
367.3485392
394.8403815
456.6192219
513.8903147
538.5961817
566.3578546
640.4493943
627.1253116
614.481577
618.4037765
713.2323169
719.0495715
787.806833
827.8555296
776.1579199
821.8126381
891.1984865
269.8312114
334.056111
364.0632857
387.2815566
440.3292752
468.1923689
524.5149352
543.225726
526.4502592
550.1024618
602.4695938
657.699284
649.5171983
724.6617244
805.6038795
746.9738942
773.856216
809.522459
802.8374877
824.1596066
270.2673411
321.4186513
343.5138457
365.0875575
399.2750568
483.4403526
474.236275
538.1647025
566.7606395
555.5774943
567.8272224
635.9670079
660.4721647
676.4935151
718.7440304
705.8092618
730.7906465
839.2479442
857.071295
853.5514871
269.690387
313.1860282
349.0743918
395.9654679
427.0404153
453.5772957
480.9426823
528.5985759
508.8256422
624.5340138
636.4548735
627.8282437
693.3586764
739.8913762
759.0800685
790.113788
774.7979204
822.4385385
819.564615
863.8004126
281.2072623
316.5447447
365.9544915
395.6896726
413.4170336
459.4315091
500.3592456
536.9083192
533.7045634
590.7001717
646.8750708
625.9372658
699.0734726
755.7793849
845.2845064
834.8607482
783.3046121
876.4879859
964.2268373
873.8218807
310.1353784
333.9050407
346.2560196
411.3649908
381.178822
482.0231387
549.8329753
576.88625
604.9889211
677.7860853
650.5205404
679.5409332
722.3579777
732.3017865
798.9933286
811.7780656
808.5926722
816.6299145
873.49534
916.2338192
322.9748674
357.2722997
380.664596
421.4222892
443.7504408
454.9168618
476.654621
532.3248862
564.1203596
627.0574925
650.5591739
647.9636144
669.1635868
682.3861124
648.8196649
773.1995327
846.2871006
798.9273299
782.1370496
865.1250766
278.7903552
338.8251478
344.6495975
383.5273498
472.978605
463.6458053
479.8738001
510.4919898
524.8485704
621.3258644
656.8427956
663.5379368
665.9490223
712.6557909
680.9422675
733.4973116
755.6426958
801.8433972
866.7071963
936.2939813
314.5286352
326.9468334
347.9185255
373.7815732
392.9962082
418.6190956
487.2811489
535.8838985
569.7348991
618.0248682
600.2415403
629.7295704
701.15566
749.0426339
656.6741969
705.5703392
781.05921
766.005146
849.4568886
858.2572876
273.437067
303.5195296
390.0520374
393.9429789
402.5638106
402.6307428
466.8045275
576.3151971
577.8969677
583.9258913
602.0441274
635.7934344
676.272687
690.1399354
710.6798487
784.1219881
785.7524176
841.6890991
853.7738737
861.701689
280.309592
332.8636548
376.4329013
431.0609236
435.2316136
470.1210516
507.0772356
552.6089063
548.0902736
592.1913835
578.6908112
628.9029581
675.7295002
715.7541106
772.4943076
764.8808453
747.2337995
776.3677249
748.1821624
806.0493878
280.5977001
331.5242788
339.1318403
405.9615963
432.129094
432.6507946
495.9800058
523.8556615
552.7929533
626.5426098
620.3575455
629.4227433
636.2151127
658.1106176
717.4128702
748.8749902
804.4287465
813.633162
820.9397893
819.7979983
301.257298
294.2468273
318.2640436
372.2920394
400.2633016
453.5879
465.7585476
522.3704971
559.2443233
543.8032625
545.8440169
585.7004235
689.3982649
720.3886463
706.6167783
717.7354793
728.7683463
789.3854523
826.2647915
864.9147242
298.9014204
327.2143618
363.5350465
391.2229771
445.9544968
449.4149871
454.8134514
506.1703028
488.4348745
511.5312054
562.8541358
620.7895077
660.8827673
659.504883
688.5275175
739.5798223
779.4878971
786.9467301
838.0809076
822.5296833
301.8721845
304.2439797
350.2971205
368.8431191
394.46041
439.5367792
439.2113624
466.9659788
483.8737982
597.4932734
596.8828514
656.4919777
671.3588319
687.355949
711.0214908
757.9351643
737.0667679
744.4420067
821.4672055
812.224156
291.4862752
299.6495461
341.5077319
397.0875129
426.4021726
486.7706786
481.7810519
465.4899596
515.3813841
560.4532095
592.3321115
654.1623931
637.6393343
738.9723267
726.8296277
718.4426403
709.0115529
755.6726967
770.3356732
761.559479
314.3166241
335.0759049
345.3633393
383.9838111
444.7213447
466.0432222
424.0900562
425.5400703
475.2767166
533.6930442
604.5163573
634.4225996
650.9497064
682.5900092
648.967736
714.3111785
714.8567119
721.1864063
766.7143984
803.1839817
310.3325424
329.680513
351.7868312
378.3016067
417.7266054
442.2136139
419.9982722
503.5526736
492.0069101
550.2617222
536.5233206
542.277569
606.3544631
645.214109
686.9775478
665.976894
687.9505562
723.7458481
772.9995491
785.1539701
295.2560884
325.1514986
355.811025
360.618055
371.4664808
420.8602445
429.5329132
492.874939
537.1074586
558.2829848
596.8631778
665.4712344
686.2967633
664.8876093
661.5670052
730.7815443
752.2684519
745.5925818
814.0137694
836.9992568
265.2742656
312.3102019
332.5404167
329.2908704
394.4702511
406.576305
432.5347638
463.9875953
478.4000631
503.1574663
549.3446169
597.2852941
630.1891013
653.0838269
718.7878893
706.1686972
712.7706048
740.1372288
772.0553707
752.0431308
271.0106504
307.2784815
325.5554474
382.3161952
370.9249346
425.0879942
422.7910465
459.8672389
489.9344319
573.2543223
523.8505993
617.5739347
583.6266923
589.3334435
642.1261935
684.7559076
650.8022645
715.2467584
692.490051
669.2727057
306.7777997
319.6939985
341.8186948
374.2957866
392.0494401
400.0195294
420.1727711
430.4648924
475.2555914
524.8876644
511.2954773
563.7000459
556.7297008
592.024267
635.7725479
611.6879254
660.2394036
678.928592
656.5258865
682.423439
288.3173058
286.3471964
329.8516193
362.0291975
392.9420745
375.4926653
424.119366
464.2437151
480.455257
484.6890829
489.9217977
518.4295332
523.1068454
597.3004573
584.339944
574.4997534
670.4812819
644.53619
669.6135108
709.443784
288.789883
277.2880263
316.6267043
332.8075345
383.7075572
387.4176568
396.2447883
443.4245179
430.514586
508.9697707
453.541607
478.3654944
451.6928094
520.4011588
479.8459741
497.9167328
509.6138475
520.5472664
521.2407546
525.4633049
807.6279095
917.206765
926.1299304
921.247917
891.9766936
893.7641206
881.6525927
917.6528442
944.0082427
937.7699367
948.4757474
956.2254662
1013.924093
953.5992177
928.7237275
961.0650519
938.2415806
940.5535988
925.0081213
990.8716432
959.9421214
971.3619209
970.8052084
917.8882017
914.7274097
952.6514585
971.573668
963.4635105
881.1205205
906.8784713
976.3358635
969.6328784
915.6535352
834.0074699
868.760895
909.7851492
893.5906604
900.1917404
840.7766385
797.6104743
812.9409626
924.0217071
928.420243
972.7061262
999.6532755
1022.804956
1094.631846
1118.521726
1087.712699
1091.374098
1062.680476
1020.925615
1050.195111
995.9266953
1135.103905
1135.412252
1067.026435
1083.297801
1058.895858
1082.258988
1073.245633
1035.346608
989.6327968
1067.255819
1063.4246
1058.921232
1061.509637
1068.079159
1013.34644
1025.067579
1040.730044
1043.897249
1020.521967
1066.564755
1039.099448
984.3769046
1055.5731
1067.872692
977.0944909
897.2014841
848.7529549
957.50573
994.2880937
1021.261451
1042.089893
1089.610549
1068.03588
1112.31217
1159.274747
1124.077655
1138.735445
1201.763659
1159.44937
1095.18756
1119.68896
1128.38394
1092.759119
1147.419429
1098.299479
1111.198797
1126.053042
1124.954861
1108.02626
1094.409463
1130.874604
1157.679634
1168.393
1160.625107
1121.506611
1096.706458
1132.084611
1138.68151
1132.395128
1025.975909
1057.083407
1071.76889
1050.707889
1097.959321
1066.652298
1006.737817
917.6738787
967.7800291
991.4423628
1085.218887
1024.259859
1002.627591
1099.851492
1163.782673
1170.34225
1207.261246
1100.342132
1122.596504
1119.663834
1171.147206
1178.038231
1169.38621
1192.529944
1184.697531
1137.472838
1117.669492
1147.749653
1158.429604
1177.489736
1235.081116
1214.04585
1179.764419
1155.081659
1153.844159
1159.539215
1179.194852
1165.139452
1171.806747
1185.051097
1149.582899
1160.720212
1159.713964
1137.551695
1136.166099
1109.606704
1026.036785
899.5883579
1034.768209
992.3330849
1050.305519
1077.795892
1102.638034
1150.133158
1127.649773
1120.430317
1146.555554
1140.87807
1141.92785
1164.646141
1164.049156
1170.347261
1121.781009
1111.936228
1156.686793
1154.498181
1143.132311
1195.603505
1188.539334
1203.074234
1204.722848
1228.316735
1213.332807
1137.080662
1155.361457
1166.677054
1142.853366
1125.623487
1125.949897
1140.132271
1124.30667
1169.294079
1157.199082
1151.350972
1124.087708
1107.874496
1057.29136
887.2694434
919.5103497
945.9915093
1014.225099
1013.356347
1030.235144
1087.927727
1160.531062
1135.764474
1082.573667
1122.319964
1157.518049
1159.71135
1183.888021
1133.86342
1145.462891
1203.51212
1176.694001
1240.733521
1180.043256
1236.703579
1205.574307
1187.728475
1190.378619
1208.752441
1226.711304
1215.812442
1211.591124
1212.09244
1192.968846
1215.629748
1196.770441
1158.921102
1169.562272
1180.336716
1202.19517
1154.537533
1126.568271
1131.961064
1128.864877
840.3731806
920.9578454
960.9595794
994.4156338
1070.153198
986.9611685
1014.766996
1064.228701
1058.630817
1066.094455
1126.186535
1124.005031
1125.131184
1147.222183
1182.623038
1190.731595
1192.406551
1290.593623
1257.74561
1232.357688
1188.611395
1211.139987
1185.522918
1175.571931
1263.40772
1250.413619
1222.364149
1276.523473
1236.900509
1186.873845
1192.930956
1181.948689
1245.013999
1249.532175
1222.636094
1237.917334
1175.455799
1162.941662
1179.076527
1128.257408
931.5953763
979.9746045
942.3930443
943.338096
948.2043134
1017.278156
1093.466575
1099.326802
1087.5234
1128.72277
1183.660682
1156.312306
1078.112671
1167.608176
1160.515454
1154.177853
1169.126199
1210.685057
1305.783478
1243.677615
1225.280151
1239.856963
1199.65787
1245.477369
1240.253777
1291.204403
1215.094079
1211.288133
1214.249976
1257.8535
1226.246039
1252.996637
1269.59539
1213.987423
1238.285958
1217.590802
1217.536934
1205.041473
1173.239693
1106.333409
922.8998861
875.5853368
920.1266292
901.682041
995.4301397
1024.216498
1031.810781
1048.57059
1068.629622
1070.572041
1022.976162
1072.512506
1119.828652
1130.163094
1106.76652
1178.094404
1235.304551
1213.841453
1202.710265
1223.017891
1241.903979
1229.803279
1269.270535
1235.360175
1223.36695
1262.08339
1311.911832
1255.045608
1239.067672
1199.238171
1232.312449
1217.127827
1292.031741
1270.813122
1266.875798
1228.475387
1264.440613
1246.606626
1163.17968
1115.132309
858.0910356
831.3100258
922.5376323
973.4738632
990.3413397
917.0612672
993.6654574
1022.486123
1063.931925
1090.268014
1161.959642
1211.953578
1119.10081
1189.445855
1242.100929
1263.238109
1211.310326
1141.928368
1156.219807
1182.530685
1229.434438
1213.018229
1219.08866
1215.12953
1258.822522
1253.695287
1242.004546
1250.317011
1239.95498
1246.332759
1252.837481
1260.482295
1260.069412
1261.377037
1256.843227
1243.219177
1278.656174
1231.27759
1171.555582
1166.89292
823.0486429
826.9927572
889.2283248
903.8323386
990.462164
956.9800802
1059.154651
1090.394952
1135.782631
1157.903266
1135.976305
1090.998295
1113.796739
1176.959861
1156.141789
1159.84555
1189.283873
1243.477982
1243.621437
1249.281711
1251.761047
1239.662614
1196.080003
1220.302512
1180.835389
1226.09217
1241.69322
1261.879586
1242.394095
1297.207269
1271.28208
1294.557614
1311.51766
1289.793391
1256.651961
1235.266899
1252.298018
1288.408303
1267.625622
1138.410599
780.4379036
836.0874286
907.7252364
983.2906617
1003.146976
1049.732192
1069.448897
1078.700088
1127.299336
1103.650079
1088.88169
1138.098153
1069.686598
1134.557643
1190.078987
1207.131422
1226.16102
1174.513613
1179.6647
1239.821185
1226.667586
1180.643007
1217.087343
1240.166458
1187.042145
1226.972746
1238.993797
1271.587462
1317.703125
1284.858049
1335.851837
1292.567421
1303.149356
1305.234775
1257.42547
1251.352004
1233.60518
1219.079884
1240.558547
1194.320516
865.833847
911.0667094
957.9067258
908.5224246
945.9869277
1017.956308
1043.416859
1131.155282
1049.704277
1110.489043
1075.192456
1111.706688
1105.95108
1145.896004
1232.570495
1263.746561
1250.401576
1271.447794
1267.976459
1175.343978
1219.816599
1274.209713
1249.604417
1263.912672
1272.100495
1233.803048
1237.513113
1291.831919
1306.423141
1283.086955
1363.831055
1333.03238
1264.533438
1249.81517
1223.49348
1194.322387
1225.714509
1223.73339
1197.05873
1156.415587
822.3627537
838.034866
960.2011484
1005.808052
993.8704903
995.5490511
1011.910349
1008.788018
1087.569962
1066.690335
1077.592631
1133.010455
1145.270606
1156.957027
1162.354007
1220.456205
1262.194337
1212.21261
1253.869417
1224.397168
1232.267045
1210.234704
1193.833282
1246.877217
1300.212913
1294.183407
1304.167012
1251.524717
1241.524005
1260.08978
1295.66969
1272.505774
1248.081866
1265.244084
1310.287531
1259.827721
1290.172339
1247.284007
1255.716063
1213.359046
866.9824617
809.2368515
870.8626165
991.19583
1006.491463
1056.855293
1096.112585
1079.819201
1100.688942
1165.277684
1138.321666
1115.375585
1120.442613
1167.57943
1237.142765
1153.806625
1188.772759
1199.973179
1237.799001
1196.457536
1174.977121
1249.925559
1200.30761
1223.686094
1232.442949
1283.32995
1238.933549
1247.978112
1260.94412
1217.943508
1252.220789
1244.954146
1332.42692
1319.204628
1266.307722
1272.606703
1256.110224
1224.222601
1246.515687
1212.23229
916.2769633
959.571728
917.0513914
973.3154038
984.3199419
1022.650825
1034.409562
1088.213355
1083.161752
1110.230295
1091.518044
1099.332346
1108.581315
1195.536278
1193.113148
1142.680168
1160.949445
1164.974453
1240.824735
1219.585639
1213.10357
1226.681187
1222.842408
1258.514305
1271.807383
1294.775957
1268.100054
1252.556853
1248.816677
1277.580381
1242.519792
1259.260771
1201.508746
1236.92643
1275.467877
1255.524179
1225.302281
1255.193207
1255.634332
1222.199338
916.7889755
918.7430856
860.3178854
922.1273508
989.9760919
984.0711159
946.6485881
990.5216958
1159.096063
1104.120213
1087.651184
1121.471019
1190.149636
1186.02337
1169.353954
1167.028205
1216.422821
1237.708224
1219.890179
1223.652572
1240.429727
1217.439495
1276.193721
1254.6333
1313.770297
1288.587573
1222.224897
1246.089562
1244.551385
1233.553414
1193.389084
1228.79443
1272.929314
1267.866623
1226.972314
1197.920963
1171.002281
1225.658567
1238.887315
1167.021189
861.1846662
900.3585904
916.6315703
973.2098896
974.026265
1014.78638
1031.313765
1086.558904
1094.699394
1098.867646
1125.769095
1189.07028
1172.843512
1145.626677
1113.628244
1222.271227
1199.481848
1260.872588
1225.166218
1245.301075
1253.550441
1322.446042
1288.466263
1236.460131
1246.357925
1227.18781
1238.623149
1258.463381
1256.873173
1210.226586
1228.201499
1246.644916
1165.755655
1178.588731
1216.708082
1219.676773
1233.159633
1257.2701
1228.607159
1188.906604
814.79052
953.4712511
963.0143161
1047.912789
1055.672172
1103.720585
1039.26975
1042.949479
1111.689214
1057.199038
1124.381657
1168.848234
1189.953244
1121.853901
1157.755925
1152.884455
1176.791783
1173.326332
1244.094818
1208.572418
1237.072702
1267.542778
1265.854247
1192.624801
1220.780737
1149.068523
1178.714037
1238.191386
1305.193196
1250.05314
1257.499098
1204.794021
1242.274088
1214.480774
1230.461598
1247.524467
1293.595228
1267.20141
1275.300208
1151.624155
889.0512422
864.5985538
925.6415779
978.1920296
942.2421539
1035.997767
1022.946338
1079.276796
1008.234376
1094.915228
1107.317034
1063.891492
1075.343334
1128.969098
1088.929464
1119.093186
1168.230375
1220.686689
1270.376782
1203.340135
1232.857922
1234.170408
1176.420231
1211.001246
1232.019492
1272.1566
1254.356177
1263.275299
1281.528628
1274.827869
1213.794176
1236.908795
1273.747858
1283.036719
1272.379971
1248.812412
1268.287466
1237.613348
1218.841208
1208.987256
892.095612
985.2315257
989.0341477
989.6107199
945.7854306
979.4150796
1045.396655
1033.363328
1014.59017
1045.186461
1021.936596
1104.988404
1074.759031
1047.997968
1109.134287
1105.208632
1138.505352
1170.109313
1260.454218
1200.03552
1168.42809
1236.409949
1205.856399
1207.563266
1245.360511
1256.664996
1324.3076
1305.040451
1287.752899
1305.482751
1282.976834
1331.924401
1306.453504
1288.448915
1251.787504
1278.430602
1262.013425
1225.456213
1199.136247
1172.797421
946.9036032
970.0943131
991.0505394
940.0634066
957.3273453
979.1533108
1030.254542
1012.577011
1033.18715
1072.93277
1117.01043
1101.236466
1063.717441
1069.9503
1090.965257
1145.503793
1179.332755
1300.584311
1257.118977
1211.28726
1229.43861
1251.447651
1262.164185
1252.301714
1243.55115
1284.638083
1289.486065
1255.95827
1266.177246
1187.819884
1222.000952
1259.523041
1227.963568
1263.439404
1281.626418
1258.527664
1220.373196
1190.192629
1204.458131
1101.644113
860.7953365
931.0751008
884.4013308
883.0648627
918.1104527
971.824475
954.4004843
1001.786371
1036.391407
1057.94666
1122.070046
1080.780186
1103.917341
1070.957336
1150.835145
1147.115166
1172.538092
1195.611125
1193.010811
1218.801788
1222.973744
1241.493295
1262.139518
1264.947508
1275.378851
1281.446769
1259.811172
1239.144575
1246.246672
1244.230735
1228.221078
1218.114814
1275.775349
1243.650981
1279.943221
1239.710699
1226.509757
1223.783093
1201.578018
1128.051303
937.2231391
915.2875836
889.9694318
872.8673428
915.9648891
937.4236455
1033.64149
1026.327
1054.292381
1072.163836
1125.968093
1090.877531
1115.746337
1103.440723
1132.144747
1155.920288
1104.929253
1155.626477
1196.973257
1233.228177
1192.813591
1211.131153
1198.69837
1302.189855
1320.20526
1286.092531
1268.290266
1282.436543
1291.433414
1262.419593
1275.464943
1305.571101
1321.015627
1214.993996
1263.455341
1273.325183
1225.212406
1190.680552
1241.399511
1145.065116
893.0108825
879.2898092
839.5640495
956.932744
1000.363617
943.7685725
942.083065
972.871202
1007.371283
1154.842597
1193.936595
1156.803471
1153.05806
1107.812546
1173.360188
1164.105516
1194.485162
1149.262751
1188.791199
1216.862571
1237.79201
1193.314363
1207.383231
1229.117381
1211.589255
1285.824604
1311.093379
1294.076639
1230.951871
1272.267778
1237.088726
1214.414233
1260.124097
1277.711213
1287.829244
1191.024316
1146.633914
1178.514142
1155.131581
1138.937656
853.2507283
865.9373192
901.0482129
896.7736548
993.1770932
1007.230152
1038.491267
1033.394825
1027.4118
1046.924019
1028.271268
1140.293043
1068.562953
1143.937932
1150.442553
1180.544311
1147.079943
1192.906191
1148.147208
1218.519056
1200.273161
1116.200696
1195.34608
1204.469319
1217.470319
1256.480141
1265.26896
1202.467102
1236.129282
1236.44335
1223.045008
1191.003676
1220.89795
1297.529295
1280.416059
1167.159548
1204.444405
1200.68802
1142.647628
1112.187222
828.7661774
871.4059576
919.0359835
958.9076227
895.059406
922.8795129
979.1116799
1050.408329
1034.051691
1024.4492
1023.140239
1055.033546
1082.797514
1127.799524
1124.90943
1139.884671
1098.275319
1143.217762
1120.89648
1138.041307
1135.473343
1115.245448
1164.272249
1166.280078
1203.624986
1220.857694
1179.908481
1253.329229
1221.626957
1263.176862
1239.188283
1243.112583
1271.834568
1256.791582
1240.357735
1175.098872
1164.630388
1177.893809
1123.39329
1088.654061
855.3276017
878.7654604
916.7765875
909.4744568
892.0984562
967.6932072
975.8946706
1084.631888
1040.690973
1077.724675
1081.047739
1089.828421
1106.954079
1097.703612
1095.314674
1100.761243
1072.940858
1171.03296
1076.305127
1104.194645
1136.48809
1146.079615
1226.594964
1141.394925
1162.199184
1225.770433
1196.128335
1195.658139
1225.38351
1185.413144
1174.548271
1250.96247
1207.909272
1170.355858
1156.287738
1149.439924
1132.590049
1182.18116
1172.139618
1164.114326
835.13743
911.8371542
898.4724922
927.9946481
933.9352518
960.8231541
950.8238823
992.6944626
1067.185241
990.3647696
1072.129391
1084.651645
1073.095
1052.572477
1141.279692
1122.054415
1113.045782
1141.482466
1167.404941
1216.553291
1224.466763
1253.295063
1229.939492
1166.601262
1235.211995
1202.729516
1235.540149
1206.889799
1209.085712
1263.686458
1229.463129
1237.244636
1261.062289
1230.394569
1210.696601
1158.372421
1138.214862
1196.977519
1162.842351
1150.096948
872.5442609
931.0844188
969.8172251
978.5926514
967.7737683
972.7129158
1000.135641
992.5978557
1047.247517
987.6013012
1042.896004
1058.963483
1055.271815
1067.268643
1103.848184
1088.470698
1128.830419
1139.017479
1097.505366
1147.798566
1148.834694
1111.941685
1129.878907
1171.65028
1147.619871
1241.078372
1221.496989
1145.222108
1202.120634
1199.48135
1184.059429
1122.541772
1161.374778
1179.484299
1170.515286
1137.829207
1126.148701
1143.445136
1153.483269
1128.860822
949.2636512
976.7885778
914.7443205
934.5103232
984.9728118
988.4524955
1009.757954
1048.56433
1042.467489
1002.837918
1104.498838
1062.214495
1105.902788
1083.618321
1087.808716
1094.853327
1098.688107
1112.992699
1156.728987
1181.811439
1170.263916
1167.392722
1160.914394
1184.681962
1213.526475
1233.639128
1150.359182
1145.767365
1227.400769
1210.695757
1169.794175
1155.479315
1118.850517
1211.406166
1171.702254
1161.554246
1181.747782
1201.403802
1118.797475
1100.09388
873.3236679
822.8779467
914.6764346
958.7154602
981.9671779
910.3681382
993.0415402
991.2773304
1015.233297
1011.391513
986.1312976
1069.961241
1031.040695
1060.091766
1035.647648
972.3583837
987.1708581
1112.402837
1164.228215
1125.331573
1168.783636
1134.897308
1151.248611
1206.642236
1174.857204
1136.247793
1116.580826
1142.67301
1174.963477
1181.428531
1110.852699
1129.569446
1090.842179
1146.618982
1196.944983
1202.847319
1199.512878
1142.991399
1060.999894
1039.380052
855.1204752
858.8568999
993.5329102
909.3159861
871.5133148
943.4110381
980.1254642
910.4275025
992.9909077
1020.033298
974.4988423
1038.291848
998.0447074
1023.076428
1052.875384
1007.443128
1092.583422
1144.926972
1096.955599
1102.730937
1145.020904
1144.201266
1213.322288
1206.018447
1225.433118
1187.604273
1120.222516
1152.878792
1140.026673
1065.832845
1076.397477
1101.464746
1082.640433
1125.908776
1147.486326
1100.999041
1136.096167
1055.683206
1072.906427
1051.715564
837.818307
875.4487098
870.8237282
912.88644
855.5573644
895.5106053
946.9103871
916.2945856
883.7477844
903.1927334
979.097697
1003.055884
1015.285026
1031.907011
1078.464231
1047.068984
1090.87435
1045.270588
1064.049693
1081.899324
1116.578224
1125.77682
1214.61522
1196.332188
1154.382588
1124.553947
1026.921701
1039.353871
1092.389982
1023.436136
1051.526844
1142.586573
1103.315253
1154.407916
1165.18881
1127.816286
1069.970514
1052.257071
1003.911237
1002.571804
904.1891443
878.2579648
846.1678928
883.2842655
841.1188736
862.256986
849.0880723
881.2019533
875.3082686
931.2808353
892.4456254
892.378679
939.1290786
1013.974965
1036.712531
1083.223071
1068.379718
1028.338446
1108.658885
1109.776515
1075.033929
1117.534969
1072.954773
1108.03368
1108.453434
1157.117538
1164.667792
1095.865187
1023.223614
1067.944438
1037.186086
1156.669322
1113.402925
1067.168003
1053.066482
1052.75779
1017.455854
995.5093772
1018.592731
967.6675316
830.8271602
827.1602158
776.7727242
803.7689329
858.9572147
870.1211426
889.5686851
892.1752707
944.045696
916.9710422
891.2333053
911.6625797
973.2052473
993.9796405
1039.426002
991.2415017
994.2718724
1048.50806
1008.186083
1003.654692
953.4071006
1077.633971
1052.12505
1040.23136
1056.346568
1033.562098
1062.194861
1082.78373
1056.089314
1065.955839
1010.554418
1016.273571
942.8863449
1009.622295
1051.500389
1097.877396
1052.454468
945.2446589
972.0319853
918.2532027
757.7633453
751.8952982
788.442129
773.522509
851.3369801
842.8125024
847.9571846
861.8234515
849.1723263
899.7227459
872.4232098
909.8050883
917.6729493
951.5375233
974.7308674
929.7661838
890.0054062
981.7763089
980.6146034
1037.369835
992.2595801
1015.14015
1041.267079
1062.039338
1042.147884
977.186024
947.7920067
988.744881
1032.511074
971.7144056
938.5444115
1033.209399
1012.967977
968.5242729
975.656762
982.6395626
939.6265054
925.902915
942.60623
860.8270567
732.0184349
710.7756952
666.1587548
691.3788815
757.8450549
822.204038
788.4974941
739.7331646
784.1242942
840.6242495
834.3045492
773.7783321
844.1547577
907.0350804
925.3909314
827.857194
864.778317
854.4277989
869.757684
956.1723608
883.7865841
884.9968492
950.8976512
887.2468621
936.5207588
888.8716476
897.9833736
913.4973431
871.7936944
874.890833
883.0444408
966.91742
955.5641068
951.2113825
943.4435887
912.1236411
913.7445042
883.3724935
873.9978584
851.4416796
741.5228689
719.1069831
719.9255528
683.4074559
714.7712854
735.9926306
775.8005494
749.992133
660.6343313
665.6384638
738.2407171
749.3882272
738.1854846
797.824195
772.0648281
788.2037994
825.3167136
772.5666375
776.0451921
791.596243
779.3870474
782.4485038
803.1244076
836.4789182
800.7989688
834.1680567
832.1051035
815.1565559
835.593737
834.6662213
775.6742324
836.175293
788.9436531
871.5538463
785.7914439
829.536644
853.6873501
794.197984
818.66765
723.4831141
535.9820231
548.9692429
570.3301668
548.003583
547.1508006
566.788816
567.1762257
576.7652579
565.126869
607.5347388
578.3462467
579.3720592
594.4513816
624.5932705
649.7554545
663.6792994
597.9474833
621.5058921
671.6195939
621.5062111
668.3870332
633.4385843
709.0153201
678.7762119
688.585957
674.3028346
630.2785446
653.1692519
650.6236255
714.4633559
672.0842757
697.6621752
659.2998331
691.5255635
696.7452922
682.512842
657.4748471
616.1308336
624.1454217
662.4085232
)
;

boundaryField
{
    flow
    {
        type            calculated;
        value           nonuniform List<scalar> 
160
(
273.1734453
279.7804223
298.7795194
281.1595435
282.5026333
282.5959702
293.6379281
302.5834837
297.3701847
297.0342453
303.8645405
289.7167453
264.3831643
280.439245
310.2174461
279.616349
302.9785845
269.8312114
270.2673411
269.690387
281.2072623
310.1353784
322.9748674
278.7903552
314.5286352
273.437067
280.309592
280.5977001
301.257298
298.9014204
301.8721845
291.4862752
314.3166241
310.3325424
295.2560884
265.2742656
271.0106504
306.7777997
288.3173058
288.789883
797.6104743
897.2014841
1006.737817
1026.036785
1057.29136
1128.864877
1128.257408
1106.333409
1115.132309
1166.89292
1138.410599
1194.320516
1156.415587
1213.359046
1212.23229
1222.199338
1167.021189
1188.906604