/*--------------------------------*- C++ -*----------------------------------*\
  =========                 |
  \\      /  F ield         | OpenFOAM: The Open Source CFD Toolbox
   \\    /   O peration     | Website:  https://openfoam.org
    \\  /    A nd           | Version:  7
     \\/     M anipulation  |
\*---------------------------------------------------------------------------*/
FoamFile
{
    version     2.0;
    format      ascii;
    class       volScalarField;
    location    "0.002";
    object      iDofMean;
}
// * * * * * * * * * * * * * * * * * * * * * * * * * * * * * * * * * * * * * //

dimensions      [0 -3 0 0 0 0 0];

internalField   nonuniform List<scalar> 
546
(
1.194605287e+20
1.16658878e+20
1.182552397e+20
1.245320032e+20
1.266048198e+20
1.294776612e+20
1.287104093e+20
1.284278926e+20
1.254957005e+20
1.219890852e+20
1.298048997e+20
1.368668906e+20
1.284722341e+20
1.261159299e+20
1.301709323e+20
1.328812364e+20
1.354078212e+20
1.364903401e+20
1.448014946e+20
1.383457967e+20
1.382459295e+20
1.394966085e+20
1.479105796e+20
1.534508378e+20
1.519300711e+20
1.477177068e+20
1.516606336e+20
1.765964574e+20
1.753177301e+20
1.90995069e+20
1.187875118e+20
1.187832357e+20
1.209418239e+20
1.179945892e+20
1.109121085e+20
1.104984717e+20
1.219522329e+20
1.223269174e+20
1.254242065e+20
1.239826063e+20
1.312331894e+20
1.303273423e+20
1.319404678e+20
1.188009084e+20
1.272210244e+20
1.311420852e+20
1.267415173e+20
1.358752878e+20
1.361439002e+20
1.351139055e+20
1.390345545e+20
1.43394347e+20
1.516284044e+20
1.576601452e+20
1.432187966e+20
1.587594545e+20
1.591716045e+20
1.550882732e+20
1.702933289e+20
1.83217376e+20
1.191240202e+20
1.151447081e+20
1.097173662e+20
1.237291629e+20
1.253336872e+20
1.164134583e+20
1.22750073e+20
1.264651758e+20
1.211822327e+20
1.210283521e+20
1.275051112e+20
1.223969198e+20
1.288165977e+20
1.170899372e+20
1.177463205e+20
1.3388944e+20
1.369580984e+20
1.335175876e+20
1.387024132e+20
1.336282781e+20
1.393500042e+20
1.353337179e+20
1.37479273e+20
1.563379909e+20
1.476016566e+20
1.525244377e+20
1.602248032e+20
1.616889642e+20
1.704626907e+20
1.650694258e+20
1.238575736e+20
1.165910792e+20
1.162972207e+20
1.164347852e+20
1.095947528e+20
1.141312981e+20
1.208962678e+20
1.207189084e+20
1.187037759e+20
1.17641768e+20
1.197584556e+20
1.217868872e+20
1.184118964e+20
1.216773237e+20
1.278460049e+20
1.396614057e+20
1.388895913e+20
1.392324478e+20
1.457577063e+20
1.417080063e+20
1.385088046e+20
1.366859946e+20
1.416785425e+20
1.452750677e+20
1.516850665e+20
1.56864229e+20
1.602248033e+20
1.684015318e+20
1.742168783e+20
1.860093679e+20
1.197297356e+20
1.070766686e+20
1.1620615e+20
1.078558627e+20
1.099645368e+20
1.11849138e+20
1.194413826e+20
1.173846545e+20
1.175360415e+20
1.231659832e+20
1.193469145e+20
1.266915487e+20
1.288411952e+20
1.173379041e+20
1.262710541e+20
1.241602751e+20
1.287238391e+20
1.314674137e+20
1.36040526e+20
1.360261328e+20
1.450281028e+20
1.392579713e+20
1.513341879e+20
1.512112705e+20
1.613491369e+20
1.545569979e+20
1.537670308e+20
1.682616869e+20
1.69277158e+20
1.884879744e+20
1.081538422e+20
1.118225743e+20
1.100133459e+20
1.112507305e+20
1.157193014e+20
1.120587241e+20
1.078257668e+20
1.090608434e+20
1.126506221e+20
1.149036786e+20
1.181122912e+20
1.132952349e+20
1.298496885e+20
1.278516976e+20
1.237461329e+20
1.248660177e+20
1.28723839e+20
1.331075527e+20
1.339471973e+20
1.299793687e+20
1.310431564e+20
1.39867822e+20
1.461452824e+20
1.491066168e+20
1.54979016e+20
1.507116135e+20
1.664331341e+20
1.719535986e+20
1.778581572e+20
1.750123361e+20
1.088268591e+20
1.092914245e+20
1.08920498e+20
1.112507304e+20
1.120676837e+20
1.133395283e+20
1.112987186e+20
1.047807019e+20
1.153912233e+20
1.144713487e+20
1.202184134e+20
1.163697989e+20
1.201091172e+20
1.277029177e+20
1.291959626e+20
1.30285112e+20
1.305536744e+20
1.317749396e+20
1.242300172e+20
1.309437243e+20
1.320683695e+20
1.444019263e+20
1.447009471e+20
1.480003255e+20
1.51821182e+20
1.448062026e+20
1.590330264e+20
1.632831992e+20
1.658052412e+20
1.846133744e+20
1.030613463e+20
1.043873222e+20
1.172762303e+20
1.127875963e+20
1.089707421e+20
1.157381252e+20
1.154287153e+20
1.026997491e+20
1.113875626e+20
1.173055114e+20
1.170713343e+20
1.204692171e+20
1.202567016e+20
1.216277303e+20
1.316708857e+20
1.212112799e+20
1.266398596e+20
1.217547131e+20
1.272278697e+20
1.179900941e+20
1.302019555e+20
1.468148095e+20
1.370245741e+20
1.449782575e+20
1.5043282e+20
1.484318484e+20
1.538501767e+20
1.557315596e+20
1.562362958e+20
1.892287053e+20
1.050355298e+20
1.039353312e+20
1.161833823e+20
1.187056763e+20
1.16019751e+20
1.10847782e+20
1.168366687e+20
1.143105198e+20
1.060016855e+20
1.121896076e+20
1.1527992e+20
1.178826795e+20
1.158783641e+20
1.189744854e+20
1.191212777e+20
1.192452818e+20
1.225227299e+20
1.176287388e+20
1.201984206e+20
1.226554855e+20
1.277835071e+20
1.415913123e+20
1.415715551e+20
1.440068789e+20
1.509228292e+20
1.553535422e+20
1.595873416e+20
1.669751112e+20
1.806808545e+20
1.988582317e+20
1.041381736e+20
1.042743244e+20
1.092847806e+20
1.182239721e+20
1.128072518e+20
1.101957361e+20
1.1094673e+20
1.157529986e+20
1.038330358e+20
1.180740974e+20
1.13682173e+20
1.182486988e+20
1.13221844e+20
1.154285596e+20
1.160463733e+20
1.236561735e+20
1.270464907e+20
1.206271184e+20
1.230153692e+20
1.263304597e+20
1.357749052e+20
1.411405522e+20
1.459313064e+20
1.421990353e+20
1.51276726e+20
1.60874416e+20
1.554854078e+20
1.685134079e+20
1.792130519e+20
2.011089176e+20
1.021191224e+20
1.023307629e+20
1.174356033e+20
1.143015234e+20
1.148872872e+20
1.12105299e+20
1.131994562e+20
1.159894708e+20
1.123408152e+20
1.152879716e+20
1.07775347e+20
1.161989896e+20
1.126315072e+20
1.109651566e+20
1.251960883e+20
1.214381256e+20
1.222685851e+20
1.186025705e+20
1.224984979e+20
1.230464401e+20
1.239455331e+20
1.354662948e+20
1.387631264e+20
1.388531757e+20
1.447160461e+20
1.533759158e+20
1.628300854e+20
1.617728716e+20
1.866367475e+20
2.094564087e+20
1.007506547e+20
1.018109739e+20
1.106963763e+20
1.044839337e+20
1.110507774e+20
1.06143737e+20
1.038834964e+20
1.087534288e+20
1.132940669e+20
1.141831294e+20
1.093730964e+20
1.185659166e+20
1.110080786e+20
1.071216707e+20
1.181463077e+20
1.221690732e+20
1.228022891e+20
1.121701502e+20
1.209995711e+20
1.305006409e+20
1.207647453e+20
1.243564126e+20
1.349650585e+20
1.385563656e+20
1.408504206e+20
1.517004281e+20
1.577581015e+20
1.609617697e+20
1.756846803e+20
1.988012505e+20
1.024556306e+20
1.016075769e+20
1.017714517e+20
1.07075961e+20
1.045333333e+20
1.072149558e+20
1.059250304e+20
1.119458012e+20
1.07693709e+20
1.130062305e+20
1.127380483e+20
1.147349107e+20
1.035550648e+20
1.061793968e+20
1.112965217e+20
1.166743626e+20
1.206420657e+20
1.206271184e+20
1.212838503e+20
1.368601699e+20
1.206070224e+20
1.230571686e+20
1.260048358e+20
1.348057648e+20
1.47274983e+20
1.527167056e+20
1.527138319e+20
1.697999833e+20
1.715917692e+20
1.899124585e+20
1.139193546e+20
1.006583965e+20
1.016348458e+20
1.067777624e+20
1.099645367e+20
1.110340803e+20
1.074972435e+20
1.166042969e+20
1.174883791e+20
1.161045947e+20
1.122780906e+20
1.068288905e+20
1.050309089e+20
1.133208406e+20
1.139714381e+20
1.178085926e+20
1.238188633e+20
1.224979012e+20
1.231187434e+20
1.35687305e+20
1.245238569e+20
1.254170227e+20
1.297494075e+20
1.376119697e+20
1.5541458e+20
1.446413991e+20
1.468658068e+20
1.621084985e+20
1.657205588e+20
1.939010208e+20
1.05529076e+20
1.103762039e+20
1.041620571e+20
1.022359808e+20
1.032853128e+20
1.114066787e+20
1.155695106e+20
1.149962888e+20
1.122931526e+20
1.188426841e+20
1.08840513e+20
1.07780542e+20
1.106883124e+20
1.130232813e+20
1.214212063e+20
1.238830194e+20
1.29206712e+20
1.246762122e+20
1.180275621e+20
1.36208579e+20
1.289138694e+20
1.317276478e+20
1.293482034e+20
1.376389524e+20
1.476288798e+20
1.49997472e+20
1.564000293e+20
1.67674337e+20
1.644503465e+20
1.791718366e+20
1.049457938e+20
1.042743238e+20
1.04048218e+20
1.018230915e+20
1.024532979e+20
1.04094451e+20
1.09679573e+20
1.113782686e+20
1.203958004e+20
1.190108133e+20
1.097604275e+20
1.125387937e+20
1.073676621e+20
1.119818206e+20
1.161963686e+20
1.180606435e+20
1.234884773e+20
1.330050445e+20
1.242558603e+20
1.220560228e+20
1.224997219e+20
1.296064297e+20
1.37131563e+20
1.321884391e+20
1.35160867e+20
1.467563594e+20
1.642713034e+20
1.628077257e+20
1.728902099e+20
1.057309803e+20
1.066020782e+20
1.088749633e+20
1.126958433e+20
1.028461935e+20
1.024643358e+20
1.08881731e+20
1.205060824e+20
1.090997557e+20
1.123577365e+20
1.151588799e+20
1.15100932e+20
1.083023643e+20
1.107915798e+20
1.14071435e+20
1.157417742e+20
1.225227299e+20
1.357215252e+20
1.251086979e+20
1.271905587e+20
1.226048698e+20
1.389397872e+20
1.44219501e+20
1.423879157e+20
1.064937338e+20
1.199358128e+20
1.050499944e+20
1.062272433e+20
1.179148942e+20
1.043971866e+20
1.123077527e+20
1.156584101e+20
1.182033185e+20
1.185064275e+20
1.147473371e+20
1.116359465e+20
1.113770396e+20
1.192720454e+20
1.193462711e+20
1.176069528e+20
1.329172116e+20
1.297760192e+20
1.274087752e+20
1.080865408e+20
1.150317104e+20
1.129959102e+20
1.14232709e+20
1.156961898e+20
1.118258501e+20
1.144666129e+20
1.127261576e+20
1.168449336e+20
1.220371216e+20
1.165145438e+20
1.159549766e+20
1.113770388e+20
1.243305688e+20
1.17037667e+20
1.192352259e+20
1.142708985e+20
1.099203096e+20
1.185851287e+20
1.234695256e+20
1.224684824e+20
1.151145248e+20
1.096120462e+20
1.02782755e+20
)
;

boundaryField
{
    flow
    {
        type            calculated;
        value           nonuniform List<scalar> 
15
(
1.90995069e+20
1.83217376e+20
1.650694258e+20
1.860093679e+20
1.884879744e+20
1.750123361e+20
1.846133744e+20
1.892287053e+20
1.988582317e+20
2.011089176e+20
2.094564087e+20
1.988012505e+20
1.899124585e+20
1.939010208e+20
1.791718366e+20
)
;
    }
    obstacle
    {
        type            calculated;
        value           nonuniform List<scalar> 
30
(
41.94547065
48.36339151
45.57412711
51.45682126
48.20644976
54.25486419
61.36646456
50.34634688
46.20025676
45.41748941
47.12319577
56.85981261
56.74352076
62.79551727
52.38759646
46.96524305
59.99031395
67.10167474
62.61247491
56.73431859
54.29190798
57.42787982
58.55263173
73.93691054
60.92584967
56.43741149
64.94497843
67.71014322
74.52858574
69.9023192
)
;
    }
    frontAndBack
    {
        type            empty;
    }
    procBoundary1to0
    {
        type            processor;
        value           nonuniform List<scalar> 
21
(
1.141594273e+20
1.110415342e+20
1.126895634e+20
1.17032343e+20
1.163196818e+20
1.069882733e+20
1.050061841e+20
1.033581549e+20
1.070328146e+20
1.062533413e+20
9.808000737e+19
9.284640156e+19
1.014428777e+20
1.044048754e+20
1.007524871e+20
1.012869831e+20
9.937170592e+19
1.035140496e+20
9.963895461e+19
1.125113981e+20
1.103066023e+20
)
;
    }
    procBoundary1to3
    {
        type            processor;
        value           nonuniform List<scalar> 
36
(
1.853541054e+20
1.534817687e+20
1.526892413e+20
1.587558688e+20
1.616889645e+20
1.853541054e+20
1.740475158e+20
1.333155139e+20
1.291241693e+20
1.335837137e+20
1.339754241e+20
1.534817687e+20
1.360469708e+20
1.216211991e+20
1.208332024e+20
1.311890337e+20
1.191407422e+20
1.333155139e+20
1.358337774e+20
1.181318246e+20
1.231419647e+20
1.177007495e+20
1.156133584e+20
1.150912475e+20
1.216211991e+20
1.200655393e+20
1.12472254e+20
1.186827383e+20
1.205727171e+20
1.290119147e+20
1.194413835e+20
1.181318246e+20
1.189217225e+20
1.144129004e+20
1.12472254e+20
1.112349852e+20
)
;
    }
}


// ************************************************************************* //
