/*--------------------------------*- C++ -*----------------------------------*\
  =========                 |
  \\      /  F ield         | OpenFOAM: The Open Source CFD Toolbox
   \\    /   O peration     | Website:  https://openfoam.org
    \\  /    A nd           | Version:  7
     \\/     M anipulation  |
\*---------------------------------------------------------------------------*/
FoamFile
{
    version     2.0;
    format      ascii;
    class       volScalarField;
    location    "0.002";
    object      internalT;
}
// * * * * * * * * * * * * * * * * * * * * * * * * * * * * * * * * * * * * * //

dimensions      [1 2 -2 0 0 0 0];

internalField   nonuniform List<scalar> 
546
(
712.520106
694.4464641
677.7520618
679.6653318
702.6312719
708.8251805
702.5508129
685.7567036
674.3449254
690.3007345
684.2316173
679.3407886
678.3728116
672.3738859
674.0190221
697.681073
718.1661799
703.3420284
676.8409255
671.5075136
680.8380387
680.8073616
701.4153724
696.7931194
662.964123
660.177077
663.4871623
668.0847735
666.5325248
699.3785991
765.2564859
759.7568111
768.137785
748.8771993
782.2443254
775.2514271
780.2086519
780.3597354
784.4092514
755.4899026
753.2346875
759.4667448
764.0475954
764.5601876
765.2546284
755.6596132
760.4472887
746.7877224
744.5822141
748.0896894
751.4521141
732.9998398
732.3716789
735.0311785
716.8456656
702.1298198
723.4548531
722.6010889
725.1379155
730.0871443
752.8657143
767.5843077
764.7499143
766.4487876
761.0664584
782.5606268
782.1799497
789.4302617
802.7491544
811.5985121
806.1296619
802.3476444
810.4172278
817.7080082
794.6193872
783.233698
780.8490068
786.9887343
810.8128305
782.0050652
781.4251494
777.6148085
786.4351923
791.8736426
769.8101275
756.8627442
753.9879546
743.7618466
752.0693074
739.0195717
712.9466483
727.0392021
757.3685914
760.3254047
775.9032607
776.1263167
789.4496504
791.8815715
775.9204015
806.0247072
812.9754479
820.147744
822.9680997
814.8024743
832.0248097
803.3471876
794.4023933
811.5456791
794.6263117
781.8706358
781.6948258
788.3299509
779.0967641
810.3114453
795.5831847
773.6033551
778.4441489
768.0871454
776.286882
768.1382262
683.5303346
720.3107147
713.7294568
726.5019392
736.9525216
750.2525067
756.1947705
766.0532642
797.9918443
794.0178325
797.3952785
808.1565339
807.3005175
811.1057808
809.3399545
803.8149749
814.6818119
785.8407579
806.8423162
785.6704378
793.8164851
816.88399
814.5442198
797.5870394
800.1937927
790.5425297
784.908569
788.462392
804.0881853
786.1685127
621.4085684
644.7981052
663.7567678
678.0831119
685.2424502
709.5316746
734.8079231
726.636383
761.3415325
749.0284456
769.1906456
781.5079468
788.5850428
789.7095439
796.1188687
796.4459598
803.2791117
809.8691901
812.0651423
822.5586096
812.8428147
826.7859963
805.4895823
801.3889371
801.9820115
812.2577165
795.7217337
780.3003958
796.2044052
784.2018788
596.9873346
623.6145926
626.1793212
628.4579972
655.0563921
668.3095483
692.5994037
707.6159758
713.0554277
744.8244043
752.9633941
735.2390544
753.6974303
765.8787295
782.7510378
770.9663896
780.0973637
799.3830173
804.8808898
797.9485768
819.3536681
795.3828703
805.6231729
792.3581926
790.0090618
778.6976768
789.7756398
792.2528861
774.7858355
774.1979623
550.2425759
571.3811003
583.3368527
618.4226498
619.5045174
648.143609
650.5807014
656.933793
684.1765395
718.4793795
739.4289786
730.1339136
729.5290921
761.4143489
745.689249
749.8651264
763.6437586
764.4274878
776.6440255
766.6607376
773.9691835
801.2924898
800.5869648
810.6724934
798.41624
782.7877679
796.5288677
803.8546758
804.0448469
792.7741063
491.9698092
502.7716326
551.7254001
568.864479
584.3765553
611.8915595
626.5369571
648.1069183
655.775328
666.8768245
694.5627615
713.5595248
726.07254
727.0896808
728.194243
747.8750013
748.5424113
759.1454234
751.4186193
761.719986
757.2135111
771.1397277
773.4831036
775.5229325
791.6142262
782.4384369
781.0212911
778.5694783
782.4482185
762.9833495
453.6075931
475.9131976
502.3909556
516.7548319
543.0172496
563.8755026
580.1920502
599.5593884
618.601757
629.4055813
653.6620743
662.7936757
678.5608925
688.1471061
708.9700884
715.4206665
729.7893235
738.9563291
739.9454471
740.2508135
740.0539321
731.2574282
746.7821234
754.7141177
762.2883537
773.0005078
766.6825882
746.9734131
748.5895103
766.1723047
430.8167365
442.9551008
467.6680689
486.9705289
501.9781384
522.3723942
556.9858076
560.2720193
581.5401013
589.6668769
599.1772872
629.1418847
634.9568453
656.432385
670.9309615
686.84766
699.1009552
698.7408676
714.5773823
705.8453932
732.8292346
741.365441
755.7124708
747.5854517
755.2085107
747.2554364
765.1933248
758.5556762
728.9025507
726.7492195
387.9102032
414.3908154
427.4668709
440.7802596
459.3450317
476.5284966
493.3677769
515.0223817
525.1431861
554.1052884
568.7380938
590.0651756
615.0405404
625.4975713
652.1597345
664.0903801
667.1511343
668.3068296
671.786941
695.8835327
710.6700871
706.3771045
725.8544388
734.0508156
728.8474213
733.9437816
753.8773395
737.4192299
736.3448904
723.8503311
361.3633674
371.9845481
395.6445134
404.9520902
420.4314175
442.6972338
459.3173245
473.1612028
486.630641
493.6840824
507.1436831
547.2663939
551.3063388
575.0211879
594.4689399
618.463236
641.2456805
662.6513925
670.837691
675.5157676
675.9095309
683.2773337
690.5551326
698.7197396
706.7869097
727.1100625
717.0784708
749.0738892
749.1681307
737.4222718
348.7340166
359.4164454
376.2247163
382.5065233
393.8542747
408.6671688
425.807269
443.8572604
477.2890561
482.5076795
490.0564446
508.1464699
522.791686
542.6703574
562.4471436
579.3095144
591.5294513
619.0315823
636.7921826
649.0171438
663.1226304
667.2643079
672.7884766
687.6212124
699.4761619
699.757988
714.284992
700.1412989
718.4552921
716.3744418
340.7048486
342.532446
359.3354415
368.1026043
380.5841262
391.5768854
400.6631491
425.2120602
429.7919634
438.3937861
479.1377654
479.9047744
501.9463241
527.582516
540.7837901
549.3963972
554.965996
572.458912
598.062774
613.3128312
626.2161309
637.2433267
647.2602222
653.3498293
664.426593
679.7486883
689.1067685
678.1501119
673.3153637
682.4130446
334.6065407
336.2164684
336.4435233
349.7743953
358.7867311
381.261613
393.0143976
401.8814723
414.6278786
421.5156213
430.4372499
454.7983066
469.9939136
498.1577403
511.6251076
529.6618852
537.5199438
546.6825995
566.606742
589.0369614
605.3908906
617.0531473
630.9811147
633.8642828
634.4639212
639.4568327
661.7970515
669.4387338
665.8023784
327.7766841
339.0322836
346.7656056
343.4481904
348.936341
360.8287113
368.156314
380.590177
399.8969038
408.2596927
419.3849863
420.0909662
436.4207185
456.2635388
482.1394144
501.3392085
519.3354745
530.063773
534.2367172
547.2067468
570.2340101
581.0371184
602.788243
624.8386525
319.8517811
322.0516269
325.9248901
333.0414272
338.1705321
339.0974597
352.1635645
362.0666785
371.8531469
385.3106189
404.7755346
406.8978193
416.725514
433.2002366
443.429226
450.7184969
474.4262897
503.2931434
527.649044
307.7367217
312.7371941
317.823598
324.9206595
324.8984246
330.3200731
337.5402039
343.9913383
358.6024007
356.1904585
368.3165423
388.5236461
398.5087087
401.7956377
307.0131569
306.3733054
310.3312778
317.341473
323.6869668
326.1796191
327.7517401
334.9460095
302.1713825
303.4461749
)
;

boundaryField
{
    flow
    {
        type            calculated;
        value           nonuniform List<scalar> 
15
(
699.3785991
730.0871443
739.0195717
768.1382262
786.1685127
784.2018788
774.1979623
792.7741063
762.9833495
766.1723047
726.7492195
723.8503311
737.4222718
716.3744418
682.4130446
)
;
    }
    obstacle
    {
        type            calculated;
        value           nonuniform List<scalar> 
30
(
641.3917647
602.8982358
667.70589
658.2888133
601.5948447
609.9249525
658.4198687
613.6644686
638.1432889
626.4973599
604.397325
633.0343257
633.318846
565.446202
624.95156
621.1208239
625.1274475
675.8188469
632.8585659
607.4857727
639.1233047
637.4809337
616.892736
606.1603622
606.5184888
616.7918486
645.6582
601.5574191
623.9431752
703.0950174
)
;
    }
    frontAndBack
    {
        type            empty;
    }
    procBoundary1to0
    {
        type            processor;
        value           nonuniform List<scalar> 
21
(
712.1633966
771.4802601
746.9427527
703.3498766
655.1003018
622.5419121
572.0912715
504.5038411
463.6377597
425.9328653
414.1325618
372.02236
348.5801386
349.3477115
335.1389048
328.6918189
327.2379951
315.0401517
304.5660679
304.4168593
301.6434567
)
;
    }
    procBoundary1to3
    {
        type            processor;
        value           nonuniform List<scalar> 
36
(
687.1379332
632.2284513
641.65464
642.6420448
660.3801308
687.1379332
668.6408798
535.3843513
545.0008404
555.1937183
581.8528216
632.2284513
597.1555095
424.0963676
432.7184978
452.9922451
473.9422547
535.3843513
493.7494515
337.4036142
345.7526122
354.4447089
366.9974028
378.8415543
424.0963676
388.4811199
306.9781986
303.2878018
308.8075661
314.900085
314.5117749
337.4036142
320.4895489
304.8549507
306.9781986
307.9331279
)
;
    }
}


// ************************************************************************* //
