/*--------------------------------*- C++ -*----------------------------------*\
  =========                 |
  \\      /  F ield         | OpenFOAM: The Open Source CFD Toolbox
   \\    /   O peration     | Website:  https://openfoam.org
    \\  /    A nd           | Version:  7
     \\/     M anipulation  |
\*---------------------------------------------------------------------------*/
FoamFile
{
    version     2.0;
    format      ascii;
    class       volVectorField;
    location    "0.002";
    object      momentum;
}
// * * * * * * * * * * * * * * * * * * * * * * * * * * * * * * * * * * * * * //

dimensions      [1 -2 -1 0 0 0 0];

internalField   nonuniform List<vector> 
546
(
(0.007455810501 0.002263893152 -0.0009278594156)
(0.004612063493 0.002676775233 -0.001335875185)
(0.007661833429 0.002840831707 0.001768162523)
(0.005925284008 0.0005600532195 -0.0002547542199)
(0.00194936237 0.0001202276233 -0.00110627007)
(0.003119812311 -0.0001331618475 -0.001923965357)
(0.002707196471 -3.07715149e-05 0.0001868163489)
(0.006917172396 0.001964611525 -0.0008015437349)
(0.004175157984 -0.000604028414 0.001339613657)
(0.003344170492 0.002103944111 -0.002928815127)
(0.005455571493 0.0002183921722 0.0001304464121)
(0.005419963787 0.001207465905 -0.002467323619)
(0.004317520938 -0.0002883523634 -0.001160303758)
(0.002144201369 0.00144879004 -0.000676160812)
(0.001881328479 0.0007544946923 -0.002288303104)
(0.001560427141 0.00155025777 -0.001664799199)
(0.005196327957 0.0001348261024 0.0005031594566)
(0.002182677267 0.0008043219804 -0.000556690783)
(0.002662663853 0.0007441238072 0.002230353593)
(0.003408389298 0.001422836483 -0.0001890835766)
(0.004394002143 -0.000122431068 -0.0008100957094)
(0.003530023984 0.001491308499 0.000387402575)
(0.0008400543702 0.0008913581544 -0.000824996198)
(0.003037020117 -0.0009248211683 0.001633321171)
(0.001320288341 0.001268296686 0.0003118734907)
(0.002594742786 3.050093019e-05 -0.000436020893)
(0.003429462941 0.001809011063 0.001246521101)
(0.003230406567 3.320854975e-05 0.001693864151)
(0.001890605023 0.001877591966 0.0006562699143)
(0.005073517925 0.001135028369 -0.003248794694)
(0.005996325382 0.002319486352 -0.0008499394246)
(0.009338315853 0.002944863815 0.000665345247)
(0.006626181526 0.002096003182 -2.130536566e-06)
(0.008966950367 -0.00102720476 -0.0007129451855)
(0.007006478888 0.001219054171 0.0003929327044)
(0.008620503871 0.002770921908 -0.0005993775013)
(0.005242514348 0.001864098767 0.002926269162)
(0.005246538454 0.001250292709 -0.002458130997)
(0.007320726305 0.003820793009 0.00216594441)
(0.001366217394 0.002510069433 0.0007376377776)
(0.00728268942 0.001138027928 0.0007837761416)
(0.006901773451 0.004187077651 0.0004655277213)
(0.005730934219 0.001697345603 0.001182301373)
(0.005008596309 0.003656284129 -0.002114394742)
(0.003787512761 0.00228141916 0.00157417267)
(0.001830148355 0.001978041599 -0.0005504546501)
(0.005312821401 -0.0001911351302 0.0007063565818)
(0.005065244675 0.002154171541 -0.001242882856)
(0.006288082635 0.0001689531914 -0.001472044052)
(0.004475107768 0.0004226572998 -0.0001471273121)
(0.00547661141 1.677669683e-05 -0.0003035029133)
(0.002616026223 -0.001095363015 0.0005806688654)
(0.00472062458 0.0009238211761 0.0005436946266)
(0.005712861415 -0.001239937765 -0.0001360696821)
(0.005404405738 0.003554208348 0.0001120652245)
(0.00343516296 0.002915190188 -0.0007218147588)
(0.005615217856 0.0008367700831 -0.0007886992793)
(0.00722628463 0.0005081120784 -0.00276385813)
(0.005126965793 0.002555794855 0.0005944698154)
(0.007507857347 0.00106586639 -0.001290931665)
(0.01171127819 0.001933571751 0.0004479025852)
(0.009764124069 0.003603444766 0.001568246534)
(0.00939882922 0.00343111105 0.001900846686)
(0.01262816591 0.003676993045 -0.0006948980487)
(0.01318867238 0.003664196985 -0.0008549875025)
(0.012646648 0.00568276702 -6.932000166e-05)
(0.01466414327 0.004328569398 0.0002021062808)
(0.008120447586 0.001451577723 0.0006342658269)
(0.006076010266 0.001990923372 -0.0006933626588)
(0.008526148564 0.002673895339 0.0003834912946)
(0.006387295706 0.001526432777 0.002018031075)
(0.007378503516 0.003613576116 0.0005219527732)
(0.008269046101 0.001055372341 -0.001419523353)
(0.007821730958 0.002558155434 0.001595220602)
(0.007366411201 -0.0008702224374 0.001616699199)
(0.004318622519 0.002874290863 -0.0001730675953)
(0.005298660388 -0.0006147923364 0.0009132763837)
(0.007144528495 0.002630078557 -0.0005971305644)
(0.005191280361 0.001695526087 -0.0006227357239)
(0.006057717878 0.001926573068 0.000564994362)
(0.004055620515 0.001058289624 0.001013462679)
(0.008483044918 0.002536326845 -0.001072552773)
(0.003360023469 0.002731516107 -0.0003886141401)
(0.005185024572 0.001534105652 0.0006607306967)
(0.002273954088 0.002872533445 0.001531005942)
(0.004956839877 0.001998865592 -0.0003292147558)
(0.004189558522 0.002245462671 0.001652272316)
(0.009245485288 0.002592471195 -0.0002454232225)
(0.009945440596 0.001127204533 -0.0003911706641)
(0.002812115533 -0.0003841877596 0.0009510672975)
(0.01467082104 0.00429102459 0.00209412821)
(0.008418682129 0.004250166289 0.001783035238)
(0.01584760142 0.003214294213 0.001112038346)
(0.01048255586 0.003763651313 -0.0009508684978)
(0.0125897274 0.001864626848 -0.001888310583)
(0.0173713023 0.004757819092 -0.002592488783)
(0.0135247194 0.003799398181 -0.0006246465729)
(0.008122933338 0.002393735502 0.001437107103)
(0.01046390496 0.001725917013 -0.0005017156624)
(0.01110153591 0.007184175509 -0.00115781841)
(0.01695256731 0.003915328529 0.002042014412)
(0.005326128941 0.003275897645 -0.0001053786696)
(0.009530836895 0.002829248145 -0.001940213048)
(0.01176573181 0.000938154679 6.418356654e-05)
(0.0102056494 0.005135228327 -6.456476768e-06)
(0.009319204558 0.001196871521 -0.002331721974)
(0.009715698408 0.004778987696 0.0007529420043)
(0.007264997411 0.00450679433 0.002245619999)
(0.00867586122 0.00278593039 0.0004086827549)
(0.01126818004 0.002966752401 -0.0002069800972)
(0.007622805045 0.003984917433 0.0004407386598)
(0.004699406576 0.00154087299 -0.001647782648)
(0.008282541305 0.001249739151 -0.001166122219)
(0.007815526811 0.001039461909 -0.0003206963268)
(0.007169600516 0.003020733486 -6.587269721e-05)
(0.00515342036 0.001675151273 -0.0005923841053)
(0.00988443914 0.004792714309 0.0003115660856)
(0.008432070662 0.001139794392 -0.002046569632)
(0.007232552252 0.001707176012 -0.0004102246137)
(0.007359942996 -9.151295488e-05 0.0003382537489)
(0.01403673942 0.003110996797 0.0009447085857)
(0.009534620122 0.003687461519 -0.0001196080628)
(0.01346076009 0.00322251708 0.0002325365954)
(0.01571551427 0.003293413343 0.0005421126401)
(0.0106708389 0.005316781477 -1.897243719e-05)
(0.008744384101 0.001584316668 0.001278670389)
(0.0115122313 0.00518574749 0.00124703778)
(0.008250706139 0.005884588962 -0.001471705405)
(0.007187394217 0.004732106068 -0.0004677072526)
(0.01319587476 0.002910188368 -0.001908401367)
(0.01157270266 0.003503763629 0.0006622625979)
(0.007175622177 0.003891584948 -0.000141543802)
(0.01355398661 0.004245537391 0.0005810316066)
(0.0102915509 0.002592585846 -0.0008933824734)
(0.01454181821 0.006066747623 0.001037465072)
(0.006133402822 0.003277361196 -0.001898600451)
(0.005872682178 0.001760597597 0.0005210453018)
(0.006609625296 0.002969692262 -0.001743537828)
(0.008537049038 0.004540452948 0.0008367461056)
(0.008479498252 0.004554797553 -0.0009866815486)
(0.005652593546 0.002815443831 0.0003267514862)
(0.009182354812 0.005930230564 0.001851265843)
(0.008040102617 0.005449211388 0.001638758833)
(0.00356130109 0.002016268928 -0.0009219063345)
(0.006172295583 0.00184477798 -0.0009290310888)
(0.009457043428 0.000799940709 -0.001096252345)
(0.004647457802 0.003210648425 0.0009367408077)
(0.005442479284 0.00210505505 -0.0008656734753)
(0.009460376534 0.00459130475 -0.00216952409)
(0.007198969087 0.0005214102548 0.000515668786)
(0.0137940622 0.001335185079 0.002118393102)
(0.01364963366 0.002536868973 -0.0006777099528)
(0.008317154036 0.003559664339 -0.0009169691603)
(0.013305992 0.003302610746 -0.001577649028)
(0.01190879241 0.003640915887 -0.0009200017998)
(0.018307407 0.004760602616 -0.002873240317)
(0.01537101627 0.005138746898 0.0002507527724)
(0.01599706183 0.003947621998 0.003619912379)
(0.01773233081 0.005681636408 0.000120990633)
(0.008411134198 0.0003963202559 -0.0011546535)
(0.01112047601 0.002252985521 -0.0001991675996)
(0.009809202876 0.001790185495 0.002062406691)
(0.01271606844 0.002848420227 0.001201785815)
(0.011504529 0.004793112993 0.001865296263)
(0.01013444259 0.0001143123552 0.001255570469)
(0.0104509452 0.004015463111 0.000611905436)
(0.01102148038 0.003738798515 -0.00172630399)
(0.01154784753 0.002831503722 0.0007053459548)
(0.008731617472 0.00238385574 -0.0002276858409)
(0.00473284854 0.002705119118 -2.499807936e-05)
(0.01345456204 0.003281240457 -0.0008937249872)
(0.01153159824 0.003388456367 2.372643514e-05)
(0.007652031541 0.003841170009 -0.001181601986)
(0.006356751985 0.002171384964 0.001532918254)
(0.009868607142 0.003955692786 0.0005042120139)
(0.009303515866 0.003398834435 0.002212926997)
(0.007035185125 0.003021448026 -0.001516885322)
(0.009194775831 0.0008278574787 -0.001930544572)
(0.006935435441 0.0005315365765 0.0005469974801)
(0.01143855153 0.00396512396 0.001949717183)
(0.009393106977 0.001039676003 -0.0002930828969)
(0.01507943657 0.003400209559 -0.001086761532)
(0.008985810307 0.001282018985 -0.001109482685)
(0.01647379279 0.004274786148 -0.0009934311523)
(0.01266857932 0.002651078483 -0.0002284778171)
(0.01369194329 0.005965980055 -0.003416486563)
(0.009673073218 0.002616246108 0.0004073224264)
(0.01618206755 0.005186654809 0.0001577023332)
(0.009682329346 0.002623078593 -0.001975971954)
(0.01217667707 0.003938117048 0.003199645562)
(0.01144804121 0.004247355588 0.0007784681429)
(0.01168715131 0.00402572802 -0.0003605567388)
(0.01246800222 0.00373605154 -0.0005207648341)
(0.01416321525 0.002461642172 -0.000515525843)
(0.0137443265 0.006237763982 1.621996509e-05)
(0.007633354024 0.003686303072 -0.0007837688906)
(0.02032106101 0.007146304586 0.001491306369)
(0.009812506811 0.001332466715 -0.002772352397)
(0.006179430822 0.0006910354632 0.0003038975757)
(0.01378196081 0.003663897874 -0.000315929762)
(0.01172523945 0.005661634836 -0.0005632604866)
(0.01016057351 0.004174272387 -0.002046818445)
(0.008659634216 0.002293342899 0.001024422477)
(0.01135266137 0.001397458407 0.0008555192224)
(0.01228090165 0.004417561457 0.0009647978002)
(0.01077186053 0.002671545343 -0.001215397664)
(0.008036922096 0.001994341513 0.002807339191)
(0.008652412238 0.001604453328 -0.0002053846749)
(0.0102778531 0.003008658907 -0.001971145182)
(0.01145481858 0.001856624231 0.0007595885363)
(0.01005377382 0.00247417148 -0.0002160753)
(0.01610943166 0.004606146457 0.0001382587661)
(0.0076725599 0.002094432661 0.001609385989)
(0.00920399981 0.0009642679303 0.0008169235981)
(0.01747215175 0.006382081334 -0.001186189927)
(0.01109636655 0.006023573048 -0.000490873114)
(0.01558607819 0.005696603903 -0.002181208085)
(0.009487834761 0.003451258425 0.0004087446355)
(0.01827799845 0.005683296208 0.001102507966)
(0.01444232281 0.004890157262 0.001335089109)
(0.01445668147 0.003497545958 0.0006988011789)
(0.01044563804 0.007103911201 -0.0002162605423)
(0.01780138472 0.006150108106 -0.0009349538398)
(0.01349477977 0.005654051645 -0.0003405635229)
(0.01162272613 0.001043221956 -0.000673110628)
(0.00994074747 0.002703439385 0.0007889053664)
(0.01022026192 0.002134465543 -0.001057074916)
(0.01293780277 0.004703677827 0.001067711586)
(0.0147330296 0.005826572858 -0.000783293275)
(0.0123782151 0.00569072563 -0.001192771184)
(0.01029581585 0.004559695458 0.0008089515065)
(0.0114948498 0.004059465673 -0.0001048821087)
(0.01030033443 0.003604351453 -0.0001372383988)
(0.01664730083 0.003233444104 0.001957185707)
(0.006591836399 0.0003960838797 -0.001108383301)
(0.007724888766 0.004133614002 0.001920776521)
(0.007420748249 0.003060535701 -0.00118444145)
(0.009909620517 0.003486682604 -0.0003136236211)
(0.006148577418 0.001865177601 0.0007801470751)
(0.005550535666 0.001284946646 -0.0008038784446)
(0.01015225206 0.002848050692 -0.0008388256529)
(0.007012703249 0.003168009436 0.001289113696)
(0.0155406935 0.002729966348 0.000140581599)
(0.008043756452 0.001462613566 0.0001722935831)
(0.009647582429 0.005853562971 -0.0007932443604)
(0.005227833947 0.001472050519 0.001579224156)
(0.01072295571 0.004849530122 0.001485697292)
(0.02094287932 0.003730948073 -0.001287426525)
(0.01407693529 0.005101466487 0.0003779970388)
(0.0171366763 0.006710278252 0.0002785306013)
(0.01038144194 0.001715059022 0.0002319861414)
(0.01720905037 0.005010610448 -0.0003846378639)
(0.01268718601 0.003214454954 -9.165047996e-05)
(0.01201875769 0.003568758285 0.0007507471409)
(0.02352919701 0.004027814786 -0.003044526789)
(0.01956463996 0.004422053357 0.0009229941436)
(0.01443152604 0.005580895234 0.0003329836302)
(0.01716628385 0.004104349115 -0.00126303241)
(0.01143215314 0.003614675435 -4.733832223e-05)
(0.01677271017 0.005990318801 0.0005451610585)
(0.009829132033 0.004081123949 0.0003195083046)
(0.01416278646 0.004990537047 -0.001305143272)
(0.004307826949 0.001329530269 -0.001670089823)
(0.01422378857 0.002621183684 -0.0005053269812)
(0.009776139441 0.003095538197 0.0003567878401)
(0.01163968098 0.002934094751 -0.002661630601)
(0.01719798973 0.006756677049 -0.0006148972434)
(0.007985916775 0.004053884766 0.0003167044661)
(0.01155380999 0.002940097292 -0.0005828418035)
(0.01090984368 0.00271279941 0.0001806228341)
(0.007481403369 0.002667339926 -0.001158157501)
(0.00646321311 -0.0003822139741 -3.194458046e-05)
(0.01433840795 0.00273571946 0.0002379398727)
(0.01881095769 0.0007587029492 -0.0008364560136)
(0.01017160538 0.003058959594 3.289619423e-06)
(0.008746360856 0.003964139566 0.0008424736525)
(0.003987808197 0.001975621531 0.0003115862697)
(0.01325171523 0.0009720520087 0.0005508835417)
(0.01434811391 0.004051446303 -0.0002361723265)
(0.01018626501 0.003652589504 0.0004515776341)
(0.009125983363 0.002090518546 -0.001153862495)
(0.01038582629 0.004462054678 4.024770917e-05)
(0.01651676482 0.006277081048 0.001595718511)
(0.01971958914 0.008665236362 0.001259588073)
(0.01976756038 0.006441339972 -0.0003898792701)
(0.01432325214 0.006083350327 0.0009774513338)
(0.02376502905 0.006056461647 0.0006638755947)
(0.01861750298 0.005943598446 0.001700827366)
(0.01076004823 0.004747602888 -0.0002583591664)
(0.01767209574 0.005353260338 -0.003282906459)
(0.01727194179 0.002263659232 0.001195006194)
(0.007309240768 0.00429878228 -0.0005500417163)
(0.01254443526 0.004436665241 -0.0009267416319)
(0.01389770246 0.005421932414 -0.0008362957164)
(0.01365021521 0.003503390344 0.001409242135)
(0.01253566237 0.003916416425 -0.001076649607)
(0.01109706209 0.001503002974 -0.0009992047767)
(0.01458136778 0.004400482296 -0.002212442495)
(0.01157224708 -0.0002301175994 -3.469382871e-05)
(0.01171406168 0.004233001484 0.002084617111)
(0.007314752704 0.0004195521307 2.399461797e-05)
(0.01150148412 0.001795133331 0.0002912036404)
(0.01022971886 0.001000494366 0.0004847479198)
(0.006485980575 -7.453860938e-05 0.0004489081552)
(0.01221030267 0.002920757638 0.001137850462)
(0.00718206847 0.002519287013 0.0005531529051)
(0.009687173567 0.003087152373 -0.001128136041)
(0.01346363766 0.003178137086 -0.0005210626537)
(0.01608687133 0.004284557457 -0.001081253388)
(0.01552771818 0.004649481807 -0.002812890229)
(0.01300838707 0.00416291885 0.002384091423)
(0.01631752563 0.007186370545 -0.001312547461)
(0.01211416878 0.006020540128 -0.0009598420865)
(0.01540673587 0.003907767628 0.0003589503561)
(0.01488416512 0.005485258466 -0.0003371654297)
(0.01367791532 0.004548716797 0.002332255208)
(0.01747200462 0.005427247315 -0.0004448800956)
(0.009151847769 0.004276846163 3.259752187e-05)
(0.02137853789 0.006383922428 -0.001771706169)
(0.01341440374 0.00538972052 -0.0004310401059)
(0.01131757054 0.006543646668 0.0006918383101)
(0.006488281669 0.002365648608 -0.0003262063239)
(0.01722904209 0.005619676819 0.0009276324568)
(0.01836613401 0.004806794293 0.000346728818)
(0.008153951332 0.003768593733 0.0003779386993)
(0.012997481 0.005158488012 -0.000165736536)
(0.01186197673 0.002258959016 -0.0003359930784)
(0.0166023748 0.003689961487 0.0008671476841)
(0.01296485774 0.002416950138 -0.003074831059)
(0.00668758844 0.001113711732 0.0005624589415)
(0.00894952819 0.0008202979559 0.0002217759941)
(0.008294469833 0.001149306934 0.0002483517823)
(0.006291973405 0.0006750430923 8.31088769e-05)
(0.005828730547 0.002980242798 -0.0003820025841)
(0.01775733614 0.003714923017 -0.0004771108223)
(0.004546826256 0.0006485371964 -8.615099616e-05)
(0.0144895557 0.004047341253 -0.002552287786)
(0.008897783236 0.001524134852 0.0005607545381)
(0.00946634987 0.001869056483 3.629496354e-05)
(0.01270891666 0.003914184556 0.002335297684)
(0.01395936553 0.00447137664 0.0006686075942)
(0.01384558319 0.005023576895 0.0005523348757)
(0.0154381224 0.007956874939 -0.000826567013)
(0.0130350646 0.002297864624 0.0003170130927)
(0.010472375 0.00239676968 0.0004668663315)
(0.01135468925 0.003034825025 -0.0003532631006)
(0.01275244439 0.003764904632 0.000923994194)
(0.01760436143 0.004678700534 0.001043282343)
(0.01132967464 0.002805517197 0.0001772249756)
(0.01708244903 0.006140275718 -0.0009058660255)
(0.01538739943 0.004825182077 -0.0004085642291)
(0.01045325752 0.003260432967 0.001303984347)
(0.01463125075 0.005101447873 -0.001855645832)
(0.01084490077 0.005634611137 0.0003993261094)
(0.01517718123 0.005826482882 -0.001011913076)
(0.0140893277 0.004314912094 0.001075609626)
(0.01614317699 0.005340334014 0.0008457534768)
(0.01322547248 0.004182087881 -0.0004084277149)
(0.0103423813 0.00467298398 -0.0001980671301)
(0.009529645028 0.002519676659 0.0002442259756)
(0.004335457008 -0.0001761289704 -0.0004163052606)
(0.01895601347 0.00134890354 0.001591867323)
(0.006153082225 0.001060185962 0.0009649096239)
(0.008870218088 0.002195685003 0.0004859721156)
(0.009098969816 0.0001518080232 0.0007741194381)
(0.01289136208 0.002488688159 0.0007535677744)
(0.01163971452 0.001064127722 0.001394176697)
(0.007542299058 0.002265841212 -0.0007488743386)
(0.01537324213 0.002541084889 -0.0007608653997)
(0.01471909721 0.004633472847 0.000801648541)
(0.01513990522 0.003759528617 0.001477717507)
(0.008890537625 0.004899059795 -0.0003257260727)
(0.0160557671 0.003061766435 0.001407475617)
(0.01638565884 0.006131002189 0.004779143894)
(0.01775894125 0.006381050495 0.0008677349537)
(0.01266987902 0.001780304317 -0.001471322791)
(0.01795744419 0.003379097845 -0.001389946495)
(0.013058156 0.005017490545 -0.0001725917868)
(0.0208968663 0.005601892644 0.0001711760868)
(0.01396318499 0.005057354383 0.001274314557)
(0.01792253571 0.001978355709 0.0008932083155)
(0.01636316226 0.005962471009 -0.0009717093672)
(0.01057173135 0.003585082459 2.342013742e-05)
(0.01773474168 0.009532612728 0.0006742942126)
(0.01267122126 0.002152355276 -0.001757317631)
(0.01022177281 0.003448193784 -0.001338187535)
(0.009872975956 0.002010332602 -0.001227758709)
(0.01061548221 0.003808565998 -0.001280665485)
(0.01235411122 0.004546688328 -0.0006503431636)
(0.009142502858 0.001898088806 -0.0007017005059)
(0.008852699102 0.002029741341 0.0005887181801)
(0.01345096914 0.0009946553607 -0.0003257122976)
(0.01361916787 0.001531303112 -0.0008895482547)
(0.01057398453 0.0006106357212 -0.0007860041873)
(0.007210773205 4.608521603e-05 0.0006552232213)
(0.01390169939 0.001973700955 0.0001759230565)
(0.008032816262 0.001390602404 -0.0002957926847)
(0.01488529718 0.003369927642 0.0002071362148)
(0.01524127039 0.003387924218 0.001275723252)
(0.01068369503 0.003332130299 0.001781128863)
(0.008073391327 0.002161114794 -0.001560206898)
(0.007851692724 0.001831274366 0.0009508457486)
(0.01232818054 0.00343405271 -0.001483397067)
(0.01139814314 0.002435229136 -0.001100398258)
(0.01623737394 0.005059286238 0.0001458491627)
(0.01611314409 0.005734770748 -0.0003510125045)
(0.01188595914 0.004399223071 0.0001127739445)
(0.008615043746 0.003238627591 0.000259006401)
(0.009982925735 0.002860243137 -0.001368347299)
(0.01289629761 0.002371601817 -0.001195898397)
(0.01837123693 0.007141480944 0.0002255314518)
(0.01341831991 0.002514174214 0.002075296638)
(0.0139955833 0.005376141751 0.0004998990017)
(0.01505714654 0.004576529163 -0.0003776193593)
(0.01205638083 0.004598170996 0.0003192709644)
(0.01206105153 0.005004887391 0.0001173411802)
(0.019497806 0.005781142672 -0.0002041992872)
(0.01726902499 0.005673086245 -0.001041284463)
(0.01482352429 0.004038763138 -0.0001509172634)
(0.01331091624 0.004244722775 -0.002057477358)
(0.01212258927 0.001753436991 0.00175313932)
(0.01037630947 0.001177050076 0.0001631678732)
(0.009933548074 0.0006637942133 -0.001072782306)
(0.008084964889 0.0001252020931 0.0008352482089)
(0.005742624562 0.000697457451 4.40199851e-05)
(0.01304667301 0.00146583657 -0.0002078219712)
(0.00306976926 0.0008248671169 -0.0004327008186)
(0.008678760787 0.001542104108 -0.000693050841)
(0.01048456552 0.00067040935 0.0005523782523)
(0.01265233322 0.001582052453 -0.0008851132506)
(0.01110612017 0.002388217203 -0.0006614002466)
(0.007688813068 0.000954403332 0.0004808262182)
(0.01710197157 0.006406568582 0.0002971435019)
(0.01739807307 0.001154720915 -0.0006362125385)
(0.01004969115 0.002717824628 7.982153817e-05)
(0.0142573116 0.004208972901 -0.001296184712)
(0.009245608503 0.005232601084 -0.002460220497)
(0.01357714926 0.005705283116 2.590404329e-05)
(0.01356537131 0.002429973051 0.0007508440455)
(0.02023159648 0.007991687948 0.0007164153578)
(0.01614295361 0.00640284557 0.0009018780925)
(0.02082533387 0.005662639565 -0.000959417978)
(0.0154851183 0.004477351402 -0.0005270121567)
(0.01273427083 0.004273059995 0.000393522375)
(0.02090635534 0.009037310738 0.001755352515)
(0.01634021984 0.007002408521 0.0008794336659)
(0.02431811155 0.007562251613 0.0007055379247)
(0.01740636647 0.005858606043 -0.0004857890467)
(0.01931393072 0.009516102297 -0.0002450826033)
(0.01756364921 0.006304112485 -0.0003238580629)
(0.008497536437 0.0006730045294 0.0005699666978)
(0.009918307758 0.0001231991936 -0.001118708692)
(0.01181924534 0.0006421308139 -0.0002900812792)
(0.00746800663 -0.0002030676967 0.0005032847095)
(0.009236498553 0.0001322523367 -1.170599792e-05)
(0.007548238695 0.0002536448661 -0.0007285731817)
(0.0094672507 0.0002997465151 -0.0002769699334)
(0.008287923825 0.0009003209968 -0.0008508894229)
(0.01735894069 0.0007385636042 0.0001666027371)
(0.006387693426 0.0007100775324 0.0004190100598)
(0.01432034397 0.004963851599 0.001064906092)
(0.01755108462 0.003025599634 0.001039109861)
(0.01193412368 0.004633591714 6.260901393e-05)
(0.01598735148 0.00457051144 -0.001553514494)
(0.013289093 0.001879609028 -0.0002457427627)
(0.01541786773 0.006458074476 -0.004372994727)
(0.0148382286 0.003239218644 -0.0007672143891)
(0.01199547145 0.00539184896 -0.001000474557)
(0.01398156003 0.003008791577 -0.0001061771004)
(0.01751197861 0.01018803507 0.0005379966254)
(0.01521115097 0.002369950376 0.0003727281624)
(0.01584888176 0.005398657399 -0.001274610203)
(0.01561652327 0.003511899362 0.0008648907439)
(0.02068742007 0.00666539816 -0.0003981731)
(0.02025560221 0.005822296737 0.000487777319)
(0.02026382059 0.005230701633 -0.001006477514)
(0.02038280111 0.005286460099 0.0009203850803)
(0.01474696639 0.003939414041 0.002679578447)
(0.01946869139 0.006252082596 0.0012291)
(0.003775551638 0.0001063824583 0.0004451305287)
(0.009612670548 0.001507589685 -0.001000493448)
(0.006341934295 0.0002977530786 0.0001182048745)
(0.006418829227 0.000946522192 -0.000187124241)
(0.008919106143 0.0008051692978 -0.0004637583178)
(0.007335806637 0.000205799279 -0.0006335718102)
(0.0119104589 0.001671271174 -0.0002087321291)
(0.002171604351 -0.0003692022753 0.0003585481038)
(0.008750687459 0.0002795585006 0.0001922262133)
(0.02007806333 0.001492626423 -0.001081478559)
(0.007959726953 -0.0003738178411 -0.001703201757)
(0.007962925117 0.0008452878778 0.0002206749685)
(0.01247943651 0.003073106694 0.0009174626753)
(0.009950507702 0.002390209011 -0.001262372149)
(0.008292689036 0.000513052641 0.000498429203)
(0.01474132226 0.005911943077 -0.000879954684)
(0.01282929898 0.002104293704 -0.0003924986386)
(0.01703652186 0.004456534726 0.001100909692)
(0.01382455643 0.003124714289 0.000880892827)
(0.02052781093 0.003726992677 0.0001169710682)
(0.0140428594 0.002513648947 0.002617932761)
(0.02168581645 0.005517010476 0.001588869393)
(0.02007287409 0.005523500171 0.001680125874)
(0.02730612969 0.007257274951 5.173816278e-05)
(0.005355731745 -0.0002107111231 -0.0002063361877)
(0.01395566214 -7.877496734e-05 0.0005772356712)
(0.008551569697 -0.0009167867391 -0.0009061874226)
(0.002776894527 -0.0004273165717 5.141725116e-05)
(0.006814355693 0.001354918653 0.0002104438818)
(0.005496337062 0.001941105738 0.0008778971637)
(0.003995524002 0.0002562980265 0.0004127885097)
(0.0139633535 0.0006377198183 -0.000618094785)
(0.01080228212 0.001091338894 0.0009612861862)
(0.01224676038 0.0009044941862 -0.001693467622)
(0.007528661068 0.000102762893 0.0007818996934)
(0.01022123283 0.0009750237629 0.001223965793)
(0.007416232651 -4.292452698e-05 -0.0008247629973)
(0.01159866699 0.001280680416 -0.0006909910752)
(0.01350249722 0.003543101674 0.002309438191)
(0.01375443136 0.003242236086 -0.001259871584)
(0.01811680568 0.0008320225846 0.0001679590733)
(0.01163466322 0.003629246375 0.001996838926)
(0.01182016374 0.005160170668 0.001249254978)
(0.007714007432 0.0001771139458 -0.0003529769972)
(0.009314337321 0.0002784527671 0.0009307094135)
(0.006559874078 0.000252625751 -0.0002296685169)
(0.006031270194 0.001571436383 -0.0007909693165)
(0.0051902924 -0.0003680628863 -0.0002514651877)
(0.007681408444 0.0002097347367 0.0003984448997)
(0.007436602177 0.0004967922854 0.0003833160229)
(0.01235707952 0.001005418831 -0.0006341496021)
(0.005839994097 7.306647459e-05 0.0005778292085)
(0.008564578248 -0.001040596252 0.0006873453485)
(0.007259524134 0.001262055161 0.001207408865)
(0.01075559182 0.00156114898 0.000216158057)
(0.01244646819 0.001880851038 0.001441834343)
(0.01154936433 0.002222048586 -0.0006287025328)
(0.01310326261 -0.0003021851142 -3.298393216e-05)
(0.008807794303 -0.0006227654744 0.0005991759323)
(0.006946713198 -0.0003569585897 -0.000335133201)
(0.01366883025 0.0009923163926 -0.0007076627481)
(0.01243343651 -0.0006705239144 -0.0004740404302)
(0.0069896377 -0.0006554619301 5.838481695e-05)
(0.004662021848 0.000403718836 0.0001788523514)
(0.007770170701 0.0001967126512 0.0003691927015)
(0.008791293188 -0.0006448368877 0.0006410913733)
(0.008204893377 0.0003242330626 -0.0003672515438)
)
;

boundaryField
{
    flow
    {
        type            zeroGradient;
    }
    obstacle
    {
        type            calculated;
        value           nonuniform List<vector> 
30
(
(0 0 0)
(0 0 0)
(9.052695341e-22 2.425662398e-22 6.842873161e-22)
(1.096701134e-21 2.938601837e-22 -1.266909042e-21)
(0 0 0)
(1.045652664e-22 2.801817875e-23 6.623206925e-22)
(0 0 0)
(4.341506118e-21 1.163303055e-21 7.718586982e-22)
(2.962052734e-22 7.936796393e-23 2.642819498e-21)
(-1.27328921e-21 -3.411768162e-22 -2.170861783e-21)
(5.090475636e-22 1.363988831e-22 -1.535846842e-21)
(6.658437188e-22 1.784122871e-22 2.367360371e-21)
(7.620312053e-23 2.041856464e-23 7.669629623e-22)
(1.866172465e-21 5.000394034e-22 2.980908961e-22)
(0 0 0)
(0 0 0)
(0 0 0)
(0 0 0)
(0 0 0)
(-5.546923989e-21 -1.486293806e-21 3.637685707e-21)
(0 0 0)
(-2.61666326e-22 -7.011328051e-23 1.533005733e-21)
(9.476294649e-22 2.539165503e-22 6.559992087e-22)
(0 0 0)
(-5.586490038e-22 -1.49689549e-22 2.349921277e-22)
(2.756010432e-22 7.384707708e-23 -3.41401905e-22)
(0 0 0)
(0 0 0)
(3.307289219e-22 8.861854769e-23 -1.44061197e-21)
(-3.909521022e-21 -1.047552998e-21 -3.472781094e-22)
)
;
    }
    frontAndBack
    {
        type            empty;
    }
    procBoundary1to0
    {
        type            processor;
        value           nonuniform List<vector> 
21
(
(0.009527060378 0.004302010481 -0.001579931433)
(0.01334537036 0.002979719843 -0.0002432528279)
(0.01437576426 0.004910023086 0.0004946134097)
(0.01356524997 0.002772089685 -0.001207548285)
(0.0101618799 0.004011066136 0.001079758419)
(0.009663801415 0.006657590056 0.0009016872099)
(0.01671847934 0.003702098971 0.001196522062)
(0.0130789326 0.001984832597 -0.0002936419022)
(0.01550374669 0.001990989553 0.001714728979)
(0.008714327426 0.003004751126 -0.0003560650164)
(0.0148721534 -0.0001245863364 6.139477307e-05)
(0.007267082948 0.0001889191413 -0.0003722562088)
(0.01285840473 6.121634836e-05 -0.0002292899736)
(0.01537549401 0.0006637792085 -6.811370663e-05)
(0.004805701797 -0.0004732084108 -0.0004452978437)
(0.009284580752 -0.0007352166923 0.0002516224339)
(0.01406743165 -0.001011795302 -0.0003388605136)
(0.007310151373 -0.0003713234992 0.0007780213737)
(0.006852698389 6.771551794e-05 -0.0007478263608)
(0.004651333006 -0.0002351681691 -0.0001389755802)
(0.007046113264 -1.750918905e-05 -0.000145565785)
)
;
    }
    procBoundary1to3
    {
        type            processor;
        value           nonuniform List<vector> 
36
(
(0.01663954414 0.006742991194 -0.0002256248574)
(0.01697556326 0.006132769077 -0.00147605722)
(0.01567621506 0.007481404577 -0.001095862468)
(0.01472892429 0.004323565643 -0.00050323336)
(0.008971939639 0.003034016707 0.001697486399)
(0.01663954414 0.006742991194 -0.0002256248574)
(0.01534193994 0.005035685854 -0.001225618263)
(0.01747299906 0.006707148071 0.0006995346493)
(0.01830076211 0.002430150623 -0.0005745064618)
(0.01903393991 0.007169512611 -0.003007956609)
(0.01969775403 0.003207928076 0.0001843714472)
(0.01697556326 0.006132769077 -0.00147605722)
(0.0151335593 0.004980933105 0.000292545734)
(0.0136526105 0.003577756138 0.0004305728999)
(0.01391543218 0.003804731775 -0.001487139026)
(0.01242041855 0.002912755072 0.0002550441652)
(0.006251035213 0.002906328437 -0.001140348761)
(0.01747299906 0.006707148071 0.0006995346493)