/*--------------------------------*- C++ -*----------------------------------*\
  =========                 |
  \\      /  F ield         | OpenFOAM: The Open Source CFD Toolbox
   \\    /   O peration     | Website:  https://openfoam.org
    \\  /    A nd           | Version:  7
     \\/     M anipulation  |
\*---------------------------------------------------------------------------*/
FoamFile
{
    version     2.0;
    format      ascii;
    class       volScalarField;
    location    "0.002";
    object      overallT;
}
// * * * * * * * * * * * * * * * * * * * * * * * * * * * * * * * * * * * * * //

dimensions      [1 2 -2 0 0 0 0];

internalField   nonuniform List<scalar> 
546
(
849.9471268
826.0115734
816.7936347
803.5286333
811.6241796
815.7416205
799.8242009
799.8007547
782.055737
785.7606789
789.2993679
777.1672916
786.7963047
777.6200812
770.0031135
777.0889196
779.5606948
777.1519495
758.5644242
757.8080251
770.852582
757.2698162
769.295713
762.5348403
732.9704903
740.8630913
741.4858491
757.2197699
738.9102178
740.6681311
927.8180744
916.2198569
915.4130799
893.6794902
909.6037708
893.3272153
895.8746484
882.2701182
899.335278
879.5584773
874.0102546
876.8148376
866.4614112
861.5500297
858.2903665
848.2932082
846.0490818
845.4676509
832.3179318
836.260263
842.2593249
822.0848328
815.9571835
824.593998
815.5753016
803.0700926
810.052109
791.314612
778.6700863
751.8623569
919.470809
916.5250564
910.3212527
912.2708196
906.7032222
918.0790593
910.6562952
912.5949023
910.8038356
918.8235486
919.1130873
916.3928094
908.3313896
896.7484528
891.8727145
889.1658609
898.6905217
887.8786926
893.7272239
881.8804808
870.6661412
853.9434698
860.6595962
875.1628154
858.5072476
834.5696588
835.1882763
819.3497733
792.5921183
753.3124514
901.8718584
900.7944069
910.624991
899.2279347
911.3977092
914.0038849
914.4445869
908.1543076
899.0491139
916.1629234
919.9472509
917.1354556
921.4873227
911.7929164
920.5439006
906.7633478
890.6133861
894.6388076
896.6779591
887.9316422
887.7228245
882.3782822
868.3071345
864.4323275
863.0797476
834.4827308
831.8611223
816.1373905
797.816351
765.9811652
866.7941732
876.9916861
863.2849863
874.7698068
874.3704925
882.0612083
888.1265643
892.7005192
894.8016107
888.2186929
900.8332804
901.3888639
899.3610813
901.9178422
890.7973215
888.6139531
904.3776427
885.09223
892.9435626
887.2031965
885.7338344
893.4426727
876.0510796
873.1328006
861.4675861
841.2897643
835.1364477
821.8555704
813.8252892
785.7663117
815.4484151
834.3729478
835.2533541
840.1584608
847.4899193
849.6277608
858.933804
849.7424431
854.5837173
853.087303
868.3024326
861.6283098
868.6953111
867.5281155
865.6930095
869.3007267
881.2754975
882.9026702
892.6543433
891.0151227
884.7670515
892.3099153
877.6223846
865.2286422
847.4508911
852.9152648
833.017542
828.2324508
812.7984267
787.7938727
790.7342595
812.6202467
799.5896346
808.210462
813.9923456
823.1843571
833.8965909
841.2134102
837.0085129
849.3684796
856.3144085
849.5583506
860.6655802
858.9056385
862.7594608
855.2094113
846.9530406
860.6173412
875.2464744
861.8343263
879.2705613
867.546547
873.6387278
866.6067001
847.5059346
839.0086203
832.2416379
828.8972136
802.5613765
780.8652104
761.8479916
777.0440456
773.0258917
786.5476524
795.7669764
801.77444
798.9618121
802.5652289
809.6275461
823.7697281
827.2931415
822.6215595
830.1985954
849.0822181
837.4150746
835.5371392
846.8384241
842.2938724
850.4646527
837.656088
841.7488172
855.2712768
848.5214379
863.3698822
850.0904276
831.0862191
830.3320726
832.9118742
815.2308047
800.4332608
700.8819639
710.2945649
745.1172064
752.1028459
755.3909137
771.0435129
779.900081
783.6902389
790.4784945
791.9453143
798.0325923
805.5679444
806.8795538
817.4538976
803.6268139
825.190103
828.2779656
826.6942144
818.8083127
819.0471382
822.6966964
820.4641872
825.248979
824.6801453
837.6434734
825.1285183
815.9968784
811.3397112
806.9917163
780.6093303
643.6212468
661.3821512
702.2784874
711.5685171
729.6026498
735.4208679
752.7944161
765.3693178
764.2041654
762.3919788
772.8283231
776.5815469
779.4520816
787.5203309
794.0203653
800.8463257
813.5745735
812.2404303
808.5377487
810.2156033
800.1906622
803.0522868
811.3958303
811.7417662
810.2097205
806.1448008
808.6417135
783.0741684
770.9348771
778.1245984
594.6553222
610.9890797
645.7396842
675.7831471
685.7462502
691.090476
729.1599571
721.6845414
733.0310566
739.3246988
743.7237699
758.8927142
749.8087379
763.8481633
773.5488619
777.5912263
789.8993283
779.0834548
782.6666003
782.0445831
798.2738822
796.6359448
805.5019899
804.2576163
803.4141952
799.0966111
791.4699732
779.0957654
763.0354614
758.4562128
528.8264534
575.5643182
590.2303531
614.4467903
640.2648057
661.9056102
676.9043324
688.7884249
699.1489494
714.93652
729.4479557
742.0751335
737.7287642
745.7403706
755.8783292
759.7919511
761.5800253
756.1819551
758.5063627
773.8814934
772.8766765
777.3043147
782.9267107
789.5519371
777.322391
783.0912148
781.8024153
768.2180075
767.3535919
750.8417823
488.5566456
513.8296793
548.3712504
555.8934362
585.2993158
612.2708588
636.3180981
643.354711
655.9242833
658.4639963
676.9637885
700.6557013
694.4631691
705.9394234
712.4016859
724.6911697
741.4144783
744.3986339
750.5799642
752.8197169
755.4026328
754.1985217
761.234578
757.9017729
759.5239705
762.818499
769.4659565
770.2864345
776.0575399
759.5215921
447.7427336
473.391425
507.8233256
523.4274336
533.0388919
562.5642095
583.2721792
606.152446
629.525012
639.4116279
657.7729821
675.6536856
674.7038405
687.638365
695.2022419
699.2307588
712.2414816
717.3717083
719.7885129
729.4367832
741.5875441
746.3031575
751.7434887
750.0972579
749.9403003
754.0555501
754.5492312
750.7711356
756.1428338
748.4017667
415.0022109
422.6670539
455.0143435
477.5227377
498.3689435
524.6669747
538.9583229
564.6191276
579.2117681
595.7573253
640.837804
646.2271161
667.4983349
674.7198468
686.2115722
685.9464317
696.8834769
703.8154081
704.7399299
711.3421986
710.1811038
720.5855982
724.2454146
737.4027606
736.2699323
732.8991347
739.4763193
732.9953043
724.7863163
724.0919775
394.1374814
399.4156781
412.6020369
445.5847759
455.4511579
491.142575
504.305868
524.8500687
555.9956538
557.4641666
585.661234
602.0986093
623.0056316
640.0542915
656.1206208
664.395493
676.5623806
678.1207342
692.2082885
712.5695467
705.8649634
710.1664113
715.635137
719.4721278
719.6638226
722.097704
724.7480946
722.4007014
729.7795851
367.0108048
384.2731657
396.8146647
414.580568
420.3511711
446.5051979
463.3249749
482.4640383
514.5402919
530.1648903
545.1613764
562.7087396
581.8089187
594.5774911
622.0400505
641.0217633
650.2761967
667.3659364
669.223422
673.512834
691.8395308
689.1029619
700.233839
705.4296982
349.4628541
356.2374997
375.4588876
389.3998138
401.2224351
417.55879
435.3085488
456.980725
467.075176
499.8424279
526.1060117
545.7945461
554.8580494
580.8779249
594.6586793
613.0399714
619.447213
637.1866823
659.013297
321.973791
341.1064821
347.3266457
367.6414578
381.521171
396.430208
409.7330511
427.9076302
444.803137
458.3302422
482.5201348
503.0084335
521.56418
532.6346912
320.3519993
327.9416793
339.0425085
346.6312315
368.6145693
382.1118284
385.2193845
389.1150391
319.3413323
322.6153058
)
;

boundaryField
{
    flow
    {
        type            calculated;
        value           nonuniform List<scalar> 
15
(
740.6681311
751.8623569
753.3124514
765.9811652
785.7663117
787.7938727
780.8652104
800.4332608
780.6093303
778.1245984
758.4562128
750.8417823
759.5215921
748.4017667
724.0919775
)
;
    }
    obstacle
    {
        type            calculated;
        value           nonuniform List<scalar> 
30
(
745.2687156
720.7357944
758.4071196
736.2631482
726.3663393
705.4222
695.9147439
714.9380069
696.8518796
703.5681932
704.295346
700.4753851
711.4342455
629.3459784
695.9574152
694.0639416
701.9384077
698.1545848
691.9081234
691.0275996
704.8665781
682.1990369
680.0811849
715.351253
667.9157757
681.713406
681.4055264
696.9279091
695.2012935
729.794063
)
;
    }
    frontAndBack
    {
        type            empty;
    }
    procBoundary1to0
    {
        type            processor;
        value           nonuniform List<scalar> 
21
(
856.3172089
939.2480731
934.4924572
899.6594306
863.1293889
825.5245873
788.7701617
743.5792608
673.7659096
611.3845375
557.2216662
514.2639274
456.132123
425.9142536
392.6216105
368.1004566
361.9248566
341.4404532
322.8140828
320.6093838
318.9127616
)
;
    }
    procBoundary1to3
    {
        type            processor;
        value           nonuniform List<scalar> 
36
(
732.9722494
708.2318782
709.9734777
705.4155909
713.1352645
732.9722494
710.8406901
660.3314859
672.0107342
675.7453262
682.966209
708.2318782
689.3499429
561.7562223
569.3547232
598.38371
605.6261988
660.3314859
627.9043826
402.2284056
418.6436669
436.6324311
451.7368249
472.4255788
561.7562223
492.3422777
332.3902371
330.8218119
342.0084473
353.3153469
367.5421904
402.2284056
375.7755198
317.6853538
332.3902371
321.1039709
)
;
    }
}


// ************************************************************************* //
