/*--------------------------------*- C++ -*----------------------------------*\
  =========                 |
  \\      /  F ield         | OpenFOAM: The Open Source CFD Toolbox
   \\    /   O peration     | Website:  https://openfoam.org
    \\  /    A nd           | Version:  7
     \\/     M anipulation  |
\*---------------------------------------------------------------------------*/
FoamFile
{
    version     2.0;
    format      ascii;
    class       volScalarField;
    location    "0.002";
    object      rhoN;
}
// * * * * * * * * * * * * * * * * * * * * * * * * * * * * * * * * * * * * * //

dimensions      [0 -3 0 0 0 0 0];

internalField   nonuniform List<scalar> 
546
(
5.608475528e+19
5.649887541e+19
6.83029879e+19
8.028403229e+19
5.777876042e+19
9.314939654e+19
4.693178097e+19
2.364719068e+19
7.149394255e+19
4.803665495e+19
7.262489728e+19
6.100324952e+19
1.10688312e+20
3.719502456e+19
8.749726579e+19
6.301272592e+19
6.353595212e+19
6.406794034e+19
3.876534746e+19
1.172863762e+20
6.571873433e+19
1.193185209e+20
2.674694025e+19
2.69827392e+19
4.083409901e+19
6.866758407e+19
8.314727722e+19
6.992257577e+19
5.645394625e+19
5.697943586e+19
4.486780426e+19
4.519910033e+19
3.415149395e+19
5.734573735e+19
5.777876042e+19
5.821837288e+19
4.693178097e+19
5.91179767e+19
5.957828546e+19
8.40641461e+19
4.841659818e+19
7.320389942e+19
8.609090928e+19
2.758722558e-289
3.749882817e+19
2.520509037e+19
5.082876169e+19
2.562717612e+19
7.753069486e+19
9.122273716e+19
5.257498751e+19
3.977284032e+19
8.024082082e+19
9.44395872e+19
1.22502297e+20
6.866758413e+19
1.247209159e+20
4.19535455e+19
7.056743281e+19
7.122429483e+19
5.608475528e+19
3.389932525e+19
5.691915658e+19
6.881488482e+19
5.777876046e+19
8.150572197e+19
8.213061664e+19
7.094157204e+19
5.95782855e+19
2.401832748e+19
2.420829907e+19
6.100324952e+19
7.379220795e+19
4.959336604e+19
2.49992188e+19
8.821781629e+19
1.143647138e+20
6.406794029e+19
3.876534746e+19
6.515909797e+19
7.886248113e+19
2.651522686e+19
1.069877611e+20
5.39654784e+19
8.166819803e+19
5.493406725e+19
9.700515675e+19
6.992257577e+19
5.645394625e+19
9.971401285e+19
2.243390211e+19
6.779865045e+19
3.415149395e+19
1.261606223e+20
3.466725625e+19
8.150572197e+19
1.290623977e+20
4.729438136e+19
1.191565709e+19
4.803665495e+19
7.262489728e+19
7.320389936e+19
3.689610398e+19
2.479668304e+19
4.999843759e+19
7.56152711e+19
3.812157127e+19
5.125435223e+19
2.584356495e+19
5.212727837e+19
5.257498751e+19
2.651522688e+19
2.674694025e+19
5.396547836e+19
1.361136634e+20
1.236016513e+20
6.928939774e+19
8.390709107e+19
9.879440603e+19
9.971401249e+19
7.851865739e+19
1.242975258e+20
3.415149392e+19
5.73457373e+19
6.93345125e+19
8.150572203e+19
4.693178097e+19
8.276516738e+19
5.957828546e+19
4.803665491e+19
3.631244864e+19
8.540454939e+19
6.149350667e+19
4.959336608e+19
4.999843759e+19
6.301272592e+19
8.895033304e+19
2.562717616e+19
6.460891244e+19
9.122273708e+19
6.571873428e+19
5.303045367e+19
6.686735063e+19
8.09482176e+19
4.083409909e+19
9.613461753e+19
9.700515641e+19
6.992257602e+19
8.468091945e+19
8.546915403e+19
8.973560858e+19
5.649887545e+19
5.691915662e+19
1.032223273e+20
3.466725627e+19
4.65746983e+19
9.386356194e+19
3.547078602e+19
7.149394255e+19
6.004581864e+19
3.631244861e+19
4.880259958e+19
2.459740263e+19
4.9593366e+19
6.249804694e+19
2.520509037e+19
8.895033296e+19
1.281358806e+20
7.753069492e+19
3.909545881e+19
7.886248126e+19
6.628806732e+19
5.349388082e+19
1.484050656e+20
1.225022962e+20
9.61346177e+19
4.157363883e+19
5.593806071e+19
7.056743262e+19
9.971401212e+19
8.973560845e+19
4.51991003e+19
1.252221444e+20
6.881488477e+19
1.155575208e+19
9.314939661e+19
3.519883573e+19
8.276516738e+19
5.957828546e+19
4.803665495e+19
8.472904689e+19
2.440129983e+19
2.459740267e+19
1.239834152e+19
2.499921878e+19
5.041018069e+19
6.353595212e+19
3.844076417e+19
5.168713012e+19
5.212727877e+19
6.571873483e+19
5.303045403e+19
5.349388064e+19
1.079309575e+20
2.722273301e+19
6.866758467e+19
9.700515727e+19
9.789160625e+19
1.129078932e+20
5.697943654e+19
6.730170633e+19
3.389932525e+19
7.968681927e+19
9.175317982e+19
4.622300833e+19
1.047930711e+20
7.039767146e+19
8.276516738e+19
1.19156571e+19
1.200916374e+20
2.693262671e-289
8.540454926e+19
6.149350663e+19
6.19917076e+19
1.624949226e+20
7.561527128e+19
1.016575232e+20
3.844076398e+19
7.753069454e+19
3.909545862e+19
3.94312403e+19
9.280329298e+19
4.012041014e+19
5.396547831e+19
6.805683133e+19
1.236016502e+20
8.314727618e+19
1.258606355e+20
8.468091915e+19
1.424485887e+20
8.973560851e+19
1.129977508e+19
4.553532523e+19
1.032223272e+20
1.155575209e+20
6.986204746e+19
7.039767146e+19
3.547078602e+19
5.957828546e+19
6.004581864e+19
8.472904662e+19
9.76051993e+19
8.609090941e+19
6.19917077e+19
8.749726586e+19
2.52050902e+19
1.016575232e+20
3.84407643e+19
1.033742598e+20
3.909545862e+19
7.886248126e+19
7.954568105e+19
5.349388064e+19
6.745684789e+19
6.805683133e+19
9.61346177e+19
5.543151844e+19
8.390709107e+19
8.468091915e+19
5.697943602e+19
6.730170633e+19
1.129977507e+20
4.553532527e+19
9.175317976e+19
3.466725625e+19
1.047930711e+20
5.866472613e+19
5.911797679e+19
1.072409137e+20
2.401832738e+19
3.631244878e+19
6.100324947e+19
1.844805192e+20
8.678839064e+19
4.999843743e+19
1.26025452e+19
6.353595253e+19
8.96951167e+19
5.168712991e+19
5.212727859e+19
9.200622814e+19
1.32576134e+19
6.68673508e+19
8.094821746e+19
8.166819831e+19
5.493406725e+19
5.543151795e+19
4.195354554e+19
8.468091915e+19
5.69794355e+19
7.851865739e+19
5.649887525e+19
9.107065013e+19
3.440744233e+19
4.622300833e+19
6.986204756e+19
9.386356236e+19
8.276516776e+19
8.340959977e+19
4.803665484e+19
2.693262659e-289
9.760519915e+19
3.689610412e+19
7.439004912e+19
6.249804729e+19
1.26025452e+20
5.08287612e+19
2.562717599e+19
6.460891238e+19
5.212727816e+19
3.943124063e+19
7.954568105e+19
5.349388064e+19
6.745684789e+19
5.444546507e+19
2.746703363e+19
9.700515727e+19
1.53829667e+20
7.056743326e+19
7.122429567e+19
7.851865767e+19
5.649887566e+19
4.55353255e+19
1.032223275e+20
8.089026452e+19
1.164367452e+20
7.039767093e+19
1.064123569e+20
3.574697106e+19
4.803665521e+19
2.420829934e+19
9.760519991e+19
8.609090961e+19
7.439004912e+19
6.249804679e+19
8.821781643e+19
5.082876202e+19
7.68815286e+19
6.460891238e+19
5.212727816e+19
3.94312403e+19
5.303045313e+19
8.024081959e+19
5.396547831e+19
5.444546602e+19
5.493406774e+19
6.928939805e+19
4.195354554e+19
4.234045957e+19
4.273457662e+19
1.233864613e+20
6.779865006e+19
1.138383129e+20
6.881488497e+19
8.089026452e+19
1.513677699e+20
7.039767198e+19
8.276516776e+19
5.957828555e+19
8.406414597e+19
8.472904636e+19
2.44012996e+19
6.149350638e+19
2.479668304e+19
2.499921872e+19
5.041018041e+19
3.812157121e+19
6.40679405e+19
3.876534743e+19
2.60636393e+19
6.571873494e+19
9.280329456e+19
9.361429112e+19
9.443958704e+19
6.805683133e+19
2.746703339e+19
9.700515641e+19
6.992257589e+19
9.879440567e+19
5.69794355e+19
1.121695102e+20
4.519910036e+19
1.252221442e+20
5.734573705e+19
8.089026452e+19
5.821837262e+19
2.346589031e+19
8.276516713e+19
8.340959977e+19
7.205498226e+19
8.472904636e+19
3.660194968e+19
7.379220766e+19
1.239834142e+19
1.124964842e+20
6.301272602e+19
8.895033282e+19
1.409494679e+20
5.168712991e+19
9.122273678e+19
2.628749353e+19
9.280329377e+19
8.024082096e+19
8.094821746e+19
4.08340988e+19
2.746703363e+19
6.928939743e+19
9.789160537e+19
1.552483518e+20
8.546915403e+19
8.973560883e+19
4.519910069e+19
4.55353255e+19
9.175317996e+19
2.311150432e+19
8.150572227e+19
4.693178097e+19
7.094157237e+19
2.383131422e+19
6.004581855e+19
7.262489744e+19
8.540454992e+19
4.919480549e+19
2.479668304e+19
7.499765675e+19
2.520509041e+19
7.624314242e+19
6.40679405e+19
2.584356517e+19
9.122273754e+19
1.314374688e+19
1.060609081e+20
1.069877613e+20
6.745684789e+19
1.225022975e+20
4.12005508e+19
8.314727766e+19
9.789160625e+19
1.411348665e+20
1.566934491e+20
4.486780409e+19
3.389932503e+19
7.968681904e+19
1.376297699e+20
9.24460166e+19
1.280804207e+20
3.519883599e+19
9.458876315e+19
8.34096004e+19
7.205498281e+19
4.841659792e+19
4.880259919e+19
7.379220766e+19
4.959336608e+19
8.749726551e+19
2.520509041e+19
8.895033354e+19
6.40679405e+19
9.045247734e+19
6.515909824e+19
7.886248193e+19
9.280329456e+19
5.349388064e+19
1.349136958e+19
1.633363952e+20
5.493406677e+19
1.662945538e+20
9.789160625e+19
7.056743262e+19
6.730170614e+19
9.039820073e+19
6.830298825e+19
4.587658998e+19
2.311150415e+19
6.986204714e+19
3.519883546e+19
8.276516651e+19
4.766262807e+19
8.406414662e+19
2.420829934e+19
3.660194997e+19
6.149350687e+19
1.487800982e+20
6.249804679e+19
1.008203608e+20
1.016575232e+20
6.40679405e+19
9.045247734e+19
1.303181954e+20
3.94312403e+19
7.95456797e+19
6.686735023e+19
1.484050666e+20
6.730170662e+19
9.039820073e+19
9.107064967e+19
5.734573705e+19
8.089026452e+19
9.314939689e+19
3.519883599e+19
2.364719079e+19
8.340959977e+19
9.607330968e+19
4.841659792e+19
6.100324947e+19
4.919480549e+19
3.719502456e+19
6.249804729e+19
6.301272653e+19
1.143647136e+20
1.15322292e+20
1.550613897e+20
5.608475552e+19
1.24297526e+20
1.593736392e+20
8.028403246e+19
5.777876037e+19
8.150572167e+19
8.213061608e+19
7.094157183e+19
3.574697133e+19
9.607330968e+19
7.262489744e+19
3.660194968e+19
8.609090894e+19
4.959336608e+19
2.243390205e+19
6.779865006e+19
7.968681904e+19
5.734573747e+19
5.77787608e+19
5.821837305e+19
1.055965072e+20
9.458876315e+19
5.608475552e+19
7.909842621e+19
)
;

boundaryField
{
    flow
    {
        type            zeroGradient;
    }
    obstacle
    {
        type            calculated;
        value           nonuniform List<scalar> 
30
(
121.3987792
2.225073859e-308
2.225073859e-308
2.225073859e-308
2.225073859e-308
2.225073859e-308
2.225073859e-308
2.225073859e-308
93.39041002
2.225073859e-308
258.2385071
2.225073859e-308
250.6188292
2.225073859e-308
2.225073859e-308
2.225073859e-308
82.57725643
156.223687
2.225073859e-308
2.225073859e-308
2.225073859e-308
2.225073859e-308
2.225073859e-308
2.225073859e-308
2.225073859e-308
2.225073859e-308
2.225073859e-308
123.5687137
48.91002668
2.225073859e-308
)
;
    }
    frontAndBack
    {
        type            empty;
    }
    procBoundary1to0
    {
        type            processor;
        value           nonuniform List<scalar> 
21
(
5.567666177e+19
3.340599706e+19
6.681199412e+19
1.002179912e+20
7.794732653e+19
7.794732653e+19
8.908265883e+19
1.002179912e+20
1.002179912e+20
4.454132941e+19
4.454132941e+19
1.11353324e+20
5.567666177e+19
7.794732592e+19
1.224886559e+20
4.454132941e+19
1.224886559e+20
7.794732648e+19
1.113533243e+20
1.002179912e+20
8.908265883e+19
)
;
    }
    procBoundary1to3
    {
        type            processor;
        value           nonuniform List<scalar> 
36
(
9.971401303e+19
6.805683252e+19
1.236016524e+20
6.928939805e+19
5.593806071e+19
9.971401303e+19
1.270213787e+20
3.909545862e+19
3.943124063e+19
6.628806754e+19
1.337347016e+20
6.805683252e+19
4.047410873e+19
8.749726551e+19
3.780763531e+19
8.895033282e+19
1.28135881e+20
3.909545862e+19
9.045247734e+19
5.957828555e+19
1.080824734e+20
1.331456443e+20
1.09805849e+20
1.352857151e+20
8.749726551e+19
6.19917076e+19
4.55353255e+19
5.734573747e+19
5.777876037e+19
8.150572227e+19
4.693178132e+19
5.957828555e+19
2.364719079e+19
4.486780409e+19
4.55353255e+19
4.519910004e+19
)
;
    }
}


// ************************************************************************* //
