/*--------------------------------*- C++ -*----------------------------------*\
  =========                 |
  \\      /  F ield         | OpenFOAM: The Open Source CFD Toolbox
   \\    /   O peration     | Website:  https://openfoam.org
    \\  /    A nd           | Version:  7
     \\/     M anipulation  |
\*---------------------------------------------------------------------------*/
FoamFile
{
    version     2.0;
    format      ascii;
    class       volScalarField;
    location    "0.002";
    object      rhoNMean;
}
// * * * * * * * * * * * * * * * * * * * * * * * * * * * * * * * * * * * * * //

dimensions      [0 -3 0 0 0 0 0];

internalField   nonuniform List<scalar> 
546
(
5.973026437e+19
5.832943898e+19
5.912761986e+19
6.226600161e+19
6.330240991e+19
6.473883059e+19
6.435520466e+19
6.421394629e+19
6.274785024e+19
6.099454262e+19
6.490244987e+19
6.843344531e+19
6.423611707e+19
6.305796497e+19
6.508546614e+19
6.644061821e+19
6.770391058e+19
6.824517005e+19
7.240074728e+19
6.917289835e+19
6.912296477e+19
6.974830425e+19
7.39552898e+19
7.672541892e+19
7.596503553e+19
7.385885342e+19
7.583031682e+19
8.829822868e+19
8.765886504e+19
9.549753451e+19
5.939375588e+19
5.939161783e+19
6.047091195e+19
5.899729458e+19
5.545605425e+19
5.524923586e+19
6.097611643e+19
6.11634587e+19
6.271210327e+19
6.199130317e+19
6.561659469e+19
6.516367113e+19
6.597023391e+19
5.940045418e+19
6.361051218e+19
6.557104259e+19
6.337075864e+19
6.793764388e+19
6.807195009e+19
6.755695277e+19
6.951727723e+19
7.169717349e+19
7.581420221e+19
7.883007258e+19
7.16093983e+19
7.937972725e+19
7.958580225e+19
7.754413659e+19
8.514666443e+19
9.160868801e+19
5.956201011e+19
5.757235405e+19
5.485868311e+19
6.186458145e+19
6.266684359e+19
5.820672916e+19
6.137503652e+19
6.323258788e+19
6.059111636e+19
6.051417607e+19
6.375255561e+19
6.119845992e+19
6.440829884e+19
5.854496861e+19
5.887316027e+19
6.694472002e+19
6.847904919e+19
6.675879378e+19
6.935120661e+19
6.681413906e+19
6.967500208e+19
6.766685895e+19
6.873963651e+19
7.816899547e+19
7.380082828e+19
7.626221887e+19
8.01124016e+19
8.08444821e+19
8.523134535e+19
8.253471292e+19
6.192878678e+19
5.829553961e+19
5.814861036e+19
5.82173926e+19
5.479737638e+19
5.706564905e+19
6.044813389e+19
6.035945421e+19
5.935188797e+19
5.882088399e+19
5.98792278e+19
6.089344362e+19
5.920594818e+19
6.083866184e+19
6.392300246e+19
6.983070286e+19
6.944479566e+19
6.961622392e+19
7.287885317e+19
7.085400313e+19
6.92544023e+19
6.834299729e+19
7.083927126e+19
7.263753387e+19
7.584253324e+19
7.843211452e+19
8.011240167e+19
8.420076589e+19
8.710843914e+19
9.300468393e+19
5.986486778e+19
5.35383343e+19
5.8103075e+19
5.392793136e+19
5.498226841e+19
5.592456899e+19
5.972069129e+19
5.869232727e+19
5.876802077e+19
6.15829916e+19
5.967345726e+19
6.334577435e+19
6.442059759e+19
5.866895207e+19
6.313552707e+19
6.208013757e+19
6.436191955e+19
6.573370684e+19
6.802026301e+19
6.80130664e+19
7.25140514e+19
6.962898567e+19
7.566709397e+19
7.560563524e+19
8.067456843e+19
7.727849897e+19
7.688351539e+19
8.413084346e+19
8.463857899e+19
9.424398718e+19
5.407692112e+19
5.591128715e+19
5.500667296e+19
5.562536527e+19
5.785965072e+19
5.602936206e+19
5.391288339e+19
5.453042171e+19
5.632531107e+19
5.745183928e+19
5.905614559e+19
5.664761746e+19
6.492484424e+19
6.392584878e+19
6.187306647e+19
6.243300884e+19
6.436191949e+19
6.655377637e+19
6.697359863e+19
6.498968437e+19
6.552157818e+19
6.993391102e+19
7.307264121e+19
7.455330841e+19
7.748950802e+19
7.535580676e+19
8.321656706e+19
8.597679932e+19
8.892907859e+19
8.750616807e+19
5.441342957e+19
5.464571226e+19
5.446024898e+19
5.562536519e+19
5.603384185e+19
5.666976416e+19
5.564935929e+19
5.239035095e+19
5.769561164e+19
5.723567437e+19
6.010920669e+19
5.818489943e+19
6.005455862e+19
6.385145883e+19
6.459798132e+19
6.5142556e+19
6.52768372e+19
6.588746979e+19
6.211500862e+19
6.547186213e+19
6.603418476e+19
7.220096317e+19
7.235047357e+19
7.400016277e+19
7.591059099e+19
7.240310128e+19
7.95165132e+19
8.164159961e+19
8.290262059e+19
9.230668719e+19
5.153067315e+19
5.219366111e+19
5.863811515e+19
5.639379815e+19
5.448537107e+19
5.78690626e+19
5.771435765e+19
5.134987456e+19
5.569378129e+19
5.865275569e+19
5.853566716e+19
6.023460853e+19
6.012835078e+19
6.081386516e+19
6.583544286e+19
6.060563993e+19
6.331992978e+19
6.087735656e+19
6.361393487e+19
5.899504705e+19
6.510097774e+19
7.340740475e+19
6.851228704e+19
7.248912874e+19
7.521640999e+19
7.421592421e+19
7.692508835e+19
7.786577982e+19
7.811814791e+19
9.461435265e+19
5.251776488e+19
5.196766561e+19
5.809169117e+19
5.935283815e+19
5.80098755e+19
5.542389098e+19
5.841833436e+19
5.715525988e+19
5.300084274e+19
5.609480378e+19
5.763996e+19
5.894133973e+19
5.793918203e+19
5.948724271e+19
5.956063883e+19
5.962264088e+19
6.126136493e+19
5.881436938e+19
6.00992103e+19
6.132774275e+19
6.389175357e+19
7.079565614e+19
7.078577756e+19
7.200343943e+19
7.546141458e+19
7.76767711e+19
7.979367079e+19
8.348755561e+19
9.034042724e+19
9.942911585e+19
5.20690868e+19
5.213716219e+19
5.464239032e+19
5.911198606e+19
5.640362592e+19
5.509786805e+19
5.547336502e+19
5.787649928e+19
5.191651791e+19
5.903704871e+19
5.684108649e+19
5.912434939e+19
5.661092198e+19
5.771427978e+19
5.802318664e+19
6.182808677e+19
6.352324534e+19
6.031355918e+19
6.150768459e+19
6.316522983e+19
6.788745262e+19
7.057027611e+19
7.296565319e+19
7.109951767e+19
7.5638363e+19
8.043720798e+19
7.774270392e+19
8.425670395e+19
8.960652594e+19
1.005544588e+20
5.105956121e+19
5.116538143e+19
5.871780167e+19
5.715076171e+19
5.74436436e+19
5.605264949e+19
5.659972811e+19
5.799473541e+19
5.617040761e+19
5.764398581e+19
5.388767349e+19
5.809949479e+19
5.631575359e+19
5.54825783e+19
6.259804417e+19
6.071906279e+19
6.113429253e+19
5.930128524e+19
6.124924894e+19
6.152322005e+19
6.197276653e+19
6.773314742e+19
6.938156319e+19
6.942658784e+19
7.235802307e+19
7.668795789e+19
8.141504271e+19
8.088643579e+19
9.331837374e+19
1.047282044e+20
5.037532737e+19
5.090548697e+19
5.534818814e+19
5.224196684e+19
5.552538872e+19
5.307186848e+19
5.19417482e+19
5.437671439e+19
5.664703347e+19
5.709156472e+19
5.46865482e+19
5.92829583e+19
5.55040393e+19
5.356083537e+19
5.907315383e+19
6.10845366e+19
6.140114453e+19
5.608507511e+19
6.049978556e+19
6.525032043e+19
6.038237265e+19
6.21782063e+19
6.748252927e+19
6.927818278e+19
7.042521029e+19
7.585021403e+19
7.887905074e+19
8.048088485e+19
8.784234013e+19
9.940062523e+19
5.122781532e+19
5.080378844e+19
5.088572587e+19
5.353798051e+19
5.226666663e+19
5.360747791e+19
5.296251522e+19
5.59729006e+19
5.384685448e+19
5.650311526e+19
5.636902413e+19
5.736745535e+19
5.177753238e+19
5.308969839e+19
5.564826086e+19
5.833718128e+19
6.032103284e+19
6.031355918e+19
6.064192516e+19
6.843008497e+19
6.030351118e+19
6.152858429e+19
6.300241792e+19
6.740288241e+19
7.36374915e+19
7.635835281e+19
7.635691597e+19
8.489999165e+19
8.579588458e+19
9.495622926e+19
5.69596773e+19
5.032919825e+19
5.081742289e+19
5.33888812e+19
5.498226837e+19
5.551704013e+19
5.374862175e+19
5.830214845e+19
5.874418955e+19
5.805229737e+19
5.613904529e+19
5.341444523e+19
5.251545445e+19
5.66604203e+19
5.698571907e+19
5.890429628e+19
6.190943164e+19
6.124895061e+19
6.155937172e+19
6.784365252e+19
6.226192843e+19
6.270851136e+19
6.487470375e+19
6.880598484e+19
7.770729002e+19
7.232069954e+19
7.34329034e+19
8.105424925e+19
8.286027939e+19
9.695051039e+19
5.276453799e+19
5.518810194e+19
5.208102854e+19
5.111799038e+19
5.16426564e+19
5.570333934e+19
5.778475532e+19
5.74981444e+19
5.61465763e+19
5.942134204e+19
5.442025649e+19
5.3890271e+19
5.534415618e+19
5.651164065e+19
6.071060314e+19
6.194150968e+19
6.460335601e+19
6.23381061e+19
5.901378106e+19
6.810428948e+19
6.445693469e+19
6.586382391e+19
6.467410169e+19
6.881947621e+19
7.381443991e+19
7.499873598e+19
7.820001464e+19
8.383716849e+19
8.222517323e+19
8.958591828e+19
5.247289689e+19
5.213716189e+19
5.2024109e+19
5.091154573e+19
5.122664895e+19
5.204722551e+19
5.483978648e+19
5.568913431e+19
6.019790018e+19
5.950540664e+19
5.488021374e+19
5.626939687e+19
5.368383107e+19
5.59909103e+19
5.80981843e+19
5.903032174e+19
6.174423867e+19
6.650252224e+19
6.212793015e+19
6.102801141e+19
6.124986096e+19
6.480321483e+19
6.856578151e+19
6.609421956e+19
6.758043352e+19
7.337817969e+19
8.213565172e+19
8.140386285e+19
8.644510496e+19
5.286549017e+19
5.33010391e+19
5.443748163e+19
5.634792164e+19
5.142309673e+19
5.12321679e+19
5.444086552e+19
6.025304122e+19
5.454987783e+19
5.617886827e+19
5.757943997e+19
5.7550466e+19
5.415118215e+19
5.539578991e+19
5.70357175e+19
5.787088711e+19
6.126136493e+19
6.786076258e+19
6.255434897e+19
6.359527935e+19
6.130243492e+19
6.946989361e+19
7.210975049e+19
7.119395787e+19
5.324686689e+19
5.996790641e+19
5.25249972e+19
5.311362166e+19
5.895744708e+19
5.219859328e+19
5.615387635e+19
5.782920507e+19
5.910165926e+19
5.925321375e+19
5.737366854e+19
5.581797326e+19
5.568851982e+19
5.963602271e+19
5.967313556e+19
5.88034764e+19
6.645860581e+19
6.48880096e+19
6.370438761e+19
5.404327042e+19
5.751585521e+19
5.649795511e+19
5.711635452e+19
5.784809488e+19
5.591292506e+19
5.723330646e+19
5.636307882e+19
5.842246681e+19
6.101856081e+19
5.82572719e+19
5.79774883e+19
5.568851938e+19
6.216528438e+19
5.851883349e+19
5.961761295e+19
5.713544925e+19
5.496015479e+19
5.929256433e+19
6.173476279e+19
6.123424122e+19
5.755726238e+19
5.480602309e+19
5.139137749e+19
)
;

boundaryField
{
    flow
    {
        type            calculated;
        value           nonuniform List<scalar> 
15
(
9.549753451e+19
9.160868801e+19
8.253471292e+19
9.300468393e+19
9.424398718e+19
8.750616807e+19
9.230668719e+19
9.461435265e+19
9.942911585e+19
1.005544588e+20
1.047282044e+20
9.940062523e+19
9.495622926e+19
9.695051039e+19
8.958591828e+19
)
;
    }
    obstacle
    {
        type            calculated;
        value           nonuniform List<scalar> 
30
(
20.97273532
24.18169576
22.78706356
25.72841063
24.10322488
27.12743209
30.68323228
25.17317344
23.10012838
22.7087447
23.56159788
28.42990631
28.37176038
31.39775863
26.19379823
23.48262152
29.99515697
33.55083737
31.30623746
28.36715929
27.14595399
28.71393991
29.27631586
36.96845527
30.46292484
28.21870574
32.47248922
33.85507161
37.26429287
34.9511596
)
;
    }
    frontAndBack
    {
        type            empty;
    }
    procBoundary1to0
    {
        type            processor;
        value           nonuniform List<scalar> 
21
(
5.707971364e+19
5.552076712e+19
5.634478171e+19
5.851617152e+19
5.815984092e+19
5.349413667e+19
5.250309205e+19
5.167907745e+19
5.351640729e+19
5.312667066e+19
4.904000369e+19
4.642320078e+19
5.072143887e+19
5.22024377e+19
5.037624357e+19
5.064349154e+19
4.968585296e+19
5.175702478e+19
4.981947731e+19
5.625569905e+19
5.515330115e+19
)
;
    }
    procBoundary1to3
    {
        type            processor;
        value           nonuniform List<scalar> 
36
(
9.267705268e+19
7.674088435e+19
7.634462064e+19
7.937793441e+19
8.084448225e+19
9.267705268e+19
8.702375791e+19
6.665775694e+19
6.456208466e+19
6.679185686e+19
6.698771203e+19
7.674088435e+19
6.802348541e+19
6.081059953e+19
6.041660122e+19
6.559451686e+19
5.957037108e+19
6.665775694e+19
6.79168887e+19
5.906591229e+19
6.157098234e+19
5.885037477e+19
5.78066792e+19
5.754562373e+19
6.081059953e+19
6.003276964e+19
5.623612699e+19
5.934136914e+19
6.028635857e+19
6.450595734e+19
5.972069173e+19
5.906591229e+19
5.946086124e+19
5.720645022e+19
5.623612699e+19
5.56174926e+19
)
;
    }
}


// ************************************************************************* //
