/*--------------------------------*- C++ -*----------------------------------*\
  =========                 |
  \\      /  F ield         | OpenFOAM: The Open Source CFD Toolbox
   \\    /   O peration     | Website:  https://openfoam.org
    \\  /    A nd           | Version:  7
     \\/     M anipulation  |
\*---------------------------------------------------------------------------*/
FoamFile
{
    version     2.0;
    format      ascii;
    class       volScalarField;
    location    "0.002";
    object      translationalT;
}
// * * * * * * * * * * * * * * * * * * * * * * * * * * * * * * * * * * * * * //

dimensions      [1 2 -2 0 0 0 0];

internalField   nonuniform List<scalar> 
546
(
748.0978521
768.0624849
770.4032108
752.0136594
769.9040701
782.1278312
757.645647
770.9936003
743.4879914
790.5819905
772.0948053
781.554404
774.742974
787.2009482
782.5845992
798.3340436
798.1245692
806.4658842
750.2907118
776.3045106
839.4945474
806.7069582
745.4698788
706.7832382
762.2125203
791.7163056
753.9131555
740.9299775
720.8256122
659.4361427
839.7236651
812.4534178
816.9792031
813.7551226
869.3629109
870.1623065
826.5152793
826.4608948
843.2812894
860.7985976
839.5859813
824.6123625
808.2152886
906.4621419
885.074784
844.768086
888.8895933
876.0664262
861.3776991
856.2028294
833.2438432
846.9090296
838.9932676
867.5963094
870.1972171
805.6936598
857.1419266
852.8665681
793.3648942
738.8324931
860.0382405
879.678397
905.637078
843.9214258
865.0277955
884.8986134
859.5971454
914.8857867
901.8798047
926.8871261
902.9146584
897.7108053
912.7829458
932.3722054
917.9276084
882.5504396
913.9294411
911.7082011
914.2770147
910.8651677
944.7915004
955.2844781
928.2806674
836.4328346
872.1933088
865.5852094
851.4380349
868.3130085
840.3052438
805.9624764
823.0593804
866.5823092
886.6926054
898.6342808
929.2050361
948.4768785
923.1331891
948.5060627
929.2996853
927.4338828
938.9518418
934.2416315
976.9612492
996.8593362
989.1051506
940.4497413
952.3903067
965.3276368
953.0035153
958.5443523
936.0121385
953.6737021
925.6526285
904.1243873
894.8834616
890.0321227
882.9351297
887.4849593
863.6971406
788.7369747
824.1198115
871.6573967
858.0190638
861.5508461
907.1213511
911.8460966
886.8457612
924.2529031
923.0869851
902.4492574
967.6556478
961.8008232
946.0392847
970.6059362
1005.571318
988.3887049
981.3094977
963.1345004
959.332992
952.784901
907.1797087
919.8191139
918.2769857
918.5596995
907.3866777
913.1425887
923.7875356
875.3309929
872.7155802
824.1593103
810.8751705
827.6087541
856.0983624
900.803192
885.8388333
898.6849375
925.9356372
948.9705767
966.7188456
1001.429224
980.7096448
952.216
930.7742844
969.5746013
994.8125054
1019.06631
1008.816194
982.2475175
1000.492468
981.2415697
989.0676998
939.7425072
953.9178156
934.7734935
939.0498723
949.2263883
911.9229868
848.4399228
847.2854863
861.3434725
872.4148016
882.9745637
866.9385543
874.3014243
890.7133124
890.5064419
948.2785957
1030.476178
974.1347187
972.020092
980.7870707
993.7305186
976.6050197
938.7001182
1012.757647
1004.152998
1026.80122
1048.721125
1060.8152
1002.505385
1009.701853
948.6285622
994.542553
983.2593113
991.2786407
1007.300394
937.912707
917.7373257
929.4124588
882.2901752
887.0913935
894.3968384
851.5912535
869.5841912
909.9828652
934.590142
946.0512417
1034.644848
1032.729667
1012.323332
1004.287764
998.2534863
991.0285574
997.0610821
997.2532156
1056.232161
1006.061742
1044.466639
1043.873508
1056.16812
1020.975857
998.1670371
1008.663236
964.1619133
964.657634
973.0237793
951.8215928
962.6002173
940.5635651
870.0514963
836.5097102
868.4449995
855.2153534
887.7985139
858.2994659
971.5697304
981.8460299
959.1568269
982.5410405
994.8282585
992.1758926
997.5701624
1036.129998
1023.366267
1015.091181
1033.823463
1042.198521
1075.21214
1057.824998
1033.788016
998.7377511
952.012866
1006.602348
1007.511858
983.0079864
951.4277493
983.3442842
976.5224349
928.1849549
867.599603
906.8871175
937.7358859
892.4515762
868.4072547
931.2064155
948.5594106
959.3043569
913.9569008
999.4875109
933.0045899
954.6975502
958.246818
984.5614363
1017.644409
1056.647306
1023.129288
1015.227485
1020.330677
1015.221641
1057.29748
1025.481802
1008.235362
1006.453795
1018.15951
992.5148646
948.3142752
990.3037058
960.834318
922.6910962
843.8306902
848.7725809
845.4297914
827.5362961
845.5935888
847.7772102
895.6314695
913.5399861
922.8453198
950.9857256
944.3221997
991.4793704
969.6228677
997.1949771
1013.025692
969.9526075
1015.598403
1025.629751
1075.271886
1071.577318
1067.180373
1052.22286
1037.700147
1010.045149
1000.017284
992.9168981
959.9323612
946.3939127
975.3224804
950.1348167
854.3025993
823.8420303
851.879218
805.7384523
841.3084091
877.3582381
921.1274295
938.2459642
918.069724
909.5949858
940.1914857
946.0343196
910.3025071
985.132137
993.2019841
946.1657722
972.0711244
994.083713
1060.97545
1066.209244
1001.937986
1046.179148
1014.948341
1027.888586
1018.493637
1007.547447
1005.827682
969.4382648
952.7132377
956.5455944
907.6813388
843.3122921
852.6192189
867.4333217
889.382236
913.7646159
919.8388468
940.443842
893.3166638
905.9806615
892.5530687
897.4648118
955.7208809
995.1623593
1037.302347
1029.242641
997.3816058
995.6495967
1018.280958
1043.945115
965.1255631
1062.410957
1084.002888
1059.744159
1034.655248
993.0278661
959.0935484
983.8018731
932.0316943
944.7128918
896.0324833
778.1377759
833.5551114
889.407474
869.0858922
842.871318
844.0718798
891.6670278
866.3339717
877.0364532
913.8913674
952.6788396
978.2176352
1028.949272
957.9597543
987.1054399
1006.294501
994.4756703
1003.548631
1011.257633
1003.817812
1060.207507
1054.417449
1025.169419
1000.755941
977.4293543
990.3023936
974.2375798
921.9772916
953.6839382
913.0083897
851.5489347
816.1199503
854.9076969
876.6072584
901.5796584
840.5936979
866.8452323
871.2394552
890.6248785
862.8573425
907.2868247
953.601007
941.3668694
970.4067972
958.5617213
979.1835567
967.9307701
969.8732591
1024.141681
900.75072
1013.644281
986.0812056
1020.199446
1018.447777
945.4577
964.1351234
936.617984
911.41033
941.4574649
892.8148429
797.7172919
856.6731155
845.6226206
884.7041094
914.1642596
862.1423197
896.5898028
889.1386914
887.2052764
903.9215452
916.7817794
952.0618899
1005.599488
1002.216129
983.8654729
979.3188641
936.0624263
921.9575612
955.0829962
997.1853337
998.6140112
984.3247925
929.0414365
957.8795545
999.8115232
974.6558267
937.5049904
944.2040488
915.161982
859.7604929
847.2031624
834.2139741
828.4005818
857.2371055
877.3561045
893.0175169
881.7933149
916.9642791
913.1287631
916.9379519
932.4902792
959.0703804
950.6396129
973.2184766
985.0391242
946.2117054
930.1078208
1018.356099
975.9233367
979.4077406
930.0959235
928.9539015
932.0564079
847.1507105
799.6645611
829.4505024
839.8874712
790.4991542
891.4226203
866.1585742
887.864576
868.8686171
872.7684598
905.9974946
942.5097416
945.8384402
901.2353436
933.9946068
950.8727864
902.5564991
926.1831346
934.7796749
806.4473533
786.1897044
791.2197275
781.4935435
801.660111
798.806399
819.3489708
841.6953602
840.3477473
858.3703024
910.5994122
914.1830481
962.7080051
901.6017741
769.8564465
727.7595566
782.2861693
819.5190166
791.130637
786.4789829
809.1227387
860.5592914
749.0723074
785.1373893
)
;

boundaryField
{
    flow
    {
        type            calculated;
        value           nonuniform List<scalar> 
15
(
659.4361427
738.8324931
805.9624764
788.7369747
824.1593103
861.3434725
882.2901752
870.0514963
867.599603
843.8306902
854.3025993
907.6813388
896.0324833
913.0083897
892.8148429
)
;
    }
    obstacle
    {
        type            calculated;
        value           nonuniform List<scalar> 
30
(
757.1994673
679.6112417
613.1055434
712.4135066
650.7324447
716.5051648
672.2588192
691.1017459
742.5438729
732.5708363
672.610529
706.1770356
736.103001
660.8954363
696.2692684
741.3239828
707.8207659
651.0239346
755.693799
742.5074747
835.2272648
685.4627968
754.9742651
667.828948
634.8988538
708.6845385
662.8413496
699.6120603
648.9598087
650.3346477
)
;
    }
    frontAndBack
    {
        type            empty;
    }
    procBoundary1to0
    {
        type            processor;
        value           nonuniform List<scalar> 
21
(
747.3252166
848.1514583
874.75294
865.4149706
816.7216169
792.5022767
851.8200912
815.9714724
805.4461806
836.0369862
868.4907071
855.2444434
846.9028181
797.8346287
883.7260763
819.9693231
848.7462036
827.1249039
818.389096
785.0741233
749.7012209
)
;
    }
    procBoundary1to3
    {
        type            processor;
        value           nonuniform List<scalar> 
36
(
907.6167614
899.9005408
895.679132
851.0553959
886.1481866
907.6167614
882.2615282
909.9950474
929.1988787
932.7503769
935.4531594
899.9005408
948.6741515
909.5815227
931.6667746
868.3637367
931.3855106
909.9950474
915.5800334
875.712586
830.6390423
867.0226059
868.2861705
860.0267944
909.5815227
861.7032821
772.9245232
770.8600781
793.2867741
778.2625777
832.7049242
875.712586
832.0467641
796.8662993
772.9245232
813.0221862
)
;
    }
}


// ************************************************************************* //
