/*--------------------------------*- C++ -*----------------------------------*\
  =========                 |
  \\      /  F ield         | OpenFOAM: The Open Source CFD Toolbox
   \\    /   O peration     | Website:  https://openfoam.org
    \\  /    A nd           | Version:  7
     \\/     M anipulation  |
\*---------------------------------------------------------------------------*/
FoamFile
{
    version     2.0;
    format      ascii;
    class       surfaceScalarField;
    location    "0.25";
    object      alphaPhi0.water;
}
// * * * * * * * * * * * * * * * * * * * * * * * * * * * * * * * * * * * * * //

dimensions      [0 3 -1 0 0 0 0];

internalField   nonuniform List<scalar> 
3742
(
1.91705e-14
5.45356e-14
1.2564e-14
3.51989e-14
6.74956e-15
1.60437e-14
3.05517e-15
4.93195e-15
5.87674e-16
9.04419e-16
-5.56008e-16
-4.96332e-17
-6.53607e-16
-2.32322e-16
-6.2852e-16
-1.71665e-16
-6.063e-16
-7.56973e-17
-5.57106e-16
-1.72859e-17
-4.36231e-16
2.20491e-17
-3.12363e-16
3.78449e-17
-2.15281e-16
3.9408e-17
-1.44744e-16
3.44041e-17
-9.61017e-17
2.73711e-17
-6.32958e-17
2.09787e-17
-4.28336e-17
1.60428e-17
-3.38153e-17
1.31235e-17
-3.3029e-17
1.26206e-17
-3.88415e-17
1.46046e-17
-8.14668e-17
2.58362e-17
-2.68345e-16
7.75874e-17
-1.31165e-15
3.31623e-16
-7.8409e-15
1.71907e-15
6.28221e-15
3.12305e-24
1.23918e-22
2.1466e-22
3.35708e-21
2.69312e-21
4.28381e-20
2.07985e-20
3.54292e-19
1.12036e-19
2.08242e-18
4.76946e-19
8.7868e-18
1.32601e-18
2.57961e-17
1.39614e-18
4.49013e-17
4.32625e-18
3.73984e-17
4.61578e-17
5.51909e-17
1.87675e-16
1.08036e-16
9.22475e-17
1.89364e-16
1.13329e-16
3.73087e-16
3.40986e-16
9.6501e-16
1.05953e-15
2.56242e-15
2.90348e-15
6.18831e-15
6.65322e-15
1.29513e-14
1.22176e-14
2.26062e-14
1.74224e-14
3.18846e-14
1.88302e-14
3.54151e-14
1.49875e-14
3.01762e-14
8.48364e-15
1.90375e-14
3.27749e-15
8.43762e-15
7.69632e-16
2.40664e-15
-5.43347e-17
3.53028e-16
-2.37576e-16
-3.03803e-17
-2.60533e-16
-6.21697e-17
-2.30576e-16
-3.61157e-17
-1.91801e-16
-1.43747e-17
-1.49966e-16
-1.81446e-18
-1.03128e-16
4.96855e-18
-6.91218e-17
6.80392e-18
-4.55926e-17
6.61657e-18
-2.95077e-17
5.60437e-18
-1.91591e-17
4.41063e-18
-1.25634e-17
3.41404e-18
-8.56338e-18
2.67507e-18
-6.99227e-18
2.26717e-18
-6.81978e-18
2.26332e-18
-8.18119e-18
2.75447e-18
-1.65392e-17
5.23821e-18
-5.29069e-17
1.62938e-17
-2.26791e-16
7.02139e-17
-1.03867e-15
3.54631e-16
1.83276e-15
2.56239e-23
1.0412e-22
6.8595e-22
2.63919e-21
8.13948e-21
3.18702e-20
6.06611e-20
2.43861e-19
3.07714e-19
1.28714e-18
1.0626e-18
4.73136e-18
2.16318e-18
1.15772e-17
2.11129e-18
1.69596e-17
3.66796e-18
1.50667e-17
8.49002e-18
2.14135e-17
1.76498e-17
3.79406e-17
4.13044e-17
7.84314e-17
1.26937e-16
2.05898e-16
4.00327e-16
5.81278e-16
1.14774e-15
1.53189e-15
2.85126e-15
3.57002e-15
5.9113e-15
7.11821e-15
9.9202e-15
1.18134e-14
1.31519e-14
1.59504e-14
1.34436e-14
1.71527e-14
1.02508e-14
1.43205e-14
5.55048e-15
8.94101e-15
1.96417e-15
3.92877e-15
3.65562e-16
1.08284e-15
-3.1572e-17
1.34488e-16
-7.24984e-17
-1.5086e-17
-6.92745e-17
-1.17895e-17
-5.44028e-17
-4.79031e-18
-4.1137e-17
-1.87647e-18
-2.7915e-17
-6.7984e-20
-1.7688e-17
7.17283e-19
-1.14108e-17
8.83729e-19
-7.42717e-18
8.38571e-19
-4.81806e-18
7.21887e-19
-3.17307e-18
5.89538e-19
-2.12115e-18
4.75657e-19
-1.48785e-18
3.88008e-19
-1.28051e-18
3.46196e-19
-1.25553e-18
3.5985e-19
-1.57791e-18
4.64623e-19
-3.25485e-18
9.44553e-19
-1.02554e-17
3.04179e-18
-4.34171e-17
1.3238e-17
-2.26927e-16
7.12397e-17
4.2555e-16
3.49127e-23
6.5355e-23
8.33863e-22
1.5662e-21
9.24505e-21
1.77885e-20
6.28455e-20
1.2545e-19
2.80986e-19
5.95552e-19
8.11438e-19
1.921e-18
1.38086e-18
4.05761e-18
1.4141e-18
5.30994e-18
2.30949e-18
5.02157e-18
4.69886e-18
7.19097e-18
1.11598e-17
1.35973e-17
3.36948e-17
3.3768e-17
1.09554e-16
9.83556e-17
3.33044e-16
2.80332e-16
8.97066e-16
7.20562e-16
2.07242e-15
1.61355e-15
3.99784e-15
3.07324e-15
6.30061e-15
4.88218e-15
7.95227e-15
6.35888e-15
7.84877e-15
6.66651e-15
5.84883e-15
5.48847e-15
3.1071e-15
3.41709e-15
1.05372e-15
1.51006e-15
1.65095e-16
4.17988e-16
-1.77746e-17
4.99084e-17
-1.75226e-17
-5.87615e-18
-1.10313e-17
-1.57023e-18
-8.66845e-18
-4.90382e-19
-5.76432e-18
-1.58741e-19
-3.56076e-18
6.13662e-21
-2.23045e-18
6.94421e-20
-1.45053e-18
8.60511e-20
-9.71553e-19
8.5263e-20
-6.57453e-19
7.80996e-20
-4.51578e-19
6.82139e-20
-3.11887e-19
5.8201e-20
-2.2834e-19
4.98289e-20
-2.09668e-19
4.71615e-20
-2.08027e-19
5.12366e-20
-2.78343e-19
7.11459e-20
-6.02711e-19
1.56253e-19
-1.94763e-18
5.28311e-19
-8.34354e-18
2.33587e-18
-4.22393e-17
1.20725e-17
6.31485e-17
2.8292e-23
2.91059e-23
6.30121e-22
6.608e-22
6.47961e-21
7.04053e-21
3.99404e-20
4.57843e-20
1.57697e-19
1.96813e-19
3.94337e-19
5.66504e-19
5.99001e-19
1.06757e-18
6.4992e-19
1.30713e-18
1.06071e-18
1.32439e-18
2.27784e-18
1.98699e-18
6.41508e-18
4.17434e-18
2.11871e-17
1.16248e-17
6.85323e-17
3.50478e-17
2.00247e-16
9.8672e-17
5.1096e-16
2.45832e-16
1.11247e-15
5.28782e-16
2.02844e-15
9.64793e-16
3.04807e-15
1.47206e-15
3.71089e-15
1.85318e-15
3.57748e-15
1.8935e-15
2.63626e-15
1.53341e-15
1.39848e-15
9.48219e-16
4.73616e-16
4.20105e-16
7.10644e-17
1.17504e-16
-7.17326e-18
1.43858e-17
-3.27455e-18
-1.25495e-18
-1.39404e-18
-1.52719e-19
-9.28991e-19
-4.24547e-20
-5.34371e-19
-1.01048e-20
-3.20636e-19
9.51176e-22
-2.13524e-19
4.90036e-21
-1.49579e-19
6.71566e-21
-1.07454e-19
7.43233e-21
-7.77635e-20
7.43004e-21
-5.63795e-20
6.99252e-21
-4.06753e-20
6.31846e-21
-3.162e-20
5.72673e-21
-3.0336e-20
5.74616e-21
-3.1324e-20
6.59939e-21
-4.53531e-20
1.0009e-20
-1.05487e-19
2.41124e-20
-3.55893e-19
8.61629e-20
-1.52734e-18
3.83274e-19
-7.27341e-18
1.87975e-18
8.96755e-18
1.47575e-23
8.25066e-24
3.08796e-22
1.77527e-22
2.94311e-21
1.77572e-21
1.65173e-20
1.06985e-20
5.84557e-20
4.21017e-20
1.30776e-19
1.10241e-19
1.86011e-19
1.90897e-19
2.15956e-19
2.26992e-19
3.68073e-19
2.48552e-19
8.73891e-19
3.96044e-19
2.74259e-18
8.98387e-19
9.30817e-18
2.62135e-18
2.95067e-17
7.89635e-18
8.28817e-17
2.17117e-17
2.0146e-16
5.23722e-17
4.1674e-16
1.08677e-16
7.24028e-16
1.90742e-16
1.04364e-15
2.79641e-16
1.22955e-15
3.38757e-16
1.15835e-15
3.33949e-16
8.42821e-16
2.61737e-16
4.45946e-16
1.57186e-16
1.51969e-16
6.78364e-17
2.33115e-17
1.85341e-17
-1.5604e-18
2.25756e-18
-3.74135e-19
-1.28211e-19
-1.46704e-19
-1.10102e-20
-7.47918e-20
-2.71643e-21
-3.57303e-20
-4.81745e-22
-2.21166e-20
6.22968e-23
-1.67047e-20
2.87735e-22
-1.32495e-20
4.60541e-22
-1.0438e-20
5.7989e-22
-8.14368e-21
6.33023e-22
-6.24336e-21
6.39812e-22
-4.73895e-21
6.11611e-22
-4.02105e-21
5.91903e-22
-3.89318e-21
6.30046e-22
-4.31458e-21
7.73701e-22
-6.87492e-21
1.30185e-21
-1.7405e-20
3.46526e-21
-6.12829e-20
1.30129e-20
-2.59805e-19
5.75674e-20
-1.1608e-18
2.67629e-19
1.1856e-18
4.64698e-24
1.12612e-24
9.15442e-23
2.3002e-23
8.11745e-22
2.16806e-22
4.18781e-21
1.21929e-21
1.35295e-20
4.44676e-21
2.78824e-20
1.07811e-20
3.85656e-20
1.75423e-20
4.8392e-20
2.05849e-20
8.74987e-20
2.35868e-20
2.23814e-19
3.81133e-20
7.33629e-19
8.80617e-20
2.47796e-18
2.55224e-19
7.637e-18
7.34091e-19
2.06673e-17
1.89047e-18
4.82131e-17
4.42244e-18
9.54327e-17
9.3005e-18
1.58473e-16
1.64904e-17
2.18673e-16
2.39355e-17
2.4732e-16
2.84293e-17
2.2443e-16
2.71825e-17
1.5789e-16
2.04953e-17
8.10517e-17
1.18236e-17
2.68871e-17
4.9024e-18
4.0923e-18
1.287e-18
-1.66068e-19
1.52015e-19
-3.00689e-20
-5.77337e-21
-1.08096e-20
-2.61773e-22
-4.19196e-21
-6.21409e-23
-1.75655e-21
-1.12295e-23
-1.28747e-21
2.63603e-24
-1.1613e-21
1.57063e-23
-1.04875e-21
2.94979e-23
-9.06811e-22
4.08651e-23
-7.61843e-22
4.84327e-23
-6.16444e-22
5.23406e-23
-4.9592e-22
5.30872e-23
-4.61337e-22
5.51814e-23
-4.54233e-22
6.22537e-23
-5.47092e-22
8.31432e-23
-9.71816e-22
1.56923e-22
-2.68251e-21
4.60335e-22
-9.77196e-21
1.79624e-21
-4.05433e-20
7.84111e-21
-1.70332e-19
3.4613e-20
1.43417e-19
6.81894e-25
-3.2784e-39
1.26945e-23
-6.5969e-37
1.05442e-22
-6.76501e-35
5.05822e-22
-4.73895e-33
1.51748e-21
-2.54236e-31
2.94519e-21
-1.08742e-29
4.0261e-21
-2.97228e-28
5.29017e-21
-2.87329e-27
9.699e-21
-5.69421e-26
2.52475e-20
-1.41613e-24
8.20723e-20
-3.23843e-23
2.64118e-19
-6.73892e-22
7.6036e-19
-1.28109e-20
1.98949e-18
-1.34446e-19
4.68792e-18
-4.33343e-19
9.34088e-18
-6.58116e-19
1.53007e-17
-6.71224e-19
2.06239e-17
-5.93991e-19
2.254e-17
-2.42249e-19
1.9605e-17
-4.87689e-20
1.32021e-17
-4.45371e-21
6.48909e-18
-2.69895e-22
2.06176e-18
-2.15508e-22
3.03418e-19
-2.61813e-22
-7.8713e-21
-1.72654e-22
-7.73109e-22
-3.594e-23
-2.62809e-22
-1.52044e-24
-8.9957e-23
-5.87576e-25
-6.28101e-23
-2.41313e-25
-7.02779e-23
8.94304e-26
-7.67243e-23
8.31122e-25
-7.53803e-23
1.7493e-24
-7.07574e-23
2.58047e-24
-6.38408e-23
3.32812e-24
-5.47917e-23
3.83362e-24
-4.78345e-23
4.15773e-24
-4.62345e-23
4.61707e-24
-4.83749e-23
5.58508e-24
-6.40998e-23
8.21527e-24
-1.27839e-22
1.75018e-23
-3.82018e-22
5.60544e-23
-1.42454e-21
2.24611e-22
-5.75671e-21
9.63435e-22
-2.28357e-20
4.05284e-21
1.58058e-20
-3.27256e-39
-5.84129e-42
-6.61845e-37
-1.11766e-39
-6.82028e-35
-1.09147e-37
-4.79991e-33
-7.24479e-36
-2.58668e-31
-3.67959e-34
-1.11176e-29
-1.52246e-32
-3.07812e-28
-5.33157e-31
-3.1649e-27
-1.62046e-29
-5.9672e-26
-4.34096e-28
-1.46525e-24
-1.04865e-26
-3.3619e-23
-2.29792e-25
-7.02898e-22
-4.58441e-24
-1.98789e-20
-4.23461e-23
-1.48768e-19
-8.43491e-22
-3.49158e-19
-1.74447e-20
-4.22125e-19
-8.92311e-20
-4.13614e-19
-8.70512e-20
-2.8577e-19
-7.91559e-20
-7.06074e-20
-7.20558e-20
-6.17548e-21
-4.35911e-20
-1.46388e-23
-3.64363e-21
-7.26319e-23
-2.11902e-22
-4.35562e-22
-2.39028e-23
-3.7068e-22
-6.47946e-25
-9.25002e-23
-2.07847e-25
-4.15344e-24
-6.04322e-26
-1.95157e-24
-2.74235e-26
-1.77424e-24
-1.71399e-26
-2.54888e-24
-1.38679e-26
-3.82501e-24
3.26043e-27
-4.62631e-24
4.0266e-26
-4.90814e-24
9.10233e-26
-5.04562e-24
1.47051e-25
-4.79206e-24
2.0476e-25
-4.39338e-24
2.51829e-25
-4.18737e-24
2.92856e-25
-4.16352e-24
3.48047e-25
-4.71194e-24
4.55951e-25
-6.95052e-24
7.47471e-25
-1.5572e-23
1.79884e-24
-4.97841e-23
6.20951e-24
-1.88234e-22
2.53042e-23
-7.39798e-22
1.06491e-22
-2.78572e-21
4.28953e-22
1.58503e-21
-6.29978e-42
4.5849e-43
-1.1253e-39
1.33499e-42
-1.10266e-37
-5.66587e-42
-7.35468e-36
-3.58373e-40
-3.75298e-34
-1.71763e-38
-1.55994e-32
-6.67423e-37
-5.48741e-31
-2.18341e-35
-1.67497e-29
-6.04301e-34
-4.50481e-28
-1.55527e-32
-1.09614e-26
-3.80193e-31
-2.41277e-25
-8.40931e-30
-4.82945e-24
-1.68542e-28
-4.72838e-23
-1.87538e-27
-1.04991e-21
-4.2542e-26
-1.59664e-20
-3.42582e-25
-6.00157e-20
-9.58278e-25
-3.1875e-20
-1.36455e-24
-3.38418e-20
-1.37749e-24
-4.25113e-20
-8.23293e-25
-7.70867e-21
-3.31094e-25
-5.02816e-22
-1.65204e-25
-3.93323e-23
-1.22793e-25
-2.05377e-24
-7.0171e-26
-3.81679e-25
-2.95951e-26
-1.21324e-25
-9.14307e-27
-5.96775e-26
-2.50526e-27
-5.77389e-26
-1.1628e-27
-7.70382e-26
-8.57793e-28
-1.38669e-25
-7.2826e-28
-1.98541e-25
4.65251e-29
-2.49414e-25
1.70968e-27
-2.90558e-25
4.21773e-27
-3.1917e-25
7.54983e-27
-3.26155e-25
1.12517e-26
-3.19876e-25
1.47963e-26
-3.20191e-25
1.84833e-26
-3.40943e-25
2.36657e-26
-4.20532e-25
3.39331e-26
-6.97122e-25
6.2586e-26
-1.7449e-24
1.69405e-25
-5.89034e-24
6.21735e-25
-2.24207e-23
2.55906e-24
-8.57611e-23
1.05715e-23
-3.08306e-22
4.09905e-23
1.44442e-22
5.07501e-44
5.90787e-44
-2.49027e-43
1.99031e-43
-5.47168e-42
-4.46654e-43
-3.33255e-40
-3.00378e-41
-1.5919e-38
-1.55414e-39
-6.1673e-37
-6.48114e-38
-2.00966e-35
-2.25763e-36
-5.58203e-34
-5.50447e-35
-1.52542e-32
-1.30911e-33
-3.76002e-31
-2.89284e-32
-8.3922e-30
-5.78556e-31
-1.69345e-28
-1.1175e-29
-1.90901e-27
-1.91197e-28
-4.13292e-26
-1.47646e-27
-2.30446e-25
-5.74968e-27
-4.75643e-25
-1.41143e-26
-5.80053e-25
-2.28143e-26
-5.03552e-25
-2.76209e-26
-2.43267e-25
-2.7524e-26
-1.20235e-25
-2.03031e-26
-1.01501e-25
-1.07477e-26
-7.56184e-26
-6.19899e-27
-4.2353e-26
-3.18588e-27
-1.72069e-26
-1.22153e-27
-5.3751e-27
-3.44546e-28
-2.59992e-27
-8.8506e-29
-2.66422e-27
-4.13261e-29
-4.00427e-27
-3.22325e-29
-6.51485e-27
-3.0181e-29
-9.28662e-27
-3.79635e-30
-1.23383e-26
6.18734e-29
-1.55555e-26
1.75739e-28
-1.82196e-26
3.43266e-28
-1.97808e-26
5.47153e-28
-2.07442e-26
7.75207e-28
-2.20839e-26
1.045e-27
-2.5333e-26
1.45072e-27
-3.44009e-26
2.3009e-27
-6.4491e-26
4.80926e-27
-1.78557e-25
1.45167e-26
-6.28833e-25
5.59617e-26
-2.39852e-24
2.31708e-25
-8.94815e-24
9.41366e-25
-3.08874e-23
3.53285e-24
1.19467e-23
7.99282e-45
-5.54403e-49
-2.19921e-44
-1.03847e-46
-4.79538e-43
-1.16432e-44
-3.11715e-41
-6.88921e-43
-1.61634e-39
-3.20509e-41
-6.76093e-38
-1.20425e-39
-2.37362e-36
-3.81938e-38
-5.9758e-35
-1.04423e-36
-1.34641e-33
-2.49511e-35
-2.96812e-32
-5.35884e-34
-5.96852e-31
-1.04664e-32
-1.19207e-29
-1.54674e-31
-1.49962e-28
-2.81716e-30
-9.4566e-28
-5.62176e-29
-3.55679e-27
-3.59339e-28
-7.92513e-27
-9.60721e-28
-1.22013e-26
-1.50634e-27
-1.45126e-26
-1.7002e-27
-1.40912e-26
-1.59339e-27
-9.15211e-27
-8.99089e-28
-6.03204e-27
-4.18404e-28
-3.8217e-27
-2.16117e-28
-1.89895e-27
-9.95712e-29
-6.8608e-28
-3.48382e-29
-1.96146e-28
-9.09744e-30
-9.38697e-29
-2.29209e-30
-9.67517e-29
-1.11392e-30
-1.51017e-28
-9.50144e-31
-2.52826e-28
-1.04973e-30
-3.82665e-28
-3.53769e-31
-5.495e-28
1.84385e-30
-7.42039e-28
6.33331e-30
-9.22959e-28
1.35869e-29
-1.07087e-27
2.34774e-29
-1.20112e-27
3.60204e-29
-1.37171e-27
5.27065e-29
-1.70629e-27
8.00988e-29
-2.5774e-27
1.41947e-28
-5.47554e-27
3.3755e-28
-1.65656e-26
1.12366e-27
-6.02777e-26
4.5076e-27
-2.29857e-25
1.87433e-26
-8.38949e-25
7.51129e-26
-2.79635e-24
2.74358e-25
8.95817e-25
-5.20131e-49
-3.42715e-50
-9.78762e-47
-6.49107e-48
-1.13242e-44
-4.10013e-46
-6.73556e-43
-2.46185e-44
-3.14572e-41
-1.14249e-42
-1.18749e-39
-4.26951e-41
-3.78388e-38
-1.34591e-39
-1.0398e-36
-3.64219e-38
-2.49439e-35
-8.66822e-37
-5.40832e-34
-1.88584e-35
-1.06105e-32
-3.73938e-34
-1.59167e-31
-6.05284e-33
-3.30962e-30
-1.09571e-31
-5.44373e-29
-2.30195e-30
-2.61276e-28
-1.61991e-29
-5.86869e-28
-4.62826e-29
-8.45364e-28
-7.57049e-29
-8.98377e-28
-8.79771e-29
-7.25388e-28
-8.4173e-29
-3.87971e-28
-5.01896e-29
-2.28993e-28
-2.21656e-29
-1.2944e-28
-1.09659e-29
-5.80082e-29
-5.10561e-30
-1.91375e-29
-1.87334e-30
-5.20772e-30
-5.074e-31
-2.55192e-30
-1.10372e-31
-2.66277e-30
-3.5889e-32
-4.5393e-30
-2.43468e-32
-8.35575e-30
-2.96239e-32
-1.37216e-29
-1.80264e-32
-2.14342e-29
4.25295e-32
-3.1098e-29
1.91867e-31
-4.1411e-29
4.63945e-31
-5.15053e-29
8.81968e-31
-6.20354e-29
1.47658e-30
-7.64163e-29
2.36281e-30
-1.03989e-28
3.97088e-30
-1.76467e-28
7.94502e-30
-4.23861e-28
2.14977e-29
-1.38401e-27
7.80206e-29
-5.16786e-27
3.23672e-28
-1.96941e-26
1.3521e-27
-7.05886e-26
5.36497e-27
-2.28462e-25
1.91805e-26
6.0838e-26
-3.37091e-50
-4.96818e-52
-6.41475e-48
-1.0746e-49
-4.09189e-46
-7.67309e-48
-2.44853e-44
-4.83236e-46
-1.14029e-42
-2.31421e-44
-4.28461e-41
-8.94899e-43
-1.35688e-39
-2.91027e-41
-3.6301e-38
-7.63676e-40
-8.89175e-37
-1.84988e-38
-1.93831e-35
-4.029e-37
-3.85658e-34
-8.00488e-36
-6.29459e-33
-1.41382e-34
-1.3183e-31
-2.51421e-33
-2.38608e-30
-5.61615e-32
-1.25011e-29
-4.54866e-31
-2.97089e-29
-1.45332e-30
-4.44896e-29
-2.56991e-30
-4.88566e-29
-3.15772e-30
-4.17475e-29
-3.13616e-30
-2.1805e-29
-2.19302e-30
-1.22088e-29
-1.01827e-30
-6.87266e-30
-5.22944e-31
-3.21373e-30
-2.63344e-31
-1.12288e-30
-1.06716e-31
-2.91761e-31
-3.16945e-32
-8.56946e-32
-6.86241e-33
-7.94634e-32
-1.44169e-33
-1.0855e-31
-6.66859e-34
-2.32823e-31
-6.65189e-34
-4.2262e-31
-6.51415e-34
-7.20984e-31
6.57124e-34
-1.13504e-30
4.80128e-33
-1.63176e-30
1.35414e-32
-2.18675e-30
2.87411e-32
-2.84328e-30
5.30435e-32
-3.80514e-30
9.37523e-32
-5.72154e-30
1.76199e-31
-1.09965e-29
4.01665e-31
-2.96913e-29
1.23274e-30
-1.03511e-28
4.82934e-30
-3.95008e-28
2.0651e-29
-1.50617e-27
8.68351e-29
-5.32403e-27
3.4267e-28
-1.68247e-26
1.20602e-27
3.73851e-27
-5.05591e-52
-4.34904e-54
-1.0984e-49
-8.90829e-52
-7.76727e-48
-7.45604e-50
-4.89314e-46
-4.73597e-48
-2.35072e-44
-2.29974e-46
-9.12816e-43
-9.00313e-45
-2.98346e-41
-2.95955e-43
-8.03745e-40
-8.30192e-42
-1.90781e-38
-2.04565e-40
-4.17037e-37
-4.53476e-39
-8.32386e-36
-9.18954e-38
-1.47998e-34
-1.68226e-36
-2.9571e-33
-2.94618e-35
-6.2106e-32
-6.66803e-34
-3.77839e-31
-7.10997e-33
-9.93563e-31
-2.8583e-32
-1.59004e-30
-5.98351e-32
-1.86467e-30
-8.26238e-32
-1.76013e-30
-8.72343e-32
-1.0122e-30
-7.71475e-32
-5.8396e-31
-4.10114e-32
-3.51027e-31
-2.04851e-32
-1.80511e-31
-1.03978e-32
-6.97292e-32
-4.41011e-33
-1.93561e-32
-1.38376e-33
-4.33854e-33
-3.08773e-34
-2.09332e-33
-5.43086e-35
-2.34703e-33
-1.68067e-35
-5.26329e-33
-1.2852e-35
-1.09638e-32
-1.73876e-35
-2.07032e-32
2.26886e-36
-3.5797e-32
9.64478e-35
-5.6026e-32
3.33193e-34
-8.14149e-32
8.0439e-34
-1.15007e-31
1.65775e-33
-1.68664e-31
3.2739e-33
-2.83285e-31
6.96555e-33
-6.20086e-31
1.82311e-32
-1.86764e-30
6.31308e-32
-6.89427e-30
2.65016e-31
-2.68441e-29
1.16732e-30
-1.02664e-28
4.95691e-30
-3.59574e-28
1.95513e-29
-1.11568e-27
6.81374e-29
2.07674e-28
-4.3309e-54
-1.63625e-56
-8.91338e-52
-3.50205e-54
-7.51184e-50
-3.05344e-52
-4.7895e-48
-2.01259e-50
-2.33686e-46
-1.00965e-48
-9.1939e-45
-4.07356e-47
-3.03717e-43
-1.37731e-45
-8.56492e-42
-3.96749e-44
-2.11837e-40
-1.00231e-42
-4.72623e-39
-2.28369e-41
-9.60054e-38
-4.73382e-40
-1.76989e-36
-8.95912e-39
-3.23237e-35
-1.56904e-37
-8.04119e-34
-2.96617e-36
-6.60298e-33
-5.57568e-35
-2.17174e-32
-3.9667e-34
-4.07346e-32
-1.23534e-33
-5.3232e-32
-2.20725e-33
-5.51439e-32
-2.74818e-33
-4.10895e-32
-2.74114e-33
-2.3407e-32
-1.98744e-33
-1.38782e-32
-7.99785e-34
-7.34118e-33
-3.07957e-34
-2.97712e-33
-1.1815e-34
-8.64783e-34
-3.83656e-35
-1.81004e-34
-9.49455e-36
-5.02877e-35
-1.79459e-36
-5.07899e-35
-4.28016e-37
-9.49096e-35
-2.50078e-37
-2.33515e-34
-3.43829e-37
-5.01243e-34
-1.90365e-37
-9.6478e-34
1.4628e-36
-1.65987e-33
6.76194e-36
-2.63745e-33
1.90861e-35
-4.08079e-33
4.46742e-35
-6.62303e-33
9.9977e-35
-1.25651e-32
2.43892e-34
-3.14168e-32
7.37361e-34
-1.04711e-31
2.86459e-33
-4.07076e-31
1.28303e-32
-1.61795e-30
5.83017e-32
-6.22802e-30
2.51104e-31
-2.17226e-29
9.9536e-31
-6.65507e-29
3.45569e-30
1.0419e-29
-1.63226e-56
-3.69364e-59
-3.5097e-54
-8.53378e-57
-3.0825e-52
-8.03175e-55
-2.0377e-50
-5.60975e-53
-1.02707e-48
-2.95173e-51
-4.16389e-47
-1.24419e-49
-1.41467e-45
-4.38149e-48
-4.05228e-44
-1.29143e-46
-1.04314e-42
-3.42188e-45
-2.38446e-41
-8.10776e-44
-4.95402e-40
-1.73929e-42
-9.42521e-39
-3.40532e-41
-1.66968e-37
-6.14059e-40
-3.85586e-36
-1.05357e-38
-6.52791e-35
-2.31301e-37
-3.70975e-34
-2.63456e-36
-9.80927e-34
-1.19985e-35
-1.60026e-33
-2.77035e-35
-1.90809e-33
-4.09415e-35
-1.84699e-33
-4.50396e-35
-9.99616e-34
-4.15232e-35
-4.40527e-34
-2.26535e-35
-1.99438e-34
-8.66882e-36
-8.05999e-35
-3.30036e-36
-2.56199e-35
-1.11509e-36
-6.04712e-36
-2.93505e-37
-1.37934e-36
-5.66329e-38
-1.03079e-36
-1.00993e-38
-1.41244e-36
-4.26341e-39
-4.07404e-36
-5.15169e-39
-1.01245e-35
-6.66361e-39
-2.18857e-35
1.41379e-38
-4.19454e-35
1.09669e-37
-7.36661e-35
3.77782e-37
-1.261e-34
1.02675e-36
-2.29122e-34
2.64838e-36
-4.96408e-34
7.51146e-36
-1.41873e-33
2.63474e-35
-5.19683e-33
1.14312e-34
-2.1222e-32
5.45587e-34
-8.62875e-32
2.56628e-33
-3.35759e-31
1.12696e-32
-1.17253e-30
4.51615e-32
-3.56736e-30
1.57167e-31
4.71655e-31
-3.71142e-59
-2.90139e-62
-8.60053e-57
-6.87496e-60
-8.11398e-55
-7.23118e-58
-5.68798e-53
-5.29647e-56
-3.00617e-51
-2.91696e-54
-1.27338e-49
-1.284e-52
-4.50634e-48
-4.71236e-51
-1.34792e-46
-1.47406e-49
-3.55309e-45
-4.04872e-48
-8.45649e-44
-9.99258e-47
-1.82223e-42
-2.22787e-45
-3.58389e-41
-4.53246e-44
-6.49328e-40
-8.48886e-43
-1.16947e-38
-1.48003e-41
-3.09977e-37
-2.73257e-40
-2.92162e-36
-5.20685e-39
-1.08921e-35
-4.51601e-38
-2.22878e-35
-1.73907e-37
-3.11152e-35
-3.68426e-37
-3.26934e-35
-5.20666e-37
-2.64751e-35
-5.57277e-37
-1.24515e-35
-4.99898e-37
-5.53878e-36
-2.51162e-37
-2.28952e-36
-8.40006e-38
-7.6763e-37
-2.62138e-38
-1.90056e-37
-7.06501e-39
-3.68704e-38
-1.4968e-39
-1.59031e-38
-2.60699e-40
-1.83563e-38
-7.6634e-41
-5.58147e-38
-6.16637e-41
-1.64857e-37
-1.22499e-40
-4.10194e-37
1.7096e-41
-8.91865e-37
1.34997e-39
-1.75477e-36
6.10331e-39
-3.36481e-36
1.98545e-38
-6.93753e-36
6.02794e-38
-1.73436e-35
2.01765e-37
-5.66238e-35
8.24102e-37
-2.26873e-34
3.98399e-36
-9.73196e-34
2.02939e-35
-4.0626e-33
9.93024e-35
-1.60616e-32
4.47331e-34
-5.64819e-32
1.82386e-33
-1.71663e-31
6.40343e-33
1.9248e-32
-2.89977e-62
-1.73247e-65
-6.89993e-60
-4.36864e-63
-7.29579e-58
-4.87231e-61
-5.36611e-56
-3.77259e-59
-2.96872e-54
-2.18929e-57
-1.31282e-52
-1.0133e-55
-4.84038e-51
-3.90363e-54
-1.52142e-49
-1.28034e-52
-4.20071e-48
-3.68523e-51
-1.04077e-46
-9.52681e-50
-2.33067e-45
-2.2222e-48
-4.76299e-44
-4.72897e-47
-8.96027e-43
-9.26445e-46
-1.5777e-41
-1.68388e-44
-3.58561e-40
-2.88306e-43
-7.02783e-39
-5.67932e-42
-5.13179e-38
-9.1715e-41
-1.67825e-37
-6.8085e-40
-3.23092e-37
-2.3196e-39
-4.36809e-37
-4.4525e-39
-4.48783e-37
-5.79597e-39
-3.43962e-37
-5.86647e-39
-1.43717e-37
-4.75778e-39
-5.33782e-38
-1.96473e-39
-1.77653e-38
-5.9654e-40
-4.78767e-39
-1.64724e-40
-9.95982e-40
-3.8688e-41
-2.59664e-40
-7.29381e-42
-2.61637e-40
-1.47771e-42
-5.6608e-40
-7.57248e-43
-2.06866e-39
-1.44201e-42
-6.20344e-39
-1.63303e-42
-1.56846e-38
1.12306e-41
-3.51859e-38
7.797e-41
-7.67724e-38
3.17527e-40
-1.82425e-37
1.16533e-39
-5.31401e-37
4.6796e-39
-1.98052e-36
2.23503e-38
-8.66126e-36
1.20474e-37
-3.91176e-35
6.57672e-37
-1.68474e-34
3.36924e-36
-6.80651e-34
1.56764e-35
-2.42503e-33
6.54759e-35
-7.4075e-33
2.33472e-34
7.07489e-34
-1.73219e-65
-3.29842e-69
-4.38509e-63
-8.9404e-67
-4.91486e-61
-1.06918e-64
-3.82079e-59
-8.83517e-63
-2.22694e-57
-5.43987e-61
-1.0353e-55
-2.66531e-59
-4.00618e-54
-1.08496e-57
-1.3162e-52
-3.74508e-56
-3.81946e-51
-1.14042e-54
-9.90787e-50
-3.10173e-53
-2.32097e-48
-7.60891e-52
-4.96045e-47
-1.70253e-50
-9.75937e-46
-3.50683e-49
-1.78126e-44
-6.70151e-48
-3.1122e-43
-1.19634e-46
-8.06872e-42
-2.02552e-45
-1.31539e-40
-3.94508e-44
-8.22659e-40
-6.25162e-43
-2.38744e-39
-5.05489e-42
-4.15726e-39
-1.87983e-41
-5.14865e-39
-3.80797e-41
-5.17637e-39
-5.08422e-41
-3.19668e-39
-5.17205e-41
-1.19399e-39
-4.2756e-41
-3.97789e-40
-1.75979e-41
-1.16504e-40
-4.60132e-42
-2.75838e-41
-1.00327e-42
-5.65068e-42
-1.83468e-43
-3.33971e-42
-3.18844e-44
-4.66157e-42
-1.11471e-44
-2.03076e-41
-1.21193e-44
-7.46445e-41
-2.9383e-44
-2.23151e-40
3.84074e-44
-5.84538e-40
7.47879e-43
-1.48049e-39
4.10506e-42
-4.12752e-39
1.88662e-41
-1.41448e-38
9.26348e-41
-6.02005e-38
5.20528e-40
-2.87554e-37
3.14079e-39
-1.37334e-36
1.84957e-38
-6.139e-36
9.99712e-38
-2.55085e-35
4.84121e-37
-9.26754e-35
2.08661e-36
-2.86318e-34
7.60961e-36
2.34018e-35
-3.28351e-69
-8.70362e-73
-8.92748e-67
-2.48483e-70
-1.07537e-64
-3.26072e-68
-8.92524e-63
-2.86623e-66
-5.52066e-61
-1.87607e-64
-2.71743e-59
-9.75825e-63
-1.11115e-57
-4.21201e-61
-3.86954e-56
-1.55094e-59
-1.17981e-54
-4.99857e-58
-3.2193e-53
-1.43807e-56
-7.92976e-52
-3.73106e-55
-1.78161e-50
-8.82821e-54
-3.68461e-49
-1.92291e-52
-7.06866e-48
-3.88635e-51
-1.26693e-46
-7.33862e-50
-2.19857e-45
-1.30602e-48
-5.77253e-44
-2.40232e-47
-9.96977e-43
-4.51145e-46
-6.99998e-42
-5.77133e-45
-2.20295e-41
-3.51702e-44
-4.0026e-41
-1.04057e-43
-5.04631e-41
-1.80965e-43
-5.08883e-41
-2.20059e-43
-3.2506e-41
-2.1407e-43
-1.08339e-41
-1.58374e-43
-2.90581e-42
-5.9972e-44
-6.62629e-43
-1.73347e-44
-1.30942e-43
-4.32526e-45
-4.28479e-44
-8.59642e-46
-4.50386e-44
-1.80158e-46
-1.4267e-43
-9.83961e-47
-6.70395e-43
-2.6774e-46
-2.49421e-42
-2.93486e-46
-7.88949e-42
4.83185e-45
-2.38045e-41
4.15357e-44
-7.94924e-41
2.51325e-43
-3.23729e-40
1.54439e-42
-1.5771e-39
1.03069e-41
-8.25719e-39
7.01412e-41
-4.19625e-38
4.49539e-40
-1.96069e-37
2.58692e-39
-8.43859e-37
1.31493e-38
-3.14795e-36
5.89471e-38
-9.90158e-36
2.21481e-37
6.96005e-37
-8.7033e-73
-4.91043e-77
-2.49344e-70
-1.49079e-74
-3.28552e-68
-2.08255e-72
-2.89894e-66
-1.94964e-70
-1.90498e-64
-1.35855e-68
-9.9483e-63
-7.51997e-67
-4.3113e-61
-3.45273e-65
-1.59397e-59
-1.35188e-63
-5.15841e-58
-4.63156e-62
-1.48966e-56
-1.41583e-60
-3.87998e-55
-3.90229e-59
-9.21614e-54
-9.8081e-58
-2.01507e-52
-2.26938e-56
-4.08787e-51
-4.87283e-55
-7.74743e-50
-9.77759e-54
-1.38852e-48
-1.8451e-52
-3.04482e-47
-3.32189e-51
-7.36294e-46
-6.08504e-50
-9.32959e-45
-1.08769e-48
-4.82489e-44
-1.58286e-47
-1.2313e-43
-1.22525e-46
-1.9651e-43
-4.42026e-46
-2.30889e-43
-8.6345e-46
-2.24113e-43
-1.10707e-45
-1.23948e-43
-1.09092e-45
-4.46576e-44
-8.48544e-46
-1.39601e-44
-3.2095e-46
-3.5091e-45
-7.8278e-47
-7.21227e-46
-1.53943e-47
-4.8197e-46
-2.79384e-48
-7.60708e-46
-1.02951e-48
-4.45182e-45
-1.5873e-48
-2.14614e-44
-5.04865e-48
-8.44237e-44
1.39446e-47
-3.14072e-43
3.1225e-46
-1.28691e-42
2.69237e-45
-6.30025e-42
2.1354e-44
-3.53129e-41
1.71694e-43
-2.0395e-40
1.33284e-42
-1.11175e-39
9.40186e-42
-5.47405e-39
5.82081e-41
-2.45936e-38
3.1348e-40
-9.48972e-38
1.47407e-39
-3.05998e-37
5.75046e-39
1.85984e-38
-4.91028e-77
-2.54025e-81
-1.49557e-74
-8.21447e-79
-2.09673e-72
-1.22427e-76
-1.97044e-70
-1.22564e-74
-1.37814e-68
-9.11821e-73
-7.65719e-67
-5.38912e-71
-3.52909e-65
-2.64178e-69
-1.38711e-63
-1.10426e-67
-4.77128e-62
-4.0395e-66
-1.46354e-60
-1.3173e-64
-4.04864e-59
-3.87318e-63
-1.0213e-57
-1.03854e-61
-2.37153e-56
-2.56377e-60
-5.11007e-55
-5.87434e-59
-1.02888e-53
-1.25812e-57
-1.94778e-52
-2.53434e-56
-3.50911e-51
-4.83646e-55
-7.63777e-50
-9.17153e-54
-1.82351e-48
-1.63885e-52
-2.95375e-47
-2.85526e-51
-2.01123e-46
-4.1217e-50
-6.12414e-46
-3.31816e-49
-1.06666e-45
-1.27642e-48
-1.29649e-45
-2.66047e-48
-1.28206e-45
-3.60241e-48
-7.50062e-46
-3.65219e-48
-2.37106e-46
-3.08428e-48
-5.86361e-47
-1.37065e-48
-1.2027e-47
-3.3965e-49
-4.24755e-48
-6.28363e-50
-4.71215e-48
-1.32333e-50
-2.13522e-47
-8.51407e-51
-1.35362e-46
-3.53801e-50
-6.94611e-46
-4.98493e-50
-3.33794e-45
1.5653e-48
-1.72646e-44
2.24666e-47
-1.0303e-43
2.40469e-46
-6.70034e-43
2.37852e-45
-4.30818e-42
2.13944e-44
-2.5438e-41
1.6841e-43
-1.33216e-40
1.13528e-42
-6.3013e-40
6.54545e-42
-2.53486e-39
3.25814e-41
-8.44032e-39
1.33053e-40
4.46204e-40
-2.53088e-81
-1.30858e-85
-8.20795e-79
-4.47448e-83
-1.23098e-76
-7.21344e-81
-1.2368e-74
-7.71105e-79
-9.23552e-73
-6.13527e-77
-5.47898e-71
-3.88021e-75
-2.69571e-69
-2.03609e-73
-1.13276e-67
-9.13104e-72
-4.15323e-66
-3.5771e-70
-1.35885e-64
-1.24891e-68
-4.00912e-63
-3.93222e-67
-1.07865e-61
-1.12925e-65
-2.67171e-60
-2.98628e-64
-6.14175e-59
-7.33162e-63
-1.31961e-57
-1.68295e-61
-2.66641e-56
-3.6346e-60
-5.08974e-55
-7.4336e-59
-1.03058e-53
-1.4895e-57
-2.18075e-52
-2.80005e-56
-5.0101e-51
-4.99517e-55
-8.20854e-50
-8.75963e-54
-5.96364e-49
-1.28864e-52
-1.96251e-48
-1.05062e-51
-3.68431e-48
-3.99971e-51
-4.7489e-48
-8.08847e-51
-4.7693e-48
-1.05329e-50
-3.407e-48
-1.03559e-50
-1.15503e-48
-8.29145e-51
-2.69665e-49
-3.31866e-51
-5.27626e-50
-7.98738e-52
-4.00069e-50
-1.67839e-52
-7.62141e-50
-6.76272e-53
-6.20641e-49
-1.59608e-52
-4.36389e-48
-7.38642e-52
-2.80121e-47
3.41475e-51
-1.88968e-46
1.38891e-49
-1.39795e-45
2.15654e-48
-1.0676e-44
2.7043e-47
-7.735e-44
2.87745e-46
-5.00525e-43
2.57022e-45
-2.81717e-42
1.91278e-44
-1.41619e-41
1.1943e-43
-5.98982e-41
6.35593e-43
-2.07533e-40
2.74087e-42
9.60567e-42
-1.30857e-85
-2.01324e-90
-4.48753e-83
-7.32005e-88
-7.25826e-81
-1.25871e-85
-7.78353e-79
-1.43852e-83
-6.21305e-77
-1.22536e-81
-3.94231e-75
-8.30571e-80
-2.07549e-73
-4.67456e-78
-9.33851e-72
-2.24978e-76
-3.67053e-70
-9.46321e-75
-1.28563e-68
-3.54859e-73
-4.06082e-67
-1.20038e-71
-1.16987e-65
-3.70482e-70
-3.10331e-64
-1.05327e-68
-7.64208e-63
-2.78083e-67
-1.75941e-61
-6.86681e-66
-3.81062e-60
-1.59586e-64
-7.81747e-59
-3.51193e-63
-1.62173e-57
-7.48739e-62
-3.33873e-56
-1.52306e-60
-7.06271e-55
-2.87784e-59
-1.65438e-53
-5.13417e-58
-2.79618e-52
-8.98122e-57
-2.04681e-51
-1.48806e-55
-6.5891e-51
-1.6338e-54
-1.1874e-50
-8.40058e-54
-1.46724e-50
-2.0722e-53
-1.45854e-50
-2.98659e-53
-9.33145e-51
-3.03765e-53
-3.00832e-51
-2.52168e-53
-7.15564e-52
-1.06679e-53
-2.8576e-52
-2.38234e-54
-3.35838e-52
-6.15429e-55
-2.15614e-51
-6.67507e-55
-2.08031e-50
-4.58089e-54
-1.82752e-49
-1.1484e-53
-1.66165e-48
5.73246e-52
-1.55276e-47
1.4992e-50
-1.41453e-46
2.67528e-49
-1.17241e-45
3.29539e-48
-8.42915e-45
3.3216e-47
-5.15972e-44
2.77358e-46
-2.7852e-43
1.89972e-45
-1.24992e-42
1.09268e-44
-4.54313e-42
5.02228e-44
1.85457e-43
-2.01323e-90
-3.75055e-95
-7.33979e-88
-1.45664e-92
-1.26573e-85
-2.67995e-90
-1.45108e-83
-3.28633e-88
-1.23979e-81
-3.00428e-86
-8.42921e-80
-2.18777e-84
-4.75865e-78
-1.324e-82
-2.29729e-76
-6.85693e-81
-9.69337e-75
-3.10613e-79
-3.64556e-73
-1.25462e-77
-1.23686e-71
-4.57376e-76
-3.82857e-70
-1.52202e-74
-1.09157e-68
-4.66743e-73
-2.89006e-67
-1.32979e-71
-7.15604e-66
-3.54491e-70
-1.66748e-64
-8.89725e-69
-3.67868e-63
-2.11467e-67
-7.98864e-62
-4.82297e-66
-1.75624e-60
-1.06972e-64
-3.59778e-59
-2.20566e-63
-7.27371e-58
-4.2493e-62
-1.65059e-56
-7.75205e-61
-3.55114e-55
-1.38345e-59
-3.83454e-54
-2.34762e-58
-1.65703e-53
-2.75607e-57
-3.51096e-53
-1.57277e-56
-4.66925e-53
-4.30127e-56
-4.66347e-53
-6.72961e-56
-3.27927e-53
-7.2423e-56
-9.88705e-54
-6.25473e-56
-2.26736e-54
-3.17337e-56
-2.16454e-54
-8.53135e-57
-6.28335e-54
-4.25266e-57
-8.15177e-53
-2.20487e-56
-9.66449e-52
-1.55541e-55
-1.16232e-50
9.89461e-55
-1.41932e-49
8.48511e-53
-1.67697e-48
2.19235e-51
-1.52641e-47
3.34097e-50
-1.20821e-46
3.6559e-49
-8.15457e-46
3.44586e-48
-4.78105e-45
2.62764e-47
-2.2992e-44
1.65296e-46
-8.84329e-44
8.17914e-46
3.21013e-45
-3.74282e-95
-6.01478e-100
-1.4572e-92
-2.4997e-97
-2.69236e-90
-4.97057e-95
-3.31117e-88
-6.54913e-93
-3.03597e-86
-6.44116e-91
-2.2174e-84
-5.05085e-89
-1.34585e-82
-3.29449e-87
-6.9911e-81
-1.84096e-85
-3.17613e-79
-9.00796e-84
-1.2864e-77
-3.92996e-82
-4.70249e-76
-1.54852e-80
-1.56908e-74
-5.5731e-79
-4.82446e-73
-1.84943e-77
-1.37807e-71
-5.70495e-76
-3.68285e-70
-1.64739e-74
-9.2659e-69
-4.4809e-73
-2.20684e-67
-1.15442e-71
-5.01413e-66
-2.83315e-70
-1.20303e-64
-6.81856e-69
-2.68303e-63
-1.54425e-67
-5.60218e-62
-3.2784e-66
-1.15311e-60
-6.53996e-65
-2.62644e-59
-1.23997e-63
-5.82549e-58
-2.30831e-62
-6.98277e-57
-4.1939e-61
-3.43067e-56
-5.49456e-60
-8.09882e-56
-3.45479e-59
-1.1746e-55