/*--------------------------------*- C++ -*----------------------------------*\
  =========                 |
  \\      /  F ield         | OpenFOAM: The Open Source CFD Toolbox
   \\    /   O peration     | Website:  https://openfoam.org
    \\  /    A nd           | Version:  7
     \\/     M anipulation  |
\*---------------------------------------------------------------------------*/
FoamFile
{
    version     2.0;
    format      ascii;
    class       volScalarField;
    location    "0.25";
    object      nut;
}
// * * * * * * * * * * * * * * * * * * * * * * * * * * * * * * * * * * * * * //

dimensions      [0 2 -1 0 0 0 0];

internalField   nonuniform List<scalar> 
1915
(
0.0128888
0.0129379
0.0129705
0.0129876
0.0129895
0.0129769
0.0129507
0.0129127
0.0128656
0.012812
0.0127541
0.0126913
0.0126235
0.0125461
0.0124495
0.0123205
0.0121452
0.0119117
0.0116129
0.011249
0.0108278
0.0103636
0.00987565
0.00938485
0.00891227
0.000143918
0.00110386
0.00256618
0.00405222
0.00542849
0.0066576
0.00773369
0.00866378
0.00946021
0.0101371
0.0107086
0.0111879
0.011587
0.0119168
0.012187
0.0124062
0.0125821
0.0127214
0.0128296
0.0129116
0.0129711
0.0130108
0.0130327
0.0130383
0.013029
0.0130062
0.012972
0.0129294
0.0128814
0.0128312
0.0127811
0.0127316
0.0126829
0.0126308
0.0125667
0.0124792
0.0123559
0.012186
0.0119626
0.0116843
0.0113556
0.0109865
0.0105909
0.0101852
0.00978629
0.000145553
0.00114964
0.00266731
0.0041923
0.0055903
0.00682791
0.00790339
0.00882711
0.00961405
0.0102803
0.0108412
0.0113109
0.0117019
0.0120251
0.0122901
0.0125051
0.0126774
0.0128131
0.0129174
0.0129946
0.0130483
0.0130811
0.0130954
0.0130931
0.0130763
0.0130472
0.0130087
0.0129642
0.0129173
0.0128714
0.0128285
0.0127902
0.0127568
0.0127244
0.0126857
0.0126308
0.0125489
0.0124305
0.012269
0.0120623
0.0118127
0.011527
0.0112153
0.0108904
0.0105657
0.00014677
0.00118988
0.00275568
0.00431336
0.00572874
0.00697271
0.00804733
0.0089658
0.00974513
0.0104028
0.0109553
0.0114173
0.0118017
0.0121196
0.0123804
0.0125922
0.0127619
0.0128951
0.0129968
0.013071
0.0131209
0.0131495
0.0131592
0.0131523
0.0131314
0.0130992
0.0130592
0.013015
0.0129702
0.0129283
0.0128913
0.0128613
0.0128385
0.0128198
0.0127987
0.0127668
0.012715
0.0126351
0.0125211
0.0123704
0.0121839
0.0119663
0.011725
0.0114695
0.0112106
0.000147586
0.00122548
0.0028324
0.00441649
0.005845
0.00709321
0.00816663
0.00908077
0.00985413
0.0105052
0.0110512
0.0115072
0.0118865
0.0122003
0.012458
0.0126675
0.0128354
0.0129672
0.0130676
0.0131403
0.0131886
0.0132153
0.013223
0.0132144
0.0131921
0.0131595
0.0131199
0.0130772
0.0130349
0.0129962
0.012963
0.0129379
0.0129211
0.0129098
0.0128986
0.0128805
0.0128479
0.0127937
0.0127128
0.0126024
0.0124626
0.0122964
0.0121091
0.0119078
0.0117009
0.000148016
0.00125616
0.00289716
0.00450159
0.00593921
0.00718965
0.00826148
0.00917203
0.00994084
0.010587
0.0111282
0.0115799
0.0119555
0.0122663
0.0125218
0.0127298
0.0128969
0.0130283
0.0131285
0.0132012
0.0132495
0.0132762
0.0132841
0.0132759
0.0132546
0.0132233
0.0131855
0.0131448
0.0131046
0.0130678
0.0130364
0.0130129
0.0129975
0.0129879
0.0129797
0.012967
0.0129437
0.0129038
0.0128428
0.0127582
0.0126494
0.0125183
0.0123686
0.0122055
0.0120351
0.000148064
0.00128152
0.00294929
0.00456807
0.00601093
0.00726166
0.00833144
0.00923897
0.0100044
0.0106472
0.0111852
0.011634
0.0120071
0.012316
0.0125702
0.0127776
0.0129445
0.0130764
0.0131773
0.0132511
0.0133007
0.013329
0.0133387
0.0133325
0.0133134
0.0132845
0.0132491
0.0132105
0.0131718
0.0131357
0.0131039
0.013079
0.0130611
0.0130484
0.0130373
0.0130232
0.0130008
0.0129655
0.0129133
0.0128419
0.0127506
0.0126403
0.0125135
0.0123739
0.012226
0.000147737
0.00130122
0.00298812
0.00461521
0.00605952
0.00730858
0.00837573
0.00928061
0.0100437
0.0106844
0.0112205
0.0116677
0.0120395
0.0123475
0.0126013
0.0128087
0.0129762
0.013109
0.0132114
0.013287
0.0133388
0.0133696
0.013382
0.0133788
0.0133627
0.0133368
0.0133039
0.0132671
0.0132291
0.0131923
0.0131584
0.0131296
0.0131061
0.0130866
0.0130683
0.0130473
0.0130196
0.0129813
0.0129292
0.0128612
0.0127765
0.0126754
0.0125597
0.0124319
0.0122951
0.000147045
0.00131497
0.00301308
0.0046424
0.00608433
0.0073297
0.0083935
0.0092959
0.0100573
0.010697
0.0112324
0.0116791
0.0120507
0.0123587
0.0126127
0.0128207
0.0129892
0.0131235
0.0132277
0.0133056
0.01336
0.0133938
0.0134095
0.0134096
0.0133968
0.0133737
0.0133431
0.0133076
0.0132695
0.0132309
0.0131934
0.0131589
0.0131279
0.0130991
0.0130705
0.0130391
0.0130017
0.0129552
0.012897
0.0128254
0.0127394
0.0126393
0.012526
0.0124015
0.0122679
0.000146005
0.00132263
0.00302386
0.00464926
0.00608493
0.0073245
0.00838406
0.00928389
0.0100441
0.0106835
0.0112192
0.0116665
0.0120388
0.0123475
0.0126024
0.0128115
0.0129813
0.0131172
0.0132236
0.0133038
0.0133611
0.0133979
0.0134168
0.0134202
0.0134104
0.0133899
0.0133611
0.0133262
0.0132873
0.0132461
0.0132041
0.0131629
0.013123
0.0130837
0.0130432
0.0129994
0.0129498
0.012892
0.0128239
0.0127442
0.0126521
0.0125476
0.0124315
0.012305
0.0121699
0.000144641
0.00132417
0.00302038
0.00463574
0.00606127
0.0072928
0.00834703
0.009244
0.0100033
0.010643
0.0111797
0.0116283
0.012002
0.0123121
0.0125685
0.012779
0.0129504
0.0130881
0.0131965
0.0132791
0.013339
0.0133786
0.0134005
0.0134067
0.0133996
0.0133812
0.0133536
0.0133187
0.0132784
0.0132341
0.0131871
0.0131388
0.0130897
0.0130394
0.0129867
0.0129299
0.0128672
0.0127968
0.0127172
0.0126273
0.0125265
0.012415
0.0122933
0.0121624
0.0120238
0.000142982
0.00131973
0.00300294
0.00460223
0.00601372
0.00723488
0.00828249
0.00917608
0.00993436
0.0105747
0.0111129
0.0115635
0.0119392
0.0122514
0.0125095
0.0127218
0.012895
0.0130345
0.0131448
0.0132296
0.0132917
0.0133338
0.0133582
0.0133668
0.0133617
0.0133448
0.0133178
0.0132826
0.0132405
0.0131929
0.0131407
0.0130855
0.0130276
0.0129667
0.0129023
0.012833
0.0127576
0.0126749
0.0125836
0.0124833
0.0123734
0.0122542
0.0121263
0.0119905
0.0118482
0.000141065
0.00130958
0.00297213
0.00454957
0.00594316
0.00715153
0.0081911
0.00908053
0.00983755
0.0104786
0.0110187
0.0114716
0.0118498
0.0121644
0.0124247
0.0126391
0.0128141
0.0129555
0.0130676
0.0131542
0.0132183
0.0132624
0.0132887
0.0132991
0.0132955
0.0132796
0.0132529
0.0132168
0.0131728
0.0131219
0.013065
0.0130033
0.0129373
0.0128671
0.0127921
0.0127117
0.0126249
0.012531
0.0124294
0.0123195
0.0122014
0.0120754
0.011942
0.0118022
0.0116572
0.000138931
0.00129418
0.00292895
0.00447906
0.00585104
0.00704414
0.00807407
0.00895837
0.00971362
0.0103552
0.0108972
0.0113527
0.0117338
0.0120511
0.012314
0.0125305
0.0127076
0.0128507
0.0129645
0.0130528
0.0131185
0.0131641
0.013192
0.0132037
0.0132012
0.0131858
0.0131589
0.013122
0.013076
0.0130221
0.0129611
0.0128938
0.012821
0.0127428
0.012659
0.0125692
0.012473
0.0123699
0.0122597
0.0121422
0.0120176
0.0118863
0.0117491
0.011607
0.011461
0.000136628
0.00127415
0.00287473
0.00439251
0.00573934
0.00691468
0.00793325
0.00881125
0.00956399
0.0102056
0.0107494
0.0112077
0.0115918
0.0119121
0.0121777
0.0123967
0.0125758
0.0127208
0.0128362
0.0129259
0.012993
0.0130399
0.0130689
0.0130816
0.0130797
0.0130646
0.0130376
0.0129997
0.0129522
0.0128957
0.0128312
0.0127595
0.0126813
0.0125968
0.0125061
0.0124091
0.0123056
0.0121957
0.0120791
0.0119562
0.0118272
0.0116928
0.0115538
0.0114112
0.0112662
0.000134206
0.00125021
0.00281114
0.0042922
0.00561058
0.00676573
0.0077711
0.00864145
0.00939071
0.0100319
0.0105771
0.0110379
0.0114251
0.0117485
0.0120171
0.0122387
0.01242
0.0125669
0.0126839
0.012775
0.0128433
0.0128913
0.0129212
0.0129347
0.0129333
0.0129184
0.0128912
0.0128527
0.0128038
0.0127455
0.0126786
0.0126036
0.0125214
0.0124324
0.0123368
0.0122348
0.0121264
0.0120119
0.0118914
0.0117654
0.0116343
0.011499
0.0113603
0.0112193
0.011077
0.000131718
0.00122325
0.00274015
0.0041808
0.0054678
0.0066004
0.00759066
0.00845184
0.00919646
0.00983625
0.0103824
0.0108454
0.0112355
0.0115621
0.0118338
0.0120581
0.0122419
0.0123907
0.0125094
0.0126019
0.0126713
0.0127204
0.0127511
0.0127653
0.0127645
0.0127499
0.0127227
0.0126839
0.0126343
0.0125749
0.0125064
0.0124295
0.0123448
0.0122531
0.0121545
0.0120496
0.0119385
0.0118218
0.0116997
0.0115728
0.0114419
0.0113078
0.0111713
0.0110337
0.0108958
0.000129218
0.0011942
0.00266393
0.0040613
0.00531442
0.00642226
0.00739549
0.00824587
0.00898451
0.0096219
0.0101681
0.0106329
0.0110257
0.0113553
0.01163
0.0118572
0.0120435
0.0121945
0.012315
0.0124089
0.0124796
0.0125297
0.0125614
0.0125764
0.0125762
0.0125622
0.0125353
0.0124967
0.0124471
0.0123874
0.0123183
0.0122406
0.0121551
0.0120622
0.0119626
0.0118567
0.011745
0.0116281
0.0115065
0.0113809
0.0112521
0.011121
0.0109886
0.0108558
0.0107239
0.000126753
0.00116404
0.00258476
0.00393691
0.00515415
0.00623527
0.00718961
0.00802748
0.00875866
0.00939242
0.00993779
0.0104036
0.0107986
0.011131
0.0114086
0.0116387
0.0118275
0.0119808
0.0121032
0.0121988
0.0122709
0.0123223
0.012355
0.012371
0.0123718
0.0123586
0.0123325
0.0122945
0.0122456
0.0121864
0.0121178
0.0120406
0.0119555
0.0118631
0.011764
0.011659
0.0115486
0.0114334
0.0113141
0.0111916
0.0110666
0.0109402
0.0108132
0.0106867
0.0105616
0.000124367
0.00113373
0.00250487
0.00381082
0.00499081
0.00604358
0.00697732
0.00780099
0.00852313
0.00915189
0.00969527
0.0101613
0.0105578
0.0108925
0.0111728
0.0114056
0.0115971
0.0117527
0.0118772
0.0119746
0.0120483
0.012101
0.0121351
0.0121523
0.0121543
0.0121423
0.0121175
0.0120809
0.0120332
0.0119755
0.0119083
0.0118326
0.0117492
0.0116586
0.0115617
0.0114591
0.0113515
0.0112396
0.0111244
0.0110064
0.0108868
0.0107663
0.0106459
0.0105266
0.0104093
0.000122092
0.00110412
0.00242636
0.00368612
0.00482816
0.0058514
0.00676306
0.00757096
0.00828251
0.00890481
0.00944491
0.00990997
0.0103072
0.0106436
0.0109262
0.0111615
0.0113555
0.0115134
0.01164
0.0117394
0.0118148
0.0118692
0.0119048
0.0119236
0.0119272
0.0119168
0.0118938
0.0118589
0.0118133
0.0117577
0.0116929
0.0116198
0.0115391
0.0114516
0.0113581
0.0112592
0.0111559
0.0110488
0.0109388
0.0108268
0.0107135
0.0106
0.0104872
0.0103759
0.0102669
0.000119952
0.0010759
0.002351
0.00356553
0.00466968
0.00566277
0.00655127
0.00734205
0.00804153
0.00865592
0.0091914
0.00965433
0.0100512
0.0103886
0.0106729
0.0109103
0.0111065
0.0112666
0.0113954
0.0114967
0.011574
0.0116302
0.0116676
0.0116882
0.0116936
0.0116853
0.0116645
0.011632
0.011589
0.0115363
0.0114747
0.011405
0.011328
0.0112447
0.0111557
0.0110618
0.0109638
0.0108626
0.010759
0.0106538
0.0105479
0.0104422
0.0103376
0.0102347
0.0101344
0.000117959
0.0010496
0.00228019
0.00345134
0.00451845
0.00548139
0.00634612
0.00711876
0.00780495
0.00841008
0.0089396
0.00939916
0.00979462
0.010132
0.0104172
0.0106561
0.0108541
0.0110162
0.0111469
0.0112502
0.0113294
0.0113875
0.0114269
0.0114495
0.0114571
0.0114512
0.0114329
0.0114034
0.0113635
0.0113143
0.0112565
0.011191
0.0111187
0.0110403
0.0109568
0.0108688
0.0107771
0.0106827
0.0105863
0.0104888
0.0103909
0.0102935
0.0101974
0.0101033
0.0100118
0.00011612
0.00102553
0.00221491
0.0033453
0.00437695
0.00531043
0.00615136
0.00690532
0.0075773
0.00817204
0.00869438
0.00914934
0.00954224
0.00987857
0.0101638
0.0104035
0.0106028
0.0107664
0.0108988
0.0110039
0.0110849
0.0111449
0.0111863
0.0112111
0.0112212
0.0112179
0.0112025
0.0111763
0.01114
0.0110948
0.0110415
0.0109809
0.0109138
0.0108412
0.0107638
0.0106824
0.0105978
0.0105107
0.0104221
0.0103327
0.0102432
0.0101545
0.0100671
0.00998169
0.0098989
0.000114434
0.00100388
0.00215579
0.00324863
0.00424709
0.00515244
0.00597016
0.0067054
0.00736268
0.00794624
0.0084604
0.00890968
0.00929892
0.00963315
0.00991753
0.0101572
0.010357
0.0105216
0.0106553
0.0107618
0.0108446
0.0109064
0.0109498
0.0109769
0.0109895
0.010989
0.0109769
0.0109541
0.0109219
0.0108811
0.0108327
0.0107774
0.0107161
0.0106496
0.0105789
0.0105046
0.0104275
0.0103483
0.0102678
0.0101867
0.0101058
0.0100257
0.00994694
0.00987016
0.00979582
0.000112901
0.00098471
0.00210312
0.00316207
0.00413015
0.00500933
0.005805
0.00652205
0.00716462
0.0077366
0.00824188
0.00868461
0.00906922
0.0094004
0.00968296
0.00992171
0.0101214
0.0102864
0.0104208
0.0105285
0.0106126
0.0106761
0.0107214
0.0107507
0.0107658
0.0107683
0.0107595
0.0107405
0.0107125
0.0106764
0.0106331
0.0105835
0.0105283
0.0104683
0.0104045
0.0103375
0.0102681
0.0101969
0.0101246
0.0100519
0.00997937
0.00990767
0.00983732
0.00976877
0.00970244
0.000111521
0.000968035
0.00205704
0.00308602
0.00402695
0.00488239
0.00565772
0.00635761
0.00698596
0.00754636
0.00804243
0.00847802
0.00885726
0.00918455
0.00946443
0.00970149
0.00990023
0.0100649
0.0101996
0.0103079
0.010393
0.0104579
0.010505
0.0105364
0.010554
0.0105594
0.010554
0.0105389
0.0105152
0.0104839
0.0104458
0.0104019
0.0103529
0.0102996
0.0102427
0.010183
0.0101212
0.0100578
0.00999353
0.0099289
0.00986449
0.00980083
0.00973838
0.00967753
0.00961865
0.0001103
0.000953871
0.00201757
0.00302067
0.00393795
0.00477249
0.00552961
0.00621382
0.00682885
0.00737809
0.00786496
0.0082931
0.00866645
0.00898918
0.00926566
0.00950029
0.0096974
0.00986117
0.00999548
0.0101039
0.0101897
0.0102556
0.0103041
0.0103375
0.0103575
0.0103657
0.0103635
0.0103522
0.0103328
0.0103062
0.0102734
0.0102352
0.0101922
0.0101454
0.0100953
0.0100426
0.00998812
0.00993221
0.00987547
0.00981843
0.00976158
0.00970535
0.00965017
0.00959636
0.00954423
0.000109249
0.000942259
0.00198477
0.00296613
0.00386348
0.00468021
0.00542159
0.00609196
0.00669491
0.00723371
0.00771167
0.0081323
0.00849943
0.0088171
0.00908956
0.00932109
0.00951592
0.00967811
0.00981149
0.00991955
0.0100055
0.0100721
0.0101218
0.0101568
0.0101789
0.0101898
0.0101908
0.0101831
0.0101678
0.0101458
0.0101179
0.0100851
0.0100479
0.0100072
0.0099635
0.00991746
0.00986968
0.00982068
0.00977089
0.00972077
0.00967076
0.00962124
0.00957256
0.00952503
0.00947889
0.000108388
0.000933287
0.00195871
0.00292257
0.00380386
0.00460611
0.00533445
0.00599305
0.0065854
0.00711469
0.00758418
0.00799738
0.00835807
0.00867027
0.00893816
0.00916598
0.00935789
0.00951789
0.00964976
0.00975695
0.00984258
0.00990945
0.00996
0.00999635
0.0100204
0.0100336
0.0100375
0.0100331
0.0100216
0.0100038
0.00998066
0.00995283
0.00992102
0.00988589
0.00984802
0.00980798
0.0097663
0.00972347
0.00967986
0.00963588
0.0095919
0.00954826
0.00950525
0.00946316
0.0094222
0.000107745
0.000927093
0.0019396
0.00289031
0.00375957
0.00455088
0.00526907
0.00591815
0.00650147
0.00702224
0.00748377
0.00788961
0.00824362
0.00854988
0.00881262
0.00903607
0.00922439
0.00938156
0.0095113
0.00961706
0.00970191
0.00976861
0.00981959
0.00985694
0.00988248
0.00989778
0.00990418
0.00990284
0.00989477
0.00988086
0.0098619
0.0098386
0.0098116
0.0097815
0.00974883
0.0097141
0.00967779
0.00964032
0.00960208
0.00956339
0.00952458
0.00948595
0.00944776
0.00941026
0.00937367
0.000107358
0.000923854
0.00192769
0.00286979
0.00373136
0.00451552
0.00522668
0.00586857
0.00644448
0.00695765
0.00741154
0.00780993
0.00815685
0.00845655
0.00871337
0.00893164
0.00911556
0.00926913
0.00939606
0.00949975
0.00958326
0.0096493
0.00970026
0.00973821
0.00976491
0.00978189
0.00979047
0.00979177
0.00978675
0.00977627
0.00976105
0.00974177
0.00971901
0.00969332
0.00966519
0.00963508
0.0096034
0.00957053
0.00953684
0.0095026
0.00946811
0.00943364
0.00939943
0.00936572
0.0093327
0.000107281
0.000923772
0.00192334
0.00286176
0.00372041
0.00450162
0.0052091
0.00584622
0.0064162
0.00692246
0.00736877
0.00775924
0.00809828
0.00839042
0.00864025
0.00885226
0.00903075
0.00917975
0.009303
0.00940386
0.00948537
0.00955017
0.00960062
0.0096387
0.00966614
0.00968443
0.00969481
0.00969836
0.00969599
0.00968849
0.00967656
0.0096608
0.00964176
0.00961991
0.00959572
0.00956957
0.00954185
0.00951289
0.009483
0.00945247
0.00942153
0.00939045
0.00935946
0.00932877
0.00929859
0.000107583
0.000927057
0.00192705
0.00286731
0.00372854
0.00451158
0.00521906
0.00585384
0.00641916
0.00691879
0.00735702
0.00773855
0.00806835
0.00835142
0.00859272
0.00879697
0.00896864
0.00911184
0.00923031
0.00932741
0.00940611
0.00946899
0.00951832
0.00955603
0.00958377
0.00960295
0.00961473
0.00962015
0.00962003
0.00961513
0.00960607
0.00959341
0.00957762
0.00955914
0.00953838
0.00951567
0.00949136
0.00946573
0.00943906
0.00941162
0.00938361
0.00935528
0.00932685
0.00929855
0.00927057
0.000108364
0.000933968
0.0019396
0.00288831
0.00375873
0.00454919
0.0052607
0.0058955
0.00645698
0.00694954
0.00737837
0.0077491
0.00806751
0.00833929
0.00856989
0.00876439
0.00892745
0.00906327
0.00917562
0.0092678
0.00934272
0.00940287
0.0094504
0.00948716
0.00951468
0.00953429
0.00954709
0.00955399
0.00955578
0.00955312
0.00954657
0.00953664
0.00952374
0.00950826
0.00949055
0.00947091
0.00944962
0.00942693
0.00940309
0.00937832
0.00935281
0.00932678
0.00930044
0.00927403
0.00924777
0.000109762
0.000944923
0.00196256
0.0029281
0.00381599
0.00462052
0.00534037
0.00597712
0.00653465
0.00701857
0.00743547
0.00779236
0.0080962
0.0083536
0.00857063
0.00875281
0.00890501
0.00903153
0.00913613
0.00922203
0.00929202
0.00934849
0.00939344
0.00942858
0.00945534
0.0094749
0.00948827
0.00949628
0.00949962
0.00949888
0.00949454
0.00948705
0.00947676
0.00946401
0.0094491
0.00943228
0.00941381
0.00939388
0.00937269
0.00935042
0.00932723
0.00930329
0.00927881
0.00925402
0.00922916
0.000111978
0.000960768
0.00199916
0.00299301
0.00390908
0.00473546
0.00546778
0.00610722
0.00665899
0.00713077
0.00753139
0.00786983
0.00815464
0.00839354
0.00859338
0.0087601
0.00889879
0.00901379
0.00910878
0.00918687
0.00925068
0.00930241
0.0093439
0.00937669
0.00940205
0.00942104
0.00943453
0.00944324
0.00944777
0.00944862
0.0094462
0.00944088
0.00943297
0.00942275
0.00941047
0.00939636
0.00938064
0.00936346
0.00934499
0.00932533
0.00930459
0.00928285
0.00926029
0.00923712
0.00921359
0.000115316
0.00098333
0.00205603
0.00309495
0.00405335
0.0049102
0.00565773
0.00629786
0.0068388
0.00729185
0.00766921
0.00798255
0.00824235
0.00845761
0.00863594
0.00878364
0.00890588
0.00900696
0.00909039
0.00915906
0.00921536
0.00926125
0.00929836
0.00932801
0.00935131
0.00936914
0.00938224
0.0093912
0.00939652
0.0093986
0.00939778
0.00939435
0.00938857
0.00938066
0.00937087
0.00935941
0.00934647
0.00933222
0.00931676
0.00930012
0.00928229
0.00926321
0.00924298
0.00922176
0.0091998
0.000120301
0.00101664
0.00214681
0.00325671
0.00427606
0.00517121
0.00593228
0.00656524
0.00708453
0.00750747
0.00785102
0.00813016
0.00835744
0.00854306
0.00869511
0.00882003
0.00892288
0.0090077
0.00907768
0.0091354
0.00918291
0.0092219
0.0092537
0.00927942
0.00929995
0.009316
0.00932815
0.00933687
0.00934252
0.00934543
0.00934583
0.00934395
0.00933999
0.00933414
0.00932664
0.00931773
0.00930765
0.00929659
0.00928466
0.00927178
0.00925772
0.00924217
0.00922505
0.00920644
0.00918657
0.000127883
0.00106987
0.00230042
0.0035233
0.00462635
0.00556132
0.00632291
0.0069291
0.00740632
0.00778098
0.00807588
0.00830934
0.00849551
0.00864513
0.00876625
0.00886495
0.00894583
0.00901241
0.00906739
0.00911288
0.00915053
0.00918167
0.00920734
0.00922837
0.00924543
0.00925905
0.00926965
0.00927756
0.00928303
0.00928629
0.00928748
0.00928675
0.00928424
0.00928014
0.00927467
0.00926815
0.00926095
0.0092534
0.00924569
0.00923769
0.0092288
0.00921814
0.00920524
0.00919014
0.00917307
0.00013982
0.00116602
0.00258566
0.00399123
0.00519575
0.00614789
0.00686985
0.00740811
0.0078087
0.00810896
0.00833667
0.0085118
0.00864842
0.00875646
0.00884298
0.00891302
0.00897024
0.00901734
0.00905634
0.00908878
0.00911584
0.00913843
0.00915728
0.00917294
0.00918586
0.0091964
0.00920481
0.00921131
0.00921604
0.00921912
0.00922062
0.00922062
0.0092192
0.0092165
0.00921278
0.00920841
0.00920395
0.00919999
0.00919708
0.00919544
0.00919432
0.00919079
0.00918365
0.00917301
0.00915941
0.000160686
0.00138037
0.00320766
0.00489597
0.0061579
0.00702538
0.00760912
0.00800507
0.00827926
0.00847404
0.00861609
0.0087223
0.00880356
0.008867
0.00891742
0.0089581
0.00899135
0.0090188
0.00904166
0.00906083
0.00907698
0.00909062
0.00910216
0.0091119
0.00912007
0.00912688
0.00913244
0.00913687
0.00914023
0.00914256
0.00914388
0.0091442
0.00914355
0.00914201
0.00913979
0.00913725
0.00913497
0.00913374
0.00913481
0.00914045
0.00915318
0.00916126
0.00916215
0.00915689
0.00914703
0.000209332
0.00218409
0.00509183
0.00689827
0.00780219
0.00826482
0.00852047
0.00867338
0.00877128
0.00883751
0.00888438
0.00891878
0.00894483
0.00896507
0.00898114
0.00899413
0.0090048
0.00901367
0.00902113
0.00902744
0.00903282
0.00903741
0.00904135
0.00904472
0.0090476
0.00905003
0.00905205
0.00905369
0.00905497
0.00905589
0.00905644
0.00905663
0.00905645
0.00905592
0.00905513
0.0090542
0.00905338
0.00905303
0.00905427
0.00906249
0.00910704
0.00913422
0.00914536
0.00914552
0.00913879
)
;

boundaryField
{
    leftWall
    {
        type            nutkWallFunction;
        Cmu             0.09;
        kappa           0.41;
        E               9.8;
        value           nonuniform List<scalar> 
42
(
1.1485e-05
1.17357e-05
1.19233e-05
1.20512e-05
1.21216e-05
1.21355e-05
1.20938e-05
1.19979e-05
1.18503e-05
1.16541e-05
1.1414e-05
1.11349e-05
1.08229e-05
1.04848e-05
1.01279e-05
9.75995e-06
9.38878e-06
9.02166e-06
8.66496e-06
8.32365e-06
8.00128e-06
7.69998e-06
7.42078e-06
7.164e-06
6.92968e-06
6.71801e-06
6.52979e-06
6.36679e-06
6.23203e-06
6.13003e-06
6.06699e-06
6.05125e-06
6.09409e-06
6.21118e-06
6.42458e-06
6.76552e-06
7.28088e-06
8.05005e-06
9.2121e-06
1.10154e-05
1.41027e-05
2.11428e-05
)
;
    }
    rightWall
    {
        type            nutkWallFunction;
        Cmu             0.09;
        kappa           0.41;
        E               9.8;
        value           nonuniform 0();
    }
    lowerWall
    {
        type            nutkWallFunction;
        Cmu             0.09;
        kappa           0.41;
        E               9.8;
        value           nonuniform 0();
    }
    atmosphere
    {
        type            calculated;
        value           nonuniform List<scalar> 
45
(
0.009
0.009
0.009
0.009
0.009
0.009
0.009
0.009
0.009
0.009
0.009
0.009
0.009
0.009
0.009
0.009
0.009
0.009
0.009
0.009
0.009
0.009
0.009
0.009
0.009
0.009
0.009
0.009
0.009
0.009
0.009
0.009
0.009
0.009
0.009
0.009
0.009
0.009
0.009
0.009
0.00910704
0.00913422
0.00914536
0.00914552
0.00913879
)
;
    }
    defaultFaces
    {
        type            empty;
    }
    procBoundary2to0
    {
        type            processor;
        value           nonuniform List<scalar> 
46
(
0.0127996
0.0128605
0.0129068
0.0129387
0.012956
0.0129577
0.0129436
0.0129142
0.0128708
0.0128157
0.0127505
0.0126735
0.0125843
0.0124774
0.0123424
0.0121646
0.0119285
0.0116209
0.0112356
0.0107751
0.010252
0.00968676
0.00910508
0.00853389
0.00799841
0.000142001
0.00104236
0.00244619
0.0038895
0.00524051
0.00645927
0.00753598
0.0084738
0.00928187
0.00997188
0.0105563
0.0110473
0.0114563
0.0117941
0.0120706
0.0122951
0.0124756
0.0126195
0.012733
0.0128214
0.0128214
)
;
    }
    procBoundary2to3
    {
        type            processor;
        value           nonuniform List<scalar> 
43
(
0.00847561
0.00941021
0.0102551
0.0109595
0.0114969
0.0118639
0.0120743
0.0121526
0.0121277
0.012028
0.0118789
0.0117005
0.0115082
0.0113124
0.0111199
0.0109347
0.010759
0.0105937
0.010439
0.0102949
0.0101611
0.0100373
0.00992344
0.00981916
0.0097243
0.00963866
0.00956201
0.00949403
0.00943437
0.00938259
0.00933817
0.00930055
0.00926909
0.00924312
0.00922185
0.00920445
0.00918997
0.00917739
0.00916577
0.00915444
0.00914342
0.00913376
0.00912754
)
;
    }
}


// ************************************************************************* //
