/*--------------------------------*- C++ -*----------------------------------*\
  =========                 |
  \\      /  F ield         | OpenFOAM: The Open Source CFD Toolbox
   \\    /   O peration     | Website:  https://openfoam.org
    \\  /    A nd           | Version:  7
     \\/     M anipulation  |
\*---------------------------------------------------------------------------*/
FoamFile
{
    version     2.0;
    format      ascii;
    class       surfaceScalarField;
    location    "0.25";
    object      phi;
}
// * * * * * * * * * * * * * * * * * * * * * * * * * * * * * * * * * * * * * //

dimensions      [0 3 -1 0 0 0 0];

internalField   nonuniform List<scalar> 
3742
(
-1.77577e-05
-5.80976e-05
-2.07396e-05
-5.38575e-05
-2.38116e-05
-4.90163e-05
-2.69094e-05
-4.36042e-05
-2.99605e-05
-3.76773e-05
-3.2888e-05
-3.13168e-05
-3.56161e-05
-2.46269e-05
-3.80751e-05
-1.77288e-05
-4.0207e-05
-1.07532e-05
-4.19688e-05
-3.83144e-06
-4.33339e-05
2.91308e-06
-4.42902e-05
9.36269e-06
-4.48436e-05
1.54168e-05
-4.50152e-05
2.10028e-05
-4.48385e-05
2.60771e-05
-4.4355e-05
3.06228e-05
-4.36109e-05
3.46458e-05
-4.26526e-05
3.81712e-05
-4.15226e-05
4.12401e-05
-4.02546e-05
4.39078e-05
-3.88684e-05
4.62414e-05
-3.73639e-05
4.8317e-05
-3.57124e-05
5.02148e-05
-3.38467e-05
5.20133e-05
5.3777e-05
-8.50276e-08
-7.823e-05
-3.90509e-07
-7.92505e-05
-5.46636e-07
-7.81306e-05
-6.38978e-07
-7.70028e-05
-7.20555e-07
-7.60361e-05
-8.38563e-07
-7.52468e-05
-1.03441e-06
-7.46205e-05
-1.3429e-06
-7.41278e-05
-1.79232e-06
-7.3729e-05
-2.40527e-06
-7.33759e-05
-3.1997e-06
-7.30138e-05
-4.18988e-06
-7.25829e-05
-5.38711e-06
-7.20202e-05
-6.80008e-06
-7.12605e-05
-8.43468e-06
-7.02379e-05
-1.02935e-05
-6.88877e-05
-1.23744e-05
-6.71478e-05
-1.46691e-05
-6.49616e-05
-1.71616e-05
-6.22801e-05
-1.98266e-05
-5.90657e-05
-2.26288e-05
-5.52954e-05
-2.55223e-05
-5.0964e-05
-2.84514e-05
-4.60871e-05
-3.13528e-05
-4.07029e-05
-3.41576e-05
-3.48724e-05
-3.6796e-05
-2.86785e-05
-3.92009e-05
-2.2222e-05
-4.13131e-05
-1.56165e-05
-4.30849e-05
-8.98144e-06
-4.44825e-05
-2.43385e-06
-4.54869e-05
3.91747e-06
-4.6093e-05
9.96886e-06
-4.63116e-05
1.56353e-05
-4.61662e-05
2.08574e-05
-4.56903e-05
2.56011e-05
-4.49229e-05
2.98555e-05
-4.3906e-05
3.36289e-05
-4.26803e-05
3.69455e-05
-4.12824e-05
3.98422e-05
-3.97404e-05
4.23658e-05
-3.80698e-05
4.45708e-05
-3.62692e-05
4.65164e-05
-3.43164e-05
4.82621e-05
-3.21654e-05
4.98622e-05
5.13576e-05
-6.1005e-07
-7.76199e-05
-1.25834e-06
-7.86022e-05
-1.78308e-06
-7.76059e-05
-2.2367e-06
-7.65492e-05
-2.66402e-06
-7.56088e-05
-3.10787e-06
-7.48029e-05
-3.60759e-06
-7.41207e-05
-4.19768e-06
-7.35377e-05
-4.90738e-06
-7.30193e-05
-5.7608e-06
-7.25225e-05
-6.77729e-06
-7.19973e-05
-7.97198e-06
-7.13882e-05
-9.35614e-06
-7.06361e-05
-1.09373e-05
-6.96794e-05
-1.2719e-05
-6.84563e-05
-1.47e-05
-6.69066e-05
-1.68739e-05
-6.4974e-05
-1.92272e-05
-6.26082e-05
-2.1739e-05
-5.97683e-05
-2.43794e-05
-5.64253e-05
-2.71095e-05
-5.25653e-05
-2.98816e-05
-4.81918e-05
-3.26407e-05
-4.33281e-05
-3.53256e-05
-3.80179e-05
-3.7873e-05
-3.23251e-05
-4.02201e-05
-2.63314e-05
-4.23088e-05
-2.01332e-05
-4.40896e-05
-1.38358e-05
-4.55239e-05
-7.54712e-06
-4.65864e-05
-1.37134e-06
-4.72648e-05
4.59594e-06
-4.75602e-05
1.02642e-05
-4.7487e-05
1.5562e-05
-4.70702e-05
2.04406e-05
-4.63425e-05
2.48734e-05
-4.53408e-05
2.88538e-05
-4.41031e-05
3.23911e-05
-4.26656e-05
3.5508e-05
-4.106e-05
3.82366e-05
-3.93106e-05
4.06164e-05
-3.74315e-05
4.26917e-05
-3.54237e-05
4.45086e-05
-3.32733e-05
4.61117e-05
-3.09507e-05
4.75397e-05
4.88191e-05
-1.04023e-06
-7.65796e-05
-2.03139e-06
-7.7611e-05
-2.90619e-06
-7.6731e-05
-3.70021e-06
-7.57552e-05
-4.45532e-06
-7.48537e-05
-5.21123e-06
-7.4047e-05
-6.00495e-06
-7.3327e-05
-6.86964e-06
-7.2673e-05
-7.83406e-06
-7.20549e-05
-8.92226e-06
-7.14343e-05
-1.01536e-05
-7.07659e-05
-1.15431e-05
-6.99988e-05
-1.3101e-05
-6.90781e-05
-1.48333e-05
-6.79471e-05
-1.67409e-05
-6.65487e-05
-1.88194e-05
-6.48281e-05
-2.10584e-05
-6.27349e-05
-2.34407e-05
-6.0226e-05
-2.59412e-05
-5.72678e-05
-2.85273e-05
-5.38392e-05
-3.11584e-05
-4.99342e-05
-3.37866e-05
-4.55636e-05
-3.63586e-05
-4.07561e-05
-3.88176e-05
-3.5559e-05
-4.11057e-05
-3.00369e-05
-4.3168e-05
-2.42692e-05
-4.49549e-05
-1.83463e-05
-4.64256e-05
-1.23651e-05
-4.75501e-05
-6.42257e-06
-4.83106e-05
-6.10906e-07
-4.87005e-05
4.98591e-06
-4.87259e-05
1.02896e-05
-4.84038e-05
1.52399e-05
-4.77601e-05
1.97969e-05
-4.68265e-05
2.39398e-05
-4.56373e-05
2.76646e-05
-4.42272e-05
3.0981e-05
-4.26287e-05
3.39095e-05
-4.087e-05
3.64779e-05
-3.89728e-05
3.87193e-05
-3.69509e-05
4.06698e-05
-3.48083e-05
4.23659e-05
-3.25386e-05
4.3842e-05
-3.01256e-05
4.51267e-05
4.62393e-05
-1.39938e-06
-7.51802e-05
-2.7138e-06
-7.62966e-05
-3.90882e-06
-7.5536e-05
-5.01738e-06
-7.46466e-05
-6.07757e-06
-7.37935e-05
-7.12622e-06
-7.29984e-05
-8.19777e-06
-7.22555e-05
-9.32335e-06
-7.15474e-05
-1.05303e-05
-7.08479e-05
-1.18415e-05
-7.01231e-05
-1.32755e-05
-6.93319e-05
-1.48459e-05
-6.84283e-05
-1.65617e-05
-6.73623e-05
-1.84267e-05
-6.60821e-05
-2.04394e-05
-6.4536e-05
-2.25924e-05
-6.2675e-05
-2.48723e-05
-6.04551e-05
-2.72585e-05
-5.78398e-05
-2.97238e-05
-5.48025e-05
-3.22336e-05
-5.13294e-05
-3.47471e-05
-4.74208e-05
-3.72177e-05
-4.30929e-05
-3.95951e-05
-3.83787e-05
-4.1827e-05
-3.3327e-05
-4.38623e-05
-2.80016e-05
-4.56531e-05
-2.24783e-05
-4.71583e-05
-1.68412e-05
-4.8345e-05
-1.11784e-05
-4.91908e-05
-5.57677e-06
-4.96841e-05
-1.17634e-07
-4.98236e-05
5.1254e-06
-4.96189e-05
1.00849e-05
-4.90892e-05
1.47102e-05
-4.82603e-05
1.89681e-05
-4.71626e-05
2.28421e-05
-4.58282e-05
2.63301e-05
-4.42887e-05
2.94415e-05
-4.25735e-05
3.21943e-05
-4.07081e-05
3.46125e-05
-3.87128e-05
3.67241e-05
-3.66016e-05
3.85586e-05
-3.43813e-05
4.01456e-05
-3.20515e-05
4.15122e-05
-2.96058e-05
4.26809e-05
4.36673e-05
-1.69926e-06
-7.34809e-05
-3.30467e-06
-7.46911e-05
-4.78778e-06
-7.40529e-05
-6.18099e-06
-7.32534e-05
-7.51939e-06
-7.24551e-05
-8.83687e-06
-7.16809e-05
-1.0165e-05
-7.09273e-05
-1.15325e-05
-7.01799e-05
-1.29645e-05
-6.94159e-05
-1.44822e-05
-6.86054e-05
-1.61022e-05
-6.77119e-05
-1.78364e-05
-6.6694e-05
-1.9692e-05
-6.55068e-05
-2.16704e-05
-6.41037e-05
-2.37678e-05
-6.24386e-05
-2.59744e-05
-6.04685e-05
-2.82739e-05
-5.81556e-05
-3.06439e-05
-5.54697e-05
-3.30555e-05
-5.23909e-05
-3.54738e-05
-4.89111e-05
-3.78586e-05
-4.5036e-05
-4.01656e-05
-4.0786e-05
-4.23481e-05
-3.61962e-05
-4.43593e-05
-3.13158e-05
-4.61543e-05
-2.62066e-05
-4.76926e-05
-2.094e-05
-4.89403e-05
-1.55935e-05
-4.9872e-05
-1.02467e-05
-5.04718e-05
-4.97706e-06
-5.07332e-05
1.43801e-07
-5.06593e-05
5.05156e-06
-5.02627e-05
9.68825e-06
-4.95633e-05
1.40108e-05
-4.8587e-05
1.79917e-05
-4.73625e-05
2.16176e-05
-4.59196e-05
2.48873e-05
-4.42875e-05
2.78094e-05
-4.24929e-05
3.03997e-05
-4.05595e-05
3.2679e-05
-3.85063e-05
3.46709e-05
-3.63478e-05
3.64001e-05
-3.4093e-05
3.78908e-05
-3.1746e-05
3.91653e-05
-2.93071e-05
4.0242e-05
4.11348e-05
-1.94901e-06
-7.15319e-05
-3.80606e-06
-7.28341e-05
-5.54198e-06
-7.2317e-05
-7.18716e-06
-7.16083e-05
-8.77382e-06
-7.08684e-05
-1.03328e-05
-7.01219e-05
-1.18925e-05
-6.93676e-05
-1.34789e-05
-6.85935e-05
-1.51146e-05
-6.77803e-05
-1.68182e-05
-6.69017e-05
-1.86044e-05
-6.59257e-05
-2.04829e-05
-6.48155e-05
-2.24585e-05
-6.35312e-05
-2.45306e-05
-6.20315e-05
-2.66931e-05
-6.02761e-05
-2.89339e-05
-5.82277e-05
-3.12351e-05
-5.58544e-05
-3.35728e-05
-5.31321e-05
-3.59175e-05
-5.00462e-05
-3.82347e-05
-4.65939e-05
-4.04857e-05
-4.2785e-05
-4.26293e-05
-3.86424e-05
-4.46229e-05
-3.42025e-05
-4.64251e-05
-2.95136e-05
-4.79971e-05
-2.46346e-05
-4.93053e-05
-1.96319e-05
-5.03225e-05
-1.45763e-05
-5.10296e-05
-9.53957e-06
-5.14161e-05
-4.59054e-06
-5.14802e-05
2.07902e-07
-5.12283e-05
4.79962e-06
-5.06747e-05
9.13466e-06
-4.98402e-05
1.31763e-05
-4.87497e-05
1.69012e-05
-4.74306e-05
2.02985e-05
-4.59107e-05
2.33674e-05
-4.42169e-05
2.61155e-05
-4.23738e-05
2.85567e-05
-4.04034e-05
3.07087e-05
-3.83241e-05
3.25916e-05
-3.61505e-05
3.42264e-05
-3.38932e-05
3.56335e-05
-3.15595e-05
3.68316e-05
-2.91541e-05
3.78366e-05
3.86613e-05
-2.15198e-06
-6.93799e-05
-4.22015e-06
-7.07659e-05
-6.17206e-06
-7.0365e-05
-8.03491e-06
-6.97454e-05
-9.83793e-06
-6.90653e-05
-1.16086e-05
-6.83512e-05
-1.33723e-05
-6.76039e-05
-1.51518e-05
-6.6814e-05
-1.69668e-05
-6.59653e-05
-1.88334e-05
-6.50351e-05
-2.07636e-05
-6.39955e-05
-2.2765e-05
-6.28142e-05
-2.484e-05
-6.14562e-05
-2.69859e-05
-5.98856e-05
-2.91946e-05
-5.80675e-05
-3.14523e-05
-5.597e-05
-3.37398e-05
-5.35669e-05
-3.60326e-05
-5.08393e-05
-3.83013e-05
-4.77775e-05
-4.05124e-05
-4.43828e-05
-4.26296e-05
-4.06678e-05
-4.46148e-05
-3.66572e-05
-4.64298e-05
-3.23874e-05
-4.80385e-05
-2.7905e-05
-4.9408e-05
-2.32651e-05
-5.05107e-05
-1.85292e-05
-5.13254e-05
-1.37616e-05
-5.18384e-05
-9.02654e-06
-5.20439e-05
-4.38509e-06
-5.19435e-05
1.07466e-07
-5.15461e-05
4.40224e-06
-5.08675e-05
8.45602e-06
-4.99284e-05
1.22372e-05
-4.8753e-05
1.57258e-05
-4.73671e-05
1.89126e-05
-4.57967e-05
2.1797e-05
-4.40668e-05
2.43855e-05
-4.22003e-05
2.66901e-05
-4.02178e-05
2.87262e-05
-3.81369e-05
3.05108e-05
-3.59725e-05
3.2062e-05
-3.37361e-05
3.33972e-05
-3.14371e-05
3.45327e-05
-2.90831e-05
3.54825e-05
3.62587e-05
-2.31061e-06
-6.70693e-05
-4.54986e-06
-6.85267e-05
-6.68049e-06
-6.82344e-05
-8.72605e-06
-6.76998e-05
-1.07124e-05
-6.7079e-05
-1.26637e-05
-6.63999e-05
-1.4602e-05
-6.56656e-05
-1.65469e-05
-6.48691e-05
-1.8515e-05
-6.39971e-05
-2.05198e-05
-6.30304e-05
-2.25705e-05
-6.19447e-05
-2.46724e-05
-6.07123e-05
-2.68256e-05
-5.9303e-05
-2.90257e-05
-5.76856e-05
-3.12627e-05
-5.58305e-05
-3.35217e-05
-5.3711e-05
-3.57827e-05
-5.13059e-05
-3.8021e-05
-4.8601e-05
-4.02079e-05
-4.55906e-05
-4.23117e-05
-4.2279e-05
-4.42984e-05
-3.8681e-05
-4.61336e-05
-3.48221e-05
-4.77835e-05
-3.07376e-05
-4.92166e-05
-2.64718e-05
-5.04057e-05
-2.20761e-05
-5.13283e-05
-1.76066e-05
-5.19686e-05
-1.31214e-05
-5.23172e-05
-8.67787e-06
-5.23721e-05
-4.3302e-06
-5.21377e-05
-1.26995e-07
-5.16247e-05
3.88923e-06
-5.08496e-05
7.68091e-06
-4.9833e-05
1.12206e-05
-4.85981e-05
1.44909e-05
-4.71692e-05
1.74837e-05
-4.55707e-05
2.01985e-05
-4.38259e-05
2.26407e-05
-4.19564e-05
2.48206e-05
-3.99815e-05
2.67512e-05
-3.79182e-05
2.84475e-05
-3.57813e-05
2.9925e-05
-3.35829e-05
3.11989e-05
-3.13336e-05
3.22834e-05
-2.90426e-05
3.31914e-05
3.39342e-05
-2.42771e-06
-6.46416e-05
-4.799e-06
-6.61554e-05
-7.07143e-06
-6.5962e-05
-9.26475e-06
-6.55065e-05
-1.14012e-05
-6.49425e-05
-1.35015e-05
-6.42996e-05
-1.55843e-05
-6.35828e-05
-1.76659e-05
-6.27875e-05
-1.976e-05
-6.19031e-05
-2.18771e-05
-6.09133e-05
-2.4024e-05
-5.97978e-05
-2.62036e-05
-5.85328e-05
-2.84141e-05
-5.70924e-05
-3.06493e-05
-5.54504e-05
-3.28979e-05
-5.35818e-05
-3.51441e-05
-5.14648e-05
-3.73676e-05
-4.90824e-05
-3.95442e-05
-4.64244e-05
-4.16463e-05
-4.34885e-05
-4.36441e-05
-4.02813e-05
-4.55063e-05
-3.68188e-05
-4.72021e-05
-3.31263e-05
-4.87017e-05
-2.92379e-05
-4.99785e-05
-2.51951e-05
-5.10095e-05
-2.1045e-05
-5.17774e-05
-1.68387e-05
-5.22703e-05
-1.26285e-05
-5.24827e-05
-8.46542e-06
-5.24155e-05
-4.39748e-06
-5.2075e-05
-4.67473e-07
-5.14733e-05
3.28754e-06
-5.06272e-05
6.8348e-06
-4.95569e-05
1.01502e-05
-4.82845e-05
1.32186e-05
-4.68332e-05
1.60324e-05
-4.52257e-05
1.8591e-05
-4.34838e-05
2.08989e-05
-4.1628e-05
2.29647e-05
-3.96765e-05
2.47998e-05
-3.76458e-05
2.64169e-05
-3.55503e-05
2.78295e-05
-3.34026e-05
2.90511e-05
-3.12137e-05
3.00944e-05
-2.89935e-05
3.09713e-05
3.16921e-05
-2.50608e-06
-6.21355e-05
-4.9718e-06
-6.36896e-05
-7.35023e-06
-6.35835e-05
-9.65711e-06
-6.31996e-05
-1.19109e-05
-6.26887e-05
-1.41287e-05
-6.20818e-05
-1.63258e-05
-6.13857e-05
-1.85153e-05
-6.0598e-05
-2.07079e-05
-5.97104e-05
-2.29114e-05
-5.87098e-05
-2.51303e-05
-5.75789e-05
-2.73651e-05
-5.6298e-05
-2.96124e-05
-5.48451e-05
-3.18644e-05
-5.31984e-05
-3.4109e-05
-5.13372e-05
-3.63299e-05
-4.92439e-05
-3.85069e-05
-4.69054e-05
-4.06164e-05
-4.43148e-05
-4.26325e-05
-4.14724e-05
-4.45272e-05
-3.83865e-05
-4.62725e-05
-3.50735e-05
-4.78405e-05
-3.15583e-05
-4.92056e-05
-2.78729e-05
-5.03449e-05
-2.40557e-05
-5.124e-05
-2.01499e-05
-5.18772e-05
-1.62016e-05
-5.22482e-05
-1.22575e-05
-5.23505e-05
-8.36311e-06
-5.21871e-05
-4.5609e-06
-5.1766e-05
-8.88599e-07
-5.10998e-05
2.62136e-06
-5.02054e-05
5.94041e-06
-4.91024e-05
9.04723e-06
-4.7812e-05
1.19281e-05
-4.6356e-05
1.45763e-05
-4.47558e-05
1.69908e-05
-4.3032e-05
1.91752e-05
-4.12039e-05
2.11366e-05
-3.92889e-05
2.28848e-05
-3.73027e-05
2.44308e-05
-3.52596e-05
2.57864e-05
-3.31721e-05
2.69636e-05
-3.10513e-05
2.79737e-05
-2.89076e-05
2.88276e-05
2.9535e-05
-2.54824e-06
-5.95873e-05
-5.07275e-06
-6.11651e-05
-7.52314e-06
-6.11332e-05
-9.91075e-06
-6.0812e-05
-1.22501e-05
-6.03493e-05
-1.45548e-05
-5.97771e-05
-1.68367e-05
-5.91038e-05
-1.91058e-05
-5.83289e-05
-2.13701e-05
-5.74462e-05
-2.36347e-05
-5.64452e-05
-2.59017e-05
-5.53119e-05
-2.817e-05
-5.40297e-05
-3.04344e-05
-5.25807e-05
-3.26862e-05
-5.09467e-05
-3.49125e-05
-4.91109e-05
-3.70969e-05
-4.70595e-05
-3.92197e-05
-4.47827e-05
-4.12583e-05
-4.22762e-05
-4.31883e-05
-3.95424e-05
-4.49842e-05
-3.65905e-05
-4.66206e-05
-3.34372e-05
-4.80728e-05
-3.0106e-05
-4.93187e-05
-2.6627e-05
-5.0339e-05
-2.30353e-05
-5.11189e-05
-1.93701e-05
-5.16477e-05
-1.56728e-05
-5.19202e-05
-1.1985e-05
-5.19362e-05
-8.3472e-06
-5.17001e-05
-4.79699e-06
-5.1221e-05
-1.36765e-06
-5.05119e-05
1.91226e-06
-4.95894e-05
5.01788e-06
-4.84723e-05
7.93018e-06
-4.7181e-05
1.06368e-05
-4.57359e-05
1.31312e-05
-4.41573e-05
1.54122e-05
-4.24647e-05
1.74826e-05
-4.06763e-05
1.93482e-05
-3.88087e-05
2.10172e-05
-3.68771e-05
2.24992e-05
-3.48952e-05
2.38046e-05
-3.28755e-05
2.49438e-05
-3.0829e-05
2.59272e-05
-2.8766e-05
2.67646e-05
2.74652e-05
-2.55667e-06
-5.70306e-05
-5.10682e-06
-5.8615e-05
-7.59729e-06
-5.86427e-05
-1.00347e-05
-5.83746e-05
-1.24296e-05
-5.79544e-05
-1.4792e-05
-5.74147e-05
-1.71304e-05
-5.67653e-05
-1.94521e-05
-5.60072e-05
-2.17622e-05
-5.51361e-05
-2.40635e-05
-5.41439e-05
-2.63561e-05
-5.30192e-05
-2.86372e-05
-5.17486e-05
-3.09005e-05
-5.03175e-05
-3.31361e-05
-4.8711e-05
-3.53311e-05
-4.69159e-05
-3.74692e-05
-4.49214e-05
-3.95312e-05
-4.27206e-05
-4.1496e-05
-4.03114e-05
-4.33409e-05
-3.76975e-05
-4.50426e-05
-3.48889e-05
-4.65782e-05
-3.19016e-05
-4.79262e-05
-2.8758e-05
-4.90674e-05
-2.54858e-05
-4.99859e-05
-2.21169e-05
-5.06694e-05
-1.86866e-05
-5.11102e-05
-1.52319e-05
-5.13053e-05
-1.17899e-05
-5.1256e-05
-8.39652e-06
-5.09681e-05
-5.08491e-06
-5.04512e-05
-1.88455e-06
-4.97182e-05
1.17933e-06
-4.87854e-05
4.08508e-06
-4.76708e-05
6.81562e-06
-4.63937e-05
9.35962e-06
-4.49734e-05
1.1711e-05
-4.34291e-05
1.3868e-05
-4.17793e-05
1.58327e-05
-4.0041e-05
1.76099e-05
-3.82303e-05
1.92065e-05
-3.63618e-05
2.06307e-05
-3.44487e-05
2.18915e-05
-3.25029e-05
2.29981e-05
-3.05356e-05
2.39599e-05
-2.85567e-05
2.47857e-05
2.54841e-05
-2.53407e-06
-5.44965e-05
-5.07964e-06
-5.60694e-05
-7.58081e-06
-5.61415e-05
-1.00393e-05
-5.59161e-05
-1.24617e-05
-5.5532e-05
-1.48544e-05
-5.5022e-05
-1.7223e-05
-5.43967e-05
-1.95718e-05
-5.36584e-05
-2.19035e-05
-5.28044e-05
-2.42188e-05
-5.18286e-05
-2.6516e-05
-5.0722e-05
-2.87908e-05
-4.94739e-05
-3.10359e-05
-4.80724e-05
-3.3241e-05
-4.65059e-05
-3.5393e-05
-4.47639e-05
-3.7476e-05
-4.28384e-05
-3.94719e-05
-4.07247e-05
-4.13608e-05
-3.84225e-05
-4.31218e-05
-3.59365e-05
-4.47339e-05
-3.32768e-05
-4.61766e-05
-3.04589e-05
-4.74311e-05
-2.75035e-05
-4.8481e-05
-2.44359e-05
-4.93129e-05
-2.1285e-05
-4.99171e-05
-1.80824e-05
-5.0288e-05
-1.4861e-05
-5.04241e-05
-1.16538e-05
-5.03282e-05
-8.49245e-06
-5.00067e-05
-5.40637e-06
-4.94695e-05
-2.42167e-06
-4.87295e-05
4.39302e-07
-4.78021e-05
3.15768e-06
-4.67045e-05
5.71808e-06
-4.5455e-05
8.11008e-06
-4.40718e-05
1.03278e-05
-4.25731e-05
1.23693e-05
-4.09762e-05
1.42358e-05
-3.92974e-05
1.59312e-05
-3.7552e-05
1.74611e-05
-3.57539e-05
1.88326e-05
-3.39159e-05
2.00535e-05
-3.20495e-05
2.11318e-05
-3.01655e-05
2.20759e-05
-2.82736e-05
2.28937e-05
2.35933e-05
-2.48353e-06
-5.2013e-05
-4.99752e-06
-5.35554e-05
-7.48284e-06
-5.36562e-05
-9.93634e-06
-5.34626e-05
-1.23606e-05
-5.31078e-05
-1.47587e-05
-5.2624e-05
-1.71331e-05
-5.20223e-05
-1.94856e-05
-5.13059e-05
-2.18166e-05
-5.04734e-05
-2.4125e-05
-4.95203e-05
-2.64074e-05
-4.84396e-05
-2.86584e-05
-4.72229e-05
-3.087e-05
-4.58608e-05
-3.30317e-05
-4.43442e-05
-3.51304e-05
-4.26652e-05
-3.71508e-05
-4.08179e-05
-3.9076e-05
-3.87996e-05
-4.08873e-05
-3.66111e-05
-4.2566e-05
-3.42579e-05
-4.40928e-05
-3.17499e-05
-4.54499e-05
-2.91019e-05
-4.66206e-05
-2.63327e-05
-4.7591e-05
-2.34655e-05
-4.83499e-05
-2.05261e-05
-4.88897e-05
-1.75427e-05
-4.92063e-05
-1.45444e-05
-4.92996e-05
-1.15605e-05
-4.91732e-05
-8.61888e-06
-4.88339e-05
-5.74562e-06
-4.82917e-05
-2.96382e-06
-4.75591e-05
-2.93352e-07
-4.66506e-05
2.24925e-06
-4.55828e-05
4.65022e-06
-4.43726e-05
6.89988e-06
-4.30373e-05
8.99254e-06
-4.1594e-05
1.0926e-05
-4.00591e-05
1.27008e-05
-3.84479e-05
1.432e-05
-3.67751e-05
1.57882e-05
-3.50538e-05
1.71114e-05
-3.32964e-05
1.8296e-05
-3.1514e-05
1.93494e-05
-2.97168e-05
2.02787e-05
-2.79142e-05
2.10911e-05
2.17938e-05
-2.40861e-06
-4.96044e-05
-4.86746e-06
-5.10965e-05
-7.3135e-06
-5.12102e-05
-9.7388e-06
-5.10373e-05
-1.2142e-05
-5.07046e-05
-1.45229e-05
-5.02431e-05
-1.68812e-05
-4.9664e-05
-1.92163e-05
-4.89708e-05
-2.15265e-05
-4.81632e-05
-2.3809e-05
-4.72378e-05
-2.60593e-05
-4.61893e-05
-2.82709e-05
-4.50112e-05
-3.04354e-05
-4.36963e-05
-3.25422e-05
-4.22374e-05
-3.45785e-05
-4.06289e-05
-3.653e-05
-3.88665e-05
-3.83805e-05
-3.6949e-05
-4.01133e-05
-3.48783e-05
-4.17111e-05
-3.26601e-05
-4.31569e-05
-3.03042e-05
-4.44347e-05
-2.78241e-05
-4.55302e-05
-2.52372e-05
-4.64314e-05
-2.25643e-05
-4.7129e-05
-1.98284e-05
-4.76171e-05
-1.70546e-05
-4.78929e-05
-1.42687e-05
-4.79571e-05
-1.14962e-05
-4.78139e-05
-8.7621e-06
-4.74703e-05
-6.08921e-06
-4.6936e-05
-3.49807e-06
-4.6223e-05
-1.00632e-06
-4.53452e-05
1.37138e-06
-4.43178e-05
3.62285e-06
-4.3157e-05
5.73905e-06
-4.18789e-05
7.71446e-06
-4.04995e-05
9.54662e-06
-3.90343e-05
1.12356e-05
-3.74978e-05
1.27836e-05
-3.59037e-05
1.41942e-05
-3.42648e-05
1.54724e-05
-3.25926e-05
1.66239e-05
-3.08978e-05
1.76547e-05
-2.91903e-05
1.85712e-05
-2.74789e-05
1.93797e-05
2.00866e-05
-2.31365e-06
-4.72907e-05
-4.69748e-06
-4.87126e-05
-7.08419e-06
-4.88234e-05
-9.46117e-06
-4.86603e-05
-1.18232e-05
-4.83425e-05
-1.41669e-05
-4.78994e-05
-1.64896e-05
-4.73413e-05
-1.87884e-05
-4.66721e-05
-2.10598e-05
-4.58917e-05
-2.32997e-05
-4.49979e-05
-2.55025e-05
-4.39866e-05
-2.7661e-05
-4.28527e-05
-2.97665e-05
-4.15907e-05
-3.18086e-05
-4.01954e-05
-3.37749e-05
-3.86625e-05
-3.56519e-05
-3.69895e-05
-3.74249e-05
-3.5176e-05
-3.90784e-05
-3.32248e-05
-4.05969e-05
-3.11417e-05
-4.19652e-05
-2.89358e-05
-4.31694e-05
-2.66199e-05
-4.4197e-05
-2.42096e-05
-4.50378e-05
-2.17235e-05
-4.56842e-05
-1.91821e-05
-4.61313e-05
-1.66075e-05
-4.63775e-05
-1.40225e-05
-4.64241e-05
-1.14496e-05
-4.62754e-05
-8.91071e-06
-4.59386e-05
-6.42601e-06
-4.5423e-05
-4.01368e-06
-4.47399e-05
-1.68941e-06
-4.39023e-05
5.33717e-07
-4.29244e-05
2.64496e-06
-4.18212e-05
4.63593e-06
-4.0608e-05
6.50125e-06
-3.92996e-05
8.23826e-06
-3.79105e-05
9.84653e-06
-3.64545e-05
1.13275e-05
-3.49443e-05
1.26841e-05
-3.33921e-05
1.39202e-05
-3.18089e-05
1.50406e-05
-3.02048e-05
1.60506e-05
-2.85891e-05
1.69555e-05
-2.69703e-05
1.77608e-05
1.84722e-05
-2.20405e-06
-4.50866e-05
-4.49698e-06
-4.64197e-05
-6.80777e-06
-4.65126e-05
-9.11928e-06
-4.63488e-05
-1.14227e-05
-4.60391e-05
-1.37119e-05
-4.56102e-05
-1.59817e-05
-4.50715e-05
-1.82275e-05
-4.44262e-05
-2.04445e-05
-4.36748e-05
-2.26271e-05
-4.28153e-05
-2.47689e-05
-4.18447e-05
-2.68625e-05
-4.07591e-05
-2.88989e-05
-3.95543e-05
-3.08678e-05
-3.82264e-05
-3.27578e-05
-3.67725e-05
-3.45561e-05
-3.51912e-05
-3.62491e-05
-3.3483e-05
-3.7823e-05
-3.1651e-05
-3.92638e-05
-2.97009e-05
-4.05581e-05
-2.76415e-05
-4.16936e-05
-2.54844e-05
-4.26596e-05
-2.32436e-05
-4.34474e-05
-2.09357e-05
-4.40506e-05
-1.85788e-05
-4.44656e-05
-1.61925e-05
-4.46913e-05
-1.37968e-05
-4.47296e-05
-1.14114e-05
-4.45848e-05
-9.0555e-06
-4.42638e-05
-6.74703e-06
-4.37754e-05
-4.50203e-06
-4.31304e-05
-2.33447e-06
-4.23406e-05
-2.56045e-07
-4.14194e-05
1.72373e-06
-4.03806e-05
3.59715e-06
-3.92383e-05
5.35901e-06
-3.80065e-05
7.00644e-06
-3.66986e-05
8.53861e-06
-3.53274e-05
9.95635e-06
-3.39051e-05
1.12618e-05
-3.2443e-05
1.24581e-05
-3.09514e-05
1.35491e-05
-2.94401e-05
1.45392e-05
-2.79177e-05
1.54331e-05
-2.63922e-05
1.62353e-05
1.69508e-05
-2.08627e-06
-4.30004e-05
-4.27677e-06
-4.42292e-05
-6.49842e-06
-4.42909e-05
-8.73011e-06
-4.41171e-05
-1.09599e-05
-4.38093e-05
-1.31794e-05
-4.33907e-05
-1.53815e-05
-4.28694e-05
-1.75599e-05
-4.22478e-05
-1.97086e-05
-4.15261e-05
-2.18212e-05
-4.07027e-05
-2.38907e-05
-3.97752e-05
-2.59093e-05
-3.87405e-05
-2.78681e-05
-3.75955e-05
-2.97572e-05
-3.63373e-05
-3.15658e-05
-3.4964e-05
-3.32819e-05
-3.3475e-05
-3.48935e-05
-3.18715e-05
-3.63877e-05
-3.01567e-05
-3.77524e-05
-2.83363e-05
-3.89756e-05
-2.64183e-05
-4.00467e-05
-2.44133e-05
-4.09564e-05
-2.23339e-05
-4.16973e-05
-2.01948e-05
-4.22641e-05
-1.8012e-05
-4.2654e-05
-1.58026e-05
-4.28666e-05
-1.35842e-05
-4.29038e-05
-1.13742e-05
-4.27699e-05
-9.18932e-06
-4.24716e-05
-7.04537e-06
-4.20171e-05
-4.95655e-06
-4.14163e-05
-2.9353e-06
-4.06802e-05
-9.92104e-07
-3.9821e-05
8.64515e-07
-3.88515e-05
2.62764e-06
-3.77846e-05
4.2922e-06
-3.66334e-05
5.8552e-06
-3.54102e-05
7.31545e-06
-3.41271e-05
8.67323e-06
-3.27953e-05
9.93002e-06
-3.14254e-05
1.10882e-05
-3.00273e-05
1.2151e-05
-2.86099e-05
1.31218e-05
-2.71814e-05
1.40046e-05
-2.57495e-05
1.48033e-05
1.55222e-05
-1.96699e-06
-4.10334e-05
-4.04811e-06
-4.2148e-05
-6.17062e-06
-4.21684e-05
-8.31072e-06
-4.1977e-05
-1.04543e-05
-4.16657e-05
-1.2591e-05
-4.1254e-05
-1.47124e-05
-4.0748e-05
-1.68111e-05
-4.01492e-05
-1.88799e-05
-3.94572e-05
-2.09118e-05
-3.86707e-05
-2.28995e-05
-3.77875e-05
-2.48348e-05
-3.68051e-05
-2.67091e-05
-3.57211e-05
-2.8513e-05
-3.45334e-05
-3.02362e-05
-3.32408e-05
-3.18679e-05
-3.18433e-05
-3.33969e-05
-3.03424e-05
-3.4812e-05
-2.87416e-05
-3.61022e-05
-2.70461e-05
-3.72571e-05
-2.52634e-05
-3.82674e-05
-2.3403e-05
-3.91252e-05
-2.14762e-05
-3.98241e-05
-1.94959e-05
-4.03599e-05
-1.74762e-05
-4.07302e-05
-1.54323e-05
-4.09352e-05
-1.33793e-05
-4.09767e-05
-1.13326e-05
-4.08592e-05
-9.3069e-06
-4.05885e-05
-7.31604e-06
-4.01725e-05
-5.37258e-06
-3.96202e-05
-3.48761e-06
-3.89417e-05
-1.67054e-06
-3.81481e-05
7.09239e-08
-3.72511e-05
1.73061e-06
-3.62626e-05
3.30367e-06
-3.51944e-05
4.78702e-06
-3.40581e-05
6.17915e-06
-3.28647e-05
7.4799e-06
-3.16248e-05
8.69016e-06
-3.03483e-05
9.81168e-06
-2.90442e-05
1.08469e-05
-2.77209e-05
1.17986e-05
-2.63863e-05
1.267e-05
-2.50473e-05
1.34643e-05
1.41853e-05
-1.85199e-06
-3.91814e-05
-3.82109e-06
-4.01789e-05
-5.83756e-06
-4.0152e-05
-7.87688e-06
-3.99377e-05
-9.92385e-06
-3.96187e-05
-1.19671e-05
-3.92108e-05
-1.3997e-05
-3.8718e-05
-1.60055e-05
-3.81407e-05
-1.79848e-05
-3.7478e-05
-1.99272e-05
-3.67283e-05
-2.18252e-05
-3.58895e-05
-2.36707e-05
-3.49596e-05
-2.54552e-05
-3.39366e-05
-2.71698e-05
-3.28189e-05
-2.88048e-05
-3.16058e-05
-3.03504e-05
-3.02977e-05
-3.17966e-05
-2.88963e-05
-3.31332e-05
-2.7405e-05
-3.43506e-05
-2.58287e-05
-3.54397e-05
-2.41743e-05
-3.63924e-05
-2.24503e-05
-3.72019e-05
-2.06667e-05
-3.78628e-05
-1.88349e-05
-3.83717e-05
-1.69674e-05
-3.87266e-05
-1.50773e-05
-3.8928e-05
-1.3178e-05
-3.89778e-05
-1.12828e-05
-3.88801e-05
-9.40466e-06
-3.86403e-05
-7.55577e-06
-3.82657e-05
-5.74722e-06
-3.77645e-05
-3.98887e-06
-3.71458e-05
-2.28919e-06
-3.64197e-05
-6.55161e-07
-3.55967e-05
9.07621e-07
-3.46877e-05
2.39468e-06
-3.37036e-05
3.80287e-06
-3.26548e-05
5.13042e-06
-3.15517e-05
6.37678e-06
-3.04039e-05
7.54234e-06
-2.92205e-05
8.62828e-06
-2.801e-05
9.63636e-06
-2.67802e-05
1.05688e-05
-2.55384e-05
1.14282e-05
-2.42912e-05
1.22171e-05
1.29386e-05
-1.74499e-06
-3.74364e-05
-3.60288e-06
-3.8321e-05
-5.50942e-06
-3.82454e-05
-7.44146e-06
-3.80056e-05
-9.38395e-06
-3.76762e-05
-1.13252e-05
-3.72696e-05
-1.32552e-05
-3.67879e-05
-1.51653e-05
-3.62306e-05
-1.70473e-05
-3.55959e-05
-1.88934e-05
-3.48822e-05
-2.06957e-05
-3.40872e-05
-2.24464e-05
-3.3209e-05
-2.41371e-05
-3.22458e-05
-2.57594e-05
-3.11965e-05
-2.73045e-05
-3.00607e-05
-2.87633e-05
-2.88389e-05
-3.01267e-05
-2.75329e-05
-3.13859e-05
-2.61458e-05
-3.25322e-05
-2.46824e-05
-3.35577e-05
-2.31488e-05
-3.44555e-05
-2.15525e-05
-3.52197e-05
-1.99025e-05
-3.58458e-05
-1.82089e-05
-3.63308e-05
-1.64825e-05
-3.66733e-05
-1.47348e-05
-3.68738e-05
-1.29775e-05
-3.69344e-05
-1.12223e-05
-3.68586e-05
-9.48048e-06
-3.66515e-05
-7.76282e-06
-3.63196e-05
-6.0791e-06
-3.58704e-05
-4.4381e-06
-3.53122e-05
-2.84743e-06
-3.46539e-05
-1.31343e-06
-3.3905e-05
1.58748e-07
-3.30754e-05
1.56504e-06
-3.21748e-05
2.90231e-06
-3.1213e-05
4.1686e-06
-3.01992e-05
5.36301e-06
-2.91424e-05
6.48552e-06
-2.80509e-05
7.53679e-06
-2.69325e-05
8.51805e-06
-2.57947e-05
9.43094e-06
-2.4644e-05
1.02774e-05
-2.34866e-05
1.10597e-05
1.17803e-05
-1.6471e-06
-3.57893e-05
-3.39687e-06
-3.65713e-05
-5.19235e-06
-3.64499e-05
-7.01343e-06
-3.61846e-05
-8.84633e-06
-3.58433e-05
-1.06797e-05
-3.54362e-05
-1.25038e-05
-3.49639e-05
-1.43096e-05
-3.44248e-05
-1.60888e-05
-3.38167e-05
-1.78335e-05
-3.31374e-05
-1.95359e-05
-3.23848e-05
-2.11882e-05
-3.15567e-05
-2.27825e-05
-3.06515e-05
-2.43108e-05
-2.96682e-05
-2.57649e-05
-2.86066e-05
-2.71367e-05
-2.74671e-05
-2.8418e-05
-2.62516e-05
-2.96009e-05
-2.49629e-05
-3.06778e-05
-2.36055e-05
-3.16419e-05
-2.21846e-05
-3.24871e-05
-2.07073e-05
-3.32084e-05
-1.91812e-05
-3.3802e-05
-1.76154e-05
-3.42653e-05
-1.60191e-05
-3.45974e-05
-1.44026e-05
-3.47988e-05
-1.27761e-05
-3.48713e-05
-1.11498e-05
-3.48183e-05
-9.53351e-06
-3.46443e-05
-7.93677e-06
-3.43552e-05
-6.36822e-06
-3.39576e-05
-4.83568e-06
-3.34591e-05
-3.346e-06
-3.28675e-05
-1.90496e-06
-3.21915e-05
-5.17302e-07
-3.14397e-05
8.13228e-07
-3.0621e-05
2.08363e-06
-2.97442e-05
3.2918e-06
-2.88177e-05
4.43657e-06
-2.78498e-05
5.51755e-06
-2.68479e-05
6.53498e-06
-2.58195e-05
7.48962e-06
-2.47712e-05
8.3826e-06
-2.37091e-05
9.21539e-06
-2.26392e-05
9.98979e-06
1.07076e-05
-1.55704e-06
-3.42322e-05
-3.20287e-06
-3.49255e-05
-4.8885e-06
-3.47643e-05
-6.59776e-06
-3.44753e-05
-8.31888e-06
-3.41222e-05
-1.00415e-05
-3.37136e-05
-1.17561e-05
-3.32493e-05
-1.3454e-05
-3.27268e-05
-1.51269e-05
-3.21437e-05
-1.67671e-05
-3.14972e-05
-1.83669e-05
-3.0785e-05
-1.99187e-05
-3.00048e-05
-2.14151e-05
-2.91551e-05
-2.28486e-05
-2.82347e-05
-2.42117e-05
-2.72435e-05
-2.5497e-05
-2.61818e-05
-2.66971e-05
-2.50514e-05
-2.78051e-05
-2.38549e-05
-2.88144e-05
-2.25962e-05
-2.97189e-05
-2.12801e-05
-3.05135e-05
-1.99127e-05
-3.11938e-05
-1.8501e-05
-3.17565e-05
-1.70526e-05
-3.21997e-05
-1.5576e-05
-3.25225e-05
-1.40798e-05
-3.27254e-05
-1.25732e-05
-3.28102e-05
-1.1065e-05
-3.27798e-05
-9.56393e-06
-3.26383e-05
-8.07825e-06
-3.23909e-05
-6.61565e-06
-3.20435e-05
-5.18311e-06
-3.16027e-05
-3.78678e-06
-3.10757e-05
-2.43194e-06
-3.047e-05
-1.12297e-06
-2.97934e-05
1.36625e-07
-2.90538e-05
1.34405e-06
-2.82592e-05
2.49712e-06
-2.74171e-05
3.59447e-06
-2.65349e-05
4.63539e-06
-2.56197e-05
5.61978e-06
-2.4678e-05
6.54798e-06
-2.37161e-05
7.4207e-06
-2.27397e-05
8.23896e-06
-2.17541e-05
9.00421e-06
9.71773e-06
-1.47212e-06
-3.27601e-05
-3.01831e-06
-3.33793e-05
-4.59709e-06
-3.31855e-05
-6.19624e-06
-3.28761e-05
-7.80612e-06
-3.25123e-05
-9.41755e-06
-3.21022e-05
-1.10218e-05
-3.1645e-05
-1.26105e-05
-3.11381e-05
-1.41758e-05
-3.05784e-05
-1.57102e-05
-2.99629e-05
-1.72063e-05
-2.92889e-05
-1.86569e-05
-2.85542e-05
-2.00551e-05
-2.77569e-05
-2.13939e-05
-2.68959e-05
-2.26665e-05
-2.59709e-05
-2.38662e-05
-2.49821e-05
-2.49864e-05
-2.39312e-05
-2.60211e-05
-2.28203e-05
-2.69644e-05
-2.16529e-05
-2.78111e-05
-2.04334e-05
-2.85567e-05
-1.91671e-05
-2.91974e-05
-1.78602e-05
-2.97306e-05
-1.65194e-05
-3.01545e-05
-1.51521e-05
-3.04684e-05
-1.37659e-05
-3.06728e-05
-1.23688e-05
-3.07693e-05
-1.09685e-05
-3.07605e-05
-9.57276e-06
-3.065e-05
-8.18876e-06
-3.04423e-05
-6.82336e-06
-3.01426e-05
-5.48277e-06
-2.97569e-05
-4.17254e-06
-2.92913e-05
-2.89747e-06
-2.87527e-05
-1.66161e-06
-2.81478e-05
-4.68281e-07
-2.74836e-05
6.79908e-07
-2.67673e-05
1.78082e-06
-2.60058e-05
2.8329e-06
-2.52056e-05
3.83523e-06
-2.43732e-05
4.78739e-06
-2.35146e-05
5.6894e-06
-2.26355e-05
6.54159e-06
-2.17412e-05
7.34461e-06
-2.08365e-05
8.09955e-06
8.80729e-06
-1.38946e-06
-3.13707e-05
-2.83997e-06
-3.19287e-05
-4.31614e-06
-3.17094e-05
-5.80887e-06
-3.13834e-05
-7.31035e-06
-3.10108e-05
-8.81261e-06
-3.05999e-05
-1.03078e-05
-3.01499e-05
-1.17881e-05
-2.96578e-05
-1.32462e-05
-2.91202e-05
-1.46751e-05
-2.8534e-05
-1.60677e-05
-2.78962e-05
-1.74176e-05
-2.72043e-05
-1.87182e-05
-2.64563e-05
-1.99632e-05
-2.5651e-05
-2.11464e-05
-2.47876e-05
-2.22619e-05
-2.38667e-05
-2.33039e-05
-2.28892e-05
-2.42669e-05
-2.18573e-05
-2.51459e-05
-2.07739e-05
-2.59364e-05
-1.96429e-05
-2.66344e-05
-1.84691e-05
-2.72368e-05
-1.72578e-05
-2.77412e-05
-1.6015e-05
-2.81461e-05
-1.47472e-05
-2.8451e-05
-1.34611e-05
-2.86563e-05
-1.21635e-05
-2.87633e-05
-1.08615e-05
-2.87744e-05
-9.56167e-06
-2.86927e-05
-8.27049e-06
-2.85221e-05
-6.99399e-06
-2.82671e-05
-5.73774e-06
-2.79329e-05
-4.50672e-06
-2.75251e-05
-3.30532e-06
-2.70494e-05
-2.13727e-06
-2.6512e-05
-1.0057e-06
-2.5919e-05
8.68976e-08
-2.52767e-05
1.1385e-06
-2.45912e-05
2.14747e-06
-2.38687e-05
3.11268e-06
-2.31148e-05
4.0335e-06
-2.2335e-05
4.90964e-06
-2.15346e-05
5.74117e-06
-2.07183e-05
6.52837e-06
-1.98908e-05
7.27202e-06
7.97267e-06
-1.30709e-06
-3.00636e-05
-2.66555e-06
-3.05702e-05
-4.04404e-06
-3.03309e-05
-5.43529e-06
-2.99921e-05
-6.83274e-06
-2.96134e-05
-8.22948e-06
-2.92032e-05
-9.61845e-06
-2.87609e-05
-1.09927e-05
-2.82835e-05
-1.23456e-05
-2.77674e-05
-1.36704e-05
-2.72092e-05
-1.49611e-05
-2.66055e-05
-1.62116e-05
-2.59538e-05
-1.74161e-05
-2.52519e-05
-1.85688e-05