/*--------------------------------*- C++ -*----------------------------------*\
  =========                 |
  \\      /  F ield         | OpenFOAM: The Open Source CFD Toolbox
   \\    /   O peration     | Website:  https://openfoam.org
    \\  /    A nd           | Version:  7
     \\/     M anipulation  |
\*---------------------------------------------------------------------------*/
FoamFile
{
    version     2.0;
    format      ascii;
    class       volVectorField;
    location    "0.01";
    object      fD;
}
// * * * * * * * * * * * * * * * * * * * * * * * * * * * * * * * * * * * * * //

dimensions      [1 -1 -2 0 0 0 0];

internalField   uniform (0 0 0);

boundaryField
{
    flow
    {
        type            zeroGradient;
    }
    obstacle
    {
        type            calculated;
        value           nonuniform List<vector> 
40
(
(3.155769106 -2.535904516 -0.05553747797)
(1.793402324 -2.27264961 1.465830734)
(1.591535288 -1.49422624 -0.2874781065)
(0 0 0)
(0.5594275766 -4.40099191 0.3243706726)
(6.635312014 -2.046932659 -2.157899483)
(5.168808059 -1.615290894 -2.980435687)
(-0.7577446911 -2.507716029 -0.8707977831)
(3.449762377 -5.170978561 -5.24939472)
(5.284101321 -3.648784092 4.618695646)
(2.414205524 -1.34523656 0.5807379089)
(0 0 0)
(0 0 0)
(2.949811514 -3.602562624 -0.7603200971)
(3.538279302 -2.387113585 0.9402534012)
(0 0 0)
(5.292806914 -4.898237155 2.401333154)
(0.8700357294 -1.694434412 -1.586679424)
(0 0 0)
(6.777473567 -3.5443038 2.113307439)
(2.6080802 -2.842020582 -1.222103009)
(0.3074503919 -0.8141433876 -0.7588631797)
(0 0 0)
(5.914974981 -6.357584691 -3.06795283)
(0.5251175877 -1.311214247 -0.5629854288)
(0.9459208187 -2.739416666 0.9859881454)
(1.008154284 -3.593214984 -0.5135083328)
(0 0 0)
(0.5272273113 -3.561860363 -0.2853085844)
(0 0 0)
(3.263270768 -5.983271572 -2.296307004)
(0.8873201382 -1.632400731 -0.4801089312)
(1.692663533 -2.703714726 1.154177643)
(1.847990238 -1.48354372 0.127105549)
(0.9027854037 -1.971780763 -1.243815176)
(0.4493793011 -1.113263255 -0.7694658844)
(-0.5588346586 -4.069502149 -0.6153741621)
(1.044369829 -3.265346358 0.3411204451)
(1.48242391 -1.753870507 -0.3038749784)
(0 0 0)
)
;
    }
    frontAndBack
    {
        type            empty;
    }
}


// ************************************************************************* //
