/*--------------------------------*- C++ -*----------------------------------*\
  =========                 |
  \\      /  F ield         | OpenFOAM: The Open Source CFD Toolbox
   \\    /   O peration     | Website:  https://openfoam.org
    \\  /    A nd           | Version:  7
     \\/     M anipulation  |
\*---------------------------------------------------------------------------*/
FoamFile
{
    version     2.0;
    format      ascii;
    class       volScalarField;
    location    "0.01";
    object      iDofMean;
}
// * * * * * * * * * * * * * * * * * * * * * * * * * * * * * * * * * * * * * //

dimensions      [0 -3 0 0 0 0 0];

internalField   nonuniform List<scalar> 
2400
(
1.876310862e+20
1.883600661e+20
1.907011328e+20
1.879726653e+20
1.842111292e+20
1.849276123e+20
1.878893534e+20
1.854691402e+20
1.888849316e+20
1.839986837e+20
1.802288164e+20
1.784750991e+20
1.806203827e+20
1.787958502e+20
1.737096536e+20
1.706229445e+20
1.747718814e+20
1.756549884e+20
1.698814679e+20
1.590384131e+20
1.904095409e+20
1.905220121e+20
1.896930578e+20
1.887474668e+20
1.814493369e+20
1.834904806e+20
1.824699088e+20
1.857982225e+20
1.807453507e+20
1.813327002e+20
1.768005282e+20
1.778752528e+20
1.815076553e+20
1.789916334e+20
1.782043351e+20
1.696815191e+20
1.702605374e+20
1.641412721e+20
1.610129071e+20
1.531857462e+20
1.88859938e+20
1.945751401e+20
1.899055034e+20
1.880018245e+20
1.791499262e+20
1.845901988e+20
1.788041814e+20
1.822949536e+20
1.809827898e+20
1.783126407e+20
1.753009125e+20
1.731681257e+20
1.754258805e+20
1.723100122e+20
1.697106783e+20
1.632706619e+20
1.609295951e+20
1.59205037e+20
1.5196106e+20
1.510821185e+20
1.920966086e+20
1.906803048e+20
1.848484659e+20
1.882850853e+20
1.746135886e+20
1.766130762e+20
1.827240103e+20
1.783459655e+20
1.792415693e+20
1.729723425e+20
1.728432089e+20
1.718059747e+20
1.751217917e+20
1.704771486e+20
1.648160992e+20
1.620834661e+20
1.576137781e+20
1.582761084e+20
1.542521396e+20
1.504697755e+20
1.875269462e+20
1.85544121e+20
1.848609627e+20
1.788999902e+20
1.805870579e+20
1.826365327e+20
1.847234979e+20
1.8247824e+20
1.797164477e+20
1.723183434e+20
1.73309756e+20
1.691774816e+20
1.725391202e+20
1.768088594e+20
1.684901577e+20
1.581219812e+20
1.573680078e+20
1.560391816e+20
1.541771588e+20
1.486077526e+20
1.825907111e+20
1.872520167e+20
1.841444796e+20
1.835404678e+20
1.829489527e+20
1.754550396e+20
1.808828154e+20
1.807911723e+20
1.753592309e+20
1.767338786e+20
1.739637551e+20
1.710353389e+20
1.704479894e+20
1.706146133e+20
1.627166372e+20
1.662782245e+20
1.570389254e+20
1.560183536e+20
1.497491268e+20
1.479954095e+20
1.866605016e+20
1.87435303e+20
1.87601927e+20
1.888016196e+20
1.801829948e+20
1.772254193e+20
1.757966188e+20
1.740637295e+20
1.805537331e+20
1.730973105e+20
1.752342629e+20
1.737554752e+20
1.701980534e+20
1.675820571e+20
1.635789162e+20
1.590300819e+20
1.599840041e+20
1.549769538e+20
1.502448331e+20
1.473705696e+20
1.878143726e+20
1.860523241e+20
1.846693451e+20
1.827864943e+20
1.818242409e+20
1.824074248e+20
1.730389921e+20
1.735513608e+20
1.768088594e+20
1.733764056e+20
1.719767643e+20
1.766588978e+20
1.734263928e+20
1.677861715e+20
1.630415539e+20
1.659033206e+20
1.615377726e+20
1.55318533e+20
1.549103042e+20
1.486160838e+20
1.853275098e+20
1.865563616e+20
1.824657432e+20
1.82394928e+20
1.791457606e+20
1.81261885e+20
1.750593077e+20
1.711228164e+20
1.731764569e+20
1.766130762e+20
1.719476051e+20
1.734097304e+20
1.707062565e+20
1.648202648e+20
1.62541682e+20
1.610087415e+20
1.557184305e+20
1.548478202e+20
1.462791826e+20
1.456793363e+20
1.840861613e+20
1.838237285e+20
1.76875509e+20
1.763839683e+20
1.783001439e+20
1.765672546e+20
1.76917165e+20
1.747177286e+20
1.744552958e+20
1.745344422e+20
1.74692735e+20
1.78091864e+20
1.663615365e+20
1.650951944e+20
1.606338376e+20
1.573638422e+20
1.553685202e+20
1.527441926e+20
1.511362713e+20
1.499657379e+20
1.861981201e+20
1.850567459e+20
1.799330588e+20
1.78787519e+20
1.808078347e+20
1.802371476e+20
1.757299692e+20
1.780418768e+20
1.730681513e+20
1.731264697e+20
1.704979766e+20
1.694774047e+20
1.670488604e+20
1.614169702e+20
1.623625613e+20
1.586760059e+20
1.57501307e+20
1.566348623e+20
1.49903254e+20
1.460000875e+20
1.833488502e+20
1.793248813e+20
1.817534257e+20
1.894806123e+20
1.760715483e+20
1.756549884e+20
1.798039252e+20
1.772379161e+20
1.777044632e+20
1.732764312e+20
1.692607936e+20
1.680652666e+20
1.651660095e+20
1.632331715e+20
1.59205037e+20
1.596382594e+20
1.518027672e+20
1.498449356e+20
1.527441926e+20
1.47345576e+20
1.838653845e+20
1.806037203e+20
1.844985556e+20
1.806370451e+20
1.751134605e+20
1.80928637e+20
1.718517963e+20
1.746594102e+20
1.766963882e+20
1.700314294e+20
1.701855566e+20
1.690858384e+20
1.589675979e+20
1.611795311e+20
1.620251477e+20
1.567265055e+20
1.579511917e+20
1.514236977e+20
1.512779017e+20
1.51586156e+20
1.818908905e+20
1.825073991e+20
1.770587954e+20
1.819492088e+20
1.760132299e+20
1.811244202e+20
1.764422867e+20
1.751467853e+20
1.70118907e+20
1.729431833e+20
1.706562693e+20
1.693482712e+20
1.631415283e+20
1.612586775e+20
1.640412978e+20
1.611878623e+20
1.585593692e+20
1.547645083e+20
1.526108935e+20
1.558725577e+20
1.828406471e+20
1.808953122e+20
1.816326233e+20
1.790832766e+20
1.777252912e+20
1.792623973e+20
1.740928887e+20
1.742720095e+20
1.712977716e+20
1.687567561e+20
1.70077251e+20
1.651326847e+20
1.598465393e+20
1.61616919e+20
1.622959117e+20
1.610503975e+20
1.586093564e+20
1.584718916e+20
1.565932063e+20
1.502281707e+20
1.848359691e+20
1.867354824e+20
1.740762263e+20
1.771212793e+20
1.797081165e+20
1.725599482e+20
1.722516938e+20
1.763089875e+20
1.76958821e+20
1.685693041e+20
1.655659071e+20
1.684776609e+20
1.672779684e+20
1.638746738e+20
1.578845421e+20
1.575554597e+20
1.616252502e+20
1.572222118e+20
1.557517553e+20
1.541188404e+20
1.853191786e+20
1.795581549e+20
1.781960039e+20
1.785250863e+20
1.774420305e+20
1.742928375e+20
1.742845063e+20
1.768463498e+20
1.734930424e+20
1.683651898e+20
1.648327616e+20
1.696898503e+20
1.638455146e+20
1.682652154e+20
1.629957323e+20
1.626291596e+20
1.649035768e+20
1.60671328e+20
1.546437059e+20
1.540896812e+20
1.824199216e+20
1.839570277e+20
1.805995547e+20
1.823449408e+20
1.770962857e+20
1.771254449e+20
1.737513096e+20
1.7580495e+20
1.739012711e+20
1.681277506e+20
1.681402474e+20
1.684943233e+20
1.655492447e+20
1.69048348e+20
1.697106783e+20
1.630373883e+20
1.628832612e+20
1.574554854e+20
1.545645595e+20
1.558850545e+20
1.855524522e+20
1.859440185e+20
1.777836096e+20
1.830322646e+20
1.808619874e+20
1.792582317e+20
1.751509509e+20
1.784959271e+20
1.776586416e+20
1.743094999e+20
1.698106527e+20
1.681069226e+20
1.692274688e+20
1.667197781e+20
1.653909519e+20
1.60483876e+20
1.59309177e+20
1.571805558e+20
1.551019218e+20
1.549769538e+20
1.84140314e+20
1.883517349e+20
1.8206168e+20
1.829031311e+20
1.794373525e+20
1.829239591e+20
1.801871604e+20
1.77675304e+20
1.745094486e+20
1.746135886e+20
1.731972849e+20
1.658075118e+20
1.667531029e+20
1.633997955e+20
1.644078705e+20
1.593008458e+20
1.626000004e+20
1.590800691e+20
1.541063436e+20
1.569514479e+20
1.84452734e+20
1.86343916e+20
1.847276635e+20
1.8439025e+20
1.813410314e+20
1.767005538e+20
1.796956197e+20
1.788791622e+20
1.770962857e+20
1.720642419e+20
1.695023983e+20
1.707062565e+20
1.72614101e+20
1.644703545e+20
1.686026289e+20
1.621959373e+20
1.627374652e+20
1.616335814e+20
1.548186611e+20
1.586343499e+20
1.881601173e+20
1.844693964e+20
1.8428611e+20
1.806495419e+20
1.848234723e+20
1.741762007e+20
1.749343397e+20
1.764006307e+20
1.762881595e+20
1.736513352e+20
1.65982467e+20
1.661657534e+20
1.678028339e+20
1.710603325e+20
1.651535127e+20
1.605755192e+20
1.651368503e+20
1.640954505e+20
1.637288778e+20
1.622959117e+20
1.841903012e+20
1.864980432e+20
1.837945693e+20
1.814201777e+20
1.811827386e+20
1.775045145e+20
1.769296618e+20
1.756924788e+20
1.782293287e+20
1.762381723e+20
1.704229958e+20
1.691441568e+20
1.693024496e+20
1.67261306e+20
1.687400937e+20
1.616460782e+20
1.640329666e+20
1.694274176e+20
1.630165603e+20
1.604755448e+20
1.817117697e+20
1.847943131e+20
1.894556187e+20
1.836321109e+20
1.827281759e+20
1.798247532e+20
1.803829435e+20
1.826490295e+20
1.760798795e+20
1.74755219e+20
1.76646401e+20
1.766380698e+20
1.710936573e+20
1.7135609e+20
1.742928375e+20
1.63633069e+20
1.648785832e+20
1.674779171e+20
1.638538458e+20
1.605713536e+20
1.870645647e+20
1.910468776e+20
1.858690377e+20
1.812702162e+20
1.807953379e+20
1.827781631e+20
1.80128842e+20
1.747385566e+20
1.770546298e+20
1.768630122e+20
1.728182153e+20
1.762298411e+20
1.750718045e+20
1.738137935e+20
1.690608448e+20
1.62958242e+20
1.642495777e+20
1.68373521e+20
1.651285192e+20
1.589967571e+20
1.901262801e+20
1.897597074e+20
1.795498237e+20
1.801413388e+20
1.79224907e+20
1.833571814e+20
1.800538612e+20
1.699731111e+20
1.701147414e+20
1.742428503e+20
1.738346215e+20
1.737721376e+20
1.740595639e+20
1.700439262e+20
1.681777378e+20
1.709770205e+20
1.613294927e+20
1.688650617e+20
1.652576527e+20
1.657450278e+20
1.884350469e+20
1.863522472e+20
1.793540405e+20
1.852025418e+20
1.805162427e+20
1.805578987e+20
1.871353799e+20
1.825240615e+20
1.77696132e+20
1.753342373e+20
1.751342885e+20
1.716101916e+20
1.668072556e+20
1.700230982e+20
1.669988732e+20
1.662240717e+20
1.663490397e+20
1.682152282e+20
1.682610498e+20
1.646703032e+20
1.822657944e+20
1.818200753e+20
1.831613982e+20
1.861106425e+20
1.862481073e+20
1.822616288e+20
1.809827898e+20
1.807870067e+20
1.811410826e+20
1.752717533e+20
1.78954143e+20
1.751301229e+20
1.654742639e+20
1.723266746e+20
1.701480662e+20
1.716851723e+20
1.684651641e+20
1.679486298e+20
1.67177994e+20
1.676112163e+20
1.862397761e+20
1.888974284e+20
1.877310606e+20
1.857482353e+20
1.806495419e+20
1.852858538e+20
1.819367121e+20
1.797372757e+20
1.805745611e+20
1.824449152e+20
1.767213818e+20
1.752884157e+20
1.68290209e+20
1.714144084e+20
1.740595639e+20
1.714269052e+20
1.753092437e+20
1.70389671e+20
1.703730086e+20
1.64641144e+20
1.862147825e+20
1.864147312e+20
1.821116672e+20
1.805578987e+20
1.826115391e+20
1.818325721e+20
1.80003874e+20
1.793415437e+20
1.806870323e+20
1.82103336e+20
1.859981713e+20
1.778669216e+20
1.720975667e+20
1.7983725e+20
1.750218173e+20
1.742386847e+20
1.695107295e+20
1.674945795e+20
1.687609217e+20
1.687567561e+20
1.867313168e+20
1.844985556e+20
1.87810207e+20
1.840944925e+20
1.86489712e+20
1.873561567e+20
1.817534257e+20
1.74442799e+20
1.795331613e+20
1.811244202e+20
1.844818932e+20
1.8418197e+20
1.81303541e+20
1.828198191e+20
1.839570277e+20
1.761132043e+20
1.713519244e+20
1.74380315e+20
1.714144084e+20
1.72614101e+20
1.834946462e+20
1.912051703e+20
1.94379357e+20
1.88568346e+20
1.906594768e+20
1.918716662e+20
1.844277404e+20
1.840986581e+20
1.82082508e+20
1.799330588e+20
1.798664092e+20
1.752634221e+20
1.763381467e+20
1.765131019e+20
1.802704724e+20
1.745511046e+20
1.72322509e+20
1.726016042e+20
1.717184971e+20
1.708895429e+20
1.867146544e+20
1.979326131e+20
1.924048629e+20
1.925173341e+20
1.873519911e+20
1.839861869e+20
1.850817395e+20
1.817159353e+20
1.829072967e+20
1.805329051e+20
1.744053086e+20
1.784542711e+20
1.781626791e+20
1.767963626e+20
1.795664861e+20
1.765380954e+20
1.755383516e+20
1.785084239e+20
1.775545017e+20
1.737179848e+20
1.818117441e+20
1.89784701e+20
1.911926735e+20
1.886766516e+20
1.848567971e+20
1.913093103e+20
1.891681923e+20
1.816076297e+20
1.830780862e+20
1.876519142e+20
1.825865455e+20
1.808536563e+20
1.766380698e+20
1.797164477e+20
1.747010662e+20
1.764589491e+20
1.763048219e+20
1.78112692e+20
1.731389665e+20
1.740637295e+20
1.8651054e+20
1.918675006e+20
1.867229856e+20
1.89847185e+20
1.874269718e+20
1.877852134e+20
1.901221145e+20
1.906969672e+20
1.78704207e+20
1.854066562e+20
1.82103336e+20
1.787625254e+20
1.804454275e+20
1.829447871e+20
1.770546298e+20
1.748635246e+20
1.763506435e+20
1.787708566e+20
1.765589234e+20
1.774503617e+20
1.944710001e+20
1.906219864e+20
1.905553369e+20
1.917758574e+20
1.909760624e+20
1.895514274e+20
1.855482866e+20
1.843236004e+20
1.86531368e+20
1.905261777e+20
1.847359947e+20
1.743178311e+20
1.855107962e+20
1.87539443e+20
1.771129481e+20
1.787625254e+20
1.810661018e+20
1.778794184e+20
1.783542967e+20
1.808161659e+20
1.885850084e+20
1.917217046e+20
1.934171035e+20
1.922882261e+20
1.975868684e+20
1.890015683e+20
1.897180514e+20
1.861148081e+20
1.886391612e+20
1.925756525e+20
1.893973003e+20
1.799497212e+20
1.86427228e+20
1.89763873e+20
1.837737413e+20
1.802829692e+20
1.790707798e+20
1.83486315e+20
1.823074504e+20
1.821699856e+20
1.913384695e+20
1.965787934e+20
1.889349188e+20
1.823990936e+20
1.926423021e+20
1.894639499e+20
1.89576421e+20
1.8894325e+20
1.887474668e+20
1.896014146e+20
1.891973515e+20
1.825573863e+20
1.893223195e+20
1.839820213e+20
1.894597843e+20
1.890265619e+20
1.868687815e+20
1.865230368e+20
1.839070405e+20
1.794956709e+20
1.913801255e+20
1.994988784e+20
1.955873807e+20
1.889265876e+20
1.883767285e+20
1.926964549e+20
1.925714869e+20
1.869146031e+20
1.878643598e+20
1.906219864e+20
1.907011328e+20
1.877352262e+20
1.89992981e+20
1.851358923e+20
1.840195117e+20
1.849192811e+20
1.813368658e+20
1.83236379e+20
1.881476205e+20
1.884142189e+20
1.943002106e+20
1.972702828e+20
1.933629507e+20
1.951249992e+20
1.916258959e+20
1.876102582e+20
1.878601942e+20
1.930463652e+20
1.919924686e+20
1.960914182e+20
1.940919306e+20
1.8852669e+20
1.882684229e+20
1.885725116e+20
1.91105196e+20
1.848776251e+20
1.796664605e+20
1.803454531e+20
1.870395711e+20
1.842569508e+20
1.409370452e+20
1.372803247e+20
1.353233689e+20
1.321953528e+20
1.292082177e+20
1.263865928e+20
1.225701659e+20
1.203497276e+20
1.218249192e+20
1.250453282e+20
1.203040435e+20
1.237777363e+20
1.242340279e+20
1.289132176e+20
1.247374103e+20
1.239492445e+20
1.250966622e+20
1.276759119e+20
1.243851612e+20
1.197938101e+20
1.194146978e+20
1.219284149e+20
1.216981094e+20
1.271028379e+20
1.26116059e+20
1.224261649e+20
1.282104685e+20
1.253425185e+20
1.306237148e+20
1.317673342e+20
1.293923017e+20
1.326821952e+20
1.331623167e+20
1.349892477e+20
1.385255975e+20
1.384448363e+20
1.434733984e+20
1.499979095e+20
1.518949878e+20
1.610694693e+20
1.408158145e+20
1.354493591e+20
1.338484548e+20
1.355882602e+20
1.315891834e+20
1.262307791e+20
1.25233503e+20
1.226897271e+20
1.237440486e+20
1.229028903e+20
1.233819749e+20
1.257664967e+20
1.29980586e+20
1.288306397e+20
1.237297487e+20
1.195758804e+20
1.212060175e+20
1.2533484e+20
1.262678351e+20
1.19894687e+20
1.234235921e+20
1.255739691e+20
1.249695639e+20
1.238743097e+20
1.237011344e+20
1.246038847e+20
1.278038384e+20
1.273106855e+20
1.265507689e+20
1.273834302e+20
1.306435865e+20
1.349200805e+20
1.36141926e+20
1.401753301e+20
1.391244976e+20
1.474375432e+20
1.464334416e+20
1.496454999e+20
1.559088634e+20
1.676448962e+20
1.411669656e+20
1.355714235e+20
1.368279508e+20
1.366082663e+20
1.371247139e+20
1.352852892e+20
1.278794039e+20
1.283619209e+20
1.253845947e+20
1.249339749e+20
1.26424012e+20
1.271857484e+20
1.289833623e+20
1.309455505e+20
1.269006472e+20
1.213038016e+20
1.271851263e+20
1.26673271e+20
1.285985377e+20
1.274172273e+20
1.262462797e+20
1.302443778e+20
1.311090756e+20
1.26854871e+20
1.280010001e+20
1.289845294e+20
1.311280394e+20
1.291404659e+20
1.330943596e+20
1.281236375e+20
1.341135354e+20
1.331488632e+20
1.380409588e+20
1.407149849e+20
1.413077608e+20
1.512115135e+20
1.486340728e+20
1.514467053e+20
1.638406428e+20
1.654283963e+20
1.47776133e+20
1.433077791e+20
1.396887756e+20
1.345981287e+20
1.348597878e+20
1.357570586e+20
1.299542786e+20
1.310048471e+20
1.311021853e+20
1.275218261e+20
1.311396182e+20
1.279315335e+20
1.298667477e+20
1.318263811e+20
1.289344594e+20
1.261662001e+20
1.292501248e+20
1.253253812e+20
1.248999176e+20
1.293146751e+20
1.267643374e+20
1.298490767e+20
1.278179431e+20
1.288931584e+20
1.296509485e+20
1.302296609e+20
1.32251355e+20
1.29601755e+20
1.361180566e+20
1.352494365e+20
1.34718148e+20
1.353125058e+20
1.396297269e+20
1.426847248e+20
1.500789252e+20
1.506456926e+20
1.53312493e+20
1.580921472e+20
1.671431988e+20
1.712175064e+20
1.455354539e+20
1.44141184e+20
1.428674698e+20
1.386013327e+20
1.350016145e+20
1.326364555e+20
1.316717168e+20
1.320409444e+20
1.331362856e+20
1.294281951e+20
1.326696103e+20
1.242523267e+20
1.254862493e+20
1.290737855e+20
1.281810244e+20
1.298036842e+20
1.296584313e+20
1.283191155e+20
1.270113721e+20
1.286469655e+20
1.274324864e+20
1.331139708e+20
1.318765147e+20
1.260365806e+20
1.291659637e+20
1.287425606e+20
1.303859396e+20
1.302270584e+20
1.359733328e+20
1.347542272e+20
1.391134167e+20
1.363412964e+20
1.44139261e+20
1.45798533e+20
1.517612904e+20
1.528485485e+20
1.557071339e+20
1.601954186e+20
1.65686687e+20
1.779866643e+20
1.478471993e+20
1.471254474e+20
1.41350173e+20
1.384519593e+20
1.349371477e+20
1.313163666e+20
1.359304403e+20
1.337092365e+20
1.302310596e+20
1.269071559e+20
1.313908781e+20
1.287225179e+20
1.265973114e+20
1.30294103e+20
1.305984878e+20
1.305069621e+20
1.277107624e+20
1.273968751e+20
1.319110903e+20
1.296509316e+20
1.300372993e+20
1.276627202e+20
1.328308937e+20
1.322208731e+20
1.340358114e+20
1.34721208e+20
1.329985378e+20
1.314366609e+20
1.331150345e+20
1.370791041e+20
1.3690001e+20
1.40451157e+20
1.432405647e+20
1.420641219e+20
1.537812158e+20
1.520135509e+20
1.60878896e+20
1.673443024e+20
1.690795686e+20
1.734169119e+20
1.472410454e+20
1.410895748e+20
1.367855683e+20
1.345554508e+20
1.353153519e+20
1.356748237e+20
1.357168505e+20
1.33098993e+20
1.314780516e+20
1.266666326e+20
1.312203802e+20
1.304898026e+20
1.30973256e+20
1.326796855e+20
1.311485415e+20
1.318389985e+20
1.305923737e+20
1.276711825e+20
1.355191512e+20
1.331768222e+20
1.363943988e+20
1.331774142e+20
1.300956627e+20
1.369768771e+20
1.371607137e+20
1.384818074e+20
1.39270807e+20
1.367517372e+20
1.328565993e+20
1.40086849e+20
1.36584561e+20
1.399102469e+20
1.415234106e+20
1.46705154e+20
1.524146376e+20
1.558259765e+20
1.565607807e+20
1.621756256e+20
1.718401681e+20
1.827216571e+20
1.491849182e+20
1.450840262e+20
1.435710208e+20
1.350633197e+20
1.357795111e+20
1.364365797e+20
1.32081461e+20
1.364399678e+20
1.335961691e+20
1.297800715e+20
1.319427519e+20
1.345215624e+20
1.33682608e+20
1.335054643e+20
1.305938654e+20
1.35760588e+20
1.342248936e+20
1.287353061e+20
1.355239176e+20
1.35203969e+20
1.366267983e+20
1.33928974e+20
1.305728522e+20
1.354394828e+20
1.38765664e+20
1.333450104e+20
1.369835125e+20
1.326513884e+20
1.39612106e+20
1.386481344e+20
1.399493581e+20
1.441632868e+20
1.442034528e+20
1.51189684e+20
1.559808129e+20
1.560676837e+20
1.575918041e+20
1.665220114e+20
1.714393435e+20
1.788242604e+20
1.496280376e+20
1.476515869e+20
1.429522349e+20
1.387165635e+20
1.362694573e+20
1.362115154e+20
1.321163327e+20
1.347321633e+20
1.386195124e+20
1.360381283e+20
1.337643848e+20
1.340605316e+20
1.356861621e+20
1.353772291e+20
1.358031986e+20
1.326354258e+20
1.350837452e+20
1.320884777e+20
1.33865258e+20
1.39008472e+20
1.32003013e+20
1.397950467e+20
1.310156057e+20
1.328159939e+20
1.368157247e+20
1.375945874e+20
1.343150026e+20
1.377768247e+20
1.391934408e+20
1.420259821e+20
1.410692065e+20
1.461943557e+20
1.509704299e+20
1.562948183e+20
1.554472473e+20
1.539966707e+20
1.623312018e+20
1.75779762e+20
1.74736254e+20
1.882087751e+20
1.490218838e+20
1.427100846e+20
1.406974812e+20
1.404962394e+20
1.357838089e+20
1.370295377e+20
1.365886465e+20
1.35719968e+20
1.340825844e+20
1.344658194e+20
1.375108464e+20
1.361080507e+20
1.326853843e+20
1.379967824e+20
1.32738613e+20
1.316014674e+20
1.309490551e+20
1.324384563e+20
1.367774445e+20
1.37178275e+20
1.393332868e+20
1.369205734e+20
1.341788309e+20
1.366545202e+20
1.369157211e+20
1.369947074e+20
1.406685989e+20
1.36403208e+20
1.404752817e+20
1.408270558e+20
1.459481653e+20
1.502246689e+20
1.522863794e+20
1.534832169e+20
1.568301635e+20
1.623796094e+20
1.646316083e+20
1.742190901e+20
1.776605684e+20
1.818612643e+20
1.476841648e+20
1.417630334e+20
1.398583059e+20
1.423442003e+20
1.428063684e+20
1.411845709e+20
1.403155746e+20
1.382004551e+20
1.360017138e+20
1.317888855e+20
1.37232666e+20
1.363340459e+20
1.378172148e+20
1.362442963e+20
1.347446916e+20
1.301250498e+20
1.327043045e+20
1.353517906e+20
1.333886319e+20
1.364769401e+20
1.333296274e+20
1.392679784e+20
1.339918917e+20
1.314025828e+20
1.376356997e+20
1.362435957e+20
1.403992042e+20
1.388736667e+20
1.388006187e+20
1.360157069e+20
1.429040735e+20
1.454837476e+20
1.509276348e+20
1.529759414e+20
1.565470457e+20
1.588912961e+20
1.654575394e+20
1.701076426e+20
1.790324009e+20
1.909950713e+20
1.441726527e+20
1.463257154e+20
1.488518914e+20
1.415973338e+20
1.420456627e+20
1.462615024e+20
1.43005066e+20
1.418970406e+20
1.412947972e+20
1.361851153e+20
1.378338951e+20
1.390731124e+20
1.363600857e+20
1.350148043e+20
1.407675495e+20
1.359003116e+20
1.374631854e+20
1.367280551e+20
1.348518736e+20
1.328982103e+20
1.334797209e+20
1.416544266e+20
1.355169307e+20
1.342740387e+20
1.396506356e+20
1.404125176e+20
1.391945648e+20
1.398321242e+20
1.40216846e+20
1.466705226e+20
1.457326067e+20
1.446829853e+20
1.550199141e+20
1.570719212e+20
1.596558845e+20
1.622752361e+20
1.714053413e+20
1.686532531e+20
1.743693033e+20
1.835250638e+20
1.453222549e+20
1.484976197e+20
1.481525792e+20
1.449219563e+20
1.47288944e+20
1.465341762e+20
1.433581426e+20
1.439736233e+20
1.403086994e+20
1.372407442e+20
1.407009469e+20
1.392810268e+20
1.37730698e+20
1.390060676e+20
1.376983417e+20
1.389649277e+20
1.378621076e+20
1.379529816e+20
1.318872592e+20
1.363760631e+20
1.370673887e+20
1.415324179e+20
1.378635218e+20
1.347154196e+20
1.429705318e+20
1.397874303e+20
1.457870541e+20
1.466028242e+20
1.426874908e+20
1.501578387e+20
1.473834637e+20
1.496784565e+20
1.537628105e+20
1.56715749e+20
1.639570735e+20
1.64203419e+20
1.661781477e+20
1.706278666e+20
1.807485992e+20
1.872458209e+20
1.537875067e+20
1.502191469e+20
1.46669187e+20
1.4771737e+20
1.481442013e+20
1.455906373e+20
1.428307055e+20
1.46045819e+20
1.412328885e+20
1.390223964e+20
1.449992825e+20
1.386979594e+20
1.380448918e+20
1.383637944e+20
1.423021533e+20
1.415172202e+20
1.405184443e+20
1.410602214e+20
1.456140961e+20
1.405504484e+20
1.388781695e+20
1.375354861e+20
1.392704933e+20
1.397987385e+20
1.429855314e+20
1.458870633e+20
1.443435172e+20
1.461312829e+20
1.495877227e+20
1.501943266e+20
1.519574851e+20
1.524943723e+20
1.564375045e+20
1.567859041e+20
1.648499791e+20
1.642803281e+20
1.692989421e+20
1.711257138e+20
1.81561536e+20
1.89832689e+20
1.491138527e+20
1.504548587e+20
1.484831628e+20
1.4867336e+20
1.481871801e+20
1.451534941e+20
1.460737878e+20
1.492155754e+20
1.41900605e+20
1.40616977e+20
1.450037703e+20
1.440269344e+20
1.388554216e+20
1.413732997e+20
1.431295463e+20
1.462911278e+20
1.457137936e+20
1.446971604e+20
1.408049369e+20
1.429522811e+20
1.423351157e+20
1.398877725e+20
1.408447281e+20
1.426602769e+20
1.415105786e+20
1.460080477e+20
1.479676079e+20
1.499702351e+20
1.483730763e+20
1.525348426e+20
1.529984712e+20
1.551618055e+20
1.538377019e+20
1.578921964e+20
1.615124735e+20
1.664172648e+20
1.68727999e+20
1.703090196e+20
1.822559212e+20
1.889836954e+20
1.501045997e+20
1.496424993e+20
1.464191317e+20
1.492495141e+20
1.499363723e+20
1.448851482e+20
1.474773795e+20
1.481311833e+20
1.422145629e+20
1.427594149e+20
1.43334687e+20
1.38865195e+20
1.419017338e+20
1.434331586e+20
1.428290956e+20
1.425930968e+20
1.466430439e+20
1.448248553e+20
1.420584651e+20
1.444029892e+20
1.424755227e+20
1.444215318e+20
1.412628829e+20
1.411575979e+20
1.409055964e+20
1.436639743e+20
1.464478291e+20
1.483095941e+20
1.5048191e+20
1.513724043e+20
1.498176857e+20
1.563019602e+20
1.564696009e+20
1.627868653e+20
1.640822981e+20
1.626268113e+20
1.697146785e+20
1.743924981e+20
1.820413946e+20
1.858897121e+20
1.509490348e+20
1.5658754e+20
1.518441011e+20
1.499366302e+20
1.435369897e+20
1.458027171e+20
1.49351741e+20
1.499794776e+20
1.486440896e+20
1.460777439e+20
1.458652311e+20
1.47909536e+20
1.443788566e+20
1.461811663e+20
1.430232323e+20
1.419550223e+20
1.446343615e+20
1.447255349e+20
1.411195092e+20
1.421212481e+20
1.440103311e+20
1.473887321e+20
1.447458762e+20
1.415791415e+20
1.435805128e+20
1.453174271e+20
1.451161144e+20
1.506314163e+20
1.58441728e+20
1.576433146e+20
1.551645593e+20
1.554057429e+20
1.605672308e+20
1.609844197e+20
1.68704721e+20
1.684772923e+20
1.664497636e+20
1.764006745e+20
1.827752959e+20
1.873540819e+20
1.54845141e+20
1.543988006e+20
1.517211936e+20
1.50674961e+20
1.476456588e+20
1.479581406e+20
1.498268688e+20
1.504711838e+20
1.473263464e+20
1.484295261e+20
1.481848976e+20
1.457309394e+20
1.443105515e+20
1.441992966e+20
1.471047239e+20
1.443256755e+20
1.444419434e+20
1.46830137e+20
1.434883429e+20
1.457768364e+20
1.46484417e+20
1.49116343e+20
1.469645619e+20
1.461119751e+20
1.440404996e+20
1.520673527e+20
1.546414243e+20
1.55777352e+20
1.574648413e+20
1.592071329e+20
1.532192861e+20
1.581049957e+20
1.585023683e+20
1.61345987e+20
1.647574218e+20
1.685541971e+20
1.699308614e+20
1.754161646e+20
1.798679177e+20
1.893768536e+20
1.567513915e+20
1.587720724e+20
1.569681571e+20
1.551092145e+20
1.541095089e+20
1.534505753e+20
1.554586723e+20
1.506160618e+20
1.495726996e+20
1.448083171e+20
1.465876038e+20
1.507661192e+20
1.487001589e+20
1.446993525e+20
1.471555692e+20
1.477954895e+20
1.503365729e+20
1.491097251e+20
1.444463617e+20
1.484476745e+20
1.502318629e+20
1.503266475e+20
1.467481036e+20
1.547164242e+20
1.531202146e+20
1.543005212e+20
1.513833007e+20
1.579556632e+20
1.549063283e+20
1.610732908e+20
1.530089861e+20
1.603110612e+20
1.618189889e+20
1.643356745e+20
1.669461295e+20
1.752946086e+20
1.738997596e+20
1.751644433e+20
1.848358666e+20
1.870179049e+20
1.594101067e+20
1.571431444e+20
1.528104251e+20
1.580283941e+20
1.561595461e+20
1.560691131e+20
1.516271287e+20
1.553136217e+20
1.535701499e+20
1.461534642e+20
1.524428512e+20
1.517152992e+20
1.484314994e+20
1.472959674e+20
1.468643654e+20
1.509066804e+20
1.474408831e+20
1.451322687e+20
1.462146453e+20
1.48928041e+20
1.483581394e+20
1.516491979e+20
1.515839542e+20
1.527822829e+20
1.523352392e+20
1.493452017e+20
1.518153464e+20
1.600417154e+20
1.596977253e+20
1.582010765e+20
1.586870848e+20
1.583542388e+20
1.677996048e+20
1.664565178e+20
1.65312767e+20
1.689222583e+20
1.773032533e+20
1.780900023e+20
1.833398353e+20
1.845108097e+20
1.579344356e+20
1.523194962e+20
1.544252018e+20
1.528430085e+20
1.541997621e+20
1.510917283e+20
1.4978328e+20
1.58843378e+20
1.53145642e+20
1.51070827e+20
1.497866783e+20
1.511683923e+20
1.543510928e+20
1.534113169e+20
1.564094155e+20
1.514842067e+20
1.488816899e+20
1.533851383e+20
1.447085062e+20
1.485629636e+20
1.517715119e+20
1.501948816e+20
1.477172425e+20
1.518499288e+20
1.520652488e+20
1.530805948e+20
1.525421952e+20
1.55157173e+20
1.544411429e+20
1.566111945e+20
1.607322505e+20
1.634610687e+20
1.689925169e+20
1.65236898e+20
1.736701445e+20
1.729873763e+20
1.801080881e+20
1.890538638e+20
1.851745886e+20
1.879238762e+20
1.606976611e+20
1.549501938e+20
1.5547629e+20
1.572986e+20
1.528459639e+20
1.534895288e+20
1.522940516e+20
1.550106949e+20
1.487281068e+20
1.508837534e+20
1.474759853e+20
1.512859077e+20
1.482630177e+20
1.512275901e+20
1.528594884e+20
1.520757042e+20
1.49524653e+20
1.529878632e+20
1.503803578e+20
1.517622036e+20
1.515197432e+20
1.505706593e+20
1.52651479e+20
1.526186236e+20
1.565801078e+20
1.5715374e+20
1.55200542e+20
1.547317645e+20
1.546427252e+20
1.586545864e+20
1.59233866e+20
1.615519752e+20
1.656010063e+20
1.686151384e+20
1.706593132e+20
1.719930727e+20
1.787555607e+20
1.853787332e+20
1.843051978e+20
1.949950259e+20
1.62980144e+20
1.61512207e+20
1.582777791e+20
1.612463214e+20
1.586995294e+20
1.574800921e+20
1.526776429e+20
1.517487445e+20
1.517881001e+20
1.52678769e+20
1.520704484e+20
1.526464017e+20
1.495698837e+20
1.533837909e+20
1.523094346e+20
1.525554236e+20
1.545839002e+20
1.546526278e+20
1.522058377e+20
1.542601097e+20
1.553640211e+20
1.485746341e+20
1.55809788e+20
1.529409817e+20
1.56630105e+20
1.56488323e+20
1.565170056e+20
1.604312484e+20
1.621011768e+20
1.631062534e+20
1.667941465e+20
1.697239667e+20
1.685378203e+20
1.703798081e+20
1.703816384e+20
1.775359186e+20
1.774030316e+20
1.790297633e+20
1.815220199e+20
1.910748407e+20
1.588792006e+20
1.635494192e+20
1.587651789e+20
1.590569359e+20
1.634485663e+20
1.6042757e+20
1.61713809e+20
1.568897188e+20
1.573907209e+20
1.533246182e+20
1.570956436e+20
1.536814611e+20
1.520515578e+20
1.559437047e+20
1.554156208e+20
1.534776038e+20
1.557994333e+20
1.562275295e+20
1.53445066e+20
1.536356332e+20
1.58399743e+20
1.557242162e+20
1.639761257e+20
1.58440886e+20
1.546151679e+20
1.608437639e+20
1.612186674e+20
1.637012761e+20
1.619926338e+20
1.660775082e+20
1.674040177e+20
1.651209247e+20
1.661733908e+20
1.689982919e+20
1.776664432e+20
1.788708164e+20
1.749030686e+20
1.859213324e+20
1.844802051e+20
1.896161672e+20
1.664623934e+20
1.614280247e+20
1.618379166e+20
1.646520321e+20
1.622022136e+20
1.657079237e+20
1.606284229e+20
1.629394746e+20
1.601853967e+20
1.551329951e+20
1.50648139e+20
1.595528243e+20
1.58499361e+20
1.591642413e+20
1.539503514e+20
1.533239061e+20
1.571557618e+20
1.603894362e+20
1.574820906e+20
1.555474932e+20
1.547781814e+20
1.598187518e+20
1.598093244e+20
1.541510598e+20
1.558551304e+20
1.573150513e+20
1.61289825e+20
1.65105644e+20
1.673215769e+20
1.681208989e+20
1.668256943e+20
1.669610801e+20
1.679172899e+20
1.729971338e+20
1.726683479e+20
1.783819032e+20
1.852077894e+20
1.87258252e+20
1.898941385e+20
1.972514098e+20
1.664791149e+20
1.65212019e+20
1.616387184e+20
1.618096731e+20
1.616649921e+20
1.599341586e+20
1.60144575e+20
1.588609368e+20
1.56236589e+20
1.599568222e+20
1.560412491e+20
1.634715851e+20
1.610857651e+20
1.646464926e+20
1.606989118e+20
1.522247455e+20
1.600232948e+20
1.587010268e+20
1.603799784e+20
1.619027415e+20
1.565889622e+20
1.604824697e+20
1.606407179e+20
1.553908939e+20
1.602999903e+20
1.606219591e+20
1.59754799e+20
1.6339375e+20
1.665721136e+20
1.724891634e+20
1.721883401e+20
1.692466926e+20
1.699821551e+20
1.741250123e+20
1.813523996e+20
1.824689962e+20
1.855182026e+20
1.883714178e+20
1.865859372e+20
1.908754127e+20
1.594769926e+20
1.570884248e+20
1.581633461e+20
1.633418162e+20
1.634141853e+20