/*--------------------------------*- C++ -*----------------------------------*\
  =========                 |
  \\      /  F ield         | OpenFOAM: The Open Source CFD Toolbox
   \\    /   O peration     | Website:  https://openfoam.org
    \\  /    A nd           | Version:  7
     \\/     M anipulation  |
\*---------------------------------------------------------------------------*/
FoamFile
{
    version     2.0;
    format      ascii;
    class       volScalarField;
    location    "0.01";
    object      internalT;
}
// * * * * * * * * * * * * * * * * * * * * * * * * * * * * * * * * * * * * * //

dimensions      [1 2 -2 0 0 0 0];

internalField   nonuniform List<scalar> 
2400
(
296.1306081
303.0956487
308.830362
305.560383
311.2441481
314.704189
309.513088
310.1479188
316.3820639
315.6847006
318.1612201
321.8701089
310.9872673
310.1136461
331.0542773
324.110614
324.2443653
328.9350888
345.8935655
370.3427311
308.7345863
309.7961649
309.3723547
308.3985821
310.8831781
313.5221073
308.4737754
309.6785258
312.4454616
328.9924565
322.2952318
322.0371561
315.388931
326.6600996
341.6190251
345.8360049
337.3012236
342.8307461
356.4653057
381.6615671
313.2734815
311.0108514
313.2895526
316.5014873
312.5652153
318.0025663
315.8314998
307.4700646
314.2677987
324.1256098
319.9736385
317.2228183
320.6453568
341.4563473
342.8859366
345.5688923
341.3371508
367.0848623
366.8214946
385.5122607
302.5928167
313.9012014
309.0302181
313.7178544
316.1737306
313.2700615
314.1301879
313.6001663
321.6919212
328.200372
324.5105588
327.7344017
329.8237472
343.1445003
345.3045533
349.6962048
347.4612463
366.2759833
377.997391
378.5964938
312.3924841
315.3592075
316.7556759
315.7163088
318.4218512
316.5486503
318.0571438
321.2376006
317.0034703
316.7526093
322.8850922
336.4198869
340.5810906
346.8813491
346.8408337
355.0378795
355.2952575
371.3143326
377.2554684
396.3385366
308.8213024
312.6197517
303.3667775
308.8299341
316.6772863
317.1002907
314.6410204
321.0653232
325.2848802
325.902426
331.54331
347.8474072
344.516304
336.0868143
343.7705839
350.4820791
364.332521
376.9163341
379.3663105
394.1490159
318.9882065
307.143804
309.1109969
313.2804567
316.8572854
323.8142488
316.7631972
331.9193358
320.3971303
329.3517356
330.4437317
336.238382
334.5369015
341.4782863
341.3289398
356.5579036
377.1238087
370.3564749
378.6541585
401.4384682
302.9841526
307.5543013
313.7733402
315.8030006
317.3098793
312.2773405
322.0967345
326.9443232
331.6239238
336.4520461
336.5665312
331.6083818
340.6373233
337.0148194
347.6412677
354.7363935
351.5770519
360.5415448
377.7226647
385.8689393
309.7427773
309.4595706
314.8583307
314.6121106
315.3778731
321.9088093
319.9139889
328.1826917
334.1104396
333.0204983
338.1138596
335.417831
340.6221932
355.0579684
360.6947442
356.3371695
354.9899822
360.9789897
381.8889743
388.7397369
319.2723406
313.3120479
307.0995515
318.0096805
320.6991259
317.0397413
323.1079088
328.2972552
324.8509339
326.3716831
341.2871328
342.8462961
338.9471262
351.9665063
358.5806038
353.5614095
363.3867786
367.4720312
380.9215809
381.4942881
306.6751947
318.8333908
315.34123
315.4374334
311.2144057
313.9853242
311.036034
322.9793966
325.2033194
336.302126
335.922482
347.9087175
349.2779196
361.3623743
359.0153512
355.2561062
355.8142887
365.2938949
374.8426362
378.6511126
306.7668363
313.9128032
316.4332318
315.7664612
309.3204807
318.6293144
318.0449243
324.8570903
329.5835913
331.7008396
330.0244802
337.2486269
349.5228273
353.0912773
356.8941564
349.6331584
354.1183867
369.2579773
367.2451904
380.3071383
310.9716861
304.0718919
311.8127405
319.7289999
318.0355388
323.9899424
329.6291337
330.7494629
324.9692557
334.1106494
337.5250006
332.8470645
359.5871684
356.3775994
350.0493431
357.3826996
371.7236371
363.6301013
360.1941378
371.7213473
299.6802613
315.6056033
316.561454
305.8023161
321.1941433
330.3868164
314.3707712
330.4638671
330.6354949
330.8403573
338.4380714
344.8857474
352.6912551
345.8178783
346.7274984
359.8226143
366.6359322
357.3281647
367.6620576
372.9918443
300.2845645
316.7880321
300.7771809
310.4754888
319.6801615
313.6371122
325.6325038
326.0619733
324.6313726
326.3200383
342.1384467
337.9374532
346.410846
340.8220362
350.6325237
367.2111554
360.3597211
356.7365427
370.3905344
369.6086453
307.9465918
305.6818286
298.650791
315.9275775
318.7048351
312.1360783
324.0198654
329.2664321
336.1454344
333.8280576
338.1584212
333.8527541
337.9543123
352.3689441
360.6868371
366.0095424
359.8736817
362.9518909
359.2796576
363.4892673
306.9524313
314.2998266
305.0239094
314.1170458
312.0419496
320.7463049
323.5771052
326.82974
317.2954949
320.9730272
344.7743462
341.6751247
348.0491264
351.8673901
355.583087
367.6859285
367.3251229
365.543857
365.2835631
376.9301943
301.004952
310.2970985
305.5271261
316.7025936
329.2719858
328.1424018
332.1976024
332.4621487
331.8501045
325.4503964
332.4304527
333.8927841
345.8247592
347.7631155
355.120093
354.1726618
361.076162
353.3525102
360.0913655
368.0982606
310.2786008
309.7182254
311.348251
311.5144557
324.90912
328.2302742
321.4780208
328.0346813
323.7336914
315.8007031
326.3691612
341.3193144
342.860748
340.3897321
357.5064536
353.4149338
359.7511848
358.0929765
361.6291287
350.6051904
307.9258166
303.624902
318.5227319
316.8702492
313.5568554
326.2576289
321.023703
332.0637623
322.7309497
321.4990095
321.180576
328.7688181
323.4291208
330.2767295
342.0955956
347.1763236
349.6942155
355.9800676
349.7888734
354.705302
306.627213
307.0134244
310.705511
317.8480099
326.8859857
325.7510283
324.1534074
328.1082044
328.2715661
324.7256216
321.3305828
333.6206982
334.1058863
335.9229082
352.9479564
341.496875
349.1864514
347.78237
345.5170652
362.9483988
298.8931622
310.7733139
315.2612102
317.1818634
320.9921378
327.4667824
321.7216263
330.3531597
330.6063831
327.1987552
333.3259618
334.6156572
327.3766825
344.1521087
351.2887806
352.6993772
353.484268
347.3290134
358.1574539
363.5186265
307.7386423
309.3336952
307.1700746
308.8330266
317.145488
316.9232154
317.9426342
317.663956
324.1269099
328.0297684
332.3947874
331.1447273
335.2355113
341.2749097
339.7434729
345.8520939
346.3264582
340.7080234
360.0601086
361.7306304
311.8320638
321.6478838
306.1298761
320.4749573
313.9868943
316.6216221
324.2182313
315.3744995
318.9736488
325.0693283
338.2962729
319.6423431
320.5728352
349.6835962
342.8987436
344.7467299
353.257819
341.626806
343.591278
357.1484075
313.1545114
313.9772392
304.5960556
308.5512574
313.786221
312.5378308
315.973917
313.2891595
314.1403323
324.8484933
332.753066
324.9569693
325.3555831
342.8284134
348.7718628
335.4657939
339.8132478
345.0591402
355.1942558
351.112624
310.5130234
304.4396528
316.7800377
310.1578596
311.5502447
328.0489113
317.8574183
319.2364348
306.2195554
319.481172
322.0445527
330.8475905
325.1580126
327.949182
337.0617313
342.3542205
346.7027867
339.0383615
343.5779723
356.2052097
307.4652286
307.5562252
314.8318052
309.3229249
316.149237
310.9535508
310.8347553
314.3011103
312.4261731
322.6509477
323.2435516
336.9048487
338.3364563
331.8521856
331.0660614
346.6695658
342.7999535
344.5665751
341.5160866
346.4615154
308.9008429
303.1833426
312.1049339
318.0876537
312.144525
316.6181857
316.2247752
320.9225235
320.9152174
320.4310153
319.7956804
324.9635853
332.5426488
330.6479481
328.1429802
341.8947538
347.7597867
338.209427
343.7881511
348.397756
304.5942631
306.3797095
314.1222176
307.1708929
309.2776497
313.690024
312.1499205
313.581213
322.6560299
316.8254145
330.8982817
326.8127054
332.9200734
323.7197415
323.9880389
333.3686187
334.7630415
335.5532601
339.6618049
339.5619503
301.5346174
310.775433
306.2377302
307.430618
305.8434073
295.9160238
314.2320706
314.2303757
320.8272082
333.5066774
331.3372707
330.0266561
318.6658454
319.542122
328.1606135
320.5602394
325.0398373
329.7811406
334.6885088
329.0728248
297.6934887
301.9237335
311.8671707
304.8085865
311.5443418
311.2290504
316.5284115
318.205778
320.506388
320.0109231
320.8648816
327.5200436
320.3091251
322.1652217
328.2566275
337.8026418
325.6982319
324.6317246
334.8886847
340.0403519
301.1940319
302.0928404
312.1290312
302.5734532
315.0661198
307.6909415
310.6389362
313.6599863
310.6202701
316.1220622
323.4309817
327.8562057
324.322413
326.4920972
314.3725649
329.1346342
324.3435477
334.0427207
333.5403861
337.2251667
299.250762
305.6996851
309.8567868
310.289679
307.9816429
302.2714339
304.4756145
305.9573637
311.5693387
320.8448462
316.0553572
315.6149233
320.6282616
323.2958898
324.1932219
320.8647996
330.9404978
329.1965339
328.5075605
323.7995363
299.9721996
310.6502014
308.5062108
306.2266305
297.2314305
321.5401073
305.8153752
313.1668257
315.8712014
316.6904725
315.713684
311.1012535
326.426687
321.9395768
318.9353345
330.8778649
317.3832949
321.7324442
322.6255931
318.355937
301.6316386
306.7613513
299.9264572
311.6461754
303.4904243
309.5438367
316.9547742
314.8812056
312.34022
316.7806779
319.913542
317.7561133
319.9779046
314.2560345
324.9511146
320.3602016
327.0098182
326.7777341
321.5371339
321.30572
301.6230964
310.6509673
312.9807808
304.552119
316.0810235
309.8891721
313.0137241
313.9398883
316.3789903
306.4666706
308.2402609
311.6043499
326.4992645
318.8617498
324.625246
320.0195771
330.9202948
319.3830722
329.0331922
326.9887174
303.7458393
302.0946524
299.6553931
309.0394273
302.7280038
311.4451307
309.0626372
320.4936596
319.6119596
314.6863636
317.0017671
323.642977
328.1301239
313.1760215
311.5892581
316.5592325
328.6467954
319.3311313
320.1110285
317.8680356
296.4571957
300.1273819
300.9072757
304.6900699
300.6917087
305.1792428
313.0054391
317.4823467
316.0197722
312.9039983
306.6527835
318.5244252
313.5632186
311.8297951
322.830201
314.4705479
325.0658782
319.6853633
312.0199643
311.8445083
305.1813437
300.2171674
298.6463317
299.9546971
301.5798879
306.8822795
312.5925099
308.784277
317.5238226
312.8598443
310.6186073
305.6871825
312.9800021
316.7774923
320.8532993
318.2344324
318.8530054
319.9325946
313.4765306
319.9009872
310.4388905
305.1269878
303.0651565
303.2222498
309.2665972
308.8453643
300.3511362
306.7506225
304.0336678
302.6314969
310.9918285
303.3923344
298.1192723
316.3632513
315.0671674
311.6941283
316.0281369
308.7268353
311.8862102
307.5472253
450.9143917
455.6868643
474.1891495
473.8639316
480.2937149
475.6582331
497.5894313
499.2944906
506.1725161
499.4828794
503.4192714
522.9421241
520.8595546
517.546256
529.03413
517.9855748
510.8400845
514.9744945
514.2939632
520.2855047
521.1981018
528.3982633
537.1863007
526.7664153
532.8530585
526.4760174
516.8927373
527.0950256
515.5631377
515.367555
506.7807692
522.2340658
501.1459443
501.0025825
496.9811055
482.0555061
479.4396712
473.6504224
456.8796558
429.4976245
424.1675298
436.9364541
445.6273519
455.9132647
446.0235627
465.4947317
486.7331723
500.4788735
491.948521
496.3127326
488.8612155
494.2465487
511.7168347
501.7366468
522.6247554
501.4767273
504.1876677
507.8876351
501.553384
496.9128718
510.7444096
518.3862652
524.4521364
524.0100138
516.5183291
503.501425
500.6884723
512.0297268
506.1607992
494.144223
490.4715585
494.2123463
489.9190501
490.3887411
470.550187
471.0925595
469.736387
455.3702581
433.6168548
391.3246969
411.7491862
410.8187925
438.6233223
456.0040383
462.4204015
449.9680594
475.5033443
474.9753621
471.9736517
484.3510822
486.025982
483.7880271
499.3746702
495.8851117
510.4222743
503.4232746
492.4398274
497.1610513
497.238466
496.7096164
490.3483235
517.6289357
505.9377847
502.6725914
510.2317826
506.8773272
504.1110951
493.3637365
483.9844287
480.4024439
487.7270821
495.1011207
477.7229013
465.2879484
473.2155859
454.1321343
448.8071072
438.8818722
416.1870505
383.3286657
407.6872031
416.4228007
421.3755921
455.7026047
451.9362195
453.3375231
455.8786095
455.7453508
472.4130291
465.7220255
478.1959196
470.9223459
491.7528706
504.282112
508.384252
504.4549542
491.292379
486.1239905
497.6764038
485.0646223
485.0469186
504.7145962
500.6476144
481.170662
488.2514698
510.2029016
489.3525539
491.3365513
481.5818025
476.1251432
459.2962221
483.4120551
472.9348984
461.5617631
443.022836
448.3650996
439.9451974
421.5127784
405.926103
368.0837277
406.7432395
406.0593612
418.8319913
433.1729948
445.3947824
447.0889398
448.9888545
453.1007504
462.9901329
453.2591301
466.6941009
475.7850344
488.388412
497.2814444
491.7466256
488.9173947
477.7214008
481.008742
492.3701118
494.3402197
498.4361699
496.8650465
496.8017645
495.0029762
482.3242177
490.1020944
479.758201
498.2425828
490.1279476
472.2330727
463.500359
451.4963332
445.129125
449.3188966
442.3533739
431.9712163
424.2192826
404.8875512
386.9756112
364.9904324
412.9611704
412.8246559
428.097378
433.5800125
424.1750018
433.3679972
450.8698342
458.1957075
445.0992141
441.284136
453.2355979
450.8916012
456.9923605
472.3799634
471.9199751
472.6541521
455.4257852
481.4902225
485.1508771
475.4911331
469.3686427
468.2587822
481.6798384
480.0982263
484.4568909
479.8524474
477.3327861
476.4541168
464.5300517
461.1294367
457.1113533
434.0996667
435.5111255
447.679687
444.778931
419.8076955
409.8343767
421.0362533
391.4261697
364.4491624
396.7829681
413.9780878
403.1121186
427.5072833
423.5551325
447.8972417
439.0419559
433.9706652
454.2422489
460.3489867
448.2935422
458.5135168
459.7947048
465.6617075
474.8879035
470.5246869
467.5025469
460.8938208
477.6768398
472.9275695
468.904137
464.0171895
466.6556335
479.027776
471.5557933
472.4404728
465.3319408
459.0175995
467.8356962
447.8581752
459.3485678
446.1670736
438.7644339
417.2885263
425.4664944
416.5638427
422.4684459
397.4506987
383.6568954
360.1533592
402.2919133
401.4964658
403.2192804
410.6592454
427.9465933
439.1117482
445.93942
433.3691035
440.2204004
447.6588464
449.1948534
445.3515266
446.1288833
460.268002
457.27721
443.5969645
448.8077067
451.6001051
455.8186733
481.1554859
473.2582731
462.4192589
468.0630028
476.789585
480.5072904
446.6539588
456.8815727
451.4854503
460.0553157
420.5543146
437.1438914
448.4524389
437.0700649
415.7419327
422.4607793
411.1482307
411.645245
396.1375332
381.5922488
363.8028335
383.2631092
395.264812
396.7516991
414.355355
411.2352833
426.657435
444.2525776
429.5092412
440.2638492
443.1191441
441.987118
442.7992769
452.1352501
432.8493817
446.3535601
430.6761022
468.8059013
446.8166382
460.548555
458.210319
463.8190083
447.8237627
451.5463371
445.3619604
456.7774592
436.1132399
439.3543125
455.2503295
445.9481778
437.1819898
438.3104747
430.8870864
431.1568509
426.5410225
424.8618802
404.8097993
396.239872
393.115846
371.3740753
344.8967398
372.4007807
398.3100334
401.0687348
401.9062233
422.8198705
411.0772347
423.6286017
435.5791202
425.1723964
432.8306542
439.314399
414.3445751
430.6428341
434.3329581
438.7199719
433.8491572
453.7031742
460.3329596
444.5667782
468.7485624
458.1668599
454.7600619
446.3957924
458.9042709
439.0973523
438.1557315
450.4959144
447.7698952
439.2244737
417.6743664
423.0328481
420.3842037
433.9133121
419.9405506
408.8443932
408.5948424
389.7661231
390.3457903
368.1812867
350.8795135
382.4743536
395.6460755
400.0470176
400.5751004
410.4970127
409.6823111
423.259848
421.3444114
419.9082949
435.3959184
420.2762036
434.599173
443.3621491
446.2254812
443.373869
451.7096416
463.9187765
467.9662317
446.2560773
460.9410993
437.7051473
452.7431077
441.073102
444.0475706
434.0534867
435.9601388
431.8158303
427.6693569
426.4858709
423.852955
412.9081178
420.2780485
418.3966137
412.4613771
401.9080027
412.060218
386.1207913
361.8391833
359.8442655
350.0892448
373.7455403
375.6268206
388.5824412
396.1555412
410.9267166
408.0687333
419.2240338
424.0768596
421.6022394
426.7759093
409.1222348
407.4249421
426.6600261
442.1330875
438.6568344
448.5173536
463.2628184
438.4526108
437.0157015
439.5038146
436.2373391
437.3039015
437.5414575
435.5524146
441.9000487
433.9048831
430.7927493
428.08962
415.7798691
416.0330263
414.5580368
407.3707582
397.7149385
395.8009802
394.1377898
393.0261382
382.6921072
363.9079805
354.7238778
353.0308617
383.4775835
376.2647344
384.0069003
383.3431155
406.6139906
399.6432345
401.9503599
419.8130286
417.1133398
412.7327007
409.4833517
417.1105708
426.3175703
426.863979
430.7382487
435.9671117
443.1062973
428.4372898
420.5309541
416.5913351
414.40598
432.3049492
436.7626771
440.6762929
436.3652856
421.0868482
418.067837
417.7007038
412.0423769
406.4770395
404.0389257
393.4465814
396.9671135
390.9338242
388.9861411
377.8803385
363.2509893
365.3766502
354.4063729
345.3784247
386.0038411
384.703389
384.0266072
398.6395841
399.1661198
405.4903108
408.7460784
414.4876487
402.8174942
421.03346
414.7979276
424.3691846
417.4617639
404.7645607
424.5280031
429.0296641
433.8515945
426.4700206
417.5182863
419.3082575
415.3547148
426.456823
418.4180449
424.6595804
413.4487941
402.8069639
430.511243
412.7191955
402.4392227
398.4547105
397.9345912
396.231504
381.9051473
388.8727587
383.0648639
383.2474617
356.240745
357.1655284
345.1534303
332.5501581
374.8679782
371.9208799
380.9648115
390.3469614
396.2355879
392.7846069
396.6322932
398.2923803
404.9481868
413.824499
405.6343785
428.6134272
426.1520378
418.5510538
419.6290919
416.0886295
411.6379251
422.9338044
417.0192865
412.8299878
412.7681183
423.3226793
411.1755715
422.4953922
401.4106509
413.1533804
420.2273918
396.2196642
393.0262415
394.0036625
395.6447827
395.445583
387.5694583
369.9160593
373.8683817
364.7556055
354.260574
345.3385379
339.8397519
327.716128
377.4589828
381.1242664
396.5608152
381.632439
387.3133571
397.5203419
396.961541
391.1461527
400.4556165
413.5887826
408.7388715
414.2289103
415.7966564
401.0971075
403.7766888
410.2795624
414.6564575
420.1252579
398.8411742
403.9905281
403.3422632
404.7940644
416.6950955
409.1865192
406.1772086
399.5634144
403.4603525
405.208957
381.3632249
398.9435054
398.6660977
392.4536541
383.4997561
371.1457908
362.0168266
368.9342021
360.03694
342.9905686
327.4849165
327.9142595
366.3685488
380.583157
388.9900582
391.7743728
390.2685632
395.3861678
392.1901415
398.4790917
390.0130638
400.9399412
403.9172381
399.8602653
410.6705667
413.1544255
411.215571
417.2191778
416.1457927
425.8672279
413.4382416
398.4377644
401.0329163
410.3270509
422.322412
399.7116999
399.3359355
392.0700412
392.5003274
393.4357892
390.2226791
387.8073959
386.1895968
378.9792805
371.1475258
379.7273263
367.4701691
367.5296165
356.7148858
347.1055736
336.0507058
330.9885613
371.6353753
379.9726254
391.0063621
382.7149656
391.3874095
391.971611
382.8171382
385.5192718
390.4081392
391.8509425
394.8154356
398.6365504
400.3477886
405.2765406
424.5813653
402.8465873
412.1419187
408.7551387
393.3504247
396.338735
409.4935562
413.0320974
405.1822772
406.5139312
411.535795
395.1482409
391.9258244
390.4804395
383.8065729
377.8359488
384.3723756
375.9989654
365.9047154
383.7243777
356.7481239
352.6182238
346.5411176
346.1648686
335.8324542
317.545715
362.0785516
370.7220659
389.1261575
389.6805227
402.2951413
384.143464
382.6178574
372.6641569
379.7095699
396.0384864
402.0315975
393.0572243
392.379717
397.9504503
413.6983701
405.4027848
397.3034529
407.1205036
399.4935831
386.1447748
400.4047034
411.0007426
403.6492885
399.5577798
400.2571754
397.5595786
398.043136
384.4918987
374.4745711
366.0949028
375.3942588
366.6377462
367.8212838
361.9200449
350.7982487
347.5964846
348.2560736
335.9753184
317.7878762
317.5969699
362.4236986
367.3760701
370.6805735
372.0086073
367.1363479
381.7999238
385.1593602
390.2333079
383.1805516
393.6086206
395.6348222
400.7182776
379.026465
399.3388166
409.5808203
408.0581934
382.8599262
396.9326976
402.6176525
398.0021039
392.0267796
388.0361927
403.1075602
393.2935588
392.9844021
399.2725484
389.434676
378.496932
377.4593492
376.6387255
372.9408098
366.9643456
356.8245408
359.3042932
356.4857748
345.0860977
344.6375729
341.2849076
328.6299818
323.3977565
369.2499527
362.0419395
356.5693216
367.8756835
372.8443438
375.2482439
379.8070986
372.8163471
386.5393011
377.3447611
390.5858573
396.3371907
389.8089031
394.8423731
396.2091495
393.3571685
387.4052969
397.2013775
383.0651358
393.0573404
382.8410127
394.9613997
404.5370392
396.9705943
399.945962
388.2499407
389.5070939
383.063124
372.6941306
367.3246218
370.1116321
363.7355276
364.3681254
358.2579954
352.5968208
347.9630983
341.936487
335.6173392
335.3221497
329.4357813
365.0169556
369.5228399
371.1097348
365.7942682
378.7327519
373.5056235
376.8517656
378.8365511
382.7432752
385.0993971
378.2317124
377.463558
378.8708983
397.341354
389.9951266
389.4400685
387.6191798
389.3641127
394.0322794
392.7100296
390.5776684
393.6495238
404.9677187
389.9468698
385.3061383
382.2985739
382.4100758
376.5499999
371.7461213
359.8075695
364.2686615
358.0071236
357.3315377
349.9274563
337.3576961
340.3234667
344.1615159
338.4466594
329.1598542
325.7671472
346.5315025
356.2788939
372.5420202
369.1007964
370.1996764
385.1092158
367.2486491
365.6002737
375.2895374
371.97964
364.8565293
362.9933717
378.2299273
382.6732864
376.7412472
380.4234602
373.8967056
387.4971262
383.4789915
382.4090862
384.2204505
396.0298556
398.1476288
384.5928216
367.0668652
379.3489549
366.5478337
382.4399433
383.9399807
357.8141382
359.2060739
357.6029464
350.8559723
344.9987069
347.1169621
345.3985033
338.469416
327.4610898
330.2884154
341.2055342
349.7942461
360.2321377
359.6884801
373.4377903
388.2535892
374.6660758
379.2091664
369.3357539
365.9333307
358.7224429
364.0245751
369.9362036
377.2921044
374.3056702
362.4384919
370.6949908
370.4673283
378.2926435
368.035555
381.0391952
381.3928179
383.8453012
372.7944969
362.1230017
372.8469054
380.7488585
381.444779
363.2574878
371.0347783
359.4963366
362.7624037
355.0474913
357.3433969
351.2574292
338.4562104
335.9746177
340.9949538
335.0919341
332.5628462
331.8132018
351.8132819
352.4495679
351.5328944
358.5399131
361.5558636
375.0835882
369.7483116
370.0379036
370.3614588
364.976738
366.2992284
368.1377534
384.1663114
385.5936788
359.5475389
360.386468
370.7782945
377.6640149
372.6761482
365.7389463
375.3137888
366.7060478
371.4384972
366.6375651
366.2573831
371.7030051
372.0075277
363.7450435
374.9968516
370.8665272
353.8785954
354.3960178
350.2343454
347.7156653
350.1606008
336.747061
338.481963
326.0757124
325.0306198
321.568297
353.5566501
350.7528368
346.7270972
358.1630688
359.0163335
360.1608354
355.9986897
361.7555216
351.2128638
357.059368
367.9853293
359.2790908
367.95461
380.2128641
355.1815981
372.7706538
367.9013712
376.5321604
373.7941929
367.9131483
380.5166953
364.0427089
368.3974751
367.9325938
368.3638447
380.3271222
369.9435923
362.0583401
366.2385117
366.0721692
353.9647534
363.9658778
361.6888698
351.0390469
328.9039018
338.404999
341.8198033
322.4848296
332.8106524
311.4233354
350.9145142
353.9059331
348.2514612
365.0921942
353.8511702
358.5712164
347.2548948
354.4417426
360.3831996
366.1171334
371.3790898
369.1635347
370.1878991
364.448903
365.461884
363.3467189
367.9346841
372.9363985
356.8449291
355.7776471
356.5427597
358.923755
360.6767848
363.4900211
365.3471454
371.6035878
367.1750426
371.0913208
366.6405829
360.308445
359.3559131
354.2573915
353.6761155
342.2284171
336.6195497
331.0606339
336.0418472
329.3312341
327.7635848
316.7910922
349.3897807
343.5321447
345.7566181
354.4451171
350.8453001
342.3748384
335.2113531
352.7167469
349.2375963
363.8350776
368.6321811
358.3459898
361.3695477
366.6976871
358.5664543
368.2948652
356.3574218
356.2394816
368.0720017
360.7119062
361.1675397
366.2750393
369.8341929
360.4577847
361.2699759
364.1601633
365.4768534
367.1443245
359.4235721
357.7289625
348.0149567
354.3865466
349.0759744
341.2269939
336.2483121
328.2740882
329.5160848
332.5664993
330.9683014
318.9476375
339.3932032
334.4996582
341.0638153
346.6387088
345.8015581
348.8119079
350.9283315
350.7465301
360.392707
353.7842604
369.0990708
364.007654
356.4576479
357.1571201
369.8680991
366.5493111
361.6067149
356.313444
359.482873
363.2213733
362.9667455
355.4528077
355.8150288
348.6082614
358.7107775
363.565507
346.6412775
343.2095444
347.3075392
338.3680089
357.5652985
351.6403665
347.547504
334.7776446
339.3217967
327.6965725
335.1890847
325.3733336
328.5269545
325.9574227
336.8737653
337.7650905
340.0348854
339.774338
339.2760326
347.5355762
355.7371648
348.3125994
353.5637391
359.5801622
353.6627426
359.5149243
355.2058469
349.2978332
366.1153713
358.8932201
352.0070909
348.3228717
361.4300992
365.4727895
357.1463329
361.929911
355.6570596
345.2480804
351.9851288
350.997738
342.4292914
343.2458297
342.9497383
341.8767803
354.6901806
335.8152587
325.2861629
338.4685084
342.2652785
343.1611582
340.2528053
321.7726921
323.586784
316.0659584
339.0371067
343.9726237
337.3969226
336.0784268
342.8680707
342.6894986
342.4112988
340.7306057
346.3237877
347.1158473
343.0199487
344.5604427
341.9603943
353.2105724
356.0642432
351.0692261
345.6571684
345.5495567
344.0762761
356.6478242
346.31978
351.2448587
355.0724335
348.7038528
358.1507743
349.8007231
340.5062429
336.5920019
341.6689843
351.2231684
341.2451186
334.8671541
338.6252782
330.0435497
329.6859653
340.3727666
332.3809341
325.4484035
323.9250086
316.868142
344.3544402
347.5646914
345.4751726
336.4251132
343.3132024
338.7788167
336.4706097
343.1244364
342.81032
339.8717785
344.4099133
345.8754674
343.5519462
340.9436931
342.6970417
354.8041371
358.7086818
354.4999697
342.6736635
355.3538073
334.5201952
353.4732025
354.5246536
341.9225592
344.2603344
336.6053549
335.9254961
335.1077536
338.118083
345.1769609
338.0658574
334.9570332
337.9062689
331.248335
337.7925257
331.2562034
333.5076563
328.6521511
327.7200205
323.4054577
328.7537622
339.9118139
335.7704332
341.6148519
333.0634651
340.613557
339.527693
345.9697367
343.0933841
334.6768047
348.2818324
327.1981288
344.7023928
338.3892247
345.3513824
348.5207968
346.7724589
353.2285135
350.858907
339.3552886
335.5035677
342.1596973
345.8816044
341.1267474
351.0764024
341.371751
335.9111074
339.8790345
337.2729491
332.5257386
329.7127619
338.3835737
331.45541
334.4466217
331.1678216
325.0282316
332.5641127
323.9193026
322.5601272
324.4329062
322.1583272
333.6536557
329.4365558
322.7524701
327.9483959
332.4726606
339.0891838
335.5096517
331.7371391
333.3402291
325.7154926
332.6036299
344.3426264
335.4046106
330.4574683
338.1613786
339.2691168
342.8048398
334.8777339
336.834531
333.9913344
336.726502
341.006128
340.1773751
338.6398204
334.722423
330.8690602
337.1706412
339.9840124
327.2043107
332.6860526
331.9024302
333.858906
328.5752972
318.040397
320.4365119
319.787005
327.3811889
322.1842288
307.3521927
323.7730408
331.8374545
331.3746998
330.7375391
331.3507748
333.119132
334.3726125
334.03844
333.1019148
334.4604229
338.3071888
334.3988847
346.0487718
340.7268754
327.0129265
324.1242938
341.1861328
329.6967372
339.7081042
342.1948104
337.7217788
333.7063825
335.3943383
334.6067619
335.394214
320.6357155
328.9304015
332.4102856
335.2961391
322.0677238
334.0129031
328.5656143
330.8855244
327.9166224
328.9710017
322.3876974
331.6698413
318.2636201
322.1238567
304.74837
323.5784148
328.6418878
327.8655336
326.1944359
327.5190169
327.9756564
327.2512234
321.0196118
324.6330346
341.0383799
345.0332389
342.9524353
335.3661156
333.9539865
329.3181189
322.0300829
322.9952825
314.9510657
323.4258616
328.7448042
325.8203073
328.3263629
341.5486537
330.929405
324.931497
324.0066208
322.1593086
323.0574108
327.863637
330.2133157
323.4891804
319.749013
320.1833909
313.3320671
323.3967641
329.8655157
328.0215235
322.4850614
317.1319854
310.4218329
319.7661677
324.3754845
319.6012141
327.726022
330.3984958
324.9370332
312.2922602
322.7961631
321.2222884
338.7724495
324.6318316
335.1198483
331.9465939
323.2686857
326.2972723
328.7844762
323.2749018
317.5231399
328.3475073
333.3761456
335.5398735
326.1438741
331.6416292
326.9653219
314.8935653
322.0037154
321.3720308
326.0852438
321.1670627
329.4619171
322.0328833
323.0909311
330.2324948
324.8655682
326.9030016
321.5507197
323.2981519
331.7114282
316.3876756
321.2833332
307.289614
314.2861133
315.8924351
315.2943421
328.2396403
319.9695634
306.3596218
319.7317102
317.6341457
323.9713003
316.0773657
319.4960798
320.6460192
328.3253767
324.6707391
325.0416703
329.3990094
320.9035633
323.0750945
321.415996
319.0519835
318.6259891
326.8709776
327.6594367
316.9106902
322.3587697
317.9936528
330.7031877
330.7227064
330.9691803
322.0960446
325.6372082
323.0102374
319.487499
318.2942809
318.5976346
325.7244978
319.0623338
314.7615122
320.8164534
310.9320346
316.067443
316.220781
323.0564078
305.9537092
314.2622992
310.998867
312.6309118
312.5609134
311.168192
314.6103617
312.2769138
321.0579168
321.2408877
315.6757127
332.8881654
325.7157137
312.7285519
317.1040526
316.880627
318.9589498
319.7141513
324.2364714
318.8166495
318.9180576
318.8973959
315.4046677
321.2097008
326.1468841
321.864856
311.4353235
314.7319698
315.5594662
322.4530032
316.3673704
320.3679546
325.2589786
318.0459203
312.5559637
314.6737594
301.1365573
304.036953
317.734323
308.6611245
299.1320827
309.4860729
309.4426385
310.3025676
308.3452795
317.2336477
311.8916657
304.4535017
320.2535563
324.1108577
313.9524684
308.0765119
312.6950819
313.9385907
314.380346
311.1116309
307.312543
311.4936039
317.2618254
315.5473009
314.3186416
311.1364312
313.2826128
319.4155884
309.6904921
313.4040924
308.6086735
306.1022622
317.4380494
312.2452023
303.6889188
307.1367121
311.2536744
306.690089
308.2422564
309.1951843
)
;

boundaryField
{
    flow
    {
        type            calculated;
        value           nonuniform List<scalar> 
160
(
296.1306081
308.7345863
313.2734815
302.5928167
312.3924841
308.8213024
318.9882065
302.9841526
309.7427773
319.2723406
306.6751947
306.7668363
310.9716861
299.6802613
300.2845645
307.9465918
306.9524313
301.004952
310.2786008
307.9258166
306.627213
298.8931622
307.7386423
311.8320638
313.1545114
310.5130234
307.4652286
308.9008429
304.5942631
301.5346174
297.6934887
301.1940319
299.250762
299.9721996
301.6316386
301.6230964
303.7458393
296.4571957
305.1813437
310.4388905
429.4976245
391.3246969
383.3286657
368.0837277
364.9904324
364.4491624
360.1533592
363.8028335
344.8967398
350.8795135
350.0892448
353.0308617