/*--------------------------------*- C++ -*----------------------------------*\
  =========                 |
  \\      /  F ield         | OpenFOAM: The Open Source CFD Toolbox
   \\    /   O peration     | Website:  https://openfoam.org
    \\  /    A nd           | Version:  7
     \\/     M anipulation  |
\*---------------------------------------------------------------------------*/
FoamFile
{
    version     2.0;
    format      ascii;
    class       volScalarField;
    location    "0.01";
    object      internalE;
}
// * * * * * * * * * * * * * * * * * * * * * * * * * * * * * * * * * * * * * //

dimensions      [1 -1 -2 0 0 0 0];

internalField   nonuniform List<scalar> 
2400
(
0.2274606969
0.1688771884
0.3408562115
0.4886587323
0.3148724844
0.09885966837
0.4412804478
0.4061065672
0.3016394329
0.3292013465
0.3272257667
0.6168055438
0.5000703313
0.3246529707
0.4059661993
0.3791547985
0.5312938677
0.3629981474
0.6715379557
0.4848351007
0.3411736997
0.435520201
0.5177098782
0.1165413071
0.221153707
0.6611478821
0.5862183747
0.1476754006
0.5534191548
0.2004830178
0.5754919355
0.6281817351
0.1820146676
0.5305563292
0.3262981047
0.6722461991
0.2574165098
0.188155799
0.2938054349
0.7084977421
0.2116189663
0.4826060174
0.3766068686
0.3341844821
0.4918528726
0.34626423
0.3343144414
0.5231569773
0.5905691465
0.4890519913
0.3482572372
0.1032599992
0.6790453979
0.1894135411
0.1422644474
0.5645715781
0.2273752363
0.3286005609
0.1655741872
0.7889299164
0.5478376807
0.2892578567
0.3406179251
0.4468198271
0.3005797211
0.3211153268
0.269629783
0.139142434
0.7888425038
0.5575830872
0.7260767089
0.4586565543
0.2145005633
0.2818466568
0.5182381386
0.4366860328
0.7130055913
0.4528228175
0.7147466449
0.4291455694
0.742250735
0.4289734452
0.484159068
0.5333148597
0.6226860571
0.1681914375
0.6555647968
0.6421255322
0.234526068
0.2424431511
0.907816063
0.3362854252
0.2540694871
0.2601857074
0.972194423
0.6598068743
0.6930806387
0.2222159142
0.7271614612
0.2270868192
0.6423130503
0.7908645306
0.4004083443
0.7141056598
0.2994536539
0.5249162773
0.544549295
0.4983659707
0.2328424439
0.5084903705
0.8744881807
0.6896981661
0.2211141456
0.4328220145
0.3406165272
0.6786108892
0.5954479435
0.7028364444
0.06840934046
0.4026730336
0.2216550893
0.4021361096
0.1619325581
0.2417052497
0.6747124877
0.5490805751
0.2964932597
0.4788979176
0.4151344752
0.4545528441
0.2872959465
0.5969843703
0.2113318632
0.2431262516
0.2193997168
0.7911660545
0.3704931807
0.8353427475
0.8999025621
0.205949396
1.006636843
0.1672944897
0.5778643588
0.3357656639
0.2454582308
0.3190217724
0.9234652636
0.3296767991
0.6184297179
0.362248287
0.4662827299
0.5763452469
0.1094066584
0.4887828998
0.2841477073
0.9493903171
0.6160045371
0.5057510121
0.324954151
0.1465360628
0.4895911995
0.7118883407
0.3350289946
0.3704989236
0.7246069281
0.5982413857
0.6011018607
0.2887819098
0.7994769335
1.298413375
0.4881103005
0.00130491749
0.5075022058
0.2902383285
0.1249583373
0.4471992912
0.7610295446
0.4430468565
0.5998189975
0.3529297991
0.3065324091
0.6281246487
0.2306174366
0.5101519147
0.2193094834
0.2457717499
0.6200730713
0.3248612249
0.4031187564
0.4909117099
0.06325470537
0.4215591942
0.4688062986
0.5694980755
0.1442097498
0.5480304976
0.6473183746
0.4345320535
0.1861237009
0.1085432426
0.394707528
0.2370663181
0.1558499597
0.2339981797
0.7615998126
0.4038906567
0.8718620891
0.2440005077
0.2903630136
0.5855196825
0.5209875674
0.2494424475
0.6523979518
0.4980946169
0.2915203713
0.3002835325
0.2706648511
0.7852183316
0.01728441186
0.2400275912
0.3246592733
0.241351091
0.4887409253
0.4428697287
0.1945784441
0.3813585016
0.2319683543
0.6605442347
0.5222819807
0.8086600188
0.3067462468
0.5284573125
0.7430074105
0.05658941086
0.4007276613
0.7541162228
0.318417813
0.3482102645
0.219644984
0.2306974881
0.786867582
0.729240381
0.1689830835
0.4246582992
0.5895089842
0.5981581515
0.2307082621
0.5839516856
0.4771731644
0.234669979
0.2550709413
0.4754920573
0.1050050744
0.4158238789
0.4319557434
0.4275699905
0.6352137591
0.1145058025
0.250139592
0.4006098988
0.6796018058
0.1773674342
0.758332281
0.3344154914
0.3318436378
0.5108883598
0.3484834866
0.3959474459
0.4092202193
0.4585866928
0.6824699942
0.4455246663
0.2850693861
0.5010815991
0.6624763419
0.4542623725
0.3319184143
0.463780047
0.6152378296
0.3992477685
0.4095247657
0.5362191445
0.258159066
0.4034036771
0.1918621647
0.2488524706
0.1983295013
0.6311594459
0.3064238631
0.1249643086
0.2604876691
0.304672061
0.2843622552
0.4047780922
0.2272390175
0.4520848368
0.1959639135
0.2766376111
0.4916221505
0.1522071827
0.3772343934
0.1572037464
0.1048320041
0.5916358543
0.2153731867
0.7595616017
0.2171457105
0.6030394989
0.3920306096
0.5094146034
0.2219642339
0.5106662015
0.3076913009
0.4319359017
0.7193145441
0.1169726512
0.5162402417
0.3231374712
0.2993860584
0.22716462
0.3294247712
0.1687125799
0.2443823702
0.3244423923
0.3704698462
0.1710201504
0.6114423184
0.750806228
0.7347041367
0.3456149495
0.6708269753
0.6863836292
0.7489352776
0.6324867347
0.6619151194
0.4719209493
0.8370256572
0.2632810609
0.4018619278
0.6499958895
0.512250727
0.4811963832
0.4608554416
0.2973864398
0.5518770753
0.4543606251
0.3076202524
0.2693214366
0.4568404355
0.1673914245
0.3089453884
0.1756398804
0.6140976563
0.4855763778
0.2656050025
0.8626381119
0.6668085004
0.2084947606
0.7893317239
0.2202900098
0.1232513942
0.4911359008
0.8196767116
0.2454403227
0.362871294
0.2895011627
0.6496020123
0.3451627356
0.2101188202
0.524448933
0.1914711761
0.2623887355
0.3068138034
0.6457172672
0.2899630052
0.05240999057
0.1693496605
0.3748630488
0.351618051
0.3889246553
0.6051931011
0.187132164
0.3056828311
0.5423605724
0.3371810812
0.2255354194
0.1782099806
0.2172535763
0.2082034886
0.242368779
0.6417456737
0.1645837214
0.2895148502
0.4393980484
0.5448736545
0.3283500542
0.697395079
0.3430073339
0.4346740165
0.5442901385
0.5806681761
0.163464683
0.3195086585
0.4904952186
0.6199581277
0.4515338425
0.5432304723
0.6978829555
0.6982382476
0.5722247219
0.450083806
0.2202251339
0.3615247842
0.2517531702
0.3348115751
0.286896565
0.5465333266
0.4761187493
0.3805599824
0.2597137658
0.5707756159
0.4521463311
0.5046884071
0.5570085118
0.1215906005
0.5506246747
0.4312025817
0.2334939764
0.4394448231
0.1891827686
0.5315452593
0.2889817214
0.443042116
0.6230224879
0.2092123698
0.1952342073
0.5625954925
0.3520829363
0.03994542363
0.4913138017
0.2310138777
0.2312511144
0.7719602832
0.7925109319
0.429234714
0.2042288054
0.2888280511
0.4483690169
0.2095131623
0.8500712909
0.7486252603
0.4484968442
0.3502306734
0.5947785374
0.2326875322
0.294730236
0.4139286354
0.5115046713
0.3626335774
0.268077608
0.6912233048
1.11713006
0.5481597109
0.3000546176
0.3840493182
0.4726926916
0.4074598723
0.1673809252
0.2014225326
0.313541042
0.7130554841
0.9143440883
0.1373080178
0.114065298
0.2475980078
0.2674940746
0.3326641507
0.3092540633
0.4778986626
0.2778733412
0.4263647444
0.752767845
0.3189027744
0.2843139442
0.3223917081
0.7849662804
0.4188300561
0.3185001426
0.3700253217
0.361750009
0.230757963
0.3016289971
0.9092976419
0.382738798
0.9869855224
0.6182484247
0.330884047
0.6802566815
0.6218059879
0.4828268721
0.7623407109
0.8016186274
0.6917824075
0.4770423194
0.5667853046
0.2475782232
0.6861040892
0.3335139888
0.4629547691
0.2604200728
0.2932255308
0.2058166733
0.4279922157
0.1044539163
0.7608119692
0.4705497226
0.5915928117
0.2076391836
0.3890337402
0.4585195152
0.3061209828
0.7069173126
0.3185009645
0.8539907513
0.515567032
0.3192359583
0.1666913242
0.7655930412
0.1248884906
0.3866357472
0.3800371324
0.4996329851
0.2635648719
0.458493311
0.4390874454
0.502707772
0.2977669167
0.2594817406
0.758835573
0.3815425356
0.3806937092
0.3322829802
0.2561005693
0.7742064624
0.3310909787
0.239478695
0.4574067591
0.3334536004
0.5400856542
0.3712773703
0.3980183266
0.4287970627
0.2431007087
0.3099907637
0.7157174975
0.4471273967
0.4492199551
0.3627394398
0.2765590783
0.7250939098
0.2421756959
0.4233242599
0.6328672729
0.4379964778
0.29630409
0.6733472573
0.2294358065
0.9178471211
0.2167170013
0.5274183884
0.3058734116
0.8297060636
0.6263174608
0.5575821584
0.736897232
0.5853050343
0.5743243279
0.6550597486
0.3873707776
0.8261556126
0.519081865
0.5304003027
0.3751180699
0.2121325922
0.206739417
0.3059344625
0.4015018749
0.216835323
0.5115171272
0.7661567485
0.3296392619
0.2492158422
0.2399352499
0.3417802665
0.332255976
0.5240434808
0.2549077146
0.5490607245
0.4751031693
0.3135929299
0.6019011476
0.3230559181
0.5231097037
0.6344213198
0.3666137611
0.4697288701
0.4253709426
0.2947589046
0.8243479676
0.5571705737
0.5197609736
0.518074878
0.4670898855
0.1904779151
0.5186827692
0.2551143459
0.2755223545
0.2849752879
0.6049388965
0.72063603
0.7409542668
0.5270138327
0.4836130139
0.3294378176
0.6291552915
0.2990712105
0.3927201247
0.6749489564
0.2763281765
0.451616393
0.371005511
0.3987424216
0.6982656278
0.8685885911
0.1950003992
0.2859446794
0.2976589957
0.3615396922
0.6952958749
0.6973708068
0.7782932783
0.3831764599
0.2643165992
0.2534873562
0.5687413901
0.1012657207
0.6492038178
0.3260215874
0.2039438973
0.4938625382
0.333528951
0.4070391371
0.2575697397
0.2677228205
0.09965182345
0.8626998221
0.8272157519
0.1911085862
0.3329909184
0.3245695707
0.3156579174
0.4170092257
0.09313491946
0.7266836362
0.2511892228
0.3563701561
0.3776333003
0.3148737157
0.2019354539
0.5040462549
0.1728324413
0.4901939919
0.3017127375
0.4609061728
0.9684458839
0.5469557281
0.425845673
0.6336047337
0.1316642566
0.4623729728
0.2426376276
0.9774659396
0.5151659724
0.9269259347
0.2190877728
0.1946534456
0.7967427744
0.4607666877
0.6175190289
0.626555971
0.1284771283
0.4515759472
0.1988661499
0.5328765366
0.272307914
0.6884213792
0.4004416997
0.2908987091
0.2709614714
0.1481755465
0.3900912715
0.7445320036
0.3919679742
0.6142608835
0.7563245719
0.1483669213
0.5711434383
0.4182175544
0.4071054062
0.7193153998
0.2255246867
0.242388522
0.2203725331
0.4877533069
1.12046748
0.1888652458
0.6643663344
0.4984501275
0.5864039888
0.4380877967
0.2768129806
0.236694678
0.3803097014
0.5823995042
0.2032584414
0.1148986654
0.2415630643
0.1785670102
0.4135491761
0.2522265386
0.09066394592
0.3555050012
0.3699430987
0.2647915106
0.4359790811
0.4412445118
0.3742840208
0.400619089
0.538125851
0.1321291722
0.6280110613
0.6065450383
0.3575062679
0.6208583054
0.2752503819
0.4172273447
0.426939519
0.5105149396
0.596189562
0.4144013687
0.6709858748
0.1245771583
0.2052907136
0.3667840771
0.2563843511
0.7718631349
0.5161468928
0.7548580345
0.4281488241
0.2738408332
0.6229775017
0.513043573
0.5024229135
0.5951176808
0.4163063419
0.2689862837
0.5710169592
0.431178901
0.5382158118
0.2994357782
0.5956334264
0.2696901317
0.6122716708
0.426896566
0.3598525657
0.2779360932
0.2261258566
0.3278130103
0.3869237468
0.08156762344
0.2773613653
0.2841671963
0.5503099874
0.2926002295
0.3328383072
0.7633548136
0.3020508003
0.4047027598
0.1407120195
0.6061052083
0.4911085386
0.3921997303
0.2087773381
0.340693969
0.4651828913
0.4713300343
0.2351100952
0.4814061303
0.3166863848
0.4390314376
0.4813468563
0.6104777788
0.1608656923
0.505564078
0.6293480298
0.659886504
0.3141918781
0.2482223465
0.5099259355
0.2298028457
0.2291848583
0.2499442956
0.7277300352
0.3349596285
0.5327632469
0.2053260363
0.2481682906
0.1354834798
0.3894889336
0.4756980202
0.9141085546
0.188545518
0.1038688545
0.2828727752
0.7199129593
0.4937316509
0.4233547663
0.02059089502
0.2778948256
0.6967603115
0.600938752
0.6376055865
0.5586298482
0.2215872726
0.6553475291
0.426949643
0.4467863194
0.9694321717
0.4896560471
0.290515175
0.4215080427
0.4248067386
0.3332240433
0.2780661674
0.2169930856
0.6910577803
0.3289714553
0.6968004479
0.1419215978
0.401858197
0.06263172649
0.2831359625
0.8330578101
0.8489862941
0.709164866
0.6663678235
0.09062389273
0.8526173244
0.2476503994
0.4052891095
0.3781419612
0.2745298114
0.6104415553
0.3905443505
0.4320452028
0.3796083071
0.2650307406
0.4385155464
0.3895719768
0.05398967691
0.4357657848
0.5196069104
0.8942229897
1.02327441
0.7344845779
0.3920281161
1.005610633
0.3695540812
0.1660022356
0.06904993445
0.5229106922
0.4654846482
0.2363185934
0.5056162151
0.3461070386
0.5793230041
0.525664101
0.3309772807
0.6039119674
0.1276969431
0.4635416
0.2576293201
0.6707722011
0.3277774923
0.1408695615
0.7863248191
0.9738126237
0.4349363538
0.9621570276
0.7898203229
0.1649337667
0.4880388794
0.2721623806
0.7059634495
0.9241436108
0.9332644604
0.327029689
0.152322426
0.1188269709
0.1863859349
0.6537466284
0.8241513476
0.887525586
0.354121056
0.334028523
0.4994459569
1.470580411
0.4667553507
0.7037326158
0.2595340326
0.1914773959
0.3444736625
1.084929665
0.3302965552
0.1717702084
0.135104129
0.4772252951
0.1165787142
0.3853415109
0.1805104678
0.5799804633
0.6664185796
0.2602241772
0.4560772493
0.6215431222
0.2497271376
0.6366592637
0.3862563351
0.05053767088
0.1707666157
0.2430246465
0.1300809855
0.1229174763
0.3066130497
0.4315937953
0.03883918652
1.29740278
0.4258225899
0.2967470388
0.1370481858
0.07415610366
0.6254050811
0.3677502047
0.6003319192
0.2028016875
0.3203498163
0.276240007
0.2067326889
0.2226475956
0.8487267215
0.1693613859
0.724127902
0.4278801481
0.2896965218
0.1537457151
0.4601151794
0.3304550753
0.3848626544
0.3936887232
0.9792960254
0.5280514531
1.00012553
0.3750176648
0.4120611128
0.3727914444
0.4892616389
0.4998292684
0.3146474802
0.4147792444
0.2107013023
0.5093099251
0.1486334864
0.5384203976
0.2676748795
0.3574564794
0.1313889852
0.4590107952
0.3549383077
0.3108682574
0.1602176835
0.3053892968
0
0.2065584312
0.3513332094
0.0825181004
0.3892187431
0.6759135065
0.2192179343
0.9202039043
0.7369678635
0.139950368
0.3403706506
0.2747807854
0.1503029209
0.5148395481
0.2353838634
0.3454449441
0.2042876764
0.1761714974
0.3831392233
0.3742896237
0.920666836
0.2060171484
0.5872504301
0.419446197
0.2700856545
0.8066195775
0.6644060955
0.4614717271
0.3140609068
0.1222108127
0.797277692
0.4244626453
0.1286422926
0.5573208738
0.4635405107
0.2454257582
0.06030005103
0.3409801345
0.5072619401
0.5504669757
0.2175638359
0.432181263
0.4096752539
0.8589259102
0.4561435395
0.2699394824
0.7496327879
0.7050429457
0.01494562681
0.4097705332
0.3109440359
0.5292331665
0.2692142016
0.2100605965
0.5638636529
0.1918220049
0.2623859431
0.3140236954
1.335101955
1.399020547
0.4460045544
0.3836395807
0.6194804078
0.773112537
0.3519701792
0.1250685906
0.3059858878
0.05631649654
0.32092056
0.9521894957
0.01590855869
0.9060644194
0.6447513843
0.3269782682
0.3254293013
0.7940545211
0.4394747229
0
0.2859941156
1.007605079
0.4133584205
0.4459801657
0.1665311651
0.4020329095
0.3416140038
0.4898281778
0.7265625804
0.1228915306
1.210307495
0.2533436257
0.1780466653
0.5299502958
0.4607605452
0.1136852429
0.633960817
0.1263130977
0.2550205611
0.5322587375
0.2271937118
0.2288237309
0.4658704949
0.2501956926
0.7507508081
0.2820471733
0.4435048786
0.1847293738
0.5634838762
0.3180651284
0.3546676345
0.4919071982
0.2647721779
0.9713706214
0.5153979479
0.1172226756
0.4553756852
0.614101034
0.1769123444
0.5055634387
0.6589607854
0.5001271807
0.6043540828
0.1695303233
0.3370156403
0.605816894
0.2500072407
0.2281628777
0.4665485455
0.4758706314
0.3697965086
0.2160828347
0.6544702092
0.1732197182
0.587225901
0.3644129585
0.194367337
0.4131539147
0.6331836207
0.2555045279
0.452227366
0.5683993867
0.5716824165
0.6960732906
0.3576074522
0.3751984011
0.5814548582
0.6074855154
0.4898164107
0.1687421803
0.6457288654
0.4396656053
0.2725479068
0.3192988084
0.7124428086
0.7320444529
0.4931567221
0.3596235962
0.3532823619
0.3569673229
0.07940388242
0.4641629539
0.2962052325
0.4956676511
0.9796910596
0.0979442766
0.5787936343
0.4583919159
0.2177315942
0.4353731896
1.002954068
0.1133513367
0.1651938868
0.3605463136
0.5849346312
0.2028315403
0.2141833141
0.3711037769
0.2219981845
0.4975640739
0.08046344196
0.4058334745
0.9598885298
0.03086867592
0.3848916152
0.2353626365
0.2777533946
0.2493965281
0.05020447224
0.4008745925
0.879291109
0.2547290988
0.7393169686
0
0.5686348217
0.4931863805
0.5126802871
0.3835394922
0.8803023054
0.5070416869
0.5378607613
0.1185845632
0.6436917936
0.9691215704
0.4066357381
0.4312913188
0.3785523706
0.72619864
0.109947386
0.4622334425
0.6395759448
0.3446676563
0.2256474144
0.2510931439
0.1173862634
0.3257849777
0.5024451959
0.5181353041
0.5633875034
0.6052107616
0.3750283406
0.287953257
0.047410706
0.5807765062
0.3136580073
0.3804810725
0.2459643603
0.265453911
0.5184334339
0.1093589932
0.09755904727
0.1847342054
0.39392133
0.1719097924
0.105887443
0.5728968574
0.5016135593
0.3025162621
0.6122924372
0.3936689825
0.2127615638
0.6254220354
0.5436889009
0.8421894848
0.5919189549
0.389096309
0.6709701603
0.4848301703
0.08363231931
0.457963556
0.5477443066
0.688092276
0.2106219197
0.1594509722
0.2607887536
0.287932184
0.7052946088
0.813656665
0.35114997
0.3363256312
0.5808505103
0.6550752797
0.6089426349
1.147722071
0.6639923248
0.3632208277
0.6549649191
0.11068081
0.6497012688
0.06064620948
0.1158116379
0.967601261
0.08579174425
0.1002704992
0.3042586373
0.4915350538
0.151346257
0.4343289373
0.5373042386
0.7236911981
0.1825539501
0.491724606
0.030041289
0.2185138378
0.9440738134
0.264670791
0.1148539861
0.246159278
0.3775682594
0.3984008902
0.4755319712
0.2073477079
0.4921213418
0.3928895117
0.5026011392
0.6129464313
0.2229031586
0.3052686658
0.03133931907
0.3074516712
0.5291913379
0.5616240821
0.2574807441
0.4297170483
0.4336510446
0.2234592473
0.7960057182
0.5987142355
0.8082349115
0.2013366
0.1191659932
0.2571297188
0.3115199181
0.441606436
0.269685227
0.494168274
0.5516234278
0.2775937192
0.4639651663
0.6393001138
0.408829417
0.2169462689
0.6555521232
0.3264477997
0.2302326339
0.1617018579
0.4028187847
0.1608867928
0.7507381762
0.246816659
0.7672821855
0.400647438
0.5371373476
0.6622342114
0.5542702527
0.1586937197
0.3759599462
0.4100874517
0.4042862955
0.3851351161
0.657761625
0.3477488535
0.3996854854
0.4826452786
0.2467590087
0.159823316
0.8227127854
0.3738563855
0.9065994497
0.3172648535
0.5237969085
0.6267914001
0.09130880771
0.3109091088
0.4126770101
0.3352587024
0.1933888979
0.5039413103
0.1314162504
0.5129709226
0.1786406838
0.2600733709
0.32056234
0.9296024793
0.4827262114
0.5353345309
0.460147476
0.9328241849
0.392376654
0.2544643264
0.473343251
0.6403656765
0.1911763592
0.4927989994
0.6562189204
0.5295243394
0.07635613376
0.417091509
0.3537646307
0.1880939702
0.7223049137
0.595257474
0.05399407737
0.619441739
0.1261843259
0.6043661939
0.1457323107
0.2889095757
0.2027458423
0
0.3915001318
0.5031454945
0.3881417695
0.6006554566
0.3858090755
0.2718954358
0.7150063994
0.6833102247
0.4862957888
0.1916667598
0.5477410079
0.2065067498
0.6088500538
0.001566102526
0.7426572425
0.6333436865
0.1388763947
0.1781698964
0.4162531634
0.5066768683
0.1600727612
0.5067937742
0.173671076
0.4417176802
0.5899782123
0.2352147638
0.2283382104
0.4431827634
0.2604413513
0.1338268597
0.2626690543
0.02990231721
0.4517772552
0.4071211663
0.7395282861
0.3158164772
0.2175748222
0.08081743793
1.246946168
0.6912177633
0.06969678366
0.1231698516
0.6025423639
0.155462386
0.4499025346
1.051322041
0.3197575282
0.3193637317
0.14240059
0.3452707016
0.9093828457
0.5757042889
0.8949045864
0.2403192407
0.4887702454
0.3893639053
0.5801284619
0.8120006423
0.08273369535
0.5277761081
0.02884500859
0.2261801632
0.5041573575
0.5043516563
0.6761091242
0.2915707946
0.1479786534
0.3319567559
0.4728327031
0.8699915535
0.7010695702
0.280466158
0.1532421868
0.4578472138
0.1771124181
0.8086405035
0.6731654425
0.497019248
0.4983891707
1.114616886
0.2415611816
1.243292526
0.3416105605
0.2027717441
0.4751468653
0.2646137584
0.5751469446
0.2960113959
0.3559495531
0.2591091547
0.2788992467
1.01101249
0.3646661204
0.4892906663
0.1230375379
0.2022289572
0.0002809621961
0.6644096896
0.253464511
0.6086488398
0.6230910299
0.4930639155
0.5582362361
0.360752994
0.3508962173
0.1715303499
0.3079441579
0.4246671768
0.6684719418
0.2988697263
0.5948854332
0.4629604336
0.3267509872
0.595048289
0.7117491664
0.1800593983
0.1116247216
0.1608971689
0.1655447922
0.1093033814
0.108565951
0.359782725
0.1883636215
1.422372717
0.3707373257
0.4060765475
0.6864068128
0.2317887168
0.5665259053
0.5448078107
0.3716351244
0.4075449511
0.1355145267
0.2634740255
0.557201505
0.4206453349
0.2854010775
0.3668567783
0.05559181345
0.4437720921
0.40098091
0.2381999197
0.5906521303
0.2431354365
0.7911657289
0.652602833
0.563291258
0.4211634593
0.2815359922
0.68066512
0.1767663995
0.5929794343
0.342410522
0.5250978938
0.4771951453
0.596538134
0.5005851665
0.7660975962
0.4604136512
0.1820217674
0.3774604052
0.2045744193
0.326414474
0.3984070629
0.4180552196
1.040039954
0.2413204508
0.6126642267
0.4776406225
0.3651718384
0.733357913
0.713457824
0.3652212953
0.2291588979
0.1744452577
0.5255729162
0.2773765532
0.3962384777
0.03731958301
0.4641423702
0.3282495751
0.3083556149
0.7285468052
0.4719067995
0.5212837516
0.7257937284
0.5609946205
0.8853962434
0.4285096547
0.6928778053
0.6966293448
0.160761391
0.3025235455
0.2876035432
0.526103639
0.7128320345
0.7649337303
0.3553318077
0.3998806463
0.1865874009
0.3719078782
0.8720543943
0.355860592
0.1980412877
0.38122294
0.1399005646
0.4183136666
0.1404536526
0.8059533536
0.5327411764
0.3440054111
0.3259473144
0.6411501582
0.595712338
0.6370199762
0.4122105994
0.5364864692
0.8901539228
0.6185322292
1.206692526
0.4608122689
0.2346601038
0.2598568311
0.2926833422
0.3889120803
0.5496098461
0.8066795715
0.4994091742
0.2087109148
0.2275779936
0.6790469089
0.8553312013
0.3645912385
0.4936708665
0.7255986427
0.5394900308
0.4861902523
0.4308028147
0.392273001
0.1136689719
0.09034737798
0.2112651692
0.1631087108
0.1830180466
0.05356469495
0.709863693
1.396114334
0.496841562
0.6666345079
0.9468668053
0.2288794881
0.1430858541
0.3386686892
0.2351842742
0.344240531
0.3037703236
0.09328791483
0.3146835639
0.2738922607
0.8453312425
0.8389635914
0.4887907824
0.8215841101
0.5300437042
0.378653013
0.2362891346
0.8681591106
0.1162549464
0.1913929707
0.4419150167
0.2386597959
0.2350461615
1.049731306
0.6634881651
0.2991031794
0.1649537436
0.527614892
0.7493407306
0.4194137448
0.09062445383
0.3773305329
0.2559699705
0.1609085401
0.3195220196
0.3798842472
0.284000705
0.137954692
0.5642740606
0.02921408045
0.06132003124
0.2599672118
0.4404396094
0.8356077343
0.3300270084
0.4152179537
0.1085027292
0.1102234896
0.612323043
0.2307250576
0.3116351441
0.7107108526
0.4154269962
0.279926454
0.5118293153
0.1453028804
0.2741668841
0.2126267054
0.6282432503
0.3561485787
0.4643753038
0.6167937377
0.6549064209
0.2011452453
0.3649235062
0.3133395265
0.169566825
0.3644173426
0.1950270235
0.5338693306
0.4484563967
0.2467258915
0.4206430232
0.2512445609
0.8277491192
0.7580851942
0.5074175468
0.7628964455
0.344468718
0.5753910247
0.725826208
0.2409720196
0.7008324699
0.579778829
0.3918245564
0.4449938584
0.3805601908
0.2886382382
0.04025698874
0.08652819634
0.1163892717
0.2988829572
0.4396204186
0.6305683926
0.2289283852
0.5980392022
0.4747544327
0.6279355677
0.2117201115
0.3189081805
0.3732112031
0.7796660223
0.8569082111
0.04006582525
0.3701059275
0.1796432276
0.3956070093
0.6910658407
0.7803681171
0.1684855525
0.2696891257
0.2622682929
0.2962047809
0.7253144419
0.8070317646
0.5295408007
0.1069596683
0.6340713654
0.5851953358
0.1055827767
0.5009700454
0.08448566958
1.073625743
0.2347653588
0.1434054137
0.4238778944
0.167654943
0.6462092321
0.5515189011
0.1426507812
0.4821360561
0.6461968676
0.4896260006
0.2908727452
0.1104339572
1.051984146
0.3072990988
0.4690182158
0.3035148229
0.2868076612
0.3517897985
0.288109871
0.2439226814
0.651809435
0.8622075921
0.7267694219
0.4838460175
0.3477946621
0.2883496533
0.09518726529
0.4494458835
0.4075637436
0.1947255327
0.6857426638
0.7391761498
0.2468780276
0.1265779637
0.3869452181
0.7902955877
0.0929139636
0.7897049668
0.4785964272
0.8634436005
0.5380362505
0.2326770849
0.4214524906
0.8598484501
0.6772933758
0.2697361798
0.3980723688
0.5884105428
0.4304187475
0.7383402956
0.473989142
0.4363224686
0.365750263
0.1251967127
0.3877505382
0.3875592944
0.4822105029
0.4822438685
0.5218404089
0.5461588994
0.1899295696
0.6753057599
0.5880703118
0.4159963286
0.1213182827
0.3531922724
0.6000897607
0.4944543206
0.1872621958
0.4827531272
0.1966888819
0.6902192034
0.1929524161
0.2453283062
0.1057334048
0.2328357399
0.6726171488
1.351593084
0.1318475557
0.6463963983
0.3855591634
0.4327114137
0.4318247859
0.09713743608
0.7410014861
0.3243450507
0.3471496523
0.3627465865
0.9391040082
0.2228807956
0.4352735139
0.4844948191
0.3207473443
0.4403615993
0.4802413577
0.472611938
0.7194861536
0.6413233755
0.3720901013
0.2851670442
0.38564031
0.29500857
0.2562657659
0.533037848
0.3538720132
0.387505713
0.8927227598
0.6730414318
0.2880687366
0.4646830698
0.4300928947
0.05967677986
0.6780434794
0.6215175091
0.3936924224
0.3687047273
0.1152374418
0.8083837047
0.2881118117
0.5353691174
0.6629426022
0.4068094602
0.4303076648
0.7027688858
0.4204919702
0.4544158961
0.6698959613
0.5606331807
0.5374467389
0.4057117135
0.9190482143
0.2483688889
0.4429436511
0.2961586788
0.5447436211
0.2786572853
0.5158889296
0.05594224608
0.1439249173
0.8611322989
0.1002641699
0.3963086091
0.3545776264
0.4016725504
1.306093696
0.2934600449
0.2145668328
0.4247536879
0.3959274625
0.2107164693
0.5299131222
0.5687085112
0.7001271077
0.2047161452
0.5394935967
0.3450553265
0.2340165337
0.1915256234
0.3512160085
0.5916855069
0.5670306933
0.6117027081
0.3959889275
0.3348270783
0.3786167842
1.259200211
0.6812597821
0.6887469383
0.2046545685
0.3246989753
0.1948848637
0.5587083228
0.436032301
0.432550388
0.5832527476
0.3833901616
0.2168954375
0.2229239391
0.1738249127
0.8152618464
0.04123668982
0.1530254977
0.2756669059
0.2630489151
0.5095322091
0.5828756243
0.3425784043
0.5761157567
0.5564854522
0.1717494752
0.7098788972
0.1961388372
0.1639723692
0.1671572141
0.3045448759
0.2238752385
0.5304753392
0.1935047125
0.4272537897
0.2320976928
0.4640765041
0.6951795634
0.2154130803
0.5205859817
0.1090801707
0.6949737065
0.2475894346
0.2588563689
0.6698778279
0.2003821264
0.3571849128
0.371155765
0.2154451431
0.4849492734
0.2380095104
0.6229127556
0.3549966923
0.4153524834
1.224951082
0.2444855044
0.4549970569
0.6950333947
0.2545948348
0.516888316
0.6760601497
0.3550145306
0.561555055
0.6031071821
0.5943678242
0.2317249114
0.3178408333
0.6982357534
1.086299283
1.023320686
0.3933165976
0.7393103927
0.4394904382
0.163642734
0.2151756995
0.7554578133
0.3792935379
0.9114784208
0.7163036932
0.3704107301
0.3590943411
0.1499836344
0.1799804184
0.4108457896
0.2748648892
0.2581290628
0.3227281438
0.5352702306
0.1728867306
0.6076777289
0.5046278018
0.7644370284
0.1654609776
0.1001234886
1.138997422
0.2522296251
0.3288658341
0.3044633671
0.572708091
0.6012570671
0.3823824116
0.3242988996
0.2480254145
0.3368451451
0.6243432756
0.4077687518
0.209673511
0.3914690585
0.755971191
0.514537502
0.4948457506
0.4648743117
0.8182984782
0.1408599519
0.7382253965
0.7265589592
0.1367923709
0.3857667937
0.4217537131
0.2291172455
0.2981296679
0.4351578636
0.3121220023
0.4054755965
0.3703857779
0.5129794844
0.680450852
0.4557737463
0.2640063979
0.6836923445
0.4952731958
0.4111835428
0.669043552
0.6497870381
0.3096574804
0.4697298671
0.4032952828
0.8489815378
0.4651826562
0.1942769232
0.2571954939
0.07190820689
0.5236255152
0.3790013588
0.3290171909
0.4093478598
0.1698157168
0.9704928873
0.217420826
0.340926005
0.05476827657
0.4323963557
0.2298005655
0.6359234432
0.1990768812
0.3933070716
1.045740027
0.1771304279
0.385848096
0.1615066382
0.3214262157
0.7952193328
0.4792415764
0.5226884551
0.07699551387
0.7035605992
0.7174665075
0.6244289939
0.5789521088
0.5714949386
0.4573857263
0.6387827866
0.2907886113
0.5512083007
0.1004723114
0.1712774592
0.3520649719
0.8052445682
0.3758476179
0.5717396181
0.1709481683
0.1231156067
0.2685923479
0.6808015505
0.1749873419
0.2108761705
0.7567754139
0.2125047555
0.8965449591
0.1018166132
0.4997200212
0.2402633078
0.5409145261
0.1866883376
0.7020215218
0.2669863964
0.1573391758
0.4176449698
0.08338906956
0.2757958238
0.7559116506
0.2332821817
0.7068676266
0.2253976267
0.3321579064
0.6151678188
0.2044361706
0.2184346319
0.3405415599
0.1832620803
0.1714458515
0.2915060232
0.4927313523
0.2913682882
0.9152100938
0.3833817553
0.2230724391
0.4420909476
0.3111986413
0.1597032734
0.5380706553
0.3193025181
0.3573682007
0.716272047
0.5036209284
0.5240904004
0.4547469034
0.3302042384
0.194508699
0.3618180939
0.9788002515
0.4931073487
1.251524646
0.07715345934
0.2707976663
0.2595048082
0.6013864689
1.035591866
0.1005636354
0.3272803353
0.7254740997
0.3683396521
0.4849785586
0.304576957
0.2403373527
0.2174557416
0.3043816592
0.626133464
0.34803259
0.346176708
0.3688156299
0.3004556908
0.4032780323
0.6878673947
0.2552524933
0.3074694993
0.4108311483
0.4766928187
0.1658745186
0.3971780841
0.1759135944
0.2927423447
0.6197902714
0.2849772535
0.1710022838
0.3278667111
0.3161921103
0.2210841969
0.2792309935
0.6239084616
0.686602133
0.02589679632
0.215898636
0.9080124634
0.3158349695
0.2882751343
0.72941907
0.6730847924
0.1858137876
0.06840513679
0.490184269
0.6174265987
0.791532259
0.3947539595
0.6016048048
0.4922202776
0.1854035721
0.1978399904
0.2834877107
0.2305608535
0.5392761425
0.2541851254
0.2971167745
0.3751755708
0.3032688647
0.7455893965
0.3736791867
0.1900056727
0.2405366908
0.4771255686
0.640061397
0.1901472598
0.1961937913
0.3347885832
0.5218818321
0.2218291896
0.4213188805
0.6546423331
0.3146970767
0.6267975272
0.7610606643
0.2496258081
0.3423701958
0.2638628975
0.3609049704
0.3884070804
0.5571974872
0.3507926457
0.5109340508
0.2623433658
0.4734085167
0.801967286
0.6684051694
0.3485359752
0.6415989101
0.7302560833
0.437870643
0.2445265787
0.4897817633
0.4269794159
0.2251073514
0.1977457214
0.3169289525
0.6851386058
0.2403392294
0.6075992161
0.452679097
0.6644639251
0.3215916147
0.8414805633
0.1740951361
0.3101609341
1.05785821
0.193415664
0.3189770662
0.7614896919
0.3872246874
0.8277528247
0.4055423267
0.1639813728
0.6048200075
0.3222609932
0.1250382772
0.2547323952
0.4457687408
0.3632875371
0.03067372153
0.381172695
0.1321970059