/*--------------------------------*- C++ -*----------------------------------*\
  =========                 |
  \\      /  F ield         | OpenFOAM: The Open Source CFD Toolbox
   \\    /   O peration     | Website:  https://openfoam.org
    \\  /    A nd           | Version:  7
     \\/     M anipulation  |
\*---------------------------------------------------------------------------*/
FoamFile
{
    version     2.0;
    format      ascii;
    class       volScalarField;
    location    "0.01";
    object      linearKEMean;
}
// * * * * * * * * * * * * * * * * * * * * * * * * * * * * * * * * * * * * * //

dimensions      [1 -1 -2 0 0 0 0];

internalField   nonuniform List<scalar> 
2400
(
0.570034477
0.588804705
0.6114830466
0.6023956227
0.5998580719
0.598130394
0.6042190708
0.6009682949
0.6129384346
0.6070074259
0.6007901673
0.6165490816
0.6201560258
0.6258484283
0.6112748006
0.6088535195
0.6196574365
0.6230414916
0.6362489412
0.6368516526
0.5957455605
0.6086134978
0.6065055835
0.608822136
0.5928528966
0.6166333686
0.6230155824
0.6294141068
0.6154816981
0.623688011
0.6232690041
0.6226572928
0.6411194657
0.6441709852
0.6590713318
0.6376462047
0.6458635089
0.6443254444
0.6562336933
0.6585032524
0.5863057296
0.609431082
0.6188701624
0.6196284572
0.6054461199
0.6131053131
0.6030794142
0.6214130525
0.6182179516
0.6229762688
0.6389095186
0.6288431186
0.6309976443
0.6377960594
0.6483695574
0.6406036276
0.6301699189
0.6473182909
0.647020872
0.6793200687
0.5989470779
0.6053173218
0.6119618775
0.616873575
0.5870356799
0.6020235365
0.6209320352
0.6177399202
0.623630899
0.6201694209
0.6287852037
0.6278779969
0.6434674249
0.6572789934
0.6485191284
0.6504634718
0.626982527
0.6603436496
0.666922979
0.677714761
0.5777969431
0.5946534807
0.6090601234
0.6039145804
0.6104128813
0.5996560574
0.6201153991
0.6257528078
0.6374618746
0.6296584823
0.6215148631
0.6273813699
0.6439964987
0.6645616264
0.6612731168
0.6290904628
0.6513530723
0.6701727044
0.6720982296
0.6842894984
0.5780809853
0.6028795814
0.6027661792
0.6073827928
0.6102662744
0.5870155917
0.6185739519
0.629968989
0.6144173365
0.6308995329
0.6251073815
0.6364720043
0.6364194365
0.6541694898
0.6339067135
0.6491083562
0.6325548301
0.6607795647
0.6728255428
0.6691846056
0.5964494216
0.620566447
0.6184755473
0.6155509021
0.6127922739
0.6058365991
0.6041028634
0.6048501623
0.6249100888
0.6380895154
0.6445481494
0.6300718872
0.6400522835
0.6422871375
0.636830061
0.6323038665
0.6539660681
0.6587335069
0.6585452573
0.6665607582
0.5910712469
0.6090337739
0.612035908
0.6020312436
0.6017948639
0.6271070604
0.6052591528
0.6155370632
0.6311970309
0.6336966193
0.6400934844
0.6599023398
0.6583332085
0.658435562
0.6531238168
0.6567390189
0.6642723985
0.6662546474
0.6554348552
0.6649571007
0.5946881517
0.6079912262
0.6071880457
0.6072885666
0.6066441736
0.608111641
0.6192121609
0.6134308788
0.6137337732
0.6335470066
0.6431981
0.6482420676
0.6462994507
0.6523617238
0.6460330637
0.6553385741
0.6530576014
0.6612027896
0.6420981468
0.6546442112
0.5995262039
0.6008429963
0.5861615842
0.6016289889
0.6091657446
0.6135273085
0.6202319648
0.6194131028
0.6244662693
0.6228548462
0.6309724768
0.6616719736
0.6411569208
0.6567942772
0.6516192519
0.6413568662
0.6439175084
0.6567146206
0.6461190695
0.6597293714
0.6002123683
0.606515468
0.5983736141
0.6045313009
0.6096020528
0.6236640617
0.6054074789
0.6283646508
0.6185787742
0.6255947527
0.6245325811
0.6416927179
0.6426689881
0.6406291374
0.6576393571
0.6436126452
0.6627977096
0.6592407558
0.6500073823
0.6477004009
0.589760371
0.5932432496
0.5893823305
0.6176266128
0.5942051724
0.6030256006
0.6323344068
0.631329323
0.6425601732
0.6408719746
0.6214713257
0.6388753886
0.6366766207
0.6434345646
0.6431263798
0.6585381151
0.6520596984
0.639634793
0.6590401389
0.6603442032
0.5799143841
0.5926873073
0.6082102405
0.6036135815
0.5940277988
0.6255083541
0.6172440538
0.630293434
0.6351281864
0.6232573719
0.6374245581
0.6391702802
0.6290443995
0.6489360746
0.6641459477
0.6549970493
0.6831907407
0.6646852791
0.6757774154
0.6851194994
0.5750312679
0.5987262878
0.589802198
0.6193940596
0.607917968
0.6209080182
0.6213985339
0.6283658487
0.6205791274
0.6298789191
0.6380341181
0.6535568607
0.6487341255
0.6468176384
0.6697257175
0.6728574419
0.6626009293
0.6668606028
0.6680324606
0.6772652041
0.5834341826
0.6051377254
0.6200708386
0.6104328694
0.6171921787
0.6197291429
0.6150397075
0.6207322933
0.6245774245
0.617552964
0.6359112564
0.6369339826
0.6359395071
0.6262575825
0.6326556295
0.6488521096
0.6605740747
0.664629789
0.6721565386
0.663362888
0.5992173754
0.6086471169
0.601961372
0.6201450247
0.6152765217
0.6118481116
0.6036692351
0.6255468965
0.6350896497
0.6198879892
0.6170472802
0.6440026253
0.6480718462
0.6393210216
0.6386007778
0.6481510437
0.6602683707
0.6578730852
0.665729567
0.6790407647
0.6006839307
0.6026148139
0.6006530686
0.6161148787
0.6111659915
0.6167767849
0.6100784618
0.6286946746
0.6324023439
0.6326289432
0.638256057
0.6621893424
0.6392355482
0.6532026519
0.6306685166
0.6492247557
0.6728685988
0.6763942321
0.666980103
0.6755105141
0.583326109
0.6080626472
0.6106422656
0.6410033028
0.6197288401
0.6161955823
0.6135242218
0.6358264958
0.6311345218
0.6258315468
0.6258608412
0.6525475091
0.6427584111
0.6528401504
0.659626974
0.6472303121
0.6658052465
0.6622045876
0.6521195137
0.6515311426
0.5945869732
0.6157769433
0.6014247892
0.6261791567
0.5954981704
0.6146309204
0.6209775305
0.6388777432
0.6598831763
0.6496942267
0.6254874942
0.6295115534
0.6503615391
0.6349691517
0.6538582742
0.6614237953
0.6512230848
0.6558365089
0.6590878396
0.6705232681
0.5846337094
0.6082741686
0.6088330298
0.6187573005
0.6042498031
0.6154750474
0.6372378725
0.632816267
0.6392136456
0.6364901542
0.6399541389
0.6240990027
0.6340310158
0.6456491572
0.6564631888
0.6574561318
0.655355812
0.6391012463
0.6389781887
0.6613363502
0.5893966373
0.5996228294
0.6132252358
0.6111002414
0.625318668
0.6081298352
0.6143865852
0.6270877623
0.6277922135
0.6254395664
0.631918176
0.6450798571
0.6647245557
0.6487592806
0.6752898478
0.655769122
0.6728692317
0.6730365681
0.6563392276
0.6649726227
0.6189824525
0.6141423824
0.6101035667
0.6049915488
0.6191169887
0.6087095017
0.6151426571
0.62940361
0.6386211289
0.6462895819
0.6394716103
0.6298173262
0.6429283598
0.6572699818
0.6626446516
0.6369425423
0.6651269487
0.6693836473
0.6776831157
0.6723050481
0.6114471967
0.6209365634
0.6190043484
0.6156410873
0.612254352
0.594626263
0.6212943802
0.6206604511
0.6394154633
0.6444660442
0.6345247063
0.6377338545
0.6314522036
0.6397026014
0.6601405979
0.6593216219
0.6590391657
0.6882362294
0.677302261
0.6781174925
0.5968991072
0.6102280899
0.6233234229
0.6183681137
0.6231078332
0.6145792488
0.6206181632
0.6253827519
0.6215103333
0.6312553541
0.6491704319
0.6536773446
0.6384649581
0.6587661961
0.6629513469
0.6472669864
0.6672125934
0.6692636519
0.6711863722
0.6692897308
0.6028751137
0.6159047689
0.6060338037
0.6021993958
0.6139453814
0.6177926053
0.6249827917
0.6139608495
0.6224159753
0.6291234878
0.6180975368
0.6362157114
0.6429216817
0.6448877818
0.6376883607
0.641879694
0.6456543521
0.6760839016
0.6850508175
0.6587953615
0.6120640478
0.6173967454
0.6012187146
0.6057430612
0.6044072667
0.6128245377
0.6258494481
0.6047155485
0.6130355917
0.6344288813
0.6204652312
0.637038762
0.648310499
0.6490319059
0.6475366056
0.6627706915
0.6551241347
0.6784282375
0.6676550847
0.6818511489
0.6075338868
0.6095432353
0.6028281852
0.6267240743
0.6182819375
0.6247698815
0.6426757231
0.6523099239
0.6388167073
0.6241074234
0.6344864282
0.6288694487
0.6296543226
0.6478221657
0.6461252642
0.6438176527
0.6478070682
0.6709791289
0.6805907046
0.6602437789
0.5798592032
0.5993914647
0.6082484616
0.6245047324
0.618039949
0.615203495
0.6331488473
0.6294590665
0.6255134362
0.6347492021
0.6391189359
0.6446444978
0.6341661143
0.6447369873
0.6454751472
0.6489149911
0.6605613192
0.6588055888
0.6638110167
0.6653493827
0.5935435288
0.6116536426
0.6102720164
0.6120606842
0.6070360841
0.6390567956
0.6332776736
0.6242671518
0.6282301282
0.6382769809
0.6237057493
0.6430720555
0.6425131669
0.6412420366
0.6555588405
0.6633151326
0.6715613726
0.6734576064
0.6694886326
0.6668314005
0.5917376229
0.6122330379
0.6018815863
0.5962196747
0.6147840245
0.6215788538
0.6163943054
0.6260699053
0.6369447493
0.6309812783
0.6495045964
0.6362994558
0.6336714757
0.653589068
0.6466540583
0.6733392596
0.6704027599
0.6609551074
0.674759476
0.6654858718
0.597010434
0.6004053194
0.6184629739
0.6124100616
0.6186388995
0.6217971643
0.6145320255
0.6196910885
0.6213019793
0.636187503
0.644417485
0.6636032294
0.6589501154
0.6615549793
0.6539001265
0.6569015698
0.6552153821
0.6572131886
0.6646244484
0.6680247323
0.5919055852
0.6140560568
0.6323327205
0.6190862671
0.6340500906
0.6453030907
0.6306519464
0.6305732066
0.6229260452
0.6284116257
0.6350457701
0.6355453433
0.646494662
0.6679569896
0.6533860156
0.6415269551
0.645466195
0.660111626
0.6521477734
0.6485479298
0.6062352705
0.6300158138
0.6170012939
0.6278787461
0.6215793934
0.6106237005
0.6096817308
0.6120603846
0.6228430392
0.6383128653
0.6254949521
0.6406463509
0.6595532049
0.6437481012
0.6522809999
0.6448428572
0.6500502144
0.6681769333
0.6601736891
0.6721218555
0.576589613
0.6078188825
0.6154662512
0.6219598715
0.6105379673
0.6184830834
0.6251107649
0.6199378863
0.6152502569
0.6359028343
0.6376511136
0.6297580197
0.6379935214
0.6533270222
0.6348754461
0.6316807061
0.6327297832
0.6627755842
0.6460422973
0.6489525879
0.5821098655
0.6178621656
0.6203202067
0.6140406361
0.6115292988
0.6142826122
0.6279801591
0.6362926205
0.6139166841
0.6444552529
0.642023561
0.6433363169
0.6546025087
0.6513569107
0.6395509883
0.6433810961
0.6576182581
0.6731658315
0.6674176302
0.6764398882
0.6007203697
0.6062029987
0.6144218206
0.6114421229
0.6215418634
0.6164402957
0.610431527
0.6086929172
0.629509343
0.6452817984
0.6416311928
0.6309903253
0.6588720901
0.6553035891
0.6532443608
0.6598324035
0.6743755207
0.6569974508
0.6641890374
0.6603618573
0.5936421454
0.6035972777
0.6197331052
0.6170083696
0.6364266406
0.6234154256
0.6195401704
0.6188693497
0.6347734739
0.6606170482
0.6471005269
0.6390975855
0.6565317134
0.6638575998
0.6584357727
0.6480692913
0.6557441483
0.6647123696
0.6641233159
0.6688273736
0.5944105414
0.6204543474
0.6217873233
0.5968125953
0.6316647934
0.6329346074
0.6236603685
0.6319814468
0.633708516
0.6493438662
0.6406402905
0.6437876356
0.6532912362
0.6461318584
0.6712328875
0.6503051791
0.6575739882
0.665832901
0.6633088163
0.6586521862
0.5987171681
0.6323767974
0.6242060325
0.6113815533
0.6107480905
0.6260675836
0.6310031836
0.6224286599
0.6385914604
0.6267486009
0.6364005059
0.6409434707
0.6550971469
0.6488059524
0.6355040423
0.6509293622
0.6506208685
0.6468730564
0.6696825832
0.6768453462
0.5962862455
0.6170888712
0.6127620791
0.6094625326
0.6007165594
0.6093418475
0.5975751467
0.6185665855
0.6233445352
0.6420628466
0.6367848431
0.6232120207
0.627703438
0.6204040532
0.6291360327
0.6186268492
0.6137467911
0.6143735768
0.6240577614
0.6314192687
0.6798738726
0.6826437417
0.7080279721
0.7223406498
0.6990899553
0.702060049
0.6921441318
0.6835973514
0.6881068966
0.700000298
0.6884786796
0.7201118021
0.7342823246
0.7325662426
0.7252325853
0.7272685503
0.732530834
0.7323129131
0.7165040821
0.7063335691
0.7235954131
0.7219253035
0.7194554627
0.7511518152
0.7520413657
0.7357799718
0.7625072241
0.7514272938
0.7557455622
0.7800559668
0.7726393038
0.7676022931
0.761242741
0.760696555
0.7962803128
0.7793745938
0.8048117515
0.8415107603
0.7966667471
0.7923634828
0.659978617
0.6786173092
0.6999385223
0.721469463
0.7064265903
0.7037196396
0.7146592557
0.7037297611
0.7275821675
0.7167635716
0.7287408101
0.7257152836
0.765031717
0.7360361212
0.7241780584
0.7170990699
0.7185711929
0.7408017875
0.7586577534
0.7409081975
0.7508036997
0.7542433066
0.7413704171
0.7609468686
0.7790625011
0.7663751174
0.7833852563
0.7805000006
0.7697478046
0.7785049577
0.7766643034
0.790810406
0.8006962315
0.8234827154
0.8126472501
0.8337170715
0.8395299919
0.8249570503
0.8242827546
0.8223266917
0.6762414453
0.6715111849
0.7105225082
0.7269682298
0.7234096533
0.7204343274
0.6905717437
0.7241168788
0.7330611148
0.7327589631
0.7390130846
0.7402899454
0.7585197451
0.750442704
0.7640158882
0.7339430514
0.7649772494
0.786983913
0.7804215761
0.7837909196
0.7707117545
0.7773569286
0.7949533382
0.7799110648
0.7848607994
0.7835574275
0.8100481823
0.8060793723
0.8096297387
0.775031478
0.8137113949
0.8059495491
0.8239543542
0.8130169752
0.8115769662
0.8364276543
0.8231332151
0.8366559645
0.8374958287
0.8037304036
0.6945896418
0.6932389797
0.7009753138
0.697486246
0.7007138493
0.7137433012
0.7207550104
0.7385020485
0.7355090509
0.7444022688
0.7676962038
0.7526241409
0.7742481658
0.7699250872
0.7614252181
0.7587641251
0.7753487589
0.7726838558
0.7680599848
0.7767786122
0.7830494159
0.7868886284
0.7871741943
0.8197048072
0.8229397422
0.834505883
0.8327980837
0.8246971975
0.8346866018
0.8161290926
0.8070068816
0.8138338686
0.8238399866
0.8288194344
0.8399425628
0.8614550793
0.8684157833
0.8677278699
0.8667755425
0.8361989382
0.6770142756
0.6854561703
0.7020991065
0.6983903059
0.704436479
0.7135756618
0.7098737524
0.7162381632
0.7352034107
0.7305373157
0.7454784039
0.7236826578
0.7298442905
0.7298068627
0.7549139442
0.7593173431
0.7677715121
0.7728280677
0.7674730108
0.7710168605
0.7867059172
0.8231884591
0.8170373414
0.7877172363
0.8137543946
0.8145440398
0.8218988889
0.8229779876
0.8229105587
0.7960089792
0.8209263038
0.815790165
0.84307455
0.8513647106
0.8585054457
0.8529492761
0.8573016615
0.8519631729
0.8614743306
0.8650852629
0.6763540561
0.6914614789
0.6928106405
0.6992570806
0.6860658308
0.6811793272
0.7099500141
0.7124412907
0.7066549994
0.7073290254
0.7219800053
0.7288638618
0.7253051409
0.7610144915
0.7590907149
0.7651309184
0.7568460297
0.7623329521
0.7829022165
0.7955652564
0.8088399706
0.7750972315
0.7973864945
0.8036438936
0.8107301902
0.8304078311
0.822554727
0.8192562928
0.8157943716
0.8135908504
0.8122917367
0.8132911648
0.8540679176
0.8441231916
0.8669041714
0.846438197
0.8691344886
0.8565294025
0.8540412348
0.8425889556
0.674355843
0.6641566758
0.6485754323
0.6797086552
0.7014068193
0.7121703158
0.7147668129
0.6924701952
0.7108255196
0.6999943664
0.7116084535
0.7372914785
0.7320446158
0.7492261143
0.7410142086
0.7527303945
0.7697224625
0.76158907
0.7891027083
0.7875424354
0.8303714445
0.807469624
0.7929533144
0.8041436675
0.8349227579
0.8446944273
0.846555356
0.8506671877
0.8412347771
0.8286439054
0.8256157771
0.8311842392
0.8483563642
0.8483109729
0.8717550046
0.8597552044
0.8595400725
0.8670159106
0.8802514851
0.8981812664
0.686332175
0.6731466846
0.6776049975
0.6648795434
0.672703377
0.6897321426
0.6954331341
0.7073531074
0.7074876288
0.6826844326
0.704347301
0.743117285
0.742955605
0.7469668949
0.7477040965
0.7707008335
0.7737537829
0.7563075258
0.7967235255
0.803828999
0.8048788958
0.7980843826
0.7800399503
0.7937061099
0.8306675612
0.8267152141
0.822298642
0.814429567
0.8483798076
0.8228793916
0.8302692215
0.8670392591
0.8546963599
0.8550373902
0.852268197
0.8568979729
0.8500454748
0.8622238618
0.8659085144
0.8898957777
0.6616385636
0.6749079111
0.6608107375
0.6809917884
0.6895849558
0.6928628186
0.6882608733
0.6858126458
0.7349202403
0.7189885474
0.7039317731
0.7282676349
0.7451922325
0.7586836228
0.7500666585
0.7573855845
0.7785732044
0.7605323877
0.7630053881
0.8024816963
0.7899331996
0.8143150708
0.8069922641
0.7890856358
0.806828274
0.8206168987
0.8199586893
0.8311349519
0.8330060574
0.8427760759
0.8146840938
0.8280950246
0.8701680219
0.8989346914
0.8783537282
0.847094406
0.8712476962
0.8973812552
0.8964009014
0.9083258322
0.662451735
0.6618013525
0.6781465356
0.6824247171
0.6785911726
0.6876480681
0.7039213277
0.7098046961
0.7123949315
0.7252174794
0.7339521359
0.7407699909
0.7267653158
0.7572426002
0.7570125316
0.7523726932
0.7430606506
0.7403259049
0.7563366528
0.7713086803
0.7910650713
0.8043573718
0.7874975795
0.8014903325
0.8224275691
0.8185740566
0.811238022
0.8096560014
0.8229964589
0.8210144836
0.8534827837
0.8555162885
0.8842552432
0.8834168245
0.8863223589
0.8937532226
0.8668455007
0.9105211262
0.8941266813
0.8856630203
0.667991326
0.6617432834
0.664192917
0.6868136878
0.6977875723
0.6973606378
0.7149987047
0.7051276559
0.7081970228
0.6867765371
0.7139635821
0.7127770354
0.7330017084
0.7303829185
0.7346479003
0.7361360192
0.7333490392
0.7452916996
0.7514613759
0.7648822124
0.7770081559
0.8017410832
0.7897682043
0.766373182
0.8123230366
0.81428685
0.8229660994
0.8208046351
0.820209174
0.8050786623
0.8174561685
0.8439998352
0.8423332701
0.8559956647
0.8583724743
0.8585650844
0.8978523739
0.8920701943
0.9177730274
0.9362731567
0.656658853
0.6734424893
0.6998941738
0.6949898023
0.6932481125
0.7073388954
0.701817999
0.6952671566
0.7056120998
0.6954162022
0.7046461055
0.7234364141
0.7182357862
0.7061875964
0.7422139253
0.7277110587
0.7485391522
0.7386108465
0.734963054
0.7594481621
0.7485470453
0.7825834952
0.7728168191
0.7607424489
0.776140086
0.7957087627
0.8120612041
0.8026789544
0.8025878495
0.8136151037
0.8156858105
0.8110796519
0.8575592195
0.8693540503
0.8693035487
0.8767371193
0.8988823187
0.8702347213
0.9139546583
0.9166005164
0.6778168801
0.6820382879
0.6954498753
0.6929772584
0.7058653411
0.7035945557
0.6966840891
0.6918903797
0.7105192031
0.7072427683
0.7044314372
0.7070898691
0.7133481105
0.7379726106
0.7418586526
0.7457841717
0.7397166929
0.7451420331
0.7183665579
0.7463117684
0.7523636459
0.7797034886
0.7561787515
0.7613966161
0.7967308937
0.7732970449
0.8123157969
0.8127156436
0.7966695312
0.8212210294
0.832571198
0.8504021134
0.8450988118
0.8534071967
0.867419513
0.8729642517
0.8705018392
0.8915697523
0.9050506954
0.9001680376
0.6860198937
0.6779320756
0.6712500271
0.6907640701
0.6888316719
0.6822092273
0.6838050564
0.69726478
0.6926784288
0.695457176
0.720757507
0.7012625616
0.7291151042
0.7223217924
0.7413209924
0.7310805658
0.7509476678
0.7634855866
0.7714520328
0.7679316905
0.7726749694
0.7577637707
0.7654320989
0.7652842217
0.7838593008
0.7934237779
0.8144595135
0.8234633043
0.8195630876
0.8409570983
0.8604436547
0.8372777318
0.8454984128
0.8346804884
0.8680848244
0.8502056259
0.8463346419
0.8592613728
0.8979976279
0.917567057
0.6794470899
0.6665073691
0.6756559619
0.692167678
0.6854535847
0.6934376802
0.7073486554
0.7335659053
0.6974220644
0.7204107552
0.7442258157
0.7306480296
0.7164528072
0.7236327515
0.7363070161
0.7499557203
0.760296862
0.7549507432
0.7446519113
0.7519977217
0.7589214497
0.7607573222
0.7493054102
0.7651717086
0.7806920652
0.7922522031
0.7968618868
0.8033882984
0.8059420438
0.7997464139
0.8259022654
0.818383983
0.8160687525
0.8365017128
0.8374199136
0.849294372
0.8506608582
0.8514581239
0.8868762359
0.8747966655
0.6721029614
0.686313628
0.6946833374
0.7026040793
0.6941060015
0.6904737288
0.7102821563
0.7127673161
0.6844066533
0.7012782782
0.7057981822
0.7098722487
0.7147559916
0.7207536077
0.7307271518
0.7332432327
0.7732182148
0.7698224549
0.7635659469
0.7658086935
0.7431805333
0.769063482
0.771194629
0.7575960056
0.7632139518
0.7701903993
0.7673376932
0.7882632693
0.787939737
0.8019301987
0.8005350665
0.833006482
0.8069672125
0.8046559627
0.8486150521
0.8403200464
0.854954753
0.8585532418
0.8838167875
0.879946265
0.679654505
0.700827393
0.6623923536
0.6815308865
0.6681468758
0.6803473145
0.7034698137
0.701381486
0.7183060173
0.7149212911
0.7241539072
0.7295866008
0.7285071282
0.7304838798
0.7084762754
0.7119499359
0.7376983683
0.7467956759
0.7338794985
0.7401389844
0.7460108322
0.7700857383
0.7630611499
0.7431739243
0.7513741086
0.7618310219
0.7664262725
0.8064873051
0.8244151925
0.8327420113
0.7996395512
0.813331386
0.8200161884
0.8030529061
0.84353215
0.8336344389
0.8035186
0.8462881518
0.8687077473
0.8314954903
0.6722334721
0.6887924231
0.6795184323
0.6812218157
0.6776568094
0.6934785621
0.7003417521
0.7100802939
0.7146623699
0.7143031591
0.7243402482
0.729120256
0.7225701485
0.7230581447
0.7140716345
0.7237820617
0.7352353213
0.7341423161
0.7366780707
0.7526654946
0.7480949121
0.762164714
0.7563267356
0.7431488959
0.7469938693
0.7670515293
0.7806463539
0.7897052118
0.7875048953
0.7936722507
0.7711273521
0.815610599
0.8024292583
0.7957808718
0.8150601407
0.8353485794
0.8119049174
0.8432414725
0.8629489729
0.8724654493
0.6821430777
0.6869549058
0.6839186992
0.6857205116
0.6889180009
0.7114879121
0.7127324873
0.7000348922
0.7039192629
0.6935305765
0.7090266607
0.7254885285
0.725937069
0.7043902445
0.7172883541
0.7217000397
0.7189901875
0.7308420883
0.7300631281
0.7554840242
0.7609184411
0.7623608961
0.7672880432
0.7790351699
0.7724347626
0.7703201393
0.764761966
0.7812719579
0.7911126395
0.8124763939
0.7899347668
0.8077220742
0.8198144518
0.8163466458
0.8261820163
0.8464399517
0.8511569403
0.8595373986
0.8756311048
0.8595189415
0.6880532261
0.6812142498
0.6717214921
0.6852572775
0.6874414221
0.7012581058
0.6921906777
0.7001254727
0.6940051061
0.7028573847
0.7148785842
0.7171867666
0.7181097323
0.7155141363
0.7123804111
0.7267896997
0.7227439617
0.7177834219
0.7332311638
0.7472660669
0.7578405272
0.7548101423
0.7592575635
0.7617342961
0.766451662
0.757022625
0.7678604989
0.7939869622
0.7968644983
0.7788159259
0.7839165075
0.7789959515
0.8190354351
0.8180788908
0.8100649797
0.8121642644
0.8280399749
0.8275134785
0.8494071518
0.8571489016
0.6732018571
0.6555159553
0.6746440095
0.6690955982
0.6709335693
0.6774169356
0.6686905153
0.7108461554
0.7068388419
0.6929773094
0.6948840589
0.6986177641
0.7209517746
0.7275663194
0.7436431173
0.7298189265
0.7325594475
0.7293510739
0.7346653042
0.7229830217
0.7403414061
0.7558318759
0.7380760326
0.7508371849
0.762722915
0.7584284581
0.7670534064
0.779067044
0.7692060579
0.7688504441
0.7809770682
0.8040056735
0.8250075678
0.8251823511
0.8288842415
0.8141920726
0.8430368835
0.8746899867
0.853828365
0.8417155777
0.6654589991
0.6573794003
0.6814157535
0.6845036452
0.6704448496
0.6802518022
0.6722269632
0.695284609
0.6825905484
0.699129446
0.703464148
0.7232925768
0.7081189609
0.7147153033
0.7192061505
0.7356613144
0.7340357938
0.7309737322
0.7356188667
0.7454029215
0.7487685725
0.7607728931
0.7715342078
0.7509738578
0.7648173288
0.7757469866
0.7658875681
0.7624073318
0.7656402725
0.7716152622
0.7824512046
0.8010489493
0.7961717269
0.8039695536
0.7990837561
0.815007915
0.8180160911
0.8125478263
0.8209419174
0.8437352848
0.6639222079
0.6738433615
0.6727847859
0.6930957359
0.6883484692
0.6904804183
0.6666861191
0.6858689912
0.7040172038
0.7128803112
0.7220100545
0.7229069735
0.7135244452
0.7163388887
0.7078522785
0.7205410417
0.7316151213
0.7379296708
0.7326320522
0.7426806681
0.7419969408
0.7417715555
0.7477010356
0.7652293553
0.7732307339
0.7686502069
0.7680683519
0.7853119415
0.7806948816
0.769430628
0.8022389134
0.8012192055
0.8056257558
0.8017331361
0.8147618387
0.8146646723
0.8307032815
0.8216494068
0.8236936762
0.8632312544
0.6693436571
0.6821458248
0.6791301006
0.6730230091
0.6993867967
0.6870079736
0.6965712107
0.6992986656
0.6955607607
0.6936627975
0.7129788453
0.7160311994
0.7025079888
0.7156311898
0.7233594168
0.7195355244
0.7310814965
0.7321307466
0.723869318
0.7542065398
0.7533568386
0.768252387
0.7766670907
0.7808597782
0.7643011105
0.7664171485
0.7738461545
0.7742616578
0.7811246638
0.8020544192
0.8283995537
0.8208666322
0.8230129701
0.8044198528
0.8334354186
0.8322193401
0.8369776863
0.8577136023
0.8469075934
0.8639433746
0.6862673277
0.6778293989
0.6805904153
0.6870048481
0.6878335787
0.6984316763
0.6910926564
0.7021772921
0.7092728929
0.7030774278
0.6899125357
0.7279889705
0.7178081684
0.7156407427
0.7148634639
0.7159300486
0.7447317488
0.7440115985
0.7362732969
0.7364623714
0.7346064867
0.7579840296
0.7544865303
0.7511905169
0.7520179043
0.7428547732
0.7786576472
0.8173431672
0.7985036026
0.7952580042
0.7938806295
0.7821264943
0.7999871968
0.8161762193
0.8131083226
0.8040531978
0.8219473382
0.8341063673
0.8552839425
0.8773347187
0.6916881841
0.671440282
0.6765967964
0.6780766976
0.6907106964
0.6806972049
0.6962882233
0.6983178728
0.6935424463
0.6944120878
0.688283168
0.7181435891
0.7179195606
0.7251224502
0.7218177705
0.703883913
0.7311776065
0.7349486835
0.7429123298
0.7632205393
0.741850278
0.7494827454
0.7571001206
0.7608840752
0.7533705086
0.7609313465
0.7682981342
0.7861026965
0.7864838185
0.7850833381
0.7992836652
0.7911380062
0.8037865597
0.8084684334
0.8082828263
0.8122685135
0.8232185674
0.8280203368
0.8289342426
0.8389170041
0.6512971796
0.6589858594
0.6491068677
0.6740700184
0.6799047548
0.6918990478
0.6901420474
0.6805494565
0.6908582757
0.7022799805
0.700436339
0.7112752901
0.6993685764
0.7047205829
0.7164532526
0.7146448502
0.7231886628
0.7302401112
0.7216833905
0.7517225466
0.7379973504
0.7413942344
0.7285673185
0.746790928
0.7362201216
0.7598440956
0.7686657324
0.7928255101
0.7873673546
0.7900332902
0.791746612
0.7939048641
0.8032846853
0.7963353871
0.8001098867
0.7885891755
0.8233950603
0.8098153968
0.8041304238
0.8352887842
0.6700115122
0.6517142042
0.657366979
0.6830101741
0.6980991666
0.704022
0.668174945
0.6819325023
0.6997441939
0.7033106406
0.7238830939
0.7298143049
0.7028150667
0.7068368966
0.7307348069
0.7506606301
0.7152323456
0.7338477554
0.7084586724
0.7215067418
0.7482509164
0.7666473014
0.7440699838
0.750047496
0.749659864
0.7755680027
0.7582301444
0.7670412777
0.7767950724
0.7902962559
0.7949110799
0.8184047686
0.7900872792
0.7861411022
0.7908025112
0.7937583238
0.8044095866
0.8024560081
0.8154656883
0.8306784446
0.663992838
0.6767486629
0.6830689603
0.6872883902
0.6835305383
0.6990310858
0.6938040807
0.7111506379
0.7086876625
0.7110503731
0.7136625665
0.6952966445
0.7152636563
0.7053780621
0.727552827
0.7244066945
0.7441343034
0.7397012755
0.7489391285
0.7496263421
0.7480621195
0.7520390585
0.7479446005
0.7540326432
0.7642126404
0.7788435253
0.782384154
0.7900545593
0.7761973215
0.7996708803
0.8020868127
0.811312831
0.7809924733
0.8043261575
0.7914591768
0.8069040604
0.799505102
0.822484109
0.8315788448
0.8387736233
0.6826240148
0.6742948768
0.6796267446
0.6833994286
0.6842256438
0.6964105148
0.705569191
0.714244313
0.716931294
0.705413309
0.717834448
0.7099960725
0.7078046637
0.7073740366
0.7400293898
0.7300589784
0.7273419025
0.7274670137
0.7329069341
0.7287692226
0.7013392992
0.7243051571
0.7445312711
0.7586204537
0.7455475151
0.7474722177
0.7517102517
0.785697141
0.7739172259
0.7802211146
0.7738004304
0.7669244195
0.782600361
0.7982815179
0.7877574134
0.8212039398
0.8295785746
0.8261086364
0.8377950836
0.8325545244
0.6574283029
0.6848341796
0.6913536055
0.6912314102
0.6930674996
0.7003948619
0.7100762854
0.7088355479
0.7115750203
0.7035578891
0.7143102209
0.7188769845
0.7135208575
0.7248803309
0.7379261869
0.7232507618
0.7321324758
0.7221592836
0.7263656032
0.7445349221
0.7479675438
0.742782146
0.7388890801
0.7515007302
0.7681181046
0.7773671327
0.7710588784
0.7782335201
0.793275658
0.7914674126
0.7835011001
0.7931821586
0.7835752155
0.7979602344
0.7983972265
0.8059251413
0.8108764681
0.8452992655
0.8467478736
0.8398072075
0.654856429
0.6689708331
0.6683759792
0.6757730942
0.6819439135
0.7006537077
0.6959529429
0.7026644657
0.7101240423
0.7139528892
0.7003351582
0.7009211127
0.6998263042
0.7062265684
0.7191403861
0.7150616812
0.7303418381
0.7278712755
0.7140301432
0.7527066593
0.74106879
0.748210104
0.7611304348
0.7239666539
0.7652569986
0.7652058111
0.7628160336
0.7614414868
0.7715417299
0.752165911
0.7622455079
0.7642152146
0.7818856007
0.7872411281
0.7993407987
0.8104481468
0.8206579308
0.8121584979
0.841892861
0.8178478889
0.673956555
0.6646087519
0.6785082493
0.6668579104
0.6890403596
0.669030683
0.693735822
0.6827964994
0.7117128771
0.7142204229
0.6950732292
0.690275044
0.7026581584
0.7200088526
0.7207065302
0.7300161761
0.729127321
0.7297505551
0.7420368298
0.7387778916
0.7375506762
0.7332030806
0.7487655351
0.7374095874
0.7425515167
0.7602443341
0.7548744256
0.7730539265
0.7733518667
0.7854551046
0.7830397736
0.7736027999
0.7955134461
0.7972416452
0.7970524655
0.8012949358
0.810430126
0.8147497093
0.7912821893
0.7960178657
0.6585066086
0.6773348904
0.6729353122
0.6734547963
0.6678700574
0.6692700204
0.6960538375
0.7099431769
0.6889617499
0.7044808993
0.7145004384
0.6743037874
0.7064444809
0.707444828
0.7094557549
0.7147022472
0.7070270098
0.7288723891
0.7333304037
0.7267577324
0.7434941571
0.7508631616
0.7588980236
0.7547753046
0.7331159714
0.7502930806
0.7321635438
0.7485909583
0.7743259017
0.7765122026
0.777040846
0.7811370709
0.8051222831
0.7967478614
0.7785930319
0.7815612893
0.8084026693
0.7870145047
0.7974386382
0.7885289491
0.6742296796
0.685963719
0.6871575605
0.6859043608
0.6879691625
0.6912969712
0.6990495944
0.689135941
0.6820595081
0.7059875952
0.7047869555
0.6721456395
0.700717358
0.7095937107
0.6984376462
0.7053012863
0.7151309954
0.7300259632
0.7246055651
0.7338602164
0.7311559482
0.7362798693
0.7581981984
0.7495546135
0.7584284435
0.7669411434
0.7638181162
0.7508547514
0.7497539323
0.7603099664
0.7627831044
0.7644564152
0.7716390959
0.7855186313
0.8000055984
0.7854735961
0.7727770248
0.7791503615
0.786791867
0.7818487062
0.6613716328
0.6611073067
0.6704697863
0.6590433553
0.6821483004
0.6840141383
0.6845568538
0.7135637304
0.6894087742
0.7037633965
0.6994035698
0.6972712313
0.7168894857
0.7227715329
0.7168391735
0.7289010373
0.7290557072
0.7137356472
0.7115944274
0.708420808
0.7253113363
0.7375424194
0.7454333894
0.7341619333
0.7351631576
0.7392595115
0.7313284561
0.7464095949
0.7559455178
0.7684449721
0.7509478318
0.7315775335
0.7530623269
0.7643883653
0.766364121
0.8018594523
0.7734855539
0.805036227
0.7888486274
0.7691109526
0.6535820383
0.6711174712
0.6691560158
0.6779494831
0.6825383539
0.6734481188
0.6804058098
0.6918953228
0.7041366167
0.7090494822
0.7247952593
0.7002517026
0.6855573555
0.6976659182
0.7260948969
0.7108693153
0.7093220256
0.7293624983
0.7147643871
0.7117806946
0.6989503815
0.7139610726
0.7181018874
0.7239860533
0.7381333794
0.775901121
0.7634104782
0.7589080567
0.7489664885
0.7492505137