/*--------------------------------*- C++ -*----------------------------------*\
  =========                 |
  \\      /  F ield         | OpenFOAM: The Open Source CFD Toolbox
   \\    /   O peration     | Website:  https://openfoam.org
    \\  /    A nd           | Version:  7
     \\/     M anipulation  |
\*---------------------------------------------------------------------------*/
FoamFile
{
    version     2.0;
    format      ascii;
    class       volVectorField;
    location    "0.01";
    object      momentum;
}
// * * * * * * * * * * * * * * * * * * * * * * * * * * * * * * * * * * * * * //

dimensions      [1 -2 -1 0 0 0 0];

internalField   nonuniform List<vector> 
2400
(
(0.006118127841 -0.0002526908876 -0.0004080131528)
(0.008461411836 -0.0002922187849 -5.422391757e-05)
(0.01058491468 -0.0003088204365 -0.0002411709946)
(0.008740361063 0.0005157247477 0.0003968385086)
(0.006457790922 -9.195126893e-05 0.0001828939487)
(0.007735906185 -0.000324255891 -0.0003373662641)
(0.006519309391 0.0002771035755 0.0004088011853)
(0.01072444353 0.0001289207161 -3.291377713e-05)
(0.00561168708 -0.0001651068869 -0.0007808622979)
(0.004532229841 -0.0002471140237 -2.200007244e-05)
(0.006235382695 0.0005305669072 0.0002263070385)
(0.006060751075 -2.178673673e-06 -0.0001583164487)
(0.009152780465 1.97008481e-05 8.105824736e-05)
(0.008180783288 -0.0007674801436 -0.0001511223633)
(0.003263392106 4.716165399e-05 -6.45231826e-06)
(0.01307770088 -0.0002317012898 0.0004501879319)
(0.005950184082 0.0004138362218 0.000372719339)
(0.008309649947 0.0004743240669 0.0009318836105)
(0.00694816249 -0.0001681525062 -8.550522477e-05)
(0.005850326172 2.567706534e-05 -0.0002188776238)
(0.005664579993 0.0007197780948 0.0001386048896)
(0.002559152548 -0.0002626302481 0.0002953291338)
(0.01330485427 -0.001365957456 0.0005858414203)
(0.005678338527 0.0002163649331 -7.518252066e-05)
(0.007206423135 5.84251043e-05 -0.0006149493706)
(0.00951593559 0.0003357554275 -0.0009443399139)
(0.01093839094 0.0002530689211 -0.0001945827106)
(0.01394625286 -0.0001533830965 0.001310789969)
(0.009335498818 0.0002264555378 0.0003078475338)
(0.01277725128 -0.0002543004962 -0.001602824885)
(0.01724380342 -0.0003565997581 -0.0006341931816)
(0.007238364878 0.0005226591015 -0.0003307180665)
(0.01108963314 -0.0005716285801 -0.0005816235827)
(0.007914897433 -0.0006073190235 0.0001013397727)
(0.008599231137 0.0005941408549 0.0001644319792)
(0.006629127097 6.87595377e-05 0.0003493597223)
(0.01031154937 0.0001690486261 -0.0009988812079)
(0.00957787098 -0.0001344718446 -0.001398517257)
(0.007897133033 0.0002513169311 0.0005561624933)
(0.008615558623 0.000294322192 -0.0006642893243)
(0.006904504732 7.391036634e-06 0.000329889627)
(0.00998916726 -0.0004649263476 0.0001465579741)
(0.00582512519 -0.0003069505284 2.416469373e-05)
(0.01002021426 -0.0001447465056 -0.0004217806862)
(0.01297840222 0.0003752235369 2.112557361e-05)
(0.008104869033 0.0003593511845 -0.0003357085466)
(0.004253963218 0.0003044760551 0.0001266114359)
(0.009649624077 0.0002272634828 -0.0005486569347)
(0.005148442389 0.0006295130754 -0.0006409136881)
(0.006454166814 0.0003041580466 0.0001266640957)
(0.004833522136 -0.0001183695215 0.0002760196844)
(0.009775206847 0.0003060966497 0.00049725619)
(0.01290691455 0.00048596193 -0.0003961403991)
(0.005728129607 -0.0009062810088 0.0006439930791)
(0.009843525143 -0.0004332004873 -8.665635895e-05)
(0.008672921332 7.842199377e-05 -0.0001458643633)
(0.007829722535 0.000694411591 0.0004503684911)
(0.009601213027 -0.0002546755104 -0.0003068955537)
(0.01101341852 0.0002772414121 0.001780510863)
(0.009934408197 0.001381543671 0.0001443110052)
(0.005094108598 0.0005013758667 0.0001736197125)
(0.01079341917 -0.0003667408519 -0.0006184637869)
(0.008146253381 4.748278708e-05 -5.483141978e-05)
(0.00887909097 -0.0001092648232 1.653608786e-06)
(0.009238177175 -0.0004167455207 0.0002405493386)
(0.008032493218 -9.716424989e-05 0.0003772376316)
(0.00872021966 -0.0001876342792 0.0001536902143)
(0.009256206305 -0.0004407718975 -0.0001897672769)
(0.005050311551 -2.910773168e-05 6.916474474e-05)
(0.008025568905 -0.0007833844694 0.00118172508)
(0.004133332682 -0.0003177496353 -0.0001113464571)
(0.01180991336 -0.0002932427895 -0.0005485906425)
(0.006653929938 0.0005472672526 1.695397885e-06)
(0.007194613361 0.0003949388822 4.296311703e-05)
(0.005302182081 -0.0005858948269 0.0004221073416)
(0.008198871365 0.0002397496765 -9.353747732e-05)
(0.007847271155 -2.126052091e-05 0.0005255305244)
(0.00835006912 0.0006894415138 4.505870449e-05)
(0.008299110389 0.0006626340597 -0.0006566185928)
(0.01012731653 0.001599965825 -0.001160235412)
(0.00541038284 5.566736546e-05 0.0007015838045)
(0.006932648104 -0.0001117333926 -0.000143708981)
(0.007577153631 0.0001781474287 0.0002539962473)
(0.004632517581 0.0003820845192 0.0001851509429)
(0.01098124912 0.0006960932393 -0.0006607007445)
(0.009571113501 -0.0004426420568 -0.0008440532857)
(0.008492482169 -0.0002184038234 -7.630379198e-05)
(0.007298001226 -4.860671738e-05 8.481133545e-06)
(0.002456576092 -8.550757683e-06 0.0001028055091)
(0.01046640866 0.000492574905 -0.0003236948316)
(0.005490138894 -4.523791173e-05 -0.0001634024324)
(0.007330814188 -0.0003115260078 -0.0006369175252)
(0.01258426416 5.077976619e-05 0.0006741677737)
(0.009929901561 0.0004798924804 -8.747770278e-05)
(0.007617397004 0.0009251640292 -0.0001832747843)
(0.004196872707 0.0001865463774 1.474503699e-05)
(0.01136551114 0.0006500545383 -0.000110731769)
(0.005364283319 -0.000159877875 -0.0002370443288)
(0.009612031774 -0.000168475146 4.144136621e-06)
(0.004698451328 -9.729328184e-05 -1.427425588e-05)
(0.005895530853 0.0001786248586 -0.0001797230953)
(0.01209058416 -0.0001822592316 -0.0003372701698)
(0.006210890731 -0.0003520285459 0.0002238139355)
(0.01105078116 -0.0004233395055 -0.0005600191297)
(0.008684649 1.137457762e-05 0.0006362098845)
(0.006601838833 7.241611209e-05 -0.0004671729004)
(0.009626655537 0.0002208707947 -9.956606454e-05)
(0.009297911118 -0.0008636891272 -0.00107510814)
(0.009792375934 0.0008943926529 0.0003173697984)
(0.008224159791 -0.0005521338489 -0.0004025093051)
(0.007510115084 0.000108272166 -6.214404341e-05)
(0.008913134324 -0.0005001999573 -0.0001288374519)
(0.009333202533 -2.958226503e-05 0.0002298523835)
(0.01058070502 -0.0006183182808 0.000145065797)
(0.007765335967 0.0003539326197 -0.0002883717271)
(0.008026368608 0.0002030968734 -3.780444656e-05)
(0.005298745618 -2.481906286e-05 -0.0002042005465)
(0.006909512221 -0.0006127833261 -0.0003637332279)
(0.005784510303 -9.424855668e-05 -1.50411227e-05)
(0.01200134298 0.0002158119042 -0.001856730946)
(0.008919576776 0.0005107353019 0.0003519377536)
(0.007029953342 -0.0001649456253 -0.0002649397597)
(0.007132984467 -0.0003858378644 0.0002312712081)
(0.00372858328 0.0006473840733 -0.0002282067459)
(0.008531261786 -8.116364653e-05 -0.001005496552)
(0.004140953039 -0.0002488726203 6.139483515e-05)
(0.009258085316 -0.0008473835446 2.923981149e-05)
(0.004104543391 -0.0004123325104 -5.549638235e-05)
(0.006106089662 0.0003988077545 5.293259684e-05)
(0.009469561705 6.905853061e-05 -6.46545649e-05)
(0.006201934542 0.000624240586 6.883188188e-06)
(0.01211494279 0.0005399117572 0.0006275108508)
(0.006611340423 -4.847970009e-05 -0.0004002073876)
(0.01115893182 -0.0002199069478 0.0004259798192)
(0.008753795105 -5.188149541e-05 -0.0006955587775)
(0.007761688178 4.735336202e-05 0.0004681630154)
(0.009312510969 -0.0004661551223 0.0004683300652)
(0.009113877178 -0.001284365674 0.0004007364122)
(0.00635171403 -0.0004789977264 -0.0006466136218)
(0.007830374904 0.0009017964591 0.0003027095212)
(0.00854646917 -0.0002420636044 0.0001608225009)
(0.008817120963 -0.0004829972317 0.000750134769)
(0.009118415076 0.0003622088767 -0.0003724898337)
(0.01064725762 -0.0004054161429 -0.0002535032612)
(0.01381486539 -0.000690100259 0.0005464202568)
(0.007387518754 0.0002515098002 9.191100537e-05)
(0.004831188534 -0.0001325246451 0.0003244906433)
(0.013514912 0.000653281934 -0.0005286738306)
(0.01363602224 0.0007587299468 0.0004586957315)
(0.008860054837 0.0001049091061 -8.904031116e-05)
(0.01285290913 -0.0002759515473 -0.0003243453055)
(0.01080553246 -0.000155303939 -0.001902581192)
(0.00437819828 -0.0003091940103 0.0002356185067)
(0.01277178027 0.0006431353042 0.001122570694)
(0.009633150528 0.0006368015519 -0.0001798090059)
(0.006129373474 -0.0004298186751 -0.0001122945965)
(0.006162535207 -0.0003314133517 0.0001878655511)
(0.009974997956 -0.0003473603054 -0.0001135941143)
(0.009131372765 3.943794159e-05 -0.0005935025341)
(0.009561478298 -0.0003232211135 -2.524679893e-05)
(0.006929489064 2.165608231e-05 -0.0004241294332)
(0.00779017022 -0.0009360756667 0.0005096423464)
(0.007118184701 0.0002354947359 0.0002766575864)
(0.005960088363 -0.0006710093876 0.0002693140061)
(0.01124508677 -0.0006385792057 0.0007739982347)
(0.005243746053 7.537693629e-05 7.744276006e-05)
(0.007821424803 0.0003677798458 -0.0004131776608)
(0.01012302163 -0.0004192542021 0.001549380759)
(0.009842525886 -0.0002037532331 0.0001929247193)
(0.01156527292 -0.0002234847603 0.0003943487532)
(0.003395904413 -0.0001359304107 1.734173205e-05)
(0.001510501072 8.043942027e-05 -0.0001127870496)
(0.006160205923 -0.0001729723002 0.0001461674261)
(0.01026496896 -0.001397821776 -0.0001878056788)
(0.005681936646 -0.0002141129196 0.0001355018585)
(0.009745188376 0.0004783153255 0.0003928200429)
(0.00705718299 0.0001335247699 -0.0005460700805)
(0.006057858954 4.880130436e-05 -0.0003937035583)
(0.01028562074 0.0004821460997 0.0005610788909)
(0.01004521818 0.0009652252012 -0.0009756401346)
(0.003298462938 -4.523541558e-05 0.0001418022124)
(0.008270328167 0.0003615966531 -0.0001327822064)
(0.00805270474 5.283034136e-05 -0.0001357067866)
(0.006650788331 0.0001714664105 0.0001135625544)
(0.01057216714 -2.685953532e-06 0.0001689841258)
(0.006139514346 9.778890858e-05 -0.0002402579529)
(0.007720574877 -0.000573222486 -0.0009132425237)
(0.005545478981 -0.0003166072192 -5.345289327e-05)
(0.007391825572 0.0009768495666 -0.0004523512232)
(0.009483401987 0.0003006772922 6.510683522e-05)
(0.00880864602 -0.0006387137079 0.0002313082583)
(0.01569985208 0.001103444862 0.001474334449)
(0.009675949822 -0.0003499558947 -0.0006291902336)
(0.005858843686 -0.0006417903961 -0.0001514532064)
(0.004453009884 8.350575429e-05 0.0004784757386)
(0.008841275593 0.0002217953817 -0.000550926919)
(0.0101444739 -0.0003712377757 0.0003019361936)
(0.009906746031 -0.0001872917134 0.000489322906)
(0.01208230632 0.0001477169728 0.001235711387)
(0.01515974204 -0.0001018260314 0.0001060484811)
(0.006033178343 0.0002927440283 8.949881048e-05)
(0.006230925366 0.0003806141258 -8.59888395e-05)
(0.006692679587 3.212024308e-05 -0.000242091881)
(0.008383368301 0.0003117913199 5.87479109e-05)
(0.007431570869 0.0003050221225 -0.0004802960325)
(0.01213203356 -0.0004919717428 0.0004263811362)
(0.00798926816 0.0001364030055 -0.0002906522754)
(0.009864953257 -0.0008564680223 -1.323661355e-05)
(0.01175202284 -0.0003951650511 -0.000459550704)
(0.01110090561 0.0004628008966 0.0002585231705)
(0.009859373199 0.0007283574608 -9.335199467e-05)
(0.006044504096 -3.539878706e-05 -0.0005455419866)
(0.01467329652 -0.0002837486895 0.0003564275837)
(0.005380043305 0.001063615536 0.0002615678593)
(0.006113973859 4.016811753e-05 -0.001153314061)
(0.009934866769 0.0006136144794 -0.0002008104693)
(0.01152007694 0.0002874591819 0.001299345671)
(0.00760213092 -0.0005106010286 0.0002554094859)
(0.008638638011 -2.207090252e-05 0.0005348894849)
(0.006413213076 -0.0001364864945 0.0002085446558)
(0.006260737331 0.0006322159053 0.0003157487516)
(0.01023399275 0.0005070646373 0.0003324925809)
(0.007832690285 0.0002641920103 -5.804629294e-05)
(0.01602002879 -0.0002670803078 -0.001672088055)
(0.008132318412 -0.0002657827097 -0.0003701763785)
(0.008172806023 -7.389171568e-05 -5.413983739e-05)
(0.008984484237 -0.0005332142803 0.0002535224658)
(0.009006195515 -0.00023437433 -0.0004544205813)
(0.003485951031 -0.0003540267274 0.0003831576372)
(0.007207842333 -0.0003499953988 0.000273421862)
(0.009866257886 0.0004944468866 -0.0001067725978)
(0.01075489816 -0.0004879354645 -0.0009479617156)
(0.009330944476 -0.0006583385923 0.0001121096834)
(0.00987940829 -0.0001403306245 0.0001821496184)
(0.01241036699 -0.0004692287257 0.0002722202165)
(0.006844023688 0.000243379009 0.0006032006937)
(0.009077260908 0.0008437136595 0.000274691169)
(0.006164109567 -0.0001126572218 4.895211592e-05)
(0.008464205073 -0.0003659141594 -4.973251834e-05)
(0.00824714897 -0.0001428439862 0.0006570877182)
(0.005984856693 5.596278604e-05 -0.0001735454966)
(0.01099941824 0.0004933994685 0.000723070316)
(0.006527914827 1.042397435e-05 6.215283262e-05)
(0.008523462386 -0.0001163764214 -0.0005705062104)
(0.007498213131 0.0001421948024 0.0005245428256)
(0.006623350037 -2.738174459e-05 0.0005713345168)
(0.006285755556 0.000114544836 -0.0003992494021)
(0.008391086085 0.0001397386562 0.0003619050149)
(0.009010035639 0.0003189006759 0.0005530810768)
(0.007869532027 0.0004378720292 9.321066939e-05)
(0.009348945557 -0.000411632638 -0.0003299753749)
(0.003954551234 0.0001197018313 -9.114938923e-05)
(0.007895914693 -3.81403144e-05 0.0008033485846)
(0.01143636353 -7.529314564e-06 -0.0001064675653)
(0.01002121562 -0.0001809373498 -0.0004024634837)
(0.007713483024 0.0001484608426 -0.0001746047766)
(0.009557583913 -0.000174289229 -0.0007526932816)
(0.00861864506 8.842953662e-05 -0.0002320241221)
(0.007555354761 -0.000205936592 0.001095643424)
(0.008912525919 5.469920088e-05 -0.0002578191567)
(0.005695488118 0.0001648945509 0.0005899437239)
(0.006576821121 0.0005247470803 -0.0001871901662)
(0.00580959025 -0.0001209751965 -0.0006909086855)
(0.008855151661 -0.0003682862585 0.0001545151751)
(0.008026067817 -0.0001244414934 -0.0002424382252)
(0.008018496346 -0.0002113595441 -0.0002634257145)
(0.007156969236 2.066992879e-06 0.0002724464211)
(0.01153093388 -9.221861037e-05 1.057523033e-05)
(0.003386941991 0.0003873175341 -2.078640814e-05)
(0.009306224924 -4.586499432e-05 0.0002673611975)
(0.004606381974 -0.0003228252519 -0.0006572772502)
(0.01020775528 0.0002568775562 -6.821347007e-05)
(0.008267660367 0.0001727430678 0.001103913007)
(0.005916755497 0.0002269909065 0.0002110622907)
(0.006976853335 0.000206428369 0.0002886568688)
(0.005085335968 -0.0007524436406 -0.0002131477124)
(0.006713623438 0.0004153753011 3.594223274e-05)
(0.01097016852 -0.000658680147 0.0004434299641)
(0.007041493274 0.0004025805183 0.0009278990725)
(0.008637164004 -0.000311387442 -0.0003421025692)
(0.006475410601 1.584187255e-05 0.0002650960465)
(0.0113850455 -0.0006914264536 0.0007051647233)
(0.008182050801 0.0005494740795 0.0004477438332)
(0.008268422241 -0.0002301320422 7.699173356e-06)
(0.009623540932 -0.0004006328452 -2.490990098e-05)
(0.008913642285 -0.0007269925241 0.0007567075726)
(0.009340157349 -0.0005463874041 -7.904251193e-05)
(0.01035113727 0.0003536514617 0.000262449893)
(0.007191798734 -0.0007874325544 -2.128946289e-05)
(0.01140499203 -0.0002592511367 0.001251138287)
(0.004532981519 -0.0004581502152 3.802448271e-05)
(0.01023614413 0.000304410395 0.0005752834493)
(0.01043587416 0.001010144906 0.0001043500018)
(0.008083127342 -0.0004295965233 -0.0003488145615)
(0.005924394489 5.696241002e-05 -5.668590259e-05)
(0.0054259933 8.66026043e-05 -0.0007897025201)
(0.004700804074 -0.0004460279864 -5.334448657e-05)
(0.01171692478 -8.416026616e-05 -0.0001571709048)
(0.01039421551 0.0005067564989 0.0001823349317)
(0.005902817987 -0.0005337533901 -0.0002774564684)
(0.005715905066 -0.0007173938405 -0.0003980961677)
(0.006340204656 0.0002872029215 -1.150312215e-05)
(0.01061131079 -0.0002024220157 -0.0003842335449)
(0.002951534825 0.0003151376693 -0.0007203881651)
(0.007433252767 2.110534699e-05 0.0002209965598)
(0.009168336314 -0.0005694323997 0.0005880349544)
(0.009039771009 0.0008794231091 -0.0005586804412)
(0.007989552058 -0.0005281620348 -0.000287940234)
(0.01467344944 -0.0002355813733 0.0004317731841)
(0.006093299439 -4.781230512e-05 -0.0004856341658)
(0.009835596898 0.0002654018838 -0.0001378510067)
(0.006808656174 -5.144679756e-05 0.0007870757004)
(0.005183733232 -0.000282349174 0.000440364139)
(0.007576324808 1.226988432e-05 -0.0002589912427)
(0.005404708937 -0.0002580980833 -0.0001038760175)
(0.005102187522 -0.0001881019374 -6.587483864e-05)
(0.007947903145 0.0003416070819 4.486364279e-05)
(0.01214295566 1.725100793e-05 -0.0002798484595)
(0.00588732234 -0.000158937192 -0.0002681526031)
(0.008522294119 -0.0003711726302 0.0004055216271)
(0.007772701017 9.711221718e-06 -7.691040885e-05)
(0.005398466322 -0.0005148688124 -0.0001161927063)
(0.008542435372 0.0003555585684 0.0008431452576)
(0.01000838568 3.625225478e-05 0.0005880300728)
(0.01020339866 0.0001384203664 0.0002176538121)
(0.00753093546 0.0004161786588 -9.826590445e-05)
(0.007482229581 0.0003162875571 -0.001344473201)
(0.005514958626 -0.0006074287178 9.690196197e-05)
(0.004844332345 0.0004907811634 0.0001393010078)
(0.008236820487 0.0001846392692 -0.0002864574621)
(0.01172527583 -0.0001671964744 0.0001718012554)
(0.007472342995 -8.390971904e-05 0.0003138530658)
(0.01111784625 -0.0001724422855 0.0007093957999)
(0.01084650784 2.524902731e-05 0.0007250812402)
(0.007852537363 -0.0001757852923 -0.0007723834393)
(0.003922493435 0.00037323216 -0.0002608700554)
(0.005195359611 4.667016007e-05 0.0002321599619)
(0.007548974868 0.0007196242436 -0.0009333307948)
(0.004665629791 -8.744220521e-05 -0.0002602338994)
(0.00441312985 -0.0007477284493 0.0007032130357)
(0.007885304257 -6.552895273e-05 0.0005475014221)
(0.009128122816 0.0007049129973 -1.1391899e-05)
(0.008981294356 -0.0003107151551 0.0006707654268)
(0.009290914291 0.0002093800867 0.0007831419544)
(0.004746323308 -0.0003651119948 -0.0001462674049)
(0.01014661191 0.001181811676 1.516798446e-05)
(0.008101326264 3.797394178e-05 0.0003467195903)
(0.008644362822 0.0004534073184 5.940736935e-05)
(0.009439532491 0.0003014585748 -1.670773393e-05)
(0.01162761229 -0.0003951555875 -5.333128442e-05)
(0.01161981429 -4.349899261e-05 0.0001921479596)
(0.008993129299 -4.174652897e-05 0.0002616088327)
(0.00533445914 0.0001075502059 -4.895777316e-05)
(0.008569925003 0.0005943867362 -0.0003602645842)
(0.01027886821 -1.278669754e-05 -1.032558134e-05)
(0.009380153334 0.0002931070959 -0.0003830175605)
(0.00986901145 0.0007899259743 1.017887839e-05)
(0.006319917268 -4.407169846e-05 0.0002195953673)
(0.003658682417 0.0002528545523 0.0002110531913)
(0.01062182109 0.0005253069615 -0.0003599194769)
(0.005689461012 0.0003771500423 1.430163421e-05)
(0.008224531721 -6.272099726e-05 -0.0004601499192)
(0.01069235981 -0.0003646425867 0.0001579143304)
(0.007290898652 -7.829764319e-05 -0.0003333196897)
(0.009887551957 -0.0002658999735 0.0003652549338)
(0.009352811781 -0.0008989499026 -0.0001957262701)
(0.007462349904 -0.0005613167796 -0.001261081743)
(0.007936343886 -0.0006037069699 0.0002937828674)
(0.009535100222 -0.0005786975106 -1.619282666e-05)
(0.01039937235 -0.00024021821 0.0004685945064)
(0.005049675481 3.702562081e-05 6.101774113e-05)
(0.004141806677 -0.0001547583879 -5.168138972e-05)
(0.006971418841 -4.649867751e-05 0.0005956379997)
(0.006910859189 -0.0001388245846 -0.0001191569271)
(0.009902618012 0.0002762328428 -0.0002887359229)
(0.004112769572 7.365801956e-05 -0.0001222404972)
(0.003829694353 -1.785263336e-05 -0.0004848457844)
(0.007038192029 0.0001051622712 0.0002398834551)
(0.009604416938 0.0005534068718 -0.0001966452699)
(0.005930125958 -0.000106464884 -0.0003901750215)
(0.006666833087 0.0002541352707 0.0002794998106)
(0.01023193726 -0.0002240202535 -0.000376199805)
(0.0096866007 -0.001431633418 0.0005913245366)
(0.009007830622 0.0003165641753 -0.0003443151256)
(0.01004473949 0.0003795464597 -0.0003461062034)
(0.01107286132 0.0005454852456 3.845147859e-06)
(0.008360816559 0.0002036563957 0.000519150894)
(0.005334248163 -0.0003358412014 1.087932054e-05)
(0.007049491151 0.0001439158546 0.0001900165638)
(0.006433371203 -0.0001953795609 0.0002481111117)
(0.006975621533 -0.0002657741039 -0.0003341919289)
(0.009006999354 -0.0001351555172 0.0002937837103)
(0.004965382284 2.242929722e-05 0.0002569739016)
(0.0074384868 0.0004248396435 -0.0001127753919)
(0.006128519972 0.0004219186072 -3.729589464e-05)
(0.007591307309 -0.000319840799 0.0002012314613)
(0.01101884056 -9.450663707e-05 -0.0002178393818)
(0.00548183288 -4.221261957e-05 -3.638247152e-05)
(0.01564385238 4.167462854e-05 0.0002185589514)
(0.00820229667 0.0003327887975 -0.0002817149736)
(0.007565140575 -0.0001396708472 -2.941786264e-05)
(0.007215780521 0.0002487626383 -0.0003781213171)
(0.007535000387 -0.0002443977697 -0.0001082027492)
(0.006438002438 -0.000260606042 0.001084284474)
(0.009176668936 0.0001274850058 -0.0002486014595)
(0.00823599912 -0.0007017392426 -1.132810994e-05)
(0.006296063092 -0.0004267950622 5.410736935e-05)
(0.00713272075 0.000252722543 0.0003208737535)
(0.009615063507 8.928005832e-06 6.96586742e-06)
(0.01169829335 -0.000121710952 0.0003809456817)
(0.009198387849 3.190762438e-05 -0.0002743158289)
(0.007140719581 -2.14272431e-05 -3.636249325e-05)
(0.00557879501 0.0002165236174 0.0001721329502)
(0.008870570076 -0.0002906786846 0.0001511721752)
(0.008282409633 -0.0005802291529 0.0007049088127)
(0.00834440313 -0.000486638135 0.0003222011828)
(0.005999683419 -7.928228188e-05 0.0002460636839)
(0.008594359254 0.000430836243 -0.001474440232)
(0.01098910005 4.1484059e-05 0.0006526252783)
(0.01152423177 0.0003991617013 -0.0004203389378)
(0.006106651048 -0.0002432040005 0.0001517744028)
(0.009329668315 -0.0004038726818 -9.605318583e-05)
(0.008038594273 -7.747195619e-05 0.0007891076443)
(0.008165278138 -0.0009105200737 -0.0001943005774)
(0.009697875549 -0.0001135965909 -3.999140803e-05)
(0.01211665049 -0.0008043578124 -0.0003220012852)
(0.004408698739 0.0002740535623 -0.0001265680884)
(0.00878863637 -0.0001725238181 0.0007870403975)
(0.004606907078 0.0003018271602 1.765244329e-05)
(0.005860794981 9.067485585e-05 0.00017986515)
(0.00762053752 0.0003210280379 -8.606167361e-05)
(0.01196459414 0.0005363515874 0.0002347378301)
(0.007000399363 0.0003755193034 -0.0005930564254)
(0.007787679482 5.989626625e-05 0.0001297554841)
(0.01365669293 0.001411054174 -6.404209869e-05)
(0.00669999827 0.0002411564176 0.0005607326901)
(0.009193494983 0.0009546450812 -0.0006039766845)
(0.008504518868 0.001262832306 0.000194497789)
(0.006070523333 0.0003589033359 -0.0003409892953)
(0.01063206132 0.000115547359 0.0004561260075)
(0.007503011219 0.0008343874497 -0.0004725264355)
(0.008170043035 0.0001103335491 -8.317955648e-05)
(0.008637374076 -0.0004021462733 -0.0001354981151)
(0.005233156097 0.0002622014096 -0.0005229165977)
(0.008328596163 -0.0003465138104 0.0001304099339)
(0.007939602081 0.0001559577143 2.903839313e-05)
(0.004215586238 -5.420010417e-06 -0.0001897755244)
(0.004332132856 -0.0005877338807 -0.0002286852685)
(0.009428375669 -1.221027046e-05 -0.0006421858256)
(0.006747353167 0.0001822474638 -8.905567387e-05)
(0.01029903694 -0.0005189886141 0.0001224131824)
(0.008824741004 -0.000408369084 -0.0001967024592)
(0.007412102886 -0.0001748419505 0.0003336127723)
(0.006932402033 0.0002522085676 0.0001279298227)
(0.0062918065 -0.0009066698605 -1.548561765e-05)
(0.009910701356 5.558104538e-05 0.0001410923022)
(0.01052287094 -0.0008707070088 -0.0002860990192)
(0.0117966518 0.0009956762941 0.001043410835)
(0.006685360803 0.0002517505772 0.0008860018007)
(0.00886757592 -0.0001727230337 -0.0002700931239)
(0.006349543664 -3.619272527e-05 -0.0005329255927)
(0.008266612379 0.0006438886891 0.0001258735498)
(0.007139863301 -0.0001771562986 -0.0001348707419)
(0.00947613541 -3.564063046e-05 -0.0001594168225)
(0.007398676638 0.0001352486145 -0.0007284567866)
(0.005009083641 8.540477286e-06 -0.0007151527652)
(0.01052475187 0.0006639521383 0.0007090333598)
(0.009960406609 -0.0004559711857 0.0005299742349)
(0.007461387346 0.0002665171788 -0.0001138835563)
(0.009020119878 -0.000180578588 9.163838074e-05)
(0.006816115227 0.0001118480583 3.175242013e-05)
(0.01022828625 0.0003593090814 0.001040483063)
(0.006909413829 0.0001648890915 -7.006219576e-05)
(0.00821113271 -0.0006410541894 3.128393363e-06)
(0.007420338613 -0.0002529754344 -0.0008096362442)
(0.008115965712 0.0001336913113 -0.0004629912811)
(0.01299114724 -3.66062155e-05 0.0002838430255)
(0.005879827843 -0.0001202016842 -0.0002932444859)
(0.0102539632 0.001063339299 -0.0003484246317)
(0.01131278119 -0.000257106257 0.0001760587477)
(0.006292634859 -0.000265984007 -0.0009509495171)
(0.006826858598 0.0002006932432 -0.0002130520033)
(0.006328403862 -9.858412669e-05 -3.85641555e-05)
(0.009594519958 0.0003084789156 -0.0001207202272)
(0.007777195009 0.000464526909 -0.0002043266303)
(0.005877872109 -8.644069321e-05 0.000436841501)
(0.007529439836 0.0001716375833 -0.0003030847166)
(0.00963929133 0.0006406327327 0.0001753332865)
(0.011473969 -7.406803083e-05 -0.0003861961707)
(0.009721255864 -9.692981867e-05 -0.0006080275945)
(0.004508599009 -0.0002737629769 -6.751821235e-05)
(0.009025907449 0.00022730328 -0.0006187592814)
(0.01089791182 0.001020094575 -5.297911626e-05)
(0.008060103489 -0.0001701631144 -0.0001701803697)
(0.01014400609 0.0001825017026 -0.0003880706817)
(0.008582866075 0.0004814262073 -0.0006015753468)
(0.004876502458 0.0001295146536 -0.0008876189106)
(0.01192826679 0.0005025037789 -3.089371475e-05)
(0.009976646092 0.0002595715669 0.0004327853883)
(0.005746544727 -0.000388287673 0.0005768901656)
(0.004251349375 0.0001366682042 -0.000186750084)
(0.01039050675 0.0001637451191 -3.490918541e-06)
(0.008588939728 0.0003359494903 0.0001882887582)
(0.01030620881 0.0002802002006 -0.0007888987038)
(0.009214792031 9.652839311e-05 -0.0004900748731)
(0.01163381792 0.0002606328097 -0.000965341663)
(0.009769145545 -0.0004102327422 0.0001104198177)
(0.008768496328 -0.0002443836897 -7.802806889e-05)
(0.009397370945 -0.0002447621977 -0.0003591427376)
(0.01025482197 0.0008710136313 -0.0002335901971)
(0.007544259955 0.0001869608863 -0.0002123291429)
(0.01160348538 -0.0004899038904 -0.0001140685661)
(0.008780388449 -0.0001025995909 -0.0002136580102)
(0.005842840477 6.702961876e-05 0.0003654850742)
(0.00872025706 -9.430471277e-05 -0.0004597760612)
(0.008501205184 -9.064725844e-05 -0.0001117920859)
(0.004301032392 0.0002873270738 -0.0005710786683)
(0.01473114034 -0.0003057161564 0.0006799813661)
(0.007895277333 0.0002976884185 -0.0006272657514)
(0.003598212699 0.0003494630789 0.0004710159588)
(0.004361159553 -0.0003016116264 0.0004798701567)
(0.01071586443 9.814993293e-06 0.0004337692813)
(0.008212959738 0.0003656881739 -0.0003731566049)
(0.010673732 -0.0001984251647 -0.0005753156114)
(0.007018183316 -0.0002365211209 -0.0002347891533)
(0.009219067473 -0.0001584177506 0.0001305956935)
(0.004624160642 -0.0006059409113 0.0005255123574)
(0.009429494708 -0.0001840816058 -0.0005572320481)
(0.01290271017 0.0009633433338 0.0001329239948)
(0.007500376406 -0.0001428460571 -0.0004551291785)
(0.01086091584 4.564144167e-05 0.00104436193)
(0.008706723729 5.996263368e-05 2.16765476e-05)
(0.01240065212 -0.0008261450392 -0.0003380442431)
(0.009188568034 0.000265239543 -0.0004087323478)
(0.008705005713 0.000155653866 -0.0001456058174)
(0.01071622315 0.0005017562213 -0.0002449682383)
(0.01002559756 -0.0001547118877 0.0002383733879)
(0.005819477645 -0.0005634998945 2.789749119e-05)
(0.007164221087 0.0003011805344 -0.0003802794828)
(0.008095562039 -0.0005346979104 9.260588472e-05)
(0.006790256627 -0.0007206378563 -0.0004784799721)
(0.005462497654 -0.0002835394033 0.0003794967632)
(0.007910510726 2.321693073e-05 6.484232713e-05)
(0.008033837453 -0.0002297426961 2.182674377e-05)
(0.008447556814 0.0006275150363 0.000977244807)
(0.01229992443 -7.476307711e-05 0.0003472250409)
(0.009505393916 -0.000237212968 -0.0008435332444)
(0.006574281533 -0.0005568628684 0.0004299440049)
(0.008582606595 -0.0003545329573 -0.0008741755137)
(0.004573008823 3.178651643e-05 -0.000113467722)
(0.007471715421 -0.0004954804365 0.0005289499064)
(0.01172255271 -0.0003511188126 0.0003666000959)
(0.007920435259 0.0001858814247 0.0002086597507)
(0.006860459972 5.717917637e-05 0.0005573939803)
(0.007929110125 4.642284953e-05 0.0002744947635)
(0.01336192579 -0.0009368412541 0.0005324906976)
(0.01180677222 -0.0009550723848 0.0002529082206)
(0.007669854157 -0.0005924735524 0.0003866093178)
(0.01440435771 -0.0008321042733 -0.0004352372686)
(0.007000628507 -0.0004675626666 0.0003624255546)
(0.007074709673 0.0002165394944 0.000172861818)
(0.009791370488 -0.0001294819499 -0.0002034313019)
(0.007139200546 6.58603647e-05 0.0003619354965)
(0.007227130755 0.0001482023354 0.0001041946442)
(0.005820516283 0.0002182163929 -0.0001235897321)
(0.005688262941 0.0003681127153 0.0006292462839)
(0.008238339248 0.0004206823686 6.664395194e-05)
(0.008013925463 -0.0006900208569 0.0002270134677)
(0.008615740691 0.0004283851737 0.0005072087633)
(0.009591759762 -0.0001388206388 0.00101605333)
(0.008244834084 -0.0007308395495 2.923630248e-05)
(0.008556912784 0.0009888611531 -0.0005113687877)
(0.006532886922 0.0001558580922 2.185423599e-05)
(0.009173986654 -0.0003035217137 0.0003080687203)
(0.004659260592 0.0005664721888 0.0001936390119)
(0.01146813861 -0.0002934655991 -0.0001958201561)
(0.007241094752 -0.0002313648635 -0.0002914317501)
(0.005081835537 0.0003605843979 -7.645178705e-05)
(0.00797084999 2.802855752e-05 0.0003076279463)
(0.01084946012 0.001125462472 0.0004557255606)
(0.007033709925 -0.0005758529976 -0.0001995413273)
(0.01171799979 -0.0004386050419 -0.001682950121)
(0.007826690074 0.0001945061644 0.0007960728993)
(0.01058284921 -0.0003649046604 0.0008598103048)
(0.006930129548 -0.0003413126915 5.501409772e-05)
(0.01098856123 -0.0007398715975 -8.653656091e-05)
(0.00943505455 0.000509440435 0.001182034033)
(0.005710075921 -0.0004851930567 0.0004495620538)
(0.008091657838 -0.0005851403659 -0.0001386863856)
(0.01091855654 7.844298837e-05 -0.0004248111523)
(0.007096496062 -2.601598066e-06 0.0007130349648)
(0.006905101306 3.989722129e-05 0.0002538171524)