/*--------------------------------*- C++ -*----------------------------------*\
  =========                 |
  \\      /  F ield         | OpenFOAM: The Open Source CFD Toolbox
   \\    /   O peration     | Website:  https://openfoam.org
    \\  /    A nd           | Version:  7
     \\/     M anipulation  |
\*---------------------------------------------------------------------------*/
FoamFile
{
    version     2.0;
    format      ascii;
    class       volVectorField;
    location    "0.01";
    object      momentumMean;
}
// * * * * * * * * * * * * * * * * * * * * * * * * * * * * * * * * * * * * * //

dimensions      [1 -2 -1 0 0 0 0];

internalField   nonuniform List<vector> 
2400
(
(-1.359115912e-06 7.617998847e-06 -6.465376795e-05)
(4.260426651e-05 2.777241099e-05 -1.63190091e-05)
(3.127699259e-05 2.974442944e-05 -2.128002832e-05)
(3.445810324e-05 -1.97665225e-05 -2.189659709e-05)
(5.439036625e-05 5.984388338e-06 5.554270775e-05)
(5.125546765e-05 3.624403748e-05 2.41826061e-05)
(4.231467379e-05 1.831324518e-05 -1.159860183e-05)
(9.751628262e-06 2.968513631e-05 2.468880391e-05)
(-1.572172683e-06 3.4726159e-05 5.820944149e-06)
(-1.84109867e-05 3.029439583e-05 3.548374488e-06)
(2.56704236e-05 2.796634505e-05 -2.757503904e-05)
(3.929789055e-05 2.31271767e-05 -3.412113085e-05)
(6.42725775e-05 3.564702877e-05 2.061574966e-06)
(1.373803963e-05 3.96218242e-05 6.19051597e-05)
(8.91408812e-06 3.283621746e-05 3.949522306e-05)
(4.792697977e-05 1.424106547e-05 3.062758979e-05)
(6.833057965e-05 4.925240905e-05 1.205567681e-05)
(6.705813402e-05 6.804536723e-05 -1.285132473e-05)
(8.437185635e-05 5.032210528e-05 -8.418316525e-06)
(7.568409708e-05 7.779691308e-05 -1.090472009e-05)
(2.099037153e-05 5.186692975e-05 -2.405457572e-05)
(3.327782464e-05 5.551708852e-05 2.342113292e-05)
(5.733118381e-05 4.020221981e-05 3.986703296e-06)
(6.755415283e-05 9.577364035e-06 -2.165116599e-05)
(4.044859109e-05 4.390449747e-05 5.828352903e-06)
(5.188235415e-05 5.677177141e-05 -6.76105576e-07)
(4.090790211e-05 5.073675392e-05 5.719799327e-06)
(5.93054145e-05 7.791865211e-05 1.782820063e-05)
(6.36320186e-05 5.841340773e-05 1.172452543e-05)
(7.45234936e-05 4.841172256e-05 2.133626718e-05)
(5.593224677e-05 2.769137711e-05 2.168107172e-06)
(5.835500311e-05 7.72394424e-05 1.611444888e-05)
(4.003796918e-05 5.245448649e-05 2.58622536e-05)
(6.942014235e-05 9.183389209e-05 2.256342224e-05)
(6.736544912e-05 3.320275154e-05 3.80576426e-06)
(7.338815737e-05 2.955687812e-05 1.965160822e-05)
(6.351604121e-05 7.550173986e-05 3.316559058e-05)
(8.797595387e-05 6.256050056e-05 -2.529753495e-05)
(0.0001131526063 6.028186007e-05 -2.504637679e-06)
(0.000148437235 0.0001114936489 3.013035273e-06)
(1.865196792e-05 3.312255983e-05 1.560339678e-05)
(4.023229081e-05 6.844347269e-05 4.581654849e-06)
(5.234717856e-05 2.885338987e-05 1.201325891e-05)
(4.064727456e-05 2.412901429e-05 -1.821187267e-05)
(3.349225964e-05 6.387124119e-05 -6.763170034e-06)
(5.752109912e-05 2.965661454e-05 -1.66732267e-05)
(8.246071056e-05 5.158692714e-05 1.203163208e-05)
(6.419546287e-05 5.536294529e-05 5.7307012e-06)
(7.219403285e-05 5.717385278e-05 6.036501972e-06)
(7.896973029e-05 5.959081094e-05 1.294161663e-05)
(7.684092825e-05 5.016402604e-05 1.875214693e-05)
(7.034550118e-05 5.71851319e-05 2.49326816e-05)
(7.410537077e-05 5.063008753e-05 3.895597883e-05)
(8.624139723e-05 7.263096619e-05 -2.085964544e-07)
(9.608384045e-05 2.720410861e-05 2.23097448e-05)
(9.032652016e-05 4.304032297e-05 2.104752642e-05)
(0.0001105602149 5.955723824e-05 -1.295283118e-05)
(0.0001145292682 6.266085213e-05 8.89717427e-06)
(0.0001201764989 4.915030678e-05 -1.401916692e-05)
(0.0001180624168 7.599372793e-05 -1.287732844e-05)
(9.230521766e-06 6.318208445e-05 2.147741358e-05)
(6.431549509e-05 2.45349261e-05 3.066406271e-05)
(6.795935498e-05 2.867285063e-05 1.796422164e-05)
(5.785248594e-05 5.373482449e-05 2.233528309e-05)
(4.970625747e-05 3.628812987e-05 -1.221693647e-05)
(2.785191638e-05 4.041989674e-05 7.489820192e-06)
(3.752455777e-05 5.26642599e-05 -2.480420112e-06)
(5.738438016e-05 3.149241442e-05 1.547655586e-05)
(6.250710606e-05 6.392735198e-05 -1.028606422e-05)
(6.180308436e-05 5.263304761e-05 2.529598903e-07)
(5.741089978e-05 4.010342641e-05 -8.147712643e-06)
(8.145384707e-05 6.341353222e-05 -1.588932919e-05)
(6.2738322e-05 6.739515858e-05 3.417483755e-05)
(6.562445581e-05 4.715421151e-05 4.266599378e-06)
(9.144632479e-05 3.354493124e-05 2.260592855e-05)
(8.703124382e-05 3.104331612e-05 3.907461142e-05)
(0.0001097871733 2.013866896e-05 2.75201198e-05)
(0.000140599021 7.662528958e-05 2.89593992e-05)
(0.0001179455352 3.34101263e-05 -1.16916819e-05)
(0.00012384877 8.390054724e-05 -3.66956897e-05)
(3.105282414e-05 3.256912716e-05 3.052499622e-05)
(6.368962631e-05 2.203732882e-05 2.380831729e-05)
(4.922406738e-05 3.973822642e-05 1.88420039e-05)
(4.799378387e-05 5.563248437e-05 4.645376845e-06)
(5.21256935e-05 4.53669308e-05 2.202443748e-05)
(5.245599672e-05 5.475695696e-05 -2.585544731e-05)
(2.805845101e-05 4.271192998e-05 3.892887781e-07)
(5.096773002e-05 1.989821786e-05 -5.543441499e-06)
(5.663010246e-05 6.869062445e-05 -2.193125347e-05)
(6.335170695e-05 3.15142443e-05 8.763656744e-07)
(9.303485347e-05 3.637214151e-05 -4.118981539e-06)
(9.373784039e-05 4.715440246e-05 1.730321991e-07)
(0.0001153026612 7.109423972e-05 -2.131302867e-06)
(0.0001075425071 5.185153056e-05 1.72656239e-05)
(0.0001149267013 2.113327359e-05 4.87454038e-05)
(0.0001032745741 5.519802642e-05 2.832980916e-05)
(7.064650619e-05 2.46520445e-06 1.800219941e-06)
(9.135337468e-05 5.974237215e-05 -1.663330529e-05)
(0.0001216148252 4.187365023e-05 2.464966107e-06)
(0.0001210686325 4.912142047e-05 -9.361736906e-06)
(3.782593358e-05 -6.649835521e-07 4.819925071e-05)
(6.908710638e-05 4.389373452e-05 -1.576905294e-05)
(6.438238147e-05 3.51621203e-05 3.826483415e-05)
(5.659840198e-05 4.896609461e-05 3.509069311e-05)
(6.388942435e-05 5.713138892e-05 3.540779246e-05)
(4.614879755e-05 4.998770398e-05 3.868741048e-06)
(6.265627487e-05 3.64227976e-05 -1.976225637e-05)
(5.055707052e-05 2.365650612e-05 -2.167761909e-05)
(7.707736923e-05 3.905574926e-05 -5.343107287e-06)
(0.0001062385732 1.166544369e-05 1.646141442e-05)
(9.983360019e-05 4.668275867e-05 3.451744649e-05)
(6.793097056e-05 3.675379557e-05 1.481192901e-05)
(8.343604599e-05 5.831977457e-05 9.209820855e-06)
(0.0001158319341 1.945846725e-05 1.758965541e-05)
(0.0001080035496 5.188010039e-05 2.162881319e-05)
(0.0001081486546 5.484401906e-05 -2.269389496e-05)
(9.705831861e-05 2.586076446e-05 1.148794905e-05)
(9.260031445e-05 3.117375092e-05 -3.798902983e-05)
(9.557615607e-05 5.649721223e-05 -1.108171739e-05)
(0.0001074686702 2.532654347e-05 -1.631540064e-05)
(6.049102237e-06 1.975104836e-06 -1.544227364e-05)
(4.200952689e-05 3.211996264e-05 1.529757317e-06)
(4.234718269e-05 4.748388677e-05 -7.41729594e-06)
(6.124279317e-05 5.089008962e-05 1.772524377e-05)
(6.135939538e-05 4.485949938e-05 2.320177071e-05)
(8.346712844e-05 4.594665156e-05 3.293980055e-05)
(7.741711047e-05 4.244715159e-05 1.233464884e-05)
(8.442723064e-05 1.291612754e-05 2.497830974e-05)
(7.569913402e-05 2.733399711e-05 -1.558498761e-05)
(5.099955474e-05 2.809776624e-05 -2.023850391e-05)
(4.619022696e-05 4.146754225e-05 -4.358053776e-06)
(7.379740345e-05 4.652659559e-05 -5.515685524e-06)
(8.345331227e-05 4.322976362e-05 -2.096999515e-05)
(9.078267908e-05 1.213257807e-05 -2.030948135e-05)
(8.467268713e-05 4.381084507e-05 -1.61791599e-05)
(0.0001145251992 4.951582419e-05 -4.018355905e-06)
(0.0001301861186 3.879474851e-05 -1.540392073e-05)
(0.0001173160749 2.510680651e-05 -2.621617787e-05)
(0.0001146306225 5.141149213e-05 -1.488980414e-05)
(0.0001029288207 1.123343662e-05 -2.454302057e-05)
(4.780972081e-05 1.49982805e-06 -3.795403256e-05)
(7.651191001e-05 4.256554507e-05 -4.90060791e-06)
(5.802900615e-05 3.949289743e-05 -1.569226038e-05)
(6.222356821e-05 3.055233224e-05 1.502824696e-05)
(7.225765743e-05 5.326032776e-05 2.868377198e-05)
(4.509654057e-05 4.536316669e-05 1.745424586e-05)
(6.891838499e-05 1.94166679e-05 -1.680792516e-05)
(8.612157713e-05 2.589098605e-05 -6.543780584e-06)
(6.333052702e-05 5.000953286e-05 -3.59820332e-05)
(6.414581835e-05 3.204274635e-05 -6.00700566e-05)
(6.950277183e-05 3.665452019e-05 -2.932855632e-05)
(7.430445021e-05 2.914532004e-05 -4.268291135e-06)
(7.376640335e-05 3.426510181e-05 1.55223489e-05)
(8.051159382e-05 2.622873428e-05 -2.549894114e-05)
(0.0001057820403 1.705491804e-05 2.625467064e-05)
(9.78848188e-05 3.592123347e-05 -1.44406982e-05)
(0.000105092577 1.79976906e-05 -1.665582749e-05)
(0.000110410414 4.054044263e-05 8.953941207e-06)
(0.0001068353436 6.345217993e-05 -4.463738528e-06)
(0.0001181573283 2.961925614e-05 3.041020977e-06)
(2.77670638e-05 -1.034029864e-05 -3.214286815e-05)
(4.460570715e-05 3.008793906e-05 2.892399081e-05)
(7.64996765e-05 5.4181596e-05 -5.798940921e-06)
(6.82842735e-05 1.898702691e-05 9.937592828e-06)
(8.390528932e-05 5.543103095e-05 2.4803219e-05)
(8.883071384e-05 4.363194838e-05 2.39664957e-06)
(8.420737651e-05 1.503260963e-05 -5.665164838e-06)
(8.383501705e-05 2.447541375e-05 1.447294167e-05)
(9.750270226e-05 4.11407427e-05 -3.11036234e-05)
(0.0001040691493 4.523630204e-05 -8.023089536e-05)
(8.984616626e-05 2.476811891e-05 -8.373474575e-06)
(7.840134307e-05 3.46974956e-05 2.098289507e-05)
(8.642941951e-05 1.964455266e-05 2.166259982e-05)
(0.000100259083 2.259311931e-05 -3.316678895e-06)
(9.209299401e-05 1.181252735e-05 -5.980760864e-06)
(8.998622811e-05 4.820773799e-05 -4.797367355e-06)
(7.981740972e-05 3.293585118e-05 -1.267030039e-05)
(8.783103579e-05 3.220036463e-05 1.138984374e-05)
(0.0001062375897 3.569667444e-05 -6.13922827e-06)
(0.0001222284617 1.41163267e-05 -2.289825591e-06)
(-1.603942159e-05 -5.537302853e-06 2.421142026e-05)
(2.63104252e-05 1.583448024e-05 1.436316378e-05)
(3.720430988e-05 3.742836385e-05 -4.735298356e-05)
(6.613472324e-05 2.916304438e-06 -5.868221251e-06)
(7.55035663e-05 4.592775065e-05 2.985636554e-05)
(8.478686892e-05 4.930111463e-05 2.304607408e-05)
(9.040538536e-05 8.464647573e-06 1.57688616e-05)
(7.61926e-05 2.22825293e-05 1.04919802e-05)
(0.0001208571133 1.680098196e-05 -2.365639865e-05)
(0.000100835064 6.436053374e-05 -1.25063133e-05)
(9.330883259e-05 3.419412305e-05 2.728883406e-05)
(9.170611338e-05 4.315081676e-05 5.456849809e-05)
(8.959995223e-05 1.211743999e-05 3.981887553e-05)
(9.792337776e-05 1.578352053e-05 -3.933542976e-05)
(9.646015419e-05 2.196767213e-05 1.558002001e-06)
(0.0001013811189 3.150275807e-05 1.411321515e-05)
(0.0001289255674 5.092740337e-06 2.341444056e-05)
(0.0001315274182 4.219652305e-05 -1.269569343e-05)
(0.0001257348301 2.725655242e-05 -1.999317029e-06)
(0.0001035309659 2.516383932e-05 1.419567023e-05)
(2.69934121e-05 -1.061540466e-06 1.574953413e-05)
(4.607567752e-05 4.631145881e-06 2.571622021e-05)
(5.986512234e-05 1.532260554e-05 7.699020666e-06)
(4.757584245e-05 -8.994716037e-07 -2.653873731e-05)
(6.33876942e-05 3.612129754e-05 4.387104981e-06)
(7.871946618e-05 3.084711493e-05 1.134984148e-05)
(7.393978797e-05 2.560453827e-05 -7.768370471e-06)
(8.938274838e-05 6.044606218e-06 -5.52597686e-06)
(5.308109238e-05 2.465017412e-05 -6.503780702e-06)
(6.21373974e-05 6.965194522e-05 -3.207501377e-05)
(8.434627902e-05 2.553694473e-05 3.246444433e-05)
(8.902522453e-05 3.03217163e-05 2.725160335e-05)
(9.546147894e-05 1.929467213e-05 6.685512467e-05)
(8.433708641e-05 1.424700354e-05 2.385892093e-05)
(0.0001123645282 2.230255439e-05 -7.190853137e-06)
(0.000114371937 2.595773396e-05 3.436169435e-06)
(0.0001013112014 2.856649495e-06 2.546283977e-05)
(0.0001144100545 2.494042643e-05 -4.178909482e-06)
(0.0001034291079 5.611267805e-05 -1.584889096e-05)
(9.721520542e-05 3.814061714e-05 -2.268857364e-05)
(3.55840664e-05 -5.500984195e-06 2.064920507e-07)
(6.988334474e-05 4.894620617e-06 1.006312927e-05)
(6.351180678e-05 1.919031161e-05 -1.552483223e-06)
(5.441148387e-05 1.424083828e-05 -2.19303292e-05)
(4.630133194e-05 2.284676416e-05 -5.087235048e-06)
(5.214715231e-05 1.383432574e-05 4.844267844e-06)
(7.248740823e-05 2.952429173e-05 -6.436706674e-06)
(5.446681786e-05 1.65590357e-05 1.309550399e-05)
(6.331827175e-05 3.778330796e-05 2.486971398e-06)
(9.300196445e-05 3.374281163e-05 -1.915658202e-05)
(8.365463322e-05 3.13655222e-05 -1.873587308e-06)
(8.039135074e-05 2.474167691e-05 -3.373036838e-05)
(9.30415708e-05 1.41684512e-05 3.039756885e-05)
(9.502348994e-05 1.409575309e-05 1.565563848e-05)
(8.817423263e-05 -1.249440388e-05 3.935976067e-05)
(0.0001119232302 3.852256052e-05 -2.881387948e-05)
(0.00010666303 2.757446821e-06 1.432022968e-05)
(8.877635809e-05 3.046356731e-05 1.02892655e-05)
(0.0001278130488 5.362583061e-05 -3.669740748e-06)
(0.0001242924846 3.92066176e-05 1.508513633e-05)
(2.767003354e-05 -7.912727764e-06 8.867808749e-06)
(5.252575409e-05 2.656486195e-06 2.279757294e-05)
(4.641574392e-05 3.884371127e-05 2.806991723e-05)
(6.4586978e-05 3.480442396e-06 -4.482749875e-05)
(7.731291995e-05 1.489037676e-05 -2.840676324e-05)
(9.925956905e-05 2.194310821e-05 5.562375658e-06)
(8.891141722e-05 2.555428002e-05 4.379060334e-05)
(8.521200534e-05 7.538984856e-06 1.067893641e-05)
(9.520224955e-05 2.947664714e-05 2.756820695e-05)
(7.962412298e-05 2.218948539e-05 2.054749859e-05)
(6.475583959e-05 5.616254723e-05 2.444791812e-06)
(8.124153501e-05 1.359029048e-05 2.111350601e-05)
(8.991286779e-05 -1.826332506e-05 3.805602484e-05)
(0.0001146901594 2.109696393e-05 1.221663424e-07)
(9.861883805e-05 1.81675877e-06 1.58120505e-05)
(8.941269797e-05 4.87847306e-05 3.15495725e-05)
(8.139116943e-05 1.12364978e-05 1.700283138e-05)
(7.58696882e-05 1.919830197e-05 1.23215237e-05)
(8.023092666e-05 2.61328821e-05 -2.498994474e-05)
(9.078521642e-05 5.163070056e-05 -1.94073223e-05)
(2.437041375e-05 -8.081233018e-06 -3.108310765e-06)
(6.155975905e-05 5.525050604e-07 6.66755159e-06)
(8.381088855e-05 1.992645823e-05 2.863516989e-05)
(9.63066486e-05 2.473001105e-06 -3.045359648e-05)
(8.613497768e-05 -5.612935992e-06 -1.42637891e-05)
(9.430061079e-05 1.182257864e-05 1.119573481e-05)
(7.975912324e-05 3.991411672e-05 -3.606678519e-05)
(8.683357106e-05 1.469313104e-05 3.520902266e-05)
(6.194470812e-05 3.198565678e-05 1.184448623e-05)
(6.594852825e-05 3.668321767e-05 2.866201267e-06)
(8.056107121e-05 4.107940657e-05 5.837688183e-06)
(8.222806175e-05 1.197777679e-05 4.476780219e-05)
(8.547289425e-05 -9.703791899e-06 3.566527081e-05)
(8.993262715e-05 -1.37444221e-05 5.73113435e-05)
(9.720354329e-05 2.620823645e-05 -2.73426735e-05)
(9.518263645e-05 3.59285587e-05 -8.26841519e-06)
(9.300399216e-05 2.609688516e-05 -2.889491688e-05)
(7.904171581e-05 2.671592575e-05 1.396117899e-05)
(5.734413123e-05 4.721181486e-05 -1.245370207e-05)
(3.824258317e-05 4.359986707e-05 6.37614597e-08)
(2.527571521e-05 -1.617533477e-05 -3.678749589e-05)
(7.547238868e-05 -2.390047511e-05 -9.224229275e-06)
(8.650281059e-05 8.067843433e-06 2.614357968e-06)
(5.780287257e-05 2.144186283e-05 7.548921349e-06)
(5.847121155e-05 -5.30304461e-06 4.823211396e-06)
(5.448669843e-05 1.2098007e-05 -3.93870067e-06)
(8.06097429e-05 3.259116496e-05 -2.126345161e-05)
(8.448919718e-05 4.146056085e-05 1.40216272e-05)
(7.139110639e-05 2.044673972e-05 -2.827911644e-05)
(5.685961373e-05 2.755836114e-05 -7.881861007e-06)
(0.0001028157571 3.052277304e-05 9.664115875e-06)
(9.959367359e-05 5.861878779e-06 3.624604567e-06)
(8.791137479e-05 8.992233383e-06 3.666941479e-05)
(8.407992409e-05 -1.183084119e-06 -2.743255771e-06)
(8.507752348e-05 6.49506361e-06 -1.074588161e-05)
(8.746638527e-05 2.983473334e-05 -3.241961346e-05)
(9.590389192e-05 4.69277709e-05 -3.643111465e-05)
(7.566924304e-05 3.65418961e-05 -3.504207099e-05)
(8.918229677e-05 4.270572269e-05 2.209744795e-05)
(0.0001100546587 4.841070829e-05 1.760075918e-05)
(3.7835405e-05 -2.09127388e-05 5.87282958e-06)
(5.044140631e-05 -1.415690822e-05 -1.184958876e-05)
(3.452382081e-05 -2.760695732e-06 1.151811519e-05)
(5.110471151e-05 3.193161479e-05 7.406977624e-06)
(4.799210414e-05 -2.874667843e-06 9.313976607e-06)
(5.32942922e-05 1.6264872e-05 -3.603264403e-06)
(4.096314992e-05 2.516966795e-05 6.216627184e-06)
(3.794595515e-05 2.250527082e-05 -1.345331954e-05)
(6.406363294e-05 3.766094481e-05 7.391758512e-06)
(0.0001001190428 7.889340763e-06 -6.203123442e-06)
(9.599811313e-05 8.956604837e-06 -2.491029521e-05)
(0.0001126159309 5.554489722e-06 7.175670693e-08)
(0.0001123677311 9.670260129e-06 1.695282074e-05)
(0.0001113206624 -2.597979489e-06 -6.70754734e-06)
(0.0001132262838 2.005550799e-05 1.760064161e-05)
(0.0001089611982 1.709448244e-05 -2.103478255e-05)
(9.467490191e-05 4.992255838e-05 -1.518429224e-05)
(0.0001109263606 5.479491857e-05 -7.966907928e-06)
(0.0001078556899 3.083612764e-05 1.355910735e-05)
(9.371212581e-05 4.51392471e-05 -4.747396434e-06)
(2.515848163e-05 -3.159386597e-05 8.265115025e-06)
(5.35022388e-05 2.398405058e-05 -2.502416351e-05)
(4.156820404e-05 -7.801905349e-06 2.604564706e-05)
(4.993142048e-05 9.719159075e-06 -1.768773417e-05)
(5.629192349e-05 1.86704104e-05 1.70928849e-06)
(6.523861934e-05 8.261668011e-06 -2.147912366e-05)
(7.066217379e-05 2.312634769e-05 1.250198003e-05)
(7.064866945e-05 8.426924818e-06 3.365866867e-05)
(8.227650186e-05 2.205794311e-06 3.671785394e-06)
(7.73709041e-05 2.141094745e-06 9.962848781e-06)
(9.455383299e-05 1.547669249e-05 1.435265508e-05)
(7.891412801e-05 1.664530238e-05 -9.068305999e-06)
(8.992293347e-05 -1.408834608e-05 1.221331536e-05)
(0.0001024544212 3.824943432e-06 2.104687569e-05)
(8.878670895e-05 2.652814918e-05 7.395954273e-06)
(8.05260282e-05 3.41300522e-05 7.076309771e-06)
(9.247425047e-05 3.781102394e-05 1.381318837e-05)
(0.0001164468583 2.994858706e-05 -4.470247947e-07)
(0.0001187712457 3.984406208e-05 -7.73441811e-06)
(0.0001079900049 5.275359517e-05 -1.048130623e-05)
(2.854614159e-05 -2.749230608e-05 -7.007960174e-06)
(6.920338234e-05 -7.735872839e-06 1.251581713e-05)
(6.641802696e-05 5.036832348e-06 1.453567884e-05)
(4.895758477e-05 1.625795648e-05 -1.091302213e-05)
(5.42031936e-05 1.055929126e-05 8.899247934e-06)
(4.003918331e-05 1.194641648e-05 1.933655419e-05)
(6.651025042e-05 1.630512699e-05 -8.108278308e-06)
(6.049933013e-05 2.950506818e-06 -8.522650965e-06)
(7.476700724e-05 -8.023908812e-06 3.701963974e-05)
(9.295077939e-05 1.521260606e-05 3.985760535e-06)
(7.854448587e-05 -8.11991993e-06 -1.657394805e-05)
(8.323304991e-05 1.993384282e-05 2.49575931e-05)
(7.877822673e-05 -3.57058554e-06 3.687442683e-05)
(5.739792367e-05 1.461061921e-05 1.74731158e-05)
(7.974286724e-05 8.35435953e-06 -4.850818989e-05)
(0.0001153738376 4.075674764e-06 2.119109895e-05)
(0.0001114405368 4.613965979e-05 4.129920845e-05)
(0.0001160049295 2.668001868e-05 1.254648932e-05)
(0.0001141385553 4.762096946e-05 6.933264322e-06)
(0.0001089429664 5.382535284e-05 9.2728377e-06)
(1.974156319e-05 -8.207632822e-06 -1.568731405e-05)
(3.682230141e-05 9.308788839e-06 -3.906421491e-05)
(3.234100535e-05 3.130258928e-06 -2.226175765e-05)
(5.307944105e-05 8.080399078e-06 5.798384722e-06)
(5.654706898e-05 3.812586684e-06 -4.460358328e-06)
(6.23124612e-05 -1.012494189e-05 -1.561498035e-05)
(6.430515701e-05 2.555537043e-05 -2.771535457e-05)
(6.209540791e-05 1.496900151e-06 -2.343287621e-05)
(5.823837742e-05 -8.722104904e-06 -4.150154546e-06)
(7.103466023e-05 1.399191965e-05 -3.013214801e-05)
(6.4699719e-05 -1.727132805e-05 -2.497380282e-05)
(7.223241558e-05 2.572294699e-05 -3.574980723e-05)
(8.742246049e-05 -5.70714095e-06 2.045122743e-05)
(0.0001040379448 -2.144089141e-06 4.400213425e-06)
(0.0001235182502 -7.897972058e-07 -4.121470692e-05)
(0.0001110251986 5.026879466e-06 4.681683011e-06)
(0.0001262912786 2.83277459e-05 3.012133728e-05)
(0.0001411301637 1.951602888e-05 8.787021176e-06)
(0.0001453113314 5.473231102e-05 2.545244504e-05)
(0.000147020766 5.77132028e-05 1.719503857e-05)
(2.481533735e-05 1.283852622e-05 -2.591022337e-05)
(4.175319856e-05 -8.833610137e-06 -4.576555745e-05)
(5.02101443e-05 2.557445419e-07 -9.981761244e-05)
(6.086023363e-05 5.036078965e-07 -3.513593375e-05)
(5.065586845e-05 2.244551989e-06 -8.628509384e-06)
(5.710739913e-05 -2.068016909e-06 -2.691159766e-05)
(5.821268085e-05 -3.352629696e-07 -3.68593845e-06)
(8.655081543e-05 2.23731941e-05 -1.218740387e-05)
(6.984288381e-05 -2.801728126e-05 -7.494343834e-06)
(7.141408566e-05 -1.946526975e-06 -1.839626638e-05)
(0.0001002024284 -1.468466374e-06 -2.133008866e-05)
(9.789318366e-05 1.20365556e-05 -8.480101897e-06)
(9.972908105e-05 -1.013741274e-05 -1.860854216e-06)
(8.807684503e-05 -1.289524283e-05 -3.274363609e-05)
(9.255310646e-05 -2.702620311e-06 -2.834985337e-06)
(0.0001256914837 -1.313728188e-05 -8.254292858e-06)
(0.0001430188767 2.256728965e-05 -2.14748619e-05)
(0.0001194567993 1.185534323e-05 1.549854091e-05)
(0.0001331676964 5.635196554e-05 1.932840239e-05)
(0.0001536111071 4.998592474e-05 7.968573145e-06)
(4.066070861e-06 9.908002156e-06 -2.95971156e-05)
(4.42697704e-05 2.132141331e-05 -4.661343099e-05)
(5.206483394e-05 -2.344831021e-05 -3.198320403e-05)
(7.470418455e-05 -1.59625476e-05 6.97990306e-06)
(8.555950399e-05 7.724805424e-06 -2.097730452e-05)
(5.971835921e-05 6.670191966e-07 1.289413877e-05)
(7.25529233e-05 -1.421745312e-05 -1.527287369e-05)
(8.806048719e-05 1.024388946e-05 -2.356410002e-05)
(0.0001095208909 -2.441620514e-05 -1.764635138e-05)
(0.0001052690753 1.583958813e-05 2.149074687e-05)
(4.945209742e-05 -8.859053849e-09 -3.154376791e-05)
(5.722456458e-05 1.413125923e-05 -2.44956686e-06)
(5.982334659e-05 -2.342136774e-05 -7.814298268e-06)
(0.0001038276596 -1.585066884e-05 -1.49634934e-05)
(0.0001044509184 -1.052279381e-05 -3.193890892e-05)
(0.0001001589725 -2.542908754e-05 -4.486225898e-06)
(0.0001199163946 -1.211256366e-07 6.815133428e-06)
(0.0001297970201 3.651934591e-05 6.180947119e-05)
(0.0001214417013 1.477890158e-05 -2.171199746e-06)
(0.0001415573572 4.915874762e-05 1.821964449e-05)
(2.36031124e-05 -8.078730967e-06 -1.037039257e-05)
(5.123789315e-05 -1.693242036e-05 -1.399941382e-05)
(9.0395182e-05 -3.34932556e-05 -3.579012742e-05)
(9.120594838e-05 -8.761475458e-06 -4.616982589e-05)
(9.065760776e-05 -6.948708518e-06 -2.900302001e-05)
(0.0001155351975 2.143961888e-05 -1.678471541e-06)
(8.211159414e-05 -1.93919123e-05 -3.942643801e-05)
(9.726808518e-05 -2.202346606e-05 -5.172333196e-05)
(8.655689255e-05 -7.458192612e-06 -8.955471936e-06)
(6.11310671e-05 3.389588605e-05 -8.388843816e-06)
(6.845625077e-05 2.913173034e-05 -1.603450302e-05)
(7.658060947e-05 -7.493855699e-06 -1.155732436e-05)
(8.890627671e-05 -1.529668211e-05 4.068216449e-05)
(7.672517297e-05 -4.183131304e-05 1.767287941e-05)
(7.791105869e-05 -2.111175935e-05 1.472055059e-05)
(8.198741461e-05 -1.346603271e-05 3.672054926e-05)
(8.251516259e-05 -1.604471554e-05 5.277337561e-05)
(9.081247236e-05 3.543896147e-05 2.870625447e-05)
(0.0001099660541 9.712047375e-06 4.557656668e-05)
(0.0001124687034 4.871696859e-05 3.994682332e-05)
(1.921991914e-05 -1.256671069e-05 -7.110509599e-06)
(6.849980587e-05 -4.198536153e-05 1.204725332e-05)
(5.142532996e-05 -2.822071227e-05 4.135105255e-06)
(4.97744138e-05 -9.843693816e-06 -2.193093875e-05)
(6.202746187e-05 -7.740545386e-06 -2.543741855e-05)
(4.932791904e-05 4.321525939e-06 -5.65007694e-06)
(6.559215347e-05 2.701689489e-06 -3.902190905e-06)
(6.416417408e-05 -3.911161803e-05 -6.64332207e-06)
(7.759124675e-05 1.082656551e-05 6.291244015e-06)
(7.505477229e-05 2.021089048e-05 -8.600912906e-06)
(0.0001003487754 1.744298438e-05 -4.709379178e-06)
(8.115521113e-05 1.155991646e-05 -1.736343107e-05)
(5.744609303e-05 -1.561232583e-05 1.469473404e-05)
(6.172192026e-05 -3.459667827e-05 -3.760795322e-05)
(9.666930989e-05 -3.283349259e-05 6.996553502e-06)
(0.0001080522594 -2.815326922e-05 5.461763076e-06)
(9.82509134e-05 -1.157046448e-05 3.530643069e-05)
(9.717979277e-05 2.453569911e-05 3.890821554e-05)
(0.0001032027902 4.852554613e-06 2.691999598e-05)
(0.0001147438394 3.957254384e-05 4.248528148e-05)
(2.811851764e-05 -3.531901012e-05 -1.885799631e-05)
(4.423358124e-05 -1.827567064e-05 3.946268851e-05)
(5.438468419e-05 -2.346240724e-05 -8.313324323e-06)
(3.328040408e-05 -2.453271763e-05 1.849794661e-05)
(4.013718853e-05 -2.807635812e-06 -3.417712566e-05)
(4.892119993e-05 3.901746973e-06 -7.18240198e-06)
(5.64918443e-05 -5.210678526e-06 3.747519395e-05)
(2.588019497e-05 -2.372593954e-05 1.586303889e-05)
(3.675199298e-05 -8.070930637e-06 1.843697915e-05)
(7.569309208e-05 4.611795846e-06 -2.379807929e-06)
(8.421131586e-05 2.413444102e-06 1.537806733e-05)
(9.256175449e-05 2.241060522e-05 -1.807917312e-06)
(0.0001029897799 -4.534297499e-06 8.106122225e-06)
(6.80057338e-05 -4.630258348e-05 2.491102975e-05)
(5.622685384e-05 -4.319640299e-05 3.422591556e-05)
(8.030392511e-05 -2.689617103e-05 1.882979257e-05)
(6.316155157e-05 2.023353688e-06 4.728147582e-05)
(8.703640156e-05 -4.342626458e-06 5.317770101e-05)
(0.0001164994846 1.473654726e-05 5.12325926e-05)
(0.0001184615493 1.704351376e-05 1.90611485e-05)
(3.083957306e-05 -1.485407985e-05 4.488953961e-07)
(5.032697134e-05 -4.231334988e-05 6.804033204e-06)
(5.812118065e-05 -1.878279583e-05 -2.192603979e-05)
(5.420619607e-05 -1.583428501e-05 -6.080291881e-06)
(3.909255483e-05 7.117258754e-06 -2.178882834e-05)
(4.45997038e-05 -2.160701223e-06 -1.349076642e-05)
(5.38080967e-05 9.561816964e-07 2.029209876e-05)
(6.771215469e-05 2.502882078e-06 3.235384393e-05)
(4.566670996e-05 -2.621073838e-05 -1.122424912e-06)
(4.538307382e-05 -3.013870599e-05 2.379711339e-05)
(7.682612714e-05 4.57294907e-06 -9.908735537e-06)
(7.55917887e-05 -6.654255901e-06 3.248098004e-06)
(9.699934632e-05 6.403371221e-06 -2.554184683e-05)
(9.566690412e-05 -9.146444462e-06 1.068716035e-05)
(6.2462643e-05 -3.065843098e-05 -2.228121468e-05)
(3.504876283e-05 -3.72229009e-05 1.52574905e-06)
(6.082194343e-05 -5.04970673e-06 5.756120003e-06)
(7.673613599e-05 -4.344856932e-05 6.167070946e-05)
(0.0001052199832 1.456090143e-06 6.104342977e-05)
(0.0001010433964 1.634139893e-05 2.181105504e-05)
(7.657407222e-06 -7.729510108e-06 -1.492764085e-05)
(3.106689453e-05 -2.947813669e-05 8.318914633e-06)
(1.870401609e-05 -1.243517731e-05 1.468792341e-05)
(2.99148866e-05 -2.040149201e-05 1.397829578e-05)
(6.052669194e-05 -1.587405965e-05 -2.354777548e-05)
(7.718094335e-05 2.499131779e-06 -1.254142176e-05)
(5.629484792e-05 -2.165777698e-05 8.144196405e-06)
(4.998289699e-05 1.234138446e-05 1.147420852e-05)
(6.154225815e-05 -1.118903672e-05 1.437669983e-06)
(5.922326284e-05 -3.526688121e-05 3.992741878e-06)
(5.289724384e-05 -1.989768409e-05 -1.53493859e-05)
(8.967106161e-05 -1.240041186e-05 2.738820228e-05)
(7.115514651e-05 1.195732352e-05 -2.649472936e-05)
(9.148603334e-05 -2.136667565e-05 -1.278660832e-05)
(9.448840618e-05 -3.25045228e-06 1.757571004e-05)
(7.294860847e-05 -3.344827844e-05 2.199908887e-05)
(7.644640114e-05 -2.258204264e-05 -2.11847173e-06)
(8.412177419e-05 -3.268696948e-05 2.957618392e-05)
(5.678547184e-05 9.088168062e-07 3.656389086e-05)
(6.644400465e-05 2.937265376e-06 -8.29482315e-07)
(1.275491533e-06 -2.296688529e-05 2.805289877e-05)
(2.41065499e-05 -2.133230301e-05 1.363937028e-05)
(4.044817107e-05 -3.665703537e-05 5.13747342e-05)
(6.014406951e-05 -1.711391308e-05 5.018829421e-05)
(2.483231381e-05 -3.88251771e-05 2.015018961e-05)
(3.37060157e-05 -5.13942145e-06 4.398820291e-05)
(4.957895917e-05 5.642823312e-06 3.437078841e-05)
(5.744879168e-05 -1.425039247e-05 5.447787658e-05)
(5.764445044e-05 -1.657909621e-05 9.667757904e-07)
(7.140421042e-05 -2.909684579e-05 -4.055064678e-05)
(7.571139652e-05 -3.429805151e-05 -3.622734356e-05)
(7.0938094e-05 2.415386006e-06 3.199578145e-06)
(7.141384202e-05 -2.42422041e-06 -5.307934603e-05)
(8.128526506e-05 -3.134469807e-05 -2.984257879e-05)
(8.203651378e-05 8.384183675e-06 9.679880719e-06)
(7.460577377e-05 -1.004917464e-05 7.258212316e-06)
(6.125425171e-05 -2.382281185e-05 -1.085124022e-05)
(5.434212051e-05 -4.606852446e-05 -1.570723039e-05)
(6.769975697e-05 -1.011635916e-05 -3.881391444e-05)
(6.543392911e-05 1.372548281e-05 -1.153199967e-05)
(3.384936782e-05 -7.322037476e-06 3.822917524e-05)
(6.213366462e-05 -1.402602236e-05 1.071949303e-05)
(3.991485722e-05 -4.431322531e-05 1.612419987e-05)
(1.75562013e-05 -9.018996461e-06 -1.208632567e-05)
(3.763046571e-05 -1.867889025e-05 8.073558564e-08)
(3.996714905e-05 -2.471943652e-05 1.776351355e-05)
(3.75906846e-05 5.018110451e-06 -4.099288851e-06)
(3.261315552e-05 -1.831366423e-05 4.883076646e-07)
(3.710797402e-05 -2.135670253e-05 -1.237838968e-05)
(3.645311366e-05 -3.44695692e-05 -5.616361737e-06)
(5.641733981e-05 -2.546760507e-05 -1.707065531e-05)
(5.419366084e-05 -2.775314621e-05 6.650951254e-06)
(6.940239137e-05 4.802099069e-06 -3.227863894e-05)
(6.528701547e-05 -3.421480634e-05 -2.443172314e-05)
(7.996287334e-05 -2.062643085e-06 -2.931163442e-05)
(9.230292134e-05 -4.855377473e-06 -3.400863881e-06)
(8.352123866e-05 -1.036626768e-05 1.243352718e-05)
(7.624875218e-05 -4.069406416e-05 1.319460805e-05)
(6.646884723e-05 -4.960285773e-06 6.111087834e-07)
(7.188276055e-05 1.521526394e-05 3.585799941e-05)
(3.459075244e-05 -2.624378709e-06 2.596270505e-05)
(6.194225375e-05 -2.629903952e-05 1.306977094e-05)
(4.294450388e-05 -8.79110202e-06 3.626627884e-05)
(3.390653881e-05 4.876632544e-06 1.208234587e-05)
(3.072696987e-05 -5.234869578e-05 -1.099124047e-05)
(4.81475659e-05 -1.714160814e-05 2.345614053e-06)
(6.280737259e-05 -7.81954784e-06 1.035033382e-05)
(7.170032344e-05 -2.173647604e-05 1.065192006e-05)
(6.772237802e-05 -1.268140795e-05 2.738481272e-05)
(8.349103735e-05 -4.149265262e-05 -2.436694837e-05)
(6.336713591e-05 -3.379834332e-05 -2.964270687e-05)
(8.149888205e-05 -2.339604487e-05 -1.652229982e-05)
(6.523704541e-05 -1.548747247e-05 -1.58205979e-06)
(8.199257745e-05 -3.550725703e-05 -1.268558041e-05)
(7.325989729e-05 -1.880706408e-06 -8.427119947e-07)
(5.332967379e-05 9.666686903e-06 -1.7145214e-05)
(6.941236952e-05 -2.934262027e-05 -4.118781489e-05)
(7.610894129e-05 -3.128015211e-05 1.888705642e-05)
(6.866725e-05 -7.928169922e-06 1.2162747e-05)
(8.388250191e-05 1.22022621e-05 2.824567655e-05)
(1.18593429e-05 -2.374331166e-05 2.600744956e-05)