/*--------------------------------*- C++ -*----------------------------------*\
  =========                 |
  \\      /  F ield         | OpenFOAM: The Open Source CFD Toolbox
   \\    /   O peration     | Website:  https://openfoam.org
    \\  /    A nd           | Version:  7
     \\/     M anipulation  |
\*---------------------------------------------------------------------------*/
FoamFile
{
    version     2.0;
    format      ascii;
    class       volScalarField;
    location    "0.01";
    object      p;
}
// * * * * * * * * * * * * * * * * * * * * * * * * * * * * * * * * * * * * * //

dimensions      [1 -1 -2 0 0 0 0];

internalField   nonuniform List<scalar> 
2400
(
0.379708686
0.3923263913
0.4074867366
0.4014452161
0.3994471708
0.398413997
0.4026456809
0.4005267725
0.408534147
0.4045756726
0.4003569203
0.4107802009
0.4130219438
0.4167975996
0.4072992898
0.4056220608
0.4125290492
0.4146257533
0.4233708289
0.4235277106
0.3968929605
0.4053969992
0.4039769603
0.4055035306
0.3949597317
0.4106409889
0.4150178891
0.4188676238
0.4097363803
0.4151518241
0.4152060732
0.4143530522
0.4270290686
0.4283789887
0.4389394541
0.4245528061
0.4296922333
0.4285070764
0.4360689353
0.4358747695
0.390746303
0.4058353188
0.4123085119
0.4128960651
0.4032233605
0.4084004927
0.4013065433
0.413724865
0.4114908641
0.414540762
0.4252446533
0.4185186329
0.4199071792
0.4241730875
0.4313880413
0.4261800313
0.4187382217
0.4300500137
0.4297849407
0.4510487229
0.3989696097
0.4031312329
0.4075417938
0.4107523665
0.3910436803
0.4011549421
0.4136368265
0.4114740702
0.4151250904
0.412916239
0.4187909405
0.4177038634
0.4282128318
0.4376522463
0.4315031652
0.4327787942
0.4168231898
0.4379032215
0.4432459879
0.4496175874
0.3849786679
0.396052722
0.4057128267
0.4021887082
0.4065370551
0.3992822226
0.4132137697
0.4169383165
0.4243238573
0.4193685863
0.4135425021
0.4173501157
0.4278533337
0.4418973065
0.439524637
0.4181170121
0.4337939843
0.4456946434
0.4465703144
0.4545848292
0.3851016212
0.4014041655
0.4013273812
0.404405066
0.4061903105
0.3909757343
0.4119491162
0.4197040851
0.4090183794
0.4196810081
0.4156720466
0.4238119548
0.4234276131
0.4349639941
0.4213391757
0.4314677931
0.4207971032
0.4395401791
0.4473943048
0.4449530491
0.3976121862
0.4135035147
0.4120133934
0.40987759
0.4080413075
0.4030932268
0.4021068656
0.4026018698
0.4160900922
0.4250881682
0.4293914467
0.419437275
0.4259430056
0.427461198
0.4237586633
0.4201754915
0.4343530401
0.4378025282
0.4375461992
0.443304001
0.3937714064
0.4054489064
0.4076343967
0.4009717539
0.4005179365
0.4177366476
0.4030726811
0.4097082794
0.4201854104
0.4217641427
0.4261603965
0.4394317476
0.4383392473
0.4383099435
0.4343776657
0.4368968439
0.4418451518
0.4429224214
0.4355671943
0.4419131696
0.3963152967
0.405049545
0.4041199687
0.4044690612
0.403598852
0.4046571111
0.4122251514
0.4083178674
0.4081807017
0.4208481764
0.4280912948
0.4315366827
0.4301885057
0.4340166902
0.4299479171
0.4359899231
0.4346918392
0.4400052911
0.4268653231
0.4349807999
0.3996180334
0.4004751406
0.39037941
0.400737714
0.4054329358
0.4082202431
0.4128199592
0.4124324208
0.4150827008
0.4140845872
0.4198040465
0.4400820186
0.4266220972
0.4369057736
0.4335661972
0.4265572486
0.4277388805
0.4360553368
0.4292235459
0.4387462085
0.4000686927
0.4041331334
0.3986167853
0.4027904608
0.4059907844
0.4152154706
0.403116608
0.418281636
0.4121080911
0.4162817301
0.4156368884
0.427011321
0.4272867683
0.4264083423
0.437300143
0.4278662473
0.4409032752
0.4382752464
0.4320304539
0.4307143617
0.3930752826
0.3951078105
0.3925847626
0.4114840133
0.395924583
0.4017845356
0.4210797441
0.420619387
0.4279477702
0.4264326411
0.4136586745
0.425238602
0.4236291187
0.4281494672
0.4279247236
0.4377341484
0.4336444387
0.4255956699
0.4376108652
0.4386095316
0.3865408762
0.3948719757
0.4051381356
0.4019329731
0.3954633851
0.4162106465
0.4106508698
0.4196056055
0.4225776818
0.4149118156
0.424349304
0.4255185177
0.4185007987
0.431451999
0.4419085104
0.4356563404
0.4548407054
0.4425467363
0.4498061011
0.4557133232
0.383303001
0.398858723
0.3925542914
0.4121517017
0.4046750858
0.4132378067
0.4135377195
0.4181972156
0.4133111941
0.4194620785
0.4246876373
0.4349734613
0.4317494199
0.4302156755
0.4455609469
0.4476731976
0.440843809
0.443931191
0.4448387698
0.451210122
0.3887846947
0.4029371464
0.4128024351
0.4066559835
0.4111905639
0.4129102463
0.4093877889
0.4130999397
0.4158722142
0.4113681107
0.4229937921
0.4237835942
0.4231622233
0.4168955414
0.4211375259
0.4317402121
0.4392683428
0.442360538
0.4471941126
0.4408761833
0.3993352514
0.4055504447
0.4012011967
0.4131408343
0.4099988827
0.4076477338
0.4022568219
0.4168638661
0.4229556771
0.4124241341
0.4105338856
0.4282862714
0.4309665627
0.42515846
0.4245442434
0.4309892287
0.4391743603
0.4372252747
0.4426821174
0.4517164863
0.4003286991
0.4014287549
0.4002429338
0.4105169659
0.4071679171
0.4108032129
0.4062655473
0.4186424769
0.4210564419
0.4212496154
0.4247124666
0.4409201897
0.4254413019
0.4345625496
0.4197095086
0.4321596814
0.4477235676
0.4496820298
0.4432406557
0.4490274668
0.3887607746
0.4049971456
0.4067371291
0.4271235603
0.4129068037
0.4106305076
0.4086351607
0.4235884298
0.4201945566
0.4164879949
0.4167032837
0.4343768755
0.4278695706
0.4349134398
0.4390333713
0.4303157678
0.4424872948
0.4402064715
0.433367007
0.4330319071
0.3963387418
0.4102965503
0.400828792
0.4172314749
0.3967505624
0.4094267805
0.4135441448
0.4255750777
0.4396495553
0.4326399513
0.4165742256
0.4190839601
0.432909928
0.4224087732
0.4344808058
0.4398798328
0.4326064883
0.4354225105
0.4371720981
0.4447511946
0.3896465296
0.4052275933
0.4049370185
0.4121295902
0.4026285328
0.410013821
0.4245627671
0.4212398199
0.4256865348
0.4238942145
0.4257958678
0.4152463443
0.4218486062
0.4296667108
0.4369160767
0.4369038733
0.4350758221
0.4247864113
0.4240661434
0.4385787754
0.3928565754
0.3994062121
0.4084944239
0.4069566091
0.4162809769
0.4051267209
0.409150295
0.4174044396
0.4175170494
0.4160076115
0.4209967531
0.4297700531
0.4428122097
0.4315540003
0.4492013651
0.4362647475
0.4473495549
0.4467979252
0.4362164602
0.4413178369
0.4126010403
0.4091939225
0.4059369524
0.402517698
0.412059565
0.4047058627
0.4094063285
0.4186082194
0.4251459072
0.4304632994
0.4258290423
0.4193712172
0.4278081015
0.4375341459
0.4411969232
0.4239151677
0.4425883423
0.4453817018
0.4505772544
0.4467792556
0.4075878864
0.4134656966
0.4124076474
0.4101932378
0.4078200962
0.3962236371
0.4138569923
0.4133234473
0.4257959727
0.4291626735
0.4221689668
0.4245779593
0.4206592127
0.4259348903
0.4392307217
0.4384725755
0.4384254331
0.4578766328
0.4505638411
0.4506451071
0.3977498575
0.4065293411
0.4152861493
0.4120901592
0.4151931912
0.4095291762
0.4133891187
0.4168088669
0.414201762
0.4203802861
0.4322038359
0.4350706717
0.4247744467
0.4385774734
0.4414726285
0.43087186
0.4442839769
0.4453112744
0.4460667641
0.4449205998
0.401829549
0.4102848263
0.4037077107
0.4012188745
0.4091391573
0.4116962809
0.4163997843
0.4088591809
0.414726046
0.419138481
0.4115811252
0.4236882053
0.4278117285
0.429176428
0.4246870035
0.4276965845
0.4301181882
0.449765981
0.4554550708
0.4382404772
0.4080177152
0.4114585784
0.4007567674
0.4037124672
0.402591515
0.4080859325
0.4169470778
0.4029158503
0.4083698734
0.4225719707
0.4133690785
0.4239775169
0.4317360246
0.4319537008
0.430926952
0.4412848292
0.4362014371
0.4515440741
0.4447194998
0.4541964297
0.4049255194
0.4062709334
0.4014499642
0.4173340692
0.4119936626
0.4162748369
0.4281777008
0.4343800499
0.4255960442
0.4154710936
0.422339618
0.4188369962
0.4191096006
0.4311883878
0.4301769784
0.4287335385
0.4315005349
0.446879065
0.4532155769
0.439774114
0.3863700172
0.3992750645
0.4052090777
0.4162965469
0.4118950409
0.4099429845
0.4219875779
0.419531931
0.4168566399
0.4229642554
0.4257595139
0.4294654553
0.4222841519
0.4293385516
0.4297239702
0.4319189163
0.4397771505
0.4385706578
0.4421713646
0.4430121243
0.3955556464
0.407423829
0.4066083324
0.4079419759
0.404398253
0.4258419946
0.4218715631
0.4157359587
0.4183979257
0.4248121706
0.4153297216
0.4281237323
0.4279709378
0.4268349294
0.4366109261
0.441948451
0.4471234123
0.448390033
0.4459237811
0.4438800159
0.3943886373
0.4080212935
0.4010944252
0.3972109347
0.4095004205
0.4140736541
0.4104606726
0.4171370401
0.4242621433
0.4203540417
0.4326915532
0.4239169017
0.4219727386
0.4353931271
0.4306991355
0.4479038541
0.4461244518
0.4400408735
0.4494647977
0.4433377302
0.3979867312
0.4000420696
0.4117177847
0.4075644382
0.4120937414
0.414149608
0.409471949
0.4130006227
0.4139270512
0.423835535
0.4293787067
0.4421846342
0.4391857986
0.4405361622
0.4355410902
0.4377977217
0.4362707802
0.4378757995
0.4428036987
0.4447644342
0.3944954085
0.4090698214
0.4211550253
0.4124094261
0.4224079022
0.4299610113
0.4204026852
0.4202560575
0.4150146277
0.4186344806
0.4232272864
0.4234901789
0.4306056703
0.4447054385
0.4351582862
0.4272108083
0.4297819641
0.439608879
0.4339823374
0.4317044358
0.4039984437
0.4196873448
0.4108386891
0.4182745399
0.414241535
0.406984226
0.4064275737
0.407794661
0.4149836635
0.4253283622
0.4167393667
0.426472963
0.4388739957
0.4288410959
0.4347265089
0.4296160278
0.4331091827
0.4450218259
0.439365615
0.4476129461
0.3843362435
0.4050393475
0.4101122276
0.4144048009
0.4068735498
0.411989737
0.4163022485
0.4128759339
0.409900667
0.4233812516
0.4242366356
0.4192661312
0.4248226361
0.4352955433
0.4225642013
0.4206898965
0.4212754151
0.4410752034
0.4302418407
0.4319800997
0.3879813617
0.4116296711
0.4131893466
0.4089948013
0.4071991127
0.4091554206
0.4182956592
0.4236650684
0.4088648818
0.4291421801
0.4274098465
0.428394721
0.4358255327
0.4336068636
0.4260310858
0.4287094951
0.4378099713
0.4482241856
0.4446419376
0.450217045
0.4004065247
0.403842817
0.4093150952
0.4073058054
0.4142581994
0.410679442
0.4066154677
0.4055171621
0.4187777526
0.429428913
0.4272001196
0.4202612141
0.4387419932
0.4364385042
0.4348375025
0.4392070075
0.449119041
0.4375410499
0.4422811824
0.4396937437
0.3956799626
0.4021071172
0.4129948705
0.4112961629
0.42414155
0.4153296832
0.4127646382
0.4122373773
0.4225383303
0.4398233194
0.4309649221
0.4251877403
0.4370887207
0.442196617
0.4386239831
0.4316544012
0.4367694784
0.4426616366
0.4422996219
0.4455038078
0.3961527216
0.4136015206
0.4143735524
0.3977357238
0.4209858737
0.4219277278
0.4155863416
0.420736027
0.4217068092
0.4324817248
0.4268920811
0.4287876671
0.4352605009
0.4305561627
0.4472299895
0.4331631906
0.4377737441
0.4431064036
0.441659005
0.4385333963
0.3990379201
0.4215572009
0.4156328614
0.4072800537
0.4071175537
0.4172809126
0.4203273106
0.4146126992
0.4255293102
0.4177473781
0.4242169087
0.4269738209
0.4364608683
0.4321923012
0.4232307442
0.4333422914
0.4331719664
0.4309209245
0.4460166382
0.4501762924
0.3974757858
0.4109740917
0.4083869829
0.4062886102
0.400365107
0.4059448856
0.3979698921
0.4122457378
0.4155229076
0.4278420875
0.4243124926
0.4151514848
0.4181991085
0.413410239
0.419305431
0.4121844612
0.4088722065
0.4093181593
0.415785409
0.4207244286
0.45269428
0.4543444824
0.4703632619
0.4800645715
0.4643024953
0.4663711069
0.4601808282
0.4546203491
0.4573809604
0.4650649002
0.4572816305
0.4788248301
0.4886468491
0.4877326887
0.4825509425
0.484000143
0.4875719332
0.4874244615
0.4768145198
0.4697377729
0.4803826954
0.4799810398
0.4787805337
0.4987496833
0.4995540751
0.4882052463
0.5062310112
0.4988569588
0.5028235506
0.5191249571
0.5132002665
0.5104282279
0.5066169316
0.5060128688
0.5294923248
0.5182477252
0.5353398237
0.5594897593
0.5293998694
0.5263722205
0.4372344898
0.4502224605
0.4650851617
0.4791743497
0.4685170538
0.4672139796
0.4745822232
0.4667540693
0.4828421962
0.4761156089
0.484087013
0.4822138979
0.5083858486
0.4889566321
0.4809731888
0.4762292835
0.476844825
0.4917908453
0.5030251056
0.4907601317
0.4979092817
0.4998521774
0.4912214988
0.5046250962
0.5156784404
0.508178718
0.5191658831
0.5176893929
0.5095106864
0.5148853689
0.5156754259
0.5243477233
0.5306949393
0.5461790715
0.5395677596
0.5539496252
0.5577386378
0.547987863
0.5477403229
0.5461713391
0.4486606395
0.4457182669
0.4717466674
0.4826994957
0.480433433
0.4785821156
0.4579529174
0.4807262076
0.4865978132
0.4865066882
0.4905105213
0.4921999897
0.5034765243
0.4984104203
0.5073690336
0.4871011309
0.5069889077
0.5213675833
0.5169265783
0.5195780501
0.5116121277
0.5148665298
0.5266258588
0.517199982
0.5204541429
0.5191585354
0.5373714362
0.5349280419
0.5365564783
0.5133605492
0.5386507612
0.5331954055
0.5456440257
0.5392413645
0.5382813567
0.5551562661
0.546512948
0.5555243963
0.5570041771
0.5336923284
0.4606486595
0.4605371024
0.4649875825
0.4628727426
0.4653585549
0.4731590193
0.4783674793
0.4900920926
0.4884142566
0.4940120334
0.5090822932
0.4980628751
0.5132037835
0.5101161648
0.5049001853
0.5022965826
0.5139792006
0.512840765
0.5092995525
0.5148802519
0.5194117186
0.5210706511
0.5212580401
0.5428513991
0.5442069278
0.551295175
0.5507075906
0.5438120356
0.5518274201
0.5396989462
0.53456009
0.5392461806
0.5454810354
0.5490402742
0.5564911349
0.570335738
0.5748724516
0.5745451055
0.5755319347
0.554307595
0.4490542832
0.4548639724
0.4658934281
0.4639601814
0.467743264
0.473980692
0.471600067
0.4750735022
0.4868624167
0.4844789185
0.4941183558
0.4792361476
0.4841634786
0.4838620351
0.5011657381
0.5033715628
0.5087255732
0.5116259802
0.5084866635
0.5112407727
0.5199484404
0.5451373832
0.5408979576
0.5210067424
0.5391201333
0.5391030137
0.5431939437
0.5439318467
0.5450346361
0.5260216142
0.5426054174
0.5398128646
0.5583148527
0.5631720146
0.5681048603
0.5640869171
0.5671806197
0.5653291803
0.570460106
0.5728642212
0.4496268752
0.4588371431
0.4594240718
0.4635379003
0.4551121042
0.4517281805
0.4708390348
0.4726071624
0.4683380076
0.4687869078
0.4794917675
0.4831365163
0.4800746381
0.5033422986
0.5024282109
0.5072686158
0.5014090996
0.5035743308
0.5187588937
0.5261181392
0.5352419748
0.5127024089
0.5272385626
0.5318866712
0.5353338175
0.54941904
0.543690631
0.540668793
0.5391938422
0.5381980503
0.5381583108
0.5374261045
0.5639248518
0.5570064348
0.5728215529
0.5600401016
0.5754848731
0.5669565864
0.5646677477
0.5574274316
0.448135356
0.4416570698
0.4305718503
0.4506330973
0.4658599069
0.4728358548
0.473946419
0.4598781318
0.4713977501
0.4644672477
0.471514608
0.4885252955
0.4850062539
0.4962481324
0.4903653902
0.4984774498
0.509597494
0.5042309518
0.5227903538
0.522163798
0.549797484
0.5344005764
0.5251976549
0.5317816533
0.5527180496
0.5584276806
0.5592665162
0.5610746801
0.5548237342
0.5471261309
0.5446168592
0.5486766216
0.5605515907
0.5614450871
0.5760162828
0.5695032894
0.5689362179
0.5723857582
0.58136365
0.5945826065
0.4565756143
0.4478252917
0.4504183808
0.442247227
0.4468045428
0.4579168422
0.4615181264
0.4696805243
0.4695506751
0.4526508922
0.4677940633
0.493359564
0.4920913337
0.4951275757
0.4945533813
0.5099051437
0.5122076746
0.5004558235
0.5284401645
0.5325474222
0.5330938282
0.5288150989
0.5150858565
0.5244896256
0.5497359756
0.545372608
0.5437106281
0.5381082274
0.5604266065
0.5436218081
0.5487399914
0.5731983747
0.5652039308
0.5650890209
0.5642380944
0.5649684975
0.5606766015
0.570028463
0.5723963195
0.5860899423
0.4393434499
0.4485223196
0.4391333507
0.4523862526
0.4582303966
0.4607080064
0.4564413309
0.4547695742
0.4871773424
0.4765108063
0.4658771299
0.482597562
0.4942508823
0.5025999285
0.4964169238
0.500853828
0.5161953762
0.5034996785
0.5044661206
0.5310405653
0.522300131
0.5374639501
0.532440902
0.5215786883
0.5340751531
0.5437953256
0.5409290001
0.5481133497
0.5499409475
0.5562615789
0.5377983061
0.5459723137
0.5740178122
0.5933398766
0.5791729676
0.559114989
0.5759993296
0.5938560663
0.5916845141
0.5982736467
0.4404312564
0.4397335341
0.4507653907
0.4530006013
0.4509411314
0.4572350089
0.4669722927
0.4707231283
0.4729611247
0.4812524611
0.4863083664
0.4905327615
0.4811263586
0.5012446064
0.5022514026
0.498795696
0.49259546
0.4907008684
0.5006675388
0.5099339587
0.52314649
0.5321757622
0.5217587096
0.5305197326
0.5437717637
0.5405162857
0.5372058181
0.5353252816
0.5429743476
0.5420181326
0.5632969306
0.5653573353
0.584258613
0.5834057158
0.5845992939
0.5896237018
0.572861579
0.6008878554
0.5918258042
0.5854288152
0.444136836
0.4401031308
0.441569097
0.4567741813
0.4639804307
0.4631931106
0.4753417483
0.4688427557
0.470556641
0.4553107045
0.4744033896
0.4732507767
0.4866458484
0.4850147166
0.4866965189
0.4875824155
0.4850146251
0.4936183412
0.4965912578
0.5062293032
0.5143038055
0.5312698775
0.5224013331
0.5048714858
0.53473048
0.5378662217
0.5435034872
0.542249027
0.5419559841
0.5323741137
0.5400975247
0.559237648
0.5578582339
0.5659271775
0.5670199629
0.5679701112
0.5928277847
0.5891461307
0.6059666645
0.617122662
0.4365113746
0.4481957522
0.4658369422
0.462177716
0.4602427069
0.4696842468
0.4665834593
0.4619510069
0.4687644345
0.4622779816
0.4676528725
0.4801622761
0.475873819
0.4677814316
0.4924628432
0.4828511806
0.4968638854
0.4889577508
0.4860552227
0.5027242952
0.4950374041
0.5174263216
0.5105205386
0.5030941467
0.5138207077
0.5257044615
0.5365894867
0.5303599878
0.5309845868
0.5394413206
0.540800368
0.537647352
0.5681075801
0.5747427849
0.5759359751
0.5794894683
0.5934846173
0.5746480791
0.6029285395
0.603954508
0.450809456
0.4538418969
0.4626633009
0.4602799852
0.4692770705
0.4682092771
0.4630543839
0.4599028567
0.4721692225
0.4697367876
0.468351137
0.4699029802
0.4739780063
0.4902198649
0.4926490379
0.49490739
0.4906061983
0.4944034376
0.47634362
0.4937933192
0.4980247083
0.5166463245
0.5010338555
0.5032247114
0.5262061598
0.5110872291
0.5372661788
0.5381124988
0.5265030498
0.5428109134
0.5511771218
0.561978809
0.5598384875
0.5645223921
0.5736508511
0.5773311782
0.5751413092
0.5878491217
0.596499923
0.5938260427
0.4569087483
0.4511888373
0.4463738776
0.4594518832
0.4585482015
0.4540653921
0.4550964609
0.4640109839
0.4606019311
0.461860417
0.4779929414
0.4651566159
0.4844822217
0.4798739111
0.4925160796
0.4856486464
0.4983031369
0.5066756309
0.5121266333
0.5089809919
0.5120100555
0.5017546402
0.5063611833
0.5068036225
0.5199677182
0.5258126275
0.5393321779
0.5450478432
0.5428963774
0.5562692977
0.5691236362
0.5549943038
0.5603237012
0.5526666442
0.5748077376
0.5623242086
0.5605821556
0.5682378259
0.5939121911
0.6052241892
0.4517235859
0.4432954421
0.4492211369
0.46032828
0.4559183942
0.4609914055
0.4697692117
0.4867270255
0.4631810565
0.4776393148
0.4936268814
0.4844875895
0.4754242498
0.4796926279
0.4883917932
0.4975344925
0.5047540377
0.5013155555
0.4944948057
0.4993977334
0.5036282815
0.5043867152
0.495836889
0.5066669752
0.5169205197
0.5244537286
0.5277774172
0.531510839
0.5314815832
0.5281892422
0.5461299375
0.5409215164
0.5400096514
0.5539943264
0.5541911546
0.5629591111
0.5625118917
0.5639668605
0.5871445183
0.5788488849
0.4472175181
0.4565415589
0.4616550017
0.4669158409
0.4611509607
0.4579999738
0.4718810681
0.4735710025
0.4545704539
0.466194237
0.4696981912
0.4717956175
0.4743446122
0.4783948709
0.4847995707
0.4865601687
0.5128341175
0.5101582823
0.506346921
0.5080712396
0.4932656536
0.5096915945
0.5110426172
0.5021968227
0.5052504961
0.5105575867
0.507981574
0.5222369875
0.5218609236
0.5316455103
0.5300839381
0.5506748956
0.5336269959
0.5332891079
0.562383424
0.5555329267
0.566183577
0.5682366345
0.5848463441
0.5810355852
0.4514926488
0.4658836834
0.4408526786
0.4534098349
0.444012208
0.4523007352
0.4674978773
0.4663157029
0.4775942966
0.4749386692
0.4810946641
0.484940124
0.4842187293
0.4851649676
0.4702542565
0.4716274698
0.488873948
0.4952877844
0.4866531486
0.4906163196
0.4943125713
0.5101345142
0.5058854095
0.4931487311
0.4989659918
0.5050515989
0.5083311134
0.5345535047
0.5464158932
0.5511904612
0.5287487678
0.5384736285
0.5424666051
0.5323441991
0.5589078457
0.5514606433
0.5318957784
0.5603976733
0.5753653953
0.5494184198
0.4472609157
0.4583123511
0.4515337487
0.4525483119
0.4500115148
0.4607124079
0.4654494936
0.4713874305
0.474698412
0.4744778056
0.4811310686
0.4836757115
0.4799394402
0.4797120369
0.4737544124
0.4807295367
0.4886481908
0.4875149568
0.4884933043
0.4986435035
0.4964270555
0.5065953357
0.5024060288
0.4926545029
0.4942121363
0.5080433414
0.5172980374
0.5233784937
0.5222156193
0.5261074106
0.5105661081
0.5408349555
0.5316479157
0.5265122927
0.5395037508
0.5531948162
0.5385313509
0.5589309176
0.5702298759
0.5749385564
0.4529361242
0.4565810013
0.4547603897
0.455294544
0.4571619792
0.472085366
0.4735084348
0.4649544656
0.4674112318
0.4604018937
0.4706655627
0.4820658192
0.481835783
0.4675283853
0.476662905
0.4794821596
0.4776572613
0.4849197652
0.4836908981
0.5009266325
0.5045824996
0.5054627937
0.5089886729
0.5164480282
0.5115154123
0.5094934922
0.5060982533
0.5171534905
0.5241108626
0.5383203674
0.5223364921
0.534843436
0.5428415633
0.5399782093
0.5463542625
0.5615430664
0.5637751855
0.5690625513
0.5796605628
0.5687389704
0.4564523894
0.4523539538
0.4464089341
0.45512783
0.456902864
0.4660902474
0.4601961947
0.4652340237
0.4611463326
0.4663725269
0.4753518359
0.476796344
0.4766788703
0.4753811669
0.4734036218
0.482893658
0.4793302733
0.4759569803
0.4873535323
0.4962250175
0.5021307817
0.5006128738
0.5041741053
0.5049351699
0.5086820926
0.5023587419
0.507714702
0.5252025442
0.5281353953
0.5159052076
0.5201887085
0.5168541681
0.5433044894
0.5423778097
0.5371180894
0.5382399787
0.5488259499
0.5480749055
0.5630620698
0.5662254227
0.4468873877
0.4349495398
0.4480206213
0.4446974472
0.4457891653
0.4503908915
0.4440354312
0.4721595327
0.4700998577
0.460994941
0.4620111796
0.4642599793
0.478676746
0.483315905
0.4935782359
0.4839953595
0.4859641952
0.4842338486
0.4874825068
0.4802619369
0.4917479626
0.5013430523
0.4885358578
0.4981084035
0.5060153483
0.5026367972
0.5086826656
0.5151581258
0.5082668668
0.508760815
0.5174317074
0.5318330117
0.5459870298
0.5463821757
0.5492627404
0.5398347234
0.5585183112
0.5784275525
0.5651183467
0.5564906104
0.4419911826
0.4364214634
0.4524618889
0.4548503808
0.4459550728
0.4525986799
0.4474104198
0.4626748988
0.4537746469
0.4643152623
0.46686011
0.4798109592
0.4705426865
0.4742835178
0.4775892514
0.488009517
0.4874678198
0.4858885085
0.4886385559
0.4950768418
0.4971379538
0.5047722043
0.5117635654
0.4977998701
0.5067664477
0.5138799319
0.507841237
0.5063188598
0.5059440179
0.510602935
0.5183928666
0.5305862331
0.5273126186
0.5334942951
0.5297881017
0.5402406325
0.5420656297
0.5385077443
0.5433234739
0.5581689909
0.4412477237
0.4476528882
0.4470503265
0.4610556244
0.4577141585
0.4588264235
0.44319221
0.4556230125
0.4669496847
0.4728910819
0.4797003785
0.4802625366
0.4738726352
0.4753822894
0.4698232346
0.4787212395
0.4857710503
0.4890870688
0.4856733878
0.4924499848
0.4926543546
0.4923031252
0.4964127269
0.5080321919
0.5130572386
0.5100494662
0.5100980111
0.5202794136
0.5173853846
0.509667905
0.5299527922
0.5302641402
0.5335250653
0.5306698933
0.5392624754
0.5393618634
0.549835569
0.5435545452
0.5442736192
0.5698929734
0.4447996512
0.4536310969
0.4517115275
0.4475715844
0.4653454237
0.4564507431
0.4626805002
0.4644559405
0.4621306494
0.461080154
0.4743750194
0.4761025242
0.4671862789
0.4758651146
0.480423687
0.4775780967
0.4850555934
0.4864493693
0.4806528983
0.5005555119
0.4992492894
0.5102074826
0.5155948668
0.5172259476
0.5073611665
0.5085552322
0.5126765395
0.5129183789
0.5178611477
0.5312343844
0.5485000986
0.543685022
0.54549079
0.5329550394
0.5512649584
0.5505484102
0.5540047643
0.5688605166
0.561520628
0.5707388148
0.4565316097
0.4508061994
0.4522261629
0.4565796727
0.4570800165
0.4646514933
0.4595240151
0.4667657493
0.4717183679
0.4673665053
0.4576065037
0.4836275452
0.4761295364
0.4750597246
0.4742706794
0.4751371503
0.4946911768
0.4940755165
0.4891706345
0.4890377933
0.4872438652
0.5022814329
0.5002318939
0.4986094785
0.4986967391
0.4926888615
0.516122526
0.5417023757
0.528586078
0.5274086938
0.5268772373
0.5190928112
0.5308982909
0.5410549621
0.5387505734
0.5322699236
0.543852145
0.5521238998
0.5672650759
0.5812490924
0.4604809198
0.4469015351
0.4499226497
0.4510466916
0.4593890899
0.452599382
0.4629405814
0.4642830185
0.4606864965
0.4617073639
0.457557915
0.4774657472
0.4768702848
0.4815027979
0.4792989844
0.4672590183
0.4854670075
0.4879496887
0.4932436118
0.5060326997
0.4918429967
0.4967685444
0.5018844911
0.5041551717
0.498753303
0.5044225647
0.509563022
0.5213376415
0.5218306465
0.5211947791
0.5302729715
0.5235380233
0.5311099229
0.5356389053
0.5354368555
0.5380195913
0.5454109627
0.5490080702
0.5497396582
0.5546147509
0.4337410531
0.4390574314
0.4325028744
0.4487869459
0.4521848032
0.4601810213
0.4587992666
0.4527589007
0.4597255739
0.467225583
0.4655335762
0.4723782651
0.4645360781
0.4682747817
0.4763673511
0.4749710498
0.4808223972
0.4848226759
0.4780476098
0.4984989196
0.4896932317
0.4914331884
0.4830972592
0.4949495981
0.4874313456
0.5035108439
0.5102570956
0.5261656399
0.5219740266
0.5237304108
0.5239970059
0.5252299239
0.532134224
0.5278758424
0.5301809133
0.5219238416
0.5457543259
0.5368655689
0.5329149362
0.5529934981
0.4463959389
0.4339404008
0.4373630687
0.4545078636
0.4642113536
0.4681828103
0.4446791812
0.453510312
0.4650934736
0.4673870301
0.4810134696
0.4849730492
0.4671019315
0.46992126
0.4861070198
0.4990324086
0.47434222
0.4865569022
0.4700670263
0.4794893276
0.4967568644
0.5084130722
0.4933574492
0.4976521383
0.4978474709
0.514178412
0.5031047041
0.5080654974
0.5146244686
0.5229078417
0.5268287374
0.5431709122
0.5226553875
0.5194229265
0.5235481651
0.5256426927
0.5335386599
0.5320282408
0.5410530979
0.5502537813
0.4419207471
0.4501094925
0.4546281222
0.4574444722
0.4546290501
0.4653170382
0.4613423265
0.4728888369
0.4716743625
0.472886896
0.4747427973
0.4622890489
0.4747611844
0.4690774241
0.4831658896
0.4806314772
0.4936450833
0.491217929
0.4970887099
0.4969384341
0.4960241323
0.4992726269
0.4971356432
0.5008205045
0.507427237
0.516588631
0.5186090247
0.523187478
0.5140737417
0.5298374328
0.5302583771
0.5370411963
0.5168798046
0.5322422633
0.5237755021
0.5358022723
0.5305926028
0.5447502373
0.5502887975
0.5531903534
0.4546490589
0.4488036033
0.4525675001
0.4549641138
0.4553565271
0.4633908114
0.4689228775
0.4749040251
0.4762153056
0.4685528606
0.4776387694
0.4723807171
0.4708765245
0.4703133172
0.4915617055
0.4846787236
0.4827993999
0.4829328912
0.4859872618
0.4834470138
0.4643437162
0.4806060133
0.4934575721
0.5030529043
0.4944106518
0.4964475439
0.4984786366
0.5212629634
0.5129000425
0.5169164139
0.512910676
0.50800277
0.5186142381
0.5291594766
0.5211175753
0.5432403159
0.5491437324
0.5461398101
0.5535517726
0.5504011203
0.4374100759
0.4561173988
0.4601056953
0.4598079906
0.4612599159
0.4657157821
0.47262315
0.471711327
0.4734078301
0.4681893551
0.4753367304
0.4779533894
0.4747096188
0.4818849342
0.4907394228
0.4811320485
0.4862840607
0.4801202452
0.4825412496
0.4942551484
0.496917478
0.4927303079
0.4900222234
0.4984234786
0.5095930232
0.5154224653
0.5111680067
0.5151785672
0.5260670048
0.5246499187
0.5192298074
0.524886574
0.5196258177
0.5289999692
0.5284765374
0.5330098033
0.535906635
0.5590659691
0.5603022405
0.5558843397
0.4361541929
0.4455080186
0.4445805707
0.4498697189
0.4540861173
0.4664590095
0.463306774
0.4678098296
0.4724672189
0.475011203
0.4657865797
0.4660725512
0.4653705965
0.4695052501
0.4775953351
0.4753855098
0.4858674566
0.4834963368
0.4743800392
0.5008110894
0.4919473566
0.4968822389
0.5049550353
0.4805004649
0.5076939301
0.5081064245
0.5065907149
0.5059863704
0.5126456603
0.499609419
0.505191696
0.5061256947
0.5175309593
0.5211193265
0.529412374
0.5359987915
0.5432003987
0.5380807363
0.5578726425
0.5406002144
0.4489558486
0.4424493933
0.4517347281
0.4435203351
0.4583174018
0.4452117788
0.4611329689
0.4533438285
0.4730169342
0.4752954917
0.4626006168
0.459160627
0.4676348007
0.4793170433
0.479952645
0.4856707732
0.4853324784
0.484639007
0.493465208
0.4905087879
0.4893990465
0.4868843474
0.4973450894
0.4892042826
0.4926954423
0.5039500336
0.5009869667
0.5131465368
0.513255922
0.5208359477
0.5189249291
0.5124220559
0.5265864651
0.5273618197
0.5280689121
0.5298828295
0.536664679
0.5399161384
0.5244351872
0.526601085
0.4383479455
0.4510465178
0.4476457459
0.4482315704
0.4445726159
0.4449501289
0.4630264503
0.4722836103
0.4583311585
0.4684242505
0.4747450829
0.4483164153
0.4700241571
0.4701706446
0.4712863325
0.4749048921
0.4693242847
0.4845982626
0.4871537737
0.4822501483
0.4934819441
0.4989829155
0.5042593561
0.5007344975
0.486007496
0.4978758657
0.4859706104
0.4968474239
0.513763453
0.5147222847
0.5151335786
0.5178876624
0.5333071693
0.5283800363
0.5157198377
0.5181624812
0.5356840689
0.5222673649
0.5287767997
0.5224016564
0.4484320349
0.456414295
0.4569540095
0.4563617865
0.4573593016
0.4599785273
0.4648983683
0.4583262967
0.4538044264
0.469806765
0.4685110756
0.4464083851
0.4653890125
0.4714568847
0.4638779309
0.4689428365
0.4752587198
0.4849195396
0.4817688364
0.4873077111
0.4859011771
0.4896113395
0.5036888169
0.4983298811
0.5043325874
0.5092195471
0.506547479
0.498201354
0.4978104881
0.5049869781
0.5069264472
0.5079542015
0.5125872358
0.5214348099
0.5312936815
0.5219351989
0.5130591725
0.5157020326
0.5214422815
0.5180532865
0.4405420205
0.4400692446
0.445936663
0.4385738024
0.453935486
0.455190198
0.4554111257
0.474685996
0.4585307876
0.4681570056
0.4652370061
0.4639223057
0.4763655785
0.4803631106
0.4765565682
0.4842190869
0.4841140065
0.473994063
0.4724256029
0.4709833629
0.4826521659
0.4906565072
0.4954442322
0.4879444709
0.4889132325
0.4916900014
0.4861008577
0.495448715
0.5021336377
0.5106053658
0.4985873949
0.4860330461
0.5000226203
0.5076692562
0.5087904499
0.5323529403
0.5138609947
0.5352261108
0.5240014928
0.5103352884
0.4347081092
0.4467436721
0.4457656713
0.4513208871
0.4540659936
0.4480426812
0.4527012888
0.4605047556
0.4687161284
0.4710576124
0.4816615628
0.4650517017
0.455040918
0.4633914056
0.4829186463
0.4726998635
0.4716715782
0.4850499566
0.4756289494
0.4737404173
0.4650271183
0.4747805154
0.4771973785
0.4815324898
0.4901270222
0.5158924271
0.507314239
0.5040579859
0.497351729
0.4976177524
0.4944733506
0.4891572982
0.5045754835
0.4997955454