/*--------------------------------*- C++ -*----------------------------------*\
  =========                 |
  \\      /  F ield         | OpenFOAM: The Open Source CFD Toolbox
   \\    /   O peration     | Website:  https://openfoam.org
    \\  /    A nd           | Version:  7
     \\/     M anipulation  |
\*---------------------------------------------------------------------------*/
FoamFile
{
    version     2.0;
    format      ascii;
    class       volScalarField;
    location    "0.01";
    object      rhoM;
}
// * * * * * * * * * * * * * * * * * * * * * * * * * * * * * * * * * * * * * //

dimensions      [1 -3 0 0 0 0 0];

internalField   nonuniform List<scalar> 
2400
(
3.52763771e-06
3.043386799e-06
4.565080198e-06
7.124216086e-06
4.427198864e-06
2.00594431e-06
4.911449774e-06
4.496139531e-06
3.942947953e-06
4.980390442e-06
3.52763771e-06
6.364202506e-06
2.974446132e-06
3.942947953e-06
1.521693399e-06
2.974446132e-06
4.911449774e-06
4.01188862e-06
5.464641352e-06
4.980390442e-06
5.53358202e-06
6.224654932e-06
6.224654932e-06
2.905505464e-06
2.421254554e-06
6.364202506e-06
7.53952633e-06
3.043386799e-06
5.53358202e-06
1.937003643e-06
4.980390442e-06
5.464641352e-06
2.074884977e-06
4.980390442e-06
4.427198864e-06
5.602522687e-06
3.942947953e-06
4.980390442e-06
3.458697042e-06
5.671463354e-06
5.395700685e-06
4.911449774e-06
6.086773598e-06
3.52763771e-06
5.464641352e-06
3.458697042e-06
4.565080198e-06
6.086773598e-06
8.230599242e-06
4.427198864e-06
3.112327466e-06
3.52763771e-06
5.948892263e-06
2.974446132e-06
1.521693399e-06
5.464641352e-06
3.596578377e-06
4.01188862e-06
2.421254554e-06
5.395700685e-06
6.086773598e-06
3.942947953e-06
3.043386799e-06
4.427198864e-06
2.559135888e-06
2.490195221e-06
3.665519044e-06
3.942947953e-06
4.496139531e-06
4.980390442e-06
5.118271776e-06
4.911449774e-06
2.490195221e-06
4.080829287e-06
5.671463354e-06
4.080829287e-06
4.01188862e-06
4.427198864e-06
4.496139531e-06
2.490195221e-06
8.576968818e-06
6.224654932e-06
3.874007286e-06
4.911449774e-06
6.01783293e-06
3.458697042e-06
6.364202506e-06
5.118271776e-06
4.634020865e-06
3.52763771e-06
8.645909486e-06
4.842509107e-06
4.01188862e-06
3.874007286e-06
5.602522687e-06
6.571024508e-06
5.118271776e-06
2.00594431e-06
3.874007286e-06
2.559135888e-06
6.502083841e-06
8.439087484e-06
4.911449774e-06
5.049331109e-06
3.942947953e-06
4.911449774e-06
5.53358202e-06
3.665519044e-06
5.326760018e-06
3.596578377e-06
7.885895906e-06
6.086773598e-06
2.905505464e-06
2.559135888e-06
3.389756375e-06
6.571024508e-06
6.01783293e-06
4.911449774e-06
2.00594431e-06
4.427198864e-06
3.043386799e-06
5.948892263e-06
2.490195221e-06
2.905505464e-06
6.01783293e-06
6.155714265e-06
4.980390442e-06
3.942947953e-06
4.01188862e-06
3.043386799e-06
5.395700685e-06
6.986334752e-06
4.218710622e-06
1.937003643e-06
2.974446132e-06
6.917394084e-06
4.980390442e-06
8.092717908e-06
5.948892263e-06
1.521693399e-06
6.502083841e-06
2.905505464e-06
6.986334752e-06
5.464641352e-06
2.974446132e-06
3.596578377e-06
6.639965176e-06
2.421254554e-06
3.942947953e-06
4.149769955e-06
4.496139531e-06
6.917394084e-06
1.659574734e-06
4.980390442e-06
2.905505464e-06
7.470585662e-06
4.634020865e-06
2.974446132e-06
2.974446132e-06
1.521693399e-06
6.502083841e-06
7.124216086e-06
4.496139531e-06
3.52763771e-06
4.842509107e-06
8.02377724e-06
5.395700685e-06
4.565080198e-06
8.092717908e-06
7.055275419e-06
4.427198864e-06
4.842509107e-07
4.496139531e-06
2.559135888e-06
3.043386799e-06
6.086773598e-06
6.01783293e-06
4.427198864e-06
4.980390442e-06
3.043386799e-06
3.52763771e-06
6.917394084e-06
4.980390442e-06
4.01188862e-06
2.490195221e-06
4.911449774e-06
4.565080198e-06
3.942947953e-06
4.358258196e-06
4.496139531e-06
1.452752732e-06
4.634020865e-06
5.53358202e-06
6.364202506e-06
2.00594431e-06
4.01188862e-06
4.980390442e-06
4.980390442e-06
2.490195221e-06
9.685018214e-07
4.496139531e-06
3.458697042e-06
4.427198864e-06
2.490195221e-06
5.602522687e-06
4.01188862e-06
6.364202506e-06
3.874007286e-06
2.00594431e-06
4.634020865e-06
5.602522687e-06
4.427198864e-06
5.049331109e-06
5.395700685e-06
1.937003643e-06
1.521693399e-06
3.458697042e-06
4.842509107e-06
9.685018214e-07
2.905505464e-06
4.980390442e-06
3.043386799e-06
5.118271776e-06
4.565080198e-06
1.937003643e-06
4.427198864e-06
2.905505464e-06
5.811010928e-06
5.464641352e-06
7.53952633e-06
3.458697042e-06
3.942947953e-06
7.470585662e-06
2.074884977e-06
5.948892263e-06
6.01783293e-06
3.389756375e-06
4.496139531e-06
2.421254554e-06
2.490195221e-06
8.301206149e-06
7.470585662e-06
3.942947953e-06
4.080829287e-06
4.842509107e-06
5.464641352e-06
4.565080198e-06
6.364202506e-06
4.565080198e-06
3.874007286e-06
3.458697042e-06
3.942947953e-06
3.112327466e-06
3.52763771e-06
4.911449774e-06
5.464641352e-06
5.879951596e-06
1.452752732e-06
3.52763771e-06
5.671463354e-06
6.01783293e-06
4.149769955e-06
7.816955239e-06
3.52763771e-06
4.496139531e-06
3.942947953e-06
2.974446132e-06
2.974446132e-06
5.53358202e-06
4.496139531e-06
3.52763771e-06
2.974446132e-06
4.01188862e-06
3.52763771e-06
6.01783293e-06
3.389756375e-06
1.937003643e-06
4.496139531e-06
5.879951596e-06
3.458697042e-06
5.879951596e-06
6.433143174e-06
4.01188862e-06
3.942947953e-06
4.427198864e-06
3.942947953e-06
2.490195221e-06
4.427198864e-06
4.080829287e-06
2.074884977e-06
2.490195221e-06
3.043386799e-06
2.490195221e-06
3.458697042e-06
2.974446132e-06
5.671463354e-06
2.00594431e-06
4.149769955e-06
1.937003643e-06
3.043386799e-06
3.112327466e-06
2.074884977e-06
2.974446132e-06
6.502083841e-06
2.490195221e-06
7.954836573e-06
2.00594431e-06
5.464641352e-06
4.496139531e-06
5.464641352e-06
2.490195221e-06
4.565080198e-06
3.874007286e-06
3.942947953e-06
6.433143174e-06
2.00594431e-06
3.112327466e-06
3.942947953e-06
2.974446132e-06
3.458697042e-06
5.049331109e-06
4.149769955e-06
5.395700685e-06
4.565080198e-06
2.00594431e-06
2.974446132e-06
5.948892263e-06
2.559135888e-06
7.055275419e-06
4.01188862e-06
4.980390442e-06
5.395700685e-06
5.948892263e-06
3.458697042e-06
6.433143174e-06
3.112327466e-06
6.01783293e-06
2.421254554e-06
4.911449774e-06
6.364202506e-06
4.911449774e-06
4.01188862e-06
4.496139531e-06
3.942947953e-06
6.502083841e-06
4.080829287e-06
3.458697042e-06
4.080829287e-06
6.917394084e-06
1.937003643e-06
3.942947953e-06
2.421254554e-06
5.049331109e-06
3.52763771e-06
4.496139531e-06
6.502083841e-06
5.395700685e-06
2.00594431e-06
4.358258196e-06
4.565080198e-06
3.043386799e-06
3.389756375e-06
8.645909486e-06
4.427198864e-06
4.911449774e-06
2.559135888e-06
7.401644995e-06
4.496139531e-06
3.043386799e-06
4.565080198e-06
2.905505464e-06
2.905505464e-06
4.080829287e-06
5.118271776e-06
3.52763771e-06
1.037442489e-06
2.421254554e-06
5.049331109e-06
4.911449774e-06
4.496139531e-06
1.009866222e-05
3.458697042e-06
3.942947953e-06
4.634020865e-06
4.634020865e-06
3.181268133e-06
3.52763771e-06
3.52763771e-06
3.52763771e-06
4.01188862e-06
2.421254554e-06
2.00594431e-06
2.559135888e-06
5.879951596e-06
3.52763771e-06
3.596578377e-06
5.049331109e-06
3.942947953e-06
4.149769955e-06
3.942947953e-06
5.464641352e-06
2.490195221e-06
3.874007286e-06
5.602522687e-06
5.879951596e-06
5.809344689e-06
4.842509107e-06
5.395700685e-06
8.092717908e-06
5.395700685e-06
5.53358202e-06
3.596578377e-06
4.01188862e-06
1.521693399e-06
3.874007286e-06
2.905505464e-06
5.395700685e-06
3.52763771e-06
4.427198864e-06
4.01188862e-06
6.086773598e-06
5.602522687e-06
5.602522687e-06
4.980390442e-06
1.937003643e-06
6.086773598e-06
4.496139531e-06
2.905505464e-06
3.52763771e-06
4.842509107e-06
3.52763771e-06
2.905505464e-06
4.702961533e-06
5.53358202e-06
2.905505464e-06
2.421254554e-06
7.401644995e-06
2.974446132e-06
1.037442489e-06
4.01188862e-06
3.52763771e-06
2.421254554e-06
6.433143174e-06
6.01783293e-06
5.53358202e-06
2.490195221e-06
3.52763771e-06
3.942947953e-06
3.874007286e-06
5.948892263e-06
6.986334752e-06
4.01188862e-06
4.565080198e-06
6.708905843e-06
2.974446132e-06
3.043386799e-06
2.974446132e-06
4.358258196e-06
2.490195221e-06
2.00594431e-06
6.086773598e-06
6.708905843e-06
5.464641352e-06
3.942947953e-06
2.974446132e-06
2.559135888e-06
2.974446132e-06
3.389756375e-06
2.974446132e-06
2.974446132e-06
5.879951596e-06
3.942947953e-06
2.074884977e-06
2.00594431e-06
1.937003643e-06
3.874007286e-06
4.565080198e-06
4.080829287e-06
4.01188862e-06
3.874007286e-06
4.01188862e-06
6.571024508e-06
3.52763771e-06
3.043386799e-06
6.502083841e-06
5.602522687e-06
3.942947953e-06
4.080829287e-06
5.948892263e-06
2.974446132e-06
4.358258196e-06
4.01188862e-06
5.879951596e-06
2.490195221e-06
8.645909486e-06
5.395700685e-06
3.942947953e-06
5.948892263e-06
5.464641352e-06
5.049331109e-06
6.364202506e-06
6.571024508e-06
6.01783293e-06
4.980390442e-06
8.576968818e-06
3.942947953e-06
7.470585662e-06
3.596578377e-06
4.980390442e-06
2.974446132e-06
3.043386799e-06
4.080829287e-06
5.049331109e-06
3.389756375e-06
7.055275419e-06
5.326760018e-06
5.049331109e-06
2.074884977e-06
4.496139531e-06
4.427198864e-06
4.496139531e-06
6.293595599e-06
3.942947953e-06
5.049331109e-06
5.464641352e-06
3.874007286e-06
3.942947953e-06
6.01783293e-06
2.074884977e-06
3.458697042e-06
3.043386799e-06
5.602522687e-06
2.905505464e-06
6.086773598e-06
5.602522687e-06
6.155714265e-06
3.665519044e-06
3.942947953e-06
4.980390442e-06
4.980390442e-06
5.118271776e-06
3.043386799e-06
5.53358202e-06
6.502083841e-06
5.602522687e-06
4.565080198e-06
4.080829287e-06
2.490195221e-06
3.942947953e-06
3.942947953e-06
6.086773598e-06
5.395700685e-06
3.389756375e-06
5.187212443e-06
5.948892263e-06
4.01188862e-06
4.911449774e-06
4.911449774e-06
3.389756375e-06
4.565080198e-06
3.942947953e-06
2.559135888e-06
8.161658575e-06
4.565080198e-06
4.080829287e-06
5.53358202e-06
2.490195221e-06
6.986334752e-06
3.458697042e-06
4.149769955e-06
4.496139531e-06
5.53358202e-06
6.086773598e-06
5.948892263e-06
4.911449774e-06
6.086773598e-06
4.496139531e-06
5.049331109e-06
3.596578377e-06
5.948892263e-06
5.671463354e-06
2.974446132e-06
4.565080198e-06
5.395700685e-06
2.00594431e-06
5.395700685e-06
3.52763771e-06
4.634020865e-06
4.565080198e-06
6.086773598e-06
4.842509107e-06
4.980390442e-06
3.389756375e-06
4.911449774e-06
6.01783293e-06
2.00594431e-06
2.905505464e-06
6.364202506e-06
6.086773598e-06
3.458697042e-06
6.364202506e-06
4.080829287e-06
5.049331109e-06
5.118271776e-06
3.874007286e-06
3.942947953e-06
4.980390442e-06
3.52763771e-06
6.708905843e-06
6.986334752e-06
6.986334752e-06
4.01188862e-06
4.980390442e-06
3.458697042e-06
6.502083841e-06
1.937003643e-06
1.937003643e-06
3.942947953e-06
4.427198864e-06
5.395700685e-06
7.53952633e-06
4.496139531e-06
5.602522687e-06
5.602522687e-06
6.364202506e-06
3.942947953e-06
3.52763771e-06
4.496139531e-06
3.942947953e-06
5.049331109e-06
4.427198864e-06
4.01188862e-06
6.917394084e-06
6.986334752e-06
3.665519044e-06
3.596578377e-06
4.01188862e-06
1.937003643e-06
7.401644995e-06
5.740404021e-06
7.608466997e-06
4.911449774e-06
6.917394084e-06
4.842509107e-06
5.395700685e-06
2.490195221e-06
6.086773598e-06
2.905505464e-06
2.490195221e-06
5.948892263e-06
4.911449774e-06
5.464641352e-06
3.52763771e-06
4.496139531e-06
9.685018214e-07
7.470585662e-06
7.055275419e-06
3.874007286e-06
4.427198864e-06
2.490195221e-06
6.086773598e-06
3.52763771e-06
1.521693399e-06
5.049331109e-06
3.52763771e-06
5.879951596e-06
4.842509107e-06
3.181268133e-06
2.974446132e-06
3.458697042e-06
3.942947953e-06
4.911449774e-06
3.458697042e-06
3.458697042e-06
7.193156754e-06
4.496139531e-06
3.52763771e-06
6.917394084e-06
1.037442489e-06
3.389756375e-06
4.080829287e-06
5.049331109e-06
6.433143174e-06
6.364202506e-06
5.464641352e-06
5.464641352e-06
8.092717908e-06
5.395700685e-06
6.917394084e-06
5.049331109e-06
2.490195221e-06
5.049331109e-06
2.905505464e-06
7.470585662e-06
2.905505464e-06
6.433143174e-06
2.905505464e-06
5.049331109e-06
4.358258196e-06
3.942947953e-06
2.143825645e-06
5.671463354e-06
4.702961533e-06
5.948892263e-06
5.464641352e-06
3.181268133e-06
5.464641352e-06
5.118271776e-06
4.980390442e-06
6.502083841e-06
3.734459711e-06
2.905505464e-06
3.458697042e-06
2.905505464e-06
8.645909486e-06
2.490195221e-06
4.980390442e-06
4.496139531e-06
6.639965176e-06
4.496139531e-06
3.043386799e-06
4.496139531e-06
2.974446132e-06
4.496139531e-06
2.490195221e-06
2.00594431e-06
4.634020865e-06
3.458697042e-06
6.086773598e-06
3.389756375e-06
1.452752732e-06
3.458697042e-06
3.874007286e-06
4.427198864e-06
5.948892263e-06
4.358258196e-06
4.565080198e-06
3.942947953e-06
4.565080198e-06
2.490195221e-06
5.464641352e-06
3.458697042e-06
4.496139531e-06
4.496139531e-06
4.01188862e-06
3.942947953e-06
3.596578377e-06
4.980390442e-06
4.149769955e-06
5.948892263e-06
6.224654932e-06
2.628076555e-06
3.458697042e-06
3.389756375e-06
5.464641352e-06
7.677407664e-06
5.326760018e-06
5.948892263e-06
5.602522687e-06
3.52763771e-06
7.53952633e-06
5.53358202e-06
6.01783293e-06
8.439087484e-06
4.842509107e-06
4.01188862e-06
7.677407664e-06
3.942947953e-06
4.911449774e-06
4.496139531e-06
6.433143174e-06
5.671463354e-06
6.086773598e-06
4.01188862e-06
4.634020865e-06
4.980390442e-06
2.974446132e-06
4.01188862e-06
3.942947953e-06
2.00594431e-06
3.389756375e-06
4.980390442e-06
4.980390442e-06
3.458697042e-06
4.634020865e-06
8.230599242e-06
3.874007286e-06
3.52763771e-06
2.905505464e-06
6.086773598e-06
3.596578377e-06
5.049331109e-06
3.458697042e-06
6.77951275e-06
3.596578377e-06
3.942947953e-06
3.52763771e-06
3.458697042e-06
5.53358202e-06
6.086773598e-06
4.581269142e-06
2.935858546e-06
3.096471962e-06
3.118060525e-06
5.138416215e-06
2.587373897e-06
2.099066944e-06
3.062194397e-06
3.157498495e-06
3.254189527e-06
3.278041777e-06
1.125683594e-06
3.176088937e-06
5.027615485e-06
2.149369887e-06
2.242804595e-06
3.428835918e-06
1.64939155e-06
5.065584143e-06
2.871631233e-06
2.331501286e-06
2.836651103e-06
1.225196627e-06
2.470245564e-06
4.316865102e-06
1.758055053e-06
3.713549329e-06
1.19166369e-06
3.776261714e-06
6.404878689e-06
3.142932751e-06
4.931832196e-06
4.53012927e-06
1.971358926e-06
5.243642768e-06
3.28395854e-06
2.761043919e-06
5.479972108e-06
4.217956594e-06
1.41907285e-06
2.429840943e-06
4.962758449e-06
3.941580792e-06
2.480663401e-06
1.998463985e-06
4.528337138e-06
3.547120189e-06
3.207511438e-06
1.688524333e-06
5.251645445e-06
2.23486533e-06
2.176562676e-06
5.368842525e-06
3.885059014e-06
1.074684944e-06
3.790016074e-06
5.455819538e-07
2.827258118e-06
4.115191333e-06
3.430057344e-06
2.814214769e-06
4.213616451e-06
3.022282864e-06
3.541214302e-06
3.570138434e-06
3.013520604e-06
3.038543374e-06
2.468153332e-06
3.605177311e-06
2.51018909e-06
2.444736919e-06
2.553681501e-06
3.197864179e-06
6.630738331e-06
4.067892944e-06
2.645350011e-06
6.719131478e-06
4.829692158e-06
3.374816907e-06
1.324771884e-06
4.23367125e-06
4.612770436e-06
2.533631178e-06
4.251590331e-06
3.63956823e-06
4.240081696e-06
3.547120187e-06
1.020731466e-06
3.157498495e-06
1.627094764e-06
3.352297993e-06
3.377050781e-06
5.973551645e-06
5.027615485e-06
2.76321144e-06
3.944178323e-06
2.805581864e-06
5.889332839e-06
5.065584147e-06
5.82276313e-06
2.251371814e-06
3.484749625e-06
1.797086238e-06
4.694260063e-06
3.071654014e-06
4.855004507e-06
1.181768709e-06
3.233637082e-06
1.888130857e-06
1.817938833e-06
5.93571608e-06
6.603617249e-06
3.197864179e-06
2.598707612e-06
1.355964315e-06
4.561175604e-06
6.074740073e-06
3.994257218e-06
4.874233719e-06
4.162917588e-06
1.943872754e-06
3.494829178e-06
4.644707946e-06
3.969061439e-06
1.998463984e-06
2.15585637e-06
4.053851645e-06
1.5310972e-06
2.570262587e-06
1.553378863e-06
3.725373785e-06
2.627197705e-06
2.117392625e-06
2.818428301e-06
3.30055391e-06
2.242804595e-06
3.506508015e-06
1.099594367e-06
1.662234164e-06
3.030632561e-06
3.617446133e-06
2.26932088e-06
1.225196626e-06
3.623291326e-06
4.234117688e-06
1.172036702e-06
5.908843547e-06
3.063985176e-06
3.175398826e-06
2.596459736e-06
1.22236846e-06
3.170160526e-06
3.819730537e-06
3.226056296e-06
2.079000094e-06
4.013482954e-06
2.02491336e-06
1.300559912e-06
2.062262658e-06
5.393388487e-06
2.91580913e-06
5.382407332e-06
2.603774365e-06
2.480663402e-06
1.569976117e-06
3.665302084e-06
3.18467098e-06
5.904657143e-06
2.64344598e-06
4.216059539e-06
1.639020888e-06
5.25439541e-06
2.117392623e-06
3.42766941e-06
3.914395461e-06
4.485609194e-06
3.35116382e-06
4.005124686e-06
1.662234164e-06
1.754779004e-06
2.251371816e-06
5.673302209e-07
4.575116897e-06
2.470245564e-06
2.324927348e-06
1.841483902e-06
3.713549332e-06
2.552979289e-06
2.488993743e-06
2.596459734e-06
2.444736915e-06
2.949916904e-289
3.197864176e-06
2.598707612e-06
1.265857072e-06
4.470259715e-06
6.166479214e-06
3.343977275e-06
5.999925413e-06
5.29908755e-06
4.095300953e-06
4.053799806e-06
2.111076765e-06
2.480663399e-06
4.210312348e-06
2.155856368e-06
3.691402431e-06
1.603755717e-06
2.643445976e-06
3.180473629e-06
2.607941124e-06
5.329199928e-06
2.19275359e-06
3.199892146e-06
2.225868968e-06
4.485609194e-06
5.611163733e-06
5.026446851e-06
4.511506088e-06
2.871631231e-06
1.8487878e-06
4.619410063e-06
3.022282861e-06
1.15304576e-06
1.826442924e-06
2.510931102e-06
1.772653064e-06
1.787495534e-06
3.004314428e-06
2.423918446e-06
4.365301213e-06
2.553681505e-06
5.240528035e-06
3.136743432e-06
2.621821366e-06
2.645350009e-06
1.288782804e-06
7.338234495e-06
4.687371145e-06
7.566869034e-07
2.984994279e-06
3.075180291e-06
3.096471964e-06
4.606458569e-06
1.49884799e-06
3.59367104e-06
2.099066946e-06
5.176315851e-06
2.643445978e-06
7.470249063e-06
9.984432474e-06
2.176562675e-06
2.26811455e-06
3.885059011e-06
2.302368045e-06
2.319885723e-06
1.168836005e-06
3.926852484e-06
1.265919409e-06
1.196352892e-06
5.225845529e-06
5.673302209e-07
4.003227284e-06
2.882614403e-06
2.988906597e-06
3.013520602e-06
4.136190483e-06
4.85148071e-06
2.875192051e-289
2.423918463e-06
6.198853944e-06
3.082395141e-06
2.48746545e-06
2.59870763e-06
2.621821416e-06
4.104398871e-06
4.1415659e-06
6.222829564e-06
4.687371187e-06
4.825303583e-06
2.568211239e-06
2.446548789e-06
4.574564761e-06
3.614193203e-06
4.99615996e-07
5.749527408e-06
3.112529857e-06
2.041462933e-06
2.570262587e-06
1.109301809e-06
3.725373785e-06
3.902490323e-06
2.117392626e-06
4.418374374e-06
3.914395461e-06
3.402747456e-06
2.182327815e-06
2.277460934e-06
1.662234166e-06
2.871631233e-06
4.663002567e-06
2.350089183e-06
4.084644684e-06
3.046768445e-06
1.245211091e-06
3.599538964e-06
3.12266497e-06
1.872321478e-06
3.004314413e-06
4.500669196e-06
3.142932727e-06
3.786639506e-06
1.865599071e-06
4.480753664e-06
5.786464027e-06
4.013482918e-06
3.405435275e-06
4.086834679e-06
4.687371145e-06
4.068616592e-06
1.457904565e-06
3.494829175e-06
1.055538382e-06
4.039693664e-06
3.068824107e-06
3.593671038e-06
5.718328254e-06
3.717877171e-06
2.643445978e-06
2.662680672e-06
2.682197338e-06
5.404004436e-06
3.251449898e-06
3.96098477e-06
2.686712361e-06
4.639771445e-06
1.714417959e-06
1.177866568e-06
2.849271924e-06
5.663761798e-06
2.974473703e-06
2.350089186e-06
2.940865465e-06
4.281891234e-06
5.313833952e-06
3.096949433e-06
2.363537415e-06
2.979159233e-06
1.802588655e-06
1.211959217e-06
3.055921149e-06
2.553681514e-06
3.90826292e-06
7.168774139e-06
1.355964308e-06
4.652091485e-06
2.66930477e-06
1.950839867e-06
6.280219234e-06
6.150075427e-06
2.013057904e-06
2.026899904e-06
4.574564761e-06
2.976796081e-06
1.498847989e-06
2.227487415e-06
2.677939525e-06
2.551828666e-06
3.157498495e-06
1.035585909e-06
5.290138457e-06
4.35312535e-06
1.058696312e-06
3.885059014e-06
3.377052989e-06
2.16572347e-06
2.88325396e-06
2.277460938e-06
1.662234163e-06
6.222187892e-06
2.974473721e-06
4.780946667e-06
2.73655187e-289
3.046768445e-06
2.407674755e-06
2.93009176e-06
3.629427752e-06
6.04314442e-06
1.802588655e-06
3.029898068e-06
1.22236846e-06
5.195128385e-06
8.526924574e-06
3.853404979e-06
5.423857277e-06
3.193042659e-06
6.535653124e-06
3.52913225e-06
5.250216987e-06
8.988221053e-06
3.123364576e-06
2.935858545e-06
3.166615147e-06
1.559030263e-06
3.639568228e-06
5.60626532e-06
5.067314552e-06
3.57256013e-06
3.671551012e-06
3.624550681e-06
2.682197336e-06
1.65112313e-06
4.385507157e-06
2.666576781e-06
3.837896382e-06
3.867097206e-06
2.727909781e-06
5.654516261e-06
1.662234167e-06
1.834279665e-06
2.331501273e-06
3.484749623e-06
2.287558455e-06
2.388168544e-06
4.151370293e-06
4.771575665e-06
4.388555242e-06
2.46815332e-06
3.089856626e-06
1.817938826e-06
2.531748524e-06
5.019597627e-06
5.685329634e-06
5.824763901e-06
4.700821454e-06
6.4770012e-06
3.958087574e-06
1.485714893e-06
4.593939905e-06
4.636701648e-06
5.06723733e-06
2.585870535e-06
3.448883193e-06
2.976796079e-06
3.068824105e-06
4.096819611e-06
5.718328278e-06
4.155584411e-06
3.303865293e-06
4.216059554e-06
5.885982918e-06
4.803760404e-06
4.839494394e-06
4.494300137e-06
4.604736087e-06
4.331446923e-06
2.337671993e-06
3.377055265e-06
1.108156103e-06
3.350556701e-06
6.431660968e-06
2.836651122e-06
1.715668842e-06
4.199814206e-06
4.15137026e-06
1.758055056e-06
3.629427752e-06
3.233637093e-06
4.291582396e-06
3.808418942e-06
4.365301176e-06
1.232958035e-06
3.819730482e-06
2.060671789e-06
2.621821416e-06
2.55443415e-06
4.694218139e-06
4.922269652e-06
4.031094021e-06
4.919604461e-06
2.637396388e-06
3.494829185e-06
3.51902639e-06
7.795151314e-06
4.852184581e-06
3.090522463e-06
2.099066941e-06
1.020731458e-06
4.112420122e-06
2.662680672e-06
3.948142421e-06
2.176562662e-06
3.705437085e-06
3.42766942e-06
1.612027414e-06
5.027040076e-06
3.58418014e-06
6.910655036e-06
1.662234167e-06
2.95113189e-06
3.537316644e-06
2.91741938e-06
3.512755059e-06
2.306091523e-06
4.15137026e-06
1.758055042e-06
3.20678657e-06
6.808628173e-06
3.776261711e-06
3.116168714e-06
1.22236847e-06
7.661044542e-06
5.240528017e-06
2.509394741e-06
3.164642657e-06
5.381615851e-06
1.933174188e-06
5.294817137e-06
3.374816898e-06
7.38054628e-06
3.609332752e-06
3.494829154e-06
3.589169536e-06
6.165488808e-06
9.992319933e-07
1.509445709e-06
4.198133868e-06
2.624487182e-06
4.185603512e-06
3.327905404e-06
3.278041767e-06
4.353125356e-06
4.839494359e-06
2.666576773e-06
2.225868965e-06
3.248585192e-06
5.455819497e-06
6.126041199e-06
4.036309689e-06
3.988483451e-06
4.020030125e-06
1.13466044e-06
3.594172461e-06
2.470245545e-06
3.570138425e-06
2.344073408e-06
4.304433677e-06
2.552979272e-06
3.089856626e-06
3.288709979e-06
6.372877057e-06
3.786639538e-06
6.218663624e-06
1.882046056e-06
3.164642657e-06
4.561175604e-06
8.560566474e-06
3.994257189e-06
5.53051083e-06
4.068616629e-06
5.484020399e-06
2.935858553e-06
5.067262357e-06
4.465194137e-06
3.497312001e-06
2.012594292e-06
4.125992774e-06
3.207511456e-06
3.817917805e-06
3.180473627e-06
3.799630017e-06
2.101758182e-06
3.85615904e-06
2.20918719e-06
5.602921992e-06
2.784235473e-06
4.519999825e-06
2.827258131e-06
2.651321714e-289
3.908982788e-06
5.225845537e-06
2.836651122e-06
3.512755086e-06
4.117737186e-06
2.906159199e-06
4.771575665e-06
4.895318031e-06
2.46815334e-06
3.690719542e-06
4.328127942e-06
4.452312817e-06
3.257925944e-06
6.218663624e-07
7.168774139e-06
3.977785712e-06
2.006741494e-06
4.694218139e-06
2.601119823e-06
5.906494164e-06
1.987157831e-06
4.998052174e-06
2.516209667e-06
2.956185612e-06
5.739988391e-06
2.069592113e-06
1.581076763e-06
5.139455687e-06
2.697145682e-06
2.056210061e-06
2.218603618e-06
1.043176445e-06
2.7020022e-06
3.780798049e-06
3.960984779e-06
2.916209594e-06
4.408528081e-06
2.805581888e-06
6.754110633e-06
4.511506129e-06
5.584261168e-07
2.814214754e-06
6.402168975e-06
3.675589864e-06
3.541214305e-06
4.980844337e-06
3.096949458e-06
4.220312111e-06
1.78749554e-06
3.690719511e-06
6.924587688e-06
3.754117015e-06
7.748809943e-06
3.731198175e-06
6.720051186e-06
3.797571188e-06
5.838392616e-06
4.049826701e-06
1.950839867e-06
3.93766274e-06
2.081458798e-06
4.026115799e-06
4.053799789e-06
4.081867132e-06
5.243855673e-06
3.781824484e-06
3.522039987e-06
2.605798405e-06
3.207511456e-06
5.213708579e-06
5.916870199e-06
3.129529336e-06
3.302246273e-06
3.931520003e-06
3.351743664e-06
7.214949365e-06
5.027040039e-06
6.15674564e-06
5.182991199e-06
5.065584112e-06
2.313205132e-06
9.486264178e-06
3.403981347e-06
2.450393262e-06
4.117737186e-06
1.826442919e-06
4.102128431e-06
2.447659015e-06
3.063985186e-06
3.089856626e-06
4.934107514e-06
7.158084489e-06
4.403118524e-06
5.685329586e-06
3.853405012e-06
3.344857205e-06
6.386085374e-07
5.430348704e-06
6.780532029e-06
5.906494111e-06
5.393388467e-06
3.540147611e-06
3.91447807e-06
3.166615168e-06
3.188692737e-06
4.139184198e-06
5.749527396e-06
4.777006444e-06
7.800803026e-06
3.744734414e-06
5.9905861e-06
3.725373801e-06
2.70200222e-06
3.856158984e-06
5.560930813e-06
2.763211436e-06
5.414308694e-07
1.091163916e-06
1.649391557e-06
1.187037761e-06
4.626410228e-06
4.582873076e-06
3.484749623e-06
6.453620559e-06
3.541214305e-06
4.151370293e-06
7.36593568e-06
2.447659015e-06
3.148811114e-06
6.179713252e-06
3.722148297e-06
4.278289609e-06
2.553681514e-06
5.063463272e-06
3.226056293e-06
2.531714126e-06
4.470259684e-06
3.958087539e-06
6.502799558e-07
4.687371145e-06
4.068616629e-06
4.026115826e-06
3.91447807e-06
2.533631178e-06
5.669356168e-06
5.851416597e-06
4.0968196e-06
3.691402441e-06
1.603755717e-06
4.772839418e-06
2.144887733e-06
3.873886233e-06
1.576318625e-06
4.914855358e-06
4.418374381e-06
5.142078558e-06
2.861316577e-06
6.389761931e-06
4.476649654e-06
2.770390278e-06
3.430057339e-06
2.894344246e-06
2.430857485e-06
4.16606207e-06
6.670059771e-06
8.052498341e-06
1.84148389e-06
3.713549323e-06
3.744642986e-06
1.973673055e-06
4.847836909e-06
5.761692881e-06
4.403118561e-06
2.575997822e-06
2.509394741e-06
3.977785678e-06
3.193042659e-06
4.510739813e-06
1.393137402e-06
5.343648316e-06
4.068616629e-06
5.553205511e-06
6.080699725e-06
4.574564758e-06
4.03969365e-06
4.28144048e-06
4.599968201e-06
6.731791179e-06
6.487681386e-06
5.360075361e-06
5.9905861e-06
2.756453545e-06
3.678076765e-06
4.46086813e-06
3.73320751e-06
5.065579517e-06
7.192763554e-06
2.259999913e-06
3.848580301e-06
2.849271928e-06
3.589058666e-06
5.065586558e-06
2.917419403e-06
1.878503648e-06
3.541214305e-06
2.407674755e-06
4.938433364e-06
3.038543394e-06
7.319634066e-06
3.175398826e-06
3.722148297e-06
4.452312817e-06
7.573279141e-06
5.862394379e-06
5.914076768e-06
4.520607004e-06
3.922567107e-06
5.155131169e-06
6.595376989e-06
6.749633796e-06
3.406230685e-06
4.164486096e-06
3.075180278e-06
4.644707943e-06
5.528091723e-06
4.781056477e-06
7.258973104e-06
4.704865354e-06
1.603755728e-06
3.303865286e-06
4.73385249e-06
6.108751571e-06
3.227441785e-06
3.251449917e-06
3.885059022e-06
2.763211436e-06
5.027040076e-06
4.597671957e-06
2.827258131e-06
2.216312222e-06
2.551707125e-06
1.768658349e-06
2.350089201e-06
2.287558455e-06
1.317199814e-06
4.399612537e-06
4.938433324e-06
4.811196391e-06
5.616964387e-06
7.46698116e-06
4.328127905e-06
3.667105348e-06
5.282893741e-06
2.664530172e-06
2.598707608e-06
5.153535496e-06
2.645349985e-06
4.602478935e-06
3.343977269e-06
5.343648268e-06
7.00106324e-06
2.637396384e-06
5.521729056e-06
4.997119172e-06
3.472928773e-06
1.641104244e-06
3.018891417e-06
3.11252984e-06
2.114121449e-06
3.964284586e-06
3.845698382e-06
4.321218212e-06
7.430958042e-06
2.948184606e-06
1.67587182e-06
2.763211436e-06
4.485609174e-06
6.546983396e-06
6.67583833e-06
2.295193855e-06
5.105335676e-06
4.020030125e-06
1.701990647e-06
3.022282828e-06
2.306091504e-06
3.570138454e-06
3.68296784e-06
1.772653076e-06
5.958318466e-07
2.574535962e-06
2.423918475e-06
3.14293278e-06
5.548311253e-06
6.218663624e-06
4.480753703e-06
2.621821416e-06
3.283958569e-06
5.338609541e-06
2.693697314e-06
6.093356672e-06
6.81246137e-06
3.470962463e-06
3.425168311e-06
4.574564758e-06
3.118060515e-06
3.497311977e-06
3.018891417e-06
4.704865354e-06
3.572560127e-06
4.772839418e-06
4.881284291e-06
7.302235116e-06
2.627197709e-06
4.310146235e-06
3.809133266e-06
2.763211436e-06
4.485609174e-06
2.805581866e-06
5.654516261e-06
3.639994934e-06
4.147484779e-06
6.431660868e-06
2.917419403e-06
5.391258734e-06
5.434936989e-06
3.652885839e-06
4.771575627e-06
3.038543369e-06
5.532138526e-06
5.149071881e-06
3.288709979e-06
3.667105348e-06
5.107362985e-06
4.530129282e-06
7.796122824e-06
2.62182137e-06
1.915825595e-06
2.024913369e-06
1.950839867e-06
1.40598554e-06
5.487689483e-06
4.442898868e-06
6.570009484e-06
3.026328777e-06
6.520357042e-06
3.639568205e-06
7.330604199e-06
2.026925825e-06
4.883925669e-06
4.331970323e-06
8.061757917e-06
5.29013848e-06
2.176562678e-06
4.385507167e-06
2.742502549e-06
2.763211436e-06
5.33536458e-06
4.442327728e-06
2.827258109e-06
1.819997467e-06
2.313205114e-06
3.537316672e-06
4.700178402e-06
3.594172489e-06
6.09353689e-06
2.490422169e-06
3.516110112e-06
4.979439672e-06
3.063985186e-06
4.377124596e-06
1.298229863e-06
5.674681277e-06
1.849437084e-06
1.243732725e-06
3.136743427e-06
2.531714148e-06
6.02022443e-06
3.958087539e-06
1.950839867e-06
3.374816898e-06
6.81246137e-06
6.594327035e-06
3.634150931e-06
1.970790395e-06
6.094856586e-06
5.13841622e-06
2.587373891e-06
3.763543565e-06
3.207511456e-06
4.772839418e-06
4.660136557e-06
4.321218212e-06
4.728955876e-06
2.646740795e-06
5.560930854e-06
4.681235165e-06
3.325666318e-06
3.506508015e-06
2.748985929e-06
4.511506095e-06
6.460689942e-06
2.974473716e-06
6.321400674e-06
4.819369082e-06
2.882614403e-06
1.826442934e-06
5.357594017e-06
5.48620234e-06
2.383327367e-06
6.094171052e-06
4.328127942e-06
6.198853954e-06
5.811607408e-06
3.819730514e-06
5.914076768e-06
1.039717824e-05
4.652091485e-06
3.958087574e-06
5.294817137e-06
6.093356672e-06
3.974315626e-06
8.052231598e-06
6.011038811e-06
5.77038951e-06
5.102591264e-06
3.068824107e-06
5.103116739e-06
4.053851622e-06
3.572560102e-06
4.772839418e-06
3.698266581e-06
3.203785551e-06
2.62719769e-06
5.973551588e-06
4.342448593e-06
3.761397328e-06
1.082861747e-06
4.052089999e-06
4.948174672e-06
2.216312222e-06
3.988483451e-06
5.868817962e-06
3.565517953e-06
5.228423928e-06
3.046768445e-06
3.487391011e-06
3.013520609e-06
1.772653076e-06
5.021132633e-06
7.552523422e-06
2.51018908e-06
6.459888661e-06
3.257925916e-06
4.44159691e-06
4.480753664e-06
1.988892839e-06
8.483742602e-06
4.694218056e-06
4.644537139e-06
4.124525302e-06
7.001063304e-06
2.984994275e-06
5.102080173e-06
5.559959955e-06
5.173223487e-06
3.568440103e-06