/*--------------------------------*- C++ -*----------------------------------*\
  =========                 |
  \\      /  F ield         | OpenFOAM: The Open Source CFD Toolbox
   \\    /   O peration     | Website:  https://openfoam.org
    \\  /    A nd           | Version:  7
     \\/     M anipulation  |
\*---------------------------------------------------------------------------*/
FoamFile
{
    version     2.0;
    format      ascii;
    class       volVectorField;
    location    "0.01";
    object      UMean;
}
// * * * * * * * * * * * * * * * * * * * * * * * * * * * * * * * * * * * * * //

dimensions      [0 1 -1 0 0 0 0];

internalField   nonuniform List<vector> 
2400
(
(1709.359219 -8.772176946 0.007090281151)
(1745.816456 -7.767813648 -0.1538122714)
(1736.497662 -6.184229856 0.2672578533)
(1736.519687 -5.799732747 -0.4247628264)
(1738.236278 -7.194711359 -1.192600051)
(1737.460639 -8.338026455 -0.04114621958)
(1739.149046 -7.989162435 -0.6707071015)
(1740.097078 -6.545569978 0.1607955769)
(1737.914279 -5.502324871 -0.2894678706)
(1737.492749 -6.758293368 1.317902309)
(1737.000946 -7.903407168 2.04246718)
(1737.971371 -9.272817206 1.305303828)
(1736.608795 -8.393711983 0.6746762885)
(1734.22476 -7.207968862 1.706522721)
(1728.381367 -7.200479027 2.497551272)
(1723.063869 -8.136325149 2.441978624)
(1710.886599 -8.877764678 0.9118491321)
(1676.458641 -12.07775607 -0.0413113029)
(1572.086671 -17.43473774 0.9399243119)
(1199.683364 12.53653135 2.873595476)
(1712.680388 -1.33987401 0.154034154)
(1749.632399 -0.5343442967 1.50845588)
(1739.68537 -2.844255235 0.3558102707)
(1737.980768 -1.396213753 -0.9213239114)
(1735.166158 0.1854913224 -1.051140516)
(1736.908698 1.580105096 -2.527113419)
(1735.212935 1.459338788 -1.674542583)
(1736.605949 -1.878180624 -2.904270653)
(1738.009439 -3.704184981 -2.624507361)
(1737.936555 -2.021863177 -2.298661455)
(1737.820638 -0.02571640319 0.4912170132)
(1737.888877 0.6437358557 1.517694758)
(1739.063504 4.408874174 1.216354847)
(1737.684561 1.750439484 1.325360606)
(1734.854649 1.712140485 0.2400602706)
(1722.202687 0.9359157421 1.278712435)
(1701.91712 -0.9808200464 0.8425707005)
(1662.840428 1.167239812 2.776789482)
(1552.951499 10.92245313 1.661500226)
(1311.467093 61.74436236 0.2177578966)
(1706.075366 0.824358361 -0.2287382439)
(1741.770476 0.873506163 -2.368389988)
(1734.737862 0.9472314646 -2.286865888)
(1735.282357 1.19803107 -1.060005301)
(1734.461016 -0.698540072 -0.2630257515)
(1734.512372 -0.9601536075 1.545231975)
(1735.371007 -0.6524977562 1.875214709)
(1735.266316 3.866418434 1.851032448)
(1735.184104 4.799472682 2.803732482)
(1735.340019 2.225498972 2.024671123)
(1736.292413 0.7114272017 -0.6034280032)
(1735.146001 0.4231473829 -0.7253118217)
(1733.900594 -1.28698807 -0.9002960452)
(1734.556934 -0.2069331074 -1.98335337)
(1731.383097 -0.5579447347 -1.088719823)
(1725.608217 0.5934404809 -0.8680139899)
(1707.157887 0.7152040158 1.116046185)
(1668.915984 6.760952869 0.4536722587)
(1589.602967 21.93862444 -0.4282909562)
(1436.050768 62.54872874 -2.923382249)
(1704.285362 -0.5898156043 3.444234413)
(1740.987289 -1.881152624 3.025023597)
(1733.439546 -1.123692778 4.713682375)
(1732.856328 -1.838182584 2.757231913)
(1735.138798 0.2543818565 1.907560564)
(1735.772505 2.233993626 -0.965377519)
(1735.779262 0.9185389118 -0.8700938586)
(1735.079398 -0.6824099379 -1.189434517)
(1734.967093 -2.368248906 -1.657122214)
(1734.845018 0.6788275656 -0.5007878173)
(1734.906654 2.196009379 -1.486051918)
(1734.082307 1.890779495 -0.5492993378)
(1734.668089 1.242665782 -0.7890590732)
(1733.375127 -0.1870045117 -1.02033163)
(1731.496827 -1.461984584 0.9381770813)
(1720.234776 0.5923259733 0.9753260193)
(1709.85174 4.486227458 4.252071232)
(1676.912024 12.46057415 0.6223598926)
(1625.334358 26.14800047 3.228934943)
(1534.224522 54.98880037 3.802351308)
(1705.381374 -0.6363276536 4.055134903)
(1743.439725 -0.3345801343 3.473156864)
(1735.736135 -1.443994847 2.832006154)
(1733.058117 -0.9579431558 3.284839177)
(1735.314992 -2.626809275 3.561857465)
(1734.172346 -2.652210309 3.737369676)
(1736.087806 1.752228472 4.300274317)
(1737.681316 2.531370051 5.533622917)
(1738.572977 3.75391771 3.70577568)
(1738.974007 2.778082378 3.561090705)
(1736.776342 2.577904407 3.649271311)
(1733.58712 2.429219745 3.510471052)
(1732.908569 0.984241746 5.349148949)
(1731.528405 2.210229776 5.244118591)
(1731.077597 2.158134803 5.127633119)
(1725.243929 2.567239624 3.575800093)
(1714.274407 3.151923251 4.953691277)
(1691.669007 6.466301066 4.727450251)
(1657.678449 18.70895466 0.9847665915)
(1596.38405 45.68644454 -0.7872962975)
(1706.352201 2.259316252 -2.040541117)
(1741.373216 1.237178768 -1.210256633)
(1734.410157 1.275178335 -0.2486436297)
(1734.301182 1.125925248 1.767668721)
(1735.315777 2.020026868 2.144557823)
(1734.359317 0.5613704607 3.48130804)
(1734.347967 -1.139613679 3.021366794)
(1733.981664 -0.7876869838 2.016044153)
(1732.133652 -1.657298809 1.16691353)
(1732.148492 -1.000999027 1.923481844)
(1733.434082 -2.035787146 1.417588209)
(1732.436334 -1.533464736 -0.02140253041)
(1733.42641 1.014084427 0.8843386496)
(1732.01576 0.7198578508 0.6406330959)
(1731.46308 -0.5856256595 1.051764293)
(1727.679603 1.409279665 0.1795196737)
(1722.31265 4.466917843 1.212439024)
(1709.415414 10.16592901 1.113763957)
(1679.641649 20.02878202 1.095082742)
(1641.694714 33.43031272 1.683127703)
(1706.159886 0.402355757 -0.6432092605)
(1743.349863 -1.031858071 0.9019658872)
(1733.166864 0.7036087376 1.499116912)
(1731.563343 2.419922874 1.716908614)
(1732.421362 1.510290247 0.2085666654)
(1733.627739 1.230448485 0.3372692676)
(1730.911044 1.374213433 0.8750996884)
(1731.516312 -1.184056703 2.265314186)
(1732.724484 -0.9920326367 2.173989103)
(1733.841229 -0.5839395605 2.069374846)
(1732.547463 -1.468496476 1.647689512)
(1733.310769 -2.578207674 1.029805455)
(1732.13892 -2.975594195 0.08668048369)
(1729.271241 -2.800590912 1.000632562)
(1728.026639 -2.278087531 1.012543403)
(1725.055678 2.234080419 2.233359629)
(1717.377444 3.682015949 1.416278554)
(1707.950814 7.668795704 3.368657095)
(1691.476249 17.04030526 2.827938887)
(1664.719025 29.91876979 0.7401345605)
(1710.379429 -1.085714028 1.533154194)
(1744.779528 -0.1589350824 -0.2774948293)
(1735.755118 0.2431173767 -1.356679468)
(1735.478729 -3.067072264 -1.417886572)
(1734.043078 -2.543012958 -0.7696138605)
(1734.639001 -1.916770134 -1.836201556)
(1736.232899 -0.6637787409 -0.9302000273)
(1737.204108 -0.4477772721 -1.743879531)
(1737.191808 -0.3570933837 0.6118651794)
(1734.221895 -1.677285764 -0.8289174806)
(1734.89154 -0.7910674753 0.9085796944)
(1734.161767 0.6823591685 2.033944375)
(1732.251017 1.894454762 2.868916408)
(1731.848377 1.35454804 3.223264141)
(1728.555114 1.428152761 1.996887648)
(1723.918351 2.707435004 -0.02212933208)
(1722.426217 3.862013581 -0.09478255578)
(1716.075653 6.144144498 -1.972791387)
(1706.125771 11.81193621 -0.617098736)
(1685.867396 23.62019733 -0.7966878988)
(1706.877785 -2.111660494 0.2939324592)
(1744.443858 -2.474821202 -1.361815747)
(1736.611672 -2.781043474 -1.969334216)
(1736.380069 -0.1383947933 -1.584178509)
(1736.984354 -0.06251965277 -0.5146157595)
(1735.07537 -1.450784897 -0.688806843)
(1736.211512 -2.947173349 -0.7202291861)
(1733.464178 -1.247686542 -1.298552634)
(1733.219896 1.297334669 -1.070177258)
(1733.255682 1.545028533 0.295433657)
(1733.710286 -1.160388357 -0.7039362043)
(1732.850085 -1.891949774 -0.6675920503)
(1731.768249 -0.998234827 1.519760899)
(1731.406987 0.2219486771 1.218554557)
(1730.397534 2.030443429 2.725497875)
(1730.340495 2.40123655 2.117910379)
(1724.866371 5.385561579 -0.811845945)
(1719.086442 7.5015839 -2.264589419)
(1714.589721 9.152395235 -0.967391835)
(1701.016502 17.7463188 1.804665717)
(1709.494456 -2.603446171 1.430626763)
(1744.675424 -1.482116245 2.045722996)
(1735.77942 -4.246799922 3.147479342)
(1733.835251 -3.444086339 2.065192642)
(1735.307168 -2.364069531 0.5460189945)
(1734.13166 -0.46888724 1.792300758)
(1733.27132 0.3330773072 2.244769757)
(1732.807246 0.9886262911 0.213906859)
(1732.228284 0.4215679767 -0.504498969)
(1734.643048 0.05099233595 -2.002464555)
(1732.573529 0.3283584058 -1.31410189)
(1733.068984 3.187543314 -2.437271576)
(1733.644704 2.476022633 -3.700153737)
(1732.873301 2.213663779 -4.753072949)
(1732.175326 2.097999384 -4.532677336)
(1732.087932 -0.593991428 -4.580517204)
(1727.675326 -0.3425192706 -3.820332521)
(1725.698354 2.389364443 -3.307597317)
(1718.6621 6.558877522 -3.13242336)
(1707.859617 14.86523598 -2.956579496)
(1704.308542 -1.393738194 0.2982092126)
(1742.412567 -0.1592917896 0.02898199616)
(1734.739347 1.840237312 1.162897682)
(1735.290071 -0.3325741348 1.585112466)
(1734.655664 1.984823565 1.689636448)
(1735.011418 0.6865869465 -0.7887524965)
(1736.666126 0.2902574203 -0.8593153148)
(1735.478895 0.1556564196 -0.7325742165)
(1735.993576 -0.7448712163 -0.02135255567)
(1736.675613 0.7778453867 0.07932053331)
(1738.218719 1.564620307 -0.5755473619)
(1738.850326 0.04510109033 -1.021253213)
(1736.650455 -0.3140078801 -2.259648614)
(1734.967197 1.051165665 -1.204322438)
(1736.121601 1.865644526 -2.3136169)
(1734.936701 0.2506579772 -0.4482609845)
(1732.176908 1.016743794 0.1253867631)
(1731.959659 1.643242774 0.7445378182)
(1725.365108 5.056894696 0.1739620515)
(1718.834486 8.253980591 1.057643908)
(1708.227831 -0.3815827502 -2.137167563)
(1743.829747 0.703561525 -2.493714334)
(1735.957826 0.708557601 -3.14076523)
(1735.670473 1.723689773 -3.102780928)
(1735.264956 2.015782388 -3.300435894)
(1736.768298 2.182907632 -1.751546675)
(1736.634077 1.352415672 -0.8435654776)
(1736.307481 0.9244589403 -1.432204088)
(1737.573704 1.217819537 -1.895827941)
(1736.392221 -0.8266791579 -2.102489298)
(1736.918892 -4.16128652 -0.3290879508)
(1736.678283 -3.463235666 1.018879499)
(1737.141107 -2.265400547 1.066312029)
(1734.995356 -2.698826726 0.3371858009)
(1737.487391 -3.203533936 1.328101986)
(1735.234815 -0.3106690461 -2.486615981)
(1738.471154 -0.3054032149 -2.181050652)
(1735.184173 3.640664388 -1.473141941)
(1730.139084 4.920919066 -2.007063534)
(1724.578068 7.600434986 -4.122392969)
(1712.177778 -0.6433250657 -1.764725864)
(1750.074581 0.4009329317 -0.1805228735)
(1740.656412 1.541963713 -1.903130502)
(1740.063218 0.7822866903 -1.084291167)
(1740.36403 -2.071596186 -1.749461421)
(1739.966599 -2.018538005 -2.153216773)
(1739.033255 -1.335332515 -1.253955794)
(1740.206736 -2.440926525 -0.7813516743)
(1738.938353 -1.321227367 0.7235445362)
(1738.263029 -0.9452855931 -0.9212539896)
(1737.98035 -1.976179923 -3.101554529)
(1737.427301 0.2424800659 -2.638864011)
(1736.11293 0.7268008267 -1.63015337)
(1737.201631 2.051388844 -1.571062948)
(1737.030957 1.364196119 -2.411965219)
(1735.394383 1.79552629 -1.102276246)
(1731.884872 1.816037568 -1.789166289)
(1731.563296 0.5889249718 -2.051406922)
(1729.03678 1.320114332 -2.175272783)
(1724.654437 7.746109625 -0.7063155009)
(1708.844668 1.086879896 1.738517805)
(1746.717596 -0.3847436828 -0.09107074968)
(1737.398749 -3.229095705 -0.1558004524)
(1736.588074 -3.190330168 1.19479204)
(1736.029537 -2.324948284 0.3564822586)
(1735.700108 -2.668164897 0.3510827217)
(1736.073128 -4.51366534 0.6951032947)
(1737.686787 -3.218079788 -1.058629364)
(1738.53697 -1.96930532 -3.261948544)
(1738.450736 -0.1564772171 -2.036549204)
(1739.149709 1.239256081 -0.5996206289)
(1739.826812 2.437663199 -2.591374015)
(1739.781762 4.713978245 -2.217465966)
(1737.11447 3.121035853 -0.9012782317)
(1736.48795 2.203376542 -2.502689314)
(1737.834562 0.679574259 -0.5407256669)
(1737.133204 -0.9782855614 -0.8781375203)
(1736.159441 0.6739579489 -1.632428725)
(1732.709744 2.711971252 -2.31254526)
(1731.627397 2.587897509 -1.530124659)
(1711.119038 -3.489280354 0.1292148461)
(1746.648982 -3.248657381 -1.025235245)
(1737.981141 -2.572360623 0.7856487629)
(1738.110537 -0.813249933 -0.9676734013)
(1738.426008 0.5861109945 -0.6088607168)
(1739.01026 2.300896959 -0.4389798598)
(1738.983905 2.902281267 -3.457187364)
(1738.426799 1.925126733 -2.07552138)
(1738.266338 0.2457245893 -0.8049549563)
(1739.045704 0.05642895261 -0.5778024478)
(1736.155354 1.260336388 1.534801001)
(1736.182808 -1.612056303 -0.0662252858)
(1735.699704 -4.658680933 -1.632437572)
(1737.172209 -4.052808085 -1.585020795)
(1736.023396 -0.1973707093 -1.447241364)
(1735.77249 3.535468804 -2.139606957)
(1734.594383 3.185716167 -1.821538707)
(1735.090885 0.8681278965 -3.012359055)
(1731.353353 2.417467327 -1.729343457)
(1728.982892 2.344867928 0.3969969779)
(1709.830912 -1.779679012 -2.332136166)
(1746.805327 -1.322745757 -1.029913192)
(1737.815017 1.308295462 -0.7176749085)
(1736.864549 0.4901955764 -2.601011466)
(1736.991679 1.158135875 -3.818069032)
(1738.339396 0.8192055606 -3.357052953)
(1737.274361 -0.4550934194 0.3846620395)
(1737.152042 0.4276103476 0.6588866205)
(1735.550219 -0.7769552669 0.6982445292)
(1737.236569 -1.367817032 0.1406629163)
(1737.572989 -4.00427944 -2.138588911)
(1736.739475 -1.267940802 -1.027202412)
(1735.804511 -0.5822591196 0.2497483777)
(1735.139033 0.4603567248 0.02644301863)
(1734.645958 -0.4992411595 1.612702344)
(1734.190749 -0.832224831 1.261061537)
(1732.73523 1.278518164 1.619199857)
(1731.410669 2.015141176 0.8781006809)
(1730.226328 2.601499344 0.01152970213)
(1732.759323 2.506164243 -1.629851194)
(1710.439464 -0.7251231381 0.07733443902)
(1748.388485 -1.378223488 -2.20159383)
(1739.915547 -3.722601811 -2.534849615)
(1738.209264 -2.312708981 -0.7651720896)
(1736.745196 -3.571270867 0.7498382229)
(1735.329145 -1.995921751 0.3696905103)
(1735.15326 -2.290466509 -0.7555505558)
(1733.567234 0.1544703187 -1.500506993)
(1732.172465 2.225891216 -1.922819493)
(1733.935646 0.8614941251 -0.06166547481)
(1734.721164 1.785362606 0.2054352367)
(1735.157366 0.51839695 0.07182689481)
(1735.932546 0.2241526482 -0.4726428057)
(1736.436936 1.000259644 -0.6760146499)
(1735.527503 1.714390497 -1.748066885)
(1734.810166 1.923709642 -2.544803842)
(1734.708189 -0.3651552619 -2.918111507)
(1734.220046 1.629831755 -0.9585791073)
(1732.498844 2.63891817 -1.231710631)
(1731.981898 0.3899706265 -0.6870093108)
(1705.724456 2.018602406 1.187485026)
(1743.01384 0.4828196043 0.06935157601)
(1733.839665 2.015901205 0.2437869139)
(1733.487469 1.338145489 1.838032106)
(1733.729666 1.460064678 1.409940623)
(1734.54893 0.8821771484 -0.6588093793)
(1735.086919 0.991051624 -0.4113756011)
(1736.925286 -0.6937258686 -0.8352114)
(1736.807878 -1.482924338 -0.1602118599)
(1733.971327 1.301313768 -0.0835141406)
(1732.972377 1.519626163 2.335005721)
(1734.060236 1.603076516 2.693690424)
(1732.548011 0.8404732349 2.936814622)
(1732.068255 -0.1749457483 2.916101196)
(1733.802171 -2.883017556 3.070306433)
(1734.090012 -2.332484223 2.996677)
(1735.530545 -2.718747853 5.262990553)
(1733.221396 -3.325803855 3.988099077)
(1733.213533 -0.8251602175 4.014962021)
(1731.947998 2.459371429 4.244325269)
(1707.551524 1.584680884 1.806984721)
(1743.197144 3.670968941 1.477894268)
(1733.320227 2.865733223 1.393608607)
(1732.990155 3.242696335 0.03445537937)
(1733.930331 1.114079087 1.150021456)
(1734.734403 -0.3113251246 2.716905495)
(1735.254586 0.6087095304 3.73448899)
(1735.307198 0.22955276 4.109848589)
(1736.754493 0.3607413658 1.860069653)
(1736.950327 -0.6378233848 1.479740845)
(1738.433329 -2.177971832 -1.227387244)
(1735.611642 0.2387379476 -1.412413249)
(1735.958432 -0.5377698175 -0.8424380599)
(1735.44461 -2.035408213 -0.6372160155)
(1736.543872 -0.4057039684 -0.1460696339)
(1734.483831 -1.139644561 1.225601094)
(1734.424385 -0.8004970387 0.9244286556)
(1736.456448 1.197465366 0.4831143531)
(1735.590684 0.9874716058 1.459470625)
(1734.370453 1.215813673 1.255562285)
(1707.833635 1.766778549 4.604804276)
(1744.170217 1.234714166 3.50037019)
(1737.874463 2.101422889 3.190442338)
(1738.212203 0.5036297483 1.031655251)
(1739.266087 1.659626043 0.657526937)
(1739.020046 2.960459936 0.7700556378)
(1737.598524 2.984504888 -0.5400736476)
(1736.427924 1.985194842 -1.79902675)
(1736.51356 1.344143475 0.2608641681)
(1735.678174 1.101009561 0.4468433233)
(1736.127672 -0.6499764041 1.124579403)
(1736.773571 -0.2239898574 2.300223213)
(1739.358532 -0.214457311 1.875753688)
(1739.841985 0.8974617131 2.74335144)
(1738.565114 0.5577904609 1.848852677)
(1738.520556 4.343671418 -0.8057667282)
(1737.119853 2.89476615 -2.646508438)
(1736.864696 0.711074754 -1.343700918)
(1736.488696 0.02653447865 0.1565705194)
(1735.841927 -1.060277595 0.4694798101)
(1708.407708 -1.195445725 -1.056726851)
(1745.404979 0.05148361444 -2.119647104)
(1734.780098 -0.07812531618 -1.770436745)
(1732.060848 -0.831228149 -0.5585096833)
(1731.930506 1.180000759 -1.01741054)
(1730.993436 1.564128417 -1.303393087)
(1734.023824 -0.06104926809 0.6898060101)
(1734.706373 -0.3565734002 3.305109176)
(1733.765172 0.5492829599 2.078240166)
(1733.661957 1.470029859 3.689193167)
(1732.5631 2.865590894 3.230847239)
(1732.909502 0.9371745695 3.277251414)
(1733.459853 0.9717056185 1.082522509)
(1734.175612 1.555322963 1.515829621)
(1733.940049 1.482338968 0.6567048511)
(1734.174376 -1.683720216 0.7087242877)
(1734.259315 1.220130054 1.206357692)
(1731.84272 1.093679416 0.4036080506)
(1733.697335 0.7092396791 -0.04753581298)
(1734.512296 0.4286608263 -1.717762867)
(1712.352148 -0.7030055084 1.225939376)
(1750.324852 -1.036615396 2.286010358)
(1739.920433 -0.05950259669 4.415783546)
(1740.570628 0.05183389371 3.836110659)
(1741.75796 -0.4366501769 5.653982166)
(1741.731512 0.5707350445 6.293259477)
(1739.026609 0.5684497888 4.266070889)
(1737.952054 1.412250652 2.87720198)
(1738.885334 0.9711650103 0.306152383)
(1739.602478 -1.543289658 1.334028208)
(1738.789398 -1.836921966 1.864334202)
(1739.660014 -0.241687812 2.714068362)
(1737.150111 -0.9791976538 3.833396103)
(1735.238716 -0.2803573689 3.626305223)
(1735.929922 -0.4711929364 2.434508738)
(1735.932138 -0.02623424378 2.754840689)
(1735.522859 -0.07798019364 3.095945645)
(1736.583297 0.2800269591 3.515981337)
(1737.599165 0.8005385742 3.485023568)
(1737.800683 2.883990752 2.625990869)
(1708.601846 1.870502621 -0.2920838723)
(1745.090479 0.06542500172 0.92579916)
(1738.776522 -0.9045202968 0.4141495075)
(1738.710527 0.559878747 -0.02072600769)
(1736.097228 0.1504286397 -0.2073260223)
(1735.956502 -2.614221435 -0.5186068756)
(1735.956879 -0.2854800615 -0.1678991635)
(1735.034016 -1.96132376 -0.2537367106)
(1735.210912 -1.381689428 0.2393072998)
(1735.884973 1.847518345 0.6754377834)
(1736.217656 2.588671989 -1.532268331)
(1734.985815 -0.5733282352 -1.170561047)
(1736.294279 -0.7641026015 -0.8426845085)
(1737.625869 -0.3579698549 -1.584134908)
(1735.809996 -2.336700639 -1.307488855)
(1735.737883 0.6613523038 0.01351094445)
(1736.359749 1.315838085 -0.7420778406)
(1735.723012 1.540774312 -0.49094458)
(1735.256813 0.3532184529 1.456266144)
(1734.234841 0.5479282862 0.9029512007)
(1707.861948 -0.7445623475 1.082636723)
(1744.667103 1.517638136 -0.08215529378)
(1735.104788 0.9650424409 -0.05153091012)
(1733.763218 -2.741387125 -0.0824670006)
(1734.441911 -2.786787619 0.466521358)
(1733.063959 -2.592775071 0.07546790474)
(1734.939854 -1.676861741 0.8016255202)
(1737.292862 -0.5074227797 0.7196723654)
(1736.738882 -0.3334875944 -0.2617919949)
(1734.862244 0.2541348761 -0.03795183694)
(1735.383096 0.07983116781 1.237833571)
(1736.995438 1.089997351 1.125312584)
(1736.915154 1.836216315 0.7717562073)
(1736.7509 3.359394707 -0.4492329407)
(1737.120536 3.727927322 -0.2381795831)
(1736.888723 2.649918074 0.4196881046)
(1734.827292 0.09072961968 0.9790727898)
(1737.528002 0.8894530892 1.56632093)
(1736.154414 2.318578295 1.945170779)
(1737.809589 3.398494483 0.9866321833)
(1709.748255 -3.489861599 0.4306984243)
(1744.305457 -2.935713393 0.2197053599)
(1737.092384 -3.140967027 -0.1036915336)
(1733.18836 -0.9683047203 -0.254996322)
(1736.004839 -0.458494661 -0.8526790523)
(1734.793993 1.044708002 0.655677603)
(1735.263674 -0.7182122515 -1.701130578)
(1734.342221 0.6007643972 -1.027054493)
(1736.196055 -0.9896477665 0.7507744653)
(1737.087831 -0.09597609135 -0.04033565966)
(1737.134031 -0.8031834251 -2.064988045)
(1736.15341 1.517765312 -1.123458843)
(1738.204503 1.400184635 -1.725509806)
(1735.919878 0.5457951709 -0.3735647952)
(1734.291746 1.437894828 1.466503739)
(1736.819205 1.831418771 2.685548806)
(1736.577864 1.617555542 3.285247668)
(1736.21489 2.985711523 2.737215212)
(1736.519801 2.037352181 1.824440656)
(1734.850345 -1.005816606 -0.07203694747)
(1713.731909 0.03145616806 1.510675595)
(1751.007813 0.1337139996 1.39717713)
(1740.299993 0.7671956836 1.424931657)
(1741.74125 -0.9811962449 0.6236173908)
(1740.318924 -0.7673852399 -0.6507097606)
(1740.001886 -0.1073286385 0.6730129286)
(1737.619072 0.7468420983 1.6501728)
(1736.464468 -1.485312315 1.226813961)
(1735.559869 0.4412959788 2.434324997)
(1736.928892 0.2046330065 2.813436533)
(1737.570901 0.4580495533 3.377162844)
(1737.173536 0.2205161806 1.329620357)
(1737.465939 0.1730215805 1.780713747)
(1737.452572 1.833505767 0.997251745)
(1739.466668 -0.8675901425 -1.021298332)
(1736.515898 0.4377755024 -1.813341573)
(1737.687954 3.290039633 -2.049628824)
(1737.822286 -0.3992456979 -1.641312014)
(1737.827177 -1.209783301 -1.506597213)
(1737.911339 -0.7659455246 -0.4686775336)
(1707.080892 2.944251932 0.8285838018)
(1745.417597 1.852595177 0.5876957424)
(1738.546045 1.33320568 0.3615137483)
(1737.410235 0.7149867154 1.712268526)
(1737.14076 0.2814872865 2.212998957)
(1737.215683 1.124459354 1.384258142)
(1737.122995 0.3624844547 1.524387317)
(1738.170814 3.476373293 0.7462396737)
(1737.604771 1.570848391 -1.765201898)
(1738.134403 1.040445028 0.3901445516)
(1737.608753 0.6501560838 -0.4651146951)
(1737.359127 0.7111217949 -1.311074571)
(1735.320375 -0.6188691112 -2.367197395)
(1735.058068 -2.558214825 -2.007541292)
(1735.138464 -0.0821968367 -0.2018909756)
(1736.794752 -0.1042415607 -1.082946565)
(1734.222987 -2.281169613 -1.658086973)
(1735.028202 -2.010737632 0.6384334501)
(1734.95136 -1.174903239 1.176170273)
(1734.357539 -0.7893394708 0.6597215596)
(1711.781264 0.1994985105 -2.242449702)
(1746.590913 1.763263105 -2.599512884)
(1735.767419 3.056454886 -2.823320352)
(1735.467359 2.671961604 -0.9578916805)
(1734.997065 2.234904493 -1.964149276)
(1735.789287 -0.03830621239 -1.404177401)
(1736.259166 1.008656873 -1.573904292)
(1737.475362 -0.238802824 -0.5133821101)
(1735.632357 -0.6696911709 -0.4817372543)
(1734.571459 -0.5922789302 -0.9933468223)
(1734.901338 -1.28505363 -0.7871424885)
(1735.149665 -3.219688295 2.118736272)
(1736.945986 -1.988103921 3.024891183)
(1736.896342 -3.804501441 3.656211425)
(1734.254413 -4.513077644 1.294207303)
(1735.829042 -4.785328638 1.697359283)
(1735.857619 -2.640891862 1.543484499)
(1734.345585 0.09889542699 0.02081154747)
(1735.808848 1.152000256 -1.921075881)
(1736.342315 3.061811472 -0.7819538268)
(1705.965535 3.283359171 1.089374549)
(1744.421684 0.7610384326 -1.423799301)
(1736.585252 -1.013903266 -1.127391995)
(1735.038676 -0.7378712089 -1.430949986)
(1735.803549 1.72588312 -1.644113229)
(1736.838961 1.70712727 -1.410447762)
(1736.531853 0.2642734178 -0.7859881543)
(1735.094262 -0.6160691993 0.9205298517)
(1735.263239 -0.9746829206 1.350805756)
(1736.873292 -1.412871156 0.4354379661)
(1736.813996 -1.823351683 0.6153501616)
(1737.978187 -1.821448728 -0.1618284285)
(1736.302934 -0.7828366075 -1.450591793)
(1738.70613 0.7875218665 -2.357886931)
(1740.035012 1.184795243 -1.337526311)
(1738.198948 2.085579304 -0.4884553213)
(1739.605943 -0.3503905819 -0.3465084202)
(1737.307174 -0.2410797454 -0.7679000192)
(1737.440122 -0.3903475471 -0.07065500762)
(1736.290053 0.2979382705 0.01404057984)
(1709.040763 -5.605185162 -0.5637847469)
(1743.768685 -3.465832913 0.794463367)
(1737.044573 -1.98057182 1.917389732)
(1736.426757 -1.331560764 2.259859789)
(1735.52347 -1.726497817 1.988652676)
(1735.275179 -2.317619847 2.382929474)
(1734.925603 0.08636320337 0.9042970021)
(1735.413676 1.073288684 -1.47017498)
(1736.448067 0.9043452562 -1.848011423)
(1736.510561 1.780647506 -0.5866688021)
(1736.235347 2.384640781 -1.702204074)
(1737.441361 3.198714527 -0.8226101155)
(1736.751922 2.117639838 0.8216136773)
(1735.917199 2.213054524 0.8434245255)
(1736.911324 3.029277304 1.560387851)
(1736.647109 4.786978523 -0.2798068517)
(1735.712977 4.043556519 -1.345393088)
(1736.851052 4.226604465 -0.2188982979)
(1736.700315 2.156026928 -0.7634556079)
(1736.608536 -0.5809009562 -0.1337457177)
(1707.170198 -4.162284505 -2.953559396)
(1743.369666 -3.349207777 -0.7732167189)
(1734.572222 -2.41535484 -1.326204748)
(1734.524652 -2.333726714 -2.303280269)
(1733.853137 -1.992851702 -3.533140122)
(1734.425724 -0.9584290553 -3.79945337)
(1737.463202 -3.840870618 -3.187353617)
(1737.055356 -0.7923140476 -1.565866153)
(1735.251 1.037601785 -2.292586593)
(1735.866738 2.614685793 -0.8061300148)
(1738.302798 3.082218611 -0.6632414045)
(1737.345282 3.092025387 -0.4518708463)
(1737.728494 4.232600979 0.03610755174)
(1738.263622 3.234465959 0.353846333)
(1736.728657 3.616589532 -0.8374760679)
(1737.096436 1.322199918 -0.7647287293)
(1736.055753 -0.3142629785 0.2465666243)
(1736.597373 0.4819746124 -1.12824012)
(1736.31705 0.9554259213 -0.4982899804)
(1735.702577 1.674223147 -0.841540971)
(1707.899537 1.600344971 -0.7420618585)
(1746.481348 0.05042249752 -2.615633099)
(1738.391307 0.3857844396 -3.664930244)
(1737.777304 -0.5968519174 -3.447519659)
(1738.374833 -0.9489392419 -1.639625153)
(1736.955177 -0.03008345768 -1.185932506)
(1736.470559 3.154956048 -0.7053698916)
(1735.825716 1.355448495 -0.8663758269)
(1737.870286 -0.8695372645 -0.7006734537)
(1736.362372 -1.638733438 0.1882657111)
(1735.573462 -4.676691495 -1.275678071)
(1738.086239 -2.711858016 -0.1004879651)
(1736.874364 -3.002582261 -1.285924432)
(1735.149783 -3.338251727 -1.719399262)
(1735.262306 -1.946763022 1.637575642)
(1731.885509 -0.8512070684 1.006778295)
(1733.013984 -0.1861427922 2.242387246)
(1733.646856 -1.990625482 4.491041285)
(1734.511595 -2.302601621 4.659035514)
(1733.532039 -2.389216645 4.085025124)
(1705.629484 -0.7781176728 -1.285761652)
(1741.203196 0.05410318143 0.5269501123)
(1733.135093 -0.5507581944 0.4899283618)
(1730.156226 0.02076588623 1.310861204)
(1732.77478 -0.2633252537 0.01101928407)
(1733.12442 -1.471696685 0.6768457238)
(1733.147606 -3.091395927 0.1204552173)
(1732.384859 -3.236789198 -1.211048237)
(1734.308776 -2.318773012 -0.3270361507)
(1735.009753 -3.052996354 0.05850493904)
(1734.815127 -0.6962708703 -0.230829946)
(1734.800249 0.9294423295 -1.280598062)
(1734.000008 1.113328584 -0.9893401045)
(1734.421405 -2.18019775 -2.283717367)
(1733.506844 -4.025347016 -2.870255724)
(1733.898002 -3.712030132 -4.105050339)
(1732.869563 -2.5780879 -5.006629223)
(1732.792575 -2.471178645 -2.90725787)
(1733.552699 -0.2141780109 -5.018413739)
(1733.270808 -0.8667754358 -4.470795896)
(1708.213075 -0.9886505299 -0.203866677)
(1744.991379 -0.6374670524 0.09200101271)
(1736.640795 -1.863370518 -1.91183721)
(1736.933621 -0.748695179 -1.751144167)
(1735.566184 -1.35940846 -0.4962593574)
(1734.575568 -0.2701723057 -1.575158223)
(1734.153225 -1.02441136 -3.666845119)
(1736.697535 -0.8201460558 -1.562884324)
(1734.335879 -1.765142678 -3.741625162)
(1734.954321 -2.582859303 -3.04762499)
(1734.81084 -3.15399708 -2.532731513)
(1734.261222 -4.205615982 -2.786833569)
(1734.301124 -2.595087248 -3.826270532)
(1733.805497 -2.060094397 -3.185331126)
(1734.032677 1.125054813 -3.219800051)
(1735.253435 0.4275284769 -3.502161095)
(1735.811198 -0.2910180497 -4.636445906)
(1733.140274 -0.7969462806 -4.619728259)
(1734.369229 -1.778936125 -4.220356163)
(1735.528825 0.05929917405 -5.77347891)
(1711.066454 2.508855996 -0.6836904701)
(1747.542655 1.552881018 -0.5597304301)
(1740.18673 2.102473231 0.8624493237)
(1737.892781 -0.3008802339 -1.860724612)
(1739.071605 -2.139185313 -1.914398178)
(1738.347803 -3.766860376 -1.668133177)
(1739.293774 -2.425589672 -1.100074086)
(1738.339449 -1.895844393 0.7278133267)
(1739.029116 -0.1384143589 0.5727097407)
(1738.727788 0.9218425353 0.3277376339)
(1736.985251 -0.9179132037 -0.3287248257)
(1736.917148 -1.560885461 0.6082708475)
(1738.621086 -2.015602005 1.318086666)
(1738.604403 -1.907757742 0.768644677)
(1737.409756 -3.124138479 2.464641925)
(1738.347266 -1.560024392 3.578382373)
(1737.811106 -0.05126196334 3.426353777)
(1738.513245 -0.4274619439 2.607376791)
(1738.837363 -0.01476865882 2.762689858)
(1737.241773 2.967985213 2.619863039)
(1704.883512 -1.558088905 1.209372804)
(1741.826881 -2.565207351 0.5992646967)
(1732.257264 -4.581856409 0.819734407)
(1733.726516 -2.507124849 2.866989706)
(1733.198548 -0.80748044 2.674073099)
(1735.140231 1.654488354 3.912733216)
(1733.994593 1.683682791 3.65657624)
(1733.185039 0.07961822703 0.6211332949)
(1733.052649 -1.379051188 -0.8439375688)
(1733.324304 -1.250366298 0.5920407994)
(1733.059235 0.6034246078 -0.4729603762)
(1732.068089 -0.02722642828 -0.9389716517)
(1731.069333 1.398460031 0.5390362417)
(1731.318054 1.392478475 -0.8344006178)
(1731.79373 0.947428992 -0.499089031)
(1731.252729 -0.330274511 -2.111253846)
(1731.890408 -0.5976742037 -2.156431947)
(1732.286799 -0.2430724829 -2.365060698)
(1732.871482 -2.574255654 -0.411500286)
(1731.368958 -2.959375822 -0.9286435162)
(1708.528414 -0.7877980224 2.327274826)
(1743.969651 -1.010819846 3.228644435)
(1736.75789 2.529825343 3.838717244)
(1737.830566 3.884360539 2.601645419)
(1736.057896 2.753421042 3.056717734)
(1735.867931 0.3851385656 3.283441412)
(1733.335067 -0.4620508859 2.257622634)
(1734.352017 -0.07999996372 2.214464525)
(1733.507898 1.516889367 3.697526469)
(1731.854736 0.02975983791 3.303620092)
(1733.484875 -1.773067189 3.01989787)
(1734.428778 -0.3117387768 3.172807105)
(1734.143783 -0.008913494828 1.641152979)
(1734.298281 -2.828527365 0.9736821793)
(1734.625625 -1.49100507 1.825901029)
(1735.840404 -0.4705286193 1.706772846)
(1735.124445 -1.602570884 2.672900047)
(1735.720879 0.2194911558 1.845052843)
(1736.747375 1.153575561 1.280436792)
(1735.566522 1.9705647 0.9193091346)