/*--------------------------------*- C++ -*----------------------------------*\
  =========                 |
  \\      /  F ield         | OpenFOAM: The Open Source CFD Toolbox
   \\    /   O peration     | Website:  https://openfoam.org
    \\  /    A nd           | Version:  7
     \\/     M anipulation  |
\*---------------------------------------------------------------------------*/
FoamFile
{
    version     2.0;
    format      ascii;
    class       volScalarField;
    location    "0.001";
    object      internalEMean;
}
// * * * * * * * * * * * * * * * * * * * * * * * * * * * * * * * * * * * * * //

dimensions      [1 -1 -2 0 0 0 0];

internalField   nonuniform List<scalar> 
546
(
0.3240972755
0.4089532378
0.40960003
0.4132661765
0.4213073391
0.429936579
0.4281301632
0.4289396841
0.4345842738
0.427150594
0.4355145752
0.4405880808
0.4223181754
0.4219844
0.4194307604
0.4065182752
0.3850109478
0.3904368948
0.4088612426
0.4197608742
0.3169647991
0.4135707052
0.41992491
0.4231096324
0.423706962
0.417866814
0.4231075501
0.4218220287
0.4199517865
0.4143628866
0.4215386327
0.4130330315
0.4122456079
0.4225703924
0.4232137004
0.4344029509
0.4456169914
0.4477679021
0.4324059089
0.4244954092
0.3119076717
0.4023910042
0.4022690844
0.4090154569
0.4148139675
0.4157692807
0.4027003704
0.4034062346
0.4049919201
0.4147727397
0.4005861299
0.3991845278
0.4113305172
0.4050639748
0.4032450096
0.4005765127
0.3924931054
0.3884306604
0.396247284
0.4014161159
0.3114665001
0.4031657465
0.4067255463
0.4052890781
0.3973958959
0.4111966651
0.4177650596
0.4075192722
0.41111863
0.4086982401
0.415545504
0.4150165232
0.4104845183
0.4038166288
0.396939623
0.3924197755
0.3949364614
0.4001327221
0.4096928851
0.4060201473
0.3322427723
0.4335485007
0.4341867211
0.4183199344
0.4066471081
0.3983784451
0.3857072584
0.3885964619
0.3893295376
0.38228286
0.3810893838
0.3846018458
0.3852627056
0.3931778988
0.413598124
0.4223018934
0.4338873056
0.4361717132
0.430850788
0.4295192229
0.3176804127
0.4122430121
0.4113919037
0.409709569
0.4210078649
0.4186704879
0.4228231151
0.4216351335
0.4140444632
0.421247563
0.4223189954
0.4197755172
0.4241592439
0.4232106022
0.4174735378
0.4080396278
0.4067220626
0.3954956796
0.394804781
0.4023035419
0.3207604882
0.4162644943
0.41895178
0.4195052045
0.4212488767
0.4236556119
0.4289838093
0.4267698154
0.4337953427
0.4241464065
0.4211685342
0.4251093449
0.4214788927
0.4191754833
0.4251369337
0.4156317536
0.4184148436
0.4310530546
0.4336897931
0.4219014295
0.325806684
0.414009912
0.4202525035
0.4266225405
0.4241780799
0.4294173425
0.4273384266
0.4272955713
0.4267541302
0.436637306
0.4352870023
0.4315524258
0.4372520552
0.4262444858
0.4267378381
0.4332926253
0.4306955006
0.4275159754
0.4217059956
0.4330433664
0.3217725001
0.3956216603
0.4022856306
0.404813742
0.4015060456
0.3893245149
0.4084692717
0.4102072388
0.4071575077
0.4058336989
0.4037571755
0.4189798944
0.4105587541
0.4157446352
0.4066994406
0.4056137292
0.4145278974
0.4209736253
0.4242961341
0.4288698266
0.3075641918
0.4075452866
0.407882122
0.4002985045
0.4045367454
0.423313093
0.4216719181
0.4153066813
0.4129985781
0.415789374
0.4237445631
0.406953281
0.4128867281
0.4218819316
0.4271246107
0.4162938233
0.4230964991
0.4161924662
0.4160066255
0.4083400588
0.3303754811
0.4339451665
0.4441609954
0.4413811509
0.4403567369
0.4352741188
0.4300066072
0.4330360485
0.4272714013
0.4215116786
0.418851613
0.4274424477
0.4278521039
0.411189292
0.4167839045
0.4245186256
0.4138375306
0.4152512243
0.4163029632
0.4132939025
0.3379928788
0.4197204265
0.4195238126
0.4119617535
0.4000773037
0.4074894204
0.4021734879
0.4044801437
0.4080232061
0.4167760608
0.4151400025
0.3978669298
0.3940244651
0.4024411612
0.3990801408
0.3978274299
0.3986959952
0.3951873119
0.3948017537
0.3877143107
0.3263865046
0.4120278126
0.4064864854
0.4170626086
0.4209490357
0.4195490797
0.4183640809
0.4293688871
0.4255796971
0.422552371
0.4286659001
0.4298596645
0.4187549561
0.4078861179
0.4148098151
0.4118503556
0.409914413
0.4115296118
0.4020549081
0.4125375311
0.3080978009
0.4026808068
0.4189873382
0.4003169013
0.4181406806
0.4191881357
0.4194161182
0.4062913689
0.4149181434
0.4016450554
0.4025832367
0.4088378549
0.4262603415
0.4260753112
0.4216816079
0.4274542781
0.4245891604
0.4234681887
0.4245768645
0.4209768903
0.3177732094
0.4112594123
0.4098583087
0.4044088973
0.393533105
0.3902358706
0.392102659
0.4117280065
0.4051889596
0.4206552606
0.4247277951
0.4308854365
0.4311725734
0.4252531416
0.4259404488
0.4215351416
0.4229595519
0.4341273277
0.4273026659
0.4302517849
0.3207250688
0.4082762771
0.4025892162
0.407806731
0.4098441243
0.4131951308
0.4162977145
0.4005596261
0.3997046508
0.3988122819
0.3911882438
0.3902950767
0.3886013347
0.3916170895
0.3956269156
0.4007742169
0.4079692382
0.41012456
0.4172546252
0.4034642088
0.3248152531
0.4232267437
0.4282348374
0.4165827938
0.4273243038
0.4240677433
0.4259665143
0.4328133266
0.4363926121
0.4421370613
0.4322184613
0.4189481877
0.4294250601
0.4272280868
0.4268068994
0.4119094945
0.4087287248
0.4146232694
0.4230303001
0.4281938985
0.3042314608
0.3982062453
0.4051658645
0.4018824295
0.4063446681
0.4108609439
0.4094342025
0.416957057
0.4097740771
0.4051399043
0.4166023978
0.4166151583
0.4284100522
0.4198863701
0.4152032457
0.4142272882
0.4131686068
0.4027488697
0.3959764199
0.392044216
0.4020270015
0.4088343229
0.4136022177
0.4135998016
0.4204960719
0.4185526426
0.419584543
0.4161130675
0.4232994282
0.4186446438
0.4153327091
0.4098060251
0.4102598663
0.4052412654
0.396828743
0.4010189305
0.422627596
0.4262498952
0.4114003345
0.4239189822
0.4274539978
0.4194693543
0.4193875554
0.4268279264
0.428613348
0.4123207282
0.4028810308
0.4094204589
0.4154735651
0.4124024178
0.4172463538
0.423961347
0.41252675
0.4032643357
0.4038875448
0.4141113183
0.4181149083
0.4104367291
0.4183574749
0.4109664354
0.4071952782
0.4005592172
0.4165927594
0.4184898464
0.4256572686
0.4248089498
0.4154987241
0.4005968905
0.3991700356
0.4067135115
0.4180130151
0.4282638186
0.4196461205
0.4173205955
0.4204061422
0.4192855437
0.4144016493
0.4220193651
0.4308488557
0.4331244332
0.4104823628
0.403116345
0.4004784151
0.4023985086
0.3998609702
0.4051901083
0.4186627364
0.4115661396
0.4136902568
0.4007484022
0.4121992838
0.4112789927
0.4246288976
0.4259367819
0.4342435267
0.429978464
0.4259163958
0.4266441378
0.4324417093
0.4411055193
0.4380445518
0.4407049519
0.4431149417
0.4383036671
0.429434132
0.4206127552
0.4291280862
0.4445488581
0.4397840954
0.4456411645
0.433300407
0.4313004862
0.4144254307
0.4096897838
0.411971785
0.4219501054
0.4180025902
0.4050830734
0.4078480114
0.4082655162
0.3959922747
0.3974578856
0.4095700163
0.4105400323
0.4044699043
0.4092709381
0.4105198975
0.4028731615
0.4051269851
0.3984481157
0.3946166041
0.4049412837
0.3948645063
0.3861041094
0.3891524713
0.3897418993
0.3856746381
0.3886007558
0.3914336841
0.3939847455
0.3987616262
0.3833492342
0.3850523731
0.387916894
0.3898419349
0.3846360166
0.4013758747
0.4076484406
0.3987575466
0.4008152016
0.4048462531
0.4130818933
0.4072636767
0.4186036222
0.4276415462
0.4354941579
0.4300783086
0.428741557
0.4381540395
0.4344127499
0.4469160931
0.4388980866
0.4535439149
0.4553960712
0.441862624
0.4404113331
0.4356191578
0.4369197667
0.4259240932
0.4304570906
0.4327394096
0.440288781
0.4378165162
0.4267164053
0.4352802092
0.4414086532
0.3899615263
0.3996620543
0.4113719553
0.4109702338
0.406757005
0.3967568716
0.3991548288
0.4077696613
0.4041756121
0.4025804779
0.4323962403
0.4311810635
0.4268131582
0.4252838408
0.4309023318
0.4308456861
0.4219899663
0.4279006125
0.4052575197
0.4130686713
0.3886340463
0.3980725852
0.3958743205
0.4004550301
0.4058874989
0.4075929837
0.4112494796
0.4174171143
0.4231705159
0.4177456661
)
;

boundaryField
{
    flow
    {
        type            calculated;
        value           nonuniform List<scalar> 
48
(
0.3240972755
0.3169647991
0.3119076717
0.3114665001
0.3322427723
0.3176804127
0.3207604882
0.325806684
0.3217725001
0.3075641918
0.3303754811
0.3379928788
0.3263865046
0.3080978009
0.3177732094
0.3207250688
0.3248152531
0.3042314608
0.3042314608
0.3982062453
0.4051658645
0.4018824295
0.4063446681
0.4108609439
0.4094342025
0.416957057
0.4097740771
0.4051399043
0.4166023978
0.4166151583
0.4284100522
0.4198863701
0.4152032457
0.4142272882
0.4131686068
0.4027488697
0.3959764199
0.392044216
0.3886340463
0.3980725852
0.3958743205
0.4004550301
0.4058874989
0.4075929837
0.4112494796
0.4174171143
0.4231705159
0.4177456661
)
;
    }
    obstacle
    {
        type            calculated;
        value           nonuniform 0();
    }
    frontAndBack
    {
        type            empty;
    }
    procBoundary2to0
    {
        type            processor;
        value           nonuniform List<scalar> 
31
(
0.3219971165
0.4186881389
0.4179775115
0.419029426
0.413002871
0.4156589356
0.4155764375
0.4111486021
0.4186934046
0.4262386475
0.4205865674
0.4137132358
0.4255475438
0.4200265844
0.4155837759
0.4168556353
0.4243025749
0.4256987107
0.4091171487
0.401539576
0.3977856197
0.3908427351
0.4045239576
0.4181008461
0.4122873083
0.4109842857
0.3932779736
0.3957234028
0.3941349585
0.4020058448
0.4020058448
)
;
    }
    procBoundary2to3
    {
        type            processor;
        value           nonuniform List<scalar> 
19
(
0.4098059375
0.4120897311
0.4039303469
0.41204687
0.4260298172
0.4288628519
0.4139171582
0.4303335176
0.4108845672
0.4164316255
0.4051655933
0.3812527329
0.396897423
0.4368102243
0.4466921399
0.4349101816
0.4024495579
0.4186244385
0.418692184
)
;
    }
}


// ************************************************************************* //
