/*--------------------------------*- C++ -*----------------------------------*\
  =========                 |
  \\      /  F ield         | OpenFOAM: The Open Source CFD Toolbox
   \\    /   O peration     | Website:  https://openfoam.org
    \\  /    A nd           | Version:  7
     \\/     M anipulation  |
\*---------------------------------------------------------------------------*/
FoamFile
{
    version     2.0;
    format      ascii;
    class       volVectorField;
    location    "0.001";
    object      momentum;
}
// * * * * * * * * * * * * * * * * * * * * * * * * * * * * * * * * * * * * * //

dimensions      [1 -2 -1 0 0 0 0];

internalField   nonuniform List<vector> 
546
(
(0.000413920585 -0.0002680938595 -0.0002523999922)
(0.0001001801194 0.0002694511273 0.0002678854648)
(-0.0003666025341 0.0002006731604 0.0004130912047)
(0 0 0)
(0.000637676653 0.0002848881716 0.0007223409931)
(0.000437205957 -1.104216492e-05 -0.000148545278)
(0.0009466512227 0.0007189059513 -0.0004434880764)
(1.077132277e-05 0.0002926040348 0.0002736957578)
(-4.91046704e-05 0.0003699408073 -0.00063869312)
(0.0008309509009 0.0004131081335 0.0003799564455)
(0.0002673692386 -0.0004250954885 -1.367795682e-05)
(0.0005999447321 -0.0002925805574 0.0002166160882)
(6.594011444e-07 -0.0001032205792 0.0006234462083)
(-0.0003374914466 -0.0003079569015 4.020353574e-05)
(0.0005853686528 0.0001427908142 -0.0001319147103)
(0.0003314110527 -0.0001439861804 5.403784862e-05)
(0.0002388633715 0.0003560943121 0.0003416748585)
(-2.167336695e-05 0.0003951143885 0.0001327969006)
(4.820249213e-05 -0.0003367398998 -0.0005565485792)
(6.9585528e-06 -0.0002973083542 -0.0005138867263)
(0.0003049197897 0.0004155326301 -4.510751733e-05)
(5.101093872e-05 -0.0004058911723 -4.104913162e-05)
(-0.0002115626153 0.0005677043268 -0.0001505980836)
(5.707765922e-05 -0.0003368922299 0.0002932074864)
(0.0002427745357 -0.000158115678 9.179868106e-05)
(-0.0003823550942 -0.0002343210702 -0.0002126774925)
(0.0006345520042 0.0003499053005 0.0001348927171)
(0.0009399750277 0.0008310259062 -0.0002331463146)
(-0.0007171762768 0.0001327775746 0.0001353381631)
(0.000149955997 -0.0006268064707 -0.0003195701998)
(0.0003140351942 -0.0005164957045 -2.694927891e-05)
(-0.000301370893 -0.0001664671627 -6.645720132e-05)
(0.0004743900484 -1.609087181e-05 0.0002735721263)
(0.0005053849495 0.0006331058611 -8.508069589e-05)
(0.0002046536822 -0.000614002453 -3.854144593e-05)
(0.000912810349 -0.0004286564012 0.000716087852)
(0.0001828421473 -2.326174347e-05 -0.0002028425814)
(0.0004598562421 -0.00034418806 5.007629223e-05)
(0.001329084182 0.0002579858351 0.0006062579723)
(0.0004276215554 -0.0007975328443 -9.670252709e-05)
(0.0001713058026 0.0003605388296 -0.0005605182059)
(0.0001498221317 -0.0001760815145 0.000272970805)
(0.001517771839 -0.0004159377608 0.0004883732761)
(0.0009737915844 -4.839248323e-05 -0.0003582250522)
(-7.495070236e-05 -0.0004651781022 -5.080973779e-05)
(-0.000109182182 -2.766617228e-05 -0.0005928144474)
(-1.750791959e-06 -0.0005345919439 0.0001093296502)
(0.0007914966268 -2.753274703e-05 -0.0001132562465)
(0.0005811023055 -0.0009888710824 0.0005081147504)
(0.0006628580037 0.000309110282 -0.0007750957885)
(0.000129006122 0.0006177803322 -0.0002154450614)
(0.0004184803457 0.0001296664846 -0.0001634596005)
(0.0003335743923 -0.0002479625163 0.0005611500297)
(0.000949628813 -0.0004431894375 -0.0004242458065)
(-0.0002795457844 -0.000440528057 -0.0008326270816)
(0.0002214445837 0.0004215597907 -8.522242202e-05)
(0.0009407624996 -0.0003469935129 0.0006725147307)
(0.0003191109534 0.0004317350853 -0.0006628978201)
(0.0001756268166 0.000410127927 -4.131362794e-05)
(0.0001154633801 -2.676792485e-05 0.000341102186)
(0.0002646727181 -0.0001528583208 2.246093394e-05)
(6.322159176e-05 9.044915627e-05 0.0002042796803)
(0.0003054069782 0.0003569995474 -0.0002079104796)
(0.0003495039587 -0.0002309215357 0.0006274918908)
(9.796619939e-05 4.83878073e-05 -0.0002516904576)
(0.0003331267147 -0.0002610076422 -0.0003584067223)
(0.000756798598 -0.0005807179928 -0.0006249919077)
(0.0001412132615 5.611489252e-06 0.0003754126239)
(0.0003217352592 0.0001113723702 7.875434306e-05)
(0.0001864767631 0.0004819941818 -0.0001992791579)
(0.001202112788 0.0007181650896 -0.0006209314563)
(0.0003553574836 9.503907182e-05 -0.0007341560088)
(0.001305653413 -0.0005671874548 -0.0005113689427)
(0.000122583313 -0.0003733283995 -0.0002322016394)
(0.0003480525177 -0.0003830206485 0.0001003993013)
(-4.681257073e-08 0.0001661228835 0.0002171645823)
(0.0004187344497 -0.0003126287723 -3.998891148e-05)
(0.001058987596 -0.0002771653259 -0.000522008855)
(0.0002506246596 -3.99963132e-05 0.0006720934593)
(0.0001946986142 0.0001431190675 -6.280998974e-05)
(0.0001447804445 -0.0003935223077 -0.0008146295672)
(-0.0004010660563 -0.0002408314066 -3.290163909e-05)
(5.172501506e-05 -3.525888128e-05 0.0007234178216)
(0.001457192513 -0.0002462527191 0.0002016444648)
(0.0001601066697 -0.0006759247753 -0.0002986845501)
(-0.0006123098639 -0.0002298660807 8.262364925e-05)
(0.0005110645633 0.0001514934501 0.000530744949)
(9.821206921e-05 0.0003160021281 0.0006057020388)
(0.0002130745729 0.001067896027 -2.357345199e-05)
(0.0003760013573 0.0002419946486 -0.000320560706)
(9.637030211e-05 -0.0004135554784 0.0006835654365)
(8.305024211e-05 3.305874436e-05 3.340821233e-06)
(5.610344754e-05 -7.593301857e-05 -0.000102063844)
(0.0004482294045 -0.0004430406444 0.0004302899205)
(7.0173252e-05 -0.0002022781833 3.90830795e-05)
(-0.0008558862549 -0.0002051378617 0.0001082813068)
(0.0007307609873 -0.0009157182897 -0.0002649439028)
(0.0001161110404 -0.0007206078158 -0.0003762976061)
(3.683150457e-05 0.0005104516437 0.0004792251222)
(0.0008907079468 0.0002878195192 0.0002662406136)
(0.0002699219931 -2.035400902e-06 0.0004602790503)
(0.0006771840609 -0.000394607855 -0.0005637293861)
(0.0001027916435 -0.0001378165918 -0.000146000205)
(9.486158143e-06 -9.081591956e-05 0.000471529463)
(-0.0006591298508 0.0001385538226 0.0002851345541)
(0.0004640971607 -0.0003446080995 -0.000142568456)
(0.000514327697 0.0002974970521 -0.000544039657)
(9.758065172e-05 -0.0003934604455 -0.0003484083853)
(0.0006085654119 -0.0003870260193 6.366615782e-05)
(0.0004354320146 -4.820961571e-05 -0.0003899041102)
(0.0003489157573 -0.0002596641347 -0.0002086176638)
(0.0001055930478 0.0004638664354 0.0005499239253)
(-7.822736405e-05 -0.0005627148028 -2.674195383e-06)
(0.0002828554625 -0.0001350848761 -0.0004217434566)
(0.0003084461679 -7.536725309e-05 -0.0001538668589)
(-0.0003776565816 -0.00102304238 -0.0003295206257)
(2.738522286e-05 -0.0003788994337 -0.0004675878903)
(-0.0002089771877 -0.000431566041 0.000589941369)
(0.0002036675504 -4.627927611e-06 -8.7001994e-05)
(0.0002537504172 -7.137130817e-05 -0.0004264136671)
(0.0002890549829 0.0002011871527 -0.0001268407782)
(0.0005789669629 -0.0009354216832 -0.0001204886328)
(-6.723445757e-05 -6.375856544e-05 0.0004230336917)
(-0.0007166411027 -0.0007365882223 0.0002418979959)
(2.879105056e-05 -0.00053418319 -0.0005538897274)
(-0.000257221114 -0.000220763529 0.0007655771521)
(-7.868299108e-06 -0.0004180102447 1.97066318e-06)
(0.0001275512329 7.573705143e-05 0.0004523457985)
(0.0006919087134 5.479534487e-05 -3.456227769e-05)
(0.0009066088629 -7.572725058e-05 0.0001110677447)
(0.0009975216792 0.0002286697164 0.001088475969)
(0.0001437422424 -5.76486772e-05 1.998281022e-05)
(7.032745904e-05 -0.000131164918 0.0001206947177)
(7.784373858e-05 -0.0006027340382 -0.0001925232563)
(0.0001514770582 0.0005766101319 0.0001611526718)
(-7.774927776e-06 0.0002035303528 -0.0003480272258)
(0.0004928653816 0.0004742447807 0.0005920385498)
(-0.0001183396929 -0.0002687788097 -0.0001409863263)
(0.000703348994 0.0001054353072 -0.000769922552)
(0.0007772575566 -0.0006411126804 -0.001178129038)
(0.0004079856315 0.0002234160706 -7.485177324e-05)
(0.0004659842512 3.586783228e-05 -0.0003268216384)
(0.0005002988698 0.0008562071969 0.0001944195863)
(2.555515476e-05 -7.2309264e-05 -0.0003921994601)
(0.0001877173168 -0.0008448605758 2.356406482e-05)
(-4.591130222e-05 -1.489649077e-05 0.0001267398057)
(0.0004422935521 -0.000287478262 0.0005256202215)
(-0.0002347589375 -9.568384559e-05 9.150271942e-06)
(0.0003136428337 8.460413072e-05 1.460095448e-05)
(0.0002270638935 -0.0008699168679 -1.771188739e-05)
(0.0006004489796 0.0003967497646 -0.000424883757)
(0.0006033354767 1.870599701e-05 -0.000449654896)
(0.0004580291766 -0.0001094816224 0.0003076421973)
(-0.0002836144308 1.959219088e-05 4.910608865e-05)
(0.0002805838651 8.042604497e-05 -0.0003756680523)
(0.0001371936017 -4.656999326e-05 -0.0004630393806)
(0.0006061279481 -0.0003033284109 -0.0005000619573)
(0.0007685503086 -0.0002934816226 0.0002855920819)
(0.0002849796561 -0.0007471567565 0.0002817121532)
(-1.573313994e-06 -0.0004061491771 5.462159153e-05)
(0.0007969885357 -2.741433147e-05 -0.0002793192108)
(0.0002636006156 -0.0006636690333 0.0002069243768)
(0.0005074828798 0.0003263778661 -0.0002718509943)
(0.0002441344494 -6.404267428e-05 -0.0001902924774)
(0.000291304317 4.943752347e-05 -8.683208249e-05)
(0.0002296356735 2.303901269e-05 -0.0001867633459)
(6.833529175e-05 -0.0002105709968 0.0002697394813)
(0.0003475340256 -0.001195737834 0.0005434879812)
(0.0006654357002 -0.0003681141522 -0.0002879905308)
(0.0004386956213 -0.0003533452365 0.0004153707542)
(-3.808784997e-05 -0.0001789771047 0.0004450045701)
(-0.0001917667221 -0.0003037865947 -0.001184760416)
(0.0004136324739 -0.0005053195639 0.0001658907336)
(4.688577909e-06 0.0007917822336 0.0005080693527)
(0.0001473318458 1.585649935e-05 -0.0003037203248)
(0.000682729835 0.0001887605182 0.0006318967271)
(0.00014918277 0.0001825617841 -0.0002064481722)
(0.0002944523193 3.195972489e-05 0.0003408751277)
(0.000730575519 -0.0004305981618 9.476317411e-05)
(0.0003653560437 0.0001457166377 0.0003482056776)
(-0.0001326117288 -0.0006243364214 0.0002230784033)
(0.0003650957311 0.0008348446699 -0.0003532511633)
(0.0002399940479 -0.0006559645305 0.001012487283)
(0.0006095268124 -0.0002426524968 0.000112406389)
(0.001091488863 -2.907224687e-05 -0.0003999502458)
(0.0004978789091 1.686457519e-05 0.0001054789084)
(0.001168158266 -0.0008133403946 -0.0003815373834)
(0.0002550188684 -0.0003116397898 -0.0003636413559)
(8.367164549e-05 4.079651342e-05 0.0002550906803)
(0.0009031227994 -0.0009632061794 -0.0004655059428)
(3.073958023e-05 -0.001384810252 0.0008809028437)
(0.0002189559048 -0.0007781669728 0.0006621633537)
(0.0001553478823 -9.696086981e-05 0.0001085780062)
(0.0007543472524 0.0001952300164 -5.956094319e-05)
(0.0007673467632 0.0003340571754 -0.0001979167646)
(0.0005443124879 -0.0003060763185 0.0001996174048)
(0.0001686176772 -7.465100375e-05 -0.0002976606165)
(-2.180435494e-05 -0.0003618848121 -0.0001337085448)
(6.141312238e-05 -0.001198768623 0.0001365780909)
(-3.760391968e-05 -7.410960437e-05 -6.058458557e-05)
(-0.0001089489233 -0.0001189203017 -0.0002685260636)
(0.0007208621999 -0.000706430252 0.0003542095121)
(-0.000351632562 -0.0001673067299 0.0001831265412)
(-0.0001172638941 0.0003634844125 -0.0003872285313)
(-3.799598177e-05 -2.879460718e-05 -5.884808878e-06)
(-0.0007183058827 9.135322915e-05 -0.000440966628)
(-0.0001185909143 -0.000426049102 -0.0004202843345)
(0.001541303161 -0.001018432796 0.000263363658)
(1.91547011e-05 -0.0003793581043 0.0003361306619)
(0.0002844993443 8.834404681e-05 0.0001686601339)
(1.35570132e-05 -0.0003485701424 -7.879653835e-05)
(-0.0004068927578 -6.435268315e-05 -3.457431391e-06)
(-0.0001470977845 -0.0007886314076 0.0002065333172)
(0.0005231893196 -0.00142719868 -5.248948839e-05)
(-0.0001963632951 -8.079701586e-06 0.0001483199024)
(-0.0004828592296 -0.0009188326572 -0.0002557863102)
(0.0008637446075 -8.934911255e-05 -0.0002841740202)
(0.001156041023 -0.0005696492217 0.0006872205362)
(0.0003043672475 -0.0001001485505 -0.0004092802931)
(0.0009019411161 -0.0001705000061 0.0004998108743)
(-0.0001564315406 -0.0008561952286 0.0002318114831)
(-6.688659868e-05 0.0001720763554 6.883600906e-08)
(0.0002697508646 -8.274123536e-06 -4.52315841e-05)
(0.0007263466777 8.742145613e-05 -0.0002967963643)
(0.0001593958346 -0.000154377316 0.0003488305576)
(0.000395887463 0.0001920127684 -0.0003054765296)
(0.0008253371411 -0.0007261302539 -0.0006530954313)
(-0.0001181131336 0.0003902472645 5.467063923e-06)
(0.0003503360426 -0.0003379349257 -0.0007042057825)
(0.0001416042006 -0.0001224013968 -0.0002924182133)
(-9.308784649e-06 0.0001125173975 -0.0002918298812)
(0.0002251492527 -0.0001557963484 0.0006323517547)
(0.000361523107 3.904916803e-05 -0.0001314903261)
(0.0004517963694 -0.0007275151785 4.516571033e-05)
(0.0008042172077 -0.0005743895273 0.0001836236899)
(-0.0004803965541 0.0002569458028 0.0002223720454)
(0.0004831700242 -0.000755428616 -5.250960707e-05)
(0.0001763788248 -0.0009765185465 -0.0003227559125)
(-0.000314612564 -0.0003820439401 -0.0009428130133)
(-0.0001153614987 -0.0003869239849 6.101494797e-05)
(0.0007949611968 3.267514851e-05 -0.0002958522927)
(0.0002727305441 -0.0004467256803 3.895449809e-05)
(0.0005110484898 0.0005848984371 -0.0009356210106)
(0.0007796645176 0.0001664494529 0.0001551167036)
(-0.0004849492298 -0.0001962425391 0.000358409288)
(0.0009026320806 -0.0002002222428 0.0004061244656)
(-0.0003739894226 -0.0008725124402 0.0006183619578)
(0.0004928734926 0.0001097405535 0.000354941461)
(4.263708482e-05 -0.0003834577354 0.0008667726219)
(0.0004160231808 -0.0008068206622 0.0005249489854)
(0.0008575829225 -8.828720825e-05 0.000624430519)
(-0.0004716621147 0.0006237415119 -0.0009278677744)
(5.810791282e-05 0.0001124299082 0.0002318751417)
(0.0006190435715 7.033089468e-05 0.0005465274576)
(0.0002935583073 -0.0007646489047 0.0003248037565)
(-0.0001147251789 -0.0007938325353 0.0001039201928)
(0.0004559989609 0.0002718787379 0.0004155085981)
(0.0002321346107 -0.0005665070959 -5.318371928e-05)
(-6.635855232e-05 -7.875078886e-05 -3.935117083e-05)
(-0.0005278266121 -1.51312937e-05 0.0006340468856)
(0.0001411467642 -1.705500721e-05 -0.0001881333122)
(-0.0003191523851 -0.0009561948345 0.0001261387681)
(0.0005206678005 -0.001064417286 -0.0001531992472)
(0.0004045312359 0.0001032188782 0.0006916395692)
(-0.0002198431755 6.654402141e-05 0.0007321599795)
(0.0002545694306 -0.0005905268048 0.0002748201604)
(5.444740742e-05 0.0003828702176 0.0004235238106)
(0.0007930463517 -0.000185198985 0.0004942786758)
(-5.083723762e-05 -0.0003824812406 -0.0005063885903)
(-0.0001295983072 -0.0006704376875 -0.0001750730588)
(-0.0001240347788 8.170567582e-05 -0.0006470478708)
(0.0001483063453 -2.496261431e-05 -0.0001041682984)
(0.0004954364914 -0.0003148269171 0.0007582324762)
(0.0002025868448 -5.633593499e-05 -0.0002746402248)
(0.0002242880911 -4.113624524e-05 -0.0004612690576)
(0.0005767026033 -0.001109747453 0.0004749988341)
(0.0004347241976 -1.042057248e-05 -6.209666988e-05)
(-0.0002949173619 -0.0003610115068 -0.0001919243907)
(2.305103559e-05 0.0001330542286 0.0001042267563)
(0.0002425056753 -5.948643025e-05 6.32386053e-05)
(-0.0005416492195 0.0006672294828 -0.0008949074479)
(0.0002836498881 -0.0001339553154 -0.0008280802416)
(6.950427266e-05 -0.0004965448444 9.037337247e-05)
(-0.0002645029529 -0.0003679684917 -3.403290641e-05)
(0.0003227753357 0.0002333608634 -0.0003970219332)
(1.782073384e-05 -0.00015175342 -0.0001475189586)
(0.0002472640589 0.0001440506908 -8.70466421e-05)
(5.518408055e-05 -0.0005986941859 -0.0004784993065)
(9.731188811e-06 -2.227413249e-05 -8.531135999e-05)
(0.0004316845641 -0.0001180353871 0.0003254952271)
(-0.0004912513742 1.415231892e-05 3.26955695e-05)
(0.0005046415368 -0.0009061983955 0.001275928357)
(0.000719531516 1.361736502e-05 -0.0002387761026)
(-4.547113081e-05 -0.0002744073004 -0.0001363700399)
(0.0004890637619 -0.0004488652295 0.0002352424581)
(-2.324890645e-05 8.128295281e-05 -0.0003684408045)
(-7.245569676e-05 -0.0002874661033 8.742999186e-05)
(0.0001042491404 4.491833194e-05 0.0004108650461)
(0.001074813917 -0.0004396322451 9.958642672e-05)
(-4.856482327e-05 -0.0005497583768 -0.0001173847627)
(3.734142749e-05 -0.000163846608 -0.000521305432)
(0.0002538131184 -0.0002759851235 7.262778139e-05)
(0.0001534475613 0.000624524223 0.0004141063337)
(0.0004902795257 -9.869734737e-05 3.97615489e-05)
(0.0004368267319 4.586297951e-05 -5.225087804e-05)
(-0.0005920123929 -0.001062454526 -0.000190781524)
(0.0004372729983 -0.0001337619968 0.0002586194906)
(3.138576265e-05 -0.0007388167037 -0.0002936200637)
(6.700999179e-05 -0.0003622982885 -0.0003242907446)
(0.0005501118916 -9.227574158e-05 -0.0007811187287)
(-0.0004952202125 -8.47601878e-06 0.0007885465145)
(-0.0002517250828 -0.0003785226288 -0.000575893157)
(-2.805607691e-05 -0.0002322101994 -0.0003881071741)
(0.0006850273664 0.0007684161622 -0.0006814089143)
(-0.0003784683426 -0.0003931138442 0.0009478227999)
(-0.0003504417289 -0.0002430762649 -0.0002064792923)
(-0.0005632331555 9.307948512e-05 0.0001835684644)
(4.711844772e-05 3.089176807e-05 0.0002930228689)
(-0.0004129096301 -0.0003251841804 0.0003617789237)
(-0.0002389925984 -0.0002117685669 -2.244642686e-05)
(-2.52179397e-06 -0.0007509925227 -0.0001195284776)
(0.0002374294415 0.0005780892516 -7.106606509e-06)
(-0.0001347222832 -0.0005582947039 6.028215929e-05)
(0.0001106120175 -0.000392501037 -0.00053138089)
(-5.056352341e-05 0.0002131001414 -0.0002610396943)
(-0.0001523620293 0.0001313739356 0.0005855509788)
(0.00043519567 -0.0009404455974 0.0005316844215)
(0.0004426573589 -0.0001509296898 0.000843397325)
(0.0001924440978 -0.0001232658908 -0.000336664944)
(-0.0001837335073 -1.404825279e-05 -4.887125339e-05)
(-0.0004253885765 -0.0004790685063 0.0004203553679)
(0.000202491003 -0.000715379283 0.0001450343049)
(-0.0004962523909 -0.0002948391767 0.0004663121982)
(-0.0002030774659 0.000286465691 0.0007642234517)
(7.390434867e-05 -0.0003981268932 -0.000183252323)
(0.0002795313638 -0.0004338291133 0.0002108497111)
(0.0001831228556 -0.0005758436969 0.0001089035262)
(-0.0001759783868 0.0005138142003 -0.0001194343734)
(-0.000133254373 -0.0003892005025 0.0002673233962)
(-0.0002623917054 -0.0006299395076 -0.0005439113303)
(-3.146635763e-05 4.135971336e-05 0.0004680313273)
(-0.0002331542421 -0.0009474213869 0.0005766654209)
(-7.501585684e-05 -4.759553332e-05 -0.0007641685282)
(-0.0004795463134 0.0002201992547 -0.0001630186796)
(7.095522302e-05 -0.0003409795557 0.0001065406462)
(-0.0001330886686 -0.0001702947979 -0.0003222242394)
(-0.0003253564694 5.703335588e-05 -4.167125527e-05)
(-0.0003666780948 -0.0001785469468 -0.0005345787338)
(3.464157703e-06 -0.0004694269064 0.0001491740535)
(-0.0004375432655 0.0002883322536 -0.0005042558677)
(8.178619378e-05 -0.0002775275837 0.0008831119949)
(0.0005264210308 -0.0001366780377 -2.883194032e-05)
(0.0002058102668 -0.0002046685376 -5.126263229e-06)
(-0.0001195432585 -0.000172424792 -0.0003130153559)
(-0.0005081262933 -0.0001177118173 0.0007036877236)
(-0.0001609231159 -0.0002863105019 -0.0003730431908)
(-0.0001580990171 -0.0003284946237 -0.0004516756791)
(0.0003457235831 -0.0001797882259 0.0006059210966)
(-3.58649945e-05 7.741690879e-05 -0.0001617556221)
(-0.0002577248678 -2.239646977e-06 0.0007792114305)
(0.0001598396727 -0.0007969701211 0.0002896604476)
(0.0001215247517 -0.0003237568995 7.762722015e-05)
(0.000350260318 -0.0002028187043 0.0001206735872)
(0.0006720649019 -0.000503239016 0.0003127219378)
(0.0006829109297 2.202057796e-05 5.400693068e-05)
(0.001248841869 -0.001014848912 0.0004428036533)
(-0.0003127445076 -0.0005120544765 -6.242655997e-05)
(0.0003169848097 0.0003482634565 0.0003119444917)
(0.0006881651602 1.733976062e-05 -0.001142337157)
(-0.0001277571818 7.848789888e-05 0.0001060204727)
(-1.044776735e-06 -0.001202536535 0.0006086463817)
(6.970248036e-05 0.000105010839 -0.0005270966605)
(0.0003112973024 -0.0001876531463 -0.0003086040508)
(0.0003194128609 -0.0002867661246 -7.522494106e-05)
(0.000929139674 0.0008761413412 0.0001949039952)
(-0.0002782529483 0.0001834936588 0.0001177520483)
(0.0006177048744 -0.0004027304426 0.0001434874386)
(1.966614261e-06 -4.868476183e-05 0.0002001983267)
(0.0002050574404 -0.0003774537081 -0.0007192882932)
(0.0001220256806 -9.557191962e-05 -0.0001052801507)
(0.0007235868509 0.0001847909864 -7.049762645e-05)
(6.356460551e-06 -8.971126816e-05 -5.812197754e-05)
(0.0001661089658 0.0006880372894 0.0002523126797)
(0.0002571846728 -0.0001481481543 5.299064991e-05)
(0.0002456386299 -0.0006772985287 -0.0001497876614)
(0.0005351681855 -0.0003246658777 9.821650086e-05)
(0.0004438543879 -0.0002274248709 -8.743802287e-05)
(0.0003904202291 -0.0002454621449 0.0004960653102)
(0.0001559108196 -0.0005573952648 0.0003133285984)
(0.001429210517 0.001439956587 -0.0004911268596)
(0.0006015871649 0.0001396014661 6.696903074e-05)
(-0.0003294896716 -0.0005805006869 -1.410395415e-06)
(-0.0002400942394 6.736129695e-05 -0.0001864698946)
(-0.0003261816609 -0.0003089305288 6.920647944e-05)
(0.0004040696561 -0.0006640981928 3.825571075e-05)
(-2.250850052e-05 0.0006262346001 -0.0001831338024)
(0.0008282925195 0.0003518079579 0.0002357353789)
(0.0003192900839 0.0001294996027 -7.886812597e-05)
(-0.0005908161325 0.0002762492114 0.0003411614733)
(4.083224256e-05 0.0002048104473 0.0005589027312)
(0.00106114373 8.160690594e-06 -0.0007580199812)
(0.0009696077627 -7.68530729e-05 -5.857410802e-05)
(0.0005535324074 0.0001684270283 -0.0002710894497)
(0.0002304811425 0.0008068275396 0.0002527377315)
(1.224296352e-05 0.0001569609951 -0.0001492187832)
(9.396275127e-05 -0.000329824384 0.0003734719606)
(0.0007229732488 0.0001219773845 0.0009287474223)
(0.0004574232873 -0.0002495497548 0.0004047022599)
(5.717501139e-05 -0.0003769911539 -0.0001707301664)
(0.0004358194193 -0.0003167253841 0.0002093029479)
(9.41842715e-05 -0.0005256152289 -0.0003271558383)
(0.0008735237017 3.579653748e-05 0.0002141548627)
(0.001217009736 0.0004870980118 -2.217910899e-05)
(0.0009718070462 -0.0005489989592 -0.0001719700586)
(0.0001446114449 -0.0003829767382 -0.0001239830327)
(3.783167154e-05 -6.461901217e-05 -0.0002047766085)
(-0.0003207467 2.080970387e-05 0.0003235126279)
(0.0003629445409 -0.001354267526 0.0001830753346)
(9.562962344e-05 -0.0005740687383 0.0001431286686)
(0.0002270025552 -0.0003863423082 -2.399609507e-05)
(0.0005901490111 -0.0004261249774 8.582848413e-05)
(8.388173654e-06 2.559951904e-05 -0.0003938728165)
(-9.059940079e-05 -0.0003134483938 -2.312557519e-05)
(-9.386088203e-05 -0.0002582419577 0.000701118643)
(-0.0002151127231 0.0002774645976 -9.890807406e-05)
(0.0003581105764 0.0001160689729 -8.509947567e-05)
(6.670604924e-05 0.0003653609918 -0.0001208883878)
(-0.0002325095603 -0.0002501456526 7.270750738e-05)
(0.0009651690776 -0.0004854060446 -0.0002071618916)
(0.0001229784311 -0.0002552480283 0.0002610709504)
(-0.0007766236988 1.560560733e-05 0.0004930722595)
(0.0002995518539 -0.0008020908289 0.0001083462221)
(0.000730589493 -0.0005801788883 -0.0004487711424)
(0.0002275979777 -0.000597403012 -0.000314063294)
(9.044531753e-06 -0.0001313861087 0.0002745651263)
(7.308752013e-05 -0.000314464542 -4.046211437e-05)
(0.0006316324131 0.001020027634 -0.0001878102831)
(0.0002604005797 0.0007607975271 0.0002018124814)
(-9.35399522e-05 0.0003338067416 -0.0005542483173)
(0.0001900948467 0.0005538931167 -0.0004916970609)
(-0.0002750650576 -6.556015307e-05 1.011253183e-05)
(0.0004051254109 0.0003241490986 -0.0004583126206)
(-3.144685562e-05 0.0002872093606 0.000525300965)
(-0.0009181661491 -8.325943536e-06 0.0001937229578)
(-0.000600445496 4.303381459e-05 -0.00086765741)
(-0.0005173313535 -0.000159489755 0.0003026027762)
(0.0005473003703 7.491305277e-05 7.11007761e-05)
(0.0005067931402 -0.001043163165 0.0001974050244)
(0.0007576941429 -0.0005559377297 -0.0003942816988)
(0.0005497624719 -0.0005439244763 0.000761196749)
(-0.0006502640156 0.0003868887269 0.0001435613193)
(-0.0001307357521 -0.0002014663925 -0.0005824616874)
(8.831929437e-05 -3.284654496e-05 0.0001274829641)
(0.0006294668005 -0.0003248508409 -0.001177879665)
(-0.000371993928 -0.0009181677284 0.0001652473643)
(0.0002348826677 -0.0001888891568 -0.0006060161158)
(0.000402253884 -0.0002257550428 -2.699592641e-05)
(0.000204391222 -0.0003765751252 0.0002000841002)
(-0.0003737887505 0.0001155742039 -0.0004187083525)
(0.0002595833832 7.32996896e-06 0.0001831254623)
(-9.184460216e-05 6.478704303e-05 -5.438416473e-05)
(0.0006460817614 -0.0003802763151 -0.0004638786578)
(-0.0006681931925 -0.000234740426 0.0001165612035)
(0.0005433793939 -0.0005075113864 -4.978606925e-05)
(0.0003567171355 -0.0008802626197 -0.000396337661)
(0.0001562670116 -0.0009770023619 0.0003662878357)
(-0.0003787751068 -0.000543885112 -0.0003623998281)
(-0.0003989131437 0.0003967249634 -0.0005197493322)
(0.0005472381071 -0.0001751155873 2.334487428e-05)
(-0.0006492538415 0.0001329812795 0.0008040173009)
(0.0003329185494 5.001909013e-06 0.0001496286564)
(-8.522119881e-05 -0.0001333518709 3.938065897e-05)
(-0.0001583843639 -0.0003643381957 0.0006346817743)
(0.000270402625 -0.0002945064805 -0.0005331001451)
(0.0008402464551 -0.0001459419934 -2.814350463e-05)
(-0.0003348377277 -0.0003435296723 0.0002213607494)
(0.0006620425896 -5.351062659e-05 4.319091427e-05)
(0.0002704484389 -0.0001947270205 0.0005004917653)
(-0.0002369591835 -5.213647613e-05 0.0003945446589)
(0.0004294040101 -2.957920376e-05 -0.0004826597316)
(0.0001150360797 -0.0009362974866 -3.872197808e-06)
(9.72106855e-05 -0.0007335662233 5.720487176e-05)
(0.0007957732017 -5.726118683e-05 -0.0001648803891)
(0.0002342761122 0.0006285595922 -0.0005096162718)
(0.0008302071772 -0.001284972576 -8.534623798e-05)
(2.011068349e-05 6.724265515e-05 0.0005318648499)
(0.0007979061701 0.0002300153977 -1.027186896e-05)
(0.0003753490681 -0.0004770363369 0.0006382308073)
(0.0007198807915 -0.0005129205042 -0.0001938416733)
(-0.0003790332841 0.0002022691251 -0.0004842882643)
(0.0001004586035 0.0002006905956 0.0003058208153)
(0.0004271475116 -0.0003004736381 -0.0006448426962)
(3.829163379e-05 -0.000951738187 -0.0001053508322)
(0.0002709262354 -0.0005656519691 0.0009205799603)
(3.538783757e-05 -0.0005474733753 6.375022774e-05)
(-0.0003438158394 -0.0002067629956 0.0001252127675)
(0.000220627218 0.0006609649599 0.0001902737931)
(-0.0003196243743 -8.506069828e-05 0.0001794046343)
(1.089566068e-05 3.678777457e-05 0.0003550568619)
(0.0008361841891 -0.000940291959 0.0005794588044)
(0.0002585320589 -0.001048550662 0.0002516136944)
(-4.457623547e-05 0.0001940194061 -0.0001755480779)
(-0.0001474977663 -0.0004080347737 8.396773747e-05)
(-0.0001097764083 -9.135063875e-05 -4.048839096e-05)
(0.0001852394006 -0.0002573208237 -0.0001858847193)
(0.0001592280073 0.0001778726933 0.00087965024)
(8.934178947e-05 0.0005230677643 0.0003590910926)
(0.0001053719548 0.0005090812658 0.0007508901248)
(0.0001146988405 -0.0002079253974 2.558833659e-05)
(0.0006435202641 -0.0003009677364 0.000144738266)
(-0.0005474434337 -0.0005528838162 2.645139444e-05)
(3.529144824e-05 -0.0002748588832 -4.866599444e-06)
(0.0004541749499 8.791885503e-05 -0.00055984132)
(-0.0007005613717 -0.0003631206042 -8.373109305e-06)
(0.0002047020265 -4.978793654e-06 -0.000578708846)
(-0.0009898777661 -0.0001392457382 0.0001959015206)
(0.0005544185327 -0.0003476663821 0.0005481650682)
(1.98395512e-05 -0.0004473608432 -0.0007352186988)
(0.0009253894781 -7.036796496e-05 0.0003942449538)
(-0.0001372180867 6.994984325e-05 0.0001249114942)
(0.0005546785998 -0.0001793927939 0.0003977375635)
(0.0006637926063 -5.514157442e-05 0.0004128277296)
(4.160510407e-05 -0.0001810186106 0.0002331100702)
(0.000701511021 -0.0003289508338 -0.0008275153749)
(-0.0005908539421 -0.000450313978 2.590471377e-05)
(0.0002656194037 -0.0004494322553 1.65013135e-05)
(0.00104003609 -0.0006664637063 0.0005965740473)
(0.0002182404341 0.0002062423722 -6.406230352e-05)
(-0.0004517851746 -0.0003502854725 -2.286011503e-05)
(-0.0004020107142 -5.245811551e-05 0.0001810331371)
(0.0003044183155 -0.0006517525572 -0.0001090507945)
(0.0004609313919 0.0005592080003 -0.0003840624532)
(0.0006748302271 -0.0001944642836 -0.001179376083)
(2.6177067e-05 0.0001596729728 5.389337888e-05)
(0.0003764425976 -0.0001640897649 0.000170419918)
(0.0001926858635 -0.0005288306238 0.0001691054674)
(0.0002455213159 -4.751909787e-05 -0.0001055277039)
(-0.0007535052976 -0.0006459038969 0.000498918096)
(-3.050032628e-05 -0.0006158977403 0.000985463134)
(-0.001167110379 -0.0006724844211 0.0002361761038)
(-0.0005796233665 0.0001915057426 -0.000459895404)
(-8.149925293e-05 -0.0004022825109 0.000426789222)
(0.0008264990461 -0.0007412615832 2.659283259e-05)
(-0.0001955565762 2.938534648e-06 0.0003557143009)
(6.277213604e-05 -0.0008288692583 0.0001328070879)
(-3.919162877e-05 7.939074078e-05 0.0001682693177)
)
;

boundaryField
{
    flow
    {
        type            zeroGradient;
    }
    obstacle
    {
        type            calculated;
        value           nonuniform 0();
    }
    frontAndBack
    {
        type            empty;
    }
    procBoundary2to0
    {
        type            processor;
        value           nonuniform List<vector> 
31
(
(0.0005385533526 -7.195562542e-05 0.0003147093959)
(-0.00012677242 -0.0001020970553 -0.0001886987762)
(-0.0001299440685 0.0001278994037 0.00034555581)
(0.0001005615784 -0.00031248736 -7.50993704e-05)
(0.0007584667535 -6.480957159e-06 -2.224256921e-05)
(0.0005565925464 3.225585474e-05 0.0003586060904)
(0.0002014681265 -0.0006504204251 0.0008276310446)
(0.0006812101527 0.0004072157499 -5.685576991e-05)
(-0.0001045599419 8.974785145e-05 0.0007064779919)
(0.000565487233 0.00043832897 0.0002557435439)
(-0.0006674830399 -0.0007528732007 -0.0001646803641)
(0.000518525795 0.0002146071876 -0.0004453742193)
(0.0002652603554 0.000264399688 -0.0009636891071)
(0.000291649507 0.000210640796 8.8589878e-05)
(0.000678718118 2.482094815e-05 -4.859491961e-06)
(0.0001669811295 -5.964020801e-06 0.0001435723688)
(-3.089209221e-05 0.000208359055 -4.966162827e-05)
(-0.0002275317741 0.0003280325403 0.0004513426098)
(0.0008526757407 -0.0003297154492 -0.0004741250466)
(-0.0001403062472 -0.0006588542517 0.001520095946)
(0.0005874039726 -0.001088038256 -0.0002602376486)
(0.0002255045366 0.0007519406098 -9.921865311e-05)