/*--------------------------------*- C++ -*----------------------------------*\
  =========                 |
  \\      /  F ield         | OpenFOAM: The Open Source CFD Toolbox
   \\    /   O peration     | Website:  https://openfoam.org
    \\  /    A nd           | Version:  7
     \\/     M anipulation  |
\*---------------------------------------------------------------------------*/
FoamFile
{
    version     2.0;
    format      ascii;
    class       volScalarField;
    location    "0.001";
    object      overallT;
}
// * * * * * * * * * * * * * * * * * * * * * * * * * * * * * * * * * * * * * //

dimensions      [1 2 -2 0 0 0 0];

internalField   nonuniform List<scalar> 
546
(
305.2270122
339.4657172
350.2278409
374.6412101
387.7202348
383.8144
397.8604181
444.6054065
465.8154391
510.5642587
515.3741389
531.4864185
544.3547085
544.4938346
513.2414191
601.1294873
642.6561069
603.3528831
595.1072405
663.5427287
286.1483666
321.6320647
316.0762926
348.8092362
398.8267915
402.3471611
420.2962321
426.292893
428.2635586
498.3711731
531.1660146
523.0985684
536.1344851
566.8609498
536.8309373
565.9701737
570.0636494
611.7341841
668.2986069
707.3558593
309.2047059
316.9986145
312.5889758
332.6019601
355.1027397
380.9772398
413.9488588
449.6650372
466.6863756
499.342374
482.9906259
498.7481992
546.0132855
586.5856322
516.902697
549.9050595
601.8209537
587.2419207
648.0357586
678.4479696
288.9245885
306.9608811
349.2765471
337.7523301
353.0690285
372.8764797
390.2870776
478.7282729
465.9135627
477.6678508
488.5609112
507.3551178
538.5447048
540.0817436
550.4366306
591.1604423
613.5640527
637.2420585
644.454862
647.9558682
281.7863018
316.4522739
341.0830255
376.4564574
368.8841975
393.1038137
441.4598346
459.9731787
459.0952308
483.8782711
489.1872324
502.0884258
540.3738121
568.0927472
587.9709141
590.6979257
587.4685989
604.8700144
581.5622596
615.9906545
279.9637332
321.8316149
335.5482434
359.0460671
373.8830794
388.2112803
419.5936631
450.7203295
468.3833717
508.3565114
501.0542116
511.4502659
519.7259537
529.6986107
553.0929754
572.3132509
615.2693032
624.5126371
615.398359
643.0799346
311.1282353
293.8991547
303.5775323
350.5461488
367.0851908
380.758739
389.8196247
438.3272221
480.298833
461.8235645
466.2081864
496.1860715
552.7923772
573.4947134
553.3821023
564.3399938
566.4927394
611.2348692
633.6338374
651.7254445
294.450981
307.609818
323.600899
358.6145953
380.5238858
371.9230584
397.6046134
444.2873554
432.4379557
440.1278398
473.5301567
502.2031703
529.4123313
511.7009321
537.965154
571.279754
592.0306684
596.7765747
632.3128893
630.1742636
310.3302288
304.2428207
328.1358511
339.9380167
351.8048324
381.2418714
387.2339723
409.2587736
416.1939593
489.7797757
499.1779273
523.2167288
531.6343595
532.479216
549.8773992
584.1885078
577.7299737
575.6517313
618.0906418
611.4213905
296.0376312
296.1049526
320.2474967
346.9025957
377.9348334
399.2197207
412.2705373
402.1363164
430.0335063
454.4482411
492.7561381
528.9184012
512.3310201
565.3162894
560.666981
548.232611
565.1269857
590.8711502
591.8039259
585.4010126
297.3154924
315.2835676
315.9389448
344.5976204
384.9425535
398.8638013
371.7752909
383.6151371
414.5069942
451.0203395
483.9947384
501.6572873
516.9771232
533.4560054
519.2293319
550.8314418
567.2724895
562.1948913
602.2867563
608.8788714
305.144621
309.9237457
330.3401721
351.0996513
357.2505582
378.2713403
377.2119654
424.8256633
415.1404467
469.6535911
444.9466007
439.4907016
500.6296225
505.5913395
538.5484471
531.0208096
541.0422995
568.5840623
613.0570197
602.449734
294.6682625
320.6549525
333.5308279
335.6677712
330.3217724
372.6627091
373.892914
411.2102618
442.1105737
461.837999
488.5344114
532.9756331
553.5124301
515.45369
517.6895085
564.0278845
579.8206162
574.2070646
623.6052928
634.6285827
282.5974531
316.9955185
329.5906852
319.9142297
351.3141746
371.2682351
384.1429552
409.1045136
415.7767145
425.944472
451.5427326
481.9579428
505.2874685
518.884877
559.4996447
544.2209132
569.9956245
577.9241061
596.3235191
569.5861072
280.5017684
299.8277665
306.2195234
340.0364386
334.0310036
368.9394201
380.8060206
400.7103569
402.6114575
461.0889548
429.3827513
503.3797019
487.1620925
485.4899468
526.121184
543.4403889
518.7938296
561.6826042
551.6090523
542.4346449
309.2758366
305.4772392
322.8273025
336.4335543
359.4387507
355.0958689
374.0501316
378.4779246
398.4450123
424.5746701
412.6555803
451.3199985
462.1000537
482.7324207
510.5348185
496.9262307
534.7656102
544.5294883
521.9637257
529.4571996
312.0502174
285.8871291
312.6574774
332.7486804
346.8400288
341.220228
374.6129119
393.3206173
402.9109068
406.9675279
414.6548121
434.7659289
431.8019307
481.9016006
479.265014
469.3452877
533.5344112
519.2056222
530.7234843
555.1003923
295.7949931
291.4192525
313.0629453
314.1369846
347.9430011
346.4117763
361.0672401
390.9457344
380.4498724
428.6665682
393.7281413
406.4388463
388.0562579
438.0239288
409.2981432
420.2738948
418.9677845
434.2229425
427.0878376
430.7565493
714.2530486
730.8739087
768.8291829
745.5754709
762.3776347
795.8052963
658.2077037
702.3539446
680.3259273
674.9504754
677.4115339
730.5808844
705.1101242
751.3867983
779.1728731
786.1748598
713.2355106
691.8901625
683.4602961
660.9619755
709.9701115
703.6825173
753.8032667
750.5667838
775.7090293
775.3596449
689.2376877
662.1659628
644.9431535
718.4808532
753.7045993
721.1244339
713.054252
724.5803262
724.4257417
830.9484741
657.7057554
673.6990792
687.5607821
694.9646532
742.4573057
745.6693015
753.6349869
758.0919394
742.1859196
750.8721933
632.3382525
676.2420314
680.5646504
733.5512988
684.118025
686.9536734
719.948584
760.1424394
745.2699731
746.1442775
651.1666151
662.8730111
681.7160894
693.4270882
694.9593912
714.6044002
729.935921
786.2458653
749.2262277
780.5533988
628.5678645
688.7293269
674.1861198
697.4331141
691.8488046
710.7875658
699.475694
724.4546027
779.6190365
739.5671705
661.6839343
691.7807684
724.1922081
718.7599044
723.2314634
705.8427419
718.7188206
720.4871581
755.3883543
744.1880059
699.9513795
715.6260638
672.790566
687.4617378
721.5701277
703.7953874
730.9191173
759.345848
757.5919371
757.5140114
656.6806021
633.362877
682.6885886
705.2712198
716.3689469
664.5740987
728.6547703
731.0645351
753.5045338
755.150098
647.4800165
652.0067922
724.0246467
674.993663
650.2853948
692.8510128
715.4992582
668.6578058
730.6748883
759.666629
643.7972093
664.1967949
648.7631472
677.1412361
642.4393601
667.9631246
699.8897899
688.7208308
674.3987062
675.2997951
670.4196139
666.6095815
645.5372895
670.3461325
630.3393552
640.3723095
651.7247064
662.1497172
676.8186338
704.1335363
627.90058
644.5188257
602.6603909
605.2554082
635.3853499
648.2787808
653.8241394
663.7204156
709.2471425
692.7110466
602.8891533
590.8390014
605.076749
591.4343145
634.159007
624.6808202
627.9447693
638.629586
644.022075
685.40835
570.7005912
550.9491524
518.7286728
531.2356828
594.9676008
611.4348707
598.9015411
559.2308674
609.3142569
647.2710023
567.4293068
556.727444
550.3048201
531.7456527
542.6939835
552.462379
574.3927584
562.1026061
525.5057148
520.7699397
446.7888389
448.6466026
466.7336607
444.708199
432.1343791
459.6905391
459.3268537
469.3217344
456.9627338
490.3109695
)
;

boundaryField
{
    flow
    {
        type            calculated;
        value           nonuniform List<scalar> 
48
(
305.2270122
286.1483666
309.2047059
288.9245885
281.7863018
279.9637332
311.1282353
294.450981
310.3302288
296.0376312
297.3154924
305.144621
294.6682625
282.5974531
280.5017684
309.2758366
312.0502174
295.7949931
295.7949931
291.4192525
313.0629453
314.1369846
347.9430011
346.4117763
361.0672401
390.9457344
380.4498724
428.6665682
393.7281413
406.4388463
388.0562579
438.0239288
409.2981432
420.2738948
418.9677845
434.2229425
427.0878376
430.7565493
446.7888389
448.6466026
466.7336607
444.708199
432.1343791
459.6905391
459.3268537
469.3217344
456.9627338
490.3109695
)
;
    }
    obstacle
    {
        type            calculated;
        value           nonuniform 0();
    }
    frontAndBack
    {
        type            empty;
    }
    procBoundary2to0
    {
        type            processor;
        value           nonuniform List<scalar> 
31
(
298.8118029
307.9065136
319.1313174
372.9387626
346.221028
405.3219324
450.965781
459.3213023
477.938911
528.9449731
513.8136266
531.523823
563.92407
554.0197832
599.490483
625.9297172
609.8163343
616.2611256
644.2930933
689.5972969
709.3589827
734.508573
766.5789907
748.0476645
765.6891061
769.8495788
720.8865987
726.3721397
755.9637467
716.6095571
716.6095571
)
;
    }
    procBoundary2to3
    {
        type            processor;
        value           nonuniform List<scalar> 
19
(
818.9953873
811.0362452
813.0466996
872.2248896
770.1698074
763.3447828
786.2084045
798.3082913
774.4223503
810.2901923
737.045906
750.4340483
734.7259096
684.504835
701.4831388
657.611928
644.8867238
571.9424527
474.6455311
)
;
    }
}


// ************************************************************************* //
