/*--------------------------------*- C++ -*----------------------------------*\
  =========                 |
  \\      /  F ield         | OpenFOAM: The Open Source CFD Toolbox
   \\    /   O peration     | Website:  https://openfoam.org
    \\  /    A nd           | Version:  7
     \\/     M anipulation  |
\*---------------------------------------------------------------------------*/
FoamFile
{
    version     2.0;
    format      ascii;
    class       volScalarField;
    location    "0.001";
    object      p;
}
// * * * * * * * * * * * * * * * * * * * * * * * * * * * * * * * * * * * * * //

dimensions      [1 -1 -2 0 0 0 0];

internalField   nonuniform List<scalar> 
546
(
0.2252223874
0.2449270111
0.2367718636
0.280058355
0.2896648119
0.2887124113
0.3171744887
0.3422785277
0.3507183989
0.3481935496
0.3859376247
0.4222227315
0.4223747144
0.4152187238
0.4253926066
0.4477979852
0.4558128714
0.4385754245
0.5033545829
0.5007878248
0.2324913661
0.2435828633
0.2572844566
0.2437360111
0.2490353086
0.2753198201
0.2895100266
0.3003486246
0.3364148617
0.3453682205
0.3622773062
0.3957360333
0.4232182095
0.4453183907
0.4501739394
0.484074608
0.4726142762
0.4717656031
0.5034482761
0.5309458473
0.266002857
0.2704880503
0.2310109538
0.2561374114
0.2689653925
0.2849366928
0.3267677913
0.3077371017
0.332091422
0.3382017302
0.3300236187
0.3630776787
0.4141388465
0.4471620854
0.4103370804
0.4609775005
0.4527991175
0.473588593
0.5217634788
0.5113736394
0.24194462
0.2295479799
0.2596597486
0.2603241597
0.2481936109
0.2933895419
0.3283390962
0.2881978523
0.3164087215
0.3647108129
0.3718721782
0.405333798
0.4317237178
0.4040601481
0.42753017
0.4644959577
0.4803746403
0.5073107521
0.5204869055
0.5102046083
0.2499601702
0.2348940532
0.2610934426
0.2625401307
0.288359321
0.3048507945
0.3223991906
0.3446739953
0.3494208971
0.3353041173
0.3943901126
0.4146854316
0.3997037815
0.4386098563
0.4365047045
0.4394610157
0.4516690227
0.4592327484
0.4584815733
0.4902336411
0.2355316574
0.2716056965
0.2664282963
0.2819247298
0.3197307302
0.3328069432
0.3408734345
0.3339707417
0.3513062353
0.3925897243
0.3862167063
0.4204581038
0.4088957483
0.4070712156
0.4555114717
0.4455545712
0.5052092599
0.4632601225
0.4945684626
0.5167476253
0.2467224379
0.2533346945
0.2626640034
0.2844502963
0.284182905
0.3313036827
0.3387199288
0.3669722238
0.3906251355
0.3507536253
0.353011697
0.407420139
0.4410941393
0.452429151
0.4441863303
0.4823410378
0.5096642339
0.498712509
0.5469601079
0.5648348842
0.2416127846
0.2750377197
0.2903041546
0.3040895427
0.3082876285
0.3384652883
0.3526015969
0.3630146873
0.3792289779
0.3734787697
0.3734001966
0.4030875568
0.4201885912
0.4549664262
0.4890455835
0.5376420269
0.4776655411
0.5075813949
0.4926039894
0.5274575691
0.2526080421
0.2510932143
0.2767109293
0.2686630631
0.3037701395
0.3297618317
0.3550303647
0.3416122486
0.3660867748
0.3953490733
0.4014675148
0.3992738627
0.4160380645
0.4364272414
0.4655612701
0.476663531
0.4724414408
0.4656088415
0.4960673128
0.491887011
0.2397260502
0.2815100117
0.3274139825
0.3220078244
0.3646627974
0.3867553954
0.3663044988
0.3758707301
0.3719919443
0.3611705273
0.4045386095
0.4177969048
0.4230130644
0.4766378587
0.4968129298
0.486741608
0.4819831661
0.524568349
0.4893355993
0.4730299786
0.2754044109
0.3094922811
0.2912858472
0.3117129743
0.352194846
0.3229790294
0.3171973336
0.3586636514
0.355892311
0.3657182821
0.3834817062
0.4382104544
0.4844431212
0.4428229379
0.481288555
0.4851750128
0.4715671011
0.5124498421
0.4876967123
0.4961127652
0.2750369478
0.2835572635
0.3329189732
0.3111252833
0.3243298992
0.3502088612
0.3704182417
0.3896634668
0.3735134244
0.3667869039
0.4202684548
0.3968629107
0.4071407287
0.4651459841
0.4541638898
0.477241592
0.4597528562
0.5084410869
0.4856929147
0.4937813699
0.2807786896
0.3056551845
0.2994837134
0.2978262604
0.2925787296
0.321558907
0.3593116138
0.3951487313
0.4069798327
0.4341023783
0.442818319
0.4675023955
0.4614105748
0.4630772703
0.4679937255
0.506028689
0.5122543243
0.5855370289
0.5456386314
0.5586390609
0.2694305899
0.3379492411
0.3446357335
0.2819911442
0.3111509636
0.3203492516
0.3501309513
0.3886672438
0.3952373151
0.4259639183
0.4329971072
0.4292192233
0.479503536
0.4796460895
0.4749871511
0.5178210834
0.5292210436
0.5676313216
0.5550339432
0.5518925162
0.268165014
0.3008710145
0.3488180126
0.3138772899
0.3598837135
0.338968854
0.3518482494
0.3849512755
0.4049074916
0.446402979
0.4556841368
0.4613804527
0.4596828112
0.4789214964
0.4529487029
0.437533115
0.463560207
0.5306481938
0.5780849464
0.558510842
0.2871481399
0.331413991
0.3136560738
0.3437802605
0.3536604074
0.3454360134
0.3442321587
0.4041587718
0.4041193499
0.4393793661
0.4421162375
0.4235635368
0.4325744077
0.4567633691
0.474245075
0.4288394152
0.4909768853
0.5072176196
0.533525398
0.5337697101
0.2861190382
0.3353809816
0.3521880823
0.3268920298
0.3653131659
0.3821317357
0.4089335504
0.4258609339
0.4394886917
0.4330475414
0.4156041397
0.4295009001
0.4681241837
0.4744031976
0.4857857291
0.5015597762
0.5045700482
0.5313810794
0.5601431318
0.5983580484
0.2943111896
0.3321063721
0.3538192218
0.3541957299
0.3471284085
0.3630737549
0.3737390635
0.4071455638
0.3697891623
0.416687567
0.4389977883
0.4397780688
0.4631861896
0.4586694556
0.4204413247
0.4421453878
0.4389035901
0.4592472999
0.4637562337
0.4508917592
0.5086897952
0.5008542224
0.5481069389
0.6134554144
0.6143786003
0.622861198
0.4578189039
0.4953561673
0.5048330072
0.5375036219
0.5668445654
0.5978621524
0.5404913836
0.6008458419
0.6128039452
0.629450406
0.4857556024
0.4813718207
0.480410561
0.5150953958
0.583727395
0.5940643045
0.5741695209
0.596590734
0.5805848954
0.5699974654
0.5141243009
0.5130270514
0.5659491265
0.5821835698
0.5594563633
0.580038319
0.6157260423
0.6371655181
0.644846171
0.6633098404
0.5328468524
0.5193267153
0.5317347135
0.5202199867
0.4929690007
0.5329717151
0.5743635321
0.6514360088
0.6247438823
0.5968176666
0.4979448266
0.4709534508
0.4810430473
0.4949591409
0.5058756972
0.5294233797
0.5150058526
0.5383242131
0.5672290412
0.6151902557
0.5314286909
0.5019968705
0.5217040463
0.5838566213
0.5796340341
0.5669857859
0.5464970528
0.5644101439
0.6140755038
0.616364405
0.5222582914
0.5423499997
0.5341577998
0.56785891
0.5749523382
0.6177924685
0.599121995
0.6284868368
0.6062535741
0.6154294477
0.5154348625
0.5562329178
0.5504688042
0.5714313679
0.6130116113
0.6048025938
0.5769252125
0.6455727601
0.6620603358
0.6926657527
0.5399355915
0.5687780188
0.6048521706
0.5938718212
0.6110478886
0.6458943277
0.600706678
0.6304910087
0.6676304482
0.6688166486
0.4667503938
0.5102398284
0.5657356694
0.5832681517
0.5654829114
0.5962309067
0.5534098695
0.6110662064
0.6402716885
0.6580391689
0.5063760367
0.5295545526
0.5243966109
0.5178514023
0.5900470478
0.5350003223
0.6279077433
0.6437277885
0.6911117082
0.697848487
0.5207916655
0.5586085225
0.6112256694
0.571523594
0.6089425998
0.5782057186
0.6442403836
0.6931414143
0.6757782343
0.7084474969
0.5343892603
0.5848994699
0.6043178332
0.6149257679
0.6258667581
0.6147011794
0.6183104889
0.6380192038
0.6361925146
0.656600931
0.5421004008
0.5405347358
0.5545297827
0.5692776749
0.6098333986
0.6099083956
0.6266418588
0.6632692652
0.6492655155
0.6789360719
0.5390375229
0.5601700786
0.5926182406
0.6273900701
0.6024026228
0.6167038175
0.6458097155
0.6438391498
0.6664476496
0.6866370821
0.540581013
0.5508078257
0.5367632346
0.5819488662
0.5504131608
0.5849192077
0.6078801257
0.6241463969
0.6699709
0.6821157554
0.5503817113
0.6153515837
0.6062049297
0.6094675775
0.6266449694
0.6526708971
0.6151332606
0.6205281698
0.7001788434
0.6414372523
0.4719118815
0.4906579709
0.4884163026
0.4670789638
0.5100469969
0.5158317304
0.4870914303
0.5261477708
0.5487540734
0.5340747527
)
;

boundaryField
{
    flow
    {
        type            calculated;
        value           nonuniform List<scalar> 
48
(
0.2252223874
0.2324913661
0.266002857
0.24194462
0.2499601702
0.2355316574
0.2467224379
0.2416127846
0.2526080421
0.2397260502
0.2754044109
0.2750369478
0.2807786896
0.2694305899
0.268165014
0.2871481399
0.2861190382
0.2943111896
0.2943111896
0.3321063721
0.3538192218
0.3541957299
0.3471284085
0.3630737549
0.3737390635
0.4071455638
0.3697891623
0.416687567
0.4389977883
0.4397780688
0.4631861896
0.4586694556
0.4204413247
0.4421453878
0.4389035901
0.4592472999
0.4637562337
0.4508917592
0.4719118815
0.4906579709
0.4884163026
0.4670789638
0.5100469969
0.5158317304
0.4870914303
0.5261477708
0.5487540734
0.5340747527
)
;
    }
    obstacle
    {
        type            calculated;
        value           nonuniform 0();
    }
    frontAndBack
    {
        type            empty;
    }
    procBoundary2to0
    {
        type            processor;
        value           nonuniform List<scalar> 
31
(
0.2255439729
0.2362050446
0.2461369898
0.2607173929
0.2856500215
0.2974600798
0.350373801
0.3676131429
0.3677760896
0.383378801
0.40162815
0.3908199313
0.4455647818
0.4504348292
0.4498698901
0.4365258886
0.4462064688
0.4905630247
0.4970928
0.4874264952
0.5042404386
0.4922091243
0.543265278
0.5396106004
0.5909315152
0.5746164658
0.5339478095
0.5316185928
0.572089495
0.5553029757
0.5553029757
)
;
    }
    procBoundary2to3
    {
        type            processor;
        value           nonuniform List<scalar> 
19
(
0.6379792615
0.6137607113
0.5806691343
0.6671234602
0.6369804642
0.6350695681
0.6941168617
0.6342624277
0.636349415
0.67428004
0.6692147994
0.6767143024
0.6841534808
0.6963031327
0.7133001901
0.7652597587
0.7196780014
0.6434436325
0.5390121139
)
;
    }
}


// ************************************************************************* //
