/*--------------------------------*- C++ -*----------------------------------*\
  =========                 |
  \\      /  F ield         | OpenFOAM: The Open Source CFD Toolbox
   \\    /   O peration     | Website:  https://openfoam.org
    \\  /    A nd           | Version:  7
     \\/     M anipulation  |
\*---------------------------------------------------------------------------*/
FoamFile
{
    version     2.0;
    format      ascii;
    class       volScalarField;
    location    "0.001";
    object      rhoNMean;
}
// * * * * * * * * * * * * * * * * * * * * * * * * * * * * * * * * * * * * * //

dimensions      [0 -3 0 0 0 0 0];

internalField   nonuniform List<scalar> 
546
(
7.652205789e+19
9.722508607e+19
9.770412998e+19
9.880801378e+19
9.97869296e+19
1.011824053e+20
1.011407493e+20
1.015156533e+20
1.007033614e+20
9.989106958e+19
1.019530412e+20
1.036401089e+20
1.008491574e+20
9.98077576e+19
9.955782164e+19
9.662107418e+19
9.403840266e+19
9.701680611e+19
9.866221781e+19
9.899546575e+19
7.879230947e+19
1.03181893e+20
1.03098581e+20
1.03015269e+20
1.043274328e+20
1.034318289e+20
1.047439927e+20
1.018280732e+20
1.024737411e+20
1.025362251e+20
1.026611931e+20
9.982858559e+19
9.912043372e+19
1.007241894e+20
1.012032333e+20
1.03223549e+20
1.044107447e+20
1.03286033e+20
1.008491574e+20
9.951616565e+19
7.708441379e+19
9.714177409e+19
9.866221781e+19
9.974527361e+19
1.000785215e+20
9.934954168e+19
9.753750601e+19
9.939119767e+19
9.905794973e+19
1.007658454e+20
9.784992596e+19
9.803737792e+19
9.999520956e+19
1.000785215e+20
9.937036968e+19
9.855807783e+19
9.668355817e+19
9.639196623e+19
9.784992596e+19
9.828731388e+19
7.581390602e+19
9.962030563e+19
9.939119767e+19
9.891215376e+19
9.778744197e+19
9.81415179e+19
9.934954168e+19
9.784992596e+19
9.905794973e+19
9.92662297e+19
9.92662297e+19
1.000785215e+20
1.003076295e+20
9.878718578e+19
9.834979786e+19
9.753750601e+19
9.826648588e+19
1.000576935e+20
1.012448893e+20
1.003284575e+20
7.80841576e+19
1.001826615e+20
1.006825334e+20
9.934954168e+19
9.943285366e+19
9.920374571e+19
9.893298176e+19
9.887049777e+19
9.747502203e+19
9.689183813e+19
9.782909796e+19
9.7620818e+19
9.730839806e+19
9.857890582e+19
1.005992214e+20
1.02890301e+20
1.025153971e+20
1.033901729e+20
1.004534255e+20
1.021613212e+20
7.764676968e+19
1.015156533e+20
1.016197933e+20
1.011199214e+20
1.025778811e+20
1.011824053e+20
1.005783935e+20
1.008491574e+20
9.970361761e+19
1.021404932e+20
1.024737411e+20
1.009949534e+20
1.009532974e+20
1.008283294e+20
1.002659735e+20
9.997438156e+19
1.004325975e+20
9.876635779e+19
9.991189758e+19
1.003284575e+20
7.798001762e+19
9.972444561e+19
1.007450174e+20
1.006200494e+20
1.005992214e+20
1.02890301e+20
1.027236771e+20
1.018905572e+20
1.02848645e+20
9.930788569e+19
9.843310985e+19
9.989106958e+19
1.002243175e+20
1.008908134e+20
1.007033614e+20
9.928705769e+19
9.953699365e+19
1.019113852e+20
1.022862891e+20
1.009949534e+20
7.775090966e+19
1.003701135e+20
1.018697292e+20
1.020571812e+20
1.015156533e+20
1.02931957e+20
1.025153971e+20
1.026611931e+20
1.022654611e+20
1.045773687e+20
1.058062205e+20
1.038275609e+20
1.026611931e+20
1.007450174e+20
1.002243175e+20
1.008908134e+20
1.003076295e+20
9.807903391e+19
9.801654993e+19
1.004117695e+20
7.75426297e+19
9.832896987e+19
9.859973382e+19
9.895380975e+19
9.803737792e+19
9.593375031e+19
9.912043372e+19
9.941202567e+19
9.857890582e+19
9.801654993e+19
9.780826996e+19
9.995355357e+19
9.941202567e+19
1.001618335e+20
1.003492855e+20
1.005159095e+20
1.011199214e+20
1.019322132e+20
1.012865453e+20
1.025362251e+20
7.695944581e+19
1.002243175e+20
9.987024158e+19
9.843310985e+19
9.87038738e+19
1.011199214e+20
1.007450174e+20
9.984941359e+19
9.916208971e+19
1.000160376e+20
1.018697292e+20
9.918291771e+19
1.006200494e+20
1.021404932e+20
1.024945691e+20
1.005575655e+20
1.021613212e+20
1.021821492e+20
1.025987091e+20
1.008491574e+20
7.927135338e+19
1.023071171e+20
1.035776249e+20
1.035776249e+20
1.033693449e+20
1.036192809e+20
1.024737411e+20
1.025362251e+20
1.025987091e+20
1.009949534e+20
1.018489012e+20
1.020988372e+20
1.039317008e+20
1.023487731e+20
1.03015269e+20
1.045773687e+20
1.018905572e+20
1.020988372e+20
1.019946972e+20
1.013490293e+20
7.912555741e+19
1.002659735e+20
1.015573093e+20
1.017239332e+20
1.006200494e+20
1.001618335e+20
9.997438156e+19
9.945368166e+19
9.934954168e+19
1.010574374e+20
1.001618335e+20
9.987024158e+19
9.916208971e+19
9.937036968e+19
9.820400189e+19
9.739171004e+19
9.847476584e+19
9.753750601e+19
9.710011809e+19
9.578795434e+19
7.837574955e+19
9.826648588e+19
9.822482989e+19
9.987024158e+19
9.997438156e+19
9.951616565e+19
9.849559384e+19
1.008075014e+20
1.013490293e+20
1.016614493e+20
1.024737411e+20
1.018072452e+20
1.004950815e+20
9.970361761e+19
1.004950815e+20
9.991189758e+19
9.839145386e+19
9.847476584e+19
9.657941819e+19
9.853724983e+19
7.729269375e+19
1.001201775e+20
1.026195371e+20
9.914126172e+19
1.000993495e+20
1.013073733e+20
1.001201775e+20
1.003076295e+20
9.984941359e+19
9.657941819e+19
9.689183813e+19
9.774578598e+19
9.943285366e+19
9.909960573e+19
9.801654993e+19
9.997438156e+19
1.004534255e+20
1.007866734e+20
1.020363532e+20
1.012240613e+20
7.729269375e+19
9.945368166e+19
1.000993495e+20
1.003701135e+20
9.897463775e+19
9.803737792e+19
9.787075395e+19
9.937036968e+19
9.770412998e+19
1.010366094e+20
1.016406213e+20
1.019322132e+20
1.02911129e+20
1.015573093e+20
1.015156533e+20
1.019322132e+20
1.021613212e+20
1.03015269e+20
1.010366094e+20
1.026403651e+20
7.793836163e+19
9.907877773e+19
9.782909796e+19
9.92454017e+19
9.951616565e+19
1.008908134e+20
1.012032333e+20
9.851642183e+19
9.928705769e+19
9.822482989e+19
9.778744197e+19
9.691266613e+19
9.562133037e+19
9.507980247e+19
9.532973842e+19
9.512145846e+19
9.620451426e+19
9.724591407e+19
9.964113363e+19
9.820400189e+19
7.656371388e+19
9.970361761e+19
1.007658454e+20
9.92454017e+19
1.008283294e+20
9.87247018e+19
9.912043372e+19
1.006200494e+20
1.017031052e+20
1.020571812e+20
1.012032333e+20
1.006617054e+20
1.026611931e+20
1.03140237e+20
1.037859049e+20
1.020988372e+20
1.011824053e+20
1.007241894e+20
1.006617054e+20
1.010157814e+20
7.550148608e+19
9.807903391e+19
9.916208971e+19
9.92662297e+19
9.909960573e+19
1.002243175e+20
1.009949534e+20
1.019322132e+20
1.011615773e+20
9.995355357e+19
1.015781373e+20
1.013906853e+20
1.017655892e+20
9.999520956e+19
1.000785215e+20
9.914126172e+19
9.989106958e+19
9.87247018e+19
9.832896987e+19
9.799572193e+19
9.588329364e+19
9.723210851e+19
9.892705652e+19
9.882436678e+19
9.964880441e+19
1.010420058e+20
9.901209916e+19
9.832495454e+19
9.896334562e+19
9.743405634e+19
9.953639985e+19
9.881188681e+19
9.87962878e+19
9.85609522e+19
9.902972971e+19
9.894856329e+19
9.940923512e+19
9.979814521e+19
9.752233759e+19
9.939724801e+19
1.000951095e+20
1.007812002e+20
1.015424454e+20
1.035438778e+20
1.018818928e+20
1.007524871e+20
9.842684715e+19
9.916677778e+19
1.011036664e+20
1.009549979e+20
1.013414641e+20
1.005864323e+20
9.857833879e+19
9.772680675e+19
9.849909485e+19
9.952759987e+19
1.014576165e+20
9.918782269e+19
9.993814517e+19
1.001227761e+20
1.006108429e+20
9.883352761e+19
1.001039812e+20
9.910973186e+19
1.006437441e+20
1.009751938e+20
9.974366417e+19
9.958768873e+19
1.001500581e+20
9.924787541e+19
9.942895555e+19
1.013871419e+20
1.007796238e+20
1.011511962e+20
1.017934536e+20
9.995074321e+19
1.020637704e+20
1.035232131e+20
1.024387179e+20
1.019792718e+20
9.921406695e+19
9.827086753e+19
9.829500507e+19
9.766095242e+19
9.617756804e+19
9.794638408e+19
9.945103883e+19
9.697803735e+19
9.845475455e+19
9.792485493e+19
9.852642342e+19
1.000454123e+20
9.990782777e+19
1.000316836e+20
1.029873813e+20
1.028904709e+20
9.988997717e+19
1.00513695e+20
1.023751447e+20
1.041985327e+20
1.037697053e+20
1.036810665e+20
1.055091167e+20
1.048829019e+20
1.029873821e+20
1.012869831e+20
1.040912505e+20
1.048069928e+20
1.037313862e+20
1.041345142e+20
1.034043939e+20
1.027721537e+20
9.949372534e+19
1.004268061e+20
1.01859783e+20
1.030240949e+20
1.014576165e+20
1.004084671e+20
1.002136327e+20
9.986670757e+19
9.738751451e+19
9.898501389e+19
1.015642396e+20
1.009755851e+20
1.000688896e+20
1.005520512e+20
1.022309859e+20
1.008504243e+20
1.007434144e+20
9.963197813e+19
9.904215607e+19
9.950439237e+19
9.71616702e+19
9.500485615e+19
9.522684726e+19
9.538525694e+19
9.493623694e+19
9.523125349e+19
9.569988561e+19
9.619639202e+19
9.639902628e+19
9.461357187e+19
9.541807743e+19
9.654144049e+19
9.774736283e+19
9.669922616e+19
9.721453941e+19
9.849331919e+19
9.684421682e+19
9.7434057e+19
9.753793586e+19
9.985064584e+19
9.864372418e+19
1.001853428e+20
1.012849278e+20
1.034472368e+20
1.018338499e+20
1.019868849e+20
1.036042384e+20
1.032596142e+20
1.046722374e+20
1.034213769e+20
1.061411688e+20
1.044438769e+20
1.027883933e+20
1.016210438e+20
1.029207465e+20
1.029339368e+20
1.016970233e+20
1.0313158e+20
1.03705238e+20
1.041788049e+20
1.034168069e+20
1.029072934e+20
1.034295778e+20
1.051398081e+20
9.702642334e+19
9.781986059e+19
1.000229104e+20
1.002294713e+20
1.001810656e+20
9.917978039e+19
9.888346672e+19
9.87146107e+19
9.883074233e+19
9.785730072e+19
1.022936908e+20
1.019447945e+20
1.014003445e+20
1.007202685e+20
1.002455322e+20
9.989392744e+19
9.905782731e+19
1.005146103e+20
9.989201134e+19
1.012201711e+20
9.773708585e+19
9.78619511e+19
9.667468581e+19
9.643112212e+19
9.833302368e+19
9.842235244e+19
9.907962083e+19
9.957070806e+19
9.936137719e+19
9.874812731e+19
)
;

boundaryField
{
    flow
    {
        type            calculated;
        value           nonuniform List<scalar> 
48
(
7.652205789e+19
7.879230947e+19
7.708441379e+19
7.581390602e+19
7.80841576e+19
7.764676968e+19
7.798001762e+19
7.775090966e+19
7.75426297e+19
7.695944581e+19
7.927135338e+19
7.912555741e+19
7.837574955e+19
7.729269375e+19
7.729269375e+19
7.793836163e+19
7.656371388e+19
7.550148608e+19
7.550148608e+19
9.807903391e+19
9.916208971e+19
9.92662297e+19
9.909960573e+19
1.002243175e+20
1.009949534e+20
1.019322132e+20
1.011615773e+20
9.995355357e+19
1.015781373e+20
1.013906853e+20
1.017655892e+20
9.999520956e+19
1.000785215e+20
9.914126172e+19
9.989106958e+19
9.87247018e+19
9.832896987e+19
9.799572193e+19
9.773708585e+19
9.78619511e+19
9.667468581e+19
9.643112212e+19
9.833302368e+19
9.842235244e+19
9.907962083e+19
9.957070806e+19
9.936137719e+19
9.874812731e+19
)
;
    }
    obstacle
    {
        type            calculated;
        value           nonuniform 0();
    }
    frontAndBack
    {
        type            empty;
    }
    procBoundary2to0
    {
        type            processor;
        value           nonuniform List<scalar> 
31
(
7.860485751e+19
1.021613212e+20
1.019530412e+20
1.004742535e+20
1.004117695e+20
1.004742535e+20
9.974527361e+19
1.001201775e+20
1.009324694e+20
1.015156533e+20
9.957864964e+19
9.855807783e+19
1.004742535e+20
9.982858559e+19
1.004534255e+20
1.006200494e+20
1.016614493e+20
1.011199214e+20
9.874552979e+19
9.807903391e+19
9.983724389e+19
9.699405972e+19
9.777192744e+19
9.755119703e+19
9.774736283e+19
9.819136069e+19
9.673379669e+19
9.821972597e+19
9.688659875e+19
9.666585156e+19
9.666585156e+19
)
;
    }
    procBoundary2to3
    {
        type            processor;
        value           nonuniform List<scalar> 
19
(
1.009076914e+20
1.003019761e+20
1.002346751e+20
9.96962607e+19
1.014012373e+20
1.006609192e+20
9.85296985e+19
1.030389121e+20
9.974112922e+19
1.023210272e+20
9.897837583e+19
9.579276243e+19
9.709392806e+19
1.040035699e+20
1.016255777e+20
1.037119292e+20
9.686958904e+19
1.026126687e+20
9.841752828e+19
)
;
    }
}


// ************************************************************************* //
