/*--------------------------------*- C++ -*----------------------------------*\
  =========                 |
  \\      /  F ield         | OpenFOAM: The Open Source CFD Toolbox
   \\    /   O peration     | Website:  https://openfoam.org
    \\  /    A nd           | Version:  7
     \\/     M anipulation  |
\*---------------------------------------------------------------------------*/
FoamFile
{
    version     2.0;
    format      ascii;
    class       volVectorField;
    location    "0.001";
    object      UMean;
}
// * * * * * * * * * * * * * * * * * * * * * * * * * * * * * * * * * * * * * //

dimensions      [0 1 -1 0 0 0 0];

internalField   nonuniform List<vector> 
546
(
(177.817471 -2.380527097 15.01248245)
(199.8388479 -4.897592513 1.119127428)
(219.7716436 -44.1635803 6.524620144)
(219.7725211 -21.10101992 -15.36069515)
(224.970745 -28.29803064 11.93371985)
(261.3472194 -12.28046417 19.2494641)
(276.0143051 -16.12724719 19.81622188)
(266.8487334 -27.76441377 42.95657615)
(298.0408231 -14.86853279 15.8458132)
(333.2756754 -8.113266404 54.6650341)
(323.1210274 -34.58751379 43.49878705)
(306.4081235 4.83514141 19.8590101)
(290.635828 9.276210209 24.0507835)
(373.4824387 -31.61207108 19.98861823)
(390.4381329 6.242312795 32.23637958)
(438.0517837 -18.72085315 4.522507553)
(449.8932063 -44.85721098 31.1812753)
(479.1533249 -25.78241882 -21.3502462)
(445.7401477 -28.13658908 18.88686665)
(474.5295503 -41.56141632 -22.65780488)
(148.3827321 -8.145133421 6.653973493)
(181.4244849 -8.120534436 8.860499353)
(186.5698841 -31.82267326 2.033243723)
(200.4557982 -10.69932095 14.76484782)
(264.0031564 -42.91113012 67.77007205)
(231.1601124 -29.3585794 82.6343118)
(243.4123647 -49.1250409 40.59618515)
(261.4085739 -19.12297551 70.76909245)
(268.4250478 -26.03771339 24.7835286)
(325.606641 -10.19472425 33.04709052)
(325.9942725 -54.81343629 -1.756253578)
(334.9281473 -4.043776819 -12.94505857)
(323.7796985 -3.380888458 -16.83010303)
(329.6849412 -52.18623817 32.92214584)
(333.3664837 -21.03546262 52.14409252)
(388.5188304 -16.50946588 32.86249515)
(436.4188086 -52.82073295 43.44026149)
(452.5527719 -27.24646831 31.79287435)
(449.5083893 -17.75729549 11.24034828)
(475.9718671 -37.8602033 -3.712691323)
(132.1443898 -9.517838987 7.126744656)
(156.0425547 -23.62340164 11.73487432)
(221.1653554 -22.17097775 6.077938339)
(202.0001584 1.746758749 31.10247742)
(214.0770178 -30.05633328 51.22156469)
(215.8446206 -12.53724623 21.07741838)
(222.0512596 -47.90041142 0.01360744208)
(272.7146488 -32.16196558 -14.71068)
(269.0959853 -33.50421464 32.91829598)
(310.4405933 -20.80463206 11.59464238)
(302.5359698 -69.78036005 3.26563711)
(325.6973282 -41.43983168 9.54368186)
(355.2427908 -13.22855643 2.093546697)
(368.7312888 -47.12667715 29.79333769)
(367.1973592 -66.15263678 -12.2178562)
(382.1413438 -32.3513678 17.0120992)
(411.2485605 -40.90288422 24.82677386)
(391.1220986 -34.76556594 47.49601623)
(437.4766738 -15.94246323 -2.942271036)
(464.4536967 -45.36823581 1.623862948)
(120.7529532 -11.22829762 -14.08424452)
(155.25031 -21.10425902 12.2053824)
(167.2465544 -29.82730913 56.41790231)
(208.7765675 -13.50888794 29.52836978)
(233.2916695 -39.65050633 17.49525585)
(214.5741368 -27.43217267 -1.439384029)
(208.2803574 -18.80537938 -0.4025399772)
(307.4309089 -71.38561654 11.18225309)
(311.4394874 -60.76913253 -27.09805611)
(307.8196908 -40.64968832 -35.47267608)
(347.8963712 -48.54878643 -10.43744477)
(338.8377969 -48.07277861 -14.80039448)
(310.6620978 -3.868186638 -3.733452834)
(377.1856801 -70.29709138 23.76168011)
(404.9769483 -84.94149888 22.42828939)
(396.3764509 -32.38667587 41.47580591)
(436.6862392 -57.98263681 10.73237607)
(467.0935775 -49.75390276 7.385099039)
(444.3264581 -38.31063062 3.722612763)
(486.286376 -51.99182181 -17.28087913)
(106.9367736 -0.4596750396 -12.40538678)
(161.3041469 -21.96868607 30.46575258)
(189.9730685 -40.01357889 33.88974639)
(238.1157015 -49.57555063 4.324858687)
(222.2072802 -43.59968987 23.73645492)
(216.5994668 -6.276548266 34.69426163)
(250.4753539 -54.10028957 26.46566871)
(312.9245045 -61.24544808 32.31185946)
(302.6694821 -52.89014004 -3.536284069)
(333.1628363 -57.92889794 -20.76460808)
(283.5594122 -89.89110082 -22.84985466)
(298.6720952 -5.517864783 14.61177954)
(342.6282541 -48.06202791 1.456810199)
(355.5900298 -84.35602164 -25.01180225)
(404.5266291 -51.12270584 21.8450955)
(414.6418487 -49.41135692 8.508813684)
(377.9795566 -74.07096873 14.9777436)
(412.7242242 -66.4193367 6.112520087)
(408.3010907 -47.51367559 17.37041406)
(428.9661939 -74.05439684 25.9750669)
(128.56108 5.71743559 10.49406889)
(140.9272242 -9.138343459 -13.35478735)
(155.0349684 -62.84203918 10.58100164)
(202.2608054 -43.39335428 14.67307311)
(182.2387694 -18.37911296 32.91703887)
(196.4194162 -35.27204652 -8.090635627)
(247.7249107 -66.23512284 -6.070400044)
(240.2893859 -83.37370262 -7.757989717)
(275.2742378 -55.55724719 -14.56792706)
(297.1287912 -44.23039108 11.83168068)
(315.9925133 -76.93022702 21.12731148)
(293.2753824 -37.26477644 14.61115678)
(323.9121268 -43.49727266 22.9872435)
(366.9555955 -99.95256945 0.1586383538)
(347.3892922 -60.43611541 -2.291724456)
(360.12129 -43.22088604 -1.274645287)
(358.1911437 -74.67608675 20.56869634)
(426.9839235 -79.43492329 6.123354635)
(435.6010233 -57.01958675 38.88117757)
(422.4831595 -58.42642613 -6.656854686)
(121.8499271 -0.4830447057 -6.522449255)
(136.8951863 -24.12733686 -25.10306078)
(148.9122515 -59.1540339 -3.880962115)
(167.97883 -44.26133968 7.176920052)
(173.7870322 -38.35292456 -3.735289145)
(206.9663365 -59.99737082 12.04445518)
(238.0133746 -68.98372674 4.28487055)
(269.58709 -63.27983401 -0.1004872204)
(254.6101852 -56.58149098 -10.18365376)
(295.0547025 -62.96295749 -20.74206872)
(300.0450513 -79.79453367 -13.66122828)
(296.1120581 -60.00238596 -24.98333764)
(338.5046 -69.93484309 1.332425964)
(367.222061 -99.11736671 -3.253259973)
(384.5278291 -45.43136165 8.391017693)
(376.2391634 -38.95908024 5.646777822)
(361.6281472 -73.32674556 -22.78687457)
(425.7048654 -90.80207834 -32.30273552)
(432.0228694 -78.31877542 -23.41325616)
(471.9101715 -71.38140621 -14.10371733)
(134.509885 -8.626465529 37.02336994)
(161.1421436 -27.05831195 -16.86443531)
(150.6868779 -54.43003797 4.819542823)
(139.0699925 -51.62717624 17.61363123)
(188.1291673 -44.81642249 -10.21677359)
(169.7805726 -74.05833159 -1.625676945)
(168.2745992 -87.02530946 12.79500954)
(179.0927888 -55.89803146 6.803996264)
(229.1589528 -94.60407071 10.44603221)
(279.8759836 -60.56805266 0.7692986281)
(320.2174562 -92.84596435 -53.06364256)
(327.9589624 -65.88478803 -21.97631559)
(354.5967698 -89.5201242 24.50580906)
(330.9834463 -89.89688673 7.673834043)
(338.440204 -84.30853795 11.66944709)
(367.5066838 -43.94340872 14.06775181)
(456.1453607 -66.52482503 -27.29038155)
(408.312787 -90.36724486 -43.92781187)
(455.9285955 -90.66654128 7.180359085)
(411.9602733 -89.46363502 -14.63838594)
(109.209511 -19.86753163 -30.8659631)
(118.6908585 -34.19022813 -19.61178666)
(135.6156645 -54.35196761 3.495588221)
(168.3999888 -50.15770528 -10.33277974)
(152.2907773 -47.97480852 -1.053020896)
(167.2027993 -66.74847143 -27.02306048)
(165.3289497 -96.14833005 -1.489727542)
(232.1165184 -88.17880898 16.69703042)
(217.6810321 -106.7211706 -7.7717169)
(256.6122274 -85.47817049 -13.81131919)
(287.1457738 -86.24378539 -11.38718994)
(327.4667861 -62.00346767 -26.87035154)
(322.7531558 -103.9516606 -4.749179591)
(325.9358341 -92.38245605 32.58152226)
(339.373445 -108.417873 -1.390021895)
(352.6478661 -80.17595212 24.02151664)
(370.6616591 -67.43715157 -18.30323423)
(381.4116296 -71.13062246 -12.50729319)
(418.4143785 -114.4216632 -1.463443713)
(442.4209458 -107.6428389 17.33962471)
(156.4376562 -22.8933658 -11.47685699)
(145.7672804 -20.69722214 -3.430422564)
(147.5634195 -49.93680488 -19.80543931)
(163.6040362 -45.02757078 -11.62576821)
(192.6828978 -66.82372848 -37.0673092)
(205.6922889 -63.5052813 -18.1686597)
(208.2743812 -102.4002675 -30.46870189)
(204.6364315 -92.83646858 -8.742368481)
(236.3079073 -101.7370457 -1.546690478)
(274.3931435 -101.5798449 5.972510331)
(266.9642148 -107.9588927 -9.24114598)
(306.5174578 -82.4721229 -34.92780312)
(332.5815649 -93.15408556 -18.36709564)
(339.5778762 -81.05517689 1.797581157)
(307.0436236 -107.9332099 -8.25384645)
(328.7638837 -83.30316077 -6.990392652)
(349.4510144 -91.92545387 2.067538586)
(356.9703955 -67.10605108 -9.971973043)
(403.6755158 -116.6949478 -6.459528703)
(385.234807 -111.5374365 -9.221284749)
(105.053685 -45.06702462 20.53366527)
(133.0549934 -22.44210351 -17.23693065)
(136.7359752 -63.24671215 -25.96120522)
(149.2166702 -46.83318833 -30.91122315)
(164.4278967 -89.38000517 21.26181284)
(206.7162876 -43.36927135 4.684828811)
(171.6599499 -101.9450078 41.17231348)
(173.3067785 -98.10408374 1.436644995)
(198.5255501 -95.05823153 25.66036846)
(233.847264 -113.0742515 25.09631372)
(262.6943933 -106.1279295 -6.21959355)
(262.6893373 -104.8595985 -39.12664227)
(237.8176955 -104.8567999 -22.56226026)
(293.506335 -93.45434406 14.7469617)
(283.2120513 -95.94109119 -26.6953435)
(328.0804169 -96.48540637 -11.42365982)
(324.3358343 -87.49109414 5.523402733)
(314.741613 -75.08866395 -20.67230041)
(373.3600211 -117.2839756 -13.66086658)
(383.6057499 -85.84180555 -1.177102106)
(96.90934936 -42.27532674 1.563017684)
(124.7670997 -39.90526162 -3.41828582)
(135.451067 -50.96160072 -14.43346285)
(159.4590424 -56.00456316 10.25137866)
(164.4358218 -83.09816684 -5.152471428)
(171.9894407 -79.1614581 2.54817904)
(219.4524146 -85.69921908 32.08995349)
(211.3468897 -105.1713502 34.36753432)
(220.570845 -102.0804056 32.2317593)
(235.2570885 -105.9460921 2.064593764)
(220.2495983 -100.0175581 -3.913847987)
(225.2376518 -106.3983332 10.91917215)
(237.2677973 -81.23533553 -16.90354474)
(223.4053659 -108.1939428 21.4809307)
(252.4527224 -107.5876126 -21.00852063)
(248.8956889 -127.8755632 2.906393898)
(296.4140155 -100.4191403 1.944031239)
(293.2752309 -106.0224699 17.94467189)
(358.9121828 -114.9972289 7.234328684)
(370.4973449 -115.3279247 -9.501578836)
(92.67166654 -37.08491346 26.00747437)
(108.0486144 -39.13528763 -2.41537093)
(135.5736894 -79.00211137 4.05289643)
(150.5715217 -63.0186304 13.85339533)
(192.6395369 -81.91324978 13.27148172)
(206.057564 -82.52558443 16.33838455)
(160.3241208 -115.6840172 28.00985806)
(174.0742224 -80.74262568 21.27102812)
(207.9157713 -114.6769729 57.96569668)
(233.6064706 -93.21980942 38.23148271)
(241.3789591 -102.4808074 10.45487077)
(241.7976891 -113.2745397 -4.583190638)
(292.2909119 -94.71136252 -8.596673784)
(304.9383475 -116.7860712 26.94594182)
(297.1936485 -84.14256974 37.05692461)
(284.7898608 -129.1285623 11.0524687)
(302.9548736 -151.3583797 4.081176353)
(318.3911484 -98.93567625 -3.995758212)
(373.7373918 -117.6555573 21.35857993)
(386.2564205 -124.4180396 -2.841649921)
(91.46127166 -52.13904894 -13.34730285)
(105.1196846 -55.77244264 -22.04746558)
(111.7020702 -65.76304957 17.14285696)
(135.4063314 -89.02140894 2.745509488)
(140.1571782 -74.55331152 -15.33741199)
(142.8318985 -77.016396 -1.870068611)
(149.5708997 -94.49883489 17.13908184)
(162.7318338 -102.2321973 33.9043364)
(147.7344112 -106.6648773 21.53382092)
(168.6475413 -105.5015443 42.76163356)
(218.8238228 -105.1381505 29.50533262)
(263.4756804 -82.01641158 30.64121359)
(245.0731039 -117.3007664 8.898856732)
(290.7588773 -126.326301 6.786352779)
(344.4763434 -106.0770016 13.23699548)
(328.1222729 -116.7051825 25.60308463)
(318.907131 -139.5124987 21.97398538)
(314.0462767 -112.6588911 -8.801153235)
(311.1190916 -115.8809678 -0.01519450589)
(299.5739283 -92.38039541 28.47090048)
(90.68511317 -53.28388903 -37.41458879)
(102.7664513 -63.25811451 -1.942786723)
(104.2446078 -66.00420991 -53.43925057)
(113.8432276 -72.60947884 -34.29991592)
(105.7901972 -74.16829514 -14.03663512)
(145.1869056 -105.472338 9.104969514)
(167.5694416 -91.79037663 -22.3148109)
(169.8388469 -111.2773385 18.96700966)
(185.3372463 -95.25189368 -4.555591196)
(196.7825496 -137.3283787 29.69017998)
(182.7392555 -111.8895654 30.80610475)
(237.8556187 -97.44942957 27.86131702)
(242.2459332 -123.500465 3.672344051)
(244.7932473 -133.0209659 -16.22961544)
(286.5746109 -105.1632271 17.6218321)
(311.2895442 -119.9376394 42.63464664)
(281.3521501 -141.7936371 28.93504655)
(281.9478257 -114.342739 0.4415074942)
(272.2320388 -85.91290804 -8.03893456)
(292.5903972 -124.1312049 10.67888534)
(66.70496394 -49.49708549 6.179259244)
(72.18664425 -75.04708758 -2.560379041)
(112.5094164 -85.88311137 -16.0602057)
(129.4773436 -67.01822021 -15.77246553)
(120.3343195 -75.29299433 -23.385416)
(131.4328899 -97.26359106 5.237419361)
(139.6792953 -128.7504798 17.98329891)
(157.8835282 -95.15329756 25.40680756)
(174.19657 -90.42153975 4.986975448)
(174.0562255 -129.0611348 34.81230982)
(169.1109286 -127.4778891 8.725735117)
(193.9173049 -104.8706237 13.28787766)
(200.9058688 -147.5685873 -21.5760376)
(222.38663 -129.547309 6.597777289)
(225.4295848 -97.52338445 -7.630082552)
(245.686722 -98.18090248 -17.84879293)
(230.4399782 -149.0524469 -28.86464506)
(257.9672266 -113.844821 -1.923994618)
(275.0116525 -125.9716688 -4.674605606)
(297.7171338 -121.8901973 17.80022939)
(67.58864888 -55.80979125 -2.035722227)
(66.66252886 -76.86505976 -4.771517655)
(77.0721925 -81.36667157 -1.505810934)
(94.84816078 -60.4517493 -11.45802155)
(104.8161404 -73.91174603 -20.98253366)
(100.072371 -94.66370361 23.52377105)
(132.6100486 -113.0614996 17.15585778)
(121.7129979 -114.7431904 40.86423456)
(142.3787091 -77.47750958 7.954489954)
(149.0488543 -118.520452 12.60687535)
(162.0044601 -117.9374699 29.34312068)
(164.8744919 -116.8559444 43.56746768)
(182.1670802 -138.2838637 9.518577173)
(192.5455875 -128.9680669 20.4226528)
(175.8168131 -88.60220334 3.105553104)
(189.4435879 -105.3317708 -24.96129671)
(255.231498 -143.6915821 -10.45238867)
(225.0590187 -122.408856 6.287994616)
(255.0759785 -139.7734399 7.944329418)
(247.3011452 -89.47917697 -14.98745319)
(52.65399628 -69.01581637 -1.63904002)
(65.45057811 -52.62541572 9.162759283)
(48.90553162 -67.22450602 -12.08243667)
(53.20048496 -54.10726214 1.967030553)
(85.76914629 -87.23373722 17.03471834)
(107.4646917 -105.3865638 3.410137586)
(91.87009418 -100.0908799 4.644726529)
(94.18930351 -96.68791135 20.95938762)
(133.0077802 -111.5476161 24.71566839)
(158.1712152 -113.3244258 1.722057269)
(133.845784 -104.2539965 10.43346436)
(132.7187292 -88.46424551 3.227326629)
(110.5902711 -89.1460346 -0.7401898641)
(120.0940051 -104.5656351 2.947744379)
(137.3625839 -80.8476701 22.33024846)
(149.0962949 -115.0981356 11.24367242)
(149.8710713 -106.6480505 24.54586466)
(154.7429174 -114.9542105 6.145381202)
(140.3205296 -112.1618897 22.28511734)
(140.3391798 -92.5758831 -17.23429992)
(578.1068851 -58.99331057 -42.72394945)
(631.5464911 -22.19266467 2.57430179)
(604.6147646 -54.43351992 14.26589712)
(595.876087 -27.18215461 -34.07938626)
(589.8115446 -35.08567846 17.54390471)
(666.900357 -47.76389903 -2.588461491)
(530.6717739 -31.65403461 9.994467053)
(522.4224197 -34.25311464 -53.90371511)
(494.4771893 -33.89110819 -23.72719491)
(514.7468838 -39.5824809 17.49591696)
(533.0091028 -68.87737369 -18.92974562)
(560.3617672 -14.13831235 -53.77991877)
(623.3403179 -69.54329989 -39.58613519)
(614.6137252 -45.20816521 6.743228757)
(629.3179317 -30.39665733 -11.69730348)
(587.8839608 -57.91324384 -37.23278604)
(515.7090799 -61.12388318 14.33018783)
(562.0534031 -31.92671483 -19.15989974)
(574.9224881 -77.96354717 -5.834147773)
(537.6335965 -48.72709172 0.04342172805)
(513.5133805 -36.70480174 8.649908417)
(535.3179075 -44.6005005 -2.441244598)
(592.8279353 -67.78295342 -8.186926766)
(570.6542786 -48.26744524 12.33485678)
(610.8849526 -33.79632777 15.14943289)
(616.6188202 -40.50745174 -52.96794478)
(509.6961102 -96.13402556 16.86728709)
(553.2448505 -46.16297411 2.020931436)
(500.6396498 -76.13506717 -32.77301466)
(533.4704046 -30.4553565 -13.73557637)
(582.3629287 -58.64036399 26.37719225)
(522.7971151 -18.83698782 1.271931895)
(479.1284434 -41.54306209 -11.07794332)
(507.5392867 -46.29268214 7.799476371)
(568.3614265 -24.80915247 11.70887512)
(642.8420808 -43.93337866 3.216248077)
(487.9372867 -96.6126865 -46.38660657)
(500.0360265 -75.18908066 -37.48272954)
(539.1754428 -57.11746038 -41.26506532)
(535.1397282 -12.64359859 -39.72802897)
(586.8169519 -73.69129097 23.12393409)
(603.5167854 -55.2789194 3.579081691)
(584.2668468 -57.8629035 -18.42863981)
(550.1796585 -89.36208776 -32.44699921)
(573.9916125 -39.66812438 -44.75758628)
(605.8914356 -20.21973336 16.48309263)
(444.8922092 -110.357915 -19.81761087)
(524.2936904 -79.2081921 -26.1660735)
(519.8525961 -80.56502424 -72.74035872)
(579.5782345 -37.55738713 -10.71433723)
(543.9608431 -63.03897747 0.5802835018)
(519.0621063 -56.6727083 -13.4780579)
(624.4675896 -63.75389052 -46.04773646)
(595.8193639 -97.9907828 -7.147872199)
(544.4827211 -62.63243805 0.4089664602)
(527.5159726 -47.56028519 -4.559816457)
(454.3733313 -99.20621421 -56.83495667)
(497.573104 -91.24491898 -44.84904)
(541.9550798 -63.17598942 -37.23126617)
(497.9758768 -61.03653613 -16.77193369)
(494.8314237 -49.17709345 15.87441685)
(524.5312054 -68.97794859 -9.078089106)
(566.3614348 -79.40336092 -17.79255983)
(610.636957 -63.78915641 -31.91239617)
(582.7055227 -70.0920582 6.647774017)
(650.2319921 -68.15603591 14.45422466)
(478.8262163 -98.82675856 -28.0631106)
(528.8526227 -90.71451897 -2.673222528)
(508.2091387 -62.45113122 -1.000148804)
(495.2561211 -68.85357335 -31.21833927)
(498.450453 -50.6980614 14.0958297)
(515.0000911 -70.63217328 -3.158827852)
(520.4695703 -70.26520821 32.76952783)
(535.9937878 -73.0588135 -7.394331704)
(568.9914852 -46.8498321 -11.96248846)
(545.0772584 -82.82804714 -0.6306659288)
(462.2841328 -99.75028096 -12.04094707)
(468.2641433 -89.94215719 6.630804417)
(496.6306718 -96.86453251 -15.80620174)
(525.0980162 -77.02438273 -7.582053586)
(503.0612717 -67.46667828 15.83033705)
(516.514009 -78.2837616 -6.033938831)
(604.0041353 -87.95795713 26.80857103)
(553.8864869 -79.67156314 -11.23899296)
(568.4463043 -47.92058662 -46.40975601)
(519.1508947 -87.31266048 -2.791773845)
(507.5522145 -87.79541447 15.33838446)
(492.7558497 -102.7633737 1.920124184)
(490.5468498 -90.50945381 -6.724777749)
(478.8655511 -71.42734036 -7.285911188)
(492.8609816 -82.43916288 -12.165299)
(483.1175572 -88.40361369 9.655880284)
(538.2785035 -91.23091629 -10.89681871)
(526.9573704 -88.3973223 -25.72817713)
(565.8596742 -60.16400436 -13.03733203)
(536.3045964 -78.43195227 -16.89339134)
(457.7464499 -87.4793924 -8.501779223)
(422.6796654 -117.9967986 -38.86344294)
(413.0021202 -89.84440383 -8.079330852)
(417.7314172 -86.9346999 -14.65381917)
(446.0233456 -85.9933079 -3.684086989)
(451.6827123 -100.7164795 23.85738208)
(566.2853086 -111.9416716 -13.78247132)
(526.7636726 -102.0051271 -27.24436968)
(521.0903328 -87.19146446 -37.55339765)
(546.531851 -78.13041576 -4.648397128)
(406.7282501 -107.6208832 -16.39987778)
(388.1594359 -108.6946823 -45.22009383)
(472.2910633 -123.3923464 -29.95595329)
(494.7608693 -102.7286236 -0.4936400317)
(441.0228343 -112.2919653 13.11797653)
(507.529144 -125.4122192 21.22844823)
(474.0335864 -106.6216947 12.9368082)
(439.7062672 -99.34760738 14.84852057)
(458.9594287 -82.98627538 -4.261560151)
(482.6283266 -95.18707807 2.763359621)
(401.589568 -107.5301869 -18.8209274)
(382.3888776 -86.99530992 2.840640536)
(385.1404098 -109.4260891 10.01581363)
(434.5321437 -124.3325204 0.1610225827)
(412.2558331 -126.8126527 0.3297404104)
(470.1159523 -117.5137935 16.41656489)
(475.5807613 -104.878935 12.2827127)
(425.9931311 -81.05509932 36.18569219)
(418.8760405 -80.90056338 5.273284835)
(418.5199651 -88.59445776 33.851766)
(441.3320733 -105.0476624 7.018340151)
(404.9178341 -98.3178975 22.49122604)
(378.4626531 -113.36328 3.9118386)
(443.7880663 -133.6472284 -15.46189273)
(437.6554143 -136.2431828 5.082279771)
(440.0803062 -88.67095235 -0.1793004522)
(422.9035656 -101.7746114 25.48916702)
(431.2097725 -90.34282067 31.30803417)
(421.5923542 -95.25192603 -30.42414501)
(446.4105043 -87.99678304 -23.53547005)
(379.9792229 -101.1391 21.89268653)
(375.3187427 -101.350642 -8.857026989)
(364.9476727 -144.6798458 -8.361616121)
(376.801484 -145.7736538 20.44679656)
(393.5758894 -130.8859262 21.09221975)
(396.1209976 -100.0834318 16.44126809)
(438.8438732 -131.3456818 14.16086867)
(445.7522429 -81.42933569 27.86301218)
(466.2741764 -96.06585615 7.62859148)
(435.5747014 -95.96246551 26.27537192)
(363.3793535 -109.9256869 9.032517717)
(390.7282669 -91.00708981 10.94523698)
(384.8978073 -110.9165929 11.5972748)
(346.2283751 -161.8714988 8.616207258)
(404.1473784 -134.6534658 4.171347251)
(409.4811985 -118.609814 4.481595844)
(388.443921 -93.78314615 -6.261085865)
(370.7366892 -103.5726049 22.84500823)
(397.6025521 -93.57715624 -3.765472043)
(409.5535848 -101.3421806 -14.05103255)
(278.7721364 -112.9626552 -4.000601656)
(239.245806 -107.3227825 6.784517885)
(249.6503182 -126.3288319 17.00930837)
(263.3316832 -134.828659 -6.511264598)
(291.5438701 -132.8501225 -5.506706053)
(317.3445284 -122.8483596 -32.45655791)
(319.3308006 -92.69205364 11.36828021)
(325.1172222 -115.3302743 -2.188557155)
(323.9825267 -93.38961846 -5.027623549)
(380.1376534 -94.07956418 0.1507484167)
(284.0258071 -95.03191203 13.08880477)
(279.4542675 -118.0245457 -15.46730882)
(260.5267805 -98.6534196 -1.957020152)
(245.2913656 -121.9475781 9.007986102)
(246.0909034 -105.0388532 -7.988546839)
(241.4183992 -122.06657 -19.10821866)
(292.5587043 -104.8349866 -46.34211753)
(272.4074468 -115.8854959 11.02474485)
(213.7369107 -85.56758399 18.38031138)
(245.0841199 -92.32142658 6.037028499)
(161.2542562 -84.62284633 -25.1578157)
(156.226888 -100.1366791 -8.176350664)
(167.6258249 -86.38191672 -7.197583012)
(166.3176665 -108.9455738 25.69834039)
(183.4048967 -95.05481988 37.3072198)
(165.1709319 -105.7055953 -21.35338827)
(176.8625704 -102.0815054 -42.78119698)
(168.1563359 -85.66431771 -7.675223343)
(176.9349861 -94.41928264 -15.63157395)
(186.6889676 -90.58415552 -12.06763634)
)
;

boundaryField
{
    flow
    {
        type            calculated;
        value           nonuniform List<vector> 
48
(
(177.817471 -2.380527097 15.01248245)
(148.3827321 -8.145133421 6.653973493)
(132.1443898 -9.517838987 7.126744656)
(120.7529532 -11.22829762 -14.08424452)
(106.9367736 -0.4596750396 -12.40538678)
(128.56108 5.71743559 10.49406889)
(121.8499271 -0.4830447057 -6.522449255)
(134.509885 -8.626465529 37.02336994)
(109.209511 -19.86753163 -30.8659631)
(156.4376562 -22.8933658 -11.47685699)
(105.053685 -45.06702462 20.53366527)
(96.90934936 -42.27532674 1.563017684)
(92.67166654 -37.08491346 26.00747437)
(91.46127166 -52.13904894 -13.34730285)
(90.68511317 -53.28388903 -37.41458879)
(66.70496394 -49.49708549 6.179259244)
(67.58864888 -55.80979125 -2.035722227)
(52.65399628 -69.01581637 -1.63904002)
(52.65399628 -69.01581637 -1.63904002)
(65.45057811 -52.62541572 9.162759283)
(48.90553162 -67.22450602 -12.08243667)
(53.20048496 -54.10726214 1.967030553)
(85.76914629 -87.23373722 17.03471834)
(107.4646917 -105.3865638 3.410137586)
(91.87009418 -100.0908799 4.644726529)
(94.18930351 -96.68791135 20.95938762)
(133.0077802 -111.5476161 24.71566839)
(158.1712152 -113.3244258 1.722057269)
(133.845784 -104.2539965 10.43346436)
(132.7187292 -88.46424551 3.227326629)
(110.5902711 -89.1460346 -0.7401898641)
(120.0940051 -104.5656351 2.947744379)
(137.3625839 -80.8476701 22.33024846)
(149.0962949 -115.0981356 11.24367242)
(149.8710713 -106.6480505 24.54586466)
(154.7429174 -114.9542105 6.145381202)
(140.3205296 -112.1618897 22.28511734)
(140.3391798 -92.5758831 -17.23429992)
(161.2542562 -84.62284633 -25.1578157)
(156.226888 -100.1366791 -8.176350664)
(167.6258249 -86.38191672 -7.197583012)
(166.3176665 -108.9455738 25.69834039)
(183.4048967 -95.05481988 37.3072198)
(165.1709319 -105.7055953 -21.35338827)
(176.8625704 -102.0815054 -42.78119698)
(168.1563359 -85.66431771 -7.675223343)
(176.9349861 -94.41928264 -15.63157395)
(186.6889676 -90.58415552 -12.06763634)
)
;
    }
    obstacle
    {
        type            calculated;
        value           nonuniform 0();
    }
    frontAndBack
    {
        type            empty;
    }
    procBoundary2to0
    {
        type            processor;
        value           nonuniform List<vector> 
31
(
(164.5080371 -10.07256155 7.927576795)
(168.4405613 -12.31309021 -11.90059594)
(199.3316045 -33.40094448 -29.81665774)
(228.1759637 -19.56321193 -40.00815064)
(215.127418 -13.18552938 -15.86440667)
(279.2718309 -2.523471397 -11.2431881)
(251.6298044 -37.43081023 -20.72866115)
(307.8569263 -1.842416388 -27.01228713)
(309.7948621 1.40235983 -16.6965556)
(337.1509102 -12.46766267 39.47646053)
(362.4643931 -8.215399544 10.83458315)
(386.0269737 -19.51911859 -3.696135294)
(383.2959096 25.46893964 -8.729320006)
(373.2087285 16.48323441 13.69292052)
(429.3082188 -16.15531031 -1.544252645)
(438.8493672 -28.76871154 15.21805415)
(429.0587729 -32.25578115 38.89648783)
(425.9772474 -4.027392102 10.27962594)
(446.5495847 -39.42679216 31.07032304)
(512.611249 -49.64559838 -15.57640599)
(597.1478258 -31.71415145 -17.0523304)
(647.984411 -62.12140038 12.55312124)
(639.575773 -39.88062835 -7.108679147)
(640.0222387 -15.87967734 -7.905935358)
(611.0419873 -32.36341446 17.50648118)
(595.1504565 -49.30808659 -40.41271106)
(507.5422534 -28.39741421 1.656069748)
(537.8801067 -26.09689608 -15.4138601)
(523.7709626 -21.28466287 -4.761336391)
(530.5230726 -15.9042655 -1.304134692)
(530.5230726 -15.9042655 -1.304134692)
)
;
    }
    procBoundary2to3
    {
        type            processor;
        value           nonuniform List<vector> 
19
(
(688.9632284 -25.12024661 6.348024586)
(671.8944332 -37.88261128 8.405907617)
(653.8575213 -43.19589081 -15.52801573)
(661.7363928 -73.96695603 8.775850195)
(569.6314013 -83.41900007 6.387110707)
(524.1697586 -50.90831567 21.37957924)
(599.5517654 -74.5976909 0.3817270317)
(591.5876516 -60.11140342 -15.59968509)
(609.491319 -49.35864374 -26.56270799)
(585.5347275 -71.21998177 -10.4436167)
(515.9058925 -103.999034 -10.59449535)
(493.1342272 -92.68356581 24.65935825)
(469.5690839 -85.22662958 17.34077566)
(428.7771184 -100.9895585 9.837380581)
(417.4729894 -92.45889667 -6.36480109)
(377.5727602 -89.07151936 -26.54529344)
(338.4530007 -86.04637845 -36.74515142)
(280.2502754 -98.15164137 -5.917188737)
(185.3163985 -81.39553721 4.459491028)
)
;
    }
}


// ************************************************************************* //
