/*--------------------------------*- C++ -*----------------------------------*\
  =========                 |
  \\      /  F ield         | OpenFOAM: The Open Source CFD Toolbox
   \\    /   O peration     | Website:  https://openfoam.org
    \\  /    A nd           | Version:  7
     \\/     M anipulation  |
\*---------------------------------------------------------------------------*/
FoamFile
{
    version     2.0;
    format      ascii;
    class       scalarField;
    location    "0.006/lagrangian/dsmc";
    object      Ei;
}
// * * * * * * * * * * * * * * * * * * * * * * * * * * * * * * * * * * * * * //


4796
(
3.434639501e-21
5.667501698e-21
5.244626078e-21
1.174848314e-21
5.954806359e-21
2.659488676e-21
8.103058866e-21
1.580941136e-20
3.290878279e-22
1.416301939e-20
5.525078828e-21
2.460012729e-21
4.022740996e-22
1.104158276e-23
3.444494109e-22
4.540268843e-21
8.646137173e-21
4.962451646e-21
2.965702385e-21
8.41832084e-21
2.861298861e-22
9.690621035e-21
1.226104671e-20
6.590159388e-21
7.585032751e-21
3.50553031e-21
1.936403987e-22
1.963084336e-20
6.018165588e-21
2.368679469e-21
6.160407129e-22
4.962648711e-21
8.5045994e-21
2.6514264e-21
1.038396227e-20
1.039779454e-20
3.938715599e-21
3.351933266e-21
1.500636274e-20
4.687753422e-21
5.607970399e-22
1.438490516e-20
5.764579202e-21
5.357618616e-22
8.913274628e-22
8.177245285e-22
3.702848759e-21
7.024830891e-21
9.241901398e-21
8.831504882e-21
2.992340081e-22
5.532974615e-21
1.217059991e-21
6.476869224e-21
6.884986547e-21
3.003911037e-21
6.902546912e-21
6.580851617e-21
3.293612746e-21
1.502636538e-22
6.356788517e-22
8.803641326e-22
1.393203738e-21
2.0383433e-21
6.279957974e-22
2.763556661e-21
1.008844482e-20
6.905726221e-22
1.45627433e-21
7.799444484e-21
1.062343229e-20
1.448204552e-21
4.91542254e-22
1.252671136e-21
8.957710476e-22
2.335538291e-21
3.110102612e-21
6.021110159e-21
6.638148295e-21
4.139223871e-22
3.701305231e-22
3.530503137e-21
4.26306808e-21
8.868493322e-21
1.640812412e-21
6.643536793e-21
7.43473433e-21
7.206330856e-22
7.153247918e-22
4.623583086e-21
2.724381742e-21
5.018452784e-21
3.80746773e-21
2.717941261e-22
3.702354577e-21
2.811445895e-22
8.723446179e-21
2.125058782e-21
3.345304289e-22
4.739544954e-22
1.815957885e-20
1.152710012e-21
2.919114657e-22
1.491621692e-21
3.769887206e-21
6.801629745e-21
3.255051346e-22
1.720636786e-21
4.925984929e-21
1.668703766e-21
2.132665274e-21
1.851690923e-20
3.198974958e-22
4.738829154e-22
3.913067013e-22
3.44361357e-22
1.625367775e-21
1.722053697e-20
1.453213584e-22
3.280517028e-21
3.264966861e-21
5.913761668e-21
1.594664605e-21
2.816267124e-21
1.481456659e-21
1.883645079e-21
1.78821295e-21
6.076336041e-21
5.264499844e-22
5.656345029e-22
5.740081495e-21
6.911355205e-22
8.60261009e-22
1.545612086e-21
1.040206148e-21
8.18548394e-22
7.789264762e-22
6.724713858e-21
6.296743587e-21
5.29423888e-21
4.09290664e-21
3.290268448e-21
1.055173784e-21
1.218490883e-21
4.126814195e-21
1.005025725e-21
1.701121485e-23
3.839876062e-21
1.418172059e-21
4.557702895e-21
5.104196335e-21
3.735485808e-21
6.522463806e-21
1.656068496e-21
3.583000609e-21
4.983013671e-21
2.9161448e-21
5.665042754e-21
2.623043409e-21
1.634471891e-20
1.985725322e-22
8.682803451e-21
2.598240601e-21
1.088689032e-20
1.182398245e-20
7.668344297e-21
9.687861023e-22
1.62140671e-21
1.184935274e-20
2.269085992e-21
3.520344324e-21
9.931576415e-21
1.870316918e-21
2.862606996e-22
6.049521209e-21
1.922717477e-21
1.884756022e-20
4.0066139e-21
2.2451226e-20
1.200825279e-20
9.623300721e-23
7.597161359e-21
5.898878133e-21
4.720985443e-21
2.972530373e-21
3.379394237e-21
4.897135066e-22
5.33356584e-21
7.488792679e-21
4.136604999e-21
6.787131221e-22
3.80912751e-22
3.458326696e-21
2.021102542e-21
3.639389066e-21
7.905837585e-22
2.431585501e-21
1.613985378e-21
1.842765199e-22
2.62131606e-21
4.516877027e-22
1.858848764e-21
8.875996043e-21
3.845358197e-22
5.128612691e-22
1.37694006e-22
1.332638406e-21
2.638498077e-22
1.359265196e-22
2.709362111e-21
1.143746769e-20
3.842356551e-21
3.992013665e-21
9.851706242e-21
2.074160039e-21
1.976682495e-21
2.059549757e-21
8.323123288e-22
5.488772686e-22
3.070079836e-21
6.338588418e-21
4.286194981e-21
2.059098863e-21
3.310995949e-21
3.88655026e-21
2.276958843e-21
1.929609522e-21
1.346987275e-21
7.50997015e-21
4.991978932e-21
4.624990694e-22
1.626419478e-21
3.79567735e-21
2.591793118e-21
5.587511743e-21
4.336603933e-21
9.202730003e-21
6.296993203e-21
1.702073545e-20
4.548562279e-21
9.594432673e-22
5.972315155e-21
4.449490401e-21
2.276016579e-21
2.195213801e-22
1.824811659e-21
3.449901799e-21
9.077357221e-21
4.912133582e-23
3.682036688e-21
1.927617028e-21
2.924714049e-22
1.045415163e-20
9.815017617e-21
3.101832145e-21
1.07808843e-20
3.457644094e-21
7.436303773e-22
3.98714042e-21
7.670537817e-22
5.662678655e-21
1.232580002e-21
9.192564513e-22
2.786694881e-21
5.491252166e-22
1.860504607e-21
4.186193324e-21
2.008520368e-20
2.574970631e-21
1.849099872e-20
3.063373915e-21
2.058679713e-21
3.810948812e-21
2.70041472e-21
1.684017419e-20
1.543655076e-20
3.573981025e-21
2.871064799e-21
4.595369745e-21
4.716998561e-22
3.361435582e-21
1.076293974e-20
7.755763536e-21
4.877808327e-21
6.733229244e-22
3.838574878e-21
1.271368036e-21
6.316016665e-21
2.613140744e-21
2.437966692e-21
2.215057997e-20
4.774461209e-21
4.858391303e-21
1.61521024e-21
3.490252417e-23
2.560800559e-21
1.464956838e-21
6.237105093e-21
5.937727879e-21
3.059442223e-22
5.303062277e-21
3.210108361e-21
1.667841558e-21
2.699628477e-22
9.473480293e-23
1.722131057e-21
1.089326574e-20
6.843366352e-21
2.959549827e-21
1.117135856e-21
7.965185855e-21
4.206975211e-21
2.030489774e-21
1.342439979e-21
8.698533611e-21
4.846513996e-21
1.41088682e-20
1.839043763e-22
7.696627208e-21
1.44865286e-20
4.380841428e-21
1.555190213e-21
3.600554592e-21
9.97547428e-22
3.21947907e-21
2.156428347e-20
6.853324875e-21
1.161993975e-21
6.742281412e-21
4.517276861e-22
1.745469587e-20
1.423877204e-21
8.749174115e-21
1.14470025e-20
1.334483682e-20
1.097550491e-20
2.557757231e-21
6.485404844e-22
3.075015963e-21
2.430197961e-21
3.554777655e-22
5.764110918e-21
1.45782219e-20
5.337250577e-21
3.708522975e-21
8.012243262e-21
5.792563295e-22
2.492313083e-21
1.616009555e-20
1.546519884e-21
8.915159372e-21
7.528021288e-22
2.675705787e-21
6.506114851e-22
4.350282371e-21
1.202551758e-21
1.872371546e-21
1.679372296e-21
3.42158805e-21
5.451031397e-21
4.978693962e-21
8.509594376e-21
3.259793015e-21
4.404164804e-21
4.479238445e-21
4.526223973e-21
4.343172449e-21
3.597789485e-21
1.136985376e-20
7.245685647e-22
1.265878307e-21
4.637406406e-21
7.095605352e-21
1.076954801e-20
7.466498709e-22
4.561454751e-23
6.183262218e-21
1.851164977e-21
1.576129182e-21
2.117944994e-21
7.023881015e-21
4.548281879e-21
9.852926435e-21
2.402035061e-22
8.6635583e-21
4.787716691e-21
7.388531178e-22
7.366773684e-22
1.090909679e-21
1.977310778e-21
2.50218198e-21
4.467041723e-21
6.919035611e-23
7.822795303e-21
2.964005756e-22
4.626109466e-22
2.132246716e-21
8.668774543e-21
4.960910858e-21
9.933974112e-21
1.884708886e-21
5.593555125e-21
4.853306856e-21
6.212270714e-21
2.236692479e-22
3.386935347e-22
4.847209072e-21
1.508016457e-21
4.633022642e-21
1.269522671e-20
1.394556882e-21
7.372410969e-21
4.925429022e-21
6.239625264e-22
6.760628801e-21
1.014327832e-20
4.562738148e-22
3.742176317e-23
2.638247366e-21
6.997120291e-21
1.808770881e-21
2.809836506e-22
5.663498277e-21
2.703075537e-22
2.606156907e-21
3.806827788e-21
1.085168502e-20
1.821899162e-21
3.222607001e-21
8.293375523e-21
1.380392864e-20
1.381897193e-21
2.26224537e-20
5.94841288e-23
1.71915063e-20
8.925944225e-22
7.131976887e-22
1.082846649e-20
4.303605372e-21
2.565916421e-22
4.173260451e-21
4.950675455e-21
6.841474059e-21
4.375923326e-22
1.54901205e-21
6.405179e-22
6.863901796e-22
1.655827457e-21
6.850382062e-23
1.044550663e-21
4.692535024e-21
6.663586397e-21
2.897365303e-21
5.600668439e-21
7.950857767e-21
3.809465485e-21
5.891115523e-21
2.241584362e-21
1.139774741e-21
9.950817337e-21
4.988263799e-21
9.740765141e-21
1.981651128e-21
3.189899563e-21
9.972163138e-22
4.188725586e-21
3.762597343e-21
3.599350051e-21
4.05737239e-21
1.973470182e-20
2.442353868e-21
1.640654157e-21
1.017185236e-21
1.477093461e-22
2.306501776e-21
5.82649322e-21
1.722446217e-21
3.827078445e-22
9.131559657e-22
5.764864771e-22
3.944795025e-21
7.48371848e-21
1.178201968e-20
1.448812121e-21
3.399662501e-21
7.303371188e-22
5.833237653e-22
3.046772721e-23
2.604409871e-22
3.908538872e-21
7.962504555e-21
8.051466129e-23
1.984080095e-21
7.05355563e-22
2.641440399e-21
4.26148798e-22
3.696791274e-22
1.954307745e-21
1.388869778e-21
3.041716421e-21
3.500356977e-21
3.230066676e-21
3.850953772e-22
3.400474079e-21
1.236154109e-22
3.800185455e-22
4.886496955e-22
7.287937486e-21
1.651219104e-21
4.702032173e-21
2.234608831e-21
6.986179176e-21
2.518197416e-21
1.116937168e-22
4.235757566e-21
4.857394142e-22
2.179428418e-21
3.124571871e-21
1.498298181e-21
2.183393656e-23
8.587071783e-21
4.174214592e-21
6.019590045e-21
9.344775767e-21
2.360776708e-21
1.923635672e-21
3.776517302e-21
2.360725277e-22
9.508773831e-21
3.728635957e-21
5.247875982e-22
3.424793386e-21
1.530530876e-20
2.387881215e-21
1.108911251e-20
3.598369471e-21
8.298612649e-22
3.16759539e-21
5.38375273e-22
4.95898336e-22
5.291356016e-21
7.216515907e-22
1.495635074e-21
1.481635102e-21
2.340851324e-21
2.101844133e-21
8.54092523e-21
5.248974936e-21
4.037003948e-21
6.566088858e-21
2.519690023e-21
2.832967153e-21
7.922492134e-21
3.292130417e-21
4.5236671e-21
1.90453697e-21
3.315529134e-21
2.937818687e-21
4.246408072e-21
1.83826095e-21
9.161841886e-21
6.878410518e-21
1.97417674e-21
4.218729959e-21
1.40803055e-21
5.499484077e-21
2.056635118e-21
2.927178288e-21
1.828598543e-21
2.153171735e-21
3.975157338e-22
3.654524463e-21
1.004734753e-21
5.268366916e-21
9.230488705e-21
3.059678023e-21
1.04688145e-20
4.535015687e-21
3.128345712e-21
2.587495356e-21
9.919992351e-22
4.152148636e-23
1.103187722e-21
1.144407452e-21
3.481910116e-21
3.27872985e-21
2.518703938e-21
3.473162499e-21
1.538017076e-21
8.789780305e-21
1.96315378e-21
6.642416478e-21
2.507198486e-21
5.181049619e-21
2.346916924e-21
3.928489706e-21
2.558660116e-22
2.783437513e-21
1.771192274e-21
2.404071069e-21
1.195305367e-21
7.896310139e-21
9.54740465e-21
1.36312385e-21
5.064047216e-21
4.690861627e-22
4.000836744e-21
5.708908019e-21
1.074844061e-21
4.934213905e-21
7.238474633e-21
7.19804057e-21
2.259639602e-21
1.790898153e-20
6.812350423e-21
4.623570336e-21
1.150146302e-20
1.998058227e-21
3.531185243e-21
6.894534629e-21
8.440064146e-22
1.544774441e-21
6.787636543e-22
5.120793889e-21
3.188156316e-21
2.560610055e-21
3.622668721e-22
1.183843861e-22
5.380530144e-21
2.975401042e-21
6.40188198e-21
4.003819864e-21
2.697562821e-21
8.494864825e-21
1.58061805e-22
2.015219057e-21
3.705565479e-21
4.723098171e-21
1.429751888e-21
3.655766184e-20
1.914438173e-21
3.889170627e-21
1.141147121e-20
6.066059566e-22
3.561905458e-21
4.869162256e-22
1.98536494e-20
2.479568367e-21
5.903901305e-22
3.8828478e-21
3.599668885e-21
5.934301922e-21
1.044682787e-20
6.914893107e-24
5.69979206e-21
5.948068154e-21
1.515779314e-21
3.921997083e-21
4.615120386e-22
3.334928172e-21
1.254897049e-20
4.069059326e-21
8.990145364e-22
5.868296557e-22
1.96715932e-21
4.746077541e-21
8.756274819e-21
8.135247705e-21
4.768808886e-21
2.00824079e-21
5.155215418e-21
4.683942004e-22
3.355943332e-21
1.588092005e-21
8.003085852e-22
1.396188168e-20
8.517435753e-22
1.482309402e-21
4.151923392e-22
4.041224107e-21
1.307574671e-20
3.574174265e-21
1.102868758e-20
1.802413425e-21
1.484453924e-20
8.34901774e-21
3.327505227e-22
4.940817457e-21
2.647049255e-21
1.017483598e-21
7.737052403e-21
1.920891303e-21
4.8091548e-21
4.028519164e-21
9.882101562e-21
1.322125575e-20
1.018858254e-21
2.174700615e-21
3.264643237e-21
3.946237707e-21
1.265252052e-20
4.376964734e-22
4.291328945e-22
7.365688509e-21
3.811725491e-21
5.922278914e-21
7.901834429e-21
7.843912933e-21
1.379336023e-21
1.245870816e-20
1.109548238e-21
3.419096117e-23
9.789628691e-21
4.831463517e-21
3.457027377e-21
1.279097384e-21
2.168494446e-21
1.457931597e-21
2.887820776e-21
4.933372388e-21
3.811466688e-21
1.930939226e-20
1.150344679e-21
1.205655337e-20
4.415365723e-21
5.272917117e-21
7.431177004e-21
7.339218286e-21
3.45113506e-21
7.510127922e-21
8.742212202e-22
3.401124237e-21
1.528815944e-21
2.818468894e-21
7.722282712e-21
8.106697346e-21
5.451568488e-21
6.143558104e-21
5.138960618e-21
6.447781164e-22
3.637042541e-21
6.86457263e-21
6.255812309e-21
6.760792586e-22
5.154836e-21
1.237454588e-20
1.936266071e-21
1.142765634e-21
6.900391681e-21
3.588932967e-21
9.569447563e-21
4.333095179e-21
1.324136544e-21
1.108830259e-20
2.392976656e-21
1.13180844e-21
2.449033051e-21
1.249702893e-21
1.343215742e-21
1.305403887e-21
3.273489315e-21
4.148760571e-21
7.758683873e-22
3.55255814e-21
1.340896085e-21
6.176945793e-21
1.411953003e-20
6.668089758e-22
5.92407937e-21
3.384111577e-21
1.030701e-21
4.697676633e-21
2.649086207e-21
2.88039235e-21
5.853726822e-21
1.394687038e-20
5.222900596e-21
5.332365917e-22
1.644546496e-21
9.208967434e-21
1.180719368e-21
6.862860683e-21
4.461083305e-21
3.421627409e-21
3.908333473e-21
1.254333486e-20
1.66481028e-23
4.029232176e-22
1.969956689e-21
1.532026603e-21
5.182923785e-23
1.951855211e-20
3.28828002e-21
6.770359387e-21
1.8408663e-21
5.405607291e-21
2.935694234e-21
7.011827576e-23
1.596045944e-21
2.6422438e-21
1.842077298e-21
1.87831264e-21
3.833939654e-22
1.904501504e-21
4.950987844e-21
2.078579059e-21
8.76646509e-21
1.295662987e-21
2.69457946e-21
7.098237057e-21
1.170482492e-20
5.046147593e-21
1.158352244e-21
4.678183108e-22
5.288229789e-21
4.6076215e-21
5.09687083e-21
2.286624432e-21
7.689817891e-21
2.95794278e-21
1.715882423e-21
3.405934165e-21
6.40379671e-21
5.041515828e-21
6.843387368e-24
2.527095528e-21
6.229294156e-21
7.172348222e-21
1.149481559e-21
4.016194492e-21
2.082191275e-21
1.153192745e-21
1.081937859e-22
3.53017139e-22
1.253365918e-21
7.72939145e-22
1.814671099e-21
2.039121245e-21
1.575143375e-21
3.623762621e-22
1.841500565e-21
1.264376566e-21
1.405756315e-21
2.632197322e-21
4.424382439e-21
3.742811525e-21
8.175393368e-21
3.052969439e-22
8.286999842e-21
2.408404363e-21
1.278952413e-21
4.454247228e-21
1.222849693e-21
9.892241905e-23
4.783073921e-21
8.078384381e-22
1.008651961e-21
8.719950468e-21
8.550562943e-22
7.765173953e-22
1.552755007e-21
5.799792552e-21
4.710472075e-21
3.056712215e-21
9.914845957e-22
1.836383094e-22
4.115288446e-21
1.842717735e-21
4.459116461e-21
6.594743499e-21
2.084578966e-21
1.013760902e-20
7.112018817e-22
6.725955181e-21
3.908005283e-22
2.611519003e-21
3.289652944e-21
5.922542618e-22
4.420913269e-21
1.062283631e-21
1.134975951e-20
1.568768569e-20
1.213000499e-21
7.325670588e-21
1.814477092e-21
1.602693204e-21
1.474261249e-21
6.806152053e-21
4.697900125e-21
2.569985754e-21
1.178334725e-21
3.780220163e-21
6.441266478e-22
4.802054214e-21
8.157877883e-22
1.696213984e-20
2.251201107e-21
6.462541629e-21
2.618268358e-21
5.341285295e-21
3.778769076e-21
4.425739846e-21
4.268692081e-21
3.384636892e-21
1.442546647e-21
4.357215857e-21
3.851382193e-21
4.357440339e-21
4.149786555e-21
1.238055257e-20
5.361902033e-22
1.3330151e-21
5.43248513e-21
9.426325435e-21
1.070489561e-21
1.234143817e-20
8.789341712e-22
3.306059756e-21
2.552682265e-22
1.568165876e-21
2.687641814e-21
1.739444312e-22
1.495386958e-21
1.105851374e-21
1.22888242e-21
1.720154142e-21
1.180579097e-20
2.234234577e-21
2.102466372e-21
2.30446344e-21
1.142258761e-21
1.218212135e-21
7.349551424e-22
3.757567547e-22
1.011159028e-21
3.228264641e-22
1.267809693e-22
3.765608419e-22
1.350285838e-20
1.058774938e-21
2.444409754e-22
1.601364166e-21
1.088147952e-21
1.555472035e-20
1.285637239e-21
3.47556815e-21
3.570336635e-21
3.749585834e-21
6.608836275e-21
9.054569561e-22
3.475450254e-21
2.530712575e-21
8.107251785e-21
4.964054928e-21
3.175599606e-21
3.985702367e-21
8.258462657e-21
3.078276793e-21
2.856347134e-21
5.36997762e-21
8.143297306e-21
1.104517553e-21
9.703505377e-22
9.210847973e-23
6.798103513e-21
4.733393114e-22
3.047343053e-21
1.450572059e-20
5.124352831e-21
4.928018311e-23
2.733687892e-21
1.646610726e-21
6.919558925e-21
6.521164915e-21
3.473255803e-22
3.308341078e-21
2.572501867e-21
1.615975291e-21
5.3192297e-21
5.062427822e-21
3.549743414e-21
8.316293891e-22
8.061158317e-21
1.45659123e-21
3.438756255e-22
3.482517617e-22
3.086669219e-21
9.126284757e-21
2.183558879e-21
1.492869625e-20
1.600664446e-22
4.654009675e-22
1.260646368e-21
2.215206835e-21
5.933379976e-21
1.154939673e-20
7.511788796e-21
4.016445304e-22
1.479233679e-21
1.580588341e-21
3.535447429e-21
4.296378785e-21
6.908647258e-21
5.497380699e-22
6.486086153e-21
1.727003298e-21
1.454456648e-22
4.43025567e-21
1.094426903e-21
4.177555789e-21
1.689893363e-22
2.139262479e-21
1.842746026e-21
8.755691227e-21
4.264774998e-21
8.509685656e-21
4.659506578e-22
6.322506221e-21
2.959733609e-21
5.170171001e-21
2.221951188e-20
2.015262525e-21
5.305792495e-21
5.065782814e-21
3.470236632e-21
9.504767728e-21
1.462226701e-21
1.89396157e-21
2.694680293e-21
3.996012373e-22
3.541311174e-21
1.296192175e-20
2.328094868e-21
5.52554409e-21
8.415442278e-21
9.374459358e-21
9.888808047e-22
8.798935389e-21
2.972577255e-22
4.969938494e-21
4.360230907e-22
4.159545579e-21
3.802823147e-21
1.348068928e-20
2.647230384e-21
7.220585526e-22
1.989153726e-20
3.598570578e-21
9.045136521e-21
9.857047366e-22
1.938758919e-21
4.516776745e-21
4.852432452e-21
6.211168695e-22
3.910454956e-21
7.723576522e-21
1.704044066e-21
1.632516107e-21
2.276267145e-20
1.979316502e-21
3.307476146e-22
2.20831303e-22
9.658814417e-21
1.319968768e-21
1.026363652e-20
5.144951984e-21
1.852179769e-20
2.314322783e-21
1.953412211e-21
1.43521868e-21
1.530382727e-22
3.109358563e-21
1.906746733e-21
2.707509137e-21
3.989097184e-22
2.166567444e-21
8.376433048e-22
7.643138546e-21
7.192079392e-21
2.764017339e-22
1.101644116e-20
1.19536581e-21
8.580883852e-22
3.483438984e-21
1.192705166e-21
1.51923516e-21
4.471146997e-21
1.33368092e-20
1.667182308e-20
4.416296824e-22
8.050461655e-22
5.952901993e-21
1.498306177e-21
1.258576281e-22
3.960254444e-23
3.243636024e-21
9.941496082e-21
6.821526235e-21
7.036064454e-21
3.62714218e-22
1.333075277e-21
1.259746618e-20
1.48153105e-21
6.079142519e-23
1.352358414e-21
2.449593183e-21
5.384438347e-22
3.456495182e-21
5.220991155e-21
1.708479002e-21
2.691666189e-21
1.952639851e-21
1.41747771e-21
7.446264629e-21
6.369818791e-21
4.378174552e-21
3.585810169e-21
1.368926843e-21
2.533460438e-21
3.8048274e-21
8.930193866e-22
1.236533671e-20
6.957945077e-23
1.770932913e-21
3.807454541e-23
1.597858463e-21
4.265372082e-21
6.709563939e-21
1.04877376e-21
2.152167391e-21
3.875817118e-21
5.360275714e-21
8.519367218e-23
8.554960194e-21
5.68131911e-22
7.093505362e-21
1.036959957e-20
3.311869148e-22
2.881767549e-21
4.286553245e-21
9.529132738e-21
1.312245834e-21
9.074775084e-22
1.543638818e-20
9.467753466e-21
1.552177459e-20
3.596184904e-21
1.290380066e-21
2.243554197e-21
2.562848492e-21
3.363002408e-22
1.37574454e-20
8.281852248e-21
4.408556776e-21
9.718018151e-21
3.742910885e-21
8.129991691e-22
5.798628183e-22
5.188992487e-21
6.996480552e-22
1.809728799e-23
3.947788088e-22
6.582531731e-22
5.581454653e-21
6.466776073e-21
6.489671795e-21
7.26696462e-22
9.019991656e-21
1.327162523e-21
7.140138227e-22
3.157017618e-20
1.774712038e-21
8.044559751e-21
3.557496546e-21
3.173402197e-21
3.032265969e-21
1.472509723e-20
6.360049076e-21
7.209682621e-21
4.781582255e-21
1.72419532e-21
3.188320895e-22
6.463042174e-22
2.34552042e-21
1.315096994e-21
8.544858085e-22
2.902393766e-21
3.59310393e-23
1.066519925e-20
1.241855318e-20
4.536385423e-21
2.493285315e-21
9.821633272e-22
4.409383118e-21
2.283957838e-21
2.357107934e-21
7.36690684e-23
6.626095671e-21
1.275453191e-20
6.701285479e-23
1.152582945e-20
1.094918681e-21
1.031937728e-20
4.287643641e-21
9.578902268e-21
2.839287767e-21
7.535504887e-21
4.739784084e-21
3.606023418e-20
3.233056651e-21
1.155629993e-23
1.163879238e-20
9.255804836e-22
6.011267639e-21
1.050218948e-20
1.095301405e-20
5.324326382e-22
3.046452802e-21
1.318432977e-21
1.474763201e-20
5.329347132e-21
3.371095053e-21
8.591376314e-22
1.308629057e-21
3.983033893e-21
2.101399626e-21
4.450525915e-21
6.796887713e-21
2.045960648e-21
7.135021343e-21
1.730331985e-21
2.904075364e-21
3.879409494e-23
3.157824563e-21
5.222065959e-21
1.201452553e-20
1.104402461e-21
8.022912032e-22
4.312746802e-22
1.865981998e-21
1.773619248e-21
3.119332971e-21
3.216159557e-21
5.447251305e-21
7.917012685e-22
8.215227003e-22
3.043721786e-21
1.611908442e-21
2.472462557e-21
2.550368419e-21
8.591210651e-21
4.059804892e-21
4.084131432e-21
1.271133339e-21
1.752576009e-22
7.147631322e-21
5.639825397e-22
3.747869223e-21
2.681562379e-21
2.42146283e-21
3.851798185e-21
3.309166554e-21
1.349930046e-21
8.978835038e-22
1.464702609e-21
2.830583817e-21
7.62483137e-21
3.264229624e-21
1.085711951e-20
1.552929456e-21
2.701743968e-21
1.414624785e-20
5.429203148e-21
2.89493754e-21
6.325533543e-21
2.351636474e-21
6.066605791e-21
5.679764241e-21
3.495902512e-21
5.972388734e-22
8.674853794e-21
3.481781661e-21
6.103297913e-21
2.086842387e-22
4.595139796e-21
4.09568921e-21
1.199716298e-20
1.086499595e-20
1.669637626e-21
2.624060738e-21
3.303047306e-21
1.104659092e-20
1.508867627e-21
1.427936747e-21
5.538559642e-21
7.315042437e-21
4.361708185e-21
4.016593694e-22
1.182330956e-20
2.358346895e-21
5.481255392e-21
7.604852336e-21
2.288100633e-21
6.683015361e-22
4.6965141e-21
3.926909887e-21
8.065945231e-21
6.991349035e-21
1.597097195e-20
9.783477566e-21
2.531722194e-22
3.44171304e-21
5.234381261e-21
9.248319619e-22
2.91533086e-21
1.702916622e-21
2.736824087e-21
1.311784274e-20
1.318565176e-21
6.678838281e-21
4.269744978e-21
3.692866384e-21
5.341142001e-21
9.631558513e-21
4.427888941e-21
6.154877726e-22
4.551014342e-21
2.138875252e-21
1.624081295e-21
1.329510937e-22
5.896156024e-21
8.848987748e-22
2.511184518e-22
4.370402362e-21
5.162691259e-22
6.458665982e-21
2.947152028e-21
1.204983239e-21
3.237443709e-21
4.535110423e-21
3.971501969e-21
3.239037765e-21
4.742422806e-21
4.906346823e-22
2.8240869e-21
7.145892165e-21
1.111952614e-21
7.319955503e-21
2.056746882e-21
1.590165447e-22
4.096353983e-21
7.644710075e-21
4.747417436e-21
9.484948529e-21
9.305856408e-21
8.273168883e-22
1.004547508e-21
8.922425849e-22
4.249906467e-21
1.122432535e-20
5.326171064e-21
1.086042703e-21
2.658983889e-21
1.171086919e-21
5.214307715e-21
1.025874914e-20
9.035993068e-22
5.835142672e-21
2.590372178e-21
1.968117644e-23
3.907461055e-21
7.414549266e-22
1.019167424e-21
2.388959932e-21
3.045472062e-21
4.201622411e-21
2.13563174e-21
6.187829656e-21
2.834834252e-21
5.591661796e-21
5.833203523e-21
3.629330611e-21
8.994767617e-21
1.531700386e-20
5.743780166e-22
7.160952993e-21
1.208183688e-20
5.503666221e-22
1.66949904e-20
2.000523161e-21
1.151526651e-20
1.64102548e-21
8.26787008e-21
4.063832129e-21
7.367352202e-21
3.309292571e-21
1.782817615e-20
5.764022503e-21
4.314399155e-21
2.558367562e-21
5.751845475e-21
7.125188892e-21
1.026109369e-21
1.908363822e-21
2.520670623e-21
1.31903997e-20
5.468743062e-21
7.877420149e-21
5.325056511e-21
2.018727616e-22
9.961045299e-22
1.548172068e-20
7.390702303e-21
4.889002462e-21
2.978415134e-22
6.334629555e-21
4.037299111e-21
5.892106004e-21
1.634909142e-21
1.959117013e-20
2.737027209e-21
2.791392491e-21
1.109628462e-21
7.564832886e-22
6.181053832e-22
1.011087975e-21
3.129569726e-21
2.522383577e-21
1.314770912e-21
1.256854962e-22
3.634107827e-21
2.332713466e-21
1.39178292e-22
5.82284781e-22
1.305084758e-20
6.543589478e-22
8.998737678e-22
6.040241688e-21
4.256043548e-21
5.776730031e-23
1.186973795e-20
1.011243193e-22
1.644880444e-21
1.544960637e-21
6.775476802e-22
3.847424015e-21
3.437686028e-21
2.197811013e-22
1.235276085e-20
4.668717558e-22
1.845955037e-21
1.985903254e-21
7.05307848e-21
3.368286371e-21
3.057151698e-21
1.399556672e-21
7.994776909e-23
5.285146493e-22
3.673149475e-21
1.583047003e-21
2.151606348e-21
3.506593302e-21
1.775043937e-21
1.616966153e-21
7.824321591e-21
9.060750683e-22
8.709099759e-21
2.752883825e-22
8.967793367e-21
3.255034834e-21
6.348378731e-21
1.142337869e-20
3.065707537e-21
1.079493374e-21
3.686110794e-21
3.419226762e-21
8.918830886e-21
4.437454966e-21
2.735091174e-21
5.274655456e-21
6.445424696e-22
6.956648196e-22
3.676519098e-20
1.047972932e-21
1.886066127e-22
2.949357313e-21
2.492098236e-21
4.257908618e-21
2.890804332e-21
7.234181634e-21
7.571198584e-22
5.888397472e-22
8.674742308e-22
7.728856489e-21
1.199062392e-20
1.063236123e-22
2.598418693e-23
1.338636516e-21
8.051744332e-21
9.182420622e-21
9.331736097e-22
2.747519141e-21
7.065901746e-21
3.19198886e-21
2.584988727e-21
1.521012183e-21
6.277171596e-21
7.734721187e-21
3.12649231e-21
2.869533157e-21
5.377889782e-21
2.80480073e-21
8.575664079e-22
1.221457538e-20
2.210512277e-21
1.085078923e-21
2.982538447e-21
6.059746633e-21
1.73447979e-21
1.027543683e-20
1.450315457e-20
3.10149283e-21
1.53438374e-21
6.379062446e-21
4.969989541e-22
1.847612579e-21
1.295735548e-21
1.348736837e-21
8.553088406e-21
6.579854037e-22
4.889015957e-23
2.564470551e-21
2.386140121e-21
2.42453291e-21
3.00532423e-21
2.781812839e-21
5.490147708e-22
3.593052073e-22
1.977776592e-21
9.434207772e-22
2.811063121e-21
6.259399868e-22
4.270867606e-21
4.138933706e-21
2.912756802e-22
5.566876121e-21
1.449199251e-20
2.753546442e-22
6.221351508e-21
4.023358169e-22
4.900419508e-21
3.700578394e-21
3.437788262e-21
5.666639285e-21
1.972410982e-21
1.815519511e-21
1.842899382e-21
3.559150008e-21
9.528580628e-21
1.593443048e-21
1.750767747e-21
4.966249855e-21
3.52393404e-22
1.233718818e-20
6.814634474e-22
2.930462806e-21
5.978808744e-21
4.660039647e-21
1.156258925e-21
1.344945866e-21
8.233352413e-22
1.318834328e-20
1.490203916e-22
1.171055865e-21
1.899389576e-21
1.676883777e-21
1.328293434e-21
1.244026743e-21
3.269969941e-21
2.125557396e-21
3.94340536e-21
2.440936752e-21
7.084479787e-21
3.55863649e-21
2.055460454e-21
9.922190516e-22
9.72651083e-21
2.718615486e-21
1.273332428e-20
2.575008383e-21
3.405876815e-22
3.211127428e-22
2.106548981e-21
5.656531318e-21
8.571810573e-21
2.612643243e-21
3.384675003e-21
7.923450097e-21
1.039462182e-22
5.336508613e-21
5.868831884e-22
5.505541161e-22
1.866484188e-21
3.375660112e-21
4.693909571e-21
6.090283172e-21
1.47157867e-21
1.440670237e-20
4.100158338e-21
3.329855745e-21
3.796661216e-21
3.914827594e-21
1.901693568e-22
2.328194163e-21
7.845261284e-21
1.320707154e-20
5.261352738e-21
1.455885809e-21
1.448770846e-20
7.299218289e-21
6.818729911e-21
3.340014983e-22
6.499788514e-22
7.229539138e-22
1.031870546e-20
4.154389162e-21
2.104155212e-21
7.554780713e-21
6.545170574e-22
1.57053487e-21
1.613614306e-21
4.165028815e-21
6.862279906e-21
5.45888407e-21
4.475200891e-22
2.747112764e-21
3.119584802e-21
2.911282876e-21
8.803952523e-22
7.454092883e-21
2.776792243e-21
6.198293959e-21
6.889257538e-21
3.192086459e-21
2.492214172e-20
8.569239178e-21
3.252639549e-21
3.488622263e-21
5.480498757e-21
3.209336574e-21
1.858266046e-21
1.030854243e-21
5.140632834e-22
3.049449628e-23
1.045321959e-21
7.743960589e-22
1.198645984e-21
8.244880901e-22
1.650891577e-22
4.330368294e-22
3.118001681e-21
3.990828005e-22
5.579597729e-21
1.20329055e-20
1.288279796e-21
1.72488272e-21
5.169143769e-21
5.378248058e-22
2.234064477e-21
6.661283833e-21
2.55728208e-21
1.311304502e-21
6.341872667e-22
3.491841828e-21
1.978700044e-21
4.224477778e-22
5.5956395e-21
3.599373411e-21
1.032592608e-20
9.640980222e-21
1.073341783e-20
1.485724995e-21
8.32298524e-21
1.061425849e-22
3.139492005e-21
5.155597067e-22
2.966706037e-20
3.63103816e-21
3.947690779e-22
2.618846909e-21
2.50621913e-21
2.736897865e-21
2.441290576e-21
1.866968528e-21
4.964551857e-21
5.861401358e-21
4.762119074e-21
6.970604397e-21
1.3935133e-20
9.821726406e-22
4.300337957e-21
3.680879032e-21
9.383428632e-22
1.505328777e-22
1.058136016e-22
4.481349787e-21
8.208322639e-21
3.436590009e-21
6.697367244e-21
7.086144374e-21
4.647548022e-21
1.074782318e-20
3.887142072e-21
8.208664565e-21
4.773933073e-21
1.283748909e-21
1.539728114e-20
1.44693501e-20
8.188170675e-21
1.34407426e-21
3.686602009e-21
4.031540493e-21
3.368218162e-21
2.404251598e-22
9.327017582e-21
2.469501169e-20
2.546841303e-21
2.400607338e-21
6.792459147e-22
1.821691662e-21
5.001149906e-21
1.626102999e-20
3.070933377e-21
8.228202832e-21
4.082327477e-22
9.195333395e-21
6.931143545e-21
6.363810738e-21
9.317273897e-22
8.851150396e-21
3.433388651e-21
5.68821716e-21
4.682894729e-21
3.584836778e-21
3.891479461e-21
2.43872342e-21
2.214089829e-21
3.119382858e-21
1.21546557e-20
6.86197521e-21
4.540114847e-21
7.477486061e-21
3.4819013e-21
9.329491265e-22
7.476078689e-21
5.1198653e-21
8.601366949e-21
2.300575929e-21
9.366083788e-21
1.229333965e-21
1.242509115e-20
1.662568797e-21
1.717550505e-22
7.708058379e-21
2.153921299e-21
5.687022566e-21
4.831761157e-23
1.267340133e-20
4.330807801e-21
1.017081313e-20
3.473605691e-21
2.109451964e-20
9.357313329e-22
1.877562294e-21
2.379676813e-22
2.84672968e-21
2.864946521e-21
1.339811469e-21
2.978872093e-21
8.938318899e-22
5.47104036e-21
8.960121473e-21
6.179525064e-21
9.735325796e-21
3.206346748e-22
4.495777403e-21
3.366611124e-22
6.877424752e-22
1.026523833e-21
2.401735479e-21
3.619332782e-22
1.327517521e-20
9.078420603e-21
7.418624394e-22
3.120453896e-21
8.705489673e-22
6.178866783e-22
7.969761905e-22
4.825699424e-21
6.926131104e-21
3.454288977e-22
1.134131122e-20
3.737398892e-21
1.11990566e-20
4.470487316e-21
1.869047885e-22
6.136232353e-21
1.073216734e-20
8.786867134e-23
7.345047015e-22
2.218849272e-21
3.927736325e-21
1.014387521e-20
1.062966355e-21
2.363555468e-21
5.380044187e-21
2.949255655e-22
1.981591965e-21
3.452451721e-21
1.505629198e-20
3.2134485e-21
1.568566778e-20
4.959062129e-23
1.307548344e-22
9.147007865e-22
2.599104329e-21
8.915183257e-21
1.544543293e-21
6.411538609e-21
1.590710194e-22
1.654064377e-21
3.156608227e-21
1.848756779e-20
1.114438365e-20
7.016379206e-22
6.733143439e-22
3.771553228e-21
9.045050909e-22
1.06434169e-21
1.197678151e-21
4.153045912e-21
6.409288372e-22
2.190300854e-21
5.054562257e-22
1.935970729e-21
1.257832145e-20
2.510513386e-21
2.65477873e-21