/*--------------------------------*- C++ -*----------------------------------*\
  =========                 |
  \\      /  F ield         | OpenFOAM: The Open Source CFD Toolbox
   \\    /   O peration     | Website:  https://openfoam.org
    \\  /    A nd           | Version:  7
     \\/     M anipulation  |
\*---------------------------------------------------------------------------*/
FoamFile
{
    version     2.0;
    format      ascii;
    class       scalarField;
    location    "0.00288/lagrangian/dsmc";
    object      Ei;
}
// * * * * * * * * * * * * * * * * * * * * * * * * * * * * * * * * * * * * * //


21579
(
1.42249e-20
1.63704e-22
2.09834e-21
2.12629e-20
6.39206e-21
4.34669e-21
2.75741e-21
1.14794e-21
1.60502e-20
1.00751e-20
5.46155e-20
5.58154e-21
1.04242e-20
3.5655e-20
1.04282e-20
1.91326e-20
5.722e-22
3.01692e-21
1.04953e-20
7.99517e-21
4.09809e-21
6.84421e-21
4.89842e-21
6.6142e-20
3.39304e-20
5.93596e-21
6.93134e-21
4.30798e-22
2.28908e-21
3.32094e-20
1.59695e-21
2.86722e-21
1.54134e-21
2.17436e-20
1.91617e-21
5.53535e-20
7.70122e-21
1.70967e-20
4.60918e-21
7.83033e-21
5.32816e-21
2.24448e-20
1.06625e-20
5.11388e-21
4.04462e-20
1.09972e-20
9.24139e-21
3.27607e-20
2.26398e-20
1.41982e-20
1.47297e-20
1.43351e-21
5.83431e-21
1.08202e-21
5.96056e-22
1.19414e-20
2.0655e-20
2.07148e-20
1.13479e-22
2.72605e-21
2.62192e-21
1.10682e-20
2.30615e-20
8.08211e-21
3.12488e-20
2.28282e-20
1.46247e-21
6.75968e-21
7.39452e-21
2.77477e-21
1.46116e-20
4.44872e-21
1.10986e-20
5.55466e-20
3.32918e-20
6.22272e-21
1.05372e-20
1.95827e-20
5.12448e-21
5.9513e-21
2.89265e-22
4.43293e-20
5.26713e-20
1.66342e-20
1.74053e-20
1.70381e-20
1.34188e-20
2.66582e-21
6.43922e-21
2.82784e-20
1.97928e-20
2.12051e-22
8.0199e-21
1.01335e-20
1.0494e-21
4.98438e-21
6.50143e-21
1.12137e-20
1.47758e-22
2.50446e-20
3.68666e-21
1.63698e-22
1.25598e-20
2.35831e-21
3.13242e-21
2.03148e-20
4.75766e-20
3.09852e-20
1.513e-20
3.08741e-21
2.9882e-21
2.42528e-22
2.85396e-20
2.6157e-21
1.8229e-20
2.37977e-21
2.92899e-21
4.39705e-21
6.37049e-22
7.30497e-21
9.84588e-21
7.75783e-21
1.59655e-20
9.11537e-21
5.02246e-20
2.52933e-20
1.46385e-20
6.64534e-21
7.62943e-21
4.95834e-21
8.91786e-21
2.15137e-20
8.04777e-20
1.62073e-20
3.38e-21
2.35287e-21
1.13434e-20
1.68216e-21
3.43367e-21
1.18658e-20
4.28614e-21
5.82328e-21
1.21439e-20
2.51345e-20
8.9012e-21
3.29182e-20
6.101e-21
1.03551e-20
2.53464e-21
8.62985e-22
3.98536e-20
6.6957e-21
1.34366e-21
1.36022e-20
1.07675e-20
6.75451e-21
6.14445e-20
7.538e-22
5.24058e-22
3.88072e-21
1.41021e-20
3.46505e-20
3.11831e-22
2.8765e-21
1.58841e-21
2.01384e-21
7.85844e-21
2.28955e-20
1.99275e-20
1.77873e-20
2.27135e-20
5.62638e-21
2.59104e-20
1.18138e-20
3.05894e-21
1.21056e-21
1.58355e-20
6.27639e-21
9.62993e-21
8.81636e-21
1.34528e-20
2.39733e-20
3.15249e-21
1.36925e-20
2.4467e-20
3.70981e-20
5.6214e-23
2.70078e-20
2.26403e-20
3.81312e-21
1.17692e-20
2.49494e-20
4.09159e-22
4.07343e-21
2.28786e-20
1.4886e-21
4.73798e-21
1.07957e-21
2.51357e-20
1.38868e-20
2.94089e-21
3.7461e-21
4.88371e-22
2.03038e-20
8.90446e-21
3.26514e-21
5.33058e-21
1.92595e-20
4.82603e-20
1.25992e-20
3.66233e-20
7.3752e-21
8.82323e-21
2.2149e-21
1.38661e-20
1.18234e-20
1.57187e-20
2.27867e-20
1.15661e-20
3.92495e-20
3.53468e-20
6.70719e-21
1.01739e-20
7.11754e-21
3.97906e-22
1.28915e-21
3.87466e-21
4.82353e-21
4.2141e-21
1.86097e-21
2.09388e-21
8.81129e-21
4.15029e-20
2.72438e-21
2.83955e-20
6.34067e-21
6.04914e-21
5.81257e-21
7.71985e-21
1.85912e-21
4.98441e-21
7.78757e-22
8.64369e-21
9.3123e-22
1.69715e-20
1.20873e-20
4.17216e-21
2.15881e-21
5.16414e-21
4.69546e-20
2.55615e-20
5.44434e-23
3.35839e-20
1.50765e-20
5.06885e-21
4.18039e-21
8.36192e-21
2.88021e-21
8.65132e-21
1.90401e-21
7.65813e-21
1.41198e-20
2.39773e-20
5.68074e-21
4.86566e-21
2.72695e-21
2.60565e-21
1.26662e-20
2.29334e-20
6.80894e-21
2.70795e-21
1.00519e-20
4.16752e-21
1.10197e-22
4.24243e-20
9.56375e-21
3.91599e-22
1.4679e-21
3.62412e-21
1.90222e-20
1.52609e-20
3.41458e-21
7.34271e-21
3.3112e-21
1.19082e-20
6.14379e-21
1.75648e-20
1.82452e-20
1.48084e-21
7.04183e-21
1.10805e-21
4.64516e-21
2.62514e-21
1.53401e-20
1.67777e-20
1.49604e-21
2.74859e-22
1.05483e-20
2.44836e-20
6.19994e-21
1.84094e-21
1.32303e-21
1.3066e-21
7.29607e-21
6.01408e-21
5.05144e-21
1.03295e-20
2.45762e-21
5.04747e-20
5.73628e-22
1.19003e-22
8.85778e-21
2.66344e-20
1.28134e-20
2.48946e-20
1.18268e-20
3.63438e-21
3.78271e-21
9.49684e-21
3.88802e-20
1.44094e-22
1.23884e-21
9.06972e-21
7.22245e-21
8.62816e-21
1.67272e-20
1.42893e-20
3.04582e-21
1.36304e-20
5.03234e-21
5.66753e-21
6.49542e-22
3.19963e-21
4.03737e-22
3.2304e-20
5.32308e-21
2.74845e-20
3.01972e-21
1.95407e-20
1.9247e-20
1.49615e-21
9.278e-21
1.17685e-20
2.22959e-21
1.34262e-21
1.7538e-20
1.79594e-20
6.88964e-22
8.12235e-22
9.07158e-21
1.51659e-21
7.14473e-22
1.52789e-20
7.11069e-21
1.00879e-20
3.92528e-21
2.63086e-21
6.63829e-22
3.12036e-21
3.31338e-21
1.08398e-20
6.6939e-21
1.7255e-20
7.67114e-21
1.286e-20
2.28192e-20
3.76964e-21
1.49085e-21
1.34364e-20
9.04124e-21
1.80421e-20
1.91807e-20
1.09141e-20
6.9008e-21
2.74246e-21
1.02298e-20
8.77286e-22
9.39216e-22
2.57836e-21
1.27558e-20
1.56563e-20
9.68766e-21
1.69983e-20
1.30853e-20
2.26036e-21
2.3359e-20
4.57013e-20
4.69609e-20
2.95531e-20
5.77158e-22
5.41668e-21
8.95495e-21
1.80359e-20
1.37362e-20
4.40867e-21
4.79329e-21
2.12191e-20
1.15861e-21
2.23469e-21
1.25901e-20
4.7264e-20
1.08288e-20
8.20543e-21
2.2198e-20
2.95957e-21
7.9711e-21
1.17463e-21
7.07942e-22
3.01005e-20
3.1702e-20
9.69998e-23
2.19303e-21
1.50982e-21
8.02562e-21
6.16059e-23
9.32044e-21
1.78042e-20
4.219e-21
1.20064e-21
1.28136e-20
9.47049e-22
1.14319e-20
1.09477e-20
5.43705e-21
1.2977e-20
1.67622e-20
3.68521e-21
1.26595e-21
3.9044e-21
1.27414e-22
5.1854e-21
3.23651e-21
1.04741e-20
3.63617e-21
3.70406e-21
1.70244e-21
2.20427e-21
7.14809e-21
4.76316e-21
3.02289e-20
2.52794e-21
4.7074e-20
1.16298e-22
5.835e-21
1.03699e-20
4.18242e-20
5.2372e-21
6.65118e-21
6.01216e-22
1.75648e-22
1.34691e-20
7.68287e-21
1.01006e-20
3.38437e-21
4.75812e-20
6.76384e-21
1.4197e-21
1.74878e-20
9.21391e-21
1.55029e-20
5.57087e-21
1.54378e-20
2.55856e-20
1.32096e-20
3.29026e-22
3.58557e-21
6.64808e-21
3.22482e-21
2.53338e-20
2.67289e-20
5.05921e-21
5.44128e-20
1.63123e-20
9.83338e-21
4.48617e-21
8.80541e-21
9.03938e-21
8.47791e-22
1.20137e-20
1.25052e-20
4.57911e-21
3.24242e-21
2.56916e-21
1.11738e-20
4.37349e-20
1.94678e-20
4.66667e-20
9.51466e-21
1.75769e-20
6.44238e-22
8.1986e-22
1.10852e-21
7.85506e-21
1.15113e-20
6.366e-21
6.69795e-21
1.01409e-21
3.38324e-20
1.32977e-21
1.38119e-21
1.07164e-20
6.10596e-21
1.48376e-20
2.75533e-20
1.6726e-21
9.85276e-21
1.87564e-20
8.21483e-21
2.83654e-21
1.08285e-20
3.63788e-21
4.91333e-21
1.65197e-20
8.25311e-21
2.9336e-21
8.06266e-21
2.29124e-20
2.56295e-20
4.51813e-20
3.25818e-21
2.26904e-21
1.00241e-21
1.75054e-21
1.99021e-20
2.89672e-22
1.67648e-20
1.47731e-21
2.55406e-20
8.53343e-21
8.12284e-21
5.38892e-20
7.78371e-21
1.41409e-20
3.29352e-21
4.72919e-20
5.19259e-21
4.15208e-22
5.06452e-21
4.07422e-20
7.01219e-21
1.63336e-20
2.60237e-20
8.6424e-21
1.6691e-20
2.94292e-21
5.63148e-21
8.45354e-21
6.71444e-21
2.12436e-21
3.99705e-21
2.09646e-21
6.43393e-22
3.40653e-21
5.71814e-21
1.29867e-21
4.20809e-21
3.86511e-20
1.20437e-20
2.22437e-21
1.90836e-21
2.92217e-21
1.36988e-20
1.27482e-21
1.55052e-20
8.93629e-21
5.70363e-22
6.81292e-21
1.41118e-20
3.34813e-21
1.56093e-21
1.60844e-20
5.77202e-21
4.17415e-21
1.72954e-21
2.35283e-20
3.55775e-20
1.11599e-20
6.9647e-20
6.6291e-21
2.39744e-20
3.5884e-20
5.552e-22
2.81344e-21
1.13584e-20
1.20602e-20
4.29185e-21
4.66041e-21
9.2309e-21
4.8376e-21
1.70538e-20
1.41685e-21
5.68451e-23
4.716e-21
3.55441e-21
2.86904e-20
2.56931e-21
1.87847e-20
5.27953e-20
1.77422e-21
3.57168e-21
1.5773e-20
3.88506e-21
4.18346e-22
7.22695e-21
3.07688e-20
1.24569e-20
2.44015e-20
3.35157e-20
5.19528e-22
3.7867e-21
1.44777e-22
8.15925e-21
1.33961e-20
7.53952e-21
3.75306e-20
3.25724e-21
6.26833e-21
3.04733e-20
1.16647e-20
3.74776e-21
2.23017e-20
1.58852e-20
7.11893e-21
1.73894e-21
1.34298e-20
5.47304e-21
8.7773e-21
3.98116e-21
3.49253e-21
1.27527e-21
1.64749e-20
3.12612e-22
4.01204e-22
1.08163e-20
3.48795e-23
1.81877e-21
1.25334e-20
3.46172e-20
1.41461e-20
2.01664e-20
1.13023e-21
1.69621e-21
2.09415e-20
1.28081e-20
8.2951e-21
1.54779e-20
5.61202e-21
3.19458e-20
3.93201e-22
4.78319e-21
2.20759e-21
1.0184e-20
2.16122e-21
7.37434e-21
7.62329e-21
2.29397e-20
7.91432e-22
3.04726e-21
7.7702e-21
1.51073e-21
1.18126e-21
1.54812e-20
3.63038e-21
5.86786e-22
1.24419e-20
1.32375e-21
1.40626e-20
1.108e-20
1.00011e-20
9.20748e-21
9.71617e-20
5.46546e-21
1.56622e-20
1.0916e-20
2.30609e-22
9.27858e-21
1.373e-21
3.80081e-21
7.06744e-21
4.65133e-20
1.35203e-20
1.2827e-20
7.58175e-21
4.94718e-21
1.84692e-20
1.85767e-21
5.05204e-21
6.13076e-22
1.07224e-20
1.08262e-20
3.21071e-20
2.39377e-21
3.07948e-21
6.51153e-21
7.09077e-21
1.07734e-20
5.02293e-20
1.3375e-20
7.79209e-21
2.66619e-20
2.26682e-20
2.38261e-20
3.63911e-21
8.49079e-21
1.78037e-20
1.06638e-20
2.44867e-20
1.98918e-20
4.11674e-20
1.98713e-20
2.0773e-22
1.63073e-20
1.24705e-21
1.52414e-20
1.06728e-20
2.15409e-20
1.17236e-20
1.58067e-20
1.32147e-20
5.88411e-20
2.12955e-21
2.43651e-20
1.37153e-21
1.39922e-20
5.14085e-21
1.57089e-20
7.11492e-21
3.62733e-21
7.0264e-21
1.29957e-20
6.94034e-21
7.73628e-21
3.91449e-20
1.87455e-21
8.75857e-21
8.7226e-21
2.18528e-21
1.57882e-20
9.49058e-21
1.00154e-20
2.27342e-21
1.24851e-20
6.41331e-22
8.35499e-21
8.78492e-21
7.34154e-21
1.15959e-21
1.75266e-20
7.64748e-21
4.17547e-21
1.87369e-21
1.87248e-20
4.20983e-20
2.44067e-20
1.79056e-20
7.09256e-21
1.28169e-20
2.46176e-21
3.03294e-21
9.0221e-21
1.09598e-20
1.28209e-21
5.04845e-20
4.47484e-20
4.13972e-21
1.48102e-20
2.83233e-20
2.18892e-20
2.22177e-22
1.55765e-20
9.31113e-21
8.62323e-21
2.03726e-21
1.59843e-20
3.74392e-21
2.92735e-21
1.35108e-20
1.71691e-20
6.8774e-20
3.64305e-20
2.52404e-20
1.40338e-20
1.83534e-20
3.38149e-20
1.98388e-20
2.76409e-20
9.5039e-21
5.64705e-20
9.43868e-21
4.3007e-21
1.08056e-23
2.97179e-20
3.37625e-21
1.19701e-20
4.51972e-20
1.5004e-20
1.73661e-20
2.30057e-20
2.89098e-21
6.58333e-21
8.01762e-21
5.18969e-20
8.25912e-21
1.4141e-21
8.55965e-21
1.26721e-20
1.03279e-20
2.95622e-21
7.82556e-21
1.74953e-20
7.32706e-21
9.14987e-21
5.29884e-21
1.71028e-20
1.88639e-20
3.96807e-21
8.26935e-21
5.78991e-21
2.87106e-22
1.29332e-21
1.84081e-20
4.21226e-20
3.35128e-21
2.69678e-20
1.03575e-20
4.36437e-20
8.09069e-21
1.25459e-20
1.27774e-20
1.33639e-20
2.39516e-21
3.8155e-21
4.50395e-21
1.5654e-21
3.0025e-21
1.67512e-21
1.84617e-22
1.03277e-20
1.08649e-20
9.9577e-21
3.56997e-20
1.00536e-21
4.13244e-21
3.07471e-20
1.44622e-20
1.78064e-22
1.25608e-20
2.12663e-22
1.35909e-21
2.54718e-21
1.17709e-21
2.61531e-20
2.55914e-21
2.72713e-21
1.95957e-23
1.00314e-20
5.80928e-21
3.88616e-21
2.20593e-21
9.36786e-22
1.50415e-21
1.31587e-20
1.9162e-20
9.17695e-21
1.37631e-20
4.02338e-21
2.83818e-20
2.44701e-20
1.63796e-20
4.21699e-20
3.15379e-20
2.76102e-20
7.13535e-21
1.23264e-20
2.10785e-20
2.88136e-21
2.84444e-21
3.21788e-21
3.79438e-20
7.20953e-21
1.16748e-21
7.16741e-21
1.87569e-20
1.73299e-20
1.40631e-21
7.76072e-21
2.07435e-21
4.89094e-20
1.4839e-20
7.16288e-21
2.21315e-21
5.33242e-23
2.45726e-21
7.36727e-21
3.28288e-20
5.89061e-21
5.5809e-21
2.79619e-21
2.48357e-20
1.01792e-20
1.60829e-21
2.29934e-20
4.98668e-22
1.77577e-20
3.26765e-20
9.827e-21
1.65425e-20
9.57557e-21
2.21046e-20
5.28302e-20
5.30426e-22
1.36723e-21
7.04063e-21
3.76244e-21
1.16514e-20
1.96378e-20
7.38324e-21
7.49273e-21
1.593e-20
1.89189e-20
1.24688e-20
5.42855e-21
1.00467e-21
1.5107e-20
1.58953e-20
1.48926e-20
1.15305e-21
7.66936e-21
1.71544e-20
1.68597e-20
1.29927e-20
2.41619e-20
1.01714e-20
5.53914e-20
1.42908e-20
5.07922e-20
3.97233e-20
3.84244e-21
4.65426e-21
1.03887e-20
7.73325e-21
3.1883e-20
9.96871e-21
7.40625e-21
2.07907e-21
1.17655e-20
9.94994e-21
2.35498e-20
1.26182e-20
3.36396e-21
1.36421e-20
1.38954e-20
3.08038e-21
4.68133e-20
4.7941e-21
1.6438e-20
1.80743e-20
1.38733e-22
1.17549e-20
1.93341e-20
2.0779e-20
7.75449e-21
4.08262e-22
8.81668e-21
1.34132e-21
2.53439e-21
1.08161e-21
2.62988e-22
4.25549e-21
7.2859e-21
4.00244e-21
1.34717e-21
1.73352e-21
4.84381e-21
7.62755e-22
3.89885e-21
3.65663e-20
2.21816e-21
4.58682e-21
3.65435e-21
1.96397e-20
8.02903e-21
1.88669e-21
1.65568e-21
7.77102e-21
1.20284e-20
1.56852e-22
1.89123e-21
5.39019e-21
7.02682e-21
1.7784e-21
1.18537e-21
1.36562e-21
1.31341e-20
1.60901e-20
8.60299e-21
5.07757e-22
2.0756e-21
8.15044e-21
2.85678e-20
7.8674e-23
3.26419e-20
3.17179e-20
8.00333e-21
5.91989e-21
1.66324e-20
4.9014e-22
1.86061e-20
4.49251e-21
1.97644e-20
6.90146e-21
8.19426e-21
2.20479e-20
1.42768e-20
7.55963e-21
1.57096e-20
2.33666e-21
5.42617e-21
9.05723e-21
2.27802e-20
3.5336e-21
1.06145e-20
3.07446e-20
6.5599e-22
6.07035e-21
2.10676e-20
2.90686e-20
2.78418e-20
2.77636e-20
2.30285e-20
4.61799e-21
1.53577e-20
1.05134e-20
1.77394e-20
7.17806e-22
4.29914e-21
1.18554e-20
2.97124e-21
4.29685e-20
9.63345e-21
1.25273e-20
4.61512e-21
3.71327e-21
2.05041e-20
3.56191e-20
3.80901e-22
1.21777e-20
1.88898e-22
2.05972e-20
6.05337e-21
2.6799e-20
9.99886e-21
2.37775e-20
2.15438e-20
3.40299e-22
1.01355e-20
9.81988e-21
2.45802e-21
1.95633e-21
3.31822e-22
1.71202e-20
1.62391e-20
2.12287e-21
1.55341e-21
6.85957e-21
1.75895e-20
5.30239e-21
2.71135e-21
2.79298e-21
2.455e-20
2.56511e-20
1.05509e-20
1.06641e-20
3.32588e-21
1.16509e-20
1.63038e-20
2.91783e-20
2.31196e-21
4.53493e-20
1.04861e-20
6.68063e-21
2.3798e-21
1.37153e-20
2.27559e-20
3.41168e-22
1.00712e-20
5.85341e-21
1.81419e-21
7.69256e-21
3.26572e-20
3.95994e-21
2.91738e-20
1.91183e-20
7.86072e-21
1.87118e-20
2.14058e-20
1.71077e-20
1.82707e-20
3.93012e-21
2.23066e-21
1.15401e-20
1.60386e-20
5.27636e-21
1.53851e-20
3.15049e-20
9.98242e-21
6.42805e-21
2.08227e-20
9.094e-21
3.58945e-20
2.19711e-20
9.46881e-21
3.45294e-21
1.19934e-21
3.09312e-20
1.46391e-20
1.87948e-21
7.30265e-21
2.73293e-20
3.01805e-20
2.20647e-21
1.84454e-21
2.58282e-22
9.4859e-21
3.21591e-20
1.36787e-20
1.07638e-20
1.18594e-20
5.90293e-21
4.27657e-20
3.95071e-21
1.57439e-20
4.51111e-20
3.69542e-22
1.9071e-21
8.06142e-21
1.64323e-20
3.37094e-21
3.34462e-20
1.51094e-20
2.32701e-21
1.15538e-20
1.62085e-20
3.31637e-21
4.32065e-21
8.71187e-21
3.05617e-21
2.60827e-21
1.10158e-20
3.83412e-22
2.73649e-21
1.93865e-20
1.21208e-21
3.50159e-21
1.93792e-21
2.17933e-20
7.45929e-21
8.57215e-21
1.76152e-21
1.40012e-21
9.05275e-21
4.02534e-21
2.67708e-21
1.35303e-20
2.68457e-20
5.25269e-21
2.07395e-22
1.10137e-20
2.74856e-20
6.20253e-22
2.33943e-20
3.37881e-21
6.05125e-21
1.54397e-21
1.11154e-20
2.55418e-20
1.14417e-20
1.20169e-21
2.73122e-21
2.60894e-22
2.07024e-20
1.23361e-20
2.72773e-21
1.12637e-20
8.62695e-21
6.19425e-20
2.29294e-22
1.13725e-20
2.38588e-20
9.17139e-21
5.201e-21
6.42212e-21
9.57416e-21
1.64329e-21
1.13272e-21
9.97223e-21
1.34501e-20
1.19385e-20
2.43732e-20
9.95496e-22
9.94487e-21
1.75553e-21
8.81373e-21
1.4119e-20
5.36031e-22
7.14922e-21
9.03202e-21
3.01855e-21
9.38344e-21
1.95007e-20
8.44561e-21
7.16022e-21
1.28555e-20
9.03757e-21
6.93623e-21
6.49732e-22
5.07902e-21
7.85377e-22
1.43161e-20
7.26354e-21
2.7453e-20
5.54412e-22
1.84672e-20
2.91728e-21
2.93595e-21
5.19806e-20
2.87926e-22
4.91412e-21
2.74253e-21
9.44569e-21
3.06696e-21
1.14646e-20
4.3514e-21
2.50554e-20
3.63377e-20
8.78964e-21
1.32288e-20
1.89329e-20
1.00993e-20
2.05484e-20
9.13423e-21
1.00879e-20
2.92622e-20
4.33475e-21
4.01327e-21
5.21353e-21
3.06499e-21
9.62881e-21
1.62409e-22
4.80865e-20
6.24019e-20
2.27133e-21
1.53537e-21
1.36266e-20
8.62809e-21
6.64182e-21
4.69259e-21
1.07125e-20
1.87338e-21
4.83989e-21
4.01814e-20
1.29589e-20
1.30329e-20
2.27026e-21
5.0102e-21
4.15715e-21
3.75724e-21
9.95133e-21
5.0149e-21
5.61575e-21
3.44159e-21
1.92937e-20
2.26179e-22
1.63015e-20
1.20417e-20
3.19894e-20
2.13016e-20
1.56445e-20
9.5303e-21
2.06815e-20
1.63568e-21
1.07794e-20
1.29703e-20
6.37732e-21
4.03417e-22
5.45719e-21
5.68783e-21
3.76253e-21
8.64302e-21
4.25175e-22
1.94825e-20
8.93042e-21
2.30297e-20
2.78971e-21
9.47945e-21
1.97498e-22
1.1277e-20
2.33239e-20
1.99941e-21
6.37588e-21
2.7017e-21
2.53853e-20
1.44098e-20
1.80291e-21
1.70779e-20
9.59272e-23
3.34367e-21
1.93797e-20
1.4811e-20
2.62869e-20
1.71068e-20
8.66277e-21
1.11546e-20
3.30243e-20
2.06144e-20
2.96059e-20
7.0026e-21
1.78115e-20
9.52265e-21
2.08644e-21
1.98401e-21
1.00337e-20
1.29522e-20
2.42627e-20
7.0142e-22
8.88059e-21
3.60986e-21
2.63313e-21
3.98402e-21
1.34674e-21
3.16912e-20
1.42532e-21
4.76472e-21
7.51661e-21
4.30362e-21
2.78604e-21
2.90406e-21
1.67508e-20
1.11042e-20
4.69242e-20
2.10469e-20
2.26826e-21
4.25074e-21
3.19617e-21
2.49716e-21
2.46276e-20
7.0533e-21
5.36808e-21
2.37264e-21
5.75757e-21
7.37044e-21
2.34388e-21
1.1576e-20
2.78488e-21
1.59489e-20
2.09402e-21
1.70333e-20
1.33722e-20
3.57694e-21
7.30035e-21
6.10029e-21
1.06436e-20
1.13384e-20
1.46337e-20
1.5514e-20
1.24972e-20
5.86477e-21
3.09407e-21
4.74611e-21
1.33262e-20
4.18262e-21
6.31196e-21
3.14439e-20
1.49903e-20
1.50828e-20
2.96459e-20
1.39888e-20
2.05206e-20
2.23244e-20
2.03719e-20
3.4775e-20
1.38946e-21
4.88341e-21
2.27698e-21
3.71627e-21
2.73386e-20
2.88583e-20
1.45095e-20
6.34059e-21
1.26644e-20
1.83118e-20
9.11443e-21
2.44056e-20
2.40388e-21
1.19157e-20
2.61433e-21
5.89089e-21
4.05914e-21
7.24159e-21
2.33321e-20
4.05984e-21
7.12448e-21
8.57978e-21
2.12103e-20
2.63895e-21
1.72668e-21
1.41392e-20
1.0055e-20
1.45626e-21
2.1136e-20
1.99415e-20
3.974e-20
2.70255e-20
2.80026e-20
8.18916e-21
5.66928e-21
7.18834e-21
1.23383e-20
1.38601e-21
1.57886e-20
4.62012e-21
5.4659e-21
1.56775e-21
1.00249e-20
1.26523e-20
4.69845e-21
5.31096e-21
6.84595e-21
1.42925e-20
1.74022e-21
1.36574e-20
2.32128e-20
1.35958e-22
3.93942e-21
9.95198e-21
2.05271e-21
1.17143e-20
1.70532e-21
1.44741e-20
1.91335e-20
1.07692e-20
1.42784e-20
1.57635e-20
2.06752e-21
1.16908e-21
6.70169e-21
5.90117e-21
7.99557e-21
3.12771e-21
1.84716e-21
1.25083e-20
2.4446e-21
1.3865e-20
1.32745e-20
5.37212e-22
1.89501e-21
5.0617e-21
6.56153e-21
1.80251e-20
2.12871e-20
5.75513e-20
2.5313e-21
4.0471e-21
1.79314e-20
1.55934e-20
2.26157e-21
7.31745e-21
1.8239e-21
1.87718e-20
1.16363e-20
9.38072e-21
1.32809e-20
2.24589e-21
2.91103e-20
5.65726e-20
5.6712e-21
2.94513e-20
9.16043e-21
5.81915e-21
6.58507e-21
2.00027e-21
2.38185e-20
2.94883e-20
3.26488e-20
1.31914e-20
2.09766e-20
1.35011e-20
2.02109e-20
4.15417e-20
3.88822e-21
2.68403e-22
1.08657e-20
6.84116e-21
1.42391e-20
3.37462e-21
2.27222e-21
3.16203e-21
4.79709e-21
8.91949e-21
2.14734e-22
2.62243e-20
8.65184e-21
9.80401e-21
5.29504e-20
2.76238e-21
2.87331e-21
7.86127e-22
5.31767e-21
7.77997e-21
2.56726e-21
5.86213e-21
1.86841e-20
2.05503e-20
3.07516e-20
4.42903e-20
1.30258e-21
4.51178e-21
1.74709e-21
3.25466e-21
1.34669e-20
1.0901e-20
7.63279e-21
8.31426e-21
6.21001e-21
1.11292e-20
4.36092e-21
3.83809e-21
1.51483e-20
8.24373e-21
1.25209e-20
5.3306e-24
7.79288e-21
7.49446e-21
1.59326e-20
1.26483e-20
4.30044e-21
2.25079e-21
9.47077e-21
5.29729e-21
1.36485e-20
6.79313e-21
4.56308e-22
1.1917e-20
6.01264e-22
5.33943e-22
3.15396e-21
3.60333e-21
1.21262e-21
1.06359e-20
1.22495e-20
8.95542e-21
1.0095e-20
6.931e-21
7.44148e-21
2.78934e-20
4.24154e-21
5.68639e-22
1.92999e-21
5.09585e-21
1.44831e-21
4.52746e-21
1.05093e-20
1.3904e-20
2.28585e-20
1.88995e-20
1.24889e-20
3.63232e-21
1.35358e-20
1.66014e-20
2.23037e-20
9.60942e-22
9.80493e-21
9.77444e-21
1.97605e-20
9.12601e-21
4.98516e-21
2.03681e-20
8.45436e-22
3.944e-22
2.06813e-20
1.08174e-20
2.95436e-20
7.84524e-21
6.14874e-21
1.09478e-21
3.63946e-20
5.24523e-21
2.00368e-21
1.75121e-20
7.59723e-21
3.46344e-20
4.02249e-21
3.42338e-21
1.57246e-20
2.86525e-20
5.98921e-21
1.44705e-20
7.09415e-21
1.07929e-20
2.88048e-21
1.5191e-20
1.7308e-20
1.82532e-20
4.27207e-20
3.70777e-21
2.34514e-20
5.4208e-21
4.3166e-21
1.393e-20
3.47195e-22
2.45106e-21
5.8308e-21
4.25165e-21
1.11005e-20
4.57219e-21
9.80926e-21
3.11975e-21
1.67745e-20
9.69994e-21
7.33496e-21
4.20692e-20
4.16684e-21
3.00542e-21
8.54508e-22
3.62373e-20
4.13317e-21
2.49338e-22
3.20494e-20
8.44426e-22
2.50559e-20
1.48605e-21
6.09018e-21
2.7878e-21
1.03154e-20
9.63072e-21
3.31381e-20
4.16826e-20
1.93425e-20
4.63597e-20
1.96947e-20
2.61275e-21
1.35371e-21
2.74425e-20
5.63456e-21
9.26491e-22
1.36875e-20
1.62912e-20
1.55257e-20
5.43291e-21
1.98107e-22
6.74016e-21
4.2582e-22
1.66179e-20
7.02288e-22
7.90426e-21
1.40147e-20
7.78077e-21
3.41471e-20
3.40781e-21
8.63745e-21
4.93192e-21
2.07906e-20
1.31563e-21
4.06518e-20
1.19535e-20
5.17212e-20
7.89904e-21
2.71985e-20
5.12934e-21
7.36733e-21
1.48226e-20
1.95981e-20
4.55159e-21
6.02927e-22
4.92371e-21
8.59561e-21
1.79912e-21
6.3341e-21
1.83181e-20
1.37629e-20
8.55075e-22
1.79418e-21
4.48605e-21
7.74033e-21
2.29549e-21
1.84099e-20
3.80968e-21
9.92094e-21
9.59071e-21
2.20891e-20
2.54205e-20
5.76237e-21
2.31458e-21
8.40074e-21
2.01866e-20
4.10236e-21
5.69822e-21
7.23096e-22
1.52949e-21
2.01332e-20
6.98326e-21
8.86757e-22
8.02919e-21
1.12687e-20
1.49767e-20
1.34143e-20
4.8736e-20
4.68098e-21
7.3514e-21
6.34551e-22
6.78539e-21
2.08946e-20
1.73986e-20
2.27209e-20
1.53268e-20
1.23129e-20
3.20769e-20
2.91404e-21
1.12175e-20
2.05383e-21
6.36491e-21
3.52586e-20
8.99619e-22
9.38201e-22
2.15532e-20
2.02366e-20
2.51185e-20
3.92857e-21
7.35691e-22
6.56638e-21
1.11121e-20
1.163e-20
1.26081e-20
2.23131e-20
3.48927e-21
1.98662e-20
2.73204e-21
5.28191e-21
1.45527e-21
3.15367e-20
2.37352e-21
7.73447e-22
2.53009e-20
1.74204e-20
1.03115e-19
1.67973e-20
5.91923e-21
4.17041e-21
3.69289e-21
2.20857e-20
1.63001e-20
9.85743e-21
1.37039e-20
1.25453e-22
4.62542e-20
2.06016e-21
1.70676e-21
7.35362e-21
4.84201e-21
3.34582e-21
1.04289e-20
1.1157e-20
6.73557e-21
1.2998e-20
1.51924e-21
2.42132e-21
1.44209e-20
9.24077e-21
1.32168e-20
1.65808e-20
3.0152e-21
2.75435e-20
6.22188e-21
2.00779e-20
9.37165e-22
8.07594e-21
5.67478e-21
1.13333e-21
6.75781e-20
7.53561e-21
4.75598e-22
1.85785e-20
5.03624e-21
6.42357e-21
5.70281e-21
3.26077e-21
6.41961e-21
1.86686e-20
4.14472e-21
1.132e-21
1.1462e-20
3.46773e-20
6.83011e-22
1.96886e-21
1.02424e-20
6.44067e-21
8.55442e-21
7.50125e-21
5.82674e-22
9.78236e-21
2.42363e-21
8.72991e-21
1.64331e-22
3.87124e-21
4.52302e-20
1.83768e-20
2.84802e-20
2.45507e-20
5.95606e-22
6.35288e-21
3.90474e-21
6.74397e-22
1.27761e-20
3.04577e-20
1.33409e-20
2.79891e-21
1.95197e-21
8.60458e-21
8.58325e-21
3.60478e-21
2.32422e-21
9.93454e-21
2.13376e-21
1.43484e-20
6.44397e-21
1.41889e-21
2.32815e-20
3.28854e-20
2.00564e-20
2.7475e-21
2.85999e-21
1.71302e-20
4.13618e-21
4.51481e-21
1.456e-20
5.89735e-22
6.60789e-21
2.23769e-20
1.77598e-21
3.64421e-20
1.20488e-21
5.46428e-21
7.36775e-21
7.26755e-22
2.49194e-21
4.78911e-20
1.27434e-20
7.51653e-21
1.45881e-21
2.17001e-20
2.83234e-22
3.12044e-20
2.3173e-22
9.02476e-21
2.97243e-21
1.88852e-20
1.22013e-21
1.90301e-21
2.80623e-20
5.95995e-21
4.08505e-21
2.69256e-21
3.92585e-21
4.1788e-20
1.63299e-20
4.05509e-21
1.71132e-21
7.79674e-21
5.30067e-20
1.8032e-20
1.61069e-21
3.25653e-20
2.41757e-21
5.42495e-21
3.25666e-22
1.18958e-22
1.90096e-21
1.00964e-20
2.98409e-21
3.76132e-21
2.05914e-21
4.08481e-21
1.01442e-20
2.0952e-22
3.14672e-20
1.59899e-21
1.87966e-21
1.29716e-20
4.93064e-21
1.83661e-21
8.61078e-21
3.30675e-21
2.44289e-20
7.45336e-21
5.79388e-20
1.54578e-21
3.54512e-20
1.84644e-20
1.7301e-20
3.89166e-21
1.60236e-20
6.11372e-21
7.47852e-21
3.93284e-21
1.20628e-20
5.12858e-22
6.58114e-20
2.86439e-21
2.80688e-20
1.25169e-20
3.56771e-21
2.87842e-21
1.26158e-20
1.29495e-20
1.07989e-20
6.68852e-21
4.6914e-21
2.26053e-21
6.07606e-21
6.16489e-21
2.34367e-20
1.07333e-20
3.76933e-21
9.25515e-21
3.25407e-21
3.89436e-21
1.25423e-20
2.55173e-20
2.41671e-21
2.82673e-22
3.60199e-20
1.0815e-20
1.92259e-20
7.2865e-21
3.6152e-21
3.37978e-21
1.81614e-21
1.28267e-20
4.76934e-21
1.53398e-20
7.67673e-21
7.58664e-22
1.0305e-20
2.60395e-20
1.23565e-22
3.44175e-21
9.59921e-21
5.1096e-21
7.25316e-21
3.45695e-20
4.72585e-20
1.96291e-20
8.63261e-21
1.13353e-20
1.51348e-20
1.15054e-20
8.80365e-21
9.34588e-21
3.75351e-21
8.30966e-21
3.94693e-20
1.58246e-20
7.79408e-21
1.60198e-20
1.24438e-21
2.15785e-20
3.6156e-20
7.44176e-22
6.74273e-21
3.8675e-20
1.52054e-20
8.75083e-21
2.49584e-21
2.98418e-20
1.23698e-20
4.09257e-21
5.06235e-22
1.27161e-20
2.28637e-20
1.03811e-20
1.77205e-20
3.58776e-20
7.90573e-21
4.85246e-21
1.65189e-20
5.87833e-21
2.71609e-21
3.8168e-21
1.44093e-20
1.158e-20
3.86316e-20
1.20422e-20
8.25691e-21
3.38019e-20
4.47151e-20
1.4462e-21
1.5445e-20
1.04769e-20
3.39482e-20
3.19178e-20
3.70338e-21
3.74779e-20
4.06796e-21
3.46716e-20
2.04114e-20
1.771e-20
2.73018e-20
1.67714e-20
3.89171e-21
1.71204e-20
8.46473e-21
3.71561e-21
1.01647e-20
1.20325e-20
8.319e-22
7.26662e-22
1.64023e-20
5.66371e-22
9.26717e-21
9.68338e-21
1.42908e-21
1.55825e-20
7.08504e-21
4.38308e-21
4.62054e-22
1.80942e-20
1.40746e-20
2.19943e-20
2.78321e-21
1.78017e-20
1.72398e-20
3.39271e-21
1.3279e-21
2.51226e-21
1.91624e-20
3.1044e-20
3.47719e-20
1.21419e-20
5.29351e-20
1.2007e-20
1.89966e-20
1.58756e-20
8.85589e-21
3.31522e-21
1.9042e-20
2.96388e-20
4.13987e-21
8.31563e-21
2.28674e-20
3.67776e-21
9.33555e-21
4.06301e-23
1.35356e-20
1.81521e-21
1.31136e-20
1.0981e-20
1.17791e-20
8.73917e-21
3.22443e-20
1.10859e-20
1.4368e-20
2.21463e-21
3.7375e-21
2.56457e-21
1.78031e-20
1.4438e-20
7.32919e-22
2.77322e-20
1.37054e-21
3.55562e-21
2.49274e-20
3.33279e-20
3.58721e-21
3.01844e-20
1.1496e-22
1.71171e-21
1.51607e-21
3.32261e-21
3.1306e-22
4.97816e-21
7.41502e-21
2.79537e-20
7.33157e-21
5.58457e-21
1.59378e-21
1.62603e-20
1.18013e-20
1.0625e-20
8.70905e-21
8.50277e-21
1.98674e-21
1.5285e-20
1.1499e-20
8.22468e-21
2.94678e-20
4.38296e-21
1.55186e-20
6.83539e-21
8.58041e-21
8.06223e-21
1.88393e-20
1.23276e-20
1.04702e-20
2.51167e-21
2.82171e-20
3.42101e-21
1.48541e-20
9.07727e-21
4.53196e-22
5.58161e-21
6.75174e-20
3.15293e-21
4.50826e-22
2.93896e-21
1.25455e-20
1.01772e-21
2.61863e-22
8.95332e-21
2.12649e-20
3.19665e-20
3.50459e-21
6.00476e-21
2.2617e-20
1.27624e-20
5.06947e-21
1.96103e-21
1.61155e-20
2.16656e-20
4.21339e-21
4.26156e-20
2.7148e-20
1.87566e-21
3.15696e-21
5.70875e-21
8.75786e-21
5.26505e-21
1.5313e-20
2.70738e-21
2.44717e-20
5.20483e-21
1.14147e-20
5.23871e-21
2.36779e-20
1.23983e-20
2.71843e-21
1.1784e-20
3.61395e-20
1.72612e-21
2.77815e-20
1.38064e-20
1.43043e-20
8.69176e-21
8.19244e-21
2.91809e-20
7.31728e-21
2.46922e-20
9.91626e-21
2.67768e-21
2.67645e-21
1.90816e-20
3.54154e-21
7.77767e-21
1.63459e-20
3.2703e-22
1.669e-20
1.44366e-20
3.04956e-20
1.57708e-21
5.68932e-20
4.51969e-21
1.96739e-20
9.21253e-21
1.79046e-21
7.81073e-21
1.48832e-20
7.43723e-21
5.61766e-20
2.19398e-21
7.41783e-21
1.12847e-21
7.50585e-21
3.77873e-20
3.17658e-21
2.36137e-21
8.82231e-21
3.83809e-22
3.36946e-21
5.5284e-21
4.22798e-21
1.20063e-21
1.56085e-20
2.86866e-20
3.29615e-22
3.06191e-20
7.82814e-22
1.29576e-20
7.36754e-21
2.81537e-22
4.2829e-21
3.47875e-20
1.09689e-20
8.71869e-21
1.37259e-20
2.1971e-20
1.7848e-20
1.76338e-21
7.2725e-21
1.26226e-20
1.52256e-20
1.03468e-20
3.8824e-20
1.87488e-20
9.848e-22
4.34303e-21
1.65136e-20
7.15763e-21
3.83625e-21
3.77551e-21
1.2882e-22
2.45267e-21
3.95815e-21
6.65825e-21
1.72624e-20
7.43235e-22
3.92799e-21
1.47146e-20
3.1753e-20
2.46237e-21
1.01307e-21
3.24257e-22
1.28795e-20
9.18676e-21
6.35021e-21
1.87529e-20
5.19304e-21
1.7168e-20
1.83097e-20
7.42615e-21
2.37245e-21
1.53335e-20
1.69004e-21
4.78556e-21
4.1235e-21
8.97122e-21
1.19006e-20
8.02526e-21
5.01473e-21
1.78424e-20
6.20821e-21
4.02751e-20
2.41093e-21
1.97768e-20
5.68243e-21
1.70276e-20
4.08573e-21
1.83697e-21
5.23089e-21
8.2285e-21
5.68029e-21
2.83656e-21
2.03105e-20
8.55456e-21
4.77845e-22
4.59762e-21
5.26291e-22
2.36388e-20
5.70447e-21
5.13531e-21
7.23056e-21
3.70812e-20
3.47738e-21
2.51971e-20
1.03552e-20
1.60344e-20
2.91119e-22
1.17705e-21
3.81044e-20
7.36988e-21
5.71635e-23
7.21184e-21
9.74077e-21
7.67783e-22
7.54444e-21
4.37905e-21
2.14138e-20
7.23809e-21
4.84876e-21
2.62018e-20
2.50936e-21
1.26334e-21
1.43371e-21
5.74311e-20
7.92496e-21
1.76398e-20
2.81122e-20
4.13674e-21
1.40406e-20
5.78209e-21
1.71438e-21
8.64519e-24
1.06818e-20
3.04915e-21
1.95569e-21
4.6034e-21
1.80595e-20
2.57527e-20
1.1654e-20
1.74738e-21
5.63749e-21
1.30133e-21
8.7041e-21
3.39881e-21
4.76717e-21
1.04882e-20
1.97538e-20
1.75939e-20
1.3359e-20
9.64093e-22
7.17677e-21
8.5689e-21
5.76792e-21
1.17975e-20
1.41397e-20
3.83676e-20
1.47039e-20
1.79157e-21
6.37547e-21
2.10069e-21
2.98612e-21
6.93218e-21
8.69398e-21
2.40894e-22
6.04729e-21
2.25242e-20
6.31116e-22
1.35046e-20
2.15448e-20
4.6427e-21
4.76853e-21
1.50922e-21
2.69008e-21
3.6984e-21
7.07347e-21
8.56479e-22
4.35799e-21
9.08443e-21
1.07129e-21
8.3781e-21
1.16089e-20
1.13249e-20
1.57285e-20
2.86171e-20
4.92853e-21
4.19159e-21
4.50284e-21
1.23546e-20
9.47159e-21
1.32495e-20
3.45757e-21
2.70422e-20
1.02015e-20
1.82053e-21
1.72101e-20
1.70285e-20
5.34457e-21
1.04177e-20
2.32585e-21
2.36302e-21
4.07848e-22
4.25999e-21
3.06464e-20
1.19657e-20
7.70393e-21
5.26902e-22
9.92505e-21
7.22684e-22
7.85287e-21
1.96584e-20
1.92784e-20
3.58579e-20
1.16645e-20
4.46479e-20
3.26699e-21
1.03724e-20
2.56831e-20
6.50961e-21
4.49614e-21
2.88577e-20
8.50075e-21
1.92211e-20
5.78315e-21
2.78931e-20
1.4369e-21
7.30862e-21
5.84541e-21
1.80535e-20
3.42903e-21
1.29291e-21
4.65545e-21
2.04292e-20
8.49392e-21
1.6681e-20
1.62652e-20
1.82919e-20
1.00681e-20
2.64116e-20
1.95288e-20
8.1425e-21
3.86407e-21
1.42067e-21
5.40836e-21
8.64997e-21
6.70559e-21
7.19909e-21
1.9527e-20
2.98756e-20
5.19987e-22
7.22186e-21
1.40963e-20
2.47568e-20
7.74678e-20
7.68958e-21
2.81312e-20
2.13201e-21
1.06001e-20
9.58407e-21
2.77734e-20
2.21091e-20
3.35469e-21
4.96503e-21
3.93021e-21
1.03473e-20
1.41697e-20
2.54801e-20
1.09944e-23
3.81667e-20
2.01802e-20
1.08186e-20
1.64304e-20
3.55697e-20
9.8913e-21
5.12756e-20
5.03246e-20
1.47099e-20
1.32739e-20
1.45905e-20
1.26844e-20
1.26505e-20
2.4127e-20
1.39138e-20
7.81676e-21
3.18086e-20
7.65335e-21
8.44493e-20
3.7179e-21
9.24677e-21
7.93013e-21
1.8101e-20
1.61012e-20
1.05871e-21
4.91554e-21
2.03404e-21
2.28851e-20
1.40624e-20
3.35196e-21
1.672e-20
5.19421e-20
9.25828e-21
2.23432e-20