/*--------------------------------*- C++ -*----------------------------------*\
  =========                 |
  \\      /  F ield         | OpenFOAM: The Open Source CFD Toolbox
   \\    /   O peration     | Website:  https://openfoam.org
    \\  /    A nd           | Version:  7
     \\/     M anipulation  |
\*---------------------------------------------------------------------------*/
FoamFile
{
    version     2.0;
    format      ascii;
    class       scalarField;
    location    "0.00324/lagrangian/dsmc";
    object      Ei;
}
// * * * * * * * * * * * * * * * * * * * * * * * * * * * * * * * * * * * * * //


12177
(
1.52706e-21
1.2204e-20
5.20412e-21
1.24988e-20
6.52806e-21
3.15553e-21
2.10403e-21
1.36011e-20
1.14005e-20
7.75995e-21
1.4052e-20
3.79475e-21
1.49453e-20
6.11983e-21
3.34167e-22
6.68264e-21
4.75742e-21
4.98405e-22
9.67448e-21
1.80447e-20
4.72342e-21
1.82715e-21
7.62928e-24
1.10209e-20
1.28811e-20
8.49927e-21
4.68114e-21
9.4259e-21
9.74936e-21
1.22831e-20
4.14663e-21
6.50012e-22
7.91698e-22
1.37211e-20
5.9661e-22
4.23646e-21
5.49209e-21
7.02794e-21
2.78201e-21
1.84321e-20
7.2546e-23
4.80159e-21
4.43568e-20
9.34209e-22
2.92745e-22
1.52715e-20
6.66542e-21
6.19337e-21
4.40374e-23
6.6204e-21
4.81467e-21
1.62661e-20
1.68904e-20
7.07639e-22
1.06097e-21
4.06736e-22
5.91373e-21
7.96323e-21
5.14626e-22
1.78323e-20
2.74379e-21
1.62276e-20
8.33616e-21
9.52402e-21
6.51964e-21
4.06076e-21
1.37731e-21
4.89894e-21
2.16332e-21
7.75019e-21
6.84796e-21
6.79314e-22
1.46464e-21
3.70233e-21
3.14441e-21
6.05145e-21
5.87588e-21
1.9721e-20
2.80271e-21
2.16774e-21
1.15105e-20
1.18133e-21
2.47796e-21
2.04447e-22
9.20079e-21
4.20945e-21
2.01112e-21
1.32222e-21
1.37911e-20
1.61547e-20
1.118e-21
4.1192e-21
1.24611e-20
1.15137e-20
4.86315e-21
4.91696e-21
1.1904e-21
9.35624e-21
5.18345e-21
1.80574e-21
1.51609e-20
2.77285e-20
1.7456e-20
4.96874e-21
1.5119e-22
1.78756e-22
8.33253e-21
8.11047e-21
1.46514e-20
6.10082e-23
2.00535e-22
6.18179e-21
3.86379e-22
3.85563e-23
1.20735e-22
1.40633e-20
3.09013e-21
1.90505e-21
5.3605e-21
3.00669e-21
2.38013e-21
7.42119e-21
8.41319e-21
3.24916e-21
9.91737e-21
3.30183e-21
3.17112e-21
8.03546e-21
1.69324e-20
6.24132e-21
6.07166e-21
8.35413e-21
1.54406e-21
2.96212e-22
1.46845e-21
3.22708e-21
1.19688e-20
2.13637e-21
4.78428e-21
4.98349e-22
1.11606e-22
4.17764e-22
1.12236e-20
6.30704e-21
2.95419e-21
1.90854e-21
1.10999e-20
8.89921e-22
2.2871e-21
6.85651e-21
4.5981e-21
2.35475e-21
9.20832e-21
8.51267e-21
1.18212e-20
1.8491e-21
4.0227e-22
7.47669e-21
5.63967e-21
8.38134e-21
2.06045e-20
1.1565e-21
2.6628e-21
5.45692e-21
1.08342e-20
1.10908e-20
7.66886e-21
4.13061e-21
6.95582e-21
6.11686e-22
4.88912e-22
6.93104e-21
4.66408e-21
1.13014e-21
4.29031e-21
7.68368e-21
3.55345e-21
1.54187e-20
8.76288e-21
8.65399e-21
1.08098e-20
4.58751e-21
1.25482e-21
2.14829e-20
1.13689e-20
6.0258e-21
2.59297e-21
7.87481e-21
1.18778e-20
9.76217e-21
1.36413e-20
1.06186e-21
1.95716e-21
9.6143e-21
8.57565e-21
4.08252e-21
1.24888e-20
8.22706e-21
1.45546e-20
1.38465e-20
2.28546e-21
6.2509e-21
1.54677e-20
1.01643e-20
4.8478e-21
1.9674e-20
3.55582e-21
3.52478e-21
9.34066e-21
5.99945e-21
3.07598e-21
3.15289e-21
9.57229e-21
8.31517e-21
9.56983e-21
3.47632e-21
1.97442e-20
5.20122e-22
2.50057e-21
5.41261e-21
5.02628e-21
1.94077e-20
1.10214e-20
4.4707e-21
9.37872e-22
1.20457e-21
2.48188e-21
1.51648e-21
8.438e-22
3.21164e-21
2.93054e-21
1.41266e-21
6.38893e-21
1.42316e-21
8.87123e-22
2.35542e-21
1.74666e-20
4.34256e-21
1.44101e-20
1.37404e-20
2.62353e-21
1.52866e-21
9.08096e-21
9.09095e-22
8.65551e-21
6.33173e-21
3.71577e-22
3.58826e-21
2.48952e-21
1.15165e-21
1.19479e-21
6.33417e-21
5.94553e-22
3.88414e-21
9.54983e-22
2.33978e-20
4.50139e-22
3.52952e-21
6.82871e-22
2.69095e-21
1.77741e-21
2.3919e-21
8.46987e-21
7.98028e-22
5.13067e-21
1.31544e-20
1.10209e-20
5.91606e-21
1.16874e-21
5.43274e-21
6.90949e-21
1.89302e-20
1.54689e-20
8.29361e-21
5.9881e-22
8.17598e-21
6.31372e-22
8.67863e-22
3.37599e-21
3.20825e-22
1.42305e-21
7.74419e-21
1.52252e-20
8.80235e-21
2.37345e-21
1.08595e-21
9.84715e-21
3.23557e-21
7.2399e-21
1.30008e-21
3.94049e-22
7.03331e-21
1.00047e-21
5.99845e-21
5.518e-21
6.03808e-21
1.97385e-21
1.45013e-21
5.37795e-21
1.03445e-20
3.24598e-21
2.98367e-21
8.01523e-21
3.85479e-21
6.22644e-22
1.45931e-20
6.83976e-21
1.14282e-20
1.12899e-20
1.31536e-21
5.67557e-21
1.81089e-20
7.42792e-23
8.82962e-21
2.63342e-21
9.16455e-21
2.48177e-21
2.97936e-21
3.50051e-22
4.78867e-21
1.74777e-20
1.31032e-20
3.21268e-21
9.3245e-21
1.80979e-21
6.49834e-22
5.81751e-21
3.46962e-21
4.91536e-21
1.67974e-20
3.8049e-22
5.95506e-21
5.13665e-21
7.71309e-21
3.33793e-22
9.03838e-21
4.18475e-21
9.51262e-22
5.98592e-22
7.0961e-21
2.5797e-21
8.12653e-21
1.76787e-22
3.40136e-20
8.58648e-21
4.80438e-21
2.94412e-21
4.7833e-21
5.63254e-21
1.00662e-20
1.05391e-21
5.58114e-22
7.93568e-21
1.31782e-20
1.45928e-21
5.02033e-21
1.40279e-21
1.90098e-21
1.06737e-22
1.96602e-20
1.97636e-20
1.66058e-20
3.07914e-23
1.05682e-20
6.0855e-21
7.84918e-21
4.85227e-21
7.48938e-22
1.36751e-21
2.05805e-21
2.06032e-21
6.01144e-21
3.80023e-21
8.58451e-22
5.8234e-21
1.13875e-22
1.16466e-21
8.8451e-22
4.70317e-20
3.83833e-21
2.53139e-21
5.32266e-21
1.71443e-20
3.70239e-21
9.16853e-21
4.14522e-21
2.58672e-21
1.52341e-21
4.30259e-21
7.48232e-21
7.70585e-22
3.96451e-21
1.63874e-21
5.54481e-21
2.15881e-21
1.08152e-20
1.08019e-20
5.85535e-21
2.14195e-21
9.16967e-21
6.58081e-21
9.98829e-22
1.39613e-21
1.8132e-21
1.86364e-21
1.73893e-21
3.63504e-21
8.82863e-21
1.20601e-20
3.93295e-21
2.06557e-21
7.0286e-21
6.30653e-21
3.47099e-21
3.27108e-21
1.37754e-20
1.66494e-20
1.38996e-21
7.53227e-21
1.87172e-20
4.15347e-21
6.03946e-21
2.47271e-21
4.80235e-21
5.58177e-23
1.87605e-20
2.44275e-21
3.28084e-21
9.12363e-21
7.63551e-22
2.39017e-21
1.11268e-20
3.13849e-21
1.6204e-21
2.04779e-21
1.16244e-20
1.21538e-21
7.59913e-21
6.07155e-21
6.08779e-21
2.30048e-21
7.22319e-21
5.59913e-21
3.40301e-21
9.67946e-22
2.53313e-21
1.67528e-20
1.39743e-20
8.63765e-21
1.57334e-21
1.28663e-20
1.88213e-20
6.55915e-21
1.12134e-21
2.84483e-21
5.07629e-21
1.04747e-20
8.35133e-21
1.98198e-21
2.32233e-21
2.43804e-21
2.50144e-21
1.49775e-20
2.68572e-21
9.8279e-21
1.41837e-22
2.35379e-21
1.87705e-21
2.22519e-20
1.26786e-20
1.70781e-20
8.87439e-21
1.48651e-20
1.36413e-20
1.40052e-20
6.03824e-21
6.90225e-21
4.1321e-21
1.94553e-21
8.59684e-22
7.06389e-21
1.46388e-20
4.22042e-21
5.50809e-21
1.43788e-20
7.81343e-21
8.1378e-21
1.02362e-21
9.99703e-22
5.66666e-21
2.96428e-20
2.52813e-21
2.148e-20
2.35506e-21
2.79677e-21
2.04675e-21
8.91844e-21
7.18059e-21
8.94174e-22
9.71612e-22
2.07027e-21
9.78553e-21
3.1835e-22
1.91717e-21
1.03774e-20
8.40677e-22
9.93756e-21
1.74844e-21
3.93934e-22
1.70802e-20
1.4209e-21
1.14777e-20
1.21117e-21
2.02312e-21
1.04266e-20
9.64869e-21
1.86203e-20
7.87993e-22
4.84939e-21
9.6084e-21
2.32429e-20
1.15738e-20
8.84036e-21
5.33804e-21
1.18287e-20
2.58517e-21
6.06023e-21
2.81549e-20
1.40415e-20
2.02314e-20
1.53876e-20
1.04948e-21
1.563e-20
6.02163e-21
6.26254e-21
4.49691e-21
5.81723e-21
4.43404e-21
4.50653e-22
9.06718e-21
1.46451e-20
2.38908e-21
7.82458e-21
3.10765e-21
1.04516e-21
9.81371e-21
4.22231e-21
4.47559e-22
9.52775e-21
4.0147e-21
9.70154e-21
4.08211e-21
2.73488e-20
5.80414e-21
1.21814e-20
4.6236e-21
6.209e-21
1.82938e-21
1.65736e-21
2.94118e-21
7.17718e-22
3.33045e-21
7.98874e-23
1.46071e-20
4.32169e-21
6.42397e-21
4.12889e-20
3.17618e-21
4.90393e-21
2.3607e-21
1.12465e-20
9.30438e-21
2.20743e-21
6.21306e-21
7.18797e-22
3.7946e-21
1.51937e-20
1.13167e-21
2.16362e-20
1.0771e-20
1.2366e-20
1.17279e-20
2.28661e-20
8.04698e-21
4.70838e-21
7.08298e-21
6.41462e-21
3.77971e-21
3.05005e-20
1.715e-20
8.16023e-22
2.1474e-21
4.14531e-21
2.61137e-20
4.47565e-21
1.13901e-21
4.42358e-21
4.88452e-21
1.932e-21
1.4121e-21
1.03934e-21
4.81931e-21
2.18044e-21
1.31522e-20
5.41953e-22
1.30265e-20
4.72617e-21
9.02013e-21
4.72303e-20
1.14866e-20
1.04952e-20
8.19809e-21
7.39655e-21
4.89282e-21
9.74466e-22
2.09903e-20
3.14712e-21
1.17372e-20
5.83318e-21
2.07639e-21
7.87032e-21
3.61848e-21
4.89666e-21
3.03137e-20
1.16097e-20
7.70678e-21
4.36108e-21
1.02943e-20
4.83034e-22
2.58792e-21
9.23092e-22
5.95238e-21
1.40164e-20
1.89965e-20
1.83255e-21
6.35664e-21
1.90496e-20
1.76539e-21
4.70877e-21
1.15789e-20
1.77661e-22
4.39924e-21
5.86882e-21
3.16527e-21
4.9507e-21
4.15568e-21
2.79645e-21
3.18604e-22
1.98697e-21
2.01979e-21
5.89048e-23
1.31573e-20
1.30452e-20
2.71725e-20
7.62802e-21
4.70911e-21
4.4143e-22
1.09279e-20
1.58978e-20
6.9334e-21
1.71687e-21
8.48052e-21
2.06365e-22
3.96689e-21
1.07962e-20
4.75709e-21
4.90468e-21
3.54806e-20
1.97315e-21
5.09668e-22
1.70668e-21
3.61218e-22
1.9456e-21
3.60131e-21
3.97982e-21
1.30257e-20
7.52779e-21
2.41119e-21
1.39159e-22
1.60933e-20
5.8159e-21
1.98174e-21
1.33269e-21
1.24297e-20
3.00943e-21
3.17546e-21
5.04582e-21
2.20813e-20
2.69069e-21
5.53453e-22
3.03472e-21
1.0765e-20
6.71563e-21
3.08581e-23
5.07364e-21
4.69572e-21
4.08182e-21
8.70007e-22
1.32595e-21
6.96721e-22
2.8094e-21
2.90066e-20
2.67049e-21
1.65076e-21
7.07683e-21
1.37714e-20
1.51842e-20
4.18473e-22
4.48872e-21
7.14702e-21
3.00823e-21
5.39344e-21
7.25088e-21
1.03628e-21
1.56397e-20
4.62442e-21
1.9093e-20
1.26024e-20
6.96997e-21
4.9721e-24
4.56159e-21
3.14797e-22
7.60037e-21
2.27204e-21
3.2549e-22
7.6249e-21
2.11788e-20
1.71126e-20
1.82737e-21
1.43708e-21
1.04299e-20
3.14556e-21
5.15748e-21
3.67069e-22
2.58885e-21
5.88007e-21
1.07628e-20
4.28728e-21
9.82409e-21
7.28274e-22
5.73373e-21
1.37691e-20
5.93138e-21
9.78354e-22
6.87027e-21
9.70105e-22
8.97977e-22
1.95677e-20
8.6792e-22
9.93366e-21
1.12864e-20
1.91431e-21
3.54112e-22
8.63663e-22
4.95992e-21
1.80696e-21
1.01674e-20
7.26208e-22
1.0325e-20
2.56617e-21
3.72354e-21
1.05207e-21
5.33199e-22
2.64015e-20
6.90587e-21
3.65705e-21
7.47788e-21
6.56857e-21
7.45513e-21
4.67367e-21
1.49171e-20
7.89427e-22
1.02324e-20
3.89665e-21
8.174e-21
2.07859e-20
6.36952e-21
2.47238e-20
4.29677e-21
4.90469e-21
1.50865e-20
2.42895e-21
8.8381e-22
6.04478e-22
5.55955e-21
6.46086e-21
4.8708e-21
1.95994e-20
1.05065e-20
1.88876e-21
5.0578e-21
2.18497e-21
1.96877e-20
1.54318e-20
7.37381e-21
3.46091e-23
6.65754e-21
1.2456e-21
2.31574e-22
3.84719e-22
1.17147e-21
8.07502e-21
1.58883e-20
5.8654e-21
4.17656e-22
7.44696e-24
5.08203e-21
5.96177e-21
3.27731e-22
4.4353e-21
1.37975e-20
2.4212e-21
1.08379e-21
3.11201e-21
1.09617e-20
9.02995e-22
1.31885e-21
2.72352e-21
2.71017e-21
1.90602e-21
9.39391e-21
3.49753e-21
1.3709e-21
2.42456e-21
1.2206e-20
6.33179e-22
8.34744e-22
5.41903e-21
3.58209e-20
6.63935e-21
5.42802e-21
2.90762e-21
1.35673e-21
5.76768e-21
6.30126e-21
6.08872e-21
1.47924e-21
7.47482e-22
6.38083e-21
1.26697e-20
2.72234e-21
5.76758e-22
1.38211e-21
1.10459e-21
5.19553e-21
6.11918e-21
2.826e-21
1.02988e-20
2.91157e-20
3.54522e-21
3.94914e-21
9.52053e-21
3.86929e-21
1.89355e-21
1.61587e-20
1.19356e-20
9.13081e-22
7.00551e-21
2.2259e-21
1.98276e-21
6.57258e-22
7.25851e-22
1.10728e-21
3.81366e-21
1.32379e-20
3.15295e-21
4.15474e-22
2.21341e-21
8.08027e-21
1.91379e-20
6.52587e-21
1.31827e-21
1.43536e-20
4.14179e-21
3.35588e-21
4.84172e-21
9.18064e-22
5.00937e-21
2.7595e-22
1.82325e-21
4.45581e-21
1.57601e-20
6.91622e-21
2.82136e-21
6.50173e-21
1.62763e-21
3.70891e-22
2.32354e-22
7.95531e-22
1.57355e-22
4.66032e-21
9.11327e-21
2.40011e-20
1.62034e-20
8.88328e-21
4.35924e-21
1.91908e-22
2.25857e-21
1.23138e-21
1.60733e-22
6.95582e-21
1.22162e-21
5.17289e-22
2.30548e-21
3.46655e-21
1.06278e-21
2.63094e-21
3.13082e-20
6.91352e-22
7.87731e-21
2.0785e-21
2.7618e-21
6.8293e-21
2.59621e-21
1.86903e-21
3.12092e-20
3.71731e-21
7.95215e-21
7.67837e-21
5.96816e-21
3.296e-23
6.18688e-21
1.71368e-21
4.58732e-21
1.76667e-20
5.46562e-22
2.45282e-22
1.24396e-21
8.81108e-21
7.12582e-21
5.6976e-21
3.57591e-21
1.76333e-21
1.94602e-20
7.90283e-21
8.0669e-22
4.23458e-21
1.53826e-20
4.07693e-22
9.4393e-21
1.05959e-20
7.08534e-21
4.40558e-21
5.21796e-21
2.73939e-21
7.96752e-22
5.28319e-21
6.66759e-21
1.10116e-20
1.93104e-21
5.76624e-21
1.01799e-20
1.08406e-20
1.62348e-21
8.88871e-21
3.59376e-21
4.1611e-21
2.2189e-20
2.98989e-21
3.24874e-20
1.03677e-20
3.67613e-21
1.90197e-21
5.11052e-22
8.36919e-22
5.10291e-21
9.85965e-23
3.63189e-21
1.13346e-20
4.98605e-21
5.96479e-21
3.76675e-21
1.7704e-21
1.45287e-21
5.66548e-21
2.80285e-21
6.14421e-21
2.03109e-21
5.69029e-21
9.81703e-21
1.79404e-21
7.0086e-21
7.26461e-21
7.21772e-21
3.36722e-21
5.1826e-21
1.23674e-20
2.65088e-21
2.62282e-21
1.85995e-21
1.79665e-20
1.00542e-20
5.62004e-21
8.74715e-22
2.98349e-22
1.08404e-20
4.89397e-21
2.72865e-21
6.65186e-21
1.15132e-22
2.01073e-21
6.77982e-22
1.14814e-21
5.58152e-21
1.83054e-21
1.03566e-21
9.31096e-21
5.03809e-21
1.2937e-20
5.75666e-22
5.89995e-21
5.59004e-22
1.94998e-21
9.00545e-21
1.03657e-20
1.05727e-20
9.08139e-21
2.18458e-20
1.28171e-20
1.94536e-21
3.57209e-21
5.37022e-21
3.89778e-21
7.49747e-22
5.96272e-21
1.73584e-20
3.79874e-21
8.05982e-21
2.11006e-21
6.81311e-21
4.48362e-21
5.6057e-21
4.95593e-21
6.55809e-21
4.38015e-21
8.04453e-21
5.09327e-21
1.19812e-21
1.69457e-20
2.55227e-21
1.65021e-20
4.29083e-21
1.69513e-21
1.60595e-21
4.34777e-21
3.57781e-21
2.39948e-22
1.64211e-20
6.6786e-21
3.60683e-20
7.05584e-22
5.24869e-21
5.13151e-22
7.90317e-21
1.54711e-20
1.65667e-21
7.91959e-21
9.67689e-21
3.13532e-20
9.18999e-21
1.86351e-21
6.18823e-21
1.36186e-20
8.02252e-21
2.70781e-21
7.03474e-21
5.3632e-21
7.97684e-21
3.81875e-21
1.9118e-20
6.43358e-21
1.10053e-21
8.65875e-21
2.59136e-21
1.01785e-20
4.58621e-21
4.28103e-22
3.92956e-21
5.82464e-21
1.49837e-21
9.04512e-21
2.14424e-21
1.40206e-20
7.72159e-21
4.90317e-21
1.89625e-20
7.31864e-22
3.37897e-21
2.38998e-20
8.08225e-21
4.93737e-21
3.49751e-21
3.94462e-22
3.95763e-21
6.03971e-21
6.40807e-21
9.47796e-21
1.95622e-21
7.92645e-21
5.2398e-21
2.93503e-21
4.47546e-21
7.143e-21
5.47444e-21
3.67957e-21
7.35274e-21
1.38725e-20
1.01884e-20
1.50787e-21
5.22389e-21
2.70001e-21
1.45144e-21
4.0967e-21
1.64644e-20
8.97143e-23
1.03211e-20
2.31317e-21
2.14979e-21
1.62223e-21
3.76166e-21
2.69449e-21
1.7918e-20
1.34836e-20
1.91037e-20
7.28421e-21
7.13215e-21
5.12896e-22
5.84725e-21
4.46134e-21
2.23295e-20
3.66354e-21
5.33936e-21
2.15776e-20
5.87238e-21
7.29451e-21
5.76531e-21
5.7755e-22
1.32179e-21
1.28894e-20
2.32228e-21
1.09396e-20
1.11214e-22
1.13536e-20
1.8547e-20
3.1437e-21
2.30908e-21
2.8498e-21
4.83911e-21
8.75602e-21
7.29627e-22
6.51276e-22
2.89885e-20
3.29797e-21
2.08756e-20
7.50375e-23
4.29201e-21
6.07535e-21
3.32141e-22
6.46308e-21
5.54017e-24
6.56903e-21
7.75217e-21
4.9727e-22
1.03029e-20
2.8779e-20
4.40924e-21
2.04729e-21
2.35483e-21
3.92387e-21
3.80153e-21
7.33755e-21
1.4698e-20
7.17516e-21
7.14021e-21
2.17411e-20
7.01354e-22
5.40121e-21
3.27525e-21
7.14356e-21
5.70212e-21
3.84879e-21
3.27169e-21
1.01402e-20
1.26487e-20
4.13854e-21
4.013e-21
2.25986e-21
6.14307e-21
3.6434e-21
6.28792e-21
6.16014e-22
5.11187e-21
4.09713e-21
4.57168e-23
1.46136e-21
5.7841e-21
9.07014e-21
3.59372e-20
1.38738e-21
7.44778e-22
5.36858e-23
1.21447e-21
8.24867e-21
3.68787e-21
1.04828e-21
3.2176e-21
3.323e-21
1.87997e-21
2.97536e-21
1.31992e-20
1.23796e-20
2.37485e-21
4.33431e-21
1.07477e-20
2.80438e-20
4.02744e-21
1.27075e-20
5.20066e-21
3.21873e-22
1.8025e-20
1.58235e-20
2.20745e-21
5.32659e-22
1.15725e-21
1.15818e-21
1.12841e-20
3.98581e-21
7.08015e-22
3.94232e-21
1.00154e-20
1.55048e-21
3.03148e-21
5.97455e-21
1.31533e-21
3.77293e-21
4.52803e-21
4.15346e-21
1.1937e-21
6.48953e-21
3.15053e-21
2.60011e-21
3.88536e-22
3.97682e-21
6.05679e-22
2.21801e-21
1.48199e-20
1.31447e-21
1.059e-20
3.74184e-22
8.9816e-21
8.2347e-21
1.02161e-20
1.03815e-20
5.29581e-21
1.01453e-21
9.98411e-22
6.41694e-22
1.06558e-20
1.43393e-20
6.13816e-21
7.82888e-21
1.63873e-21
3.25639e-21
4.204e-21
4.34188e-21
1.74569e-20
1.85624e-21
1.82001e-21
3.46299e-22
1.08581e-22
1.25483e-20
1.9843e-20
2.67829e-21
1.14154e-20
7.29129e-21
3.15177e-21
8.33284e-21
8.78465e-21
2.52568e-21
5.39587e-21
7.25236e-21
3.52639e-20
1.11846e-20
5.79721e-21
4.29327e-22
1.95994e-20
6.81225e-21
3.37193e-21
1.02057e-20
1.20383e-21
1.45669e-21
8.80586e-22
1.12944e-20
2.84915e-21
1.98981e-20
6.40576e-22
2.87574e-22
2.0867e-21
1.74865e-21
2.57024e-21
8.43669e-22
1.64822e-21
1.38289e-21
3.63558e-20
7.87951e-21
1.17474e-20
5.98486e-21
3.89187e-21
4.83069e-21
7.59161e-21
8.69734e-21
1.79076e-21
7.49389e-22
4.44389e-21
3.46663e-21
1.18925e-20
9.74914e-21
2.06867e-21
3.69547e-21
1.37847e-20
1.08007e-20
1.19097e-21
6.91128e-21
8.48417e-22
5.79737e-21
9.2641e-21
5.21428e-22
6.28369e-21
3.21471e-21
6.67255e-22
8.1888e-21
1.13274e-20
8.0131e-21
1.73037e-20
9.35138e-21
7.73306e-21
6.32404e-21
1.33343e-21
2.67664e-22
1.92773e-21
8.59286e-21
1.47169e-21
1.36908e-20
2.4536e-21
4.96203e-21
9.55096e-21
1.29639e-21
7.89215e-21
2.63396e-21
3.56522e-21
1.25183e-20
2.78946e-21
2.85448e-21
2.25272e-21
2.28519e-20
1.85926e-21
5.41632e-21
1.03424e-20
3.86883e-20
3.31146e-21
2.50895e-21
5.15356e-21
1.95346e-21
8.03557e-21
3.24804e-21
7.13766e-21
8.12485e-21
6.25838e-21
2.68831e-21
4.64369e-21
1.39235e-20
3.92867e-21
1.99093e-20
9.1997e-22
4.7545e-21
9.07999e-21
1.78267e-21
4.68554e-22
1.5189e-21
8.58118e-21
3.16351e-21
3.14355e-21
2.20234e-21
1.71525e-20
7.35692e-22
7.01178e-21
1.06121e-20
4.53091e-21
1.41487e-21
4.87467e-21
1.29086e-21
3.24712e-21
9.60498e-22
4.28311e-21
1.01603e-21
1.48425e-20
7.88025e-21
3.19256e-21
1.7345e-20
1.64094e-21
2.33643e-21
6.35547e-21
1.41642e-20
1.37352e-20
2.4855e-21
2.54077e-21
1.05513e-20
9.50827e-22
3.0955e-21
7.39947e-21
1.38166e-20
1.01412e-21
5.02578e-21
4.15357e-21
2.83009e-21
9.00488e-21
5.90252e-21
4.79494e-22
7.50326e-21
9.57344e-21
1.12952e-20
1.5068e-21
5.37497e-21
8.23833e-21
9.59812e-21
1.35967e-20
1.12119e-21
1.08406e-22
2.48768e-21
1.56859e-20
4.24487e-21
2.30769e-20
1.1427e-20
1.84279e-20
7.44889e-21
6.12926e-21
2.41981e-21
1.85639e-21
8.93932e-22
7.31622e-21
1.0675e-20
1.93238e-21
7.53276e-21
1.03069e-20
7.14794e-23
1.05356e-21
1.82117e-22
7.00008e-21
2.23208e-21
3.91017e-21
5.96633e-22
1.38754e-21
7.74295e-21
3.62818e-21
7.2719e-21
5.77926e-21
5.95392e-22
6.37316e-21
5.12731e-21
6.59255e-21
7.58347e-21
2.60624e-20
5.84241e-21
6.34189e-21
6.83072e-21
1.2662e-20
1.86079e-21
7.15702e-21
1.92498e-21
1.68339e-21
1.07573e-21
6.7526e-22
7.02199e-21
8.55117e-21
4.9847e-21
3.06209e-21
9.80368e-21
1.78597e-21
1.06963e-20
4.85687e-21
2.73298e-21
2.95704e-21
1.31848e-21
1.59264e-20
1.53424e-21
1.16511e-21
4.69793e-21
7.62646e-21
2.82778e-22
6.97496e-21
7.48998e-21
2.10366e-21
9.06882e-22
1.24624e-20
1.83181e-21
1.31271e-21
3.88026e-21
1.07797e-20
1.54911e-20
3.95408e-21
1.72383e-21
5.86976e-21
1.4586e-21
1.14173e-20
4.60475e-21
5.01797e-21
1.08372e-23
3.29709e-21
5.66009e-21
2.48397e-22
8.08055e-21
1.39753e-20
5.74541e-21
1.11072e-20
9.78628e-21
2.90787e-21
6.43755e-21
6.14419e-21
1.04737e-20
1.24362e-20
4.62503e-21
1.87616e-21
9.62828e-21
4.00855e-21
1.45379e-20
3.2185e-22
1.08764e-20
2.32778e-20
3.64637e-21
2.04945e-20
1.0371e-20
9.241e-21
2.42473e-21
5.59691e-21
6.16549e-21
6.19679e-21
8.78058e-21
1.48433e-21
1.09352e-21
8.21815e-22
8.14826e-21
8.86149e-22
2.20712e-20
1.35993e-20
1.87621e-21
2.77483e-20
2.39807e-21
3.10448e-21
9.85558e-21
2.78714e-21
9.09702e-22
1.07831e-22
7.22988e-21
1.9599e-20
1.25605e-21
7.86429e-21
4.20909e-21
5.12214e-21
5.03454e-21
3.50226e-21
2.4977e-22
2.43947e-21
7.17224e-21
5.4142e-21
9.92704e-21
1.48871e-20
2.1208e-22
5.33559e-21
4.41614e-21
1.08986e-22
4.92674e-21
1.94084e-21
1.50562e-20
7.24113e-22
3.96025e-22
1.21445e-20
1.60653e-22
5.12983e-21
3.51566e-21
7.40147e-21
1.2108e-20
1.34925e-21
1.58931e-21
6.54712e-21
5.35022e-21
4.61255e-21
6.98044e-21
5.95588e-21
5.64931e-21
1.40721e-21
2.46552e-21
1.32134e-21
2.67334e-20
2.25916e-21
1.69411e-21
1.01394e-20
4.54611e-21
5.37613e-21
2.34544e-21
4.36017e-21
9.84963e-21
8.99759e-21
7.88164e-21
1.2604e-20
2.17568e-20
3.03912e-21
4.43387e-21
3.09121e-23
9.52606e-21
2.818e-21
7.05869e-21
9.35152e-21
1.92581e-21
1.92249e-21
6.07978e-21
8.98688e-21
3.66854e-21
4.13596e-21
4.63484e-21
6.75263e-22
1.14651e-20
8.44794e-21
1.02342e-20
6.94587e-22
5.4599e-22
3.61505e-22
9.8473e-21
1.32886e-20
8.38023e-22
2.5751e-21
3.06734e-21
1.5907e-21
1.57296e-21
4.54616e-21
1.65801e-20
5.59658e-21
5.78936e-22
1.03079e-21
9.30216e-22
1.10528e-21
1.70949e-20
9.95872e-21
2.55948e-21
1.36703e-20
4.81292e-21
2.01982e-20
3.36103e-20
5.90645e-22
5.19819e-21
3.43785e-21
2.35926e-22
5.08786e-21
1.14867e-20
1.31562e-21
9.11454e-21
1.24063e-20
4.15722e-21
1.7159e-20
3.23607e-21
7.83273e-21
1.5218e-21
6.48837e-21
3.54821e-21
1.07533e-21
1.37541e-20
9.6198e-21
4.98943e-21
9.63309e-21
9.53698e-22
1.16708e-20
2.92915e-21
4.88837e-21
1.30968e-20
6.04192e-21
4.34607e-21
1.27064e-20
2.68001e-20
7.53746e-22
2.97446e-22
7.59923e-22
4.77262e-21
1.52229e-21
8.43712e-21
1.35727e-21
8.44385e-21
8.93139e-21
5.39158e-22
7.63828e-22
1.88184e-20
8.90184e-21
8.09885e-21
4.51663e-21
2.74704e-21
2.23936e-21
1.19622e-20
4.60866e-21
1.67007e-21
3.05977e-20
9.27432e-21
3.61397e-21
2.53181e-21
1.7454e-20
7.5344e-22
2.92507e-21
1.98989e-20
1.05117e-21
3.51988e-21
9.77391e-21
4.80892e-22
8.00524e-22
1.09892e-22
4.78861e-21
7.98073e-21
2.22405e-22
6.27172e-21
3.49754e-21
1.71291e-21
2.38709e-22
2.06163e-22
9.8619e-21
2.74875e-21
2.17701e-20
8.68003e-22
1.92342e-22
1.694e-20
9.77401e-21
5.66182e-21
1.23318e-22
4.14494e-21
5.73224e-21
7.93816e-21
2.37932e-21
4.50422e-21
1.29015e-21
2.27724e-21
2.78414e-21
1.08604e-20
7.9336e-21
2.53052e-20
4.11094e-21
1.67021e-20
2.99427e-20
2.60394e-21
1.79268e-21
3.39835e-21
1.82843e-21
2.17518e-21
9.4156e-21
1.42915e-22
3.13858e-21
2.19096e-21
7.52545e-22
1.75426e-21
1.00598e-20
8.1585e-21
4.02685e-21
1.2958e-21
6.75543e-21
5.94527e-21
6.0356e-21
2.12943e-21
3.30344e-21
1.1195e-21
9.51604e-21
3.90043e-21
7.42785e-21
1.77773e-20
1.2809e-21
3.03032e-21
1.96782e-21
5.83114e-21
4.69171e-21
2.71193e-21
1.66734e-20
1.5328e-20
2.02729e-20
5.04198e-21
1.6756e-21
1.01138e-21
1.14305e-21
2.39312e-21
1.01898e-20
4.87483e-21
2.40524e-20
1.07232e-20
5.12096e-21
7.05688e-21
2.21651e-21
6.84245e-21
7.92129e-21
1.6773e-21
4.60787e-21
1.89689e-20
5.19107e-21
2.63126e-22
4.30395e-21
2.53818e-20
8.10757e-21
3.75845e-21
3.35468e-21
5.27617e-21
3.68282e-21
2.31493e-21
1.37355e-21
4.26364e-21
6.61763e-21
3.67241e-21
9.60557e-22
4.16326e-21
7.27982e-21
3.34728e-21
4.5823e-21
1.75162e-21
4.79977e-21
3.15965e-21
6.97026e-22
4.72975e-22
1.00644e-21
6.47419e-22
2.80976e-21
6.01453e-22
2.14746e-21
1.04219e-21
4.21838e-21
3.35177e-22
3.46218e-21
1.63358e-20
1.65776e-20
6.42817e-22
2.85903e-21
8.3271e-21
1.56749e-21
5.0084e-21
5.16992e-21
1.90269e-22
2.46166e-21
2.27814e-22
1.69708e-20
1.17421e-20
3.90605e-21
1.8878e-21
6.19444e-21
2.65932e-20
6.93581e-21
2.52232e-22
7.43017e-22
1.48338e-20
2.55382e-21
5.04753e-21
6.09248e-22
2.16854e-21
1.98994e-21
4.70263e-21
7.70819e-22
5.99216e-21
2.5838e-21
9.74169e-22
1.75529e-21
8.81932e-22
1.67271e-21
1.28043e-20
8.4493e-21
4.04466e-21
1.54703e-20
8.44408e-21
3.37823e-21
1.62111e-22
5.35163e-21
3.80208e-21
8.36437e-21
7.60592e-22
1.97818e-21
1.91042e-20
9.6369e-21
5.71134e-22
5.20878e-21
1.37267e-20
1.14511e-20
7.13866e-22
8.0775e-22
1.30508e-21
4.95491e-21
2.00657e-21
6.76231e-21
6.70842e-23
8.6089e-21
1.93815e-21
3.57034e-22
1.17022e-20
3.27361e-21
4.32143e-22
1.8182e-21
1.4074e-20
4.1625e-22
2.51382e-20
1.03336e-21
8.908e-21
2.30306e-21
6.30891e-21
7.84216e-21
3.86288e-21
7.78643e-22
3.75025e-21
2.50015e-21
5.4983e-21
7.28331e-22
2.32343e-21
1.28346e-20
1.00169e-20
1.55037e-20
1.29898e-21
6.85362e-22
4.74847e-21
2.47714e-21
1.45813e-21
9.35209e-21
2.37597e-21
7.97912e-21
1.14866e-20
3.22697e-21
1.43048e-21
1.43584e-21
1.47695e-22
5.3361e-21
5.14471e-21
2.92091e-22
6.41479e-21
9.27945e-22
2.94815e-21
1.30268e-21
1.65926e-21
3.50182e-21
1.60888e-20
9.17811e-21
1.21975e-20
7.55772e-21
3.2288e-21
3.86318e-21
4.29985e-21
8.69905e-22
3.2607e-21
3.16471e-21
5.47755e-21
3.07619e-21
1.22287e-21
5.53326e-21
5.22983e-22
7.1232e-21
5.3998e-22
6.67014e-23
4.75376e-21
9.02327e-21
9.66301e-22
2.05888e-21
1.671e-21
8.91889e-21
8.31888e-22
3.65187e-21
2.06262e-21
1.07299e-20
3.11341e-21
1.48016e-21
6.5602e-21
4.09437e-21
1.7567e-20
1.65156e-21
2.81758e-21
1.67331e-21
1.68278e-21
8.22189e-21
1.48072e-20
7.23909e-21
2.38002e-21
6.70163e-21
8.69416e-21
1.38209e-21
2.07635e-21
4.36598e-22
6.0225e-21
2.11047e-20
9.26162e-21
3.21064e-21
8.50592e-22
4.17383e-21
2.2857e-21
4.85297e-21
1.36471e-22
3.28943e-22
5.0081e-21
3.4987e-21
6.95562e-21
5.64279e-21
3.72714e-21
1.76293e-22
1.08657e-20
6.98511e-21
1.8728e-20
7.22816e-21
5.69096e-21
2.49495e-22
1.00879e-20
2.20592e-21
1.63447e-21
9.84503e-22
6.79053e-21
7.42026e-21
6.66544e-21
4.86957e-21
7.75206e-21
7.89647e-21
1.59127e-20
1.96502e-20
3.31489e-21
7.70465e-21
8.56148e-21
9.65544e-21
1.67957e-21
2.39458e-21
4.62908e-24
1.30884e-21
7.22807e-21
1.86406e-20
5.9326e-22
5.92524e-21
3.03781e-21
4.01327e-21
2.92017e-22
3.14111e-21
6.31746e-22
2.17813e-20
3.85838e-21
3.39795e-21
2.14122e-21
7.97978e-22
2.18332e-21
2.69682e-21
1.27984e-21
1.08075e-21
1.67978e-21
2.62131e-21
1.48171e-21
2.19062e-20
7.19172e-21
2.16062e-21
3.69991e-21
1.12785e-20
2.86334e-22
1.53516e-21
1.90489e-21
4.79746e-21
4.01637e-21
5.93466e-21
2.32685e-21
4.92849e-21
4.13064e-21
4.74418e-21
3.50671e-21
1.11961e-20
2.08863e-21
1.6145e-21
3.01209e-21
4.99856e-21
1.13096e-21
7.22397e-21
5.22943e-21
1.01994e-20
2.48521e-22
6.64207e-22
7.494e-22
6.76441e-21
4.20168e-21
2.42377e-22
7.92369e-21
4.0197e-21
3.23738e-21
1.02447e-23
1.80229e-21
7.40682e-22
9.39332e-22
1.00829e-20
1.42549e-20
7.10629e-22
5.03096e-21
5.45332e-21
1.33925e-21
9.69902e-22
2.68301e-21
3.78218e-21
4.80234e-21
9.63568e-21
3.85791e-22
4.19684e-21
3.0864e-21
2.43517e-21
4.02522e-21
8.24499e-21
1.27259e-21
9.14352e-23
2.74318e-21
3.34497e-21
9.34017e-21
3.43649e-21
1.08626e-21
2.97997e-21
1.96175e-21
2.69804e-21
4.23921e-21
4.36853e-21
4.74301e-21
3.78597e-21
1.43824e-21
1.70638e-20
7.18243e-21
5.36496e-21
3.49124e-21
1.1841e-20
7.69851e-23
6.8618e-22
2.15231e-21
2.71265e-21
7.60071e-21
9.84582e-22
2.83382e-21
2.14891e-21
2.54866e-21
1.28669e-21
1.74443e-21
9.92639e-21
1.48785e-21
4.12326e-21
3.59185e-21
4.77794e-21
8.67714e-21
6.97733e-21
2.93352e-21
1.99195e-21
1.49475e-21
5.8788e-21
1.41046e-21
8.79278e-23
9.9764e-22
9.78589e-21
7.31582e-21
6.58633e-21
1.48043e-20
3.01163e-21
8.42533e-21
1.54839e-21
1.22456e-20
2.01084e-20
1.62648e-21
2.51578e-22
1.78961e-21
2.21469e-22
3.14032e-21
2.27379e-21
6.30224e-21
6.12581e-21
1.65451e-21
8.67191e-22
3.23263e-21
7.02044e-21
3.18299e-22
2.90326e-21
5.25592e-22
9.92232e-22
9.68224e-22
1.68385e-21
8.68212e-21
5.48295e-21
3.91663e-22
9.34406e-21
2.14434e-20
2.77301e-22
3.25441e-21
4.90959e-21
9.03223e-21
2.86356e-21
6.5377e-21
3.42877e-21
3.64773e-21
2.3102e-21
8.46712e-22
7.87412e-22
4.0175e-21
7.8925e-23
1.09562e-20
1.98121e-20
5.44252e-21
2.37879e-21
1.8711e-21
2.20553e-21
2.75805e-22
1.46305e-21
9.54523e-21
5.09276e-21
1.8338e-20
7.20137e-21
5.03182e-21
6.97306e-23
3.72785e-21
7.74557e-21
3.57773e-21
1.9534e-21
3.55415e-21
8.23805e-21
2.01541e-21
8.47056e-22
6.47925e-21
3.11794e-21
1.3297e-21
2.75e-22
2.81269e-21
1.64038e-20
1.16974e-20
1.53972e-21
3.38951e-21
5.47879e-22
1.8326e-21
2.01951e-21
4.0787e-21
2.06225e-21
2.67635e-23
5.1015e-21
1.44303e-21
4.47445e-21
7.17423e-22
7.66002e-22
1.75977e-21
9.70648e-21
8.68021e-21
2.45846e-22
1.50496e-21
1.1243e-21
5.6853e-22
4.53325e-21
5.03631e-21
1.15279e-20
3.85624e-21
1.59778e-21
1.94576e-21
3.38308e-21
1.47827e-20
2.45588e-21
1.33224e-21
1.18994e-20
5.33118e-21
1.40137e-21
5.06405e-22
1.03884e-21
5.9074e-21
3.19961e-21
5.45875e-21
4.83403e-21
1.63567e-20
1.17212e-21
5.53783e-21
5.73338e-21
4.60826e-21
6.72549e-21
8.49376e-21
9.60372e-21
1.54712e-21
2.3385e-21
1.52156e-21
1.23909e-21
3.20666e-21
5.61071e-21
9.66989e-21
6.91865e-22
4.82082e-22
2.23166e-22
2.24019e-21
5.18092e-21
1.85228e-21
1.14058e-20
1.96436e-21
1.03793e-20
7.87755e-21
5.74664e-21
3.39576e-22
2.7647e-21
5.79482e-22
1.31166e-21
2.94895e-21
5.65852e-21
2.17073e-21
2.08538e-21
2.90773e-21
1.45325e-20
6.54435e-21
3.25463e-21
4.47761e-21
1.15147e-21
1.55238e-21
5.66028e-22
1.27688e-20
4.02567e-21
1.1983e-20
2.67185e-20
1.45163e-22
3.11923e-22
7.5001e-23
2.51135e-22
6.74379e-21
4.23684e-21
1.13649e-21
4.7471e-21
4.63238e-21
8.95043e-22
8.7115e-22
3.2037e-21
3.34575e-21
6.31643e-22
2.80566e-22
1.87084e-20
1.57216e-21
6.79292e-21
3.78728e-21
1.25983e-21
3.84173e-21
1.38218e-20
3.30442e-21
4.13166e-21
5.54404e-21
5.96612e-22
3.06154e-21
5.60732e-22
1.3649e-21
2.6802e-22
2.23956e-21
6.57135e-21
7.46639e-21
6.45255e-22
2.4994e-21
5.02499e-21
1.26896e-20
1.0243e-21
1.19409e-20
3.66128e-21
1.98578e-21
4.42191e-21
6.79639e-21
2.08292e-20
2.34481e-22
8.93498e-23
7.72392e-22
2.40273e-21
1.00038e-20
1.54768e-20
1.78472e-21
2.21386e-20
1.06705e-21
1.57535e-21
1.11678e-20
9.00964e-21
2.01647e-21
5.80414e-21
2.84982e-21
1.0501e-21
7.21657e-21
2.82762e-21
3.05605e-21
6.35814e-21
1.01069e-21
1.30706e-21
3.79274e-22
9.90196e-22
3.25189e-22
9.95884e-22
2.60854e-21
6.94905e-21
2.29393e-21
6.6209e-22
2.54722e-21
1.26379e-20
5.35062e-22
9.85936e-21
5.97398e-22
1.01009e-20
3.7714e-22
2.37243e-22
1.19533e-20
1.86673e-21
2.86935e-21
1.61418e-21
1.58977e-21
8.27355e-23
3.55174e-21
1.05894e-21
4.24866e-22
5.36559e-23
7.82601e-21
3.99967e-21
3.31546e-21
1.28063e-21
2.43188e-21
7.21266e-22
2.47416e-21
6.77774e-21
2.97617e-22
6.84276e-22
1.30124e-21
1.16633e-21
3.57032e-21
3.35395e-21
5.93545e-21
1.41348e-21
8.04268e-22
1.07719e-20
3.36959e-21
1.20919e-20
9.21786e-22
8.64003e-21
1.0765e-21
1.56733e-21
1.51511e-21
2.25572e-21
1.45398e-20
1.0328e-22
6.92432e-21
2.25041e-22
1.58886e-21
7.09853e-22
8.11636e-21
5.23193e-22
4.17635e-21
1.40717e-22
3.3643e-22
9.00487e-21
1.15972e-21
7.96414e-21
5.58634e-21
3.10523e-21
9.03552e-21
5.97914e-21
1.76355e-21
3.88146e-21
7.18279e-21
2.07867e-22
7.06546e-21
3.57128e-21
2.31508e-21
5.04447e-21
1.31716e-21
3.07829e-21
2.67048e-21
4.52781e-21
5.30436e-21
4.04078e-21
4.92987e-21
8.73404e-22
3.38764e-21
1.83017e-22
1.68052e-21
9.28929e-21
1.21007e-21
1.50528e-21
9.07705e-22
3.8162e-21
1.8041e-21
4.06238e-21
1.0194e-20
1.23278e-21
3.18282e-21
4.76887e-23
3.02428e-21
1.08485e-21
7.27483e-22
3.03537e-22