/*--------------------------------*- C++ -*----------------------------------*\
  =========                 |
  \\      /  F ield         | OpenFOAM: The Open Source CFD Toolbox
   \\    /   O peration     | Website:  https://openfoam.org
    \\  /    A nd           | Version:  7
     \\/     M anipulation  |
\*---------------------------------------------------------------------------*/
FoamFile
{
    version     2.0;
    format      ascii;
    class       Cloud<dsmcParcel>;
    location    "0.00324/lagrangian/dsmc";
    object      positions;
}
// * * * * * * * * * * * * * * * * * * * * * * * * * * * * * * * * * * * * * //

12177
(
(0.44358 0.27821 0.27821 0) 17 17 2
(0.261225 0.369388 0 0.369388) 17 16 2
(0.345631 0.327184 0.327184 0) 19 19 2
(0.182882 0.408559 0 0.408559) 16 15 2
(0.978556 0.010722 0 0.010722) 18 18 1
(0.122745 0.438627 0 0.438627) 15 15 1
(0.449573 0.275214 0 0.275214) 16 15 2
(0.693597 0.153201 0 0.153201) 18 18 1
(0.757728 0.121136 0.121136 0) 17 16 1
(0.779747 0.110127 0 0.110127) 15 14 2
(0.753394 0.123303 0.123303 0) 18 18 2
(0.0770076 0.461496 0.461496 0) 16 16 2
(0.915145 0.0424276 0 0.0424276) 19 18 2
(0.749554 0.125223 0 0.125223) 19 18 2
(0.130757 0.434621 0 0.434621) 17 16 2
(0.069635 0.465182 0 0.465182) 16 16 1
(0.43475 0.282625 0 0.282625) 18 17 2
(0.958686 0.0206569 0 0.0206569) 17 16 2
(0.722402 0.138799 0 0.138799) 17 17 1
(0.780203 0.109899 0.109899 0) 18 18 2
(0.765808 0.117096 0.117096 0) 16 15 1
(0.705718 0.147141 0 0.147141) 17 16 2
(0.533513 0.233244 0.233244 0) 16 15 1
(0.452026 0.273987 0.273987 0) 17 17 2
(0.594557 0.202721 0.202721 0) 16 15 1
(0.316678 0.341661 0.341661 0) 16 15 1
(0.834148 0.0829258 0 0.0829258) 17 16 2
(0.944781 0.0276095 0 0.0276095) 18 18 1
(0.85162 0.0741899 0.0741899 0) 18 18 2
(0.229942 0.385029 0.385029 0) 19 18 1
(0.0710943 0.464453 0.464453 0) 19 18 1
(0.398676 0.300662 0 0.300662) 20 19 2
(0.438675 0.280662 0 0.280662) 15 15 1
(0.0131664 0.493417 0.493417 0) 16 16 2
(0.227103 0.386449 0.386449 0) 19 18 1
(0.543447 0.228277 0.228277 0) 18 17 1
(0.752606 0.123697 0 0.123697) 17 17 1
(0.0191878 0.490406 0.490406 0) 17 16 1
(0.913649 0.0431755 0.0431755 0) 20 19 1
(0.664316 0.167842 0.167842 0) 19 19 2
(0.92 0.04 0 0.04) 17 17 1
(0.0316075 0.484196 0.484196 0) 17 16 1
(0.84912 0.07544 0 0.07544) 17 17 1
(0.884013 0.0579935 0.0579935 0) 19 18 1
(0.416287 0.291857 0 0.291857) 16 16 1
(0.0761308 0.461935 0 0.461935) 19 18 2
(0.465749 0.267125 0.267125 0) 16 15 1
(0.267593 0.366204 0 0.366204) 18 17 2
(0.417044 0.291478 0.291478 0) 16 16 2
(0.342555 0.328723 0.328723 0) 17 17 2
(0.535091 0.232455 0 0.232455) 19 18 2
(0.755322 0.122339 0.122339 0) 17 17 2
(0.775347 0.112327 0 0.112327) 16 16 1
(0.505312 0.247344 0.247344 0) 17 17 2
(0.444801 0.2776 0 0.2776) 18 17 2
(0.415002 0.292499 0 0.292499) 15 15 1
(0.475625 0.262188 0.262188 0) 17 16 1
(0.113333 0.443334 0 0.443334) 18 17 2
(0.741974 0.129013 0 0.129013) 18 17 2
(0.842258 0.0788708 0 0.0788708) 18 18 1
(0.376892 0.311554 0 0.311554) 16 16 1
(0.287132 0.356434 0 0.356434) 17 16 2
(0.970125 0.0149375 0.0149375 0) 17 17 2
(0.085642 0.457179 0 0.457179) 16 15 2
(0.934299 0.0328504 0.0328504 0) 17 17 2
(0.278914 0.360543 0.360543 0) 18 17 1
(0.0435171 0.478241 0.478241 0) 17 16 1
(0.00478032 0.49761 0 0.49761) 16 16 1
(0.310095 0.344952 0 0.344952) 19 18 2
(0.714615 0.142693 0 0.142693) 19 19 1
(0.54356 0.22822 0.22822 0) 18 17 1
(0.290109 0.354946 0.354946 0) 20 20 2
(0.915157 0.0424216 0.0424216 0) 17 16 1
(0.137736 0.431132 0 0.431132) 16 16 1
(0.218888 0.390556 0 0.390556) 17 17 1
(0.487834 0.256083 0 0.256083) 18 18 1
(0.174925 0.412537 0.412537 0) 17 16 1
(0.810199 0.0949006 0 0.0949006) 17 17 1
(0.156197 0.421901 0 0.421901) 15 14 2
(0.928902 0.0355489 0.0355489 0) 19 18 1
(0.682442 0.158779 0.158779 0) 18 17 1
(0.0701905 0.464905 0.464905 0) 19 18 1
(0.14463 0.427685 0.427685 0) 20 19 1
(0.821145 0.0894277 0 0.0894277) 16 15 2
(0.400768 0.299616 0 0.299616) 16 16 1
(0.908657 0.0456715 0.0456715 0) 16 15 1
(0.305798 0.347101 0.347101 0) 15 15 2
(0.890411 0.0547946 0 0.0547946) 17 17 1
(0.812096 0.093952 0.093952 0) 16 16 2
(0.895465 0.0522675 0 0.0522675) 18 18 1
(0.419386 0.290307 0 0.290307) 18 17 2
(0.0447326 0.477634 0.477634 0) 18 17 1
(0.0932713 0.453364 0 0.453364) 19 18 2
(0.264349 0.367826 0.367826 0) 18 18 2
(0.656844 0.171578 0 0.171578) 19 19 1
(0.923799 0.0381007 0.0381007 0) 16 16 2
(0.900145 0.0499275 0 0.0499275) 18 17 2
(0.474992 0.262504 0.262504 0) 18 18 2
(0.762169 0.118915 0 0.118915) 16 16 1
(0.231279 0.38436 0 0.38436) 20 19 2
(0.381234 0.309383 0 0.309383) 17 16 2
(0.450518 0.274741 0.274741 0) 17 17 2
(0.473462 0.263269 0 0.263269) 16 15 2
(0.551701 0.22415 0 0.22415) 18 18 1
(0.660882 0.169559 0.169559 0) 17 17 2
(0.0589451 0.470527 0.470527 0) 18 17 1
(0.396405 0.301798 0 0.301798) 15 14 2
(0.0646547 0.467673 0 0.467673) 19 18 2
(0.347164 0.326418 0.326418 0) 18 18 2
(0.924576 0.0377119 0.0377119 0) 19 19 2
(0.899435 0.0502823 0 0.0502823) 19 18 2
(0.499359 0.250321 0 0.250321) 18 17 2
(0.723363 0.138318 0 0.138318) 16 16 1
(0.966623 0.0166884 0 0.0166884) 17 17 1
(0.901529 0.0492357 0.0492357 0) 16 16 2
(0.829121 0.0854394 0 0.0854394) 18 17 2
(0.0530826 0.473459 0 0.473459) 19 18 2
(0.240306 0.379847 0.379847 0) 16 16 2
(0.629251 0.185375 0.185375 0) 18 18 2
(0.249309 0.375345 0 0.375345) 19 18 2
(0.501493 0.249253 0 0.249253) 18 17 2
(0.195244 0.402378 0.402378 0) 17 17 2
(0.526065 0.236967 0.236967 0) 20 20 2
(0.899944 0.0500281 0 0.0500281) 20 19 2
(0.751911 0.124045 0.124045 0) 19 18 1
(0.0309559 0.484522 0.484522 0) 18 17 1
(0.622037 0.188982 0 0.188982) 17 16 2
(0.241795 0.379102 0 0.379102) 18 17 2
(0.026331 0.486835 0.486835 0) 18 18 2
(0.345717 0.327141 0 0.327141) 19 18 2
(0.910261 0.0448696 0.0448696 0) 17 16 1
(0.39649 0.301755 0 0.301755) 20 20 1
(0.602862 0.198569 0 0.198569) 18 18 1
(0.518104 0.240948 0.240948 0) 16 16 2
(0.202284 0.398858 0.398858 0) 17 17 2
(0.0227967 0.488602 0 0.488602) 18 17 2
(0.849111 0.0754445 0.0754445 0) 17 17 2
(0.69383 0.153085 0.153085 0) 18 18 2
(0.941478 0.0292611 0 0.0292611) 16 15 2
(0.21689 0.391555 0.391555 0) 18 17 1
(0.0204542 0.489773 0.489773 0) 19 19 2
(0.881624 0.0591881 0.0591881 0) 18 17 1
(0.71485 0.142575 0.142575 0) 19 18 1
(0.782055 0.108973 0.108973 0) 19 19 2
(0.810563 0.0947184 0.0947184 0) 19 18 1
(0.889512 0.0552441 0.0552441 0) 18 17 1
(0.710111 0.144944 0.144944 0) 19 19 2
(0.142285 0.428858 0.428858 0) 17 16 1
(0.741066 0.129467 0.129467 0) 18 17 1
(0.0736838 0.463158 0 0.463158) 20 20 1
(0.430367 0.284816 0 0.284816) 19 19 1
(0.567896 0.216052 0 0.216052) 18 18 1
(0.425186 0.287407 0.287407 0) 19 18 1
(0.310912 0.344544 0.344544 0) 21 20 1
(0.648582 0.175709 0.175709 0) 19 19 2
(0.369778 0.315111 0 0.315111) 19 18 2
(0.641406 0.179297 0.179297 0) 17 16 1
(0.421185 0.289407 0 0.289407) 16 16 1
(0.0432036 0.478398 0.478398 0) 17 16 1
(0.260857 0.369571 0 0.369571) 18 18 1
(0.473802 0.263099 0.263099 0) 18 17 1
(0.794475 0.102763 0 0.102763) 18 18 1
(0.810295 0.0948527 0 0.0948527) 17 17 1
(0.99232 0.00384009 0 0.00384009) 18 17 2
(0.725652 0.137174 0 0.137174) 19 18 2
(0.112684 0.443658 0 0.443658) 18 18 1
(0.565811 0.217095 0.217095 0) 17 16 1
(0.926484 0.0367578 0 0.0367578) 18 17 2
(0.298753 0.350624 0 0.350624) 16 16 1
(0.221993 0.389003 0 0.389003) 18 18 1
(0.88054 0.0597299 0 0.0597299) 18 18 1
(0.758392 0.120804 0.120804 0) 17 17 2
(0.970673 0.0146637 0 0.0146637) 19 18 2
(0.420262 0.289869 0 0.289869) 23 22 2
(0.00662783 0.496686 0.496686 0) 17 17 2
(0.371071 0.314464 0.314464 0) 17 17 2
(0.551954 0.224023 0.224023 0) 16 16 2
(0.456883 0.271558 0 0.271558) 19 18 2
(0.814463 0.0927687 0 0.0927687) 17 16 2
(0.174359 0.412821 0.412821 0) 20 19 1
(0.174522 0.412739 0.412739 0) 20 19 1
(0.806373 0.0968134 0.0968134 0) 21 20 1
(0.392498 0.303751 0 0.303751) 17 17 1
(0.679448 0.160276 0.160276 0) 17 16 1
(0.945658 0.0271708 0.0271708 0) 19 19 2
(0.795133 0.102434 0 0.102434) 16 15 2
(0.220002 0.389999 0 0.389999) 18 18 1
(0.35188 0.32406 0 0.32406) 19 18 2
(0.945671 0.0271646 0.0271646 0) 18 17 1
(0.0182664 0.490867 0 0.490867) 19 18 2
(0.922028 0.0389859 0 0.0389859) 19 19 1
(0.98979 0.00510476 0.00510476 0) 16 15 1
(0.320827 0.339587 0.339587 0) 18 18 2
(0.171333 0.414333 0.414333 0) 18 18 2
(0.289819 0.355091 0.355091 0) 18 18 2
(0.295075 0.352463 0.352463 0) 19 18 1
(0.708508 0.145746 0 0.145746) 17 17 1
(0.205519 0.39724 0.39724 0) 18 18 2
(0.965227 0.0173865 0 0.0173865) 15 14 2
(0.663949 0.168025 0 0.168025) 16 16 1
(0.59794 0.20103 0.20103 0) 20 19 1
(0.82439 0.087805 0.087805 0) 17 16 1
(0.599531 0.200234 0 0.200234) 19 19 1
(0.0410202 0.47949 0 0.47949) 16 16 1
(0.920307 0.0398466 0.0398466 0) 19 19 2
(0.16623 0.416885 0.416885 0) 20 19 1
(0.716411 0.141795 0.141795 0) 21 20 1
(0.723376 0.138312 0.138312 0) 17 17 2
(0.173988 0.413006 0 0.413006) 17 16 2
(0.513617 0.243191 0 0.243191) 17 17 1
(0.575925 0.212037 0.212037 0) 19 19 2
(0.74049 0.129755 0.129755 0) 20 20 2
(0.236282 0.381859 0 0.381859) 16 16 1
(0.957548 0.021226 0.021226 0) 18 17 1
(0.278895 0.360552 0 0.360552) 17 17 1
(0.378451 0.310774 0.310774 0) 20 19 1
(0.0621162 0.468942 0 0.468942) 18 18 1
(0.800577 0.0997117 0 0.0997117) 20 20 1
(0.13067 0.434665 0.434665 0) 18 17 1
(0.234693 0.382654 0.382654 0) 17 17 2
(0.293328 0.353336 0 0.353336) 18 17 2
(0.560666 0.219667 0.219667 0) 20 19 1
(0.493984 0.253008 0 0.253008) 17 17 1
(0.306914 0.346543 0 0.346543) 16 16 1
(0.47498 0.26251 0 0.26251) 18 18 1
(0.450677 0.274661 0.274661 0) 16 15 1
(0.452157 0.273922 0.273922 0) 19 18 1
(0.722017 0.138992 0.138992 0) 16 16 2
(0.516607 0.241697 0.241697 0) 20 19 1
(0.0535394 0.47323 0.47323 0) 14 14 2
(0.904728 0.0476361 0.0476361 0) 18 17 1
(0.460263 0.269869 0 0.269869) 18 17 2
(0.93991 0.0300452 0 0.0300452) 16 15 2
(0.065078 0.467461 0.467461 0) 17 17 2
(0.95297 0.0235148 0 0.0235148) 16 16 1
(0.624967 0.187516 0.187516 0) 17 17 2
(0.122144 0.438928 0 0.438928) 19 18 2
(0.239783 0.380108 0.380108 0) 18 17 1
(0.640381 0.179809 0 0.179809) 19 19 1
(0.821221 0.0893896 0.0893896 0) 17 16 1
(0.239431 0.380285 0.380285 0) 18 17 1
(0.260074 0.369963 0.369963 0) 17 17 2
(0.229539 0.385231 0 0.385231) 17 17 1
(0.116693 0.441653 0.441653 0) 20 20 2
(0.759451 0.120274 0 0.120274) 18 18 1
(0.370016 0.314992 0 0.314992) 20 19 2
(0.573643 0.213179 0 0.213179) 19 18 2
(0.178815 0.410592 0 0.410592) 16 15 2
(0.572853 0.213573 0 0.213573) 15 14 2
(0.938364 0.0308182 0 0.0308182) 20 20 1
(0.474554 0.262723 0 0.262723) 19 18 2
(0.156309 0.421846 0.421846 0) 20 19 1
(0.235027 0.382487 0 0.382487) 18 18 1
(0.402094 0.298953 0 0.298953) 19 18 2
(0.678725 0.160638 0 0.160638) 20 19 2
(0.444427 0.277787 0.277787 0) 19 19 2
(0.835067 0.0824667 0.0824667 0) 20 20 2
(0.48746 0.25627 0.25627 0) 18 18 2
(0.976208 0.0118962 0.0118962 0) 20 20 2
(0.648981 0.175509 0.175509 0) 20 19 1
(0.972572 0.0137142 0.0137142 0) 17 17 2
(0.445976 0.277012 0.277012 0) 16 16 2
(0.585621 0.20719 0 0.20719) 18 18 1
(0.186787 0.406606 0 0.406606) 20 20 1
(0.68216 0.15892 0 0.15892) 21 21 1
(0.145589 0.427205 0 0.427205) 19 18 2
(0.538312 0.230844 0 0.230844) 19 19 1
(0.330751 0.334624 0 0.334624) 16 15 2
(0.710533 0.144734 0.144734 0) 19 18 1
(0.965802 0.0170991 0 0.0170991) 18 18 1
(0.246383 0.376808 0.376808 0) 19 19 2
(0.989519 0.00524063 0 0.00524063) 19 18 2
(0.293916 0.353042 0.353042 0) 19 18 1
(0.632464 0.183768 0.183768 0) 17 17 2
(0.919131 0.0404344 0.0404344 0) 18 17 1
(0.428225 0.285888 0.285888 0) 19 19 2
(0.890125 0.0549375 0.0549375 0) 18 17 1
(0.486407 0.256796 0.256796 0) 18 18 2
(0.35081 0.324595 0.324595 0) 18 18 2
(0.156959 0.42152 0 0.42152) 19 19 1
(0.00829588 0.495852 0 0.495852) 20 19 2
(0.0938355 0.453082 0.453082 0) 18 17 1
(0.835196 0.082402 0.082402 0) 18 18 2
(0.519788 0.240106 0 0.240106) 18 18 1
(0.907896 0.0460522 0.0460522 0) 20 19 1
(0.610222 0.194889 0 0.194889) 19 19 1
(0.780949 0.109526 0 0.109526) 19 19 1
(0.777658 0.111171 0.111171 0) 19 18 1
(0.109886 0.445057 0 0.445057) 19 18 2
(0.476174 0.261913 0 0.261913) 15 15 1
(0.48707 0.256465 0 0.256465) 18 18 1
(0.958842 0.0205789 0 0.0205789) 18 18 1
(0.27283 0.363585 0.363585 0) 18 18 2
(0.592367 0.203816 0.203816 0) 20 19 1
(0.112202 0.443899 0 0.443899) 18 17 2
(0.870287 0.0648563 0.0648563 0) 17 16 1
(0.480861 0.259569 0 0.259569) 20 20 1
(0.555743 0.222129 0 0.222129) 19 19 1
(0.61868 0.19066 0.19066 0) 17 16 1
(0.626796 0.186602 0.186602 0) 19 18 1
(0.448662 0.275669 0.275669 0) 18 17 1
(0.520963 0.239519 0 0.239519) 19 18 2
(0.366984 0.316508 0 0.316508) 19 18 2
(0.107453 0.446273 0.446273 0) 20 20 2
(0.309861 0.345069 0 0.345069) 19 18 2
(0.653453 0.173274 0 0.173274) 19 18 2
(0.42176 0.28912 0 0.28912) 19 19 1
(0.516585 0.241708 0.241708 0) 18 18 2
(0.246626 0.376687 0.376687 0) 18 18 2
(0.328156 0.335922 0 0.335922) 18 18 1
(0.272115 0.363942 0 0.363942) 18 18 1
(0.088175 0.455912 0 0.455912) 21 20 2
(0.906585 0.0467076 0.0467076 0) 17 17 2
(0.412407 0.293796 0 0.293796) 18 18 1
(0.323826 0.338087 0 0.338087) 18 18 1
(0.342611 0.328695 0 0.328695) 19 18 2
(0.410641 0.294679 0 0.294679) 19 18 2
(0.364537 0.317732 0.317732 0) 21 20 1
(0.855797 0.0721016 0 0.0721016) 21 20 2
(0.0326813 0.483659 0.483659 0) 17 17 2
(0.00630364 0.496848 0.496848 0) 21 20 1
(0.622885 0.188558 0 0.188558) 20 19 2
(0.635101 0.18245 0 0.18245) 19 18 2
(0.448385 0.275808 0 0.275808) 17 17 1
(0.837664 0.0811682 0.0811682 0) 20 19 1
(0.253386 0.373307 0 0.373307) 19 18 2
(0.849853 0.0750735 0.0750735 0) 19 18 1
(0.404679 0.29766 0.29766 0) 18 17 1
(0.444057 0.277971 0 0.277971) 19 18 2
(0.276641 0.361679 0.361679 0) 16 15 1
(0.145773 0.427114 0.427114 0) 19 19 2
(0.113748 0.443126 0.443126 0) 22 21 1
(0.572761 0.213619 0.213619 0) 18 18 2
(0.752318 0.123841 0 0.123841) 18 17 2
(0.00509939 0.49745 0 0.49745) 20 19 2
(0.858722 0.0706392 0.0706392 0) 20 20 2
(0.517352 0.241324 0 0.241324) 20 19 2
(0.0968807 0.45156 0.45156 0) 20 20 2
(0.683813 0.158094 0.158094 0) 17 17 2
(0.11 0.445 0.445 0) 17 17 2
(0.274423 0.362788 0 0.362788) 20 20 1
(0.234153 0.382924 0 0.382924) 20 19 2
(0.685869 0.157065 0 0.157065) 19 19 1
(0.931835 0.0340825 0 0.0340825) 18 18 1
(0.0188065 0.490597 0.490597 0) 20 20 2
(0.185723 0.407138 0 0.407138) 18 18 1
(0.370137 0.314932 0 0.314932) 16 16 1
(0.442705 0.278648 0 0.278648) 18 17 2
(0.219586 0.390207 0.390207 0) 19 18 1
(0.42363 0.288185 0 0.288185) 18 17 2
(0.231446 0.384277 0 0.384277) 20 19 2
(0.0242311 0.487884 0 0.487884) 17 17 1
(0.476998 0.261501 0 0.261501) 18 18 1
(0.38428 0.30786 0 0.30786) 18 18 1
(0.698285 0.150857 0 0.150857) 20 20 1
(0.89943 0.0502849 0 0.0502849) 19 19 1
(0.515693 0.242153 0.242153 0) 20 19 1
(0.87231 0.0638448 0.0638448 0) 20 19 1
(0.481944 0.259028 0 0.259028) 17 17 1
(0.171784 0.414108 0 0.414108) 19 18 2
(0.827631 0.0861847 0 0.0861847) 18 17 2
(0.944368 0.027816 0.027816 0) 21 21 2
(0.785898 0.107051 0.107051 0) 20 19 1
(0.599559 0.20022 0 0.20022) 18 17 2
(0.430517 0.284742 0.284742 0) 19 18 1
(0.626733 0.186633 0 0.186633) 18 17 2
(0.599085 0.200457 0.200457 0) 19 18 1
(0.066633 0.466683 0 0.466683) 20 19 2
(0.312347 0.343827 0 0.343827) 20 20 1
(0.0671269 0.466437 0 0.466437) 20 19 2
(0.608718 0.195641 0 0.195641) 18 18 1
(0.170318 0.414841 0.414841 0) 18 18 2
(0.894111 0.0529444 0 0.0529444) 20 19 2
(0.888481 0.0557597 0 0.0557597) 15 15 1
(0.0318268 0.484087 0 0.484087) 19 18 2
(0.55111 0.224445 0.224445 0) 19 19 2
(0.560836 0.219582 0 0.219582) 22 21 2
(0.339547 0.330226 0.330226 0) 18 18 2
(0.17956 0.41022 0.41022 0) 19 19 2
(0.163392 0.418304 0.418304 0) 17 17 2
(0.598962 0.200519 0 0.200519) 19 18 2
(0.0839133 0.458043 0 0.458043) 19 18 2
(0.0498831 0.475058 0 0.475058) 19 19 1
(0.0493079 0.475346 0.475346 0) 20 19 1
(0.285812 0.357094 0 0.357094) 19 19 1
(0.609084 0.195458 0 0.195458) 21 21 1
(0.862826 0.0685872 0 0.0685872) 20 19 2
(0.984459 0.00777051 0 0.00777051) 20 19 2
(0.0710181 0.464491 0.464491 0) 21 20 1
(0.0544914 0.472754 0.472754 0) 19 18 1
(0.596829 0.201586 0.201586 0) 19 19 2
(0.0844162 0.457792 0.457792 0) 21 21 2
(0.112534 0.443733 0.443733 0) 18 18 2
(0.517958 0.241021 0.241021 0) 21 20 1
(0.930435 0.0347825 0.0347825 0) 19 19 2
(0.352363 0.323819 0 0.323819) 22 21 2
(0.206884 0.396558 0 0.396558) 20 20 1
(0.875344 0.0623282 0.0623282 0) 18 18 2
(0.871779 0.0641104 0 0.0641104) 19 19 1
(0.8843 0.0578502 0 0.0578502) 18 17 2
(0.858491 0.0707544 0 0.0707544) 20 20 1
(0.986726 0.0066369 0 0.0066369) 19 19 1
(0.0223814 0.488809 0 0.488809) 21 20 2
(0.0505618 0.474719 0.474719 0) 18 18 2
(0.489429 0.255285 0.255285 0) 20 19 1
(0.574901 0.21255 0 0.21255) 21 20 2
(0.413818 0.293091 0.293091 0) 20 19 1
(0.0786405 0.46068 0.46068 0) 22 21 1
(0.0702863 0.464857 0.464857 0) 20 19 1
(0.261475 0.369262 0 0.369262) 18 17 2
(0.741901 0.12905 0.12905 0) 19 18 1
(0.446817 0.276591 0.276591 0) 20 19 1
(0.641774 0.179113 0 0.179113) 20 20 1
(0.526902 0.236549 0 0.236549) 19 19 1
(0.771419 0.114291 0 0.114291) 19 18 2
(0.800934 0.0995329 0 0.0995329) 20 20 1
(0.465154 0.267423 0 0.267423) 17 16 2
(0.401276 0.299362 0.299362 0) 21 21 2
(0.929296 0.0353522 0 0.0353522) 20 19 2
(0.631986 0.184007 0.184007 0) 20 19 1
(0.696433 0.151783 0.151783 0) 20 20 2
(0.079387 0.460306 0.460306 0) 20 20 2
(0.920432 0.039784 0.039784 0) 18 17 1
(0.00766957 0.496165 0.496165 0) 18 17 1
(0.264115 0.367942 0.367942 0) 19 19 2
(0.044841 0.47758 0.47758 0) 20 19 1
(0.833477 0.0832613 0 0.0832613) 20 20 1
(0.44882 0.27559 0 0.27559) 21 20 2
(0.307255 0.346372 0.346372 0) 21 20 1
(0.312941 0.343529 0 0.343529) 20 19 2
(0.272676 0.363662 0.363662 0) 18 18 2
(0.897831 0.0510843 0 0.0510843) 19 18 2
(0.0552474 0.472376 0 0.472376) 19 19 1
(0.7209 0.13955 0 0.13955) 18 17 2
(0.351052 0.324474 0.324474 0) 20 20 2
(0.461089 0.269456 0 0.269456) 15 15 1
(0.150084 0.424958 0.424958 0) 16 16 2
(0.347612 0.326194 0 0.326194) 17 17 1
(0.159398 0.420301 0.420301 0) 17 17 2
(0.194108 0.402946 0.402946 0) 18 18 2
(0.379933 0.310034 0.310034 0) 21 20 1
(0.773425 0.113287 0 0.113287) 20 20 1
(0.200778 0.399611 0.399611 0) 20 19 1
(0.289725 0.355138 0 0.355138) 19 19 1
(0.825854 0.0870732 0.0870732 0) 19 18 1
(0.674221 0.16289 0 0.16289) 18 18 1
(0.0626111 0.468694 0.468694 0) 20 20 2
(0.131284 0.434358 0.434358 0) 20 19 1
(0.33122 0.33439 0.33439 0) 19 19 2
(0.732364 0.133818 0.133818 0) 17 16 1
(0.616854 0.191573 0.191573 0) 18 18 2
(0.435567 0.282217 0 0.282217) 22 21 2
(0.197366 0.401317 0.401317 0) 21 20 1
(0.755001 0.1225 0.1225 0) 18 17 1
(0.996125 0.0019373 0.0019373 0) 22 21 1
(0.974802 0.0125992 0 0.0125992) 20 20 1
(0.316112 0.341944 0 0.341944) 19 19 1
(0.43186 0.28407 0.28407 0) 20 20 2
(0.898036 0.0509822 0 0.0509822) 20 19 2
(0.0674036 0.466298 0 0.466298) 19 18 2
(0.968433 0.0157833 0.0157833 0) 21 20 1
(0.455351 0.272324 0.272324 0) 20 19 1
(0.15399 0.423005 0 0.423005) 21 20 2
(0.591487 0.204256 0 0.204256) 18 17 2
(0.147457 0.426272 0.426272 0) 20 19 1
(0.631601 0.184199 0.184199 0) 20 20 2
(0.117607 0.441197 0.441197 0) 20 19 1
(0.572342 0.213829 0.213829 0) 20 20 2
(0.802471 0.0987646 0.0987646 0) 17 17 2
(0.662393 0.168804 0 0.168804) 20 19 2
(0.0949866 0.452507 0 0.452507) 21 20 2
(0.668977 0.165512 0 0.165512) 19 18 2
(0.157836 0.421082 0.421082 0) 19 19 2
(0.477516 0.261242 0 0.261242) 20 19 2
(0.773858 0.113071 0 0.113071) 21 21 1
(0.00779872 0.496101 0.496101 0) 20 19 1
(0.929984 0.0350078 0 0.0350078) 23 22 2
(0.403331 0.298335 0.298335 0) 17 17 2
(0.459091 0.270454 0.270454 0) 22 22 2
(0.0289932 0.485503 0.485503 0) 22 21 1
(0.811391 0.0943047 0 0.0943047) 20 19 2
(0.949896 0.0250521 0.0250521 0) 19 18 1
(0.250399 0.374801 0 0.374801) 20 20 1
(0.652244 0.173878 0 0.173878) 20 20 1
(0.267859 0.36607 0 0.36607) 21 21 1
(0.303193 0.348404 0.348404 0) 21 21 2
(0.205504 0.397248 0.397248 0) 20 19 1
(0.174831 0.412584 0 0.412584) 20 19 2
(0.00500937 0.497495 0 0.497495) 22 21 2
(0.379005 0.310497 0 0.310497) 23 22 2
(0.80216 0.0989202 0 0.0989202) 20 20 1
(0.61451 0.192745 0.192745 0) 21 21 2
(0.724242 0.137879 0 0.137879) 20 20 1
(0.470668 0.264666 0 0.264666) 19 19 1
(0.750948 0.124526 0 0.124526) 18 17 2
(0.956813 0.0215937 0 0.0215937) 21 21 1
(0.734918 0.132541 0 0.132541) 20 20 1
(0.469215 0.265393 0 0.265393) 20 19 2
(0.458483 0.270759 0 0.270759) 18 18 1
(0.18611 0.406945 0 0.406945) 20 20 1
(0.230447 0.384777 0 0.384777) 20 20 1
(0.788979 0.10551 0 0.10551) 17 16 2
(0.053196 0.473402 0 0.473402) 21 20 2
(0.314672 0.342664 0.342664 0) 21 20 1
(0.0290662 0.485467 0 0.485467) 19 19 1
(0.632754 0.183623 0 0.183623) 21 20 2
(0.300763 0.349619 0.349619 0) 18 17 1
(0.0585445 0.470728 0.470728 0) 18 17 1
(0.978163 0.0109183 0 0.0109183) 19 19 1
(0.31918 0.34041 0.34041 0) 21 20 1
(0.851203 0.0743983 0.0743983 0) 19 18 1
(0.91082 0.0445898 0 0.0445898) 20 20 1
(0.898666 0.0506668 0.0506668 0) 19 19 2
(0.732232 0.133884 0.133884 0) 20 20 2
(0.530738 0.234631 0.234631 0) 19 19 2
(0.653165 0.173418 0.173418 0) 21 21 2
(0.26658 0.36671 0.36671 0) 18 18 2
(0.899713 0.0501436 0.0501436 0) 20 19 1
(0.00823335 0.495883 0.495883 0) 17 17 2
(0.0144843 0.492758 0.492758 0) 21 20 1
(0.114299 0.442851 0 0.442851) 19 18 2
(0.523631 0.238184 0.238184 0) 18 17 1
(0.389882 0.305059 0.305059 0) 21 20 1
(0.875819 0.0620906 0.0620906 0) 21 20 1
(0.480975 0.259513 0.259513 0) 22 21 1
(0.426329 0.286836 0 0.286836) 19 19 1
(0.281854 0.359073 0 0.359073) 20 19 2
(0.118495 0.440753 0.440753 0) 18 18 2
(0.355609 0.322196 0.322196 0) 18 17 1
(0.181972 0.409014 0 0.409014) 19 19 1
(0.223598 0.388201 0.388201 0) 22 21 1
(0.28383 0.358085 0 0.358085) 17 16 2
(0.170163 0.414919 0.414919 0) 19 19 2
(0.199501 0.400249 0.400249 0) 22 21 1
(0.0863462 0.456827 0.456827 0) 19 19 2
(0.436134 0.281933 0 0.281933) 20 20 1
(0.83873 0.080635 0 0.080635) 22 21 2
(0.39802 0.30099 0.30099 0) 22 21 1
(0.454201 0.272899 0.272899 0) 19 18 1
(0.644286 0.177857 0.177857 0) 22 21 1
(0.559023 0.220489 0 0.220489) 23 23 1
(0.630276 0.184862 0.184862 0) 21 21 2
(0.0193555 0.490322 0.490322 0) 22 21 1
(0.116171 0.441915 0.441915 0) 21 20 1
(0.813186 0.0934069 0.0934069 0) 20 20 2
(0.631879 0.18406 0.18406 0) 20 20 2
(0.925538 0.0372312 0 0.0372312) 23 22 2
(0.159898 0.420051 0 0.420051) 21 20 2
(0.999052 0.00047396 0.00047396 0) 20 20 2
(0.992591 0.00370442 0.00370442 0) 22 21 1
(0.627588 0.186206 0.186206 0) 20 20 2
(0.345689 0.327156 0.327156 0) 23 22 1
(0.301866 0.349067 0 0.349067) 20 19 2
(0.214152 0.392924 0 0.392924) 19 18 2
(0.531796 0.234102 0 0.234102) 21 21 1
(0.267504 0.366248 0.366248 0) 21 20 1
(0.524582 0.237709 0.237709 0) 20 20 2
(0.00703593 0.496482 0.496482 0) 21 21 2
(0.435298 0.282351 0.282351 0) 19 19 2
(0.629491 0.185254 0 0.185254) 22 21 2
(0.127496 0.436252 0.436252 0) 21 21 2
(0.893644 0.0531781 0.0531781 0) 20 20 2
(0.725175 0.137412 0.137412 0) 18 18 2
(0.431232 0.284384 0 0.284384) 22 21 2
(0.363634 0.318183 0 0.318183) 19 19 1
(0.385018 0.307491 0.307491 0) 19 18 1
(0.0328469 0.483577 0.483577 0) 18 18 2
(0.377094 0.311453 0.311453 0) 18 17 1
(0.616591 0.191704 0.191704 0) 19 18 1
(0.283851 0.358075 0 0.358075) 20 20 1
(0.833678 0.0831612 0 0.0831612) 18 18 1
(0.847107 0.0764466 0.0764466 0) 21 20 1
(0.395775 0.302113 0.302113 0) 20 20 2
(0.205204 0.397398 0 0.397398) 20 19 2
(0.0676289 0.466186 0 0.466186) 22 22 1
(0.87453 0.0627351 0 0.0627351) 19 19 1
(0.582738 0.208631 0 0.208631) 22 22 1
(0.912046 0.0439768 0 0.0439768) 18 17 2
(0.759107 0.120447 0.120447 0) 21 20 1
(0.20547 0.397265 0 0.397265) 19 19 1
(0.585321 0.20734 0 0.20734) 20 20 1
(0.290281 0.354859 0 0.354859) 23 22 2
(0.977237 0.0113817 0.0113817 0) 19 19 2
(0.162603 0.418698 0.418698 0) 20 19 1
(0.444103 0.277948 0.277948 0) 21 20 1
(0.437738 0.281131 0 0.281131) 17 16 2
(0.527553 0.236224 0 0.236224) 21 20 2
(0.961689 0.0191555 0 0.0191555) 21 21 1
(0.273215 0.363393 0.363393 0) 22 22 2
(0.811664 0.0941682 0 0.0941682) 19 19 1
(0.151062 0.424469 0.424469 0) 21 20 1
(0.960065 0.0199676 0 0.0199676) 20 19 2
(0.591387 0.204306 0.204306 0) 21 20 1
(0.206998 0.396501 0.396501 0) 21 20 1
(0.504604 0.247698 0.247698 0) 18 18 2
(0.101612 0.449194 0 0.449194) 19 19 1
(0.72699 0.136505 0.136505 0) 21 21 2
(0.816515 0.0917427 0 0.0917427) 21 20 2
(0.956392 0.0218038 0.0218038 0) 22 21 1
(0.0214212 0.489289 0 0.489289) 22 21 2
(0.173673 0.413163 0 0.413163) 18 18 1
(0.955735 0.0221326 0.0221326 0) 22 21 1
(0.356095 0.321953 0.321953 0) 20 20 2
(0.681362 0.159319 0 0.159319) 22 22 1
(0.289486 0.355257 0.355257 0) 21 20 1
(0.56908 0.21546 0 0.21546) 21 20 2
(0.94241 0.0287949 0.0287949 0) 21 20 1
(0.67636 0.16182 0 0.16182) 19 18 2
(0.913511 0.0432444 0 0.0432444) 21 20 2
(0.242836 0.378582 0.378582 0) 22 21 1
(0.0951618 0.452419 0 0.452419) 21 21 1
(0.0368916 0.481554 0 0.481554) 20 20 1
(0.73003 0.134985 0.134985 0) 20 19 1
(0.751725 0.124137 0.124137 0) 20 20 2
(0.0519171 0.474041 0 0.474041) 23 22 2
(0.929078 0.035461 0.035461 0) 23 22 1
(0.531757 0.234122 0 0.234122) 20 19 2
(0.677504 0.161248 0 0.161248) 19 18 2
(0.730072 0.134964 0 0.134964) 21 21 1
(0.875089 0.0624556 0 0.0624556) 21 21 1
(0.641215 0.179393 0 0.179393) 21 20 2
(0.142859 0.428571 0.428571 0) 18 18 2
(0.47406 0.26297 0.26297 0) 22 21 1
(0.9285 0.0357498 0 0.0357498) 21 20 2
(0.425261 0.28737 0 0.28737) 23 23 1
(0.883391 0.0583045 0 0.0583045) 18 17 2
(0.692738 0.153631 0 0.153631) 20 19 2
(0.223713 0.388143 0 0.388143) 23 22 2
(0.570087 0.214956 0 0.214956) 20 19 2
(0.038423 0.480788 0 0.480788) 20 19 2
(0.589713 0.205144 0 0.205144) 22 21 2
(0.980333 0.00983348 0 0.00983348) 20 19 2
(0.821571 0.0892144 0 0.0892144) 21 21 1
(0.95121 0.0243949 0.0243949 0) 21 21 2
(0.499913 0.250043 0.250043 0) 20 19 1
(0.458267 0.270867 0.270867 0) 21 21 2
(0.925856 0.0370718 0.0370718 0) 21 20 1
(0.858343 0.0708286 0.0708286 0) 19 19 2
(0.276904 0.361548 0 0.361548) 21 20 2
(0.7708 0.1146 0 0.1146) 22 21 2
(0.310408 0.344796 0.344796 0) 22 22 2
(0.356639 0.32168 0 0.32168) 21 20 2
(0.262066 0.368967 0.368967 0) 20 20 2
(0.699286 0.150357 0.150357 0) 19 18 1
(0.724918 0.137541 0 0.137541) 18 18 1
(0.40889 0.295555 0.295555 0) 21 20 1
(0.645586 0.177207 0.177207 0) 19 18 1
(0.0463664 0.476817 0.476817 0) 19 19 2
(0.46014 0.26993 0 0.26993) 20 19 2
(0.0121473 0.493926 0 0.493926) 20 20 1
(0.793676 0.103162 0.103162 0) 20 19 1
(0.997226 0.00138693 0 0.00138693) 21 21 1
(0.80436 0.0978201 0.0978201 0) 20 20 2
(0.027476 0.486262 0 0.486262) 19 18 2
(0.309528 0.345236 0.345236 0) 22 21 1
(0.591322 0.204339 0.204339 0) 20 19 1
(0.881115 0.0594424 0 0.0594424) 20 20 1
(0.604477 0.197761 0 0.197761) 22 21 2
(0.307402 0.346299 0 0.346299) 21 21 1
(0.834575 0.0827127 0.0827127 0) 21 20 1
(0.143754 0.428123 0 0.428123) 20 20 1
(0.780922 0.109539 0.109539 0) 24 24 2
(0.968731 0.0156343 0.0156343 0) 19 18 1
(0.718797 0.140601 0.140601 0) 22 22 2
(0.495277 0.252362 0 0.252362) 21 20 2
(0.197266 0.401367 0 0.401367) 20 20 1
(0.302206 0.348897 0.348897 0) 20 20 2
(0.00862056 0.49569 0.49569 0) 20 19 1
(0.0351742 0.482413 0 0.482413) 21 20 2
(0.770739 0.114631 0 0.114631) 22 22 1
(0.374393 0.312803 0 0.312803) 18 18 1
(0.582384 0.208808 0.208808 0) 20 19 1
(0.245816 0.377092 0.377092 0) 24 23 1
(0.628422 0.185789 0.185789 0) 22 21 1
(0.402548 0.298726 0.298726 0) 19 19 2
(0.63794 0.18103 0.18103 0) 19 19 2
(0.192418 0.403791 0 0.403791) 20 19 2
(0.22676 0.38662 0 0.38662) 22 22 1
(0.620454 0.189773 0 0.189773) 21 20 2
(0.726198 0.136901 0.136901 0) 21 21 2
(0.832915 0.0835427 0.0835427 0) 23 23 2
(0.938829 0.0305854 0.0305854 0) 23 22 1
(0.896614 0.051693 0 0.051693) 23 22 2
(0.307948 0.346026 0.346026 0) 21 20 1
(0.481201 0.259399 0 0.259399) 22 22 1
(0.695944 0.152028 0.152028 0) 21 20 1
(0.407679 0.29616 0.29616 0) 21 21 2
(0.0654542 0.467273 0 0.467273) 22 22 1
(0.678632 0.160684 0 0.160684) 21 21 1
(0.00349496 0.498253 0 0.498253) 21 20 2
(0.400019 0.29999 0 0.29999) 23 22 2
(0.0166789 0.491661 0 0.491661) 22 21 2
(0.2691 0.36545 0.36545 0) 20 19 1
(0.223663 0.388169 0 0.388169) 20 19 2
(0.902211 0.0488947 0.0488947 0) 21 20 1
(0.057617 0.471191 0 0.471191) 22 22 1
(0.401795 0.299103 0.299103 0) 19 19 2
(0.452088 0.273956 0.273956 0) 21 20 1
(0.801466 0.0992672 0.0992672 0) 21 21 2
(0.0451863 0.477407 0 0.477407) 21 20 2
(0.100038 0.449981 0.449981 0) 19 19 2
(0.258748 0.370626 0 0.370626) 22 21 2
(0.216266 0.391867 0 0.391867) 21 21 1
(0.743749 0.128125 0 0.128125) 20 19 2
(0.656985 0.171508 0.171508 0) 20 19 1
(0.125889 0.437056 0.437056 0) 19 18 1
(0.945004 0.027498 0 0.027498) 21 21 1
(0.876187 0.0619067 0 0.0619067) 19 19 1
(0.897437 0.0512813 0 0.0512813) 21 21 1
(0.985725 0.00713729 0.00713729 0) 22 22 2
(0.154739 0.42263 0 0.42263) 21 21 1
(0.445143 0.277428 0 0.277428) 22 21 2
(0.340221 0.32989 0 0.32989) 22 21 2
(0.482305 0.258848 0.258848 0) 21 21 2
(0.167212 0.416394 0.416394 0) 21 20 1
(0.442448 0.278776 0.278776 0) 20 19 1
(0.846043 0.0769785 0.0769785 0) 22 22 2
(0.742549 0.128726 0.128726 0) 21 20 1
(0.00469821 0.497651 0 0.497651) 20 20 1
(0.0228123 0.488594 0 0.488594) 23 22 2
(0.899472 0.0502641 0.0502641 0) 19 18 1
(0.107403 0.446299 0 0.446299) 21 20 2
(0.230407 0.384796 0 0.384796) 20 20 1
(0.808918 0.0955409 0 0.0955409) 18 17 2
(0.984543 0.00772838 0.00772838 0) 20 20 2
(0.598103 0.200948 0 0.200948) 24 24 1
(0.581477 0.209261 0.209261 0) 22 22 2
(0.538938 0.230531 0 0.230531) 22 21 2
(0.658725 0.170638 0.170638 0) 21 20 1
(0.210594 0.394703 0.394703 0) 22 21 1
(0.106878 0.446561 0 0.446561) 21 21 1
(0.737992 0.131004 0.131004 0) 20 20 2
(0.0945186 0.452741 0.452741 0) 22 21 1
(0.954431 0.0227846 0 0.0227846) 22 21 2
(0.678513 0.160743 0 0.160743) 21 21 1
(0.752332 0.123834 0.123834 0) 20 19 1
(0.31153 0.344235 0 0.344235) 19 19 1
(0.097598 0.451201 0 0.451201) 23 23 1
(0.210177 0.394911 0.394911 0) 19 19 2
(0.352682 0.323659 0.323659 0) 22 21 1
(0.391414 0.304293 0.304293 0) 22 21 1
(0.00890432 0.495548 0.495548 0) 20 19 1
(0.788157 0.105921 0 0.105921) 20 20 1
(0.707254 0.146373 0 0.146373) 19 19 1
(0.825073 0.0874636 0 0.0874636) 20 20 1
(0.206285 0.396857 0 0.396857) 21 21 1
(0.828269 0.0858656 0 0.0858656) 19 19 1
(0.81644 0.09178 0.09178 0) 21 21 2