/*--------------------------------*- C++ -*----------------------------------*\
  =========                 |
  \\      /  F ield         | OpenFOAM: The Open Source CFD Toolbox
   \\    /   O peration     | Website:  https://openfoam.org
    \\  /    A nd           | Version:  7
     \\/     M anipulation  |
\*---------------------------------------------------------------------------*/
FoamFile
{
    version     2.0;
    format      ascii;
    class       Cloud<dsmcParcel>;
    location    "0.00324/lagrangian/dsmc";
    object      positions;
}
// * * * * * * * * * * * * * * * * * * * * * * * * * * * * * * * * * * * * * //

12146
(
(0.0104266 0.494787 0 0.494787) 20 19 2
(0.316554 0.341723 0 0.341723) 17 17 1
(0.805129 0.0974355 0 0.0974355) 19 18 2
(0.177182 0.411409 0.411409 0) 17 17 2
(0.948495 0.0257526 0 0.0257526) 17 17 1
(0.57326 0.21337 0 0.21337) 17 17 1
(0.776289 0.111855 0 0.111855) 16 16 1
(0.417661 0.29117 0.29117 0) 19 19 2
(0.302662 0.348669 0 0.348669) 14 14 1
(0.192929 0.403536 0.403536 0) 18 18 2
(0.89437 0.0528149 0.0528149 0) 17 17 2
(0.252985 0.373507 0.373507 0) 19 19 2
(0.685132 0.157434 0.157434 0) 16 15 1
(0.589714 0.205143 0 0.205143) 15 14 2
(0.17056 0.41472 0 0.41472) 19 18 2
(0.0891983 0.455401 0.455401 0) 19 19 2
(0.394591 0.302705 0.302705 0) 21 20 1
(0.727902 0.136049 0 0.136049) 18 18 1
(0.449767 0.275117 0.275117 0) 18 18 2
(0.845512 0.0772438 0.0772438 0) 18 18 2
(0.97911 0.0104449 0.0104449 0) 17 16 1
(0.572519 0.213741 0.213741 0) 16 16 2
(0.00290016 0.49855 0 0.49855) 14 14 1
(0.188914 0.405543 0.405543 0) 21 20 1
(0.74654 0.12673 0.12673 0) 18 17 1
(0.922824 0.0385878 0 0.0385878) 18 18 1
(0.292334 0.353833 0.353833 0) 17 16 1
(0.824431 0.0877847 0 0.0877847) 17 17 1
(0.598415 0.200793 0.200793 0) 15 14 1
(0.0132288 0.493386 0 0.493386) 18 18 1
(0.797995 0.101002 0.101002 0) 18 18 2
(0.744609 0.127695 0.127695 0) 21 21 2
(0.366965 0.316517 0 0.316517) 14 13 2
(0.758734 0.120633 0 0.120633) 19 18 2
(0.272532 0.363734 0 0.363734) 17 16 2
(0.598092 0.200954 0.200954 0) 17 17 2
(0.987149 0.00642549 0 0.00642549) 16 15 2
(0.214874 0.392563 0.392563 0) 18 17 1
(0.8441 0.0779499 0 0.0779499) 18 17 2
(0.324092 0.337954 0.337954 0) 13 13 2
(0.294376 0.352812 0 0.352812) 18 18 1
(0.0503338 0.474833 0.474833 0) 19 19 2
(0.968657 0.0156713 0.0156713 0) 18 18 2
(0.322959 0.338521 0.338521 0) 21 20 1
(0.180106 0.409947 0.409947 0) 21 20 1
(0.811375 0.0943123 0.0943123 0) 16 16 2
(0.64603 0.176985 0 0.176985) 18 18 1
(0.1387 0.43065 0.43065 0) 17 17 2
(0.93457 0.0327149 0.0327149 0) 16 15 1
(0.305612 0.347194 0.347194 0) 18 17 1
(0.176733 0.411634 0.411634 0) 19 19 2
(0.619904 0.190048 0.190048 0) 17 16 1
(0.151477 0.424261 0 0.424261) 19 19 1
(0.504767 0.247617 0 0.247617) 18 18 1
(0.261628 0.369186 0.369186 0) 18 17 1
(0.440099 0.27995 0 0.27995) 16 16 1
(0.692096 0.153952 0 0.153952) 17 17 1
(0.861577 0.0692113 0 0.0692113) 20 19 2
(0.443047 0.278477 0.278477 0) 13 13 2
(0.67501 0.162495 0 0.162495) 16 16 1
(0.63297 0.183515 0.183515 0) 20 19 1
(0.316419 0.34179 0.34179 0) 21 20 1
(0.142164 0.428918 0 0.428918) 19 18 2
(0.583477 0.208261 0.208261 0) 18 17 1
(0.780669 0.109665 0.109665 0) 17 16 1
(0.85241 0.073795 0.073795 0) 19 19 2
(0.212373 0.393814 0 0.393814) 17 17 1
(0.227891 0.386055 0.386055 0) 18 18 2
(0.610291 0.194854 0 0.194854) 15 15 1
(0.24934 0.37533 0.37533 0) 18 17 1
(0.722768 0.138616 0.138616 0) 18 18 2
(0.914699 0.0426507 0 0.0426507) 18 17 2
(0.754603 0.122699 0.122699 0) 17 16 1
(0.805803 0.0970986 0 0.0970986) 18 17 2
(0.879248 0.0603762 0 0.0603762) 19 18 2
(0.849296 0.0753518 0.0753518 0) 20 19 1
(0.932361 0.0338197 0 0.0338197) 19 19 1
(0.0474032 0.476298 0.476298 0) 16 16 2
(0.592764 0.203618 0 0.203618) 17 16 2
(0.14641 0.426795 0.426795 0) 17 17 2
(0.912364 0.0438182 0.0438182 0) 17 17 2
(0.37524 0.31238 0 0.31238) 19 18 2
(0.654333 0.172834 0 0.172834) 15 15 1
(0.749073 0.125464 0 0.125464) 17 17 1
(0.993644 0.00317821 0.00317821 0) 17 16 1
(0.830131 0.0849343 0.0849343 0) 18 18 2
(0.194191 0.402905 0 0.402905) 19 18 2
(0.655723 0.172138 0 0.172138) 19 18 2
(0.860633 0.0696833 0.0696833 0) 17 16 1
(0.313414 0.343293 0.343293 0) 17 17 2
(0.244062 0.377969 0.377969 0) 18 17 1
(0.287838 0.356081 0.356081 0) 17 17 2
(0.380573 0.309713 0.309713 0) 17 17 2
(0.860244 0.069878 0 0.069878) 18 17 2
(0.980713 0.00964339 0 0.00964339) 17 16 2
(0.930904 0.0345478 0.0345478 0) 21 21 2
(0.769551 0.115225 0.115225 0) 15 15 2
(0.732571 0.133714 0.133714 0) 19 18 1
(0.425002 0.287499 0 0.287499) 16 15 2
(0.354715 0.322643 0.322643 0) 21 20 1
(0.328583 0.335709 0 0.335709) 19 19 1
(0.105664 0.447168 0.447168 0) 19 19 2
(0.411051 0.294474 0.294474 0) 18 18 2
(0.792465 0.103768 0.103768 0) 19 18 1
(0.306965 0.346518 0 0.346518) 21 20 2
(0.124525 0.437737 0.437737 0) 19 18 1
(0.643047 0.178477 0 0.178477) 17 17 1
(0.0761255 0.461937 0 0.461937) 20 19 2
(0.175611 0.412195 0.412195 0) 19 18 1
(0.596999 0.2015 0.2015 0) 17 17 2
(0.635361 0.182319 0.182319 0) 19 19 2
(0.613353 0.193323 0 0.193323) 19 19 1
(0.315783 0.342108 0.342108 0) 16 15 1
(0.236078 0.381961 0 0.381961) 17 16 2
(0.328216 0.335892 0 0.335892) 20 20 1
(0.283911 0.358045 0.358045 0) 19 18 1
(0.208354 0.395823 0 0.395823) 19 18 2
(0.624589 0.187705 0 0.187705) 15 14 2
(0.911941 0.0440294 0 0.0440294) 20 20 1
(0.107558 0.446221 0 0.446221) 20 20 1
(0.289552 0.355224 0.355224 0) 18 17 1
(0.880612 0.0596942 0 0.0596942) 21 21 1
(0.465395 0.267303 0.267303 0) 18 18 2
(0.131801 0.434099 0 0.434099) 18 17 2
(0.0884542 0.455773 0.455773 0) 21 20 1
(0.0569086 0.471546 0.471546 0) 18 17 1
(0.0856553 0.457172 0 0.457172) 18 18 1
(0.295642 0.352179 0 0.352179) 18 18 1
(0.488966 0.255517 0.255517 0) 16 15 1
(0.315607 0.342196 0.342196 0) 17 16 1
(0.994865 0.00256734 0.00256734 0) 19 18 1
(0.101182 0.449409 0 0.449409) 17 17 1
(0.538804 0.230598 0.230598 0) 19 18 1
(0.77608 0.11196 0 0.11196) 18 17 2
(0.061739 0.46913 0.46913 0) 17 16 1
(0.956939 0.0215303 0 0.0215303) 20 20 1
(0.773985 0.113008 0.113008 0) 20 19 1
(0.0417861 0.479107 0 0.479107) 16 16 1
(0.0727215 0.463639 0 0.463639) 18 18 1
(0.320479 0.33976 0 0.33976) 19 19 1
(0.931256 0.0343722 0.0343722 0) 19 19 2
(0.677003 0.161498 0.161498 0) 20 20 2
(0.0148362 0.492582 0.492582 0) 16 16 2
(0.967083 0.0164584 0.0164584 0) 17 17 2
(0.562165 0.218917 0.218917 0) 17 17 2
(0.584651 0.207674 0 0.207674) 17 16 2
(0.00603169 0.496984 0 0.496984) 20 19 2
(0.324729 0.337636 0 0.337636) 14 13 2
(0.447576 0.276212 0 0.276212) 16 16 1
(0.899006 0.0504971 0 0.0504971) 15 15 1
(0.117502 0.441249 0.441249 0) 23 22 1
(0.810596 0.0947021 0.0947021 0) 19 19 2
(0.803234 0.0983828 0 0.0983828) 19 19 1
(0.722005 0.138997 0.138997 0) 16 16 2
(0.602081 0.198959 0.198959 0) 19 18 1
(0.807771 0.0961144 0 0.0961144) 18 17 2
(0.844411 0.0777946 0 0.0777946) 14 14 1
(0.653718 0.173141 0.173141 0) 18 18 2
(0.334263 0.332869 0 0.332869) 23 22 2
(0.857303 0.0713484 0 0.0713484) 17 17 1
(0.694675 0.152662 0.152662 0) 20 19 1
(0.313838 0.343081 0.343081 0) 15 15 2
(0.831092 0.0844542 0 0.0844542) 18 18 1
(0.587224 0.206388 0.206388 0) 18 18 2
(0.262183 0.368908 0 0.368908) 18 18 1
(0.809598 0.0952011 0.0952011 0) 20 20 2
(0.412904 0.293548 0.293548 0) 18 18 2
(0.806869 0.0965655 0.0965655 0) 17 16 1
(0.543958 0.228021 0 0.228021) 17 16 2
(0.612246 0.193877 0.193877 0) 16 15 1
(0.276064 0.361968 0.361968 0) 16 16 2
(0.328153 0.335924 0 0.335924) 19 19 1
(0.390172 0.304914 0 0.304914) 17 17 1
(0.460444 0.269778 0.269778 0) 14 14 2
(0.666293 0.166853 0.166853 0) 18 17 1
(0.660123 0.169938 0 0.169938) 16 15 2
(0.716991 0.141505 0 0.141505) 16 16 1
(0.131883 0.434058 0.434058 0) 17 16 1
(0.59462 0.20269 0 0.20269) 19 19 1
(0.62787 0.186065 0.186065 0) 21 20 1
(0.334293 0.332854 0 0.332854) 17 16 2
(0.746421 0.12679 0.12679 0) 13 12 1
(0.247398 0.376301 0 0.376301) 19 19 1
(0.752747 0.123626 0 0.123626) 17 16 2
(0.0205186 0.489741 0 0.489741) 21 20 2
(0.581991 0.209004 0 0.209004) 17 17 1
(0.556059 0.221971 0 0.221971) 17 16 2
(0.544142 0.227929 0.227929 0) 18 17 1
(0.522089 0.238955 0 0.238955) 18 18 1
(0.274196 0.362902 0 0.362902) 20 20 1
(0.666666 0.166667 0.166667 0) 19 18 1
(0.124998 0.437501 0 0.437501) 17 16 2
(0.541647 0.229177 0.229177 0) 20 19 1
(0.921428 0.0392859 0.0392859 0) 16 15 1
(0.697089 0.151455 0 0.151455) 18 17 2
(0.973078 0.0134611 0 0.0134611) 18 18 1
(0.686985 0.156507 0 0.156507) 19 18 2
(0.158423 0.420788 0.420788 0) 17 17 2
(0.416267 0.291866 0.291866 0) 19 18 1
(0.528767 0.235617 0 0.235617) 20 20 1
(0.0865005 0.45675 0 0.45675) 19 19 1
(0.616915 0.191542 0.191542 0) 17 16 1
(0.769186 0.115407 0 0.115407) 18 17 2
(0.13541 0.432295 0.432295 0) 19 18 1
(0.65129 0.174355 0 0.174355) 21 20 2
(0.376289 0.311856 0.311856 0) 17 16 1
(0.39684 0.30158 0.30158 0) 19 19 2
(0.526297 0.236851 0.236851 0) 19 19 2
(0.681534 0.159233 0 0.159233) 21 20 2
(0.813246 0.0933771 0.0933771 0) 15 15 2
(0.196186 0.401907 0.401907 0) 16 16 2
(0.0683126 0.465844 0.465844 0) 17 17 2
(0.757353 0.121324 0.121324 0) 19 18 1
(0.947497 0.0262514 0.0262514 0) 19 18 1
(0.131026 0.434487 0 0.434487) 20 19 2
(0.512569 0.243715 0 0.243715) 18 17 2
(0.0799075 0.460046 0 0.460046) 19 18 2
(0.493164 0.253418 0 0.253418) 19 18 2
(0.955685 0.0221573 0 0.0221573) 20 19 2
(0.21674 0.39163 0 0.39163) 18 17 2
(0.0995555 0.450222 0 0.450222) 15 14 2
(0.00732164 0.496339 0 0.496339) 17 16 2
(0.181349 0.409325 0.409325 0) 21 21 2
(0.235413 0.382294 0.382294 0) 19 18 1
(0.322579 0.33871 0 0.33871) 20 19 2
(0.542586 0.228707 0.228707 0) 19 18 1
(0.442702 0.278649 0 0.278649) 18 17 2
(0.558193 0.220904 0 0.220904) 18 17 2
(0.47479 0.262605 0 0.262605) 19 18 2
(0.772397 0.113801 0 0.113801) 19 18 2
(0.815847 0.0920764 0.0920764 0) 18 17 1
(0.895784 0.052108 0 0.052108) 21 20 2
(0.350448 0.324776 0 0.324776) 18 17 2
(0.306701 0.346649 0 0.346649) 19 18 2
(0.598343 0.200828 0.200828 0) 17 16 1
(0.556657 0.221672 0 0.221672) 19 18 2
(0.6494 0.1753 0.1753 0) 18 17 1
(0.875845 0.0620775 0 0.0620775) 20 20 1
(0.967084 0.016458 0 0.016458) 17 17 1
(0.263204 0.368398 0 0.368398) 18 17 2
(0.620387 0.189806 0.189806 0) 19 18 1
(0.00897004 0.495515 0.495515 0) 14 14 2
(0.213191 0.393405 0.393405 0) 20 20 2
(0.657629 0.171186 0 0.171186) 18 17 2
(0.410799 0.294601 0.294601 0) 16 15 1
(0.396082 0.301959 0.301959 0) 14 13 1
(0.848729 0.0756354 0.0756354 0) 19 18 1
(0.279903 0.360049 0 0.360049) 19 19 1
(0.830214 0.0848928 0 0.0848928) 18 17 2
(0.71553 0.142235 0.142235 0) 17 16 1
(0.921556 0.0392218 0 0.0392218) 19 19 1
(0.871633 0.0641833 0 0.0641833) 20 20 1
(0.583246 0.208377 0.208377 0) 21 21 2
(0.640716 0.179642 0.179642 0) 19 18 1
(0.923047 0.0384765 0.0384765 0) 18 17 1
(0.358088 0.320956 0 0.320956) 20 20 1
(0.819596 0.090202 0 0.090202) 17 17 1
(0.135469 0.432265 0.432265 0) 19 18 1
(0.890693 0.0546533 0 0.0546533) 18 18 1
(0.131078 0.434461 0.434461 0) 16 16 2
(0.309251 0.345375 0.345375 0) 19 19 2
(0.346257 0.326871 0 0.326871) 19 18 2
(0.851037 0.0744817 0 0.0744817) 20 19 2
(0.000883963 0.499558 0.499558 0) 19 19 2
(0.619317 0.190341 0.190341 0) 19 19 2
(0.247815 0.376093 0.376093 0) 19 19 2
(0.513545 0.243227 0.243227 0) 20 19 1
(0.917174 0.0414128 0.0414128 0) 17 16 1
(0.327748 0.336126 0 0.336126) 15 14 2
(0.845057 0.0774714 0 0.0774714) 20 19 2
(0.36721 0.316395 0 0.316395) 17 17 1
(0.688224 0.155888 0 0.155888) 20 20 1
(0.374512 0.312744 0.312744 0) 17 17 2
(0.125787 0.437106 0.437106 0) 20 20 2
(0.871863 0.0640684 0 0.0640684) 22 22 1
(0.564945 0.217528 0.217528 0) 20 20 2
(0.233048 0.383476 0 0.383476) 20 19 2
(0.682355 0.158823 0.158823 0) 19 18 1
(0.703445 0.148278 0 0.148278) 21 20 2
(0.951801 0.0240993 0.0240993 0) 19 19 2
(0.345779 0.327111 0.327111 0) 16 16 2
(0.301237 0.349381 0.349381 0) 19 18 1
(0.366436 0.316782 0.316782 0) 20 19 1
(0.433548 0.283226 0.283226 0) 19 18 1
(0.514048 0.242976 0.242976 0) 19 18 1
(0.499597 0.250202 0 0.250202) 18 17 2
(0.200252 0.399874 0.399874 0) 17 16 1
(0.981396 0.00930217 0.00930217 0) 17 16 1
(0.386851 0.306575 0 0.306575) 21 20 2
(0.956793 0.0216036 0 0.0216036) 17 16 2
(0.917841 0.0410796 0.0410796 0) 19 19 2
(0.953292 0.0233541 0.0233541 0) 19 18 1
(0.0036739 0.498163 0 0.498163) 19 18 2
(0.980813 0.00959372 0 0.00959372) 20 19 2
(0.947097 0.0264515 0.0264515 0) 18 18 2
(0.645547 0.177226 0 0.177226) 20 19 2
(0.00691069 0.496545 0 0.496545) 18 18 1
(0.915413 0.0422933 0.0422933 0) 20 20 2
(0.0294392 0.48528 0.48528 0) 20 20 2
(0.749537 0.125231 0 0.125231) 19 19 1
(0.939906 0.030047 0.030047 0) 18 17 1
(0.713091 0.143455 0.143455 0) 18 18 2
(0.975462 0.012269 0.012269 0) 16 16 2
(0.109991 0.445005 0.445005 0) 19 18 1
(0.796999 0.1015 0.1015 0) 17 17 2
(0.733407 0.133297 0 0.133297) 19 19 1
(0.421028 0.289486 0.289486 0) 21 20 1
(0.33514 0.33243 0.33243 0) 18 18 2
(0.807512 0.0962439 0.0962439 0) 18 17 1
(0.524366 0.237817 0.237817 0) 21 20 1
(0.837211 0.0813943 0.0813943 0) 20 20 2
(0.216571 0.391714 0.391714 0) 18 17 1
(0.483221 0.25839 0 0.25839) 18 18 1
(0.190701 0.40465 0.40465 0) 19 18 1
(0.888132 0.0559342 0 0.0559342) 20 20 1
(0.409493 0.295254 0 0.295254) 23 23 1
(0.0844023 0.457799 0.457799 0) 17 16 1
(0.971775 0.0141127 0 0.0141127) 20 20 1
(0.612992 0.193504 0 0.193504) 20 19 2
(0.950772 0.024614 0 0.024614) 19 19 1
(0.0208093 0.489595 0 0.489595) 20 19 2
(0.115576 0.442212 0 0.442212) 18 18 1
(0.776718 0.111641 0.111641 0) 18 18 2
(0.604248 0.197876 0 0.197876) 20 19 2
(0.599612 0.200194 0.200194 0) 17 17 2
(0.348685 0.325657 0 0.325657) 22 21 2
(0.614347 0.192826 0.192826 0) 18 17 1
(0.994272 0.00286403 0.00286403 0) 20 19 1
(0.225181 0.38741 0 0.38741) 19 18 2
(0.594809 0.202595 0 0.202595) 19 19 1
(0.84578 0.0771098 0 0.0771098) 19 18 2
(0.167961 0.416019 0.416019 0) 21 20 1
(0.531923 0.234038 0 0.234038) 18 18 1
(0.792413 0.103794 0.103794 0) 16 16 2
(0.599708 0.200146 0 0.200146) 18 17 2
(0.308031 0.345985 0.345985 0) 17 17 2
(0.632184 0.183908 0 0.183908) 19 18 2
(0.912563 0.0437183 0.0437183 0) 18 18 2
(0.453447 0.273277 0.273277 0) 21 20 1
(0.620284 0.189858 0.189858 0) 21 20 1
(0.332642 0.333679 0.333679 0) 17 16 1
(0.75962 0.12019 0.12019 0) 22 21 1
(0.733572 0.133214 0 0.133214) 20 19 2
(0.139316 0.430342 0.430342 0) 18 17 1
(0.50827 0.245865 0 0.245865) 16 16 1
(0.858626 0.0706872 0.0706872 0) 19 18 1
(0.0578421 0.471079 0.471079 0) 18 18 2
(0.0393939 0.480303 0.480303 0) 21 21 2
(0.248202 0.375899 0.375899 0) 17 17 2
(0.299532 0.350234 0 0.350234) 17 17 1
(0.421243 0.289379 0 0.289379) 17 16 2
(0.634039 0.18298 0 0.18298) 17 16 2
(0.852403 0.0737983 0.0737983 0) 18 18 2
(0.27957 0.360215 0.360215 0) 20 20 2
(0.498848 0.250576 0.250576 0) 18 17 1
(0.75584 0.12208 0 0.12208) 23 22 2
(0.290219 0.354891 0 0.354891) 23 23 1
(0.677821 0.16109 0 0.16109) 20 19 2
(0.0177406 0.49113 0.49113 0) 18 18 2
(0.80596 0.0970201 0.0970201 0) 19 19 2
(0.438742 0.280629 0.280629 0) 18 18 2
(0.457413 0.271293 0 0.271293) 20 19 2
(0.402311 0.298845 0.298845 0) 18 18 2
(0.758228 0.120886 0.120886 0) 21 20 1
(0.220906 0.389547 0.389547 0) 19 18 1
(0.819423 0.0902885 0 0.0902885) 17 16 2
(0.0109179 0.494541 0 0.494541) 15 15 1
(0.816576 0.0917122 0 0.0917122) 21 21 1
(0.827959 0.0860204 0.0860204 0) 19 18 1
(0.431132 0.284434 0 0.284434) 20 20 1
(0.680564 0.159718 0 0.159718) 22 21 2
(0.646499 0.176751 0 0.176751) 20 20 1
(0.698172 0.150914 0 0.150914) 19 18 2
(0.288565 0.355717 0 0.355717) 18 17 2
(0.621418 0.189291 0 0.189291) 21 20 2
(0.167077 0.416462 0.416462 0) 15 15 2
(0.0823637 0.458818 0.458818 0) 18 18 2
(0.115369 0.442316 0.442316 0) 19 19 2
(0.0423422 0.478829 0 0.478829) 21 21 1
(0.250452 0.374774 0.374774 0) 16 15 1
(0.898586 0.0507072 0.0507072 0) 20 20 2
(0.286195 0.356903 0 0.356903) 21 21 1
(0.405348 0.297326 0.297326 0) 18 18 2
(0.258557 0.370722 0 0.370722) 22 21 2
(0.394924 0.302538 0 0.302538) 20 20 1
(0.423866 0.288067 0.288067 0) 21 20 1
(0.474774 0.262613 0 0.262613) 20 19 2
(0.344446 0.327777 0.327777 0) 20 20 2
(0.761916 0.119042 0 0.119042) 21 21 1
(0.781443 0.109279 0 0.109279) 22 22 1
(0.170936 0.414532 0.414532 0) 19 19 2
(0.701957 0.149021 0 0.149021) 20 19 2
(0.150403 0.424798 0.424798 0) 20 20 2
(0.70975 0.145125 0.145125 0) 18 18 2
(0.780536 0.109732 0.109732 0) 22 21 1
(0.392381 0.303809 0 0.303809) 22 21 2
(0.853138 0.0734312 0.0734312 0) 18 17 1
(0.146106 0.426947 0 0.426947) 17 17 1
(0.293342 0.353329 0.353329 0) 19 18 1
(0.639874 0.180063 0 0.180063) 24 24 1
(0.917729 0.0411356 0.0411356 0) 21 20 1
(0.0270068 0.486497 0.486497 0) 19 18 1
(0.709749 0.145125 0 0.145125) 19 19 1
(0.276431 0.361785 0 0.361785) 16 16 1
(0.461491 0.269255 0.269255 0) 18 18 2
(0.386195 0.306902 0.306902 0) 19 19 2
(0.225291 0.387354 0.387354 0) 20 20 2
(0.986483 0.00675854 0.00675854 0) 19 19 2
(0.165516 0.417242 0 0.417242) 15 15 1
(0.805497 0.0972513 0.0972513 0) 20 19 1
(0.339588 0.330206 0 0.330206) 21 21 1
(0.0731199 0.46344 0 0.46344) 19 19 1
(0.225919 0.387041 0 0.387041) 18 18 1
(0.430651 0.284674 0 0.284674) 23 22 2
(0.546387 0.226806 0 0.226806) 17 16 2
(0.853074 0.0734631 0.0734631 0) 18 18 2
(0.955857 0.0220716 0.0220716 0) 20 19 1
(0.619025 0.190487 0 0.190487) 18 18 1
(0.0666921 0.466654 0.466654 0) 21 21 2
(0.739331 0.130335 0.130335 0) 17 17 2
(0.489867 0.255067 0.255067 0) 21 21 2
(0.201056 0.399472 0 0.399472) 19 18 2
(0.208639 0.395681 0 0.395681) 16 16 1
(0.632147 0.183926 0.183926 0) 20 20 2
(0.648427 0.175786 0 0.175786) 20 19 2
(0.561498 0.219251 0.219251 0) 20 20 2
(0.583073 0.208464 0.208464 0) 17 17 2
(0.94584 0.0270802 0.0270802 0) 20 20 2
(0.0712438 0.464378 0.464378 0) 17 17 2
(0.586802 0.206599 0 0.206599) 17 16 2
(0.323425 0.338287 0.338287 0) 18 17 1
(0.161549 0.419225 0.419225 0) 20 20 2
(0.831023 0.0844885 0 0.0844885) 22 21 2
(0.553471 0.223264 0.223264 0) 21 21 2
(0.93934 0.0303298 0.0303298 0) 19 19 2
(0.405875 0.297063 0 0.297063) 20 20 1
(0.454435 0.272783 0.272783 0) 20 20 2
(0.628999 0.1855 0.1855 0) 20 19 1
(0.883168 0.0584161 0.0584161 0) 21 20 1
(0.178759 0.41062 0 0.41062) 19 19 1
(0.0190205 0.49049 0.49049 0) 20 19 1
(0.509343 0.245328 0.245328 0) 22 22 2
(0.668826 0.165587 0.165587 0) 20 19 1
(0.210052 0.394974 0.394974 0) 20 20 2
(0.700171 0.149915 0 0.149915) 21 21 1
(0.287163 0.356419 0 0.356419) 22 21 2
(0.724118 0.137941 0.137941 0) 22 21 1
(0.920767 0.0396165 0.0396165 0) 20 20 2
(0.105959 0.447021 0.447021 0) 23 22 1
(0.757924 0.121038 0.121038 0) 18 18 2
(0.542214 0.228893 0 0.228893) 16 15 2
(0.445185 0.277407 0 0.277407) 21 21 1
(0.757675 0.121163 0 0.121163) 22 21 2
(0.313712 0.343144 0 0.343144) 22 21 2
(0.302173 0.348913 0 0.348913) 18 17 2
(0.0524904 0.473755 0.473755 0) 19 19 2
(0.684412 0.157794 0 0.157794) 20 20 1
(0.863184 0.0684082 0.0684082 0) 18 17 1
(0.402963 0.298519 0.298519 0) 23 22 1
(0.381908 0.309046 0.309046 0) 17 17 2
(0.480367 0.259817 0 0.259817) 17 17 1
(0.253364 0.373318 0 0.373318) 23 22 2
(0.227928 0.386036 0 0.386036) 18 18 1
(0.126989 0.436505 0 0.436505) 22 22 1
(0.241509 0.379245 0.379245 0) 19 18 1
(0.383849 0.308075 0 0.308075) 20 20 1
(0.577646 0.211177 0 0.211177) 18 18 1
(0.368754 0.315623 0.315623 0) 21 21 2
(0.444674 0.277663 0 0.277663) 19 18 2
(0.0880314 0.455984 0.455984 0) 19 19 2
(0.351756 0.324122 0.324122 0) 20 20 2
(0.468558 0.265721 0 0.265721) 22 21 2
(0.376555 0.311723 0 0.311723) 19 19 1
(0.9944 0.00280021 0 0.00280021) 22 22 1
(0.251888 0.374056 0.374056 0) 19 19 2
(0.483832 0.258084 0 0.258084) 21 21 1
(0.411561 0.294219 0 0.294219) 20 19 2
(0.414884 0.292558 0.292558 0) 20 19 1
(0.176837 0.411582 0.411582 0) 22 21 1
(0.87163 0.0641848 0.0641848 0) 17 16 1
(0.0601712 0.469914 0 0.469914) 18 18 1
(0.610858 0.194571 0 0.194571) 19 19 1
(0.675272 0.162364 0.162364 0) 22 22 2
(0.866123 0.0669384 0 0.0669384) 20 19 2
(0.501302 0.249349 0 0.249349) 15 15 1
(0.868737 0.0656317 0.0656317 0) 20 19 1
(0.670048 0.164976 0.164976 0) 19 19 2
(0.576852 0.211574 0.211574 0) 23 23 2
(0.00394105 0.498029 0.498029 0) 19 19 2
(0.161327 0.419337 0 0.419337) 17 17 1
(0.0789048 0.460548 0.460548 0) 15 15 2
(0.182077 0.408961 0.408961 0) 20 19 1
(0.225437 0.387282 0 0.387282) 19 18 2
(0.634715 0.182642 0 0.182642) 19 19 1
(0.702395 0.148802 0.148802 0) 17 17 2
(0.47832 0.26084 0 0.26084) 19 19 1
(0.527275 0.236362 0 0.236362) 21 20 2
(0.197069 0.401465 0 0.401465) 18 17 2
(0.835725 0.0821373 0 0.0821373) 21 21 1
(0.0697737 0.465113 0.465113 0) 21 20 1
(0.734877 0.132561 0.132561 0) 19 19 2
(0.375785 0.312107 0 0.312107) 24 23 2
(0.331768 0.334116 0 0.334116) 17 16 2
(0.38847 0.305765 0.305765 0) 20 20 2
(0.0376539 0.481173 0 0.481173) 21 20 2
(0.352332 0.323834 0.323834 0) 22 21 1
(0.184626 0.407687 0 0.407687) 22 21 2
(0.49743 0.251285 0 0.251285) 17 17 1
(0.404984 0.297508 0 0.297508) 20 19 2
(0.902875 0.0485627 0.0485627 0) 22 22 2
(0.376743 0.311629 0.311629 0) 21 21 2
(0.298866 0.350567 0 0.350567) 22 21 2
(0.831119 0.0844406 0.0844406 0) 21 21 2
(0.0650474 0.467476 0.467476 0) 18 18 2
(0.124325 0.437838 0.437838 0) 23 22 1
(0.216541 0.391729 0.391729 0) 19 19 2
(0.594977 0.202511 0.202511 0) 20 20 2
(0.980211 0.00989445 0.00989445 0) 19 19 2
(0.862402 0.0687988 0.0687988 0) 20 20 2
(0.553481 0.223259 0.223259 0) 18 18 2
(0.810734 0.0946329 0 0.0946329) 18 18 1
(0.699054 0.150473 0.150473 0) 19 19 2
(0.879502 0.0602488 0.0602488 0) 21 21 2
(0.0894479 0.455276 0 0.455276) 23 23 1
(0.940694 0.0296531 0.0296531 0) 21 20 1
(0.293893 0.353054 0.353054 0) 22 21 1
(0.420268 0.289866 0.289866 0) 19 18 1
(0.794158 0.102921 0.102921 0) 21 21 2
(0.873198 0.0634011 0 0.0634011) 20 19 2
(0.395965 0.302017 0.302017 0) 19 19 2
(0.890744 0.0546279 0.0546279 0) 20 20 2
(0.111944 0.444028 0 0.444028) 19 19 1
(0.257691 0.371154 0 0.371154) 19 19 1
(0.817428 0.091286 0.091286 0) 18 17 1
(0.898067 0.0509663 0 0.0509663) 19 19 1
(0.913625 0.0431874 0 0.0431874) 22 22 1
(0.351063 0.324468 0 0.324468) 19 19 1
(0.876074 0.0619629 0.0619629 0) 21 21 2
(0.0302909 0.484855 0 0.484855) 20 19 2
(0.375853 0.312074 0 0.312074) 18 17 2
(0.0213243 0.489338 0.489338 0) 20 19 1
(0.976992 0.0115039 0 0.0115039) 23 23 1
(0.380786 0.309607 0.309607 0) 17 17 2
(0.918086 0.040957 0 0.040957) 20 20 1
(0.952483 0.0237587 0 0.0237587) 23 23 1
(0.798706 0.100647 0.100647 0) 20 19 1
(0.0896963 0.455152 0 0.455152) 19 19 1
(0.529577 0.235212 0 0.235212) 22 21 2
(0.475833 0.262084 0.262084 0) 22 21 1
(0.304254 0.347873 0.347873 0) 18 17 1
(0.458203 0.270898 0 0.270898) 21 20 2
(0.654593 0.172703 0 0.172703) 22 22 1
(0.487549 0.256225 0.256225 0) 21 21 2
(0.821629 0.0891856 0.0891856 0) 20 19 1
(0.924155 0.0379226 0.0379226 0) 19 18 1
(0.506784 0.246608 0 0.246608) 20 20 1
(0.440616 0.279692 0 0.279692) 21 21 1
(0.0771866 0.461407 0.461407 0) 21 20 1
(0.740441 0.129779 0.129779 0) 18 18 2
(0.462344 0.268828 0 0.268828) 22 22 1
(0.986379 0.00681043 0 0.00681043) 18 17 2
(0.202239 0.39888 0.39888 0) 18 18 2
(0.0102501 0.494875 0 0.494875) 20 20 1
(0.530689 0.234656 0 0.234656) 20 19 2
(0.318181 0.340909 0 0.340909) 23 22 2
(0.537461 0.23127 0 0.23127) 21 21 1
(0.648968 0.175516 0.175516 0) 16 15 1
(0.509121 0.245439 0 0.245439) 19 19 1
(0.62111 0.189445 0.189445 0) 19 18 1
(0.00308535 0.498457 0.498457 0) 21 21 2
(0.680693 0.159653 0.159653 0) 19 19 2
(0.39383 0.303085 0.303085 0) 22 21 1
(0.763142 0.118429 0 0.118429) 22 21 2
(0.566045 0.216977 0 0.216977) 20 19 2
(0.0394743 0.480263 0.480263 0) 20 19 1
(0.0589049 0.470548 0 0.470548) 18 18 1
(0.488114 0.255943 0 0.255943) 20 20 1
(0.46395 0.268025 0 0.268025) 20 20 1
(0.496049 0.251975 0 0.251975) 21 20 2
(0.290097 0.354951 0.354951 0) 19 19 2
(0.93085 0.0345752 0 0.0345752) 23 23 1
(0.12885 0.435575 0 0.435575) 21 21 1
(0.310328 0.344836 0 0.344836) 21 20 2
(0.460945 0.269528 0 0.269528) 23 22 2
(0.958823 0.0205886 0.0205886 0) 20 20 2
(0.39476 0.30262 0.30262 0) 22 22 2
(0.140448 0.429776 0.429776 0) 19 19 2
(0.00181138 0.499094 0.499094 0) 20 19 1
(0.157576 0.421212 0 0.421212) 20 20 1
(0.462651 0.268675 0.268675 0) 18 18 2
(0.00286646 0.498567 0 0.498567) 22 21 2
(0.48622 0.25689 0.25689 0) 21 21 2
(0.449355 0.275322 0.275322 0) 20 20 2
(0.298849 0.350576 0.350576 0) 20 19 1
(0.30002 0.34999 0.34999 0) 21 21 2
(0.971008 0.0144958 0 0.0144958) 22 21 2
(0.377684 0.311158 0 0.311158) 21 20 2
(0.953495 0.0232523 0.0232523 0) 19 19 2
(0.205011 0.397495 0 0.397495) 21 20 2
(0.303898 0.348051 0 0.348051) 22 22 1
(0.423543 0.288229 0 0.288229) 18 18 1
(0.627281 0.18636 0.18636 0) 19 18 1
(0.336026 0.331987 0 0.331987) 19 19 1
(0.424021 0.28799 0.28799 0) 20 20 2
(0.368058 0.315971 0.315971 0) 20 20 2
(0.699835 0.150083 0.150083 0) 23 22 1
(0.565946 0.217027 0.217027 0) 17 17 2
(0.751151 0.124425 0.124425 0) 19 18 1
(0.83129 0.0843549 0.0843549 0) 18 17 1
(0.99386 0.00307001 0.00307001 0) 21 20 1
(0.146443 0.426779 0 0.426779) 18 18 1
(0.222369 0.388815 0 0.388815) 24 24 1
(0.373868 0.313066 0 0.313066) 21 21 1
(0.547609 0.226195 0.226195 0) 19 19 2
(0.708889 0.145556 0 0.145556) 17 17 1
(0.25189 0.374055 0.374055 0) 23 22 1
(0.871836 0.064082 0 0.064082) 19 19 1
(0.240014 0.379993 0 0.379993) 22 21 2
(0.500607 0.249697 0 0.249697) 21 21 1
(0.674437 0.162782 0.162782 0) 19 19 2
(0.047324 0.476338 0 0.476338) 19 19 1
(0.422387 0.288806 0.288806 0) 20 19 1
(0.990243 0.00487826 0 0.00487826) 22 21 2
(0.907759 0.0461206 0.0461206 0) 20 19 1
(0.493274 0.253363 0 0.253363) 19 18 2
(0.118288 0.440856 0 0.440856) 19 19 1
(0.486359 0.256821 0 0.256821) 19 19 1
(0.771848 0.114076 0 0.114076) 21 21 1
(0.68401 0.157995 0.157995 0) 19 18 1
(0.170762 0.414619 0.414619 0) 19 18 1
(0.676621 0.161689 0.161689 0) 19 19 2
(0.370857 0.314572 0 0.314572) 19 18 2
(0.757879 0.12106 0.12106 0) 20 20 2
(0.805101 0.0974496 0.0974496 0) 20 19 1
(0.574603 0.212698 0 0.212698) 18 17 2
(0.427138 0.286431 0.286431 0) 20 20 2
(0.934222 0.0328891 0 0.0328891) 20 19 2
(0.0816051 0.459197 0.459197 0) 21 20 1
(0.921909 0.0390457 0 0.0390457) 22 21 2
(0.419606 0.290197 0 0.290197) 20 20 1
(0.994089 0.00295531 0.00295531 0) 21 20 1
(0.345461 0.327269 0.327269 0) 22 21 1
(0.658865 0.170568 0 0.170568) 22 21 2
(0.289035 0.355483 0 0.355483) 17 17 1
(0.880061 0.0599696 0 0.0599696) 24 24 1
(0.399799 0.300101 0.300101 0) 21 21 2
(0.0385613 0.480719 0 0.480719) 21 20 2
(0.234321 0.38284 0 0.38284) 22 21 2
(0.424669 0.287666 0 0.287666) 21 20 2
(0.151038 0.424481 0.424481 0) 20 20 2
(0.988825 0.00558745 0 0.00558745) 24 23 2
(0.240933 0.379534 0 0.379534) 20 20 1
(0.476968 0.261516 0 0.261516) 22 21 2
(0.249981 0.375009 0 0.375009) 22 21 2
(0.519724 0.240138 0.240138 0) 21 21 2
(0.99243 0.00378515 0 0.00378515) 22 21 2
(0.275299 0.36235 0.36235 0) 23 23 2
(0.969938 0.0150311 0 0.0150311) 21 20 2
(0.598322 0.200839 0 0.200839) 20 20 1
(0.367932 0.316034 0 0.316034) 22 21 2
(0.626873 0.186564 0.186564 0) 21 20 1
(0.883935 0.0580325 0.0580325 0) 19 18 1
(0.138045 0.430977 0 0.430977) 19 19 1
(0.242625 0.378688 0.378688 0) 22 21 1
(0.50945 0.245275 0.245275 0) 21 20 1
(0.662233 0.168884 0 0.168884) 24 23 2
(0.31378 0.34311 0 0.34311) 23 23 1
(0.832033 0.0839834 0 0.0839834) 19 18 2
(0.164558 0.417721 0.417721 0) 20 20 2
(0.368605 0.315697 0.315697 0) 20 20 2
(0.443094 0.278453 0 0.278453) 19 19 1
(0.326184 0.336908 0.336908 0) 17 17 2
(0.859018 0.0704908 0 0.0704908) 23 23 1
(0.977823 0.0110885 0.0110885 0) 22 21 1
(0.420398 0.289801 0 0.289801) 20 20 1
(0.929813 0.0350937 0 0.0350937) 23 22 2
(0.750142 0.124929 0.124929 0) 20 19 1
(0.950088 0.0249561 0 0.0249561) 21 20 2
(0.431382 0.284309 0.284309 0) 19 18 1
(0.104633 0.447684 0.447684 0) 22 21 1
(0.960314 0.0198432 0 0.0198432) 20 20 1
(0.0509257 0.474537 0.474537 0) 22 21 1
(0.989169 0.00541551 0 0.00541551) 21 20 2
(0.296204 0.351898 0.351898 0) 22 22 2
(0.0690135 0.465493 0 0.465493) 22 21 2
(0.0953647 0.452318 0 0.452318) 22 21 2
(0.118499 0.440751 0.440751 0) 22 21 1
(0.90852 0.0457402 0.0457402 0) 22 22 2
(0.756497 0.121752 0.121752 0) 21 20 1
(0.240826 0.379587 0.379587 0) 23 23 2
(0.602328 0.198836 0 0.198836) 20 20 1
(0.417852 0.291074 0 0.291074) 20 20 1
(0.639625 0.180188 0.180188 0) 23 22 1
(0.87911 0.060445 0.060445 0) 21 21 2
(0.987427 0.00628642 0 0.00628642) 20 19 2
(0.303049 0.348476 0 0.348476) 19 19 1
(0.200895 0.399552 0.399552 0) 18 17 1
(0.894151 0.0529245 0.0529245 0) 20 19 1
(0.108243 0.445878 0.445878 0) 23 22 1
(0.956415 0.0217927 0 0.0217927) 21 21 1
(0.530965 0.234518 0 0.234518) 22 22 1
(0.154096 0.422952 0 0.422952) 19 19 1
(0.384684 0.307658 0 0.307658) 21 21 1
(0.601546 0.199227 0.199227 0) 19 19 2
(0.189899 0.405051 0 0.405051) 16 16 1
(0.15091 0.424545 0 0.424545) 19 19 1
(0.758196 0.120902 0.120902 0) 21 20 1
(0.96942 0.0152898 0.0152898 0) 22 22 2
(0.177837 0.411082 0 0.411082) 20 19 2
(0.860841 0.0695795 0.0695795 0) 23 22 1
(0.80674 0.0966302 0 0.0966302) 18 17 2
(0.876815 0.0615925 0 0.0615925) 21 20 2
(0.64526 0.17737 0 0.17737) 20 20 1
(0.440139 0.279931 0 0.279931) 21 20 2
(0.848826 0.0755869 0.0755869 0) 21 21 2
(0.422377 0.288811 0.288811 0) 21 20 1
(0.787163 0.106418 0 0.106418) 22 22 1
(0.782888 0.108556 0.108556 0) 21 20 1
(0.746202 0.126899 0.126899 0) 20 20 2
(0.343695 0.328153 0 0.328153) 23 22 2
(0.61364 0.19318 0 0.19318) 19 19 1
(0.25094 0.37453 0.37453 0) 20 19 1
(0.564578 0.217711 0 0.217711) 19 18 2
(0.961353 0.0193234 0.0193234 0) 21 21 2
(0.51643 0.241785 0.241785 0) 20 20 2
(0.127284 0.436358 0.436358 0) 24 23 1
(0.732772 0.133614 0.133614 0) 22 21 1
(0.17833 0.410835 0 0.410835) 23 22 2
(0.3849 0.30755 0.30755 0) 21 20 1
(0.934769 0.0326157 0 0.0326157) 21 20 2
(0.933455 0.0332723 0.0332723 0) 21 20 1
(0.81341 0.0932951 0 0.0932951) 22 21 2
(0.96145 0.0192751 0 0.0192751) 21 20 2
(0.0660818 0.466959 0 0.466959) 22 22 1
(0.619994 0.190003 0 0.190003) 23 22 2
(0.996953 0.00152336 0 0.00152336) 21 20 2
(0.225081 0.387459 0 0.387459) 22 22 1
(0.88685 0.056575 0.056575 0) 23 23 2
(0.267932 0.366034 0 0.366034) 21 20 2
(0.123293 0.438354 0 0.438354) 19 18 2
(0.977531 0.0112346 0 0.0112346) 21 20 2
(0.218492 0.390754 0.390754 0) 21 20 1
(0.669741 0.16513 0.16513 0) 21 20 1
(0.436898 0.281551 0.281551 0) 23 22 1
(0.417799 0.291101 0.291101 0) 19 19 2
(0.783212 0.108394 0.108394 0) 20 19 1