/*--------------------------------*- C++ -*----------------------------------*\
  =========                 |
  \\      /  F ield         | OpenFOAM: The Open Source CFD Toolbox
   \\    /   O peration     | Website:  https://openfoam.org
    \\  /    A nd           | Version:  7
     \\/     M anipulation  |
\*---------------------------------------------------------------------------*/
FoamFile
{
    version     2.0;
    format      ascii;
    class       Cloud<dsmcParcel>;
    location    "0.00324/lagrangian/dsmc";
    object      positions;
}
// * * * * * * * * * * * * * * * * * * * * * * * * * * * * * * * * * * * * * //

20550
(
(0.435494 0.282253 0.282253 0) 1 0 1
(0.216794 0.391603 0.391603 0) 10 9 1
(0.47898 0.26051 0 0.26051) 4 3 2
(0.875766 0.0621168 0.0621168 0) 3 3 2
(0.643916 0.178042 0.178042 0) 3 3 2
(0.595621 0.20219 0.20219 0) 7 6 1
(0.772651 0.113675 0 0.113675) 9 8 2
(0.975355 0.0123224 0 0.0123224) 4 3 2
(0.991424 0.00428786 0.00428786 0) 3 3 2
(0.878259 0.0608703 0.0608703 0) 7 7 2
(0.337182 0.331409 0.331409 0) 6 5 1
(0.257494 0.371253 0.371253 0) 2 1 1
(0.686628 0.156686 0 0.156686) 8 8 1
(0.920461 0.0397695 0 0.0397695) 2 1 2
(0.0733303 0.463335 0 0.463335) 12 12 1
(0.95591 0.0220452 0 0.0220452) 3 3 1
(0.0181162 0.490942 0.490942 0) 9 9 2
(0.203468 0.398266 0.398266 0) 5 4 1
(0.988566 0.00571723 0 0.00571723) 5 5 1
(0.207485 0.396258 0.396258 0) 7 6 1
(0.472578 0.263711 0.263711 0) 10 9 1
(0.566361 0.216819 0.216819 0) 8 7 1
(0.0233797 0.48831 0.48831 0) 9 8 1
(0.134824 0.432588 0 0.432588) 6 5 2
(0.6049 0.19755 0 0.19755) 5 5 1
(0.410848 0.294576 0.294576 0) 2 1 1
(0.428842 0.285579 0.285579 0) 3 3 2
(0.0480095 0.475995 0.475995 0) 5 4 1
(0.231816 0.384092 0 0.384092) 1 1 1
(0.771632 0.114184 0.114184 0) 8 7 1
(0.107693 0.446153 0.446153 0) 11 11 2
(0.054842 0.472579 0.472579 0) 3 2 1
(0.876039 0.0619803 0 0.0619803) 4 3 2
(0.0934405 0.45328 0.45328 0) 4 3 1
(0.307614 0.346193 0.346193 0) 8 7 1
(0.352478 0.323761 0.323761 0) 4 3 1
(0.694482 0.152759 0 0.152759) 2 2 1
(0.325081 0.33746 0.33746 0) 4 4 2
(0.720694 0.139653 0.139653 0) 4 4 2
(0.372577 0.313712 0.313712 0) 2 2 2
(0.247431 0.376285 0 0.376285) 7 7 1
(0.674838 0.162581 0 0.162581) 7 7 1
(0.514518 0.242741 0 0.242741) 4 4 1
(0.533633 0.233184 0.233184 0) 8 7 1
(0.839417 0.0802917 0.0802917 0) 5 5 2
(0.503792 0.248104 0.248104 0) 4 4 2
(0.151212 0.424394 0 0.424394) 12 11 2
(0.683333 0.158334 0.158334 0) 5 5 2
(0.504909 0.247545 0 0.247545) 11 11 1
(0.501082 0.249459 0 0.249459) 3 2 2
(0.531437 0.234281 0 0.234281) 7 6 2
(0.971058 0.0144709 0 0.0144709) 12 11 2
(0.343892 0.328054 0 0.328054) 9 8 2
(0.281499 0.359251 0 0.359251) 6 5 2
(0.554082 0.222959 0 0.222959) 2 2 1
(0.339697 0.330152 0.330152 0) 6 6 2
(0.689951 0.155025 0 0.155025) 13 12 2
(0.987414 0.00629302 0 0.00629302) 4 3 2
(0.410328 0.294836 0.294836 0) 9 9 2
(0.0631557 0.468422 0 0.468422) 13 13 1
(0.259467 0.370267 0 0.370267) 9 8 2
(0.764887 0.117557 0 0.117557) 6 6 1
(0.759888 0.120056 0 0.120056) 7 7 1
(0.498378 0.250811 0.250811 0) 5 5 2
(0.466607 0.266697 0.266697 0) 13 13 2
(0.238441 0.38078 0.38078 0) 12 12 2
(0.916777 0.0416113 0 0.0416113) 6 5 2
(0.615569 0.192216 0.192216 0) 2 2 2
(0.0871359 0.456432 0.456432 0) 8 8 2
(0.985098 0.00745092 0.00745092 0) 4 3 1
(0.797522 0.101239 0 0.101239) 7 6 2
(0.0411199 0.47944 0 0.47944) 0 0 1
(0.349432 0.325284 0.325284 0) 5 5 2
(0.908313 0.0458435 0 0.0458435) 5 4 2
(0.396148 0.301926 0 0.301926) 6 5 2
(0.668929 0.165536 0.165536 0) 7 6 1
(0.651996 0.174002 0 0.174002) 2 1 2
(0.781726 0.109137 0 0.109137) 2 1 2
(0.706033 0.146983 0 0.146983) 4 4 1
(0.195003 0.402499 0 0.402499) 8 7 2
(0.55971 0.220145 0 0.220145) 12 11 2
(0.30018 0.34991 0 0.34991) 11 11 1
(0.950088 0.0249561 0 0.0249561) 8 8 1
(0.31891 0.340545 0.340545 0) 6 5 1
(0.538511 0.230745 0 0.230745) 12 11 2
(0.475421 0.26229 0 0.26229) 4 4 1
(0.197015 0.401493 0.401493 0) 1 1 2
(0.697398 0.151301 0.151301 0) 4 3 1
(0.0458796 0.47706 0.47706 0) 14 14 2
(0.448107 0.275947 0.275947 0) 14 13 1
(0.550568 0.224716 0.224716 0) 6 5 1
(0.241564 0.379218 0 0.379218) 6 5 2
(0.343191 0.328404 0.328404 0) 3 3 2
(0.0979553 0.451022 0.451022 0) 11 10 1
(0.363672 0.318164 0.318164 0) 5 4 1
(0.997277 0.00136152 0.00136152 0) 4 3 1
(0.188348 0.405826 0.405826 0) 9 8 1
(0.325128 0.337436 0 0.337436) 11 11 1
(0.123297 0.438352 0.438352 0) 10 9 1
(0.177205 0.411397 0 0.411397) 4 3 2
(0.90874 0.0456302 0 0.0456302) 6 6 1
(0.187164 0.406418 0.406418 0) 7 6 1
(0.529584 0.235208 0 0.235208) 2 1 2
(0.952286 0.0238572 0.0238572 0) 9 9 2
(0.452102 0.273949 0.273949 0) 6 6 2
(0.206005 0.396998 0.396998 0) 7 7 2
(0.00349614 0.498252 0 0.498252) 11 11 1
(0.898918 0.050541 0.050541 0) 7 6 1
(0.907073 0.0464636 0.0464636 0) 7 6 1
(0.244619 0.37769 0 0.37769) 8 8 1
(0.603737 0.198132 0 0.198132) 5 5 1
(0.24514 0.37743 0.37743 0) 8 7 1
(0.961337 0.0193315 0 0.0193315) 6 6 1
(0.064441 0.46778 0 0.46778) 10 9 2
(0.00229148 0.498854 0.498854 0) 11 11 2
(0.889276 0.055362 0.055362 0) 5 5 2
(0.259627 0.370186 0 0.370186) 4 4 1
(0.136955 0.431522 0.431522 0) 9 8 1
(0.733126 0.133437 0 0.133437) 10 10 1
(0.820298 0.089851 0 0.089851) 2 2 1
(0.273518 0.363241 0 0.363241) 5 5 1
(0.253218 0.373391 0 0.373391) 3 3 1
(0.0952759 0.452362 0.452362 0) 11 11 2
(0.782679 0.10866 0.10866 0) 8 8 2
(0.762275 0.118863 0 0.118863) 3 3 1
(0.0922047 0.453898 0 0.453898) 6 6 1
(0.295302 0.352349 0.352349 0) 5 4 1
(0.219069 0.390465 0.390465 0) 2 2 2
(0.45044 0.27478 0.27478 0) 7 6 1
(0.00430978 0.497845 0 0.497845) 6 5 2
(0.998455 0.000772735 0.000772735 0) 7 7 2
(0.269712 0.365144 0.365144 0) 11 10 1
(0.597907 0.201047 0 0.201047) 10 9 2
(0.853198 0.0734009 0 0.0734009) 3 2 2
(0.264149 0.367925 0.367925 0) 10 10 2
(0.46958 0.26521 0 0.26521) 5 4 2
(0.094302 0.452849 0 0.452849) 8 7 2
(0.69555 0.152225 0.152225 0) 11 11 2
(0.0186254 0.490687 0 0.490687) 5 4 2
(0.0126951 0.493652 0.493652 0) 12 12 2
(0.59582 0.20209 0 0.20209) 6 5 2
(0.548133 0.225934 0.225934 0) 5 5 2
(0.309369 0.345316 0.345316 0) 7 7 2
(0.00880285 0.495599 0.495599 0) 7 7 2
(0.614031 0.192985 0.192985 0) 7 6 1
(0.0313081 0.484346 0 0.484346) 11 11 1
(0.581027 0.209487 0.209487 0) 6 5 1
(0.835459 0.0822704 0.0822704 0) 2 2 2
(0.105496 0.447252 0 0.447252) 7 7 1
(0.646899 0.17655 0.17655 0) 5 4 1
(0.249724 0.375138 0 0.375138) 5 4 2
(0.365567 0.317216 0.317216 0) 4 4 2
(0.0789422 0.460529 0 0.460529) 11 10 2
(0.15091 0.424545 0 0.424545) 6 6 1
(0.925971 0.0370145 0 0.0370145) 8 7 2
(0.114662 0.442669 0.442669 0) 8 7 1
(0.521691 0.239154 0.239154 0) 7 6 1
(0.693933 0.153033 0 0.153033) 6 6 1
(0.18115 0.409425 0.409425 0) 2 1 1
(0.457221 0.27139 0 0.27139) 6 5 2
(0.530427 0.234786 0 0.234786) 8 8 1
(0.773788 0.113106 0.113106 0) 8 7 1
(0.129487 0.435257 0.435257 0) 2 2 2
(0.244776 0.377612 0 0.377612) 9 8 2
(0.318156 0.340922 0.340922 0) 4 4 2
(0.450299 0.27485 0 0.27485) 3 2 2
(0.210096 0.394952 0.394952 0) 3 3 2
(0.517634 0.241183 0 0.241183) 3 2 2
(0.0683456 0.465827 0.465827 0) 4 4 2
(0.774719 0.11264 0.11264 0) 7 6 1
(0.374265 0.312867 0.312867 0) 11 10 1
(0.0615207 0.46924 0.46924 0) 2 2 2
(0.660511 0.169745 0.169745 0) 3 3 2
(0.417556 0.291222 0.291222 0) 10 10 2
(0.719658 0.140171 0.140171 0) 4 4 2
(0.378303 0.310849 0 0.310849) 5 5 1
(0.73062 0.13469 0.13469 0) 8 8 2
(0.0575858 0.471207 0.471207 0) 9 9 2
(0.526999 0.2365 0.2365 0) 10 10 2
(0.357428 0.321286 0 0.321286) 7 6 2
(0.541596 0.229202 0 0.229202) 6 5 2
(0.658366 0.170817 0.170817 0) 4 4 2
(0.196405 0.401798 0.401798 0) 10 10 2
(0.90613 0.046935 0.046935 0) 5 4 1
(0.824859 0.0875706 0.0875706 0) 8 8 2
(0.697186 0.151407 0.151407 0) 3 2 1
(0.399538 0.300231 0 0.300231) 6 6 1
(0.312808 0.343596 0 0.343596) 11 10 2
(0.749711 0.125145 0 0.125145) 7 7 1
(0.138576 0.430712 0.430712 0) 1 0 1
(0.86555 0.0672251 0.0672251 0) 6 6 2
(0.376088 0.311956 0 0.311956) 7 7 1
(0.19706 0.40147 0.40147 0) 4 3 1
(0.713051 0.143474 0 0.143474) 15 15 1
(0.0616976 0.469151 0 0.469151) 6 6 1
(0.850468 0.074766 0 0.074766) 5 4 2
(0.724217 0.137892 0.137892 0) 7 7 2
(0.243222 0.378389 0.378389 0) 5 4 1
(0.128402 0.435799 0 0.435799) 5 5 1
(0.41997 0.290015 0 0.290015) 7 7 1
(0.607196 0.196402 0.196402 0) 4 4 2
(0.554559 0.222721 0 0.222721) 8 8 1
(0.446004 0.276998 0 0.276998) 6 6 1
(0.407022 0.296489 0 0.296489) 4 4 1
(0.327618 0.336191 0.336191 0) 5 4 1
(0.161069 0.419465 0 0.419465) 14 13 2
(0.643031 0.178485 0.178485 0) 4 4 2
(0.306743 0.346628 0 0.346628) 5 5 1
(0.461847 0.269077 0.269077 0) 9 8 1
(0.0284257 0.485787 0.485787 0) 7 7 2
(0.830205 0.0848976 0.0848976 0) 4 3 1
(0.0506867 0.474657 0 0.474657) 7 7 1
(0.0825123 0.458744 0.458744 0) 4 3 1
(0.683832 0.158084 0 0.158084) 10 10 1
(0.189672 0.405164 0 0.405164) 7 7 1
(0.246826 0.376587 0 0.376587) 4 3 2
(0.690989 0.154506 0 0.154506) 12 12 1
(0.839134 0.0804328 0.0804328 0) 10 10 2
(0.0304868 0.484757 0.484757 0) 9 8 1
(0.208649 0.395676 0.395676 0) 6 5 1
(0.226515 0.386743 0.386743 0) 11 11 2
(0.317906 0.341047 0 0.341047) 6 6 1
(0.395844 0.302078 0.302078 0) 9 8 1
(0.380532 0.309734 0.309734 0) 2 2 2
(0.424406 0.287797 0 0.287797) 6 6 1
(0.745993 0.127004 0 0.127004) 5 5 1
(0.321708 0.339146 0 0.339146) 11 10 2
(0.519124 0.240438 0.240438 0) 7 6 1
(0.976623 0.0116887 0 0.0116887) 12 11 2
(0.466264 0.266868 0 0.266868) 5 4 2
(0.283608 0.358196 0 0.358196) 6 6 1
(0.979542 0.010229 0.010229 0) 12 11 1
(0.570464 0.214768 0 0.214768) 6 6 1
(0.544696 0.227652 0 0.227652) 9 9 1
(0.243258 0.378371 0.378371 0) 2 2 2
(0.987131 0.00643473 0 0.00643473) 9 9 1
(0.415231 0.292384 0 0.292384) 9 8 2
(0.410546 0.294727 0 0.294727) 6 5 2
(0.63522 0.18239 0 0.18239) 3 3 1
(0.161727 0.419136 0 0.419136) 3 2 2
(0.26293 0.368535 0.368535 0) 7 6 1
(0.813014 0.0934932 0 0.0934932) 3 3 1
(0.305441 0.34728 0 0.34728) 6 6 1
(0.9689 0.0155498 0.0155498 0) 8 8 2
(0.70426 0.14787 0.14787 0) 6 6 2
(0.445766 0.277117 0 0.277117) 7 6 2
(0.905512 0.0472441 0.0472441 0) 8 7 1
(0.71464 0.14268 0.14268 0) 5 5 2
(0.0172458 0.491377 0 0.491377) 12 11 2
(0.104637 0.447681 0.447681 0) 12 11 1
(0.796376 0.101812 0.101812 0) 6 5 1
(0.316044 0.341978 0 0.341978) 7 6 2
(0.900428 0.049786 0.049786 0) 7 7 2
(0.659961 0.170019 0.170019 0) 6 5 1
(0.547005 0.226498 0 0.226498) 6 6 1
(0.0190948 0.490453 0 0.490453) 3 3 1
(0.216553 0.391723 0.391723 0) 6 5 1
(0.160709 0.419645 0 0.419645) 10 9 2
(0.717071 0.141464 0.141464 0) 13 12 1
(0.395847 0.302076 0.302076 0) 10 9 1
(0.32599 0.337005 0.337005 0) 10 10 2
(0.921292 0.0393542 0 0.0393542) 11 10 2
(0.615112 0.192444 0.192444 0) 5 5 2
(0.322151 0.338925 0.338925 0) 9 9 2
(0.75124 0.12438 0.12438 0) 5 4 1
(0.0278249 0.486088 0.486088 0) 6 5 1
(0.123784 0.438108 0.438108 0) 8 7 1
(0.726035 0.136982 0 0.136982) 4 4 1
(0.921327 0.0393367 0.0393367 0) 13 13 2
(0.962317 0.0188415 0.0188415 0) 3 3 2
(0.653222 0.173389 0.173389 0) 5 4 1
(0.0155918 0.492204 0.492204 0) 10 10 2
(0.412373 0.293813 0 0.293813) 13 13 1
(0.843668 0.0781661 0 0.0781661) 12 12 1
(0.497815 0.251092 0.251092 0) 11 11 2
(0.719425 0.140288 0.140288 0) 9 8 1
(0.988975 0.00551261 0 0.00551261) 3 3 1
(0.0720904 0.463955 0.463955 0) 8 8 2
(0.707668 0.146166 0 0.146166) 9 9 1
(0.13601 0.431995 0 0.431995) 3 3 1
(0.34456 0.32772 0.32772 0) 2 2 2
(0.396191 0.301905 0 0.301905) 9 8 2
(0.881439 0.0592807 0 0.0592807) 7 6 2
(0.840409 0.0797955 0.0797955 0) 4 3 1
(0.819276 0.0903619 0.0903619 0) 9 9 2
(0.256183 0.371908 0.371908 0) 14 13 1
(0.0295445 0.485228 0.485228 0) 11 10 1
(0.403389 0.298305 0.298305 0) 5 4 1
(0.347551 0.326224 0 0.326224) 7 6 2
(0.00178218 0.499109 0.499109 0) 6 6 2
(0.975626 0.012187 0.012187 0) 15 14 1
(0.581424 0.209288 0 0.209288) 4 4 1
(0.182291 0.408854 0 0.408854) 8 7 2
(0.190042 0.404979 0 0.404979) 8 7 2
(0.71833 0.140835 0.140835 0) 7 7 2
(0.961449 0.0192753 0 0.0192753) 4 4 1
(0.331672 0.334164 0 0.334164) 9 8 2
(0.903505 0.0482474 0.0482474 0) 7 6 1
(0.743805 0.128097 0 0.128097) 2 1 2
(0.760906 0.119547 0.119547 0) 5 5 2
(0.900436 0.0497818 0 0.0497818) 6 5 2
(0.24014 0.37993 0.37993 0) 11 11 2
(0.688581 0.15571 0.15571 0) 1 1 2
(0.0135014 0.493249 0 0.493249) 6 5 2
(0.700507 0.149747 0.149747 0) 11 10 1
(0.379411 0.310294 0 0.310294) 12 11 2
(0.484445 0.257778 0 0.257778) 8 7 2
(0.962771 0.0186144 0 0.0186144) 10 10 1
(0.510979 0.24451 0 0.24451) 3 2 2
(0.821573 0.0892137 0.0892137 0) 7 7 2
(0.0563806 0.47181 0 0.47181) 10 9 2
(0.483292 0.258354 0 0.258354) 5 5 1
(0.870793 0.0646037 0.0646037 0) 6 5 1
(0.143309 0.428346 0 0.428346) 4 4 1
(0.238699 0.38065 0 0.38065) 12 11 2
(0.569609 0.215195 0 0.215195) 9 9 1
(0.190882 0.404559 0 0.404559) 2 2 1
(0.34913 0.325435 0 0.325435) 4 4 1
(0.218626 0.390687 0 0.390687) 11 11 1
(0.408611 0.295695 0 0.295695) 12 11 2
(0.693703 0.153148 0.153148 0) 10 10 2
(0.901269 0.0493655 0 0.0493655) 9 8 2
(0.952192 0.023904 0 0.023904) 6 5 2
(0.65357 0.173215 0 0.173215) 13 12 2
(0.960601 0.0196993 0.0196993 0) 8 8 2
(0.67424 0.16288 0.16288 0) 11 10 1
(0.0869208 0.45654 0 0.45654) 11 10 2
(0.387221 0.30639 0 0.30639) 6 5 2
(0.811005 0.0944977 0 0.0944977) 8 8 1
(0.859835 0.0700827 0 0.0700827) 10 9 2
(0.190684 0.404658 0 0.404658) 16 15 2
(0.251427 0.374287 0.374287 0) 2 2 2
(0.148724 0.425638 0 0.425638) 7 6 2
(0.837862 0.081069 0 0.081069) 12 12 1
(0.304967 0.347516 0.347516 0) 6 5 1
(0.637235 0.181382 0 0.181382) 8 7 2
(0.457974 0.271013 0.271013 0) 6 5 1
(0.3497 0.32515 0 0.32515) 6 6 1
(0.134446 0.432777 0.432777 0) 8 8 2
(0.857189 0.0714053 0.0714053 0) 7 7 2
(0.105212 0.447394 0 0.447394) 6 6 1
(0.756479 0.121761 0.121761 0) 6 5 1
(0.640568 0.179716 0.179716 0) 7 6 1
(0.0123959 0.493802 0 0.493802) 5 4 2
(0.801221 0.0993893 0 0.0993893) 6 5 2
(0.557179 0.221411 0 0.221411) 11 11 1
(0.266888 0.366556 0 0.366556) 5 5 1
(0.217649 0.391175 0 0.391175) 8 8 1
(0.451651 0.274175 0 0.274175) 5 5 1
(0.91486 0.0425698 0 0.0425698) 4 4 1
(0.755489 0.122256 0.122256 0) 12 11 1
(0.56223 0.218885 0 0.218885) 7 7 1
(0.106501 0.44675 0.44675 0) 8 7 1
(0.331771 0.334115 0 0.334115) 9 9 1
(0.321752 0.339124 0 0.339124) 14 14 1
(0.770653 0.114673 0 0.114673) 6 6 1
(0.543676 0.228162 0.228162 0) 10 9 1
(0.922879 0.0385603 0.0385603 0) 6 5 1
(0.148754 0.425623 0 0.425623) 6 5 2
(0.867136 0.0664321 0.0664321 0) 4 3 1
(0.955304 0.0223479 0.0223479 0) 7 6 1
(0.39106 0.30447 0 0.30447) 5 5 1
(0.448494 0.275753 0 0.275753) 4 4 1
(0.510225 0.244888 0.244888 0) 9 8 1
(0.33329 0.333355 0 0.333355) 3 2 2
(0.745541 0.127229 0 0.127229) 9 9 1
(0.0935068 0.453247 0 0.453247) 9 8 2
(0.452321 0.273839 0.273839 0) 6 5 1
(0.986262 0.00686925 0 0.00686925) 14 13 2
(0.783402 0.108299 0 0.108299) 12 11 2
(0.953322 0.0233392 0.0233392 0) 8 7 1
(0.115382 0.442309 0.442309 0) 6 5 1
(0.206691 0.396654 0 0.396654) 5 5 1
(0.362732 0.318634 0 0.318634) 3 3 1
(0.102137 0.448931 0 0.448931) 8 8 1
(0.248533 0.375733 0.375733 0) 6 6 2
(0.493335 0.253332 0.253332 0) 14 13 1
(0.483021 0.258489 0.258489 0) 14 13 1
(0.713586 0.143207 0 0.143207) 3 3 1
(0.1042 0.4479 0 0.4479) 9 8 2
(0.319836 0.340082 0 0.340082) 7 7 1
(0.627544 0.186228 0 0.186228) 5 5 1
(0.301066 0.349467 0.349467 0) 6 6 2
(0.0110716 0.494464 0.494464 0) 5 5 2
(0.211177 0.394412 0 0.394412) 4 3 2
(0.16568 0.41716 0.41716 0) 8 7 1
(0.540011 0.229995 0 0.229995) 5 5 1
(0.321966 0.339017 0 0.339017) 7 6 2
(0.238001 0.380999 0.380999 0) 4 3 1
(0.474291 0.262855 0.262855 0) 7 7 2
(0.0758562 0.462072 0 0.462072) 4 4 1
(0.168237 0.415882 0.415882 0) 8 7 1
(0.469282 0.265359 0.265359 0) 8 7 1
(0.19746 0.40127 0 0.40127) 4 4 1
(0.808923 0.0955386 0.0955386 0) 4 3 1
(0.910049 0.0449756 0 0.0449756) 4 4 1
(0.656682 0.171659 0.171659 0) 14 13 1
(0.906526 0.0467369 0.0467369 0) 10 9 1
(0.192372 0.403814 0 0.403814) 6 5 2
(0.336877 0.331562 0.331562 0) 4 3 1
(0.368968 0.315516 0.315516 0) 7 6 1
(0.511462 0.244269 0 0.244269) 4 4 1
(0.765372 0.117314 0 0.117314) 8 8 1
(0.819416 0.0902918 0 0.0902918) 4 4 1
(0.255188 0.372406 0.372406 0) 9 8 1
(0.236729 0.381635 0 0.381635) 1 1 1
(0.447665 0.276167 0 0.276167) 4 4 1
(0.392501 0.30375 0 0.30375) 5 4 2
(0.145477 0.427262 0 0.427262) 8 7 2
(0.481204 0.259398 0 0.259398) 7 6 2
(0.0549322 0.472534 0.472534 0) 3 3 2
(0.485387 0.257306 0.257306 0) 8 8 2
(0.645102 0.177449 0 0.177449) 1 0 2
(0.343504 0.328248 0.328248 0) 3 2 1
(0.458451 0.270774 0 0.270774) 7 7 1
(0.825674 0.0871632 0.0871632 0) 1 1 2
(0.960128 0.0199362 0.0199362 0) 4 4 2
(0.548077 0.225962 0.225962 0) 13 13 2
(0.684879 0.157561 0.157561 0) 5 4 1
(0.804288 0.0978559 0.0978559 0) 9 9 2
(0.324726 0.337637 0 0.337637) 9 8 2
(0.772558 0.113721 0 0.113721) 12 11 2
(0.922591 0.0387046 0 0.0387046) 6 5 2
(0.358693 0.320654 0 0.320654) 3 2 2
(0.225461 0.387269 0 0.387269) 6 5 2
(0.897432 0.0512839 0.0512839 0) 12 11 1
(0.708611 0.145694 0.145694 0) 4 3 1
(0.870617 0.0646916 0.0646916 0) 5 4 1
(0.332558 0.333721 0 0.333721) 12 12 1
(0.289099 0.35545 0.35545 0) 4 4 2
(0.656529 0.171735 0 0.171735) 9 8 2
(0.244404 0.377798 0.377798 0) 6 6 2
(0.0151935 0.492403 0 0.492403) 6 6 1
(0.280761 0.359619 0.359619 0) 11 10 1
(0.62931 0.185345 0.185345 0) 6 6 2
(0.739298 0.130351 0.130351 0) 12 11 1
(0.719754 0.140123 0.140123 0) 4 4 2
(0.0318487 0.484076 0.484076 0) 7 7 2
(0.0506758 0.474662 0.474662 0) 5 5 2
(0.665786 0.167107 0.167107 0) 9 8 1
(0.292236 0.353882 0 0.353882) 6 5 2
(0.919361 0.0403195 0.0403195 0) 6 6 2
(0.829223 0.0853885 0 0.0853885) 7 7 1
(0.871028 0.0644861 0 0.0644861) 6 6 1
(0.635266 0.182367 0 0.182367) 7 6 2
(0.387277 0.306361 0 0.306361) 4 3 2
(0.382303 0.308849 0.308849 0) 2 2 2
(0.107541 0.446229 0 0.446229) 3 3 1
(0.846496 0.076752 0.076752 0) 8 7 1
(0.430006 0.284997 0.284997 0) 9 8 1
(0.85521 0.072395 0 0.072395) 6 6 1
(0.280402 0.359799 0 0.359799) 7 6 2
(0.520775 0.239613 0 0.239613) 5 5 1
(0.0403922 0.479804 0.479804 0) 6 6 2
(0.722097 0.138951 0.138951 0) 9 8 1
(0.728679 0.13566 0 0.13566) 15 14 2
(0.310118 0.344941 0 0.344941) 8 7 2
(0.837861 0.0810694 0 0.0810694) 6 5 2
(0.335878 0.332061 0 0.332061) 6 5 2
(0.480683 0.259659 0.259659 0) 6 5 1
(0.720895 0.139552 0 0.139552) 8 7 2
(0.308356 0.345822 0 0.345822) 5 4 2
(0.892824 0.053588 0.053588 0) 9 9 2
(0.0618428 0.469079 0 0.469079) 3 2 2
(0.995395 0.00230247 0 0.00230247) 3 3 1
(0.954034 0.0229829 0 0.0229829) 6 5 2
(0.723118 0.138441 0 0.138441) 7 6 2
(0.0339895 0.483005 0.483005 0) 6 5 1
(0.0630464 0.468477 0.468477 0) 6 5 1
(0.631183 0.184409 0.184409 0) 1 0 1
(0.44991 0.275045 0.275045 0) 13 12 1
(0.0853634 0.457318 0 0.457318) 10 10 1
(0.402315 0.298843 0 0.298843) 10 9 2
(0.758391 0.120805 0.120805 0) 10 9 1
(0.345368 0.327316 0 0.327316) 1 0 2
(0.799908 0.100046 0 0.100046) 5 4 2
(0.428617 0.285692 0 0.285692) 7 6 2
(0.676713 0.161643 0.161643 0) 6 6 2
(0.164196 0.417902 0 0.417902) 6 6 1
(0.749426 0.125287 0.125287 0) 1 1 2
(0.589515 0.205242 0.205242 0) 8 8 2
(0.399361 0.30032 0.30032 0) 14 13 1
(0.705296 0.147352 0 0.147352) 7 6 2
(0.28995 0.355025 0 0.355025) 6 6 1
(0.893482 0.053259 0 0.053259) 6 5 2
(0.328449 0.335776 0 0.335776) 14 14 1
(0.0877381 0.456131 0.456131 0) 17 17 2
(0.623225 0.188387 0.188387 0) 10 9 1
(0.865723 0.0671383 0.0671383 0) 3 2 1
(0.5383 0.23085 0.23085 0) 9 9 2
(0.124003 0.437998 0.437998 0) 10 9 1
(0.404794 0.297603 0.297603 0) 2 2 2
(0.890409 0.0547956 0.0547956 0) 10 10 2
(0.978288 0.0108562 0 0.0108562) 8 7 2
(0.635733 0.182134 0.182134 0) 13 13 2
(0.0993488 0.450326 0.450326 0) 7 7 2
(0.819142 0.0904288 0 0.0904288) 9 9 1
(0.395822 0.302089 0 0.302089) 4 3 2
(0.899461 0.0502693 0.0502693 0) 15 14 1
(0.804998 0.0975008 0.0975008 0) 10 10 2
(0.658033 0.170984 0.170984 0) 19 19 2
(0.669362 0.165319 0 0.165319) 10 10 1
(0.68381 0.158095 0.158095 0) 9 9 2
(0.00560524 0.497197 0 0.497197) 7 6 2
(0.254481 0.372759 0 0.372759) 16 15 2
(0.113002 0.443499 0 0.443499) 5 4 2
(0.565998 0.217001 0 0.217001) 4 4 1
(0.386859 0.30657 0 0.30657) 6 6 1
(0.372834 0.313583 0 0.313583) 13 12 2
(0.120508 0.439746 0.439746 0) 8 8 2
(0.27136 0.36432 0 0.36432) 8 8 1
(0.367608 0.316196 0 0.316196) 12 11 2
(0.0776362 0.461182 0.461182 0) 7 7 2
(0.932283 0.0338584 0.0338584 0) 13 13 2
(0.988694 0.00565277 0 0.00565277) 6 6 1
(0.937087 0.0314563 0 0.0314563) 8 7 2
(0.43938 0.28031 0 0.28031) 7 6 2
(0.686539 0.15673 0 0.15673) 10 10 1
(0.806125 0.0969377 0.0969377 0) 5 5 2
(0.848801 0.0755996 0.0755996 0) 11 11 2
(0.423807 0.288096 0 0.288096) 5 4 2
(0.345058 0.327471 0 0.327471) 4 3 2
(0.100793 0.449604 0 0.449604) 9 9 1
(0.557448 0.221276 0 0.221276) 7 6 2
(0.946008 0.0269958 0 0.0269958) 5 4 2
(0.105239 0.44738 0.44738 0) 12 11 1
(0.299469 0.350266 0.350266 0) 8 7 1
(0.654777 0.172612 0 0.172612) 5 5 1
(0.286055 0.356973 0 0.356973) 6 5 2
(0.328163 0.335919 0.335919 0) 15 14 1
(0.48698 0.25651 0 0.25651) 6 5 2
(0.179817 0.410091 0.410091 0) 7 7 2
(0.9458 0.0271 0 0.0271) 6 6 1
(0.564913 0.217544 0 0.217544) 7 7 1
(0.661321 0.16934 0.16934 0) 12 11 1
(0.365785 0.317108 0.317108 0) 3 3 2
(0.0231236 0.488438 0 0.488438) 5 5 1
(0.578623 0.210688 0.210688 0) 12 11 1
(0.63005 0.184975 0 0.184975) 11 11 1
(0.1019 0.44905 0 0.44905) 6 5 2
(0.842352 0.0788241 0 0.0788241) 2 2 1
(0.284286 0.357857 0.357857 0) 9 9 2
(0.677942 0.161029 0.161029 0) 9 8 1
(0.475501 0.262249 0.262249 0) 16 15 1
(0.581685 0.209158 0 0.209158) 2 1 2
(0.413644 0.293178 0.293178 0) 13 12 1
(0.405037 0.297482 0 0.297482) 9 8 2
(0.184826 0.407587 0 0.407587) 5 4 2
(0.386085 0.306957 0.306957 0) 4 4 2
(0.600959 0.199521 0 0.199521) 9 8 2
(0.209807 0.395097 0.395097 0) 8 8 2
(0.932325 0.0338373 0 0.0338373) 10 9 2
(0.831076 0.084462 0 0.084462) 9 9 1
(0.4185 0.29075 0.29075 0) 10 9 1
(0.601595 0.199203 0.199203 0) 1 1 2
(0.806601 0.0966993 0 0.0966993) 8 7 2
(0.383262 0.308369 0.308369 0) 6 6 2
(0.745217 0.127391 0.127391 0) 5 4 1
(0.0621005 0.46895 0 0.46895) 2 2 1
(0.108365 0.445818 0 0.445818) 4 4 1
(0.696119 0.15194 0.15194 0) 5 5 2
(0.0778403 0.46108 0 0.46108) 9 9 1
(0.705731 0.147134 0 0.147134) 2 2 1
(0.675375 0.162312 0.162312 0) 17 16 1
(0.77831 0.110845 0.110845 0) 13 12 1
(0.796518 0.101741 0.101741 0) 7 7 2
(0.499963 0.250019 0.250019 0) 8 7 1
(0.386213 0.306894 0.306894 0) 3 2 1
(0.886279 0.0568607 0.0568607 0) 7 7 2
(0.00508768 0.497456 0 0.497456) 5 4 2
(0.212189 0.393905 0 0.393905) 10 9 2
(0.455056 0.272472 0.272472 0) 5 4 1
(0.117063 0.441469 0.441469 0) 5 4 1
(0.887445 0.0562776 0 0.0562776) 6 6 1
(0.177643 0.411178 0.411178 0) 5 4 1
(0.466775 0.266613 0.266613 0) 12 11 1
(0.713445 0.143278 0.143278 0) 9 8 1
(0.988671 0.0056646 0 0.0056646) 5 5 1
(0.156569 0.421716 0 0.421716) 17 16 2
(0.477929 0.261035 0 0.261035) 7 6 2
(0.582192 0.208904 0.208904 0) 8 8 2
(0.848575 0.0757123 0 0.0757123) 12 12 1
(0.384186 0.307907 0 0.307907) 13 12 2
(0.900942 0.0495289 0.0495289 0) 10 9 1
(0.923031 0.0384847 0.0384847 0) 4 3 1
(0.519934 0.240033 0.240033 0) 9 8 1
(0.105186 0.447407 0.447407 0) 7 6 1
(0.67293 0.163535 0.163535 0) 3 2 1
(0.631617 0.184192 0.184192 0) 10 9 1
(0.328814 0.335593 0.335593 0) 10 9 1
(0.337388 0.331306 0.331306 0) 10 10 2
(0.719889 0.140056 0.140056 0) 6 5 1
(0.370611 0.314694 0.314694 0) 9 9 2
(0.704352 0.147824 0 0.147824) 7 6 2
(0.868671 0.0656647 0.0656647 0) 7 6 1
(0.611873 0.194063 0 0.194063) 3 3 1
(0.728194 0.135903 0.135903 0) 10 10 2
(0.0324802 0.48376 0.48376 0) 9 9 2
(0.605458 0.197271 0.197271 0) 13 12 1
(0.202058 0.398971 0.398971 0) 10 9 1
(0.932294 0.0338532 0.0338532 0) 5 4 1
(0.755031 0.122484 0.122484 0) 2 1 1
(0.93685 0.0315749 0 0.0315749) 9 9 1
(0.0625356 0.468732 0.468732 0) 7 6 1
(0.0156529 0.492174 0.492174 0) 3 2 1
(0.497272 0.251364 0 0.251364) 6 6 1
(0.420663 0.289669 0 0.289669) 7 7 1
(0.844224 0.0778882 0 0.0778882) 2 2 1
(0.169589 0.415205 0 0.415205) 3 3 1
(0.112179 0.44391 0.44391 0) 4 4 2
(0.359029 0.320485 0 0.320485) 7 7 1
(0.67478 0.16261 0 0.16261) 7 6 2
(0.180231 0.409884 0.409884 0) 11 11 2
(0.167794 0.416103 0.416103 0) 10 9 1
(0.599524 0.200238 0 0.200238) 7 6 2
(0.370042 0.314979 0.314979 0) 4 4 2
(0.191433 0.404283 0.404283 0) 8 8 2
(0.26618 0.36691 0.36691 0) 3 2 1
(0.0628907 0.468555 0 0.468555) 10 9 2
(0.836376 0.0818121 0.0818121 0) 7 6 1
(0.354952 0.322524 0.322524 0) 3 3 2
(0.751773 0.124114 0.124114 0) 4 4 2
(0.604879 0.19756 0 0.19756) 6 5 2
(0.674631 0.162684 0.162684 0) 8 7 1
(0.552585 0.223707 0.223707 0) 5 4 1
(0.973123 0.0134387 0 0.0134387) 7 7 1
(0.632671 0.183665 0.183665 0) 11 10 1
(0.176336 0.411832 0 0.411832) 6 5 2
(0.0795797 0.46021 0.46021 0) 7 7 2
(0.77838 0.11081 0.11081 0) 1 1 2
(0.935334 0.0323328 0 0.0323328) 9 9 1
(0.564455 0.217772 0 0.217772) 3 3 1
(0.598425 0.200788 0.200788 0) 12 11 1
(0.790726 0.104637 0.104637 0) 14 13 1
(0.385558 0.307221 0 0.307221) 12 12 1
(0.274129 0.362935 0 0.362935) 4 4 1
(0.260944 0.369528 0.369528 0) 11 10 1
(0.679903 0.160048 0 0.160048) 6 6 1
(0.157991 0.421004 0 0.421004) 16 16 1
(0.846897 0.0765517 0 0.0765517) 7 7 1
(0.46891 0.265545 0 0.265545) 11 10 2
(0.74314 0.12843 0.12843 0) 10 10 2
(0.305597 0.347201 0 0.347201) 12 12 1
(0.553393 0.223303 0 0.223303) 8 8 1
(0.568693 0.215654 0 0.215654) 15 15 1
(0.798146 0.100927 0 0.100927) 11 11 1
(0.583262 0.208369 0.208369 0) 9 8 1
(0.580069 0.209965 0 0.209965) 6 5 2
(0.754942 0.122529 0.122529 0) 7 6 1
(0.703555 0.148222 0 0.148222) 14 13 2
(0.176919 0.41154 0.41154 0) 9 9 2
(0.147013 0.426494 0 0.426494) 8 7 2
(0.865223 0.0673886 0 0.0673886) 4 3 2
(0.973641 0.0131796 0 0.0131796) 6 5 2
(0.328007 0.335997 0.335997 0) 12 12 2
(0.514701 0.24265 0.24265 0) 11 11 2
(0.518562 0.240719 0 0.240719) 10 9 2
(0.94178 0.02911 0 0.02911) 9 8 2
(0.237125 0.381437 0 0.381437) 10 9 2
(0.933889 0.0330554 0 0.0330554) 2 2 1
(0.539008 0.230496 0 0.230496) 6 5 2
(0.970849 0.0145753 0.0145753 0) 10 10 2
(0.599487 0.200256 0 0.200256) 14 13 2
(0.117265 0.441368 0 0.441368) 8 7 2
(0.713239 0.14338 0.14338 0) 8 8 2
(0.120407 0.439796 0 0.439796) 15 14 2
(0.473014 0.263493 0 0.263493) 9 8 2
(0.521421 0.23929 0.23929 0) 8 8 2
(0.101727 0.449136 0 0.449136) 8 7 2
(0.96796 0.0160199 0 0.0160199) 6 6 1
(0.0558814 0.472059 0.472059 0) 7 7 2
(0.614299 0.19285 0.19285 0) 3 2 1
(0.521774 0.239113 0.239113 0) 6 6 2
(0.0740791 0.46296 0.46296 0) 4 3 1
(0.129836 0.435082 0.435082 0) 9 8 1
(0.551872 0.224064 0.224064 0) 8 7 1
(0.114399 0.442801 0.442801 0) 8 8 2
(0.357199 0.3214 0 0.3214) 6 6 1
(0.848656 0.0756719 0 0.0756719) 15 14 2
(0.877692 0.0611542 0.0611542 0) 3 3 2
(0.354718 0.322641 0 0.322641) 18 17 2
(0.0238821 0.488059 0 0.488059) 3 3 1
(0.595742 0.202129 0 0.202129) 6 5 2
(0.181532 0.409234 0.409234 0) 5 5 2
(0.323353 0.338324 0 0.338324) 6 5 2
(0.375215 0.312392 0.312392 0) 10 9 1
(0.735598 0.132201 0 0.132201) 13 12 2
(0.723826 0.138087 0.138087 0) 7 7 2
(0.357826 0.321087 0.321087 0) 8 8 2
(0.162777 0.418611 0 0.418611) 5 4 2
(0.231067 0.384466 0.384466 0) 9 9 2
(0.765389 0.117306 0.117306 0) 2 2 2
(0.25189 0.374055 0.374055 0) 9 8 1
(0.310552 0.344724 0 0.344724) 10 9 2
(0.878372 0.060814 0 0.060814) 12 12 1
(0.300913 0.349543 0 0.349543) 9 8 2
(0.20051 0.399745 0 0.399745) 7 7 1
(0.511225 0.244388 0.244388 0) 8 8 2
(0.179923 0.410038 0.410038 0) 9 9 2
(0.251563 0.374219 0.374219 0) 5 5 2
(0.78798 0.10601 0.10601 0) 3 3 2
(0.656894 0.171553 0.171553 0) 5 4 1
(0.192554 0.403723 0 0.403723) 12 11 2
(0.774188 0.112906 0.112906 0) 6 6 2
(0.599053 0.200474 0 0.200474) 5 4 2
(0.842976 0.0785122 0 0.0785122) 9 8 2
(0.946487 0.0267565 0 0.0267565) 9 8 2
(0.749923 0.125039 0.125039 0) 2 2 2
(0.123992 0.438004 0 0.438004) 14 13 2
(0.311918 0.344041 0 0.344041) 7 7 1
(0.613885 0.193057 0 0.193057) 3 2 2
(0.353489 0.323256 0.323256 0) 12 12 2
(0.615212 0.192394 0.192394 0) 4 4 2
(0.727253 0.136373 0 0.136373) 8 7 2
(0.838392 0.080804 0.080804 0) 13 12 1
(0.264424 0.367788 0 0.367788) 10 9 2
(0.0925548 0.453723 0 0.453723) 2 2 1
(0.63671 0.181645 0.181645 0) 7 7 2
(0.315668 0.342166 0.342166 0) 8 8 2
(0.515176 0.242412 0 0.242412) 6 5 2
(0.0270851 0.486457 0.486457 0) 2 1 1
(0.106274 0.446863 0.446863 0) 11 10 1
(0.838281 0.0808595 0 0.0808595) 8 7 2
(0.034372 0.482814 0.482814 0) 12 12 2
(0.724527 0.137736 0 0.137736) 8 8 1
(0.667255 0.166373 0 0.166373) 6 5 2
(0.19804 0.40098 0.40098 0) 10 10 2
(0.570724 0.214638 0.214638 0) 9 9 2
(0.497939 0.25103 0.25103 0) 5 5 2
(0.960471 0.0197643 0.0197643 0) 13 13 2
(0.845932 0.0770341 0 0.0770341) 9 8 2
(0.589189 0.205406 0 0.205406) 6 6 1
(0.395195 0.302402 0 0.302402) 11 10 2
(0.173866 0.413067 0 0.413067) 11 10 2
(0.903575 0.0482126 0 0.0482126) 8 8 1
(0.830751 0.0846243 0 0.0846243) 12 12 1
(0.458261 0.27087 0 0.27087) 17 17 1
(0.452229 0.273885 0.273885 0) 7 6 1
(0.812214 0.0938932 0.0938932 0) 14 14 2
(0.0251393 0.48743 0 0.48743) 12 11 2
(0.249584 0.375208 0 0.375208) 14 14 1
(0.211053 0.394474 0.394474 0) 7 7 2
(0.399693 0.300153 0.300153 0) 5 4 1
(0.919239 0.0403807 0 0.0403807) 7 6 2
(0.115567 0.442216 0.442216 0) 9 9 2
(0.48244 0.25878 0.25878 0) 7 6 1
(0.974257 0.0128713 0 0.0128713) 11 11 1
(0.0794279 0.460286 0 0.460286) 1 1 1
(0.780789 0.109605 0 0.109605) 13 12 2
(0.485136 0.257432 0 0.257432) 1 1 1
(0.898028 0.0509861 0.0509861 0) 10 9 1
(0.979714 0.0101429 0 0.0101429) 8 7 2
(0.686173 0.156913 0.156913 0) 8 8 2
(0.676949 0.161525 0 0.161525) 9 9 1
(0.267228 0.366386 0.366386 0) 6 5 1
(0.170689 0.414655 0.414655 0) 8 8 2
(0.733266 0.133367 0 0.133367) 7 7 1
(0.40944 0.29528 0 0.29528) 11 11 1
(0.0782354 0.460882 0 0.460882) 7 6 2
(0.958132 0.0209342 0.0209342 0) 8 7 1
(0.719981 0.14001 0 0.14001) 10 10 1
(0.64317 0.178415 0 0.178415) 11 10 2
(0.692376 0.153812 0.153812 0) 6 5 1
(0.214532 0.392734 0.392734 0) 7 6 1
(0.474744 0.262628 0.262628 0) 7 6 1
(0.348931 0.325534 0.325534 0) 5 4 1
(0.810562 0.0947191 0.0947191 0) 6 6 2
(0.784358 0.107821 0 0.107821) 10 10 1
(0.748552 0.125724 0.125724 0) 11 11 2
(0.379774 0.310113 0 0.310113) 4 4 1
(0.167176 0.416412 0 0.416412) 7 7 1
(0.0505665 0.474717 0 0.474717) 13 12 2
(0.486892 0.256554 0.256554 0) 8 8 2
(0.121372 0.439314 0.439314 0) 3 2 1
(0.0214912 0.489254 0 0.489254) 7 6 2
(0.279378 0.360311 0 0.360311) 6 6 1
(0.497445 0.251278 0 0.251278) 10 9 2
(0.425549 0.287225 0.287225 0) 12 11 1
(0.154841 0.422579 0.422579 0) 11 10 1
(0.560657 0.219672 0 0.219672) 10 10 1
(0.9403 0.02985 0 0.02985) 6 6 1