/*--------------------------------*- C++ -*----------------------------------*\
  =========                 |
  \\      /  F ield         | OpenFOAM: The Open Source CFD Toolbox
   \\    /   O peration     | Website:  https://openfoam.org
    \\  /    A nd           | Version:  7
     \\/     M anipulation  |
\*---------------------------------------------------------------------------*/
FoamFile
{
    version     2.0;
    format      ascii;
    class       vectorField;
    location    "0.00324/lagrangian/dsmc";
    object      U;
}
// * * * * * * * * * * * * * * * * * * * * * * * * * * * * * * * * * * * * * //


20550
(
(-227.803 388.422 -97.0204)
(417.057 75.3696 243.653)
(78.834 619.504 170.683)
(91.5652 381.58 -215.156)
(-927.55 69.3298 634.456)
(-15.6884 46.8381 442.647)
(-280.204 -225.498 -196.095)
(664.563 -110.383 221.699)
(-441.57 876.188 -996.783)
(0.36553 -1046.92 -416.678)
(-239.623 64.3777 393.434)
(449.892 -111.705 -437.891)
(-108.855 -181.682 415.268)
(3.80315 19.5637 1092.91)
(-227.155 216.103 -937.289)
(-603.335 -376.005 -855.667)
(50.435 -516.629 29.8623)
(948.775 -769.128 -394.771)
(311.962 382.546 689.705)
(98.0888 1.64634 -402.107)
(-44.1766 454.279 -410.906)
(-272.762 -618.436 863.395)
(-18.5613 -86.0036 -554.101)
(-273.25 467.491 971.099)
(-400.236 866.867 123.782)
(-504.286 -369.711 331.897)
(488.124 -394.324 -32.9111)
(90.9983 -978.577 146.206)
(247.64 -130.197 232.408)
(503.151 937.826 496.369)
(-34.4597 348.772 897.326)
(1264.06 686.027 51.3301)
(59.1694 -36.9892 43.4252)
(-249.861 -753.409 101.865)
(24.0093 16.9167 -114.446)
(365.965 128.309 959.431)
(-732.305 -622.371 -168.39)
(-565.747 142.235 -155.683)
(138.108 -791.905 -275.045)
(527.047 -144.607 1018.86)
(-177.204 313.505 -253.842)
(-436.6 582.805 275.382)
(-261.515 531.531 -554.176)
(961.924 -254.239 -545.865)
(-307.418 124.769 -48.2667)
(279.974 175.991 237.042)
(322.212 446.944 878.137)
(136.609 -215.021 12.7114)
(934.5 -163.92 -432.579)
(227.022 -270.739 119.321)
(867.029 -473.154 967.945)
(156.246 -307.359 -301.227)
(-136.823 -809.85 135.789)
(-477.551 56.9406 552.163)
(309.631 772.739 482.253)
(39.3331 47.9852 469)
(-71.2441 728.67 501.891)
(837.713 -346.762 101.381)
(59.7123 314.471 -624.783)
(512.836 -220.838 299.633)
(169.845 967.824 -436.946)
(-276.684 735.724 -368.476)
(931.463 -393.233 -586.35)
(157.16 -500.229 -99.4804)
(-100.443 -135.479 351.295)
(766.757 383.978 254.106)
(-133.541 -25.5035 54.4333)
(-436.23 81.7217 330.598)
(764.058 410.349 -140.113)
(-74.8467 799.78 -328.787)
(-415.104 219.306 385.375)
(744.997 460.673 492.184)
(-77.4891 250.25 763.733)
(-76.7526 -284.935 -882.023)
(-518.653 -474.874 730.71)
(-246.293 -312.517 -38.3207)
(-133.779 1130.48 -269.867)
(1125.77 267.262 -837.305)
(75.615 486.694 -146.765)
(-266.74 21.894 986.873)
(389.719 -729.588 318.691)
(627.59 505.063 22.4751)
(-363.356 848.895 -230.738)
(519.087 840.812 553.591)
(113.143 -46.939 249.168)
(-695.152 -77.7667 -604.213)
(-134.313 -864.461 363.372)
(-149.037 -578.929 -84.1798)
(330.535 -421.575 1366.77)
(608.955 -252.699 431.246)
(-489.772 -599.679 390.75)
(-486.983 1019.21 256.918)
(-47.1695 -36.2874 1545.14)
(29.845 -243.039 -341.226)
(-1141.58 -6.59921 138.772)
(252.347 307.078 -605.002)
(-204.83 -405.401 -523.643)
(-448.051 -400.883 -311.513)
(819.917 -666.313 18.0846)
(-964.01 199.524 220.766)
(-119.567 816.723 274.495)
(-513.306 -188.748 -208.632)
(50.8442 -539.21 -352.156)
(805.729 622.565 244.283)
(784.547 315.621 -346.148)
(236.241 -485.42 762.572)
(-55.1005 48.2428 -427.003)
(478.326 -479.333 679.624)
(-341.353 25.8652 309.112)
(556.557 -216.629 431.41)
(-344.481 -230.886 613.285)
(70.1313 458.261 -60.372)
(-277.975 -20.9902 -383.304)
(916.556 207.167 227.23)
(166.79 453.47 -932.493)
(-307.975 -618.331 574.038)
(521.129 -229.797 299.6)
(61.901 -579.614 -182.742)
(-109.984 -259.494 -405.546)
(331.317 318.877 -430.04)
(185.867 -659.656 561.988)
(-788.65 -42.0576 -437.05)
(-397.227 -237.43 627.666)
(664.609 -69.947 494.987)
(771.771 92.9847 -1130.54)
(-7.38919 69.2263 331.995)
(369.361 -669.33 245.149)
(-535.864 -496.11 377.119)
(676.495 443.514 -819.727)
(-519.852 -328.347 -805.178)
(428.464 526.761 1318.29)
(404.236 -38.9446 -195.736)
(78.9933 849.496 -186.449)
(-691.077 342.221 -977.684)
(74.7602 49.5229 820.565)
(-909.931 700.002 -41.0439)
(44.8691 -299.347 -637.246)
(-216.344 -294.343 592.844)
(-8.63461 639.991 -147.892)
(-182.35 -403.432 -563.511)
(-82.974 -222.91 154.304)
(-537.049 85.3103 492.2)
(-197.596 247.621 317.432)
(-172.133 64.7284 117.868)
(44.5135 354.314 -429.522)
(620.698 -41.1732 145.491)
(332.759 -481.082 -38.2027)
(-739.483 -122.173 529.725)
(-537.259 38.8091 339.891)
(470.771 612.945 505.965)
(-588.947 616.39 -972.074)
(76.5233 744.094 -227.972)
(235.042 -615.725 895.22)
(284.545 -280.991 -99.1918)
(-9.54247 406.168 280.233)
(54.8838 93.9693 675.816)
(-378.82 -616.406 -170.266)
(150.352 -516.022 223.104)
(356.184 -873.344 936.714)
(223.619 -168.09 87.2836)
(962.285 -447.098 576.336)
(-760.945 -355.067 653.961)
(624.539 -163.806 354.814)
(-67.4506 -676.631 -829.208)
(36.5591 -167.214 213.757)
(1226.61 -58.1227 -529.703)
(-976.091 989.044 -134.51)
(850.541 -1.67173 -574.273)
(185.962 125.766 646.846)
(-389.2 488.345 271.894)
(-109.64 140.149 -386.119)
(325.375 -258.331 543.47)
(-181.602 -30.0282 262.485)
(-662.154 241.831 33.2801)
(740.201 -723.809 319.536)
(-522.152 -1019.61 703.552)
(-616.396 464.102 -375.203)
(632.631 -42.5746 -900.667)
(-603.371 261.544 -874.177)
(267.751 -253.512 -315.691)
(161.271 39.4747 -685.097)
(-94.6507 -617.401 275.701)
(-915.913 932.229 40.0582)
(1081.7 289.169 183.162)
(980.435 591.372 -32.3143)
(-908.617 -147.703 -257.855)
(177.935 69.8115 -204.062)
(80.781 -300.981 319.348)
(-637.997 -231.411 331.971)
(1115.56 148.272 -145.134)
(-446.841 -66.2629 686.632)
(-121.075 -737.541 -1175.08)
(-25.7858 2.00153 3.78001)
(-295.074 -392.231 -493.886)
(1281.73 -659.345 115.454)
(-942.619 -501.723 -251.807)
(160.121 126.323 205.009)
(-432.165 474.155 -11.3356)
(-172.99 -416.857 -182.69)
(512.109 511.663 -891.544)
(408.03 465.005 516.601)
(-26.9529 356.043 413.424)
(265.38 -504.968 -46.0792)
(-452.055 -688.149 563.392)
(-230.097 -798.081 -212.005)
(91.5006 -358.925 39.1988)
(125.343 59.3344 208.905)
(-40.5942 -165.988 649.475)
(160.223 901.164 -724.39)
(1267.68 -451.454 -352.098)
(-375.427 -1124.81 -220.583)
(240.48 878.844 241.636)
(511.679 117.31 -163.173)
(-178.125 567.711 113.585)
(265.193 98.536 166.025)
(852.306 75.3565 315.287)
(172.426 -1040.69 -324.925)
(1275.65 507.545 -128.879)
(-26.6818 -31.4436 -354.355)
(-518.144 232.202 -232.791)
(654.937 -187.621 -556.92)
(290.858 252.898 780.509)
(-297.541 -477.592 -495.018)
(295.818 773.763 122.299)
(40.3227 -310.1 399.59)
(-97.4462 295.263 -100.11)
(958.828 -301.727 482.458)
(95.9722 -628.852 -322.262)
(134.191 -668.542 -102.804)
(763.788 -733.295 62.1122)
(675.638 245.144 313.537)
(-998.016 107.004 55.7607)
(108.311 483.374 422.185)
(-386.634 -140.926 512.479)
(83.4339 212.854 266.815)
(137.172 251.419 -465.881)
(931.793 -264.208 86.8606)
(44.2709 686.06 -529.326)
(458.023 1385.13 -627.877)
(-86.0314 516.572 -519.552)
(305.921 -715.299 559.689)
(-530.692 -765.681 380.582)
(-115.659 197.446 -27.1596)
(-186.21 143.873 -443.953)
(-146.587 712.803 -22.2347)
(-286.941 -252.726 1226.44)
(596.203 -181.196 -376.239)
(203.057 1232.38 11.2436)
(344.647 80.8687 415.987)
(662.544 -149.956 488.008)
(497.53 -517.781 -1428.36)
(136.176 120.329 372.736)
(-954.714 -190.35 -387.052)
(336.667 154.901 -778.917)
(811.807 -703.569 -25.8509)
(549.275 480.235 1066.77)
(-616.226 671.023 -390.433)
(-961.832 660.082 163.717)
(342.332 -105.024 87.3242)
(509.411 645.831 -594.112)
(-649.22 47.0128 851.627)
(-115.678 -305.545 -185.597)
(75.1674 -560.011 725.867)
(449.18 -755.096 217.429)
(634.547 387.064 196.31)
(-190.222 -413.277 -366.724)
(847.722 -552.21 -413.274)
(799.73 -1188.65 575.04)
(191.587 -282.794 -311.675)
(-842.322 132.04 -536.043)
(-635.699 -73.2658 775.489)
(-1093.12 -564.357 -546.354)
(-297.944 193.504 -153.384)
(606.483 -491.063 248.205)
(-572.6 -400.477 104.145)
(-202.773 174.409 831.973)
(715.352 -331.69 229.971)
(-11.9101 -20.2296 150.056)
(-199.732 53.9818 121.55)
(-172.99 -120.751 834.067)
(-387.553 -475.371 -281.903)
(295.271 149.337 -876.436)
(218.981 -381.721 -852.671)
(279.695 371.135 84.192)
(-793.733 442.333 283.81)
(347.712 783.572 99.0881)
(146.737 205.544 -230.247)
(-420.543 1418.02 14.476)
(-379.039 762.166 -700.367)
(-731.079 -135.52 -321.09)
(123.519 -681.115 554.688)
(-517.41 -51.412 -213.6)
(-13.1717 -1001.94 131.196)
(91.3375 154.072 -201.272)
(339.328 328.859 989.818)
(541.885 560.903 33.17)
(151.416 -70.2533 623.502)
(1138.7 -544.087 -607.736)
(185.292 -201.632 112.038)
(-180.413 -359.295 -166.926)
(216.014 -185.329 -748.435)
(-434.038 477.216 8.76462)
(170.045 -567.546 -669.917)
(-652.015 -409.906 631.835)
(-341.83 -259.679 -541.45)
(470.86 -101.069 945.298)
(-522.282 -622.472 -44.288)
(-459.379 -168.432 -646.664)
(490.665 -198.683 -1067.95)
(-669.492 170.273 326.343)
(-656.409 -412.288 112.443)
(-571.086 0.928376 170.591)
(-376.648 777.096 961.959)
(-825.401 39.965 231.774)
(366.463 -437.722 262.689)
(331.733 -296.064 -373.503)
(164.905 387.579 435.237)
(-154.573 644.521 155.605)
(-565.572 676.432 -323.24)
(-41.0789 -437.513 -328.333)
(-136.937 -244.447 -1354.28)
(-251.451 -134.858 486.752)
(-39.4658 307.661 -189.88)
(312.528 277.24 424.484)
(334.57 -330.744 8.04351)
(400.269 422.227 -93.3143)
(876.201 491.316 -235.54)
(1342.29 -104.286 -256.311)
(178.018 312.259 -469.45)
(469.563 -1020.18 -460.426)
(790.329 -45.9407 -234.037)
(-471.748 247.445 406.094)
(49.6353 457.583 371.618)
(-714.982 489.208 275.183)
(201.991 -654.758 -328.433)
(-400.131 443.757 432.926)
(749.135 -63.7198 568.615)
(57.5893 292.203 355.948)
(-344.703 276.603 -393.002)
(-105.467 -1326.61 -485.024)
(-614.357 332.494 -316.2)
(546.328 558.797 228.063)
(826.523 998.833 -322.874)
(-449.504 -422.977 -123.585)
(1094.4 11.0092 135.146)
(752.467 659.366 -1047.43)
(594.05 177.756 241.298)
(870.335 -640.278 -363.654)
(721.436 -330.073 -1240.94)
(354.399 383.138 268.112)
(-114.419 -530.06 79.1587)
(-1010.8 992.934 80.1478)
(-222.395 771.563 -410.134)
(81.9358 -391.822 -354.68)
(569.849 -173.95 -106.77)
(370.422 161.704 343.418)
(-31.9719 457.961 -23.8272)
(1297.02 -113.802 9.34773)
(-166.957 -295.011 -41.2913)
(418.259 573.836 -556.604)
(711.853 -234.65 -267.278)
(559.917 -502.286 416.52)
(804.522 422.177 -117.78)
(-667.251 520.421 -4.84456)
(670.755 -644.932 469.992)
(916.657 -517.289 -187.844)
(128.711 -127.297 538.164)
(142.294 214.318 -691.336)
(-223.851 295.768 364.682)
(1342.28 -460.959 685.874)
(273.262 -640.783 -157.968)
(123.124 803.408 773.005)
(-158.203 -811.969 -831.183)
(-530.125 -659.308 361.3)
(779.483 935.206 37.5968)
(341.013 -861.304 -313.179)
(267.06 -229.303 546.132)
(390.36 671.82 -512.394)
(240.631 -207.697 1039.36)
(-241.981 -218.252 120.451)
(-745.608 -392.22 824.676)
(1151.51 361.986 -295.22)
(463.521 -89.6199 -1210.58)
(-255.61 411.12 36.853)
(-358.313 37.991 -554.412)
(-88.92 760.002 274.427)
(743.641 159.137 -124.858)
(-446.495 -11.696 290.484)
(-826.346 175.181 -195.764)
(-217.957 171.903 -916.844)
(244.361 -236.722 -680.162)
(328.964 -161.19 -188.261)
(-584.395 133.484 -186.132)
(-169.071 -314.973 -92.9464)
(-78.1083 -513.278 65.5676)
(-209.908 -535.268 17.7792)
(333.71 -667.822 171.917)
(-25.9228 384.588 -855.587)
(175.741 -228.676 -1282.41)
(355.462 709.432 -338.038)
(676.267 575.435 191.218)
(-715.175 -259.085 420.324)
(432.985 -550.296 548.7)
(549.699 456.599 246.606)
(-445.737 1586.79 -273.956)
(439.732 83.5653 630.032)
(-301.439 -981.267 -134.459)
(41.02 -367.865 538.621)
(223.078 -548.578 706.001)
(-329.673 672.661 10.0166)
(329.536 -126.313 -802.594)
(352.745 -211.234 380.576)
(-179.014 12.9937 -651.18)
(716.711 3.53512 470.882)
(-195.74 597.962 -413.721)
(293.868 -114.648 -448.832)
(96.8078 -16.8001 555.62)
(-418.078 -526.219 11.2262)
(384.313 492.139 216.529)
(68.8617 -1220.24 -239.077)
(458.493 -301.684 -754.631)
(-663.101 -885.47 -180.743)
(-493.341 -536.51 -103.559)
(-164.776 459.828 -855.443)
(-262.289 -200.405 -656.234)
(235.775 536.188 92.3791)
(-56.2153 253.545 638.666)
(296.157 695.378 15.9256)
(-11.7632 -103.611 -216.352)
(240.496 -77.6691 434.54)
(-137.462 132.907 -366.021)
(-976.381 -112.241 88.1998)
(188.64 -473.304 -30.9864)
(312.676 614.809 94.8961)
(635.806 514.656 305.716)
(185.408 -134.541 -176.727)
(-365.408 -103.697 164.202)
(72.1425 -303.709 55.4838)
(181.399 -178.64 -267.673)
(-202.406 -627.544 -111.293)
(-29.8588 -30.4182 668.564)
(92.022 647.456 -373.587)
(-148.8 -579.384 351.892)
(-142.4 272.008 -789.254)
(412.503 -1002.45 -454.032)
(-676.969 51.439 -123.12)
(-379.103 -239.243 -301.848)
(422.518 -294.762 -485.469)
(501.342 -633.013 938.499)
(-129.57 38.6756 -169.531)
(365.356 302.166 445.582)
(387.414 -181.542 -401.564)
(-746.455 -89.7019 11.901)
(459.417 46.7285 359.298)
(859.332 645.685 610.041)
(438.011 669.388 -395.482)
(-551.291 656.426 428.062)
(-400.048 -219.813 -691.901)
(575.063 850.103 868.584)
(-31.3078 -392.348 -546.941)
(-883.695 -196.963 226.678)
(442.953 17.7575 -195.692)
(-270.746 -906.474 28.832)
(-10.5958 -600.022 -219.963)
(-685.171 376.372 350.094)
(95.4752 84.9828 692.902)
(177.305 -702.045 -140.521)
(-801.511 48.0354 -545.299)
(71.5607 180.605 -374.962)
(535.001 -569.863 159.226)
(275.976 -442.529 1460.98)
(873.994 -631.679 25.3992)
(-831.273 -160.501 192.867)
(824.412 -988.108 934.087)
(38.4651 -430.676 690.737)
(473.431 -147.687 -160.746)
(567.103 255.371 217.107)
(-175.033 -118.952 271.194)
(-299.042 338.054 -102.855)
(-826.016 -200.742 255.832)
(30.6791 528.765 365.803)
(-463.824 -302.009 331.525)
(296.78 -465.499 -107.994)
(68.7126 -513.306 -37.9005)
(-28.3184 -462.265 -421.353)
(-685.396 68.41 974.987)
(189.086 554.994 703.179)
(574.96 1046.92 -492.346)
(819.935 869.4 1118.96)
(-603.684 -37.0529 -302.618)
(1095.16 -315.106 -677.718)
(-386.039 -367.241 -323.276)
(-373.677 -294.179 371.602)
(172.09 -350.755 -856.418)
(-334.351 -133.266 865.159)
(312.087 -222.527 1512.1)
(398.09 -439.344 328.343)
(-564.1 -591.757 437.864)
(-217.788 -411.378 -429.098)
(525.89 -400.993 257.124)
(953.909 -37.5533 -81.2383)
(-412.068 398.284 44.005)
(-295.53 333.991 -1279.26)
(-471.642 -600.594 681.222)
(332.709 -86.9876 -81.2724)
(1030.3 -814.619 108.021)
(360.21 120.906 1199.51)
(561.206 44.8532 181.68)
(74.0855 -171.19 1002.09)
(-552.008 518.87 612.869)
(-386.174 -834.979 308.211)
(-171.291 185.042 103.646)
(278.809 -554.704 317.138)
(216.61 184.781 -337.638)
(-569.101 7.56332 -106.268)
(188.302 56.9517 -525.44)
(467.665 1222.56 -109.857)
(-153.06 -69.5112 -69.5567)
(-588.115 180.549 -497.713)
(-520.209 -624.459 -184.098)
(580.166 -184.419 -21.4472)
(204.838 51.5697 11.0719)
(1127.77 -318.758 74.5403)
(-354.899 -263.274 802.209)
(295.084 721.696 95.7033)
(-599.461 217.613 586.742)
(160.817 569.786 -473.947)
(1074.99 -609.993 265.67)
(-602.782 748.153 146.044)
(518.218 463.634 156.901)
(386.256 -733.007 -844.204)
(55.0226 274.441 -260.272)
(402.571 741.886 -500.072)
(-28.5292 -432.387 -105.68)
(115.219 85.1753 267.525)
(486.323 485.492 936.482)
(-1134.5 542.425 -1163.56)
(255.418 -347.558 226.128)
(40.4579 16.8846 -33.51)
(-758.035 -149.836 -480.082)
(-372.178 -62.504 215.913)
(967.781 888.556 -104.458)
(692.175 282.771 -676.721)
(198.076 555.534 -507.401)
(130.813 -42.5216 163.492)
(202.252 -582.172 -365.456)
(-793.897 113.314 -385.592)
(-535.315 -259.149 -599.796)
(609.982 869.081 -716.39)
(-716.848 837.922 -483.225)
(-614.163 -395.536 106.707)
(969.368 134.25 144.284)
(1130.85 688.763 603.292)
(-70.825 257.615 -339.896)
(-374.017 -794.151 189.576)
(627.469 24.7921 -248.076)
(-74.9299 240.525 -729.138)
(894.518 -48.4414 -104.927)
(125.452 322.285 152.277)
(365.544 -732.826 -338.606)
(-716.627 -295.643 282.944)
(64.8896 -151.129 643.685)
(562.801 -491.172 -461.403)
(-52.4734 112.138 926.241)
(-381.177 407.071 -103.131)
(-412.383 291.994 -517.043)
(-130.537 240.829 1015.88)
(-693.298 1.16955 110.307)
(-439.034 -474.875 33.4158)
(-87.2539 292.325 193.519)
(76.351 863.108 -300.326)
(823.101 -244.375 -474.382)
(387.241 -484.329 26.5147)
(-448.528 88.5967 370.148)
(-87.3503 -279.406 -63.1948)
(-264.84 279.548 557.369)
(190.401 -370.147 -621.662)
(-775.744 -122.147 168.034)
(306.069 74.7816 -640.59)
(559.074 20.8285 161.548)
(159.433 75.4436 326.126)
(266.382 184.406 -103.913)
(290.671 -847.939 -295.281)
(-766.272 -779.816 -551.107)
(-395.249 -565.979 72.5336)
(-315.584 -562.564 -502.962)
(382.283 -339.789 -515.734)
(-645.233 296.235 -941.48)
(380.282 -206.051 -579.867)
(-250.308 476.096 -320.485)
(572.317 -239.564 88.384)
(1038.89 267.594 513.668)
(-547.083 -507.164 -36.3909)
(-142.49 -155.633 -64.584)
(-337.589 -44.9858 373.04)
(-151.992 -606.458 468.584)
(941.954 789.447 160.112)
(79.9286 254.884 853.976)
(-57.2986 -324.781 325.305)
(-243.925 -695.769 433.724)
(-787.102 119.311 -511.472)
(914.126 253.202 -178.809)
(-485.47 -277.411 381.893)
(419.855 786.832 -294.959)
(-713.609 562.463 208.209)
(-1051.84 -371.653 -155.649)
(-570.024 73.5155 476.912)
(-381.788 -595.431 965.892)
(601.791 -229.854 -453.26)
(-285.72 166.1 -990.97)
(-774.241 273.752 83.6535)
(-561.039 -162.995 -74.2679)
(988.488 -420.224 -417.146)
(-641.746 -113.371 -818.024)
(-650.662 558.671 -533.683)
(288.113 88.9766 133.914)
(-100.545 325.319 -37.3887)
(618.934 -129.245 -406.862)
(-216.368 45.4869 -591.494)
(-25.335 -512.035 -298.536)
(552.478 -189.538 150.568)
(8.65521 382.101 -330.608)
(-141.946 196.687 -312.979)
(-687.557 -165.788 891.542)
(-286.135 457.701 552.073)
(265.523 403.227 -408.617)
(129.113 261.139 51.3406)
(-130.327 -684.326 -505.843)
(-273.095 106.105 86.854)
(-69.0557 575.482 -510.952)
(-265.226 -354.298 -688.638)
(-210.472 460.165 490.805)
(457.047 -405.266 336.366)
(482.528 542.559 169.436)
(-364.591 -80.208 -256.761)
(-701.863 -746.214 -639.665)
(366.547 -354.189 -508.395)
(-315.009 121.413 -169.147)
(-17.302 32.5744 213.312)
(1190.62 315.453 383.757)
(-310.971 591.975 368.847)
(-80.7719 780.351 -317.606)
(124.517 -553.442 95.143)
(-112.778 -233.222 -550.866)
(-993.973 -69.473 -1306.32)
(-39.8719 -254.709 -176.356)
(-407.306 408.79 546.311)
(1695.9 -622.28 -882.268)
(-457.419 -233.33 122.426)
(313.378 494.691 -278.256)
(-357.445 -398.291 -259.362)
(250.007 -356.951 229.33)
(470.712 222.025 -156.534)
(297.231 -556.742 403.951)
(134.705 -72.3136 -118.156)
(495.606 339.629 41.2325)
(-810.443 -578.207 -962.487)
(582.119 450.937 -194.504)
(332.926 415.215 226.636)
(294.463 344.007 -291.038)
(347.455 -198.027 -378.58)
(461.7 -282.762 615.028)
(361.365 -342.9 374.593)
(106.8 645.659 927.858)
(613.377 789.369 614.283)
(402.118 -147.064 -632.133)
(1259.38 721.894 -698.877)
(403.07 -39.0635 88.932)
(829.609 759.705 384.279)
(521.903 213.949 -614.935)
(274.936 747.053 590.642)
(162.749 332.135 660.021)
(-964.435 -233.771 238.014)
(74.1188 457.82 -22.3537)
(-116.508 292.45 518.216)
(296.055 312.074 230.66)
(1107.81 -106.646 233.586)
(-923.803 175.129 684.936)
(-220.324 387.723 -866.077)
(752.184 -266.423 -1035.3)
(610.873 -318.447 -295.728)
(-1294.89 501.788 759.531)
(415.903 -538.563 -775.191)
(489.441 -107.407 -32.8215)
(976.75 -868.154 -849.592)
(-35.4597 274.774 423.114)
(-357.878 -354.268 70.3875)
(527.548 138.316 -40.4352)
(109.534 -162.508 -882.441)
(-363.407 -545.437 -343.705)
(216.584 -500.154 -538.878)
(381.807 958.541 646.893)
(-44.2438 45.8827 -105.942)
(196.889 -523.868 867.518)
(-54.6438 -51.2169 348.369)
(-1270.51 244.656 101.734)
(-103.934 189.128 -205.775)
(919.372 -720.103 -616.661)
(560.169 -723.178 -244.486)
(600.795 20.8698 433.917)
(315.539 -95.1276 -601.899)
(-620.587 3.00426 346.824)
(-34.4239 -408.128 1111.12)
(287.766 -246.949 -208.639)
(162.06 621.794 -87.1359)
(221.461 67.3473 313.921)
(131.016 219.817 325.632)
(-22.8681 418.338 -490.876)
(211.784 75.5948 109.161)
(583.95 929.91 514.188)
(-91.1321 -400.85 210.883)
(-102.035 -337.297 512.34)
(221.177 -324.209 -352.101)
(738.681 0.731221 361.806)
(-439.084 -420.449 -477.517)
(-478.369 556.294 -601.336)
(110.869 -261.741 712.655)
(177.572 -503.843 -402.05)
(-27.4578 -458.521 173.49)
(268.993 538.928 -554.192)
(638.426 -544.759 -526.717)
(-307.785 205.343 88.9525)
(-217.406 447.049 -186.267)
(76.7719 -626.871 -353.153)
(739.165 -503.406 430.843)
(219.31 -1128.41 517.701)
(484.407 126.403 -173.812)
(-23.106 -584.876 -405.741)
(20.4259 529.5 345.26)
(276.946 798.419 -506.66)
(790.662 -42.7166 683.598)
(158.453 586.375 499.851)
(179.045 755.711 17.384)
(1030.64 632.623 -118.488)
(124.728 278.659 167.781)
(93.6416 440.112 804.385)
(73.1445 823.854 -744.522)
(-635.406 1098.16 194.539)
(931.401 550.185 -235.954)
(987.69 97.4213 1.40684)
(531.482 -259.476 -419.043)
(-357.427 -191.42 -478.083)
(412.048 107.559 43.1826)
(-272.947 202.9 -190.999)
(-302.028 -1088.95 -1081.46)
(949.221 61.5913 -577.98)
(-464.452 95.6446 -1138.7)
(5.81045 -304.527 -122.669)
(403.228 -364.165 -233.584)
(186.287 -271.064 -107.639)
(803.533 -371.288 532.196)
(-241.185 182.111 818.673)
(168.872 -216.813 -348.064)
(-1223.32 -1079.98 560.386)
(-428.164 -792.706 -572.806)
(-476.914 -484.327 421.686)
(-291.247 618.342 649.635)
(640.71 429.448 1130.49)
(-176.629 -188.475 -60.497)
(-660.119 721.015 -517)
(806.872 948.599 344.994)
(-264.346 539.256 200.471)
(-59.294 271.443 27.0887)
(167.325 -302.362 329.749)
(559.104 894.518 6.65771)
(-233.572 197.79 137.829)
(-373.798 12.0104 204.142)
(491.059 -448.899 -94.786)
(-579.957 -221.787 654.995)
(523.716 -358.91 754.334)
(532.797 528.776 -159.446)
(-713.04 -1046.45 3.32705)
(-105.948 -20.038 472.659)
(-482.293 -66.5507 85.8325)
(719.597 -321.161 694.601)
(-509.529 77.7806 110.737)
(263.455 554.562 -309.69)
(157.218 228.453 270.566)
(310.83 -245.051 -410.257)
(-194.14 -337.536 189.11)
(845.804 -4.94908 -157.488)
(-350.116 -483.976 213.884)
(2.19243 16.889 23.4562)
(114.272 -1.92242 674.15)
(-1129.99 -700.599 -449.21)
(417.063 -215.873 -551.762)
(623.775 -340.718 1190.26)
(35.4878 -386.702 447.96)
(-210.242 243.011 209.416)
(-410.01 -132.325 19.3114)
(498.583 -612.583 -166.097)
(-312.957 217.164 266.279)
(244.659 -34.2029 140.036)
(-537.585 -205.06 -243.734)
(278.497 -845.148 8.03277)
(273.845 517.916 636.47)
(567.083 582.615 849.485)
(-104.751 -286.035 -92.7381)
(1166.61 199.943 -146.828)
(1149.57 -1058.16 42.7308)
(361.31 -391.89 -381.907)
(1516.88 -616.749 -815.177)
(221.926 -395.86 569.314)
(-15.0746 803.075 549.448)
(-796.517 701.922 -869.993)
(106.926 -285.678 607.364)
(250.855 -121.145 -11.7741)
(449.805 9.91256 219.572)
(229.156 1023.59 -255.528)
(688.639 221.97 107.156)
(132.029 -614.38 432.688)
(-789.24 -876.445 259.257)
(503.477 -656.327 111.514)
(-249.913 -457.945 -100.172)
(49.3247 -317.456 1023.89)
(-64.3647 -466.854 821.224)
(-345.785 972.401 -140.859)
(-248.474 306.966 79.0287)
(-123.727 578.928 -160.447)
(350.414 -597.673 -72.7527)
(692.87 -78.2038 49.9956)
(56.9313 -73.37 1450.78)
(560.795 -237.093 -922.513)
(-208.199 -75.761 -152.068)
(-14.2303 506.353 -638.182)
(-44.8166 297.769 43.4063)
(888.984 -580.356 -1050.29)
(330.033 -125.361 128.438)
(818.495 176.42 -50.0353)
(98.7021 -201.186 146.254)
(716.317 348.841 -145.476)
(569.24 188.776 -1393.13)
(395.367 -1167.58 586.299)
(116.66 -297.626 -269.314)
(-216.046 -294.037 -19.2693)
(950.017 384.549 472.946)
(-295.022 -196.636 250.513)
(628.096 -108.461 106.027)
(594.947 308.538 -684.255)
(-370.387 -660.702 -229.666)
(373.59 437.633 298.674)
(-270.92 569.828 -192.626)
(46.3643 -590.501 -147.438)
(78.4335 -22.451 434.488)
(-188.061 -82.9367 469.021)
(-131.914 57.4524 167.694)
(-552.23 757.356 1071.32)
(-160.792 76.2641 -116.756)
(393.484 -596.685 469.312)
(-321.393 568.992 -343.653)
(-562.454 1023.99 280.086)
(679.501 541.828 -275.804)
(470.314 -594.471 -182.843)
(-446.86 -31.0398 594.75)
(-19.317 -753.332 -7.76707)
(719.706 -15.3183 711.374)
(29.8148 216.761 -223.051)
(308.325 462.106 728.039)
(240.486 37.8561 422.725)
(420.451 748.701 -208.055)
(590.389 28.5866 593.601)
(-465.511 37.5088 -470.608)
(-698.649 -428.155 -684.427)
(-1043.15 959.721 -315.474)
(-329.486 -633.271 -182.759)
(658.509 -679.69 343.797)
(813.432 741.914 39.6821)
(442.343 -371.361 -460.857)
(69.4233 546.783 688.309)
(357.865 -398.353 513.252)
(-300.947 -527.502 618.72)
(720.353 -706.014 -452.406)
(36.3899 -127.454 -845.128)
(-491.075 -292.094 -1196.77)
(895.208 367.443 -280.52)
(149.786 86.5876 344.828)
(42.4948 73.8375 -808.804)
(71.8022 -7.1584 -156.381)
(423.221 196.217 641.727)
(94.5102 -521.142 -626.387)
(-110.335 174.817 -44.658)
(1017.31 -308.713 -91.2648)
(-445.071 -450.677 425.79)
(89.8995 181.748 823.113)
(-112.401 -144.71 -412.236)
(535.136 -217.534 -90.6497)
(171.859 277.874 -18.4767)
(221.919 590.477 -540.17)
(-380.158 -628.971 79.9365)
(1100.81 277.482 542.319)
(774.951 -268.565 150.967)
(330.335 -157.652 -486.673)
(-389.326 326.836 458.315)
(-522.919 -141.474 -12.1242)
(801.311 185.849 194.274)
(408.936 -650.769 -493.186)
(882.379 -285.706 306.898)
(861.041 -635.536 357.877)
(717.34 485.43 145.084)
(-434.035 429.312 -606.67)
(-430.886 -535.421 13.9883)
(78.9148 -25.7039 -822.141)
(283.569 -265.464 -311.839)
(803.096 417.822 40.8322)
(433.523 -443.967 -213.196)
(518.857 4.81318 -341.888)
(907.133 -598.031 -669.139)
(-19.1014 657.259 761.813)
(-297.585 100.603 236.282)
(-602.77 -583.98 -51.0572)
(301.328 -84.571 167.678)
(246.922 455.786 376.598)
(274.822 492.383 -309.27)
(-270.172 -184.814 -71.7346)
(515.834 -87.3011 -329.498)
(369.214 -26.1412 -503.514)
(95.2816 -320.344 297.484)
(190.225 241.772 650.719)
(-580.039 596.805 128.739)
(98.5738 48.2867 377.051)
(351.823 217.157 98.1268)
(150.041 -770.456 199.668)
(22.7231 162.618 -55.9598)
(-166.775 -530.218 -291.662)
(135.125 150.311 581.861)
(415.236 17.9203 44.3822)
(1207.78 -370.619 -228.936)
(755.21 306.342 946.663)
(332.849 -229.881 631.005)
(274.613 -1077.93 20.7723)
(146.834 90.1046 -926.078)
(45.3443 -276.464 -731.324)
(-337.836 -487.201 711.119)
(-225.212 218.113 203.943)
(246.638 766.245 535.228)
(771.593 27.6898 1245.21)
(857.601 -16.9356 245.565)
(1026.63 -518.444 -336.695)
(138.029 1024.6 -468.184)
(-272.26 938.787 -521.848)
(393.14 110.347 749.398)
(-45.9843 -1087.99 970.219)
(481.029 317.426 741.807)
(504.237 -446.517 -678.16)
(441.963 239.102 26.2736)
(-239.019 819.089 -246.301)
(75.7748 -642.116 304.536)
(-41.9378 -348.336 -80.2783)
(209.543 69.1329 67.2444)
(-202.5 164.064 -843.075)
(-442.014 -657.586 124.344)
(-610.735 -476.831 -42.9963)
(856.809 1004.46 -194.755)
(56.4393 -411.43 1254.14)
(-516.803 -368.218 -997.063)
(-97.1857 -598.282 -3.05843)
(589.741 -157.821 70.9844)
(-394.212 111.836 466.607)
(112.478 256.396 798.283)
(254.085 -692.945 644.974)
(923.142 -419.048 314.815)
(198.287 -350.674 45.6771)
(-71.3169 34.8687 -482.879)
(-375.483 18.5781 347.054)
(-672.676 -442.679 15.0896)
(-591.226 149.82 -601.898)
(-435.909 -30.488 63.0257)
(-599.449 -187.911 -172.728)
(-53.7868 280.225 321.993)
(540.21 -842.143 -637.651)
(-69.4367 -707.027 642.157)
(-338.257 515.079 307.989)
(83.6656 -581.564 145.924)
(-385.349 -359.823 -255.498)
(-184.954 1150.69 124.37)
(114.651 -521.938 -156.876)
(-18.1087 -530.89 -1842.41)
(209.483 108.163 329.44)
(-40.1086 293.486 389.604)
(64.6518 272.714 -383.135)
(399.651 -893.958 6.72204)
(464.415 127.622 558.791)
(-370.121 -80.0492 -109.395)
(-415.675 -582.207 1129.2)
(-412.985 -326.081 -194.08)
(276.604 217.217 -187.273)
(-108.27 730.012 271.482)
(217.093 118.92 -809.543)
(650.972 69.2451 -535.295)
(-724.812 -552.206 -445.666)
(-676.615 -109.308 1047.2)
(239.55 -575.528 48.9911)
(-54.7699 -1046.95 -731.681)
(56.752 106.373 1109.89)
(917.216 -758.628 -747.041)
(-38.6908 392.786 -85.8595)
(201.036 146.478 707.544)
(136.502 -73.2835 14.0877)
(-466.121 -40.7666 636.732)
(1138.31 250.678 -239.563)
(-305.754 -541.032 -189.218)
(48.9265 840.05 -252.636)
(730.779 1060.63 -157.656)
(-282.185 -340.144 -538.446)
(674.043 -230.782 -13.09)
(-502.147 -321.021 -711.172)
(710.439 -254.088 -321.573)
(580.416 411.087 -836.303)
(1033.64 -556.896 628.675)
(872.384 546.072 -929.835)
(107.903 510.036 1501.81)
(28.1561 113.831 279.281)
(-226.092 15.2108 -66.8089)
(350.637 -701.337 -311.75)
(-73.8391 -243.537 395.926)
(-278.318 525.642 136.874)
(812.305 254.983 -876.112)
(-110.217 225.545 -264.999)
(-105.438 -863.997 398.108)
(261.72 382.639 9.01499)
(706.42 -3.38261 -254.051)
(215.668 927.298 617.538)
(614.703 -168.362 -101.616)
(134.976 -269.626 194.563)
(-1282.73 45.4206 -150.566)
(121.592 -475.984 32.9932)
(136.733 548.949 -648.45)
(-666.144 -489.823 351.545)
(34.9127 -40.5053 352.825)
(435.366 674.117 345.074)
(1062.02 -287.902 -199.149)
(-28.3449 -208.801 273.914)
(-164.015 136.819 313.495)
(-354.931 -687.23 -386.636)
(52.8413 482.563 215.596)
(-217.858 -793.922 181.997)
(-815.636 20.1153 -500.124)
(-177.559 270.043 346.379)
(-104.314 640.225 -233.306)
(-128.715 92.1468 350.69)
(-547.932 380.192 285.041)
(-19.903 498.638 142.975)
(271.938 278.538 -613.213)
(996.213 -420.721 -648.136)
(279.524 717.99 150.592)
(-32.9504 -1083.41 -786.691)
(181.758 -453.634 105.054)
(430.604 -710.632 -242.391)
(-509.338 270.119 -341.386)
(-294.068 170.935 360.219)
(110.962 -64.5776 712.644)
(416.886 521.588 -707.676)
(572.477 95.7914 164.372)
(293.318 -1250.04 694.355)
(1413.01 -768.337 -92.5526)
(110.517 901.18 -205.695)
(308.185 -69.9589 212.999)
(-313.466 -187.122 670.475)
(985.511 -499.659 -530.076)
(-685.156 387.152 -330.186)
(27.3886 -191.195 -290.347)
(248.697 591.56 308.29)
(-11.8555 208.828 -506.955)
(-621.727 1287.49 521.953)
(-510.09 -182.978 -201.83)
(30.4973 -17.8169 598.108)
(-38.2191 321.336 -20.9539)
(21.2891 -780.947 -247.292)
(70.0942 -28.2002 -543.341)
(-897.504 268.282 560.626)
(934.243 553.801 305.101)
(485.778 474.899 -51.3842)
(-53.6072 -1178.83 138.626)
(-544.461 -832.072 -131.435)
(-423.953 1036.02 -195.96)
(-222.618 -375.39 55.5371)
(-236.193 -627.364 -478.118)
(1169.21 704.368 130.757)
(163.801 78.1527 275.493)
(249.12 -736.319 -490.271)
(979.899 262.05 -236.476)
(-812.43 -1278.72 742.469)
(669.974 -266.381 416.437)