/*--------------------------------*- C++ -*----------------------------------*\
  =========                 |
  \\      /  F ield         | OpenFOAM: The Open Source CFD Toolbox
   \\    /   O peration     | Website:  https://openfoam.org
    \\  /    A nd           | Version:  7
     \\/     M anipulation  |
\*---------------------------------------------------------------------------*/
FoamFile
{
    version     2.0;
    format      ascii;
    class       scalarField;
    location    "0.00252/lagrangian/dsmc";
    object      Ei;
}
// * * * * * * * * * * * * * * * * * * * * * * * * * * * * * * * * * * * * * //


18245
(
5.47282e-21
5.28859e-22
2.55858e-21
2.87716e-21
3.76085e-22
2.61764e-20
3.19639e-21
4.11607e-21
2.49899e-21
1.02479e-21
1.30695e-20
1.85328e-20
8.3518e-21
3.72126e-21
3.32816e-21
2.97969e-21
1.18588e-20
1.38441e-20
3.50964e-21
7.96161e-21
2.85097e-20
7.92315e-21
5.59532e-21
2.55891e-21
3.47869e-21
5.53993e-21
7.71151e-22
6.0614e-21
6.75851e-21
3.86879e-21
7.71091e-22
4.97802e-21
7.91416e-22
4.72104e-22
1.06006e-22
6.98698e-21
2.17355e-21
5.69617e-21
3.29827e-21
2.77707e-21
1.69078e-20
2.97458e-20
3.06815e-21
1.56218e-20
1.33022e-20
1.04469e-20
2.92875e-20
5.94413e-21
5.22949e-21
7.42434e-22
1.77231e-20
1.1828e-20
3.66992e-21
1.16296e-21
1.05775e-20
3.11097e-21
3.09624e-21
2.55448e-20
2.29577e-21
1.28585e-20
9.55907e-22
6.02324e-21
3.05585e-21
5.07022e-21
5.7841e-21
1.48999e-20
1.2974e-21
2.91741e-21
5.82943e-23
5.99074e-21
6.11005e-21
1.36698e-22
5.90581e-21
1.90467e-20
1.09673e-20
1.75573e-20
3.93799e-20
2.73786e-21
1.48363e-20
5.38686e-21
1.61855e-20
2.40684e-20
1.41658e-21
2.0556e-20
1.09777e-20
2.26664e-21
2.41687e-20
3.90837e-21
9.17165e-21
4.8928e-21
4.83111e-21
2.84087e-20
4.04912e-21
3.79962e-21
4.31554e-22
3.70209e-21
1.83486e-22
2.20778e-21
3.84738e-20
7.22257e-21
1.2754e-20
3.21208e-22
1.36192e-20
1.24397e-20
2.08174e-22
9.21578e-22
6.63569e-21
3.40009e-21
5.4528e-21
5.93122e-22
1.18018e-21
1.10724e-20
1.40202e-20
7.99902e-22
3.21153e-20
3.85631e-22
2.45678e-21
1.51267e-21
1.07026e-20
1.66626e-21
5.25296e-21
1.10448e-20
1.04098e-21
1.58634e-20
1.11053e-20
1.35706e-20
4.34058e-22
1.20771e-20
6.88731e-21
3.40713e-20
3.92829e-21
5.08126e-21
1.23111e-22
1.3613e-21
4.28465e-20
6.12358e-21
6.38874e-21
2.15781e-21
4.79208e-23
1.25759e-21
1.05297e-20
6.18903e-22
8.24652e-21
1.64781e-20
8.22322e-21
5.00234e-21
1.14702e-21
2.94742e-21
1.60198e-20
2.60908e-21
2.6553e-21
1.79852e-21
9.61239e-21
2.20493e-21
1.29927e-20
2.00727e-20
6.28204e-21
3.2037e-21
3.52624e-23
1.94644e-22
4.10799e-21
5.12188e-21
9.08113e-21
2.80535e-20
1.32989e-21
2.07395e-21
3.71449e-22
7.20181e-21
9.92548e-22
2.29747e-21
6.91674e-22
2.89097e-22
7.52724e-21
5.72221e-21
1.53968e-20
1.51242e-20
1.65389e-21
9.70353e-21
9.82371e-21
1.87998e-22
4.20144e-22
6.45857e-21
8.33554e-21
7.64924e-21
4.71088e-21
7.37816e-23
1.24723e-20
4.69823e-21
2.72578e-21
6.33331e-21
1.66851e-21
5.20998e-21
1.71997e-21
2.47375e-20
1.07474e-21
9.87054e-22
4.03551e-21
2.68016e-21
6.29102e-21
8.57815e-22
1.4133e-22
3.13133e-21
1.01213e-20
9.03499e-21
2.61089e-20
7.38188e-21
1.14293e-20
3.25039e-20
1.81199e-20
8.76086e-21
3.49442e-20
1.47985e-20
4.21398e-21
1.20798e-20
4.92551e-21
8.70468e-21
7.62028e-22
8.53098e-21
2.73678e-21
8.51206e-21
1.54508e-21
4.88489e-21
1.7981e-20
1.5921e-20
2.90371e-22
7.14952e-21
7.17224e-22
1.5235e-20
5.98304e-21
2.61942e-21
2.66525e-21
1.43149e-21
2.00473e-21
1.75124e-21
1.16868e-20
1.18792e-20
1.81135e-20
2.0255e-20
2.04527e-20
2.33136e-20
6.38427e-21
2.42774e-23
2.83453e-21
1.43795e-20
9.04243e-21
1.03253e-21
1.257e-20
8.30926e-21
3.978e-21
3.85875e-21
1.00766e-20
3.48641e-20
1.33044e-20
7.77278e-21
5.17551e-21
8.56332e-21
1.86938e-20
8.23157e-21
5.64488e-21
5.7458e-21
3.43365e-21
1.72977e-20
7.6597e-21
1.35998e-22
5.48644e-21
1.18687e-20
8.00505e-21
1.4179e-21
1.15631e-20
9.04867e-21
1.18985e-21
3.3845e-21
1.33777e-20
1.77889e-21
8.13029e-21
8.16648e-21
2.20179e-21
5.10501e-21
1.51479e-20
5.07409e-21
3.7983e-21
2.36571e-20
5.99583e-21
6.19735e-21
1.84498e-20
1.21406e-23
2.43902e-20
1.47913e-21
5.49013e-21
8.70312e-21
2.52083e-21
1.05974e-20
3.20619e-21
1.16507e-21
8.27492e-21
3.8036e-21
4.68671e-21
7.74746e-21
3.91462e-20
3.38226e-21
8.55524e-21
5.61958e-21
3.36058e-22
6.07195e-21
6.9313e-21
7.94373e-21
1.32422e-20
1.50632e-20
9.23585e-21
5.61991e-21
4.61164e-21
1.29353e-20
2.45098e-20
9.96106e-22
1.05962e-20
1.66558e-21
9.65584e-21
2.19153e-20
4.29768e-21
3.6498e-22
7.29505e-21
9.68683e-21
1.33342e-21
8.69945e-21
1.31732e-20
3.97106e-21
1.90164e-20
1.84627e-20
1.92859e-21
1.39529e-20
1.30503e-20
3.31841e-21
2.24834e-20
2.69025e-21
9.20158e-21
1.70709e-20
1.37983e-20
2.44814e-21
2.1229e-21
6.12332e-21
4.16501e-21
2.40624e-22
8.96576e-21
3.96553e-21
3.24591e-21
2.48177e-20
4.4491e-21
1.53891e-20
1.22019e-20
3.12419e-22
1.98061e-20
5.54496e-22
7.84781e-21
8.91876e-21
8.04187e-21
1.01124e-20
1.76839e-22
1.9763e-23
2.45095e-21
2.22121e-20
8.42052e-21
3.86668e-21
9.71517e-21
9.54035e-21
7.2899e-22
1.50105e-21
9.28844e-21
6.56034e-21
9.94379e-21
1.19616e-21
1.2342e-21
5.16729e-23
2.48529e-20
2.77785e-20
6.34421e-22
2.13403e-21
1.64976e-21
6.1924e-23
6.6191e-21
1.10978e-23
5.91323e-22
9.1121e-22
1.54619e-21
1.23293e-20
1.41588e-22
4.68327e-22
8.87063e-21
5.95292e-21
1.93601e-21
5.45228e-22
6.8458e-21
1.04758e-20
2.14765e-20
1.23822e-20
8.71002e-21
3.73484e-21
3.68299e-22
5.87313e-21
1.09725e-21
4.37705e-21
1.10458e-20
1.61791e-20
1.33607e-21
1.19761e-20
4.29461e-21
1.07173e-20
1.25905e-22
4.04886e-21
9.35467e-22
3.37435e-21
2.04326e-21
4.54231e-21
4.40193e-21
6.86832e-21
3.79195e-22
3.73755e-21
3.7027e-22
1.59684e-20
1.07386e-20
6.32708e-22
4.24198e-21
2.14141e-21
6.39745e-21
3.95764e-22
6.35605e-21
5.19176e-21
2.92506e-20
1.0689e-20
2.57477e-21
9.28602e-21
9.3814e-23
2.34846e-20
1.10862e-20
1.64822e-20
5.52914e-21
1.31092e-20
4.68646e-21
2.40318e-20
2.07789e-20
3.03712e-21
1.22567e-20
2.46022e-21
6.85134e-21
1.57213e-20
6.07974e-21
3.28539e-21
1.90061e-21
8.0806e-22
3.51946e-21
1.27552e-20
2.35809e-21
3.26797e-20
7.50858e-21
5.08632e-20
3.1944e-21
2.3116e-21
3.31115e-21
6.18979e-22
7.3276e-22
3.3553e-20
1.24224e-20
2.27235e-20
1.71401e-21
3.4652e-21
6.94545e-22
1.86579e-21
2.81902e-21
2.61464e-21
1.22831e-20
4.20746e-21
5.65876e-22
2.769e-21
1.87519e-20
1.67166e-20
7.11903e-23
1.01539e-20
1.34589e-20
9.05481e-21
7.93892e-21
1.30305e-22
7.12445e-21
9.00711e-21
6.87596e-21
1.18601e-20
5.92215e-21
7.83602e-21
1.51853e-21
2.26219e-20
1.71043e-20
4.2257e-21
4.03929e-21
2.02249e-20
1.43539e-21
3.94725e-23
2.6681e-21
1.18079e-21
4.54438e-21
6.57518e-21
2.39812e-21
2.2482e-21
2.17121e-21
8.6646e-22
1.24484e-21
2.94953e-21
9.15135e-21
1.56769e-20
1.12743e-20
3.4973e-21
2.70672e-20
3.96299e-21
1.39888e-20
1.20506e-20
7.80801e-21
4.22601e-21
2.52008e-21
3.19817e-21
8.01175e-21
3.58775e-21
2.87015e-21
3.94705e-21
8.72568e-22
1.11114e-20
1.48458e-20
4.66517e-22
4.51034e-21
5.57904e-21
1.11918e-20
1.56241e-20
3.35833e-22
7.05435e-21
3.11528e-20
1.95553e-21
1.27446e-22
1.56397e-20
2.60449e-21
9.19549e-21
3.53485e-21
3.7814e-21
1.40912e-20
1.19564e-20
2.27239e-21
6.44583e-21
4.25275e-20
1.13686e-21
3.95763e-21
9.54155e-22
9.00184e-21
1.04647e-21
1.50739e-20
8.72081e-21
1.67403e-21
2.63586e-21
9.2306e-21
1.70361e-20
4.40386e-21
1.01265e-20
3.02249e-21
6.00154e-22
1.05165e-20
3.06683e-21
3.48803e-21
2.42689e-21
2.17485e-20
1.84523e-20
4.84352e-21
3.78517e-22
3.77141e-21
1.29267e-20
3.26357e-23
1.02381e-21
7.25199e-21
4.1348e-21
1.58386e-20
6.81968e-21
3.95045e-21
1.25517e-20
1.92747e-21
1.13922e-20
6.64412e-21
8.03525e-21
1.36113e-20
5.63025e-22
7.24908e-21
7.70568e-21
1.5285e-20
1.2849e-20
7.21137e-21
1.47506e-20
8.94431e-21
1.30588e-20
1.68315e-20
1.0266e-20
6.48783e-22
1.32327e-20
2.1205e-21
5.77716e-21
1.8141e-21
1.39854e-21
1.16044e-20
8.19295e-22
2.87456e-21
2.58899e-21
7.23977e-22
1.62074e-20
9.87473e-21
4.55583e-21
1.15705e-20
2.22777e-21
2.96287e-22
7.82229e-21
3.49191e-21
1.87002e-20
5.0539e-21
9.3546e-21
1.3133e-20
1.13305e-20
3.00783e-21
1.39956e-20
2.97471e-20
2.82614e-23
5.51258e-21
7.07294e-21
1.0626e-20
5.12702e-21
3.78391e-22
1.02826e-20
6.90641e-21
8.54075e-22
1.79289e-21
8.28676e-21
1.82782e-22
5.85649e-22
7.06416e-21
1.5135e-21
1.04016e-20
3.51829e-21
1.61362e-20
1.4999e-21
1.05626e-20
3.22681e-22
3.04752e-21
1.45205e-21
1.19014e-20
1.44051e-20
7.32085e-22
9.43549e-21
5.44591e-23
2.55114e-21
6.8959e-21
2.11096e-21
2.3038e-21
7.52378e-21
5.26683e-21
3.15459e-21
5.42677e-21
9.98234e-21
3.9537e-21
4.92288e-22
1.06548e-21
2.52547e-21
2.37455e-20
5.73823e-21
2.15414e-21
2.14614e-21
5.23978e-21
7.88607e-22
2.35051e-20
5.74976e-21
1.14992e-20
1.998e-20
4.02375e-21
9.19299e-21
8.9349e-21
1.51298e-20
2.3649e-21
1.01702e-20
4.09338e-22
4.70031e-21
1.70633e-22
2.09188e-21
4.38512e-21
2.61966e-21
5.85298e-21
2.63401e-20
1.75015e-21
3.70334e-20
4.34728e-21
8.67234e-21
5.38625e-22
7.1804e-21
6.30994e-21
2.78903e-20
1.17557e-20
5.01949e-21
1.77421e-21
1.96303e-20
2.30218e-21
7.33633e-21
1.12566e-20
3.31007e-21
1.95013e-21
6.54475e-22
8.74296e-22
5.29369e-21
2.61821e-21
9.31089e-21
2.88092e-20
1.38238e-20
4.0004e-21
1.34284e-20
2.59351e-21
1.78848e-20
1.03809e-20
2.71459e-21
1.71669e-21
2.31018e-22
8.85098e-21
1.38988e-21
7.18648e-21
1.07756e-20
7.54244e-21
7.82546e-21
1.40411e-20
1.09397e-20
6.08611e-21
9.34671e-23
2.40333e-21
1.6377e-20
7.8818e-21
5.85985e-21
3.17502e-21
4.25182e-20
2.97797e-21
7.50222e-21
9.1397e-21
7.60049e-21
3.57308e-21
1.95404e-21
3.66376e-21
2.94652e-20
1.10605e-20
2.40318e-21
2.13122e-22
4.56585e-22
9.09132e-21
2.05518e-21
1.32439e-20
3.83877e-22
2.09333e-21
1.06027e-20
7.09621e-21
1.11563e-20
2.05784e-21
2.02555e-20
1.88101e-20
1.12837e-20
1.25988e-21
4.62148e-21
6.5052e-21
7.73793e-21
2.22447e-20
3.94596e-22
1.62074e-20
4.49558e-21
4.8814e-21
2.714e-21
9.12707e-21
1.11054e-20
4.97293e-21
1.7716e-21
1.06754e-21
3.52727e-21
6.67308e-21
1.67597e-20
1.24737e-20
1.17685e-20
1.00019e-21
4.29495e-22
1.17452e-20
4.1772e-21
2.21842e-20
1.62841e-20
6.58252e-21
4.96175e-21
1.01793e-20
1.502e-21
1.92387e-20
2.33959e-20
5.77927e-21
6.79304e-22
1.97501e-22
6.27928e-21
2.43618e-21
2.59094e-21
6.53547e-21
1.72888e-20
1.63883e-22
1.35137e-21
1.52906e-20
2.13414e-20
2.56374e-21
2.21436e-20
5.40801e-21
1.29521e-20
1.39418e-20
3.69115e-23
1.00321e-21
6.10277e-22
8.87231e-21
2.82859e-21
2.55552e-20
1.72037e-20
8.61787e-21
2.87824e-21
8.73545e-21
4.80057e-21
1.74309e-20
1.82781e-20
3.52993e-21
8.44509e-21
6.5056e-21
4.0305e-21
2.05037e-21
6.86736e-21
3.01675e-21
8.61486e-22
1.61226e-20
1.28147e-20
1.22819e-22
1.08001e-20
3.99946e-21
1.148e-20
6.51393e-21
1.84163e-21
1.03424e-21
3.1313e-21
9.74421e-22
5.91073e-21
1.0379e-20
8.74236e-21
2.0537e-20
1.21995e-20
3.11705e-21
8.62249e-21
1.52916e-21
8.42186e-23
2.44069e-21
1.28257e-21
8.12954e-22
2.96081e-20
1.74652e-20
4.50085e-21
4.15218e-21
7.93106e-21
3.49225e-21
1.00529e-20
1.44301e-20
8.16692e-22
3.86567e-21
1.87976e-20
2.38206e-20
6.42351e-21
2.10579e-21
7.19013e-22
1.23386e-20
1.11977e-20
1.02163e-21
3.96657e-21
4.73503e-21
2.31634e-20
1.10789e-20
2.29027e-22
2.39625e-21
2.20524e-21
1.12061e-20
1.09926e-20
3.60548e-20
1.49843e-20
4.47649e-21
5.91225e-21
1.86561e-20
4.12729e-22
5.58469e-21
3.3646e-21
2.12619e-20
1.25674e-20
5.23366e-21
5.38204e-21
1.28186e-20
2.03662e-21
3.61549e-21
9.87523e-21
5.70199e-21
1.67772e-21
2.24432e-21
1.4164e-20
1.50994e-21
6.87355e-22
6.62576e-21
3.64489e-21
1.79557e-21
1.53661e-21
4.43275e-21
1.22025e-20
1.75578e-20
4.18398e-21
9.37764e-21
8.61834e-21
1.05392e-20
1.49437e-20
8.74064e-21
5.61294e-23
2.54719e-21
9.90764e-21
1.04831e-21
8.71575e-21
2.90158e-21
6.89123e-21
3.53176e-21
2.17733e-20
6.84094e-21
4.07779e-20
8.05667e-21
1.51837e-21
5.66726e-21
9.9463e-21
8.2737e-22
1.42831e-20
3.77862e-21
5.3488e-21
9.61354e-22
1.33407e-21
1.55638e-20
5.13458e-21
2.02741e-20
6.03674e-21
5.35322e-21
1.66802e-20
1.13553e-20
1.80607e-21
2.04752e-20
2.39407e-21
1.39366e-20
1.25398e-20
6.21605e-21
5.73014e-21
3.33545e-21
1.01637e-20
1.27445e-20
7.42832e-21
2.26469e-20
1.20014e-20
1.31415e-20
1.29028e-21
3.71786e-21
4.89468e-21
7.11725e-21
1.3219e-20
7.94242e-21
6.28671e-21
1.42375e-20
8.5618e-22
7.93647e-21
9.99434e-21
2.50681e-21
6.27251e-22
5.2786e-21
1.37247e-20
2.37002e-20
3.18749e-21
5.18588e-21
4.89786e-21
3.26047e-22
1.0021e-20
3.52315e-23
9.90392e-21
1.13887e-20
1.06142e-21
6.28582e-22
7.14922e-21
1.22922e-20
3.05573e-21
6.4731e-21
4.99199e-21
2.22611e-21
1.53939e-20
2.18092e-21
1.75239e-20
5.59862e-21
1.40991e-21
2.08358e-20
6.30659e-21
1.71679e-20
1.21852e-21
7.29239e-21
2.78384e-21
9.72793e-22
1.04218e-20
2.00236e-20
2.07458e-21
4.07452e-21
4.59531e-22
8.80181e-22
4.89528e-21
2.20402e-21
5.15932e-22
9.78363e-21
2.91973e-21
1.35055e-22
3.05318e-21
3.90073e-21
3.7873e-21
2.5656e-21
2.87668e-22
3.34184e-22
2.49504e-21
1.1016e-20
2.76724e-21
6.60648e-22
1.08518e-20
3.74963e-21
5.8751e-21
6.0374e-21
7.34287e-21
3.35107e-22
3.81109e-20
7.08961e-22
1.94554e-21
2.35287e-21
1.19363e-21
4.03315e-21
1.80438e-20
1.05375e-20
1.60071e-21
7.29999e-21
2.0465e-20
4.3555e-21
1.36582e-21
1.70637e-20
3.02044e-20
2.174e-20
3.21972e-22
2.66159e-21
7.55031e-21
5.59526e-22
3.69993e-21
5.10813e-21
2.39868e-21
1.37635e-20
3.11017e-21
2.53814e-20
8.03196e-22
1.03804e-20
7.97013e-21
3.99597e-21
3.92176e-21
6.91204e-21
2.05044e-21
2.30788e-21
1.73085e-20
2.35053e-21
1.13709e-20
7.23998e-22
7.00726e-21
1.92381e-20
7.80174e-23
1.32217e-20
1.81811e-20
1.04361e-21
1.04954e-20
5.35495e-21
6.49745e-21
6.37335e-22
5.83245e-21
4.82063e-21
2.02785e-20
1.23144e-20
4.05545e-21
6.9263e-22
6.89776e-21
5.46656e-21
1.81548e-20
6.83991e-21
7.30003e-21
1.10314e-20
8.14583e-21
5.47159e-21
3.72482e-21
2.05873e-20
8.22612e-21
2.33353e-20
1.37009e-21
1.13424e-21
6.68134e-21
5.51094e-21
6.43093e-21
4.02473e-22
7.8657e-21
8.4951e-21
5.25958e-21
1.13005e-21
7.94737e-21
2.52203e-20
3.9063e-21
1.32731e-21
3.36495e-21
2.53877e-20
9.04931e-21
5.01981e-21
4.92629e-22
4.12659e-22
9.52397e-21
4.64831e-21
1.39776e-20
1.46516e-23
6.918e-22
2.62429e-20
4.09328e-21
2.12162e-21
2.16952e-21
5.31244e-21
4.28882e-21
2.07237e-21
4.27279e-21
7.1435e-21
1.44266e-20
9.76556e-22
7.29164e-21
5.54149e-21
2.85216e-21
3.17581e-21
8.62491e-21
1.03948e-21
3.47753e-21
4.6839e-21
8.44332e-21
4.78592e-21
2.93244e-22
2.9525e-22
9.78627e-21
4.57532e-21
1.78803e-21
1.66773e-21
3.41798e-21
2.74198e-21
2.64241e-21
4.05822e-21
1.22675e-21
2.23789e-21
2.39833e-20
2.29264e-21
4.45331e-21
5.46865e-22
8.64196e-21
3.81465e-21
1.36806e-21
2.47114e-21
1.94577e-20
2.79633e-21
3.55832e-21
5.10221e-21
1.30164e-20
8.24988e-22
2.59307e-21
3.05057e-22
1.52059e-20
1.96093e-21
5.49726e-22
3.13592e-22
2.80384e-21
5.23429e-21
6.25884e-21
4.85922e-23
7.89719e-21
1.25954e-20
1.23402e-20
2.40351e-21
3.3299e-21
2.14128e-20
1.97175e-21
1.43564e-20
8.19139e-21
7.97088e-22
2.47036e-21
1.38016e-20
1.60253e-20
4.37824e-21
1.47916e-20
1.61201e-21
1.25958e-20
1.4035e-20
3.86854e-21
1.23119e-20
1.69854e-20
3.80942e-21
1.14986e-20
6.39534e-21
7.03604e-21
3.4622e-22
7.21715e-21
8.74462e-23
1.55681e-22
9.50931e-21
9.15165e-21
2.13487e-21
1.05694e-20
7.45587e-22
3.03463e-20
1.99161e-20
1.05722e-20
3.01332e-21
5.5998e-21
3.02902e-21
4.27806e-22
7.56346e-21
1.72283e-21
1.4446e-21
2.05073e-20
1.26127e-20
6.06489e-23
6.50557e-22
2.14104e-21
3.63913e-22
2.04714e-21
4.37087e-22
1.12761e-22
3.72004e-21
4.14252e-21
1.99731e-20
2.32334e-21
7.96408e-21
6.07837e-21
3.55995e-21
1.16896e-20
4.87666e-21
2.21751e-21
1.97754e-20
1.57638e-21
1.62502e-21
4.22352e-21
6.43035e-21
2.15099e-20
2.7086e-21
5.99657e-22
2.05756e-20
9.53375e-22
1.43301e-20
8.84717e-21
1.7528e-21
2.4842e-20
4.39526e-21
3.72434e-21
6.81059e-21
6.32489e-21
5.46113e-22
1.17141e-21
5.1672e-21
2.03578e-21
1.8337e-20
2.82726e-21
1.09158e-20
2.46088e-21
2.63404e-20
3.49575e-21
6.22309e-22
1.44721e-21
1.8465e-21
2.11492e-21
3.33557e-21
2.91182e-21
5.20835e-21
7.84978e-21
3.37249e-20
1.1963e-20
1.15453e-20
1.24254e-20
4.20437e-21
1.10751e-20
4.5627e-21
2.65521e-21
1.8216e-21
7.31263e-21
1.09862e-20
1.36963e-20
1.40649e-20
9.64668e-21
1.91447e-21
6.03381e-21
5.08947e-21
1.14239e-20
5.04682e-21
3.89074e-21
4.6432e-22
1.18665e-24
5.89662e-22
1.42165e-20
8.48954e-21
3.25961e-21
3.48549e-21
1.1179e-20
9.27521e-21
2.68325e-21
2.37791e-21
9.98777e-21
8.72165e-21
1.81946e-21
3.36912e-21
1.63947e-21
2.12263e-21
1.33761e-21
2.09545e-20
6.74396e-21
4.54061e-21
1.26942e-21
9.12247e-21
1.37479e-20
4.75186e-21
5.11747e-21
6.13909e-21
3.09169e-21
1.233e-20
6.9461e-21
3.00413e-21
6.02342e-22
6.19497e-21
5.2585e-22
6.74397e-21
3.60833e-21
1.67557e-21
3.05014e-20
5.67804e-21
1.03088e-22
6.92686e-22
3.27073e-21
4.73959e-21
9.03535e-22
1.80699e-21
7.41706e-21
3.15244e-21
3.70872e-21
4.34425e-21
4.19133e-21
1.29619e-21
1.10599e-20
2.9546e-24
8.89458e-22
1.68171e-20
2.00071e-20
1.51308e-20
2.27123e-21
1.25883e-20
6.57675e-21
7.2803e-22
1.07964e-20
5.44486e-21
4.8218e-21
5.4583e-21
1.30756e-20
7.40075e-21
2.0137e-21
6.2302e-21
8.40763e-21
3.27821e-21
8.49001e-21
2.53206e-21
2.16002e-20
1.1993e-20
4.61893e-21
1.75236e-21
2.63622e-22
1.24492e-20
9.4169e-22
1.55404e-21
1.9786e-21
3.94805e-22
1.29264e-20
3.45497e-21
2.70313e-21
1.54916e-20
3.69212e-21
1.15542e-20
5.33488e-22
3.1942e-22
3.83419e-22
4.05292e-21
4.25247e-21
1.3471e-20
4.16253e-21
3.09852e-21
2.22402e-20
9.09561e-21
5.4201e-21
9.32994e-21
8.36563e-21
5.53927e-21
2.47257e-21
8.20541e-22
1.3131e-20
3.49146e-21
3.19437e-21
1.99844e-20
4.30984e-21
2.85595e-20
6.86875e-21
1.20515e-21
4.34481e-21
1.04155e-20
6.03821e-21
2.82008e-21
7.39535e-21
8.29206e-21
4.38709e-21
6.28454e-21
9.92421e-21
1.20833e-20
1.88335e-21
3.05532e-20
5.71983e-21
5.63845e-21
4.07997e-21
2.84713e-22
6.77203e-21
1.69498e-20
1.15131e-21
1.09766e-21
1.58408e-21
7.96561e-22
1.66709e-20
9.08619e-22
3.42889e-20
5.08362e-21
2.58173e-20
3.75649e-21
3.32771e-21
1.91896e-22
1.44119e-20
5.42278e-21
1.46336e-20
1.62705e-20
3.36299e-21
1.09499e-20
2.10223e-20
2.78797e-21
4.55873e-21
8.72328e-21
1.43874e-20
3.35908e-21
2.97917e-20
6.36373e-21
3.50964e-21
2.91799e-21
3.66665e-22
3.86278e-22
1.40817e-22
6.79442e-21
5.74807e-21
6.7657e-21
9.69249e-21
5.1429e-21
2.01242e-22
1.72084e-21
6.05704e-21
3.35195e-21
9.85552e-21
2.85336e-21
7.0749e-21
1.03145e-21
5.11226e-22
3.38111e-20
3.43151e-21
2.83075e-21
6.79515e-22
3.44774e-21
1.84735e-21
3.0973e-21
4.11671e-21
5.8341e-21
4.7164e-21
5.07114e-22
1.01512e-20
3.21745e-21
1.52102e-20
1.42892e-20
2.79473e-21
7.56689e-21
6.79114e-21
2.78836e-21
1.80356e-20
7.66777e-21
1.57148e-21
1.98517e-21
2.83904e-21
1.63517e-21
8.38163e-21
9.48944e-21
4.00821e-21
1.2862e-21
1.13958e-20
8.91848e-21
1.04597e-20
1.11961e-21
5.22557e-21
3.14757e-21
1.8612e-21
4.27563e-21
1.9294e-21
1.76737e-20
3.41896e-21
7.45792e-21
1.23145e-20
1.75064e-21
3.63237e-21
1.62039e-20
2.34358e-21
2.27649e-20
2.0909e-20
6.96229e-21
1.00461e-20
1.04127e-20
1.09746e-21
6.91987e-22
2.09304e-21
2.35352e-22
6.26152e-22
1.61226e-21
1.20549e-20
3.92128e-21
4.73729e-21
3.56588e-21
5.38845e-21
1.17044e-20
2.29469e-21
2.03337e-21
1.92954e-20
6.42897e-21
1.17815e-20
8.09442e-22
1.24994e-20
7.16679e-21
3.5582e-21
1.5637e-22
4.53585e-22
7.41035e-22
1.26635e-20
3.98255e-22
1.00209e-20
1.41556e-20
3.26663e-21
5.86221e-21
1.63948e-20
2.58269e-21
8.86914e-21
1.5191e-20
3.08459e-21
6.30228e-22
8.13713e-23
1.27202e-20
1.33116e-21
6.10851e-21
1.49015e-20
4.24503e-21
1.19655e-20
9.06333e-21
5.96105e-21
9.38728e-21
1.00651e-20
1.22199e-21
5.46405e-21
1.06902e-20
4.9888e-21
9.55719e-22
2.86016e-21
2.08284e-21
2.22609e-21
2.0114e-20
1.40563e-21
4.97441e-21
8.72964e-21
8.22455e-21
3.54613e-22
8.62527e-21
3.46315e-21
2.08644e-20
6.28827e-22
2.44104e-21
2.87714e-21
1.44227e-20
1.03559e-20
1.15265e-20
5.44807e-21
7.47698e-21
1.69939e-20
2.3436e-21
4.29225e-21
6.31711e-21
4.94123e-21
3.35663e-21
7.39759e-22
6.02836e-21
3.17509e-21
1.68725e-20
7.09109e-21
7.24049e-22
2.7471e-21
1.22034e-21
2.78673e-21
4.05162e-21
1.06178e-20
9.69119e-21
2.91751e-21
7.4452e-22
2.1921e-21
4.55794e-21
8.12425e-21
5.6382e-21
4.39806e-21
4.95248e-21
3.15095e-21
5.73641e-20
3.15462e-21
3.16504e-21
1.08303e-20
7.2628e-21
2.87805e-21
1.54755e-21
3.26585e-21
7.44953e-21
6.7206e-21
3.04269e-21
1.03426e-20
2.21737e-21
1.32566e-21
1.858e-21
1.32833e-20
9.38117e-22
4.46169e-21
6.16167e-21
9.32549e-21
7.61091e-21
1.08846e-20
3.64515e-21
8.87485e-21
3.53285e-21
4.13134e-21
1.31303e-20
8.20121e-21
2.37699e-21
6.26022e-21
1.38138e-20
6.93082e-21
4.67243e-21
1.29604e-20
9.51308e-21
2.67125e-21
2.25137e-20
4.23378e-22
2.09649e-20
4.99701e-21
6.02479e-22
3.52394e-21
5.51086e-21
4.06856e-21
4.45513e-21
6.70385e-22
5.14368e-21
4.14482e-20
1.11768e-20
8.08343e-21
2.37177e-21
1.17535e-21
2.56287e-20
3.20353e-20
6.05677e-21
8.47869e-21
4.3036e-20
5.50686e-21
1.26429e-20
4.1452e-21
6.89122e-21
1.22614e-20
1.11386e-21
3.39258e-20
2.08575e-21
8.01384e-21
3.9014e-21
1.08256e-20
5.89047e-21
1.50413e-20
1.02224e-20
2.18006e-20
4.04489e-21
1.27144e-20
3.22201e-20
6.47573e-22
4.71156e-21
9.7774e-22
9.52579e-21
3.6915e-20
8.00827e-21
1.32372e-21
1.38709e-20
1.21369e-20
5.6497e-21
1.56144e-20
6.44204e-21
3.44637e-21
5.25722e-21
1.64512e-21
1.25016e-21
2.31949e-20
1.44143e-21
3.59276e-22
1.39888e-20
2.29458e-21
2.14246e-21
2.5027e-21
4.38082e-21
4.63623e-22
7.06974e-21
3.27587e-21
3.05769e-21
6.63432e-21
1.01878e-20
1.46676e-20
1.03524e-20
2.99908e-21
2.54289e-21
2.04595e-20
4.87917e-21
5.31503e-21
6.11561e-21
1.25247e-20
6.79103e-22
2.22594e-21
1.4766e-20
6.34307e-21
8.5125e-23
2.76839e-20
2.88911e-21
4.47687e-21
2.28494e-21
1.08305e-21
5.11369e-21
4.50498e-22
2.85458e-21
3.01092e-21
6.58062e-22
3.19975e-21
4.59821e-21
2.6574e-21
7.05924e-21
6.17238e-22
1.28922e-20
2.07447e-20
1.59811e-20
7.09615e-21
7.19207e-21
8.35933e-21
1.54425e-20
1.77548e-20
8.03548e-21
5.24874e-21
1.9249e-20
3.28565e-21
6.16523e-21
1.08183e-20
5.27709e-21
1.52055e-21
1.06572e-20
5.17206e-22
3.63518e-21
2.83034e-21
3.1295e-21
7.35665e-21
2.94423e-22
1.98781e-20
1.48872e-21
1.13945e-20
1.64687e-20
3.14677e-20
9.16502e-21
6.17667e-21
2.1857e-21
2.03543e-20
1.72244e-20
7.12373e-21
6.70145e-21
1.02817e-20
2.57237e-21
1.47189e-21
5.578e-21
5.6574e-20
7.66688e-21
5.36601e-22
2.13229e-21
2.36164e-21
7.59814e-21
1.01957e-20
1.32636e-21
4.54773e-21
1.37545e-21
4.79605e-21
2.55713e-21
5.025e-21
6.85476e-21
6.34172e-22
1.03476e-20
8.88782e-21
1.80215e-20
4.38573e-21
1.10678e-21
1.43387e-21
8.97203e-21
4.21919e-22
1.48105e-21
6.05693e-21
1.85523e-21
5.6128e-21
5.3423e-21
1.06967e-20
3.43543e-21
5.17951e-21
4.43885e-22
4.63665e-22
2.35233e-21
6.26e-21
5.3357e-21
1.29486e-21
2.89655e-21
5.83811e-21
1.23719e-22
2.43409e-22
2.18704e-20
9.39035e-22
3.82581e-21
5.40953e-22
1.75925e-21
1.15052e-20
3.04128e-21
7.08366e-21
3.48269e-21
1.78478e-21
5.51027e-21
2.17566e-21
2.05498e-22
5.4989e-21
4.78273e-21
1.36248e-21
2.1141e-21
2.55193e-21
1.22166e-21
6.41032e-23
2.48778e-20
7.93318e-21
1.06578e-20
7.3057e-21
2.65391e-22
5.47517e-22
3.64929e-21
1.6818e-20
1.24e-20
3.53353e-21
5.99388e-21
1.82042e-20
3.85293e-20
5.33782e-21
5.28313e-21
1.4917e-21
7.59241e-21
1.12332e-20
8.67251e-22
6.30824e-21
8.6091e-21
9.17179e-22
1.10217e-20
6.05032e-21
8.67837e-22
6.40267e-21
5.46724e-21
7.66044e-22
3.53982e-22
2.10616e-21
3.95105e-21
1.21383e-20
4.81727e-21
1.29029e-20
7.40231e-22
1.49201e-20
4.81943e-22
8.37598e-21
3.11523e-21
3.27601e-23
3.56606e-21
5.46005e-21
5.7116e-21
2.27563e-21
3.13517e-20
2.33179e-21
3.7895e-21
5.00817e-21
2.43229e-21
2.48978e-22
7.3749e-21
1.37121e-21
1.19054e-20
9.40972e-21
3.75984e-21
1.31453e-20
8.1017e-21
6.36471e-21
6.11533e-21
2.31635e-21
6.25902e-21
9.26057e-21
1.11727e-20
2.77356e-21
1.00738e-21
4.11836e-21
6.10295e-22
9.90063e-22
3.75761e-22
2.73335e-21
1.65613e-21
1.28462e-20
2.7372e-22
3.13617e-21
7.13229e-21
1.91958e-21
2.44296e-21
1.00893e-20
8.78588e-21
2.56061e-21
9.73663e-21
3.69115e-21
5.45004e-21
5.27065e-21
5.28885e-21
4.60551e-21
4.50754e-21
2.38334e-21
1.07668e-21
1.35359e-21
1.3509e-20
1.96898e-20
5.74406e-22
6.66459e-21
1.61152e-21
2.06316e-21
1.01129e-20
5.10933e-23
7.45013e-21
6.48754e-21
1.58168e-21
5.79222e-22
8.21641e-21
2.05532e-21
4.22282e-21
9.49583e-21
2.59532e-21
4.05574e-21
1.24256e-20
1.56377e-20
2.6282e-21
7.12726e-21
2.63141e-21
7.33713e-21
6.70671e-21
5.93648e-21
1.00576e-21
2.69823e-21
2.90021e-22
8.56166e-23
5.05074e-21
1.53089e-20
6.85897e-22
1.4965e-20
1.3533e-20
1.84566e-20
1.34326e-20
1.33299e-20
1.16369e-20
5.66307e-21
2.7815e-20
8.85006e-21
2.44962e-21
2.14315e-21
1.15133e-20
8.01852e-21
7.75264e-22
2.40732e-21
1.50527e-21
9.14753e-21
3.62149e-22
2.82506e-21
9.67492e-22
9.62075e-21
1.5575e-21
2.02849e-20
2.78135e-22
4.51099e-21
1.4493e-20
1.27905e-21
4.23385e-21
6.61238e-21
1.19994e-21
6.98622e-21
1.04559e-20
4.68543e-21
3.4737e-21
1.16767e-21
4.82265e-21
1.1158e-21
1.38488e-20
4.10934e-21
4.91286e-22
8.49524e-23
7.59145e-21
4.89418e-21
1.57152e-21
9.18329e-22
1.0253e-20
5.51916e-21
6.47503e-21
1.02867e-20
2.36796e-20
1.09481e-20
4.68268e-21
1.17711e-20
1.89714e-21
1.50534e-20
1.47253e-20
7.18691e-21
3.88993e-22
1.86003e-20
7.79298e-21
1.05053e-21
3.10784e-20
1.34989e-20
1.14985e-20
8.38915e-21
1.36224e-21
3.95683e-21
3.82837e-22
7.15225e-21
5.27541e-21
1.14209e-20
2.13575e-21
1.50364e-20
7.11126e-21
7.41234e-22
3.17015e-21
3.78209e-21
2.6143e-20
3.67406e-21
1.45402e-20
5.11221e-22
3.19542e-21
2.01486e-21
1.22356e-20
5.9894e-21
6.24829e-21
3.21599e-21
1.95471e-20
5.376e-21
1.50951e-21
8.00584e-22
6.21069e-21
1.17696e-20
1.41972e-20
7.08258e-21
1.96427e-20
2.56411e-20
1.32947e-21
9.18776e-21
2.48399e-21
4.30121e-21
5.41879e-21
8.93328e-21
5.91564e-21
2.00383e-21
1.37922e-20
2.34397e-21
6.89767e-21
4.77802e-21
2.70935e-21
4.56757e-21
1.33162e-20
1.03299e-21
8.66114e-21
1.0118e-20
2.10443e-21
3.01002e-22
1.38269e-20
1.50176e-23
6.37458e-21
9.38899e-22
8.53412e-22
1.32874e-20
3.42099e-21
1.6127e-21
6.94105e-21
3.26972e-21
1.31585e-20
2.2969e-21
1.0139e-20
4.97194e-21
3.10669e-21
3.84531e-21
5.77325e-21
1.61916e-20
4.04485e-21
7.67108e-21
6.44702e-21
3.97211e-21
2.15768e-20
4.27766e-21
3.61388e-21
1.02212e-20
4.29201e-21
4.77859e-21
1.35225e-21
2.87302e-20
7.36219e-22
3.86376e-21
1.19258e-20
4.54416e-21
4.74315e-21
1.35776e-20
4.4662e-22
3.58047e-21
3.68777e-21
5.66573e-21
2.75088e-21
1.11919e-20
4.55119e-21
3.83648e-21
8.50589e-21
5.15636e-21
8.567e-21
5.51228e-21
3.27528e-20
1.71036e-22
3.40791e-22
8.63629e-21
1.72029e-21
1.65798e-21
1.47602e-20
1.99585e-21
1.02751e-20
6.23029e-21
2.10117e-21
4.5132e-21
1.75338e-22
8.66693e-21
6.15782e-21
1.86172e-21
3.69775e-21
5.30003e-21
1.94344e-20
4.45558e-21
3.01051e-21
7.54574e-21
5.84149e-21
1.54471e-21
8.24168e-21
1.58284e-20
1.04518e-20
6.18069e-21
1.32723e-20
6.76903e-21
4.54555e-21
1.08223e-20
3.03505e-21
9.55721e-21
1.41778e-21
3.20812e-22
5.40691e-21
1.48023e-21
4.35242e-21
1.15186e-20
1.94252e-21
2.26202e-21
7.54837e-21
2.95212e-21
1.31234e-20
6.273e-21
6.65447e-21
1.44712e-20
8.33855e-22
4.20786e-21
6.61304e-22
1.65775e-20
2.56858e-21
1.33713e-20
4.40029e-21
2.39055e-22
1.1248e-21
2.97267e-21
1.93808e-21
8.19633e-21
4.87498e-21
5.24759e-21
1.17297e-23
8.79468e-21
6.78284e-21
1.07511e-20
6.90822e-21
3.85817e-21
7.28218e-21
1.46464e-21
9.31885e-21
6.1351e-21
1.82812e-21
2.01267e-21
1.45422e-21
1.03759e-21
2.81419e-21
4.85426e-22
1.47499e-20
2.21869e-22
2.51657e-20
4.73935e-21
6.44744e-22
2.70406e-21
1.21362e-20
5.48065e-22
5.32664e-21
2.18919e-20
1.46992e-20
1.12094e-21
5.76665e-21
1.54684e-20
1.41015e-20
9.25867e-21
3.55103e-22
1.86779e-20
2.79178e-21
6.2604e-21
1.15173e-20
1.58439e-20
4.29633e-21
1.59131e-20
1.1534e-20
5.16673e-22
3.71365e-21
9.38787e-21
1.00951e-20
1.03526e-20
6.75461e-21
2.00889e-21
1.45457e-20
8.35026e-21
6.046e-21
4.24068e-22
3.35992e-21
1.25011e-20
1.13078e-20
6.00692e-21
1.13895e-21
2.17894e-21
6.78005e-21
8.32002e-21
7.42146e-21
1.96663e-21
2.07921e-21
6.3434e-21
1.08628e-21
4.47351e-21
1.36096e-21
1.22053e-21
3.06855e-22
7.7486e-21
4.15328e-21
2.09562e-20
1.23747e-22
6.23385e-21
2.06246e-20
1.54831e-21
1.25411e-21
6.97705e-21
7.90027e-21
1.8467e-21
3.3952e-20
1.0741e-20
9.93023e-22
1.18241e-20
4.62686e-21
6.19373e-21
5.62044e-21
1.96682e-20
3.75447e-21
1.30087e-21
3.5852e-22
2.46627e-21
4.96242e-22
2.69163e-21
3.29372e-21
5.76875e-21
7.22066e-21
1.62787e-20
1.22935e-20
8.8572e-21
8.93428e-21
3.24142e-21
9.91069e-21
2.78883e-21
5.43547e-21
2.56854e-21
7.57875e-21
3.50504e-21
1.58307e-20
3.64817e-22
1.18213e-20
3.43644e-21
4.94056e-21
8.99324e-22
1.27306e-21
1.26961e-21
7.62487e-21
1.02705e-20
5.59682e-21
1.1109e-20
3.52824e-21
2.68281e-22
3.88195e-22
2.04488e-20
1.31877e-21
1.11901e-20
1.12769e-20
2.06561e-21
4.19359e-21
4.99549e-21
2.50984e-20
7.50085e-21
4.89577e-21
2.04342e-22
9.74714e-22
8.55372e-21
7.15785e-21
6.08274e-21
3.80088e-21
2.11633e-20
3.60666e-21
6.87688e-21
5.59023e-21
2.68748e-21
1.08854e-20
8.21658e-22
1.97125e-22
2.37913e-21
6.20491e-21
3.54335e-21
5.79241e-22
6.58056e-21
3.71923e-21
2.59876e-20
3.3879e-21
1.30079e-21
1.11123e-20
2.10004e-21
6.95973e-21
1.80701e-21
9.73418e-21
4.80077e-21
9.48652e-22
1.4418e-20
2.31928e-21
2.03543e-20
1.42261e-21
5.75192e-21
2.06289e-21
2.46922e-21
2.07478e-21
5.68948e-21
1.89538e-21
3.71042e-21
5.95292e-21
4.21187e-21
9.74404e-21
5.27938e-22
3.33045e-21
9.90124e-21
1.7814e-20
6.84613e-21
1.16128e-21
6.95578e-21
1.96414e-20
5.37914e-22
2.08679e-21
6.85978e-21
3.15701e-22
2.99594e-21
4.10602e-21
1.78115e-21
1.92852e-20
4.1896e-21
7.25007e-21
2.96624e-21
5.27502e-22
1.01112e-20
3.45499e-22
2.63371e-21
5.52272e-21
9.62307e-22
2.39356e-21
4.62936e-22
3.93745e-21
2.32722e-20
7.9437e-21
2.12413e-20
2.85121e-21
7.13045e-21
2.02444e-21
3.3739e-21
1.24294e-20
4.52329e-22
1.14017e-21
1.4154e-20
1.43853e-21
1.56694e-20
6.10706e-22
3.99658e-21
1.16511e-20
2.76037e-21
7.29434e-21
2.52596e-21
1.95511e-20
3.4992e-21
7.83208e-21
2.48415e-21
2.77779e-21
8.42297e-21
1.0102e-20
2.22576e-21
2.41901e-20
3.24874e-21
9.18432e-21
1.83918e-21
2.34627e-21
3.52652e-22
2.67795e-22
3.99978e-21
1.38176e-20
6.557e-21
1.90097e-21
2.48829e-21
4.92501e-22
5.61518e-21
1.0697e-20
6.93544e-21
7.02805e-23
8.68041e-23
5.22927e-22
6.64331e-22
2.34006e-21
1.26156e-20
1.92429e-20
1.04548e-20
1.23972e-21
6.78834e-21
5.8406e-21
1.57865e-20
1.86935e-20
1.1411e-21
6.81456e-21
1.90855e-21
1.07798e-20
7.12296e-21
6.08996e-21
1.68176e-20