/*--------------------------------*- C++ -*----------------------------------*\
  =========                 |
  \\      /  F ield         | OpenFOAM: The Open Source CFD Toolbox
   \\    /   O peration     | Website:  https://openfoam.org
    \\  /    A nd           | Version:  7
     \\/     M anipulation  |
\*---------------------------------------------------------------------------*/
FoamFile
{
    version     2.0;
    format      ascii;
    class       scalarField;
    location    "0.00252/lagrangian/dsmc";
    object      Ei;
}
// * * * * * * * * * * * * * * * * * * * * * * * * * * * * * * * * * * * * * //


18254
(
4.51084e-21
2.91552e-21
2.2256e-21
1.37385e-20
9.70377e-21
1.61174e-20
1.06554e-20
1.52881e-20
7.19511e-21
1.76729e-20
2.442e-21
9.53981e-21
1.60003e-20
9.78753e-21
6.47274e-21
6.72692e-21
1.7105e-21
3.74408e-21
2.97938e-21
1.56055e-20
1.98205e-21
1.32664e-20
1.98269e-21
2.58939e-21
7.87716e-21
8.39483e-21
1.04362e-21
6.32437e-21
1.93019e-20
1.12295e-20
4.38589e-21
2.73949e-20
1.25471e-20
9.13509e-21
4.01849e-21
1.38037e-20
4.10633e-21
8.29001e-21
1.757e-20
6.30917e-21
4.47593e-21
2.07367e-20
2.57941e-22
8.40605e-21
3.08235e-21
4.83351e-21
7.58163e-21
1.20798e-20
8.33531e-21
1.66579e-21
8.81364e-21
6.82169e-22
2.61762e-21
8.37023e-22
1.99888e-21
1.40156e-21
7.51724e-21
5.52972e-21
5.46428e-21
7.55222e-21
1.3209e-21
7.64444e-21
1.25172e-20
1.15189e-21
3.29188e-21
2.92339e-21
4.25865e-20
1.69957e-21
6.2103e-21
7.68192e-21
1.39194e-20
1.81295e-21
2.00839e-20
2.62004e-20
1.51403e-20
1.60813e-22
2.89476e-22
1.46865e-20
2.91033e-20
4.68614e-21
1.13217e-20
4.41864e-21
2.08004e-20
1.04287e-20
1.24152e-22
2.48584e-21
7.21713e-21
1.30292e-21
4.85507e-21
1.1718e-21
4.37795e-21
4.2789e-21
5.42945e-21
1.11403e-21
1.27356e-20
3.42348e-21
2.82159e-22
2.52031e-21
2.70809e-21
6.83805e-21
1.1353e-20
1.62649e-21
2.03885e-20
2.00672e-22
4.32843e-20
6.27914e-21
4.79014e-21
5.44189e-21
5.7754e-21
1.13295e-20
7.64617e-22
7.58765e-22
1.64831e-20
9.29738e-22
1.59448e-20
2.9728e-21
2.10931e-20
3.26528e-21
1.17286e-21
9.3841e-21
1.39806e-20
2.77771e-20
2.83624e-20
5.58524e-21
3.64912e-20
1.06601e-20
2.3114e-20
1.26972e-20
7.11326e-21
7.61785e-21
2.53108e-21
8.59962e-22
2.2004e-20
1.73501e-20
4.18976e-21
5.18955e-21
2.35424e-20
1.76664e-22
1.63122e-20
1.92748e-21
2.04587e-20
6.5659e-21
6.88375e-21
2.06464e-21
4.79967e-21
1.76381e-21
6.15532e-21
1.09874e-22
2.41583e-21
9.85535e-21
9.23322e-21
2.63229e-21
9.23101e-21
1.08585e-20
1.36759e-21
1.61801e-20
5.68334e-20
1.99521e-21
1.83803e-21
7.91378e-22
7.71401e-21
3.78712e-21
3.85296e-21
6.56167e-22
5.20629e-21
5.79023e-21
1.20295e-20
5.8981e-21
3.30619e-21
1.07754e-21
6.86656e-21
1.40285e-22
9.53894e-21
4.76929e-21
2.14817e-21
8.31177e-21
4.96039e-21
1.24125e-21
2.76704e-21
6.54146e-21
1.60915e-20
1.19234e-21
1.99837e-20
7.22551e-22
2.20551e-23
3.62201e-22
4.30692e-21
1.74759e-21
5.45533e-22
7.26108e-22
1.61666e-21
1.2972e-21
1.63751e-21
5.41772e-21
3.07823e-21
2.60009e-20
2.68053e-20
2.33071e-20
4.10402e-20
1.40161e-21
1.66248e-20
2.72773e-20
1.89798e-20
6.57585e-21
6.5467e-21
9.74529e-21
6.77556e-21
6.2933e-21
2.71053e-21
1.99792e-21
7.4936e-21
4.28505e-21
4.4197e-21
3.14543e-20
3.74242e-21
2.68652e-21
1.13557e-21
2.91854e-21
3.55838e-20
6.71235e-21
8.29411e-21
4.03297e-21
2.37905e-20
4.67063e-21
7.67174e-22
1.87596e-21
1.79567e-21
3.95109e-22
1.69382e-20
2.14489e-20
2.50079e-20
5.57772e-22
3.22076e-21
1.39536e-20
1.37982e-21
5.54354e-21
1.58717e-20
1.11876e-21
4.3657e-21
5.59911e-21
2.00431e-20
5.61399e-21
3.36323e-20
5.9894e-21
1.60165e-21
1.01952e-20
9.37663e-21
6.61773e-21
1.19236e-21
1.18367e-20
8.23408e-21
1.14289e-21
1.03303e-20
1.82584e-20
1.07741e-20
4.55899e-21
1.46721e-20
7.77404e-21
2.70643e-21
7.068e-22
1.20438e-21
2.16696e-20
5.92769e-21
5.3614e-21
1.89069e-20
2.72075e-21
1.42309e-20
1.52953e-20
9.88805e-21
1.61451e-20
1.28689e-20
1.06523e-20
1.44889e-20
4.72788e-21
2.07818e-20
5.34139e-21
2.81105e-22
5.88726e-21
1.17898e-20
4.77959e-21
1.00377e-20
1.3159e-20
2.47627e-21
1.99364e-20
5.5785e-21
1.24913e-20
1.0327e-20
5.51222e-21
1.22497e-22
1.20197e-21
5.20433e-21
2.68097e-21
8.78572e-22
3.17156e-20
1.13753e-21
1.16186e-20
4.86759e-21
3.82569e-21
6.64469e-22
5.58305e-22
1.7245e-21
7.28058e-21
1.21194e-20
8.76818e-21
2.29693e-21
4.93739e-21
1.09997e-20
2.99558e-21
6.66235e-21
1.98681e-20
2.50344e-21
1.53994e-20
3.92628e-21
7.82176e-21
1.41124e-21
1.0436e-21
5.1814e-22
2.60501e-21
2.72161e-20
1.39125e-20
9.65978e-22
2.06795e-21
6.26772e-22
6.34907e-21
3.67103e-21
6.45424e-22
5.30556e-21
1.11306e-20
4.40068e-22
1.53423e-20
2.26465e-20
3.01277e-21
1.40323e-20
9.68055e-21
1.48031e-20
4.55888e-20
1.22373e-20
8.6128e-21
3.61996e-21
1.20674e-20
2.55139e-20
1.06291e-20
1.38228e-20
9.49184e-22
4.69767e-21
2.1245e-20
1.80553e-20
2.67396e-20
1.9729e-20
6.24816e-21
2.18478e-21
1.1482e-20
4.01605e-21
3.68609e-21
2.86712e-21
5.88597e-21
4.61342e-21
2.06568e-20
3.36297e-22
5.8396e-21
7.22205e-22
4.75425e-21
1.23368e-21
1.266e-20
9.24404e-22
4.42028e-21
1.40035e-20
1.65132e-20
3.65829e-21
1.12402e-21
1.60868e-21
6.03109e-22
2.44923e-22
1.27666e-20
1.61736e-20
5.45953e-21
8.89985e-21
8.64114e-21
3.82835e-21
2.03263e-21
3.08756e-21
9.1673e-21
2.01205e-21
1.3293e-20
3.16901e-21
3.22215e-21
8.84027e-21
6.77401e-22
1.48252e-20
1.09872e-21
2.51419e-20
3.78841e-22
4.55396e-21
8.18954e-21
1.5175e-21
1.61938e-21
4.62299e-21
4.88536e-21
1.32375e-21
6.79331e-21
1.81976e-21
1.21132e-21
1.05257e-20
7.24425e-21
5.33881e-21
6.82996e-22
8.20853e-21
4.39384e-20
1.47277e-21
4.24789e-21
5.56117e-21
8.57384e-21
1.09148e-20
2.53083e-20
2.48849e-20
1.47864e-21
1.86666e-21
4.06532e-21
4.93473e-21
1.50469e-21
3.91507e-21
2.41748e-22
8.5586e-21
1.19642e-20
2.02364e-21
7.16755e-21
2.23573e-22
5.56125e-21
4.71435e-22
1.58477e-20
2.64215e-21
2.4207e-20
5.04493e-21
2.88717e-21
1.54076e-22
4.15811e-21
1.18403e-20
5.86332e-22
7.41119e-21
2.15252e-20
4.06781e-21
6.88148e-21
3.68851e-21
1.00519e-20
3.61657e-21
3.37389e-21
4.56952e-21
5.24863e-21
1.59327e-21
2.69436e-21
1.2811e-20
6.11784e-21
8.47271e-21
2.41208e-22
7.94926e-21
1.49344e-20
1.96047e-20
2.36209e-20
1.15198e-20
1.56667e-20
2.15915e-20
1.37754e-20
2.82564e-21
4.79863e-21
6.76725e-21
2.67798e-21
9.19222e-21
2.41628e-21
1.84431e-20
1.01196e-20
2.2936e-20
3.74801e-21
1.0173e-20
2.75309e-22
5.0094e-21
2.00689e-20
5.22432e-21
1.37002e-21
7.14406e-22
4.60508e-21
2.14431e-20
1.22819e-20
2.75772e-21
1.98476e-20
7.80259e-21
1.93736e-20
6.31626e-21
1.44206e-20
2.79662e-21
6.70937e-21
2.25235e-20
5.04567e-21
8.26279e-22
6.09008e-21
1.4799e-20
2.33188e-21
4.35558e-21
2.43646e-21
1.11418e-20
8.89025e-21
3.27943e-21
1.71824e-21
7.25662e-21
1.56684e-21
5.89169e-21
3.87683e-21
4.97971e-22
6.02623e-21
3.11375e-21
2.07818e-21
4.2683e-22
7.60099e-21
8.14615e-21
3.0033e-21
2.21697e-21
3.3305e-20
8.4509e-23
1.14961e-21
6.88797e-21
3.26979e-21
5.06925e-21
1.25564e-20
7.64265e-21
1.5921e-21
1.31142e-20
1.26827e-20
1.70098e-20
2.35741e-21
5.94967e-21
6.3691e-22
3.99294e-20
4.56637e-21
4.77638e-22
2.92094e-21
4.91239e-21
2.43592e-22
5.9046e-22
3.5341e-21
3.73185e-21
1.12326e-20
2.33595e-20
4.90859e-21
1.03047e-21
1.41306e-21
8.10797e-22
6.80375e-22
7.49174e-21
1.09441e-20
2.93797e-21
9.53889e-21
1.92887e-20
1.89444e-20
5.47669e-21
2.16673e-21
1.67459e-20
3.07782e-22
8.52372e-21
3.10339e-21
2.27941e-21
2.21723e-20
5.62757e-21
5.21691e-21
5.69738e-21
2.52732e-21
2.39502e-20
3.0148e-21
5.57465e-22
5.22122e-21
1.26058e-20
1.89194e-22
8.55431e-22
1.24753e-20
1.01277e-20
4.52457e-21
5.48454e-22
2.28342e-20
3.18707e-21
2.93038e-21
7.92978e-21
4.56954e-21
1.0801e-20
6.18895e-21
1.75093e-21
2.97252e-21
1.39668e-20
3.79011e-23
5.93633e-21
9.74642e-21
7.97236e-22
6.57858e-21
6.13229e-21
7.45268e-21
3.83106e-21
5.41487e-21
1.33641e-20
1.79679e-21
1.69555e-21
1.4223e-20
4.60113e-21
1.70691e-21
1.49693e-20
1.38249e-20
4.73157e-20
2.22822e-21
5.24478e-21
7.56983e-21
2.07179e-20
4.74918e-20
2.78481e-21
6.16642e-21
1.42112e-21
4.3175e-22
3.8049e-21
1.04592e-21
2.83513e-20
9.4924e-21
4.70132e-22
4.32171e-21
1.92142e-21
2.03486e-20
2.74569e-21
7.32468e-21
1.72256e-20
1.28022e-21
1.53667e-20
1.54244e-21
1.00787e-20
9.75095e-21
6.58759e-21
2.1498e-20
6.17575e-21
1.09674e-20
4.28789e-21
5.32347e-21
3.43469e-20
4.29509e-21
5.60577e-22
8.75339e-21
9.42e-21
2.4661e-21
5.39557e-21
6.76887e-21
6.16107e-21
2.7257e-21
3.35497e-21
1.56043e-21
1.3831e-22
2.28467e-20
2.78415e-21
1.61993e-21
2.1461e-21
6.50607e-22
1.19464e-20
1.02699e-20
3.81667e-21
1.46357e-20
1.30074e-21
1.50521e-21
2.78776e-20
3.83863e-20
2.50317e-21
1.11743e-20
8.47887e-21
1.02401e-20
1.62905e-21
3.13511e-22
3.75622e-21
2.29213e-22
3.60566e-20
1.16392e-20
2.44236e-21
7.13062e-21
8.88965e-21
4.01143e-21
5.30185e-20
7.1167e-22
3.39252e-21
3.35393e-21
8.78046e-21
1.96514e-20
3.89829e-21
1.15995e-20
9.70264e-21
3.49469e-21
5.26573e-21
2.04652e-20
2.47976e-21
4.31029e-21
1.39859e-20
9.162e-22
9.18647e-21
2.05817e-21
8.97294e-21
2.04843e-20
4.52339e-21
1.12327e-20
9.50478e-22
2.69335e-21
1.68703e-21
2.92995e-21
4.78842e-21
7.07267e-21
9.03653e-22
4.48539e-21
2.44027e-21
7.15563e-21
1.0402e-20
5.47866e-21
4.00307e-21
1.75443e-21
4.8335e-21
2.215e-21
1.24403e-20
2.58707e-21
1.88124e-22
1.83842e-21
6.37789e-21
5.70255e-21
1.54833e-20
4.87914e-21
1.89357e-20
4.30724e-21
2.04425e-21
2.77561e-21
9.32517e-22
1.07639e-20
6.98471e-21
8.34904e-22
1.21175e-20
6.37849e-21
2.66329e-20
2.27992e-21
9.77756e-23
2.6272e-20
3.59825e-21
2.819e-21
9.45797e-23
1.89648e-21
3.4339e-20
2.17079e-21
2.35975e-22
1.31931e-20
6.37806e-22
2.15991e-21
8.52338e-21
1.2418e-20
1.0579e-20
1.3533e-21
7.86443e-21
2.07455e-21
1.04403e-20
2.03228e-21
1.48136e-21
1.52131e-20
8.60244e-22
1.63533e-22
3.82152e-21
1.35103e-20
1.36378e-20
3.63052e-21
1.02503e-20
1.498e-21
8.06705e-21
8.93312e-21
1.964e-21
2.34458e-20
3.42901e-21
5.24229e-21
2.82469e-21
1.00493e-21
3.70385e-21
1.84669e-23
7.73382e-21
1.24668e-20
5.81827e-22
2.36978e-21
1.10771e-20
1.73501e-20
2.82963e-21
2.49099e-21
3.37167e-21
1.92501e-20
1.04152e-20
5.37011e-21
4.96182e-21
4.15149e-21
7.9881e-21
2.79025e-21
1.16477e-20
3.66468e-21
6.46264e-21
2.5177e-21
6.52308e-21
1.26608e-20
1.61791e-21
4.2043e-21
1.28225e-21
2.40619e-20
8.94036e-21
2.48451e-21
3.39942e-21
9.35441e-21
1.9193e-20
9.68297e-22
5.01475e-21
7.97671e-21
1.32321e-20
2.19055e-21
1.12887e-21
1.65755e-21
3.17463e-20
7.87178e-21
2.59113e-21
4.68028e-21
6.72874e-21
9.21317e-22
2.50254e-21
1.13006e-20
1.91254e-22
4.48821e-21
1.26532e-21
4.15404e-21
9.55519e-21
3.70729e-21
4.26006e-22
7.08289e-21
2.67724e-21
7.80017e-21
5.26382e-20
1.33623e-20
8.9127e-21
8.85686e-21
6.83914e-22
4.17658e-21
1.60775e-20
3.53047e-21
1.05741e-20
2.49334e-21
6.98826e-21
3.92741e-21
3.04448e-22
1.65721e-21
3.54222e-21
5.41199e-21
1.25766e-20
9.65067e-22
7.64806e-22
1.95381e-20
5.67697e-21
2.39133e-20
2.2544e-21
4.4351e-21
5.8373e-23
2.59841e-21
2.11927e-21
4.54245e-21
1.47116e-20
4.55223e-21
1.57268e-20
7.76619e-21
1.6232e-21
8.10908e-21
2.59806e-20
1.75777e-22
4.67912e-21
1.43766e-20
6.60189e-21
4.3313e-22
2.88014e-21
4.71855e-21
1.84152e-20
2.27762e-21
1.28638e-21
2.39724e-22
9.41485e-21
3.28232e-21
1.00275e-21
2.67212e-21
8.56439e-22
4.75963e-21
2.24358e-21
8.50413e-22
2.45839e-21
7.41471e-21
4.53731e-21
2.58897e-21
1.67046e-21
2.67319e-20
1.2171e-21
1.15346e-20
1.08772e-20
7.63398e-21
7.12867e-21
3.97601e-21
1.1917e-20
5.67832e-21
1.7099e-20
3.57824e-21
2.61406e-20
1.27877e-21
1.19585e-20
4.45447e-21
1.07414e-20
1.31289e-20
2.05232e-21
2.07434e-20
2.0452e-21
1.15998e-20
4.63805e-21
7.69875e-21
4.81955e-22
1.46577e-21
2.75567e-20
1.44211e-21
4.27274e-21
1.67913e-20
1.98572e-20
1.03199e-20
3.07013e-20
1.01792e-20
3.36769e-21
7.12361e-22
2.99445e-21
7.85838e-21
5.30184e-21
3.82232e-21
3.34722e-21
2.59958e-21
3.28693e-22
3.23678e-21
1.14666e-20
7.4009e-22
1.69037e-21
1.29753e-20
6.20581e-21
4.51503e-21
3.00006e-21
5.30751e-21
9.53536e-21
1.61176e-21
2.13445e-20
7.86801e-21
1.64089e-20
7.51793e-22
3.89217e-21
8.65598e-21
1.04262e-20
1.71831e-21
3.00891e-21
5.37181e-21
4.12225e-21
5.03217e-21
2.3562e-21
1.03811e-21
1.96599e-20
5.42499e-21
4.62288e-20
6.7303e-21
3.26929e-22
6.40265e-22
2.79959e-21
4.88749e-21
1.8383e-21
2.21058e-21
1.53213e-22
3.00666e-22
7.94855e-21
9.50831e-22
8.49559e-21
1.97007e-21
6.34451e-21
1.68027e-20
3.61566e-23
4.49521e-21
8.52529e-21
7.06625e-21
3.82272e-21
5.67566e-21
3.98111e-21
1.5508e-20
2.81251e-20
8.67468e-21
1.4384e-20
9.78914e-22
3.58637e-21
1.25898e-20
4.6353e-21
2.98435e-21
3.00297e-22
1.28897e-21
8.8624e-22
2.50159e-21
1.89892e-22
1.46415e-21
1.35852e-20
7.25865e-22
7.4726e-21
3.16357e-20
6.31715e-21
6.69226e-22
5.3178e-21
3.45233e-21
5.22228e-21
5.18644e-21
6.28288e-21
1.64742e-21
1.03979e-20
1.37895e-20
5.71684e-21
1.98647e-22
2.1699e-20
9.48096e-21
2.47212e-21
1.04799e-20
9.51594e-21
3.46717e-21
2.80025e-20
9.68627e-22
5.46992e-21
1.04098e-21
3.79627e-21
1.65817e-21
1.01513e-22
6.56752e-22
2.25093e-20
3.38373e-21
1.42389e-21
1.73196e-20
3.26488e-21
9.75148e-21
3.93915e-21
9.336e-21
1.25053e-20
2.25082e-21
9.60992e-22
3.04495e-22
4.33292e-21
3.9928e-21
7.28935e-21
8.38535e-22
1.70528e-20
1.08883e-20
4.75322e-21
6.43325e-21
1.02786e-20
5.62247e-22
2.3898e-21
1.93655e-21
9.77227e-21
1.08133e-20
4.94314e-21
4.76955e-21
6.67935e-21
1.0949e-21
2.97785e-21
3.04143e-20
5.09031e-22
8.45474e-22
5.3595e-22
6.65981e-21
1.6513e-21
9.0112e-21
2.83614e-20
1.79771e-22
4.5176e-21
1.23973e-20
1.16182e-20
5.66897e-22
6.73863e-21
1.06609e-21
1.54283e-20
8.47927e-21
2.03639e-20
1.29546e-21
2.30734e-21
6.82321e-21
2.3154e-21
2.37603e-20
2.40067e-20
6.21271e-21
2.23044e-21
1.48029e-20
2.01812e-20
1.01198e-21
2.16253e-21
2.10189e-20
3.53351e-21
4.89533e-22
2.54805e-20
2.04062e-20
3.48264e-21
1.65851e-20
1.19739e-20
2.73431e-21
3.44884e-21
1.5443e-21
1.05911e-21
3.04813e-21
1.30738e-20
5.81631e-21
1.17491e-21
4.26047e-23
8.23382e-21
1.45937e-20
1.88078e-21
4.30262e-21
6.27223e-21
7.70453e-21
2.8206e-21
1.20823e-20
4.66936e-21
5.45275e-22
1.58896e-20
5.54392e-21
1.82087e-21
2.73316e-22
1.89491e-20
1.8053e-21
1.20634e-21
2.36009e-20
8.74159e-21
1.44106e-21
1.53629e-20
4.40794e-21
6.94846e-21
2.66224e-21
5.81472e-22
1.7455e-20
2.12102e-21
1.89828e-20
7.20153e-21
2.44587e-21
2.31157e-20
3.2682e-21
1.18859e-20
9.61637e-21
1.27369e-23
4.02705e-21
3.68778e-20
6.42853e-21
9.27916e-24
3.68539e-21
2.35233e-21
1.52477e-20
3.39314e-21
7.47072e-22
6.74106e-21
2.93267e-22
1.24168e-20
3.44907e-21
1.88659e-21
3.03421e-21
1.97903e-20
2.03861e-21
8.75914e-21
1.90586e-21
4.9548e-22
1.66185e-21
5.15774e-21
5.50401e-21
6.63592e-21
6.2075e-21
1.17244e-20
5.41453e-21
8.7402e-21
5.88531e-21
1.41353e-20
6.41721e-21
2.92916e-21
2.58307e-21
2.91396e-21
2.45576e-20
3.50151e-20
3.41448e-21
1.94493e-21
6.10368e-21
2.98915e-21
1.6163e-21
2.3225e-21
1.28929e-20
8.11713e-21
9.19758e-21
6.68707e-21
1.61373e-21
3.82073e-21
9.98617e-21
1.08213e-20
9.02964e-22
4.10671e-21
1.49579e-21
1.05366e-20
1.05077e-20
5.10744e-21
3.26247e-21
1.1037e-20
1.35158e-20
2.04847e-21
2.56247e-21
1.81374e-21
2.01128e-20
9.07558e-21
6.23184e-22
3.13328e-21
5.10241e-21
7.47995e-21
4.73521e-21
4.48954e-21
1.51668e-20
5.84575e-21
1.33881e-20
8.56235e-22
1.45699e-21
4.54383e-21
1.83737e-20
1.09824e-20
2.80325e-22
7.70977e-21
4.49634e-21
8.4666e-21
1.64716e-20
2.14426e-21
1.69957e-21
1.31315e-21
4.65419e-22
8.42099e-21
1.19339e-20
2.15079e-22
5.09012e-21
1.24102e-21
5.27841e-21
3.01291e-22
1.05375e-20
2.59006e-22
6.85398e-21
2.60548e-22
2.27724e-21
9.22537e-21
2.1611e-21
5.12696e-21
4.97725e-21
3.87128e-21
5.21652e-21
2.70548e-20
1.46108e-20
1.37425e-22
1.84191e-21
3.28413e-20
6.23297e-21
9.11306e-21
4.16842e-22
2.3862e-20
3.40331e-21
1.17471e-20
2.07622e-21
4.5595e-23
3.47902e-21
1.1608e-22
1.02155e-20
2.52782e-21
4.10257e-21
4.44937e-21
3.56156e-21
4.02399e-21
1.18055e-20
8.60845e-21
6.66059e-21
8.56629e-21
6.39647e-22
4.28119e-21
5.74959e-21
5.12098e-21
1.91184e-22
1.41817e-20
1.22013e-21
4.15442e-22
1.69309e-21
1.59851e-21
1.20063e-22
1.55313e-21
1.2813e-20
2.91132e-20
1.10042e-20
7.42531e-21
4.02233e-21
1.42093e-21
7.65291e-22
1.37278e-21
2.42654e-21
1.18373e-20
8.72176e-22
3.84793e-21
7.48457e-21
8.16404e-21
2.01866e-21
1.70593e-20
2.8597e-21
1.62601e-20
8.33398e-21
1.10339e-20
4.05674e-21
2.73152e-21
4.88062e-21
3.05456e-20
1.92598e-20
4.42015e-21
1.71795e-21
6.13427e-21
8.57874e-22
8.93797e-21
7.65648e-21
7.70534e-21
1.21158e-20
7.163e-22
6.96577e-21
3.21615e-22
1.10868e-20
4.22961e-21
6.09518e-21
8.00405e-21
4.03921e-21
3.02559e-20
3.54915e-21
1.70753e-21
2.90489e-21
3.12143e-21
1.95314e-20
3.29241e-21
1.3515e-20
2.35609e-21
9.42764e-21
8.63444e-21
2.63525e-20
2.1033e-20
1.75091e-22
4.65401e-21
1.92632e-21
1.43811e-20
3.77279e-21
5.31236e-21
1.7844e-22
5.14983e-21
1.43838e-20
1.29142e-21
4.07053e-22
5.37348e-21
9.78626e-22
7.03322e-21
2.64283e-20
2.05858e-21
1.74361e-21
1.1386e-20
5.17904e-22
1.74529e-21
3.31879e-21
3.50493e-21
8.61962e-21
6.22619e-21
7.80126e-21
9.45784e-22
1.81031e-21
3.26956e-21
2.7037e-20
2.15743e-21
1.73205e-20
3.87297e-21
2.73655e-21
9.28583e-22
4.25278e-21
5.82816e-21
3.4332e-20
5.41469e-21
2.69705e-21
6.38161e-21
1.34419e-20
5.08676e-21
2.20992e-21
1.5391e-21
1.11106e-20
7.47358e-21
4.90543e-21
2.23737e-21
6.97003e-21
1.87913e-20
1.18776e-20
5.58539e-21
1.63448e-20
1.1175e-21
1.48433e-20
1.34563e-20
5.0376e-21
7.44564e-21
1.41293e-20
7.31578e-21
5.57423e-21
2.74895e-22
2.94013e-21
1.80318e-21
1.52577e-20
4.7608e-21
3.33929e-21
4.25025e-21
1.99284e-20
3.16413e-21
2.61676e-22
2.07624e-21
8.34003e-21
9.12589e-21
6.76549e-22
1.34189e-20
5.93948e-21
1.86449e-20
1.45917e-20
1.50548e-21
1.12462e-21
6.45874e-21
1.51856e-21
1.15004e-20
8.13034e-21
6.43444e-22
6.27761e-21
4.35181e-21
1.65579e-21
2.46586e-20
3.42862e-20
2.31605e-21
5.62513e-21
2.55284e-21
4.04595e-21
1.70526e-21
1.09511e-20
3.3775e-21
2.75486e-22
7.92078e-21
1.71634e-21
8.00072e-21
2.75729e-21
7.16755e-21
2.50571e-21
1.05798e-21
8.33849e-21
1.35832e-22
7.78259e-21
4.84847e-21
3.73606e-20
4.03438e-21
1.92741e-21
4.89239e-21
1.85748e-20
1.3428e-20
1.59263e-20
1.55249e-20
9.67744e-21
2.41636e-21
1.11873e-21
1.09147e-20
4.42165e-21
1.59445e-21
4.06808e-21
5.97714e-21
2.5718e-21
7.78586e-21
3.66796e-21
5.30292e-21
3.33414e-21
8.40331e-21
3.31557e-21
8.70814e-21
6.7529e-21
2.81298e-21
4.16825e-21
6.61646e-21
1.44654e-20
7.20079e-21
3.81477e-21
3.23028e-21
5.95942e-21
3.10112e-21
2.73129e-21
5.94028e-22
1.64175e-20
1.1041e-20
4.83289e-21
5.03272e-21
1.44773e-20
2.19249e-21
1.58837e-20
1.38587e-22
2.00693e-21
1.67976e-20
1.68544e-22
2.82838e-21
9.71179e-21
1.10683e-20
8.1196e-21
1.67963e-21
5.86192e-21
1.83283e-20
1.59737e-20
5.66598e-21
1.5392e-21
5.1749e-21
1.21467e-20
1.02869e-20
6.07998e-21
7.45288e-21
4.33059e-21
7.25078e-21
7.22409e-21
1.03066e-22
4.87232e-21
1.05512e-22
2.48214e-21
3.89276e-21
1.72797e-21
1.6069e-20
6.7167e-21
2.61917e-21
1.30436e-20
8.80369e-21
8.72361e-21
4.52937e-21
1.53084e-21
9.88083e-22
1.71293e-20
1.70957e-20
9.98357e-22
2.75958e-21
1.25568e-21
5.26363e-21
7.14579e-21
1.16211e-20
1.14818e-20
1.2072e-20
3.18773e-22
3.14827e-21
5.87496e-21
2.6041e-22
9.87605e-22
1.89632e-20
1.14411e-22
5.54467e-21
1.15742e-21
4.7207e-21
1.14379e-20
5.17051e-21
4.44856e-21
1.39861e-20
2.46002e-21
1.40489e-20
1.02817e-20
6.42744e-21
1.20218e-20
2.50837e-20
3.58849e-21
1.60932e-20
7.30502e-21
3.56585e-21
7.38913e-21
4.28109e-21
3.3108e-21
9.20083e-22
7.13381e-21
1.40875e-21
3.44186e-20
2.52557e-22
9.92906e-21
5.22874e-21
8.00677e-21
4.44707e-21
5.63646e-21
6.58357e-21
5.20339e-22
1.39526e-20
5.12798e-21
5.17139e-22
4.512e-22
1.01623e-20
9.91102e-23
3.03079e-22
6.95752e-22
2.10719e-21
9.276e-21
5.25076e-21
4.73867e-23
1.18597e-20
4.22603e-21
2.93656e-21
2.00283e-21
5.30917e-21
5.81066e-21
1.63739e-21
3.8699e-21
6.00023e-21
2.24341e-20
3.12067e-21
1.6301e-20
3.39466e-21
1.18265e-20
1.1814e-20
4.19836e-21
3.12984e-20
1.02729e-21
7.28762e-21
1.50416e-20
9.78404e-21
3.62033e-21
3.95574e-21
4.38322e-21
3.29119e-21
8.95813e-22
1.94241e-21
4.31169e-21
1.20437e-21
8.88699e-22
3.7651e-21
2.15829e-21
4.7339e-21
7.72023e-21
3.45823e-21
1.16836e-20
3.4567e-22
4.41827e-21
2.59141e-20
7.83874e-22
1.08305e-20
9.91318e-22
9.74732e-21
7.56509e-21
4.87496e-21
4.23281e-21
2.69185e-21
8.44902e-21
1.3524e-20
7.18375e-21
4.52799e-21
1.6769e-20
4.91308e-21
7.89156e-21
3.16604e-21
2.52949e-21
1.03387e-20
9.25757e-22
1.39291e-20
1.29634e-20
1.14228e-20
1.10267e-20
2.25877e-20
4.80998e-21
3.06262e-20
7.30091e-21
3.75696e-22
2.61923e-20
2.21903e-21
1.97816e-21
2.01893e-21
5.45812e-21
1.34674e-21
2.20466e-21
6.15558e-23
2.18982e-21
2.12203e-20
7.10423e-21
7.72875e-21
2.45126e-21
1.21562e-20
9.01511e-21
7.14785e-21
3.56937e-21
3.49504e-21
2.39991e-21
7.92465e-21
1.47037e-20
1.48418e-21
2.96037e-20
5.7993e-21
1.50893e-21
1.26468e-20
1.54019e-23
1.44151e-21
2.35424e-21
1.93567e-21
1.27112e-23
8.38561e-21
3.86029e-21
6.70603e-21
1.80401e-21
1.34918e-20
1.80495e-21
5.64098e-21
1.08459e-21
4.10515e-21
8.15165e-22
1.47969e-20
7.51481e-21
4.29475e-21
8.91664e-21
2.6289e-22
2.14636e-20
5.09663e-21
1.78606e-21
1.40583e-20
1.27086e-20
1.42215e-21
1.70596e-21
7.01045e-21
2.12696e-21
8.66486e-21
7.76278e-21
1.24084e-20
4.32667e-21
3.32707e-21
7.4964e-21
2.28616e-21
1.5488e-20
2.82186e-21
2.21394e-20
5.87031e-23
4.53419e-23
7.64192e-21
3.3142e-20
1.80515e-20
1.86642e-22
1.84788e-20
2.23617e-21
2.01145e-20
7.08757e-21
9.51483e-21
4.46332e-21
8.52776e-21
1.53682e-20
5.43319e-22
7.51471e-22
1.22404e-20
6.35432e-21
2.93278e-21
3.90511e-22
1.72361e-20
4.24392e-21
1.21871e-20
1.95721e-20
1.92413e-21
1.24618e-21
1.77129e-20
1.04092e-21
6.60341e-22
3.20788e-21
1.3322e-21
2.32006e-20
9.06468e-21
1.80331e-20
1.16592e-20
8.15951e-23
2.73599e-21
3.39948e-20
8.00605e-21
5.3714e-22
1.13198e-20
9.50358e-21
4.03084e-21
2.06749e-20
8.82752e-21
3.29044e-21
2.55059e-21
1.1992e-20
1.40724e-21
1.4098e-20
7.93017e-21
1.65615e-21
1.60413e-20
3.32044e-21
6.99031e-21
1.24562e-21
1.4898e-21
7.77755e-21
1.10431e-20
1.51727e-21
1.38398e-21
4.91926e-21
1.8525e-21
1.50654e-21
8.0693e-21
1.22505e-21
9.16348e-21
1.80819e-21
4.75469e-21
2.07933e-22
3.46476e-21
9.46299e-21
4.61215e-21
1.59155e-21
3.43433e-21
1.18577e-20
1.76648e-20
4.43021e-22
3.0784e-21
1.05661e-20
2.4341e-21
3.62469e-21
4.11655e-21
2.10747e-20
4.35455e-21
7.09096e-21
8.88257e-22
2.32698e-21
1.61752e-20
3.48329e-21
5.52812e-21
6.14133e-21
1.18435e-21
5.43715e-21
3.57333e-21
3.95356e-22
8.70462e-21
1.7259e-21
1.0891e-20
3.44883e-21
1.09017e-21
1.90881e-21
5.2837e-21
3.85279e-21
1.28528e-20
2.10335e-21
3.56177e-21
1.08846e-20
4.92774e-21
6.51263e-21
2.18987e-21
1.27074e-21
4.37563e-21
7.55165e-21
2.23316e-21
3.32047e-21
6.17283e-21
1.8118e-21
2.17784e-21
4.84854e-21
9.89111e-21
3.28821e-20
1.76855e-20
1.22015e-20
2.30031e-21
6.91699e-21
3.52733e-21
5.15532e-21
1.31244e-21
3.69322e-21
1.00273e-22
4.8911e-21
3.58172e-20
5.43497e-21
2.64066e-20
4.19381e-22
2.46507e-20
1.00204e-20
2.75372e-21
1.38965e-20
2.03735e-21
3.9718e-21
1.47357e-21
2.77324e-21
6.46129e-22
3.19518e-21
2.09704e-21
3.19136e-21
1.93099e-21
1.21986e-20
7.55847e-21
8.72651e-21
1.20429e-20
5.11938e-21
1.11209e-20
4.11678e-21
1.45764e-21
4.07677e-21
3.29018e-21
2.92612e-21
3.28274e-21
2.48371e-21
2.33803e-20
3.24257e-21
1.44742e-21
4.08335e-21
4.20431e-21
2.22075e-20
4.4657e-20
1.18114e-20
2.72478e-21
2.58744e-21
3.73641e-21
7.51475e-23
3.25265e-21
1.47277e-20
8.79674e-22
6.87068e-23
3.59927e-21
2.08602e-21
3.88341e-21
1.00868e-21
7.36737e-21
4.15239e-22
3.87343e-22
2.23886e-21
1.07983e-20
1.13463e-21
1.74252e-21
1.63322e-20
3.96727e-21
5.82611e-21
6.83117e-21
7.54605e-21
2.19276e-21
7.78883e-21
6.18042e-21
1.6252e-21
1.04267e-20
6.98064e-21
2.06739e-22
2.18016e-21
3.45496e-21
4.92519e-21
2.12727e-21
2.16448e-21
7.46395e-22
4.75013e-22
5.5486e-21
1.81493e-20
7.71433e-21
6.08143e-21
2.79853e-21
4.81789e-21
1.09971e-21
7.17619e-21
2.81776e-21
4.76176e-20
1.596e-20
2.50311e-21
7.73327e-22
2.59446e-21
2.04492e-20
4.46855e-21
4.14032e-21
6.79274e-21
7.84799e-21
1.30868e-21
1.76415e-20
6.84035e-21
4.01593e-21
5.7344e-21
9.72075e-21
7.20982e-22
7.29005e-21
2.31754e-20
4.73552e-21
2.30972e-20
6.58893e-21
2.3321e-21
8.4539e-23
6.25024e-21
4.68525e-21
7.06161e-22
3.35605e-21
2.24157e-21
4.58683e-21
1.63492e-21
1.2022e-20
2.95496e-21
2.21896e-21
5.99044e-21
2.69178e-21
4.1113e-21
1.52014e-21
7.37764e-21
1.13534e-20
5.91107e-21
2.46129e-21
4.36987e-21
1.8635e-21
1.83184e-20
1.58357e-20
7.33862e-21
4.28815e-21
6.04125e-21
1.08618e-20
2.17717e-20
1.26828e-21
6.78229e-21
5.0075e-22
9.51382e-22
2.45747e-20
2.58698e-20
1.26906e-20
2.08773e-21
3.86591e-21
4.92456e-21
1.41207e-20
8.86756e-21
1.09896e-20
8.13741e-21
1.06227e-21
4.13792e-21
3.58477e-21
5.84289e-21
1.68988e-21
2.33418e-21
7.92545e-21
8.94527e-21
7.42048e-22
4.30084e-22
9.86144e-21
3.93055e-21
8.9586e-21
2.39994e-20
9.71579e-22
5.44121e-21
2.08086e-20
5.772e-21
1.71101e-21
3.84542e-21
1.19676e-21
1.39226e-21
2.86646e-21
9.26507e-21
1.88958e-21
8.74444e-21
4.6647e-21
2.50852e-20
5.79322e-21
1.83012e-21
4.35963e-21
1.91376e-21
2.41938e-21
9.69109e-21
4.89169e-21
6.66598e-21
3.15258e-21
1.99693e-21
1.33326e-21
3.91188e-21
4.64417e-21
3.78423e-21
5.78368e-21
2.01022e-21
2.3621e-21
4.36429e-21
3.16988e-21
1.64144e-21
1.19339e-20
1.58299e-20
3.23238e-21
7.10617e-21
8.56639e-22
3.60094e-21
9.14958e-21
1.16599e-20
8.23288e-21
3.64501e-20
1.80922e-21
3.12383e-21
1.92204e-21
1.76123e-22
9.81352e-22
1.13107e-20
9.65873e-21
2.19733e-21
3.46591e-21
1.0588e-20
1.30903e-21
6.88702e-21
3.53126e-21
4.10436e-21
1.53405e-21
1.26696e-20
9.56266e-21
1.42554e-20
4.03793e-21
6.02367e-21
2.62938e-21
8.7456e-21
2.35693e-21
6.77904e-22
1.58371e-21
8.96601e-21
6.52012e-21
8.87601e-21
9.66809e-21
7.24353e-22
1.12044e-20
6.67473e-21
2.3605e-21
2.58133e-20
1.65792e-20
2.94503e-21
8.47761e-22
4.95553e-21
1.11611e-20
1.09525e-20
4.80505e-21
1.29407e-20
4.14042e-21
4.10419e-21
9.67965e-22
2.39724e-20
1.07426e-21
1.10808e-20
2.16227e-21
2.16042e-21
3.34852e-21
2.13955e-20
2.43467e-21
2.17803e-21
1.6403e-20
1.02148e-20
1.08878e-21
1.07936e-20
3.97774e-22
1.49643e-21
4.78196e-21
2.66003e-20
1.27772e-21
3.17732e-23
5.85321e-21
5.01413e-21
8.02526e-21
5.25915e-22
2.35301e-21
1.04031e-20
1.1625e-20
2.6156e-22
1.01599e-20
1.27096e-20
2.16332e-21
7.50302e-21
1.53899e-20
3.54499e-21
7.9172e-21
4.84608e-21
7.05332e-21
3.20735e-22
5.63992e-21
2.26954e-21
8.25126e-22
3.99675e-22
1.40761e-21
4.21371e-21
1.59236e-20
7.02183e-24
7.4503e-22
4.92622e-21
1.29603e-20
9.61291e-21
1.20642e-20
1.04531e-20
1.33937e-20
4.49327e-21
7.73784e-21
7.13254e-21
7.22408e-21
1.59694e-20
1.65564e-21
1.42943e-22
1.10819e-21
4.29527e-21
8.29641e-21
6.44059e-21
1.85214e-21
5.02605e-21
1.80387e-23
9.05439e-21
1.07967e-20
7.95966e-21
6.57322e-21
4.70264e-21
4.24363e-21
1.39294e-22
1.29192e-20
1.41311e-20
6.89593e-22
4.91652e-22
1.04838e-21
5.23121e-21
3.17851e-20
1.71024e-21
2.70674e-21
6.35551e-21
2.96782e-21
8.67067e-21
4.63072e-22
2.3206e-20
7.3413e-21
3.53406e-22
5.03882e-21
1.64519e-21
4.61055e-21
4.07177e-21
1.19394e-20
2.86505e-21
9.82182e-21
5.68101e-21
5.23489e-22
5.51733e-21
4.51525e-21
5.44369e-21
5.2284e-21
3.33753e-21
2.90097e-21
3.05832e-20
2.71957e-21
5.09462e-21
1.88005e-20
6.65219e-22
6.9357e-21
8.91916e-21
7.18204e-21
1.34648e-20
6.33662e-22
9.21427e-21
5.8541e-21
3.12892e-21
5.8476e-21
2.54179e-21
8.18168e-21
3.15214e-21
5.54886e-21
6.35779e-21
1.11667e-20
8.60037e-22
2.75205e-22
6.51453e-22
3.45635e-21
9.02155e-22
6.14407e-21
1.8572e-21
3.01971e-21
2.32718e-21
1.24922e-20
2.23077e-21
6.32431e-21
3.88601e-21
3.04411e-21
8.67244e-21
5.29492e-21
6.34504e-22
3.54343e-22
2.10373e-21
8.83384e-22
8.83457e-24
8.10258e-23
6.4461e-21
6.71406e-21
6.48884e-21
6.21838e-21
3.57607e-21
3.37654e-21
1.0458e-21
1.33864e-20
1.7247e-20
3.24417e-21
4.80177e-21
2.48875e-21
2.44083e-20
4.16799e-21
5.76212e-21
2.09113e-21
2.14453e-20
3.08658e-21
5.81054e-22
1.78056e-21
3.69919e-21
7.15838e-21
9.1217e-21
4.16579e-22
1.11708e-20
3.32462e-20
7.21193e-21
5.1909e-21
3.44597e-22
4.36195e-22
1.17052e-20
2.06638e-20
5.46302e-21
9.62429e-22
1.65928e-20
2.88513e-21
1.22106e-20
4.47408e-21
1.93723e-20
1.13647e-21
7.88621e-21
1.73893e-20
2.64673e-21
6.06668e-21
2.33184e-20
9.52051e-23
6.93442e-22
1.41434e-21
8.66221e-21
5.27328e-21
4.12496e-21
7.1087e-22
3.72362e-22
6.65841e-21
3.67026e-21
8.34235e-22
1.79346e-20
2.13712e-20
2.18836e-21
4.96823e-22
6.33073e-21
1.03086e-20
7.20818e-21
9.24973e-24
1.20787e-20
5.17053e-21
1.72062e-21
4.81302e-21
2.56657e-21
4.97023e-21
3.43164e-20
4.21068e-21
3.09705e-21
8.39471e-21
2.34985e-22
1.10373e-21
3.44476e-21
5.3931e-21
5.3246e-21
7.00328e-21
1.75108e-21
1.05465e-20
5.69727e-22
2.01902e-21
8.36747e-21
1.93312e-20
6.70926e-21
8.41488e-21
1.43643e-21
1.50496e-20
1.15996e-20
2.48568e-21
2.23035e-21
7.38303e-21
4.09019e-20
4.04819e-21
3.70077e-21
2.80277e-21
4.73605e-21
1.41359e-21
1.59776e-20
5.19354e-21
5.16934e-21
7.50471e-21
1.71333e-20
8.78403e-21
1.43213e-21
5.81363e-21
9.2088e-21
2.485e-20
6.61799e-21
1.23527e-20
4.04655e-21
5.56917e-21
3.00751e-21
1.0516e-21
2.44094e-21
1.55949e-20
4.03245e-21
4.75344e-21
6.75916e-21
1.52216e-20
1.49834e-20
6.51438e-21
2.39448e-21
4.01768e-21
1.88461e-21
5.33126e-23
8.52252e-22
4.40104e-21
2.21364e-20
6.82656e-22
3.4163e-21
3.13055e-21
3.00255e-21
5.90149e-21
2.2988e-21
7.12296e-21
1.08737e-20
2.19379e-21
1.3152e-21
3.18645e-21
5.28037e-21
1.06997e-21
4.92539e-21
7.22805e-22
2.94057e-20
1.15743e-21
4.65756e-22
1.77685e-20
1.3769e-21
9.51277e-21
7.639e-22
2.6869e-24
1.99664e-20
4.73958e-21
1.08247e-20
3.79158e-21
1.96897e-20
2.26963e-21
1.3803e-20
4.294e-21
4.17549e-20
7.91473e-21
6.34291e-21
1.50301e-20
6.26774e-21
4.12632e-21
1.07533e-20
6.09795e-21
8.87033e-21
1.52608e-20
8.1918e-21
4.28079e-21
4.2882e-21
1.99546e-21
1.76398e-20
7.32836e-21
1.39838e-20
9.1356e-21
5.25434e-21
2.41861e-21
6.31136e-21
2.54719e-21
2.88401e-20
7.07697e-22
2.54789e-21
6.81845e-21
6.82332e-21
5.68343e-21
6.28667e-21
3.54897e-21
4.90513e-21
2.83836e-21
3.40696e-21
2.84653e-21
3.79628e-21
1.48638e-20
1.11708e-21
5.95509e-21
4.27342e-21
4.56176e-21
8.38319e-21
3.71586e-21
1.30686e-20
5.28141e-21
9.89605e-22
6.26587e-21
1.4157e-22
4.27206e-21
3.75462e-20
1.52893e-20
2.00736e-21
2.32839e-20
2.64581e-21
2.2965e-23
7.04454e-21
7.52079e-21
1.69538e-20
9.12797e-21
2.76095e-21
5.57602e-21