/*--------------------------------*- C++ -*----------------------------------*\
  =========                 |
  \\      /  F ield         | OpenFOAM: The Open Source CFD Toolbox
   \\    /   O peration     | Website:  https://openfoam.org
    \\  /    A nd           | Version:  7
     \\/     M anipulation  |
\*---------------------------------------------------------------------------*/
FoamFile
{
    version     2.0;
    format      ascii;
    class       volScalarField;
    location    "0.003";
    object      overallT;
}
// * * * * * * * * * * * * * * * * * * * * * * * * * * * * * * * * * * * * * //

dimensions      [1 2 -2 0 0 0 0];

internalField   nonuniform List<scalar> 
1000
(
239.293
231.141
247.567
264.514
267.424
242.238
234.135
249.836
253.058
241.262
247.551
252.405
238.913
271.167
275.354
259.706
271.425
246.442
239.322
269.403
264.73
263.923
263.659
253.511
261.352
242.952
244.906
252.05
281.749
295.556
288.557
263.477
269.495
258.712
267.19
270.465
260.315
254.414
256.037
262.143
273.006
264.052
247.877
246.59
235.942
260.764
267.687
272.188
257.642
276.949
283.539
297.183
308.151
288.092
277.8
262.39
258.176
262.968
281.087
266.059
284.693
287.831
281.608
253.861
269.48
283.664
267.746
288.361
303.09
302.706
290.376
294.096
306.973
286.797
297.896
302.68
315.837
293.212
303.728
301.464
322.006
300.446
294.81
272.01
273.941
283.394
311.202
297.174
286.401
319.484
333.96
325.345
296.808
288.544
287.936
274.577
301.988
339.027
329.759
327.174
352.942
342.888
310.066
310.343
303.46
320.692
290.318
364.027
330.155
342.204
349.207
347.08
333.152
291.738
278.93
298.331
319.308
334.771
342.808
336.075
312.707
302.391
317.684
336.057
314.88
282.709
294.99
307.939
313.917
315.157
335.547
320.934
327.034
324.352
352.837
351.64
335.346
331.246
347.442
312.586
324.041
364.929
378.238
360.957
324.477
324.247
301.36
299.446
307.666
308.367
313.33
327.079
336.578
321.091
339.345
337.008
336.506
315.929
298.901
302.187
298.453
289.946
293.775
311.887
304.751
273.77
294.085
287.598
287.953
261.86
250.793
248.998
260.193
235.571
245.869
253.101
255.766
270.42
252.147
241.338
231.414
207.753
230.538
247.259
246.196
242.222
241.322
257.926
254.239
276.848
271.272
260.396
265.21
282.563
289.293
298.678
265.578
255.586
243.535
258.856
280.638
294.472
295.576
289.153
312.09
321.594
277.722
264.248
300.749
267.44
280.407
292.192
290.305
288.719
284.368
284.246
252.778
265.688
287.069
280.551
282.887
281.216
309.565
306.459
305.077
304.637
314.02
323.574
336.366
329.089
315.565
301.839
305.042
317.217
326.971
305.296
340.796
357.855
336.689
326.918
319.352
340.525
344.43
316.862
347.179
345.938
347.221
335.79
300.592
318.303
295.386
296.028
268.401
273.27
284.007
271.019
297.507
296.304
282.402
285.921
285.895
314.568
329.909
304.116
295.07
302.232
301.017
300.061
300.393
304.664
311.793
334.341
303.557
305.892
315.411
308.967
325.77
304.795
291.254
294.796
298.746
295.115
306.91
324.382
322.37
302.147
302.893
335.922
355.388
328.336
337.356
352.741
313.643
282.629
299.552
288.732
306.861
292.772
329.998
322.548
300.125
334.224
321.407
319.755
314.672
301.873
307.803
298.61
296.849
312.287
311.763
311.181
300.203
286.592
299.372
290.45
290.455
295.53
353.088
337.79
324.928
309.194
297.781
298.279
306.473
304.504
288.216
276.833
272.646
249.446
248.661
273.999
273.821
274.52
276.618
264.996
307.564
306.185
289.251
295.508
295.316
292.303
297.754
297.595
296.884
273.82
298.83
308.799
309.742
304.76
309.487
314.705
316.041
318.329
321.027
348.189
344.383
333.537
328.288
318.757
318.533
277.851
317.746
325.743
323.377
309.336
320.829
277.457
276.342
293.128
312.17
324.458
306.007
315.524
308.771
325.949
318.186
303.551
296.817
275.847
289.642
276.952
285.628
295.288
288.54
286.063
295.528
314.199
338.494
347.33
326.735
310.181
303.627
312.764
314.938
323.341
312.029
312.565
297.699
291.087
273.171
279.242
274.526
271.736
279.999
282.201
294.34
316.351
308.281
294.105
261.118
302.673
311.021
295.372
303.519
307.81
326.714
311.912
300.259
286.31
324.613
322.711
302.48
317.47
309.978
320.588
324.282
316.998
297.378
312.111
314.501
286.414
318.747
317.316
323.987
313.943
291.874
271.18
276.159
275.687
290.814
295.933
298.316
287.085
262.107
284.68
298.563
285.394
296.59
308.491
319.689
310.356
291.072
287.188
289.642
287.112
279.733
285.121
285.308
290.616
293.322
297.971
284.402
303.955
343.203
326.031
344.071
343.185
327.111
323.013
335.054
317.22
336.333
316.226
292.798
294.408
277.649
280.399
274.749
260.366
274.446
277.243
299.875
323.507
315.24
307.801
317.766
309.631
273.512
320.886
307.805
333.581
327.754
326.417
313.675
317.277
312.958
324.05
298.158
289.925
299.577
298.256
280.833
310.938
313.139
325.59
330.51
305.617
292.746
308.688
315.054
318.257
315.244
302.439
302.932
309.068
314.122
281.084
300.901
302.543
310.72
283.836
271.214
292.179
311.811
311.419
300.446
285.1
280.733
275.255
275.52
291.922
286.785
286.099
285.751
287.911
299.14
329.913
336.677
339.702
317.973
305.925
314.598
319.967
318.793
326.238
317.35
296.233
294.134
289.485
256.366
262.307
283.834
277.146
308.759
281.297
277.508
287.448
277.358
291.758
289.129
287.789
285.143
257.254
270.054
288.355
291.339
305.403
275.134
269.226
278.744
299.056
328.202
331.773
332.59
315.412
311.469
280.189
273.533
270.4
247.547
260.462
264.087
259.258
268.806
254.989
264.774
249.573
260.404
276.105
255.515
258.261
264.205
266.986
279.904
271.055
275.455
286.197
304.284
305.047
315.002
301.348
295.081
306.713
301.506
354.961
322.793
313.238
304.944
328.989
315.413
304.678
294.146
296.135
269.286
293.172
281.93
285.979
278.791
297.334
296.92
285
296.676
303.464
297.221
307.223
310.556
309.952
312.643
301.867
300.899
287.387
282.713
288.112
290.973
306.29
316.542
335.517
335.763
302.83
296.517
287.143
278.286
324.305
324.358
310.042
298.775
306.547
293.563
302.09
294.701
281.128
273.032
290.121
309.804
310.154
322.678
317.044
329.438
318.667
312.948
294.675
309.393
353.043
336.19
347.339
323.807
313.47
353.781
363.813
347.867
335.497
350.466
320.501
307.124
300.855
295.968
276.961
276.984
270.613
288.056
276.249
266.659
250.66
262.944
280.611
303.663
303
288.049
278.154
266.561
293.57
274.701
292.666
313.347
335.014
329.197
299.147
298.522
293.696
287.804
314.496
271.193
285.2
272.468
272.998
289.352
327.338
322.712
303.084
307.482
270.658
266.515
253.141
242.544
268.722
265.669
289.01
300.741
273.513
290.093
298.112
298.15
290.403
297.163
307.4
298.459
314.257
289.892
266.024
271.433
282.565
299.858
292.718
287.275
290.703
285.997
275.72
290.819
293.505
308.603
306.73
292.768
288.18
281.355
279.056
269.788
288.229
279.943
298.579
307.055
314.128
314.802
309.766
297.285
297.34
288.549
297.95
299.937
286.809
273.932
301.781
276.307
265.598
281.561
285.255
293.718
291.886
298.73
289.699
292.614
295.375
309.985
326.997
346.832
332.17
323.39
330.754
332.442
331.238
339.537
339.816
330.131
335.148
328.889
315.784
344.948
345.98
313.324
300.367
307.547
317.225
310.737
307.181
291.639
327.376
309.815
284.785
285.448
310.614
299.623
311.399
325.68
327.582
327.942
315.68
319.847
325.015
336.177
319.711
344.481
326.954
306.096
301.521
313.054
290.449
284.292
264.437
297.736
298.162
291.317
299.544
294.191
333.121
300.309
302.418
296.987
291.674
311.681
318.2
342.842
315.843
325.764
333.146
308.744
299.066
283.668
304.327
298.823
304.644
298.291
290.515
289.562
309.352
317.402
327.539
312.817
301.797
317.632
329.273
335.173
333.363
343.56
324.134
305.136
324.635
322.709
336.067
342.677
339.201
309.223
294.775
305.939
298.25
321.073
294.891
295.033
286.486
307.99
342.122
307.015
298.04
291.988
277.168
266.242
264.252
294.47
308.681
307.461
287.485
306.188
300.391
268.036
273.292
253.854
252.05
271.664
271.68
292.271
283.409
290.342
290.579
299.069
300.244
315.025
345.552
332.997
319.913
307.15
309.504
311.982
296.492
299.824
328.781
321.456
317.587
289.271
318.58
309.055
319.849
294.366
305.533
316.692
286.478
311.726
318.965
323.022
331.6
351.413
329.334
312.713
298.824
269.624
296.196
283.836
281.665
293.672
290.994
278.608
291.188
259.489
252.436
237.589
245.152
278.552
261.582
266.975
257.727
250.864
244.631
247.149
267.598
249.78
257.581
252.742
246.582
263.82
267.159
267.997
270.803
287.726
283.062
259.304
269.501
281.563
248.024
289.764
251.061
253.746
225.843
229.012
230.54
239.8
233.242
230.749
246.725
267.98
254.305
235.558
229.318
207.799
209.486
225.425
216.473
224.195
234.837
227.916
250.951
231.401
221.104
260.223
234.001
220.571
217.725
263.239
239.016
262.957
243.884
221.878
215.743
217.377
233.643
212.423
231.805
220.695
217.743
196.352
216.044
225.63
225.112
)
;

boundaryField
{
    sides
    {
        type            calculated;
        value           nonuniform List<scalar> 2(225.112 239.293);
    }
    empty
    {
        type            empty;
    }
}


// ************************************************************************* //
