/*--------------------------------*- C++ -*----------------------------------*\
  =========                 |
  \\      /  F ield         | OpenFOAM: The Open Source CFD Toolbox
   \\    /   O peration     | Website:  https://openfoam.org
    \\  /    A nd           | Version:  7
     \\/     M anipulation  |
\*---------------------------------------------------------------------------*/
FoamFile
{
    version     2.0;
    format      ascii;
    class       vectorField;
    location    "0.00036/lagrangian/dsmc";
    object      U;
}
// * * * * * * * * * * * * * * * * * * * * * * * * * * * * * * * * * * * * * //


10460
(
(-351.657 333.736 351.919)
(647.895 -154.067 -214.193)
(591.562 -172.853 -201.746)
(186.287 -264.008 -637.456)
(-353.856 285.064 283.979)
(580.178 535.367 -159.739)
(940.302 -379.997 -983.434)
(406.853 -53.7222 776.212)
(118.872 -479.369 747.307)
(-157.367 -152.802 -470.897)
(138.197 -45.0959 -506.616)
(763.598 -299.19 79.6134)
(985.767 -46.2299 378.033)
(396.048 792.046 -711.608)
(-83.6839 -157.24 98.4235)
(693.429 -353.25 636.709)
(475.3 -59.6173 405.287)
(405.586 -140.661 -411.925)
(602.33 -211.015 544.196)
(-49.5299 106.199 -11.2907)
(212.953 -281.008 311.186)
(242.499 311.19 217.372)
(631.442 -650.83 340.824)
(704.289 138.949 13.614)
(552.327 88.1552 -115.91)
(43.831 -15.8259 -32.2258)
(74.079 -882.205 662.14)
(94.6743 -313.125 767.171)
(359.79 267.389 -786.238)
(788.071 562.88 -292.949)
(697.689 -192.067 -175.014)
(-234.262 156.22 20.2143)
(804.268 188.116 645.19)
(853.514 -221.124 -511.751)
(373.736 609.843 -423.057)
(867.779 -47.6792 544.948)
(514.401 -142.514 -223.257)
(197.021 -563.743 191.684)
(359.851 -272.033 -942.902)
(1067.22 170.493 233.647)
(727.671 -818.285 -175.048)
(1180.93 631.781 -259.874)
(257.681 -406.012 -417.874)
(-150.953 128.703 141.582)
(989.919 108.91 -763.815)
(156.792 164.401 323.885)
(-170.214 233.229 -765.836)
(623.896 164.497 -308.255)
(209.887 525.592 99.6936)
(226.179 -93.587 -248.675)
(-552.31 46.1943 -804.152)
(734.112 -479.865 -352.905)
(1005.11 -877.412 -144.275)
(364.448 483.156 -531.439)
(211.141 45.2744 211.972)
(605.707 987.269 -584.745)
(323.671 610.649 284.221)
(343.272 39.5805 281.314)
(538.027 -196.694 154.451)
(676.61 -296.68 205.646)
(38.0299 -124.461 4.92409)
(332.997 -444.377 338.502)
(748.588 302.009 57.7938)
(941.35 293.942 -570.47)
(913.561 -279.062 324.839)
(510.439 313.856 -283.673)
(345.58 1303.96 187.457)
(-438.957 -216.847 217.249)
(-326.116 1412.02 -264.906)
(243.37 373.686 543.151)
(906.238 145.986 276.771)
(45.8146 -77.5063 -558.299)
(575.598 -535.058 195.255)
(-328.934 146.987 -371.201)
(290.496 168.612 635.358)
(319.506 -199.826 -454.789)
(-169.394 -278.489 -379.498)
(28.4121 -771.953 -35.2806)
(790.442 94.7035 -12.9843)
(153.657 390.049 -254.424)
(121.139 145.299 548.986)
(828.839 -218.881 -512.38)
(527.279 -11.0822 703.485)
(231.888 -371.756 562.697)
(871.538 761.03 0.231605)
(800.714 -26.299 -251.745)
(-57.0217 23.9527 178.665)
(241.055 817.591 -178.477)
(544.249 -279.146 581.604)
(976.997 67.8539 -41.5709)
(380.845 150.327 -34.4877)
(494.365 -132.651 130.093)
(650.585 -637.863 676.274)
(31.727 242.367 -51.3599)
(-33.1433 50.5367 -126.917)
(1249.02 -1186.22 -506.448)
(713.923 -79.8878 -80.0146)
(599.534 727.391 876.225)
(629.271 462.083 307.135)
(499.754 -424.49 -204.779)
(88.4649 -120.251 570.418)
(418.956 -111.35 702.405)
(176.895 360.998 -437.957)
(857.826 -977.605 -83.6123)
(894.949 221.962 407.05)
(396.165 -458.107 139.01)
(587.988 -290.877 96.1818)
(1149.3 250.108 219.223)
(-26.4856 676.586 -621.158)
(329.834 -904.626 651.393)
(100.408 -992.779 408.632)
(494.223 -130.775 525.011)
(176.403 -638.014 -271.423)
(-221.238 738.3 -840.741)
(698.085 170.253 526.944)
(310.73 -532.868 507.792)
(-106.741 179.959 -426.357)
(983.788 -585.279 266.322)
(265.762 -100.405 476.379)
(-228.229 -209.251 56.7668)
(40.9509 96.2575 485.554)
(717.089 -111.3 932.858)
(322.721 231.907 246.447)
(201.336 733.693 858.11)
(-292.625 -683.817 -464.625)
(794.777 311.745 -190.864)
(482.189 97.7096 -36.8679)
(783.746 335.738 -307.814)
(-121.449 -194.071 -302.491)
(1157.28 -430.025 -75.5168)
(173.814 52.4865 44.9526)
(685.466 -194.898 29.194)
(515.837 -180.285 -679.068)
(770.053 -435.285 -855.929)
(-20.359 -1475.31 986.269)
(-108.215 365.067 -1079.27)
(172.72 41.4654 -11.7388)
(597.809 -555.148 609.619)
(150.774 1174.21 2.43451)
(339.861 -89.9573 665.148)
(405.701 -277.681 -66.8867)
(725.692 699.262 -436.062)
(855.127 0.437549 139.355)
(277.421 -221.521 -202.588)
(375.763 265.621 -157.179)
(492.17 41.8224 376.608)
(125.424 63.404 585.217)
(-194.326 207.984 119.02)
(585.989 801.853 64.8954)
(1072.7 -344.381 -155.635)
(461.84 742.17 165.79)
(523.633 -321.85 230.02)
(281.969 -38.8383 -281.881)
(142.155 352.202 -93.9526)
(482.361 147.467 -61.5571)
(557.542 -515.393 -131.194)
(251.393 290.727 154.448)
(488.548 598.908 241.373)
(375.77 -7.88699 -508.485)
(508.762 82.4323 -458.628)
(244.966 -99.4345 -174.56)
(584.522 -706.745 181.741)
(-71.5874 -412.657 -517.455)
(1024.24 -460.722 536.82)
(516.224 -0.955191 -1057.27)
(363.59 -336.899 -633.777)
(186.414 -20.1984 -86.8564)
(669.491 -539.122 481.724)
(567.361 492.538 732.831)
(280.361 260.508 516.859)
(816.765 48.5923 -359.335)
(-112.476 248.194 124.121)
(959.225 -465.125 279.485)
(1064.21 -100.226 620.914)
(-207.508 295.141 20.7739)
(219.52 22.1943 -192.585)
(1137.61 373.536 272.455)
(405.942 -342.252 -484.104)
(300.352 29.2921 -132.951)
(853.089 130.471 -596.073)
(418.839 557.349 193.592)
(463.825 -377.451 -182.11)
(-507.836 282.05 28.0527)
(1190.83 -746.781 -50.8889)
(123.916 -273.853 40.5628)
(1092.19 -365.738 -245.187)
(-107.184 490.182 340.705)
(498.196 -215.479 -306.745)
(410.453 -385.176 -111.719)
(936.956 -417.804 311.342)
(-362.78 400.312 889.556)
(386.835 121.067 -217.66)
(496.954 -262.608 147.127)
(186.752 -215.535 417.366)
(-169.552 99.1741 20.4761)
(340.434 -132.918 -171.214)
(269.352 192.02 -244.376)
(40.879 47.8 -261.509)
(828.651 135.363 662.005)
(704.918 50.888 528.114)
(651.28 -151.643 316.202)
(501.506 149.986 81.2165)
(913.736 -86.2337 -524.244)
(1346.81 -373.013 -632.129)
(170.999 207.49 773.358)
(568.097 432.248 -97.5096)
(660.779 583.59 151.25)
(834.059 -435.656 624.523)
(244.468 -191.482 215.14)
(494.638 -516.156 -695.759)
(765.375 -677.107 511.887)
(744.263 361.055 813.186)
(675.443 -304.648 -162.631)
(209.172 95.6762 -461.484)
(424.344 307.4 90.9659)
(471.644 -149.201 -15.252)
(-368.809 281.01 -1.5157)
(-28.1468 -674.032 45.911)
(608.503 -353.93 74.1933)
(1054.16 -825.184 -308.801)
(232.642 -403.858 285.657)
(-108.54 180.533 -291.777)
(80.7849 -208.602 -252.149)
(271.123 -62.3068 -751.771)
(677.923 217.984 755.61)
(714.851 -237.755 -681.744)
(-156.432 759.175 -477.744)
(387.081 509.673 -787.776)
(-0.230344 -1083.6 -404.082)
(216.587 -178.119 124.595)
(422.748 -303.912 462.799)
(417.427 48.5563 -19.3638)
(1336.06 -231.203 -445.258)
(845.969 1094.23 142.296)
(-321.914 197.002 -158.568)
(649.616 -635.031 -583.398)
(462.773 -38.9175 -1008.61)
(497.392 -386.062 -192.012)
(765.604 74.6057 27.6958)
(577.701 -592.294 314.956)
(-173.884 -375.961 68.0564)
(833.517 -818.429 66.5222)
(-456.566 429.532 282.452)
(-255.173 -44.7436 437.358)
(237.254 16.1191 316.811)
(866.303 431.602 -400.572)
(1312.94 -129.29 -355.106)
(463.217 347.064 -86.151)
(343.548 -244.881 -260.916)
(580.935 -522.423 -38.9049)
(882.655 300.643 -61.499)
(1101.18 192.67 343.305)
(421.989 696.966 111.347)
(626.941 471.69 22.7293)
(991.018 -1064.62 -595.243)
(816.6 -499.597 -540.69)
(559.096 720.889 -701.654)
(395.704 -69.8124 -567.493)
(557.416 31.5098 16.2327)
(739.193 90.4443 -89.9636)
(666.361 -144.021 770.11)
(90.0615 -201.09 510.488)
(720.531 -87.1123 -220.976)
(212.278 -11.509 85.0808)
(193.341 -34.2607 70.1231)
(575.055 772.748 -48.5221)
(490.231 -466.872 -278.581)
(484.688 -631.077 -224.723)
(469.332 339.666 -45.5752)
(326.264 -4.34832 528.96)
(-11.91 -88.1786 225.534)
(670.972 140.525 245.08)
(-302.171 -167.565 -904.087)
(633.162 -125.581 460.711)
(6.16816 -177.671 71.451)
(636.026 630.285 -671.069)
(157.761 -83.0189 -423.058)
(288.296 -328.208 373.631)
(782.303 392.261 -537.339)
(-163.135 -192.095 317.982)
(220.456 -144.086 183.769)
(-20.8594 -211.758 -151.312)
(204.391 144.075 -31.1493)
(381.611 -79.678 793.134)
(596.75 -77.2245 -709.219)
(-191.364 -583.33 38.0717)
(-154.643 -171.975 -199.85)
(1021.54 -622.265 507.408)
(340.407 70.0587 -9.89574)
(384.094 252.081 310.118)
(296.444 310.431 -501.359)
(16.202 603.886 185.886)
(502.044 -245.182 372.545)
(349.648 -220.935 164.1)
(84.0597 21.9581 351.537)
(-297.039 -963.459 72.8166)
(623.048 232.123 556.8)
(-97.5395 -831.275 -218.783)
(463.298 308.529 -44.9794)
(874.649 41.505 -197.116)
(184.652 241.474 -268.706)
(-127.742 92.956 285.422)
(67.8646 47.8553 450.411)
(110.4 -400.176 -170.512)
(723.989 -154.702 407.897)
(221.841 138.932 -52.2093)
(1000.15 197.495 387.65)
(128.734 162.495 -243.338)
(744.783 -525.681 -268.986)
(-123.066 928.142 628.844)
(-0.305534 88.53 -228.18)
(298.543 386.901 352.07)
(730.433 103.321 -392.117)
(972.144 -330.223 -628.295)
(-70.8162 -268.82 56.7171)
(396.288 -691.798 -87.5434)
(380.899 153.063 -139.987)
(499.74 899.306 -683.511)
(-77.0856 -186.733 -176.306)
(645.811 -76.764 -583.222)
(167.878 -136.615 -389.02)
(501.692 -34.5943 -37.4336)
(1154.38 -35.1653 -277.81)
(462.251 -430.014 -22.5332)
(-411.729 -493.263 304.516)
(133.738 -322.944 818.368)
(1274.35 -387.466 69.164)
(548.523 194.561 -333.303)
(2.47762 227.675 116.276)
(497.046 -205.006 -454.155)
(147.039 -84.9139 -2.60199)
(139.37 -522.437 613.378)
(460.778 531.47 -223.087)
(-202.503 254.765 -415.061)
(1013.62 -205.58 -32.4159)
(468.011 481.988 389.456)
(721.521 -285.799 -1.11134)
(125.187 360.72 44.8891)
(-61.0927 107.148 397.875)
(688.665 188.905 -56.4638)
(497.932 -358.772 -337.719)
(956.973 -300.742 73.377)
(180.821 226.11 -821.915)
(470.458 672.992 -93.0143)
(264.978 597.752 66.6548)
(183.353 724.63 -391.439)
(37.7961 -159.484 36.4549)
(277.423 406.335 99.9028)
(87.8872 205.064 -206.801)
(724.397 -285.884 179.129)
(188.092 -354.445 234.18)
(287.523 -303.486 24.47)
(676.336 -40.5634 -228.209)
(-10.3842 221.727 -66.7821)
(-7.37368 -8.80944 191.181)
(275.603 0.527497 557.32)
(771.28 -287.511 292.709)
(291.373 -543.752 126.601)
(-65.3888 68.1637 0.649198)
(245.598 -44.8845 47.8815)
(867.457 106.703 105.707)
(1092.07 -519.348 933.308)
(1101.86 50.3881 -489.244)
(387.201 421.601 166.103)
(575.325 260.071 -364.414)
(292.131 157.379 -57.2165)
(489.597 -436.553 108.564)
(128.269 292.046 -196.892)
(845.332 374.43 -186.64)
(783.896 150.697 336.82)
(784.387 -652.604 71.3716)
(547.457 85.527 70.385)
(665.09 300.414 304.933)
(701.065 287.3 203)
(-544.253 -418.835 438.364)
(460.175 18.0104 -691.459)
(210.956 337.803 -367.521)
(137.313 -409.782 246.262)
(429.572 462.12 -71.7895)
(328.841 -499.204 -3.49332)
(401.749 691.008 96.5195)
(918.481 160.267 328.632)
(570.209 358.038 -385.215)
(840.602 18.0931 -341.361)
(224.617 127.313 162.561)
(-60.8484 451.874 705.267)
(762.874 8.87689 -808.042)
(558.531 -404.917 -157.204)
(130.564 -258.362 74.3075)
(342.318 -9.53608 1.59435)
(-38.182 -132.937 301.092)
(959.785 31.9138 162.488)
(711.455 -313.053 -737.141)
(527.559 -18.2637 741.748)
(237.169 -253.371 -180.391)
(211.829 264.827 321.342)
(191.443 -0.855645 -325.114)
(415.736 -184.999 -262.707)
(62.0691 -918.476 -844.587)
(365.706 99.3116 500.212)
(-102.422 -407.708 -306.437)
(776.724 161.083 -399.843)
(-107.261 325.593 280.324)
(467.547 7.78823 211.559)
(-112.22 435.153 -437.282)
(270.556 -140.247 -182.081)
(379.908 -393.881 262.578)
(623.567 -364.689 -47.6654)
(495.847 -566.636 -6.0579)
(1106.29 -361.279 317.187)
(-399.859 152.761 635.112)
(145.201 -244.938 179.526)
(605.989 127.708 150.35)
(528.688 -397.843 256.022)
(889.25 -32.7804 248.794)
(298.612 -794.474 62.4149)
(797.119 -166.018 56.923)
(342.62 28.6311 184.528)
(51.5053 429.418 119.433)
(460.81 -44.5273 71.9304)
(377.515 -299.958 -115.63)
(454.117 235.946 -624.377)
(1109.46 297.257 545.193)
(164.319 505.408 77.4968)
(204.842 -65.7582 265.237)
(598.836 103.719 732.552)
(-57.186 281.143 251.422)
(863.914 -167.197 313.128)
(326.71 -132.06 58.1382)
(98.2078 88.1834 199.213)
(224.33 566.382 228.207)
(459.849 -125.195 -410.232)
(113.804 -558.026 808.869)
(743.112 421.907 -165.432)
(319.063 -41.4276 4.22097)
(327.03 -492.605 133.637)
(418.985 -190.741 -410.361)
(209.465 2.437 -43.6811)
(-372.666 153.546 -534.843)
(257.157 -112.805 -84.5643)
(440.147 -124.162 -465.706)
(589.785 -294.59 708.993)
(765.85 -695.914 -326.718)
(-271.462 154.169 -233.578)
(71.7892 55.6599 198.307)
(865.052 903.525 463.299)
(-76.9621 -330.817 903.198)
(40.9783 33.6089 -638.822)
(95.2161 592.242 304.746)
(301.484 -234.418 -203.149)
(865.356 63.6181 264.456)
(19.4166 -507.345 170.043)
(-198.192 -213.059 180.369)
(455.065 112.781 505.869)
(840.829 285.737 35.5511)
(108.556 -471.349 130.441)
(446.459 -546.782 -5.25618)
(526.75 41.4103 342.656)
(181.949 178.546 194.543)
(-37.4129 -685.829 -225.104)
(434.171 336.245 -121.77)
(610.191 371.506 -323.855)
(190.59 393.513 290.183)
(441.368 -179.316 -363.149)
(-394.06 -74.4362 552.658)
(79.8814 565.991 102.727)
(52.3458 212.731 -868.042)
(578.683 -427.649 671.568)
(556.219 121.387 72.5602)
(393.335 -665.713 718.344)
(264.513 -271.802 -66.377)
(-382.883 568.997 381.38)
(1005.69 154.755 -193.505)
(504.321 -314.441 -31.1642)
(636.055 -948.226 -233.005)
(116.4 -406.268 -84.5785)
(404.948 253.048 356.119)
(245.603 163.383 492.177)
(457.845 361.758 -1.99238)
(1356.63 49.8035 301.854)
(272.807 115.405 432.177)
(11.5589 196.099 -662.813)
(-238.489 624.361 -18.6977)
(433.765 252.537 212.558)
(665.635 166.171 39.8593)
(318.796 -11.2258 258.847)
(622.708 491.84 64.345)
(1169.31 622.718 -329.606)
(625.195 -660.536 52.2661)
(636.541 121.233 -248.749)
(309.594 84.8072 -331.957)
(246.133 -638.348 230.92)
(338.415 233.096 -406.845)
(186.734 63.0878 187.041)
(108.683 467.612 -277.056)
(-3.24851 376.742 101.287)
(298.365 228.347 -16.7345)
(694.949 -249.655 -331.109)
(138.508 3.40034 330.121)
(622.076 -415.781 -500.287)
(719.161 2.80746 16.6087)
(615.191 -163.481 -813.026)
(-66.492 331.67 68.0386)
(581.978 -416.332 5.10548)
(126.066 -676.496 -493.333)
(791.711 282.93 277.928)
(599.59 14.644 309.137)
(696.729 -37.607 -19.8384)
(817.148 711.218 -452.667)
(642.111 133.423 794.467)
(818.035 -395.793 -341.871)
(301.793 70.9246 93.7961)
(533.451 202.387 192.775)
(676.532 63.3296 -596.421)
(886.484 590.768 733.867)
(650.907 443.099 -315.466)
(257.65 61.3645 -368.643)
(602.323 40.9438 356.007)
(246.043 -146.088 102.668)
(871.876 -253.156 785.008)
(-145.044 538.118 -498.303)
(-118.283 -270.601 603.257)
(310.492 39.6655 -542.831)
(765.314 604.697 424.97)
(-252.148 -502.429 -113.906)
(547.294 773.99 -78.8503)
(174.481 -937.831 -304.451)
(473.389 13.5173 -84.6615)
(786.557 98.695 422.565)
(556.963 311.933 -312.395)
(-352.773 -415.052 -47.9339)
(-191.139 125.611 602.715)
(426.458 17.7552 90.2512)
(143.045 57.7481 49.2011)
(508.292 625.989 -154.308)
(328.664 86.9428 508.68)
(69.3167 578.351 -97.2119)
(678.615 333.356 21.0336)
(959.266 14.7324 -726.59)
(265.979 684.892 -456.407)
(576.53 -179.709 317.443)
(114.735 111.429 -342.596)
(644.619 -31.6513 -335.742)
(453.864 -157.793 154.924)
(-128.516 -640.611 -295.787)
(473.586 -371.668 156.533)
(-72.8524 571.951 567.171)
(1107.28 -370.914 -652.36)
(259.111 93.477 40.0155)
(527.328 955.008 -260.475)
(382.303 36.9051 580.167)
(490.396 -919.24 603.903)
(-34.4149 -153.471 53.6501)
(879.3 132.51 -316.903)
(1176.36 -322.649 -90.9096)
(-127.347 -99.6225 -338.763)
(245.907 -256.19 297.626)
(1057.54 256.194 672.216)
(375.866 388.4 87.9327)
(1052.82 626.277 98.777)
(477.292 -791.505 22.9928)
(739.947 383.926 -560.203)
(168.792 273.614 134.059)
(527.479 104.212 -417.397)
(42.0446 206.702 -337.513)
(21.8244 -349.244 -840.415)
(1293.48 359.649 -296.406)
(376.791 401.346 -388.33)
(-129.869 598.168 -352.123)
(37.4158 159.748 125.926)
(424.17 -939.261 -163.292)
(926.264 -296.99 298.178)
(56.7604 -102.677 -17.1528)
(356.793 43.029 -452.119)
(451.543 -77.0375 -254.527)
(318.7 74.6629 309.268)
(-207.843 73.1937 -300.997)
(592.565 203.405 482.519)
(102.133 -29.0062 -530.181)
(534.277 120.01 109.479)
(672.915 527.234 -381.79)
(64.9139 -397.908 -89.9929)
(294.611 623.96 45.1341)
(-19.1411 -61.5115 308.767)
(-11.3071 -116.501 237.697)
(-156.185 -138.717 579.781)
(-522.439 56.0648 357.651)
(326.676 345.463 -240.415)
(-317.312 689.816 -230.606)
(630.339 -398.246 500.359)
(676.741 232.644 145.535)
(830.975 -88.8162 268.983)
(105.524 -66.4655 339.015)
(651.811 -100.492 -647.649)
(604.986 -358.964 227.911)
(280.056 -726.193 -25.2175)
(711.388 -446.777 340.196)
(395.887 583.364 502.527)
(625.895 41.6242 -747.297)
(815.307 -392.151 194.439)
(1074.91 27.947 420.356)
(599.337 71.6494 412.43)
(219.796 -37.8123 -605.483)
(328.04 -211.467 -247.765)
(449.812 612.331 245.858)
(1352.41 556.371 -341.056)
(266.937 352.005 -127.871)
(533.008 437.89 165.85)
(800.737 -961.685 -578.376)
(466.644 112.607 289.022)
(573.142 -504.44 -152.424)
(-53.4263 679.096 -374.13)
(468.835 350.442 -151.284)
(500.759 85.6674 -232.578)
(456.002 -123.84 -688.668)
(916.968 -86.8826 181.552)
(347.478 382.487 -316.643)
(955.208 -165.396 -471.69)
(531.346 -523.793 -336.623)
(328.857 690.606 -15.1492)
(783.569 77.374 -344.709)
(806.449 -473.908 55.8283)
(111.025 -426.631 -338.377)
(294.114 239.562 167.216)
(536.035 240 121.625)
(-126.723 138.709 250.4)
(-259.773 20.4551 -165.293)
(988.863 -380.284 644.244)
(964.742 709.039 -432.917)
(-13.0494 551.136 12.8844)
(256.256 427.028 -706.503)
(584.237 -527.333 557.489)
(406.444 -160.986 -233.326)
(-120.055 -221.841 439.667)
(680.574 318.343 233.974)
(-214.82 867.802 288.527)
(99.6923 389.397 396.605)
(751.373 -983.867 -174.911)
(276.962 -446.576 -66.2855)
(315.644 -342.106 -88.047)
(617.398 348.385 -433.824)
(-43.7964 -192.372 -181.755)
(335.573 -836.001 538.444)
(262.243 5.85528 -86.1207)
(627.53 -405.49 254.196)
(805.994 -71.947 -179.671)
(157.903 -53.7568 555.758)
(759.215 810.59 648.392)
(495.584 74.5502 -282.425)
(34.6437 650.015 186.604)
(782.421 216.43 212.556)
(1406.63 -23.021 -13.7973)
(517.388 182.698 -645.938)
(243.639 -112.989 7.89188)
(-230.386 -24.9894 465.638)
(663.342 678.891 -175.145)
(546.026 -41.9682 -247.192)
(-112.852 280.281 -848.337)
(725.209 -651.022 -448.515)
(641.613 -70.7922 -54.2272)
(264.72 -436.806 369.116)
(400.831 862.731 164.174)
(35.3268 -52.3473 -337.629)
(355.113 331.722 -639.45)
(391.295 450.192 146.092)
(415.229 68.2803 -137.621)
(495.457 364.641 235.407)
(425.078 226.328 -197.699)
(613.1 747.591 -80.6819)
(56.4606 46.5171 -514.121)
(641.344 -374.859 -339.447)
(73.5663 -61.8669 36.2681)
(205.93 -293.66 -356.679)
(-342.233 -180.954 -163.176)
(1130.14 -301.467 377.502)
(923.295 -224.95 -113.644)
(786.503 -323.753 82.9249)
(-18.1724 25.3018 342.512)
(225.743 -694.579 -875.311)
(897.382 360.286 67.9837)
(467.726 -305.3 -399.913)
(715.099 -724.192 -806.289)
(327.854 287.373 200.822)
(1064.91 412.511 -306.051)
(363.078 -47.518 107.831)
(639.154 140.438 -423.55)
(486.247 -39.6904 -85.6103)
(804.901 217.517 379.769)
(437.981 -92.574 405.845)
(399.245 158.516 -27.116)
(356.203 306.635 -552.5)
(793.172 383.7 -326.649)
(240.871 594.836 39.1826)
(411.474 69.4221 -197.762)
(-433.475 878.243 48.1588)
(903.067 -591.791 -173.699)
(-44.4926 37.3006 -1168.31)
(523.993 685.331 -568.765)
(406.02 -378.889 38.3013)
(608.781 -326.487 226.731)
(623.797 280.8 -247.551)
(355.822 -111.566 736.227)
(-29.582 16.4464 -276.068)
(-18.838 0.13107 100.164)
(654.306 264.272 -440.797)
(280.088 -157.182 264.552)
(-102.801 -399.494 -188.822)
(1076.88 356.631 -500.159)
(637.814 -194.819 342.607)
(169.066 24.695 -483.922)
(3.92811 69.0492 214.991)
(-414.281 53.4739 328.305)
(-648.134 -583.154 -97.458)
(930.44 -407.362 534.803)
(249.938 486.479 192.085)
(-99.8891 -69.451 -62.1041)
(-183.087 -89.8009 -771.072)
(-97.7446 -710.182 -335.707)
(101.491 78.3815 -468.138)
(807.556 14.1466 -122.374)
(-150.079 299.311 -323.738)
(453.408 311.79 434.769)
(-59.5289 -381.058 -153.533)
(659.813 737.582 110.052)
(270.137 -275.021 609.114)
(269.041 -425.277 -275.864)
(705.349 113.195 117.581)
(632.608 455.477 -523.899)
(-122.434 -60.8498 -330.343)
(180.726 -633.425 497.632)
(-928.23 416.601 -200.974)
(285.951 248.943 -330.083)
(850.474 -27.5152 -228.831)
(391.934 185.343 -477.455)
(1111.29 784.502 58.0271)
(384.991 -67.6058 -877.442)
(-43.0193 -26.4463 -320.804)
(380.838 364.913 179.21)
(-246.221 -403.409 -533.942)
(1373 453.241 476.438)
(465.839 -787.208 -548.392)
(84.5384 312.993 -309.096)
(749.704 -61.4791 -147.143)
(366.537 -420.992 888.644)
(469.194 43.3041 -298.218)
(243.437 8.32487 197.168)
(504.787 -131.228 471.627)
(581.008 -140.323 -87.2961)
(410.967 -15.4535 -327.651)
(-510.324 -389.601 535.749)
(584.038 -313.67 -24.6756)
(-105.706 98.156 -176.093)
(631.395 272.153 381.48)
(540.979 203.691 -274.978)
(776.409 92.5264 107.396)
(-218.53 467.741 -381.568)
(463.726 397.965 -246.29)
(463.057 -432.225 265.095)
(164.431 284.649 286.273)
(553.407 -40.5227 -55.9039)
(1335.47 169.421 820.474)
(-193.63 349.314 325.259)
(212.506 342.19 217.665)
(180.745 -114.503 386.472)
(1066.51 -63.8462 -221.527)
(770.831 -74.1309 -163.484)
(714.636 327.813 141.974)
(530.415 151.124 -54.0013)
(-466.465 200.322 19.1714)
(449.754 -176.778 239.74)
(692.02 -778.188 -280.401)
(387.107 428.335 372.96)
(-282.017 -173.474 -216.643)
(-214.486 -204.454 270.714)
(50.2484 19.5575 215.581)
(238.405 418.614 -393.199)
(302.004 -173.642 -127.966)
(-613.354 -237.118 -242.69)
(413.551 240.913 -136.596)
(667.431 390.641 -168.497)
(740.634 173.176 -132.349)
(585.522 695.594 235.483)
(57.2601 361.674 -124.122)
(101.737 -158.741 -371.882)
(31.9526 53.7065 229.642)
(-177.39 -30.3893 -87.9156)
(-371.586 295.513 402.399)
(190.08 -394.197 277.019)
(154.077 301.712 -112.16)
(391.828 531.365 -136.606)
(6.92718 139.336 -218.438)
(28.3398 -187.488 -131.122)
(773.949 -248.644 -375.242)
(415.257 -280.846 -228.345)
(828.894 283.796 643.757)
(-145.634 528.639 -102.035)
(1047.83 -277.304 -83.3584)
(273.546 83.893 -387.032)
(45.3937 120.849 -481.047)
(793.023 398.936 -188.366)
(127.95 -516.601 -892.205)
(495.079 -167.62 474.359)
(261.201 -144.606 63.6555)
(368.453 -166.214 356.294)
(448.638 183.47 -60.9694)
(18.4725 -136.409 128.66)
(151.191 342.719 -406.598)
(475.086 119.463 -211.22)
(845.136 -12.9561 -97.8282)
(606.5 -344.73 -78.2548)
(1197.91 -338.478 135.789)
(485.82 259.741 -214.068)
(685.703 -362.763 122.909)
(443.821 -165.708 456.94)
(334.567 -1095 -448.101)
(449.319 273.857 -23.8843)
(225.751 -171.662 430.099)
(616.562 279.123 904.406)
(110.588 -371.114 -615.883)
(639.971 -253.483 -361.73)
(626.806 509.151 79.5355)
(295.765 331.626 202.229)
(417.19 199.216 -132.209)
(481.084 253.658 136.396)
(490.674 -428.189 103.747)
(33.2758 735.553 -273.416)
(564.726 20.2565 -578.302)
(288.863 528.779 115.496)
(-15.1398 -95.0472 -414.492)
(649.699 -115.974 -631.093)
(123.727 176.312 137.598)
(666.492 -383.206 -160.804)
(467.058 -95.7484 -341.233)
(807.412 -31.5267 868.646)
(-24.0853 -422.822 -70.9317)
(-254.27 -166.714 42.8812)
(-152.536 46.2379 -511.856)
(22.1877 -789.386 1081.45)
(724.842 -194.3 545.171)
(-60.9264 -241.048 352.644)
(574.096 -417.536 -120.554)
(637.015 799.078 222.443)
(511.884 -284.788 66.6047)
(581.882 -228.174 -121.122)
(33.8604 -634.674 -51.9129)
(27.8982 406.161 62.2892)
(833.436 173.69 231.348)
(27.7156 -305.537 -4.44791)
(617.455 -98.2483 683.277)
(429.005 -28.9204 -234.598)
(1283.37 80.1828 -43.1433)
(-35.9895 -235.9 280.664)
(811.755 468.745 -558.383)
(887.717 -50.2575 258.424)
(296.936 -541.892 -387.055)
(744.011 -218.721 365.235)
(-91.6738 -176.921 317.331)
(536.936 311.102 118.642)
(-245.453 154.793 40.4542)
(627.983 434.018 129.052)
(594.971 47.6141 -468.939)
(-42.2262 120.362 -92.7597)
(336.625 -302.105 7.32876)
(328.582 534.218 799.809)
(524.89 332.272 224.293)
(1037.74 -86.5776 -91.3847)
(548.423 -174.344 -205.424)
(502.519 126.281 244.292)
(940.642 10.1026 -399.322)
(368.355 -368.795 370.928)
(213.763 -268.084 -257.336)
(375.621 -193.947 125.446)
(71.1155 98.5975 -713.921)
(-370.237 -290.11 -331.479)
(9.34207 340.241 -447.433)
(300.188 -184.805 194.449)
(401.239 -220.013 -322.782)
(518.178 205.368 58.3989)
(34.9452 -450.85 -179.718)
(89.6836 -297.173 36.2185)
(108.905 60.6531 309.284)
(673.72 537.804 170.873)
(-262.18 -307.976 -296.627)
(1139.09 -227.667 893.084)
(898.302 -4.96565 -393.151)
(779.942 -430.91 -319.882)
(770.392 391.285 -665.652)
(680.232 -520.145 208.93)
(853.134 139.11 441.965)
(567.785 813.214 505.723)
(-425.409 804.413 310.994)
(-61.4619 156.591 -92.8477)
(652.329 -172.824 92.2474)
(447.283 -93.7337 532.843)
(594.007 -317.86 -245.203)
(448.331 -167.183 116.541)
(881.662 73.2279 -69.3482)
(-288.222 857.671 1488.87)
(372.14 46.869 -61.7521)
(554.384 614.254 -357.904)
(181.283 -234.802 -256.971)
(-56.7823 -365.734 12.6455)
(150.345 -639.585 -212.415)
(751.839 120.919 50.9661)
(648.549 259.078 885.749)
(551.553 302.985 151.316)
(859.081 -367.083 341.379)
(514.826 -192.444 34.9075)
(545.098 452.017 178.519)
(952.406 315.347 -541.146)
(451.112 -567.261 -49.5648)
(59.185 671.869 314.645)
(653.541 34.7866 245.27)
(49.6191 -242.912 97.3324)
(631.674 -328.195 -126.071)
(390.874 -171.138 -77.7311)
(916.745 344.831 -87.8197)
(189.404 -264.156 100.403)
(354.239 -493.951 -154.819)
(-368.642 -203.024 175.263)
(416.841 -147.545 170.788)
(551.562 42.5391 -466.404)
(1152.66 -56.9223 -201.77)
(61.5362 186.207 -398.267)
(885.07 -292.096 210.989)
(-447.442 6.19076 -672.087)
(220.723 442.4 -59.0941)
(65.4808 11.8942 -592.045)
(314.62 347.286 -379.521)
(717.745 122.71 -111.015)
(848.954 -48.9047 654.42)
(323.509 -287.852 150.411)
(593.588 -22.0375 -320.858)
(477.437 -427.526 11.5099)
(474.761 -7.80846 219.81)
(393.873 326.916 52.6181)
(-69.2298 350.355 -487.725)
(1381.02 -874.847 -466.967)
(324.429 297.586 289.031)
(335.584 382.58 604.203)
(498.853 274.337 226.306)
(282.804 1052.37 -346.897)
(980.192 59.4164 -175.116)
(597.752 -325.407 365.924)
(364.824 211.871 176.793)
(543.184 136.082 -236.444)
(753.192 1.03867 234.292)
(1036.97 363.452 167.029)
(838.305 181.795 415.812)
(710.201 -567.725 -546.676)
(607.985 415.774 -109.817)
(453.629 -155.574 -469.82)
(49.7663 -166.063 -707.612)
(70.9566 414.948 -180.7)
(24.2743 377.471 490.564)
(823.868 -3.90049 325.229)
(430.967 -571.232 -322.338)
(722.399 119.625 -705.135)
(398.942 12.2609 65.4503)
(308.566 -20.3388 -120.996)
(-26.6611 -11.4131 -127.578)
(150.625 -47.6905 218.159)
(459.306 -157.167 -72.9528)
(-29.2448 128.381 103.708)
(497.159 -771.941 361.382)
(459.566 285.006 515.521)
(984.909 401.676 652.096)
(379.412 -586.874 -680.5)
(-195.72 -367.089 -457.411)
(240.809 -131.665 -94.0519)
(-98.7421 -483.029 64.9346)
(789.248 0.23231 626.457)
(-24.2828 -218.729 -60.3043)
(-157.207 -34.622 851.198)
(267.429 -791.995 24.449)
(279.552 -136.407 -654.344)
(292.798 352.69 -160.669)
(317.992 -122.872 -378.204)
(168.056 -127.639 514.428)
(61.2133 -223.184 -74.3861)
(101.744 120.697 632.062)
(542.294 -276.234 -504.663)
(834.368 339.317 461.618)
(287.782 -21.2551 -412.125)
(444.322 -216.634 -39.6096)
(860.431 511.025 382.678)
(532.855 432.687 129.917)
(535.754 -119.951 -665.145)
(558.928 -31.1204 -557.485)
(399.089 752.362 454.287)
(30.1944 130.516 -789.102)
(-420.217 -746.037 -438.351)
(498.665 -519.874 353.192)
(824.001 292.306 653.666)
(786.63 -400.958 -363.257)
(19.2043 74.9096 418.319)
(-9.71962 28.7629 -494.369)
(80.0582 -2.11275 625.441)
(273.451 -109.883 -394.682)
(345.131 10.9393 -296.329)
(544.2 328.873 372.317)
(64.7779 203.673 -122.154)
(526.855 -79.583 318.455)
(681.242 97.2739 378.054)
(-80.6013 451.543 -467.608)
(96.8141 -262.493 310.76)
(630.932 -555.711 256.536)
(-146.804 161.608 225.692)
(75.0865 -67.2201 -429.13)
(176.138 57.6133 -249.818)
(515.227 91.9554 -329.748)
(779.798 -327.318 695.194)
(822.494 343.939 -247.537)
(802.272 179.925 -192.174)
(209.898 -60.3504 -655.222)
(317.59 434.254 9.02939)
(-500.724 -589.258 241.07)
(-632.256 84.1466 -243.44)
(497.529 5.00612 -115.468)
(-316.874 -409.676 475.189)
(1050.33 957.118 -76.4983)
(19.5585 -271.089 -198.793)
(212.264 -263.913 216.248)
(416.55 -345.368 368.881)
(878.63 -222.913 154.087)
(1082.09 -276.498 -84.3901)
(-64.2621 209.819 292.052)
(65.5687 -227.471 185.156)
(597.409 96.88 54.5526)
(246.418 3.30762 -196.076)
(173.942 -54.9021 -661.42)
(515.563 -189.85 -256.181)
(194.768 -729.761 -121.21)
(746.793 -115.405 179.688)
(326.407 -197.223 230.012)
(866.424 -377.219 -339.32)
(-260.191 -88.1261 208.748)
(-278.742 178.215 -23.6693)
(110.85 655.114 88.5376)
(914.184 100.221 214.85)
(594.471 -48.5464 512.876)
(295.645 -242.271 71.1886)
(158.392 -395.863 -716.625)
(574.772 436.532 439.124)
(-90.8502 552.679 369.682)
(711.893 -598.703 -352.022)
(251.64 367.378 358.578)
(498.472 812.192 -115.627)
(473.402 -357.419 -1080.1)
(-703.494 419.936 -122.226)
(758.246 -309.22 387.612)
(-101.999 1170.8 -137.006)
(511.347 419.416 658.715)
(694.399 36.6128 -38.1756)
(164.865 765.99 596.05)
(235.265 -330.928 472.164)
(-102.525 298.108 -179.234)
(694.06 -471.52 93.6895)
(686.608 -656.857 -318.636)
(410.596 -107.625 -367.361)
(203.169 545.699 122.995)
(1361.3 -141.805 -64.229)
(380.741 207.297 -137.856)
(204.836 115.699 569.805)
(227.118 -591.727 -179.192)
(186.742 257.356 213.083)
(251.95 240.296 -374.444)
(201.078 -539.866 224.855)
(-631.985 569.09 -262.712)
(-84.0625 -255.672 725.308)
(33.0314 -146.338 -164.315)
(-147.824 38.5977 478.901)
(645.088 112.484 -457.674)
(-76.1618 -565.122 148.374)
(651.729 -288.001 190.404)
(536.983 390.378 -275.037)
(-10.1039 -475.217 -227.27)
(-303.304 214.167 277.848)
(495.76 -328.62 -340.296)
(519.427 -166.301 -70.0808)
(-133.763 241.993 459.428)
(287.369 427.822 1081.03)
(537.221 -270.522 -260.889)
(-88.8122 417.044 -290.115)
(678.68 574.916 788.1)
(247.356 -355.047 -368.71)
(361.424 131.362 235.945)
(241.704 667.442 572.031)
(253.235 -511.753 5.36814)
(829.521 177.772 242.354)
(46.3592 700.664 370.886)
(969.321 1162.33 -145.081)
(923.499 -253.758 -303.73)
(731.731 -963.71 104.759)