/*--------------------------------*- C++ -*----------------------------------*\
  =========                 |
  \\      /  F ield         | OpenFOAM: The Open Source CFD Toolbox
   \\    /   O peration     | Website:  https://openfoam.org
    \\  /    A nd           | Version:  7
     \\/     M anipulation  |
\*---------------------------------------------------------------------------*/
FoamFile
{
    version     2.0;
    format      ascii;
    class       volScalarField;
    location    "0.0225";
    object      linearKE;
}
// * * * * * * * * * * * * * * * * * * * * * * * * * * * * * * * * * * * * * //

dimensions      [1 -1 -2 0 0 0 0];

internalField   nonuniform List<scalar> 
1000
(
0.302947
0.304697
0.295477
0.290941
0.273234
0.307374
0.302078
0.313554
0.291292
0.302589
0.30582
0.310791
0.311004
0.297223
0.296169
0.272513
0.288115
0.312249
0.296304
0.290642
0.321078
0.297388
0.302465
0.319463
0.308553
0.311287
0.3025
0.300411
0.291271
0.315064
0.29713
0.298882
0.291788
0.295774
0.295722
0.30967
0.289645
0.298489
0.304329
0.299054
0.315263
0.29705
0.285147
0.304241
0.285559
0.297277
0.296818
0.295615
0.312454
0.282423
0.300845
0.298757
0.277503
0.296762
0.281249
0.30753
0.301515
0.306594
0.297421
0.313751
0.321061
0.297056
0.298732
0.316424
0.315564
0.324635
0.291766
0.30377
0.316783
0.282865
0.284457
0.305481
0.298513
0.308638
0.292876
0.284623
0.305077
0.292544
0.317366
0.297357
0.308649
0.30355
0.307005
0.309737
0.310181
0.293818
0.291191
0.322836
0.278933
0.323394
0.324675
0.270618
0.322194
0.297072
0.31857
0.26869
0.29496
0.296378
0.320231
0.333686
0.290397
0.318493
0.293511
0.308307
0.284499
0.291667
0.292171
0.317595
0.295494
0.313271
0.292646
0.299096
0.306532
0.317627
0.30663
0.299492
0.281833
0.279582
0.278013
0.307605
0.308532
0.283095
0.305419
0.290874
0.292304
0.328054
0.302508
0.295297
0.291632
0.287898
0.298627
0.287164
0.289324
0.302641
0.296484
0.308204
0.311781
0.292718
0.304083
0.296826
0.314355
0.30609
0.315188
0.318571
0.308989
0.296603
0.335068
0.296624
0.295131
0.30379
0.28043
0.295513
0.32191
0.304428
0.297372
0.295349
0.306684
0.308458
0.312752
0.279668
0.324183
0.299172
0.305734
0.287412
0.300588
0.29113
0.300394
0.301711
0.3187
0.300119
0.284317
0.299069
0.28934
0.292803
0.298971
0.310007
0.302118
0.292944
0.311488
0.305505
0.289185
0.306161
0.31178
0.295734
0.307894
0.295684
0.291296
0.318987
0.332007
0.287155
0.318274
0.277093
0.289254
0.316014
0.300941
0.307984
0.295706
0.301275
0.286191
0.286198
0.29115
0.294828
0.312906
0.323679
0.325005
0.30986
0.284672
0.301264
0.292682
0.293601
0.321233
0.300165
0.30184
0.304267
0.316086
0.301433
0.320935
0.295869
0.302225
0.274981
0.306197
0.28487
0.270836
0.28728
0.295746
0.334021
0.320562
0.300389
0.322821
0.300187
0.292903
0.291926
0.320106
0.314294
0.287954
0.313482
0.283233
0.305203
0.287917
0.313492
0.302275
0.309402
0.299639
0.299657
0.318408
0.31481
0.29585
0.306066
0.30593
0.302354
0.321064
0.294043
0.281099
0.327836
0.310317
0.329625
0.292444
0.309735
0.305487
0.287647
0.332157
0.309471
0.299551
0.307933
0.325701
0.311059
0.280562
0.269324
0.291253
0.303698
0.325246
0.297722
0.307045
0.291719
0.322285
0.315854
0.301036
0.285759
0.312898
0.316339
0.312142
0.304109
0.30718
0.317446
0.307676
0.296842
0.312617
0.298484
0.297319
0.297998
0.316559
0.30633
0.310939
0.319711
0.330856
0.304651
0.300822
0.295686
0.298073
0.30393
0.314948
0.312035
0.308059
0.313111
0.292394
0.304961
0.305728
0.296798
0.307945
0.312382
0.295166
0.297125
0.307982
0.29868
0.293209
0.296426
0.283494
0.312766
0.32398
0.314263
0.295504
0.320666
0.31137
0.324439
0.289611
0.317068
0.311167
0.278556
0.340685
0.293892
0.308773
0.29188
0.319177
0.317435
0.307149
0.313057
0.303878
0.291378
0.302657
0.308833
0.310303
0.343
0.297108
0.28312
0.295323
0.287289
0.308665
0.313951
0.311899
0.317885
0.306068
0.304338
0.299409
0.325118
0.306341
0.307524
0.276328
0.309448
0.298357
0.308265
0.298223
0.324968
0.287161
0.312625
0.307806
0.327938
0.325735
0.318186
0.329764
0.295513
0.311559
0.301232
0.324582
0.314127
0.324585
0.334627
0.304783
0.313729
0.316058
0.307091
0.312817
0.301955
0.291303
0.303078
0.312182
0.28592
0.318694
0.345745
0.303421
0.303979
0.328813
0.306202
0.302684
0.30161
0.303965
0.334917
0.329176
0.308931
0.326056
0.28635
0.332012
0.332839
0.320004
0.309101
0.289703
0.301669
0.300929
0.314039
0.320051
0.326497
0.324011
0.314747
0.324349
0.337487
0.342213
0.317612
0.32992
0.334096
0.332593
0.319958
0.33706
0.326097
0.306112
0.315282
0.333037
0.332845
0.33392
0.344776
0.319648
0.320666
0.315252
0.303556
0.350261
0.35591
0.34991
0.347158
0.333724
0.32648
0.354267
0.33483
0.312411
0.341601
0.307682
0.336425
0.335123
0.319927
0.348208
0.356937
0.34385
0.33783
0.342297
0.324723
0.327645
0.36095
0.363146
0.347752
0.335138
0.318402
0.333267
0.337613
0.351376
0.356455
0.319234
0.360207
0.374162
0.341394
0.356767
0.345615
0.35366
0.373228
0.343324
0.330891
0.362443
0.362584
0.344667
0.358262
0.353645
0.354449
0.371943
0.360373
0.356093
0.367588
0.37201
0.365433
0.34728
0.393105
0.369494
0.351265
0.348875
0.389134
0.37028
0.350731
0.357704
0.369617
0.364288
0.379507
0.373829
0.363391
0.368144
0.364602
0.389106
0.370405
0.350742
0.377346
0.353139
0.368567
0.389113
0.40324
0.393403
0.372977
0.377857
0.383387
0.382373
0.376675
0.350981
0.369572
0.365947
0.40611
0.379831
0.378055
0.39559
0.389553
0.384953
0.396044
0.411636
0.391449
0.379286
0.403202
0.386661
0.408674
0.3852
0.388222
0.394924
0.402551
0.388824
0.416072
0.406345
0.409656
0.388337
0.409151
0.422553
0.405953
0.382253
0.413581
0.394413
0.39733
0.420934
0.407939
0.390888
0.411698
0.387476
0.379999
0.415708
0.40343
0.413067
0.391962
0.385028
0.435905
0.415867
0.444529
0.398225
0.40179
0.444259
0.424615
0.408889
0.426327
0.416082
0.425011
0.43339
0.425543
0.438345
0.404027
0.44501
0.417525
0.387836
0.432524
0.427245
0.408508
0.429983
0.417504
0.415279
0.415195
0.437672
0.407552
0.412053
0.427448
0.406163
0.454235
0.42006
0.411228
0.45827
0.453547
0.422974
0.437969
0.421971
0.432599
0.403809
0.420687
0.447988
0.428618
0.426307
0.418503
0.425357
0.388955
0.420324
0.445285
0.410927
0.456306
0.427916
0.404842
0.430309
0.464574
0.46112
0.466315
0.464602
0.447649
0.402692
0.439997
0.429705
0.460387
0.41352
0.453739
0.424013
0.455333
0.426043
0.48042
0.435681
0.425463
0.417538
0.406207
0.468605
0.453784
0.454326
0.459852
0.453679
0.447379
0.450552
0.482001
0.464678
0.440685
0.471524
0.468249
0.453859
0.414721
0.444192
0.45257
0.444031
0.447339
0.464817
0.473968
0.440329
0.44943
0.445252
0.465483
0.475217
0.438902
0.431043
0.440568
0.445888
0.412402
0.42329
0.426943
0.462482
0.479472
0.491023
0.447041
0.451217
0.459961
0.450531
0.467523
0.444585
0.430547
0.459928
0.476739
0.464107
0.4579
0.43624
0.463442
0.435726
0.45476
0.473245
0.450823
0.440107
0.462498
0.45632
0.465148
0.467639
0.48586
0.468286
0.44617
0.444268
0.453529
0.466474
0.477242
0.450425
0.464609
0.426844
0.459714
0.457889
0.457087
0.464561
0.477224
0.476825
0.430053
0.464688
0.476492
0.443882
0.490511
0.468209
0.459858
0.446757
0.434657
0.441866
0.457777
0.459594
0.462142
0.436917
0.434575
0.467678
0.417612
0.451366
0.430814
0.440965
0.450149
0.439278
0.490688
0.446751
0.436966
0.498991
0.450618
0.440791
0.456611
0.486817
0.492668
0.462727
0.468233
0.428605
0.468462
0.446461
0.467174
0.458074
0.465003
0.461935
0.473473
0.450869
0.500254
0.469347
0.465605
0.509886
0.454784
0.46022
0.492558
0.49631
0.467062
0.450656
0.432448
0.434002
0.45523
0.469544
0.486555
0.458918
0.446753
0.440138
0.448244
0.486878
0.466909
0.503711
0.457317
0.468397
0.433861
0.460109
0.501961
0.463383
0.48471
0.475728
0.435546
0.47345
0.48466
0.460549
0.472063
0.4489
0.464986
0.506026
0.481648
0.484856
0.488407
0.477941
0.454333
0.434567
0.468094
0.477784
0.452746
0.465588
0.43683
0.489889
0.480341
0.468282
0.472619
0.50297
0.455359
0.455619
0.456397
0.480518
0.474828
0.473138
0.45677
0.472761
0.45778
0.510015
0.478604
0.448458
0.431136
0.457526
0.475343
0.461361
0.484818
0.456922
0.453891
0.479159
0.462542
0.443412
0.468021
0.466275
0.509414
0.454262
0.484664
0.467832
0.482003
0.465557
0.474054
0.468403
0.450677
0.455392
0.491803
0.448606
0.466832
0.478059
0.458058
0.470377
0.47437
0.472397
0.453216
0.462536
0.458967
0.486695
0.423929
0.451734
0.458301
0.469084
0.492253
0.478586
0.44859
0.452484
0.487796
0.504284
0.48395
0.426359
0.494642
0.469863
0.453552
0.463323
0.454506
0.46027
0.483886
0.445937
0.474198
0.465431
0.469889
0.478372
0.472986
0.453644
0.428051
0.468816
0.465144
0.472091
0.442206
0.457799
0.430096
0.449342
0.456592
0.477437
0.468612
0.461283
0.450628
0.457775
0.48215
0.44793
0.471043
0.470382
0.451696
0.482836
0.497799
0.45277
0.464501
0.459346
0.46697
0.450886
0.469948
0.475524
0.443052
0.463676
0.453031
0.492856
0.457618
0.524159
0.468478
0.488
0.504007
0.457401
0.464592
0.46287
0.495633
0.475787
0.481304
0.451675
0.467855
0.45251
0.448138
0.479409
0.437326
0.452931
0.465197
0.455528
0.469194
0.448954
0.467129
0.446954
0.4719
0.435294
0.458853
0.443051
0.456977
0.444093
0.484756
0.464949
0.460407
0.451124
0.505554
0.482124
0.465782
0.44222
0.453261
0.47619
0.433741
0.455458
0.470629
0.48074
0.477166
0.463849
0.474385
0.467428
0.487403
0.446873
0.446109
0.527272
0.458491
0.494128
0.467209
0.484182
0.471057
0.485254
0.506704
0.447102
0.476178
0.482666
0.463467
0.482243
0.4185
0.437634
0.471728
0.474522
0.465454
0.481405
0.503947
0.475855
0.460367
0.465531
0.48581
0.467545
0.471295
0.466599
0.464059
0.45832
0.484276
0.480503
0.46619
0.482281
0.454803
0.500518
0.475095
0.484546
0.475942
0.467851
0.467549
0.469361
0.466865
0.439383
0.449307
0.457972
0.470514
)
;

boundaryField
{
    sides
    {
        type            symmetry;
    }
    empty
    {
        type            empty;
    }
}


// ************************************************************************* //
