/*--------------------------------*- C++ -*----------------------------------*\
  =========                 |
  \\      /  F ield         | OpenFOAM: The Open Source CFD Toolbox
   \\    /   O peration     | Website:  https://openfoam.org
    \\  /    A nd           | Version:  7
     \\/     M anipulation  |
\*---------------------------------------------------------------------------*/
FoamFile
{
    version     2.0;
    format      ascii;
    class       volScalarField;
    location    "0.0225";
    object      rhoM;
}
// * * * * * * * * * * * * * * * * * * * * * * * * * * * * * * * * * * * * * //

dimensions      [1 -3 0 0 0 0 0];

internalField   nonuniform List<scalar> 
1000
(
6.25657e-06
6.417e-06
6.61928e-06
6.24263e-06
6.14497e-06
6.4728e-06
6.66113e-06
6.51465e-06
6.13102e-06
6.31238e-06
6.18683e-06
6.52163e-06
6.54255e-06
6.35423e-06
6.2775e-06
5.93573e-06
6.2775e-06
6.88433e-06
6.36818e-06
6.28448e-06
6.9192e-06
6.31935e-06
6.45188e-06
6.7797e-06
6.50767e-06
6.57045e-06
6.52163e-06
6.5844e-06
6.2775e-06
6.6123e-06
6.17288e-06
6.417e-06
6.42397e-06
6.57045e-06
6.42397e-06
6.4728e-06
6.34725e-06
6.38213e-06
6.59137e-06
6.28448e-06
6.51465e-06
6.37515e-06
6.21472e-06
6.40305e-06
6.04035e-06
6.38213e-06
6.29842e-06
6.26355e-06
6.49372e-06
6.15893e-06
6.34027e-06
6.25658e-06
6.1101e-06
6.2775e-06
6.15892e-06
6.07523e-06
6.35422e-06
6.59138e-06
6.54952e-06
6.6123e-06
6.6123e-06
6.60533e-06
6.4449e-06
6.5565e-06
6.67507e-06
6.57743e-06
6.15892e-06
6.26355e-06
6.7239e-06
5.9985e-06
6.2496e-06
6.45188e-06
6.31237e-06
6.70995e-06
6.4728e-06
6.23565e-06
6.25657e-06
6.3333e-06
6.4728e-06
6.1938e-06
6.50767e-06
6.1101e-06
6.5007e-06
6.77273e-06
6.6402e-06
6.31238e-06
6.1659e-06
6.76575e-06
6.1659e-06
6.7518e-06
6.52162e-06
6.12405e-06
6.68902e-06
6.28448e-06
6.52163e-06
5.98455e-06
6.21473e-06
6.09615e-06
6.70995e-06
6.63323e-06
6.4449e-06
6.36817e-06
6.32633e-06
6.417e-06
6.3054e-06
6.46582e-06
6.37515e-06
6.57045e-06
6.3054e-06
6.2775e-06
6.08918e-06
6.3612e-06
6.27053e-06
6.63322e-06
6.54953e-06
6.35423e-06
6.27053e-06
6.1101e-06
6.20775e-06
6.45885e-06
6.65415e-06
6.12405e-06
6.64718e-06
6.20775e-06
6.15893e-06
6.5286e-06
6.51465e-06
6.15195e-06
6.27053e-06
6.00547e-06
6.26355e-06
6.5007e-06
6.36818e-06
6.29842e-06
6.57045e-06
6.43793e-06
6.45188e-06
6.42397e-06
6.26355e-06
6.52163e-06
6.8076e-06
6.43792e-06
6.6123e-06
6.57743e-06
6.3333e-06
6.29842e-06
6.63323e-06
6.21473e-06
6.21473e-06
6.34725e-06
5.97758e-06
6.45885e-06
6.7239e-06
6.48675e-06
6.3612e-06
6.15195e-06
6.3612e-06
6.47977e-06
6.64718e-06
6.12405e-06
6.53558e-06
6.29842e-06
6.28448e-06
6.11707e-06
6.39608e-06
6.26355e-06
6.22868e-06
6.04732e-06
6.75878e-06
6.06127e-06
6.1101e-06
6.3612e-06
6.08918e-06
6.32632e-06
6.52163e-06
6.4728e-06
6.15195e-06
6.29145e-06
6.35423e-06
6.42397e-06
6.0822e-06
6.34725e-06
6.29843e-06
6.37515e-06
6.43095e-06
6.417e-06
6.06825e-06
6.56347e-06
6.77273e-06
6.01942e-06
6.54953e-06
5.9706e-06
5.99153e-06
6.8634e-06
6.42398e-06
6.34027e-06
6.0264e-06
6.3333e-06
5.98455e-06
6.15892e-06
6.28448e-06
6.20775e-06
6.41003e-06
6.53557e-06
6.7797e-06
6.38212e-06
6.1938e-06
6.48675e-06
6.10313e-06
6.12405e-06
6.85643e-06
6.42397e-06
6.10313e-06
6.37515e-06
6.4449e-06
6.35422e-06
6.61928e-06
6.3333e-06
6.51465e-06
6.07523e-06
6.57045e-06
6.17288e-06
5.72648e-06
6.41003e-06
6.0543e-06
6.82155e-06
6.52163e-06
6.04035e-06
6.34028e-06
6.15893e-06
6.2496e-06
6.08918e-06
6.65415e-06
6.4449e-06
6.09615e-06
6.7239e-06
5.98455e-06
6.03338e-06
6.18683e-06
6.1938e-06
6.4449e-06
6.2496e-06
6.4449e-06
6.29843e-06
6.54255e-06
6.29843e-06
6.06825e-06
6.45885e-06
6.28448e-06
6.4449e-06
6.39608e-06
6.09615e-06
5.9148e-06
6.7518e-06
6.417e-06
6.9192e-06
6.24263e-06
6.66113e-06
6.13103e-06
6.15195e-06
6.57743e-06
6.23565e-06
6.26355e-06
6.45188e-06
6.45188e-06
6.66113e-06
5.9706e-06
5.62883e-06
6.15893e-06
6.63323e-06
6.88433e-06
6.20078e-06
6.3891e-06
6.2496e-06
6.3612e-06
6.47978e-06
6.27053e-06
5.9985e-06
6.34725e-06
6.22868e-06
6.40305e-06
6.40305e-06
6.34725e-06
6.51465e-06
6.2496e-06
6.12405e-06
6.25658e-06
6.1101e-06
6.04733e-06
6.417e-06
6.48675e-06
6.36818e-06
6.8076e-06
6.51465e-06
6.57045e-06
6.2217e-06
6.42398e-06
6.10313e-06
6.43793e-06
6.4449e-06
6.4728e-06
6.23565e-06
6.36818e-06
6.41003e-06
5.95665e-06
6.17985e-06
6.36818e-06
6.06128e-06
6.17288e-06
6.43095e-06
6.28448e-06
6.12405e-06
6.28448e-06
6.45885e-06
6.29145e-06
5.93573e-06
6.04035e-06
6.5007e-06
6.59835e-06
6.5844e-06
6.17985e-06
6.59835e-06
6.1101e-06
6.61928e-06
6.01245e-06
6.52163e-06
6.22868e-06
5.76135e-06
6.70995e-06
6.2775e-06
6.25658e-06
6.138e-06
6.4449e-06
6.28448e-06
6.37515e-06
6.4449e-06
6.10313e-06
5.95665e-06
6.28448e-06
6.56348e-06
6.1659e-06
6.57045e-06
6.417e-06
5.92178e-06
6.1659e-06
6.12405e-06
6.52163e-06
6.28448e-06
6.51465e-06
6.5286e-06
6.51465e-06
6.20078e-06
6.07523e-06
6.417e-06
6.1101e-06
6.2775e-06
5.7474e-06
6.2775e-06
6.23565e-06
6.417e-06
6.11708e-06
6.51465e-06
6.00548e-06
6.59138e-06
6.3891e-06
6.57045e-06
6.40305e-06
6.45188e-06
6.71693e-06
6.03338e-06
6.38213e-06
6.34725e-06
6.3891e-06
6.57045e-06
6.5286e-06
6.57045e-06
6.09615e-06
6.2217e-06
6.43793e-06
6.3333e-06
6.37515e-06
6.26355e-06
6.01245e-06
6.07523e-06
6.31935e-06
5.7474e-06
6.24263e-06
6.67508e-06
6.23565e-06
6.34028e-06
6.56348e-06
6.43095e-06
6.23565e-06
6.24263e-06
6.2496e-06
6.47978e-06
6.21473e-06
6.45885e-06
6.5286e-06
5.89388e-06
6.31935e-06
6.64718e-06
6.2217e-06
6.09615e-06
6.06128e-06
5.9706e-06
5.99153e-06
6.12405e-06
6.24263e-06
6.21473e-06
6.53558e-06
6.32633e-06
6.34028e-06
6.71693e-06
6.88433e-06
6.63323e-06
6.78668e-06
6.42398e-06
6.47978e-06
6.3891e-06
6.8634e-06
6.51465e-06
6.14498e-06
6.3891e-06
6.6123e-06
6.46583e-06
6.4728e-06
6.56348e-06
6.34028e-06
6.417e-06
6.35423e-06
5.9706e-06
6.43095e-06
6.73785e-06
6.60533e-06
6.65415e-06
6.59835e-06
6.26355e-06
6.82853e-06
6.65415e-06
6.06825e-06
6.417e-06
6.0822e-06
6.53558e-06
6.38213e-06
6.3333e-06
6.78668e-06
6.70298e-06
6.61928e-06
6.4449e-06
6.70995e-06
6.47978e-06
6.2496e-06
6.7797e-06
6.71693e-06
6.81458e-06
6.54255e-06
6.26355e-06
6.43793e-06
6.48675e-06
6.73785e-06
6.85643e-06
6.32633e-06
6.5844e-06
6.78668e-06
6.62625e-06
6.62625e-06
6.82155e-06
6.59835e-06
6.99593e-06
6.63323e-06
6.46583e-06
7.03778e-06
6.57743e-06
6.56348e-06
6.92618e-06
6.8076e-06
6.8355e-06
6.71693e-06
6.45885e-06
6.8913e-06
6.8913e-06
6.89828e-06
6.8634e-06
6.48675e-06
7.24703e-06
7.07963e-06
6.60533e-06
6.65415e-06
6.99593e-06
6.82155e-06
6.51465e-06
6.7239e-06
7.40048e-06
6.74483e-06
6.8913e-06
6.92618e-06
7.0866e-06
6.63323e-06
6.975e-06
7.0866e-06
6.84248e-06
6.80063e-06
6.96803e-06
6.65415e-06
6.975e-06
7.02383e-06
7.10753e-06
7.04475e-06
6.71693e-06
6.85643e-06
7.06568e-06
6.98198e-06
6.88433e-06
6.5007e-06
6.65415e-06
6.76575e-06
7.23308e-06
6.84945e-06
7.13543e-06
7.03778e-06
7.12148e-06
7.1145e-06
7.13543e-06
7.2261e-06
7.16333e-06
6.94013e-06
7.0587e-06
7.1145e-06
7.23308e-06
7.16333e-06
7.15635e-06
7.06568e-06
7.24005e-06
7.10055e-06
7.30283e-06
7.2261e-06
7.32375e-06
6.92618e-06
7.1424e-06
7.37258e-06
7.21913e-06
7.21215e-06
7.26098e-06
7.29585e-06
7.16333e-06
7.35165e-06
7.01685e-06
6.92618e-06
7.43535e-06
6.8355e-06
6.95408e-06
7.53998e-06
7.1982e-06
7.37955e-06
7.04475e-06
6.8355e-06
7.5609e-06
7.37258e-06
7.60973e-06
7.15635e-06
7.0866e-06
7.42838e-06
7.3935e-06
7.28888e-06
7.44233e-06
7.70738e-06
7.14938e-06
7.20518e-06
7.33073e-06
7.41443e-06
7.37258e-06
7.65855e-06
7.0308e-06
7.02383e-06
7.44233e-06
7.87478e-06
7.2819e-06
7.45628e-06
7.26098e-06
7.32375e-06
7.1703e-06
7.63065e-06
7.23308e-06
7.3377e-06
7.2819e-06
7.0029e-06
7.67948e-06
7.21215e-06
7.10753e-06
7.48418e-06
7.47023e-06
7.4214e-06
7.29585e-06
7.26795e-06
7.14938e-06
7.18425e-06
7.14938e-06
7.62368e-06
7.21215e-06
7.35863e-06
7.10055e-06
7.3377e-06
6.87038e-06
6.88433e-06
7.41443e-06
7.00988e-06
7.66553e-06
7.34468e-06
7.1424e-06
7.24703e-06
7.87478e-06
7.60973e-06
7.59578e-06
7.26098e-06
7.20518e-06
6.93315e-06
7.4493e-06
7.34468e-06
7.51208e-06
7.26795e-06
7.46325e-06
7.18425e-06
7.38653e-06
7.17728e-06
7.7562e-06
7.40745e-06
6.91223e-06
7.10055e-06
7.06568e-06
7.43535e-06
7.34468e-06
7.3098e-06
7.5609e-06
7.34468e-06
7.4214e-06
7.54695e-06
7.6446e-06
7.70738e-06
7.3656e-06
7.7283e-06
7.84688e-06
7.65855e-06
6.96105e-06
7.52603e-06
7.47023e-06
7.35863e-06
7.62368e-06
7.3377e-06
7.40048e-06
7.21913e-06
7.5051e-06
7.4214e-06
7.37955e-06
7.46325e-06
7.29585e-06
7.13543e-06
7.3098e-06
7.42838e-06
6.96105e-06
7.16333e-06
7.21913e-06
7.43535e-06
7.66553e-06
7.7841e-06
7.48418e-06
7.40745e-06
7.37258e-06
7.32375e-06
7.254e-06
7.45628e-06
7.18425e-06
7.53998e-06
7.37258e-06
7.62368e-06
7.28888e-06
7.17728e-06
7.4772e-06
7.31678e-06
7.49813e-06
7.48418e-06
7.17728e-06
7.254e-06
7.54695e-06
7.14938e-06
7.63763e-06
7.3935e-06
7.70738e-06
7.47023e-06
7.3377e-06
7.17728e-06
7.51208e-06
7.4493e-06
7.40048e-06
7.14938e-06
7.43535e-06
6.87735e-06
7.21215e-06
7.1424e-06
7.37258e-06
7.35863e-06
7.6167e-06
7.2819e-06
7.13543e-06
7.10753e-06
7.3377e-06
7.24703e-06
7.60973e-06
7.3935e-06
7.28888e-06
7.12148e-06
6.95408e-06
7.1424e-06
7.3656e-06
7.68645e-06
7.19123e-06
7.13543e-06
6.98198e-06
7.0866e-06
6.73785e-06
7.03778e-06
7.0308e-06
7.02383e-06
7.21913e-06
7.19123e-06
7.65158e-06
7.0029e-06
7.1424e-06
7.49115e-06
7.3935e-06
7.21215e-06
7.12845e-06
7.5888e-06
7.68645e-06
7.21913e-06
7.3935e-06
6.96105e-06
7.38653e-06
6.89828e-06
7.63065e-06
7.0308e-06
7.17728e-06
7.16333e-06
7.00988e-06
6.84248e-06
7.35863e-06
7.28888e-06
7.28888e-06
7.57485e-06
7.1703e-06
7.00988e-06
7.52603e-06
7.4493e-06
7.3935e-06
7.23308e-06
6.98198e-06
7.1982e-06
7.27493e-06
7.26795e-06
7.49115e-06
6.94013e-06
6.96803e-06
6.87038e-06
7.09358e-06
7.38653e-06
6.98895e-06
7.35165e-06
7.14938e-06
7.19123e-06
6.78668e-06
7.13543e-06
7.54695e-06
7.12148e-06
7.28888e-06
7.21913e-06
6.89828e-06
7.18425e-06
7.40745e-06
7.15635e-06
7.38653e-06
6.975e-06
6.89828e-06
7.37257e-06
7.09358e-06
7.4214e-06
7.16333e-06
7.27492e-06
6.88433e-06
6.71692e-06
6.975e-06
7.12147e-06
6.76575e-06
6.96802e-06
6.74483e-06
7.30282e-06
7.21913e-06
7.16332e-06
7.14938e-06
7.3656e-06
7.03778e-06
7.16332e-06
7.03778e-06
7.3935e-06
7.1424e-06
6.93315e-06
6.74483e-06
7.23307e-06
6.99593e-06
7.66552e-06
7.1982e-06
6.7239e-06
6.68205e-06
6.90525e-06
7.31678e-06
7.00987e-06
7.44233e-06
6.91222e-06
6.99593e-06
7.31677e-06
7.1424e-06
6.88432e-06
7.00988e-06
7.07265e-06
7.56788e-06
6.9192e-06
7.24005e-06
7.01685e-06
7.07265e-06
7.1424e-06
7.23308e-06
6.96802e-06
7.0029e-06
6.87037e-06
7.27493e-06
6.85642e-06
7.02383e-06
7.06567e-06
7.02383e-06
7.05172e-06
6.8634e-06
6.87037e-06
6.84945e-06
7.0587e-06
6.9192e-06
7.26098e-06
6.4728e-06
6.68902e-06
6.7797e-06
6.95408e-06
7.0587e-06
7.10752e-06
6.81458e-06
6.84945e-06
7.04475e-06
7.3656e-06
7.16333e-06
6.36818e-06
6.99593e-06
6.76575e-06
6.7518e-06
7.09358e-06
6.8355e-06
6.87735e-06
7.23308e-06
6.6402e-06
6.8355e-06
6.89827e-06
7.01685e-06
7.23308e-06
6.93315e-06
6.82852e-06
6.47978e-06
7.0866e-06
6.7797e-06
6.96802e-06
6.54255e-06
6.70995e-06
6.37515e-06
6.57045e-06
6.85643e-06
7.1424e-06
6.81458e-06
6.77272e-06
6.85643e-06
6.6123e-06
6.94013e-06
6.92617e-06
6.8634e-06
6.82853e-06
6.7239e-06
7.09357e-06
7.1703e-06
6.77273e-06
6.68903e-06
6.92617e-06
6.96105e-06
6.78668e-06
6.80063e-06
6.87735e-06
6.65415e-06
6.66113e-06
6.71693e-06
7.04475e-06
6.78668e-06
7.4214e-06
6.88433e-06
6.975e-06
7.17727e-06
6.62625e-06
6.7239e-06
6.85643e-06
7.03777e-06
6.8634e-06
6.9471e-06
6.47978e-06
6.96105e-06
6.68205e-06
6.61927e-06
6.78668e-06
6.60532e-06
6.59835e-06
6.70995e-06
6.80063e-06
6.82155e-06
6.94013e-06
6.79365e-06
6.51465e-06
6.75877e-06
6.53558e-06
6.8076e-06
6.50768e-06
6.51465e-06
6.56348e-06
7.0866e-06
6.71693e-06
6.82155e-06
6.75878e-06
7.23307e-06
6.8076e-06
6.5844e-06
6.73088e-06
6.68205e-06
6.78668e-06
6.47977e-06
6.57045e-06
6.81457e-06
7.10753e-06
6.95407e-06
6.73088e-06
6.98895e-06
6.7239e-06
6.85642e-06
6.696e-06
6.54255e-06
7.18425e-06
6.57045e-06
6.73088e-06
6.84945e-06
6.98895e-06
6.95407e-06
6.93315e-06
7.19122e-06
6.4728e-06
7.10055e-06
6.98895e-06
6.82155e-06
6.78668e-06
6.21472e-06
6.57045e-06
6.96105e-06
6.8913e-06
6.59137e-06
6.84248e-06
6.94013e-06
6.79365e-06
6.89827e-06
6.5286e-06
6.96105e-06
6.84945e-06
6.89827e-06
6.64718e-06
6.60533e-06
6.5844e-06
6.79365e-06
6.98198e-06
6.9192e-06
7.07963e-06
6.57045e-06
7.0029e-06
6.84945e-06
7.00988e-06
6.7518e-06
6.68903e-06
6.73785e-06
6.68903e-06
7.02382e-06
6.417e-06
6.7239e-06
6.54953e-06
6.81457e-06
)
;

boundaryField
{
    sides
    {
        type            symmetry;
    }
    empty
    {
        type            empty;
    }
}


// ************************************************************************* //
