/*--------------------------------*- C++ -*----------------------------------*\
  =========                 |
  \\      /  F ield         | OpenFOAM: The Open Source CFD Toolbox
   \\    /   O peration     | Website:  https://openfoam.org
    \\  /    A nd           | Version:  7
     \\/     M anipulation  |
\*---------------------------------------------------------------------------*/
FoamFile
{
    version     2.0;
    format      ascii;
    class       volScalarField;
    location    "0.25";
    object      alpha.water;
}
// * * * * * * * * * * * * * * * * * * * * * * * * * * * * * * * * * * * * * //

dimensions      [0 0 0 0 0 0 0];

internalField   nonuniform List<scalar> 
1935
(
1
1
1
1
1
1
1
1
1
1
1
1
1
1
1
1
1
1
1
1
1
1
1
1
1
1
1
1
1
1
1
1
1
1
1
1
1
1
1
1
1
1
1
0.952526
1
1
1
1
1
1
1
1
1
1
1
1
1
1
1
1
1
1
1
1
1
1
1
1
1
1
1
1
1
1
1
1
1
1
1
1
1
1
1
1
1
1
1
0.994666
1
1
1
1
1
1
1
1
1
1
1
1
1
1
1
1
1
1
1
1
1
1
1
1
1
1
1
1
1
1
1
1
1
1
1
1
1
1
1
1
1
1
1
1
1
1
1
1
1
1
1
1
1
1
1
1
1
1
1
1
1
1
1
1
1
1
1
1
1
1
1
1
1
1
1
1
1
1
1
1
1
1
1
1
1
1
1
1
1
1
1
1
1
1
1
1
1
1
1
1
1
1
1
1
1
1
1
1
1
1
1
1
1
1
1
1
1
1
1
1
1
1
1
1
1
1
1
1
1
1
1
1
1
1
1
1
1
1
1
1
1
1
1
1
1
1
1
1
1
1
1
1
1
1
1
1
1
1
1
1
1
1
1
1
1
1
1
1
1
1
1
1
1
1
1
1
1
1
1
1
1
1
1
1
1
1
1
1
1
1
1
1
1
1
1
1
1
1
1
1
1
1
1
1
1
1
1
1
1
1
1
1
1
1
1
1
1
1
1
1
1
1
1
1
1
1
1
1
1
1
1
1
1
1
1
1
1
1
1
1
1
1
1
1
1
1
1
1
1
1
1
1
1
1
1
1
1
1
1
1
1
1
1
1
1
1
1
1
1
1
1
1
1
1
1
1
1
1
1
1
1
1
1
1
1
1
1
1
1
1
1
1
1
1
1
1
1
1
1
1
1
1
1
1
1
1
1
1
1
1
1
1
1
1
1
1
1
1
1
1
1
1
1
1
1
1
1
1
1
1
1
1
1
1
1
1
1
1
1
1
1
1
1
1
1
1
1
1
1
1
1
1
1
1
1
1
1
1
1
1
1
1
1
1
1
1
1
1
1
1
1
1
1
1
1
1
1
1
1
1
1
1
1
1
1
1
1
1
1
1
1
1
1
1
1
1
1
1
1
1
1
1
1
1
1
1
1
1
1
1
1
1
1
1
1
1
1
1
1
1
1
1
1
1
1
1
1
1
1
1
1
1
1
1
1
1
1
1
1
1
1
1
1
1
1
1
1
1
1
1
1
1
1
1
1
1
1
1
1
1
1
1
1
1
1
1
1
1
1
1
1
1
1
1
1
1
1
1
1
1
1
1
1
1
1
1
1
1
1
1
1
1
1
1
1
1
1
1
1
1
1
1
1
1
1
1
1
1
1
1
1
1
1
1
1
1
1
1
1
1
1
1
1
1
1
1
1
1
1
1
1
1
1
1
1
1
1
1
1
1
1
1
1
1
1
1
1
1
1
1
1
1
1
1
1
1
1
1
1
1
1
1
1
1
1
1
1
1
1
1
1
1
1
1
1
1
1
1
1
1
1
1
1
1
1
1
1
1
1
1
1
1
1
1
1
1
1
1
1
1
1
1
1
1
1
1
1
1
1
0.999998
0.999996
0.999999
1
1
1
1
1
1
1
1
1
1
1
1
1
1
1
1
1
1
1
1
1
1
1
1
1
1
1
1
1
1
1
1
1
1
1
1
1
1
1
1
1
0.999996
0.999996
0.999999
1
1
1
1
1
1
1
1
1
1
1
1
1
1
1
1
1
1
1
1
1
1
1
1
1
1
1
1
1
1
1
1
1
1
1
1
1
1
1
1
0.999997
0.999999
1
1
1
1
1
1
1
1
1
1
1
1
1
1
1
1
1
1
1
1
1
1
1
1
1
1
1
1
1
1
1
1
1
1
1
1
1
1
1
1
1
1
0.999999
0.999999
1
0.999764
0.968216
0.991821
1.00002
1.00001
1
1
1
1
1
1
1
1
1
1
1
1
1
1
1
1
1
1
1
1
1
1
1
1
1
1
1
1
1
1
1
1
0.999999
0.999997
0.999994
0.999912
0.994591
0.943012
0.77448
0.576563
0.386902
0.417866
0.59637
0.905248
1
1
1
1
1
1
1
1
1
1
1
1
1
1
1
1
1
1
1
1
1
1
1
1
1
1
1
1
1
1
0.999998
1
0.999982
0.999955
0.999872
0.958448
0.723028
0.330491
0.100029
0.0299962
0.00947034
0.0121305
0.0385822
0.217377
0.859304
1
1
1
1
1
1
1
1
1
1
1
1
1
1
1
1
1
1
1
1
1
1
1
1
1
1
1
1
0.999999
0.999996
0.999994
0.99994
0.99981
0.99925
0.85186
0.389806
0.0563626
0.00230361
0.00159907
0.00144141
0.00151439
0.00205203
0.00324763
0.00901745
0.200633
1
1
1
1
1
1
1
1
1
1
1
1
1
1
1
1
1
1
1
1
1
1
1
1
1
1
1
0.999998
0.999994
0.999966
0.999859
0.999392
0.983375
0.663575
0.131075
0.00174556
0.000383711
0.000228788
0.000201963
0.000222269
0.000273228
0.0003652
0.000609589
0.00215487
0.00915807
1
0.999999
0.999999
0.999999
0.999999
0.999999
1
1
1
1
1
1
1
1
1
1
1
1
1
1
0.999999
0.999999
0.999999
0.999999
0.999999
0.999999
0.999997
0.99999
0.999937
0.999735
0.998716
0.935302
0.460129
0.011598
0.00062659
0.000211806
3.70328e-05
2.09626e-05
2.36771e-05
3.25859e-05
4.68428e-05
6.56317e-05
0.000151412
0.000389727
0.00147917
0.999998
0.999993
0.999991
0.999993
0.999995
0.999996
0.999997
0.999998
0.999998
0.999999
0.999999
0.999999
0.999999
0.999999
0.999999
0.999999
0.999999
0.999998
0.999998
0.999997
0.999996
0.999994
0.999992
0.999992
0.999993
0.999992
0.999982
0.999904
0.999569
0.997753
0.885293
0.310113
0.00244985
0.000338789
4.7423e-05
1.37434e-05
3.27241e-06
1.80225e-06
2.64265e-06
4.50998e-06
7.57353e-06
1.3916e-05
2.59087e-05
4.7676e-05
0.000195701
0.999984
0.999955
0.999942
0.999953
0.999965
0.999974
0.999982
0.999987
0.99999
0.999992
0.999993
0.999994
0.999994
0.999994
0.999994
0.999993
0.999992
0.99999
0.999988
0.999984
0.999977
0.999964
0.999955
0.999958
0.999964
0.999959
0.999859
0.999389
0.996581
0.813017
0.209088
0.00139007
0.000171371
1.75988e-05
2.6081e-06
7.6252e-07
2.11402e-07
1.48713e-07
2.86255e-07
6.04143e-07
1.20793e-06
2.50163e-06
4.60857e-06
1.10089e-05
5.88546e-05
0.999897
0.999728
0.999633
0.999709
0.999786
0.999841
0.999886
0.999918
0.999939
0.999951
0.999958
0.999963
0.999966
0.999966
0.999964
0.99996
0.999954
0.999944
0.999929
0.999907
0.999869
0.999796
0.999752
0.999776
0.999812
0.999738
0.999162
0.995551
0.744969
0.123392
0.000870206
5.73175e-05
8.84418e-06
1.02529e-06
7.10047e-08
3.25886e-08
1.37066e-08
1.47433e-08
3.23341e-08
8.24524e-08
1.92731e-07
4.51702e-07
8.50337e-07
2.5133e-06
1.47604e-05
0.999375
0.998255
0.997678
0.998187
0.998685
0.999034
0.999312
0.999508
0.999637
0.99971
0.999754
0.999781
0.999798
0.999798
0.999789
0.999769
0.999735
0.999683
0.999602
0.999482
0.999273
0.998869
0.998658
0.998838
0.998979
0.998578
0.994499
0.711162
0.0869029
0.000574913
1.90501e-05
4.13812e-06
-4.87662e-07
2.48861e-08
4.59859e-09
1.79988e-09
1.71448e-09
2.48013e-09
5.34773e-09
1.38455e-08
3.24881e-08
8.46452e-08
1.66364e-07
5.91584e-07
3.22636e-06
0.990101
0.904621
0.868492
0.930441
0.978254
0.994208
0.995912
0.997103
0.997882
0.998319
0.998575
0.998739
0.998839
0.998844
0.998795
0.998692
0.998516
0.998239
0.997801
0.997165
0.996063
0.993895
0.992894
0.993992
0.994759
0.991601
0.689226
0.0697004
0.000366281
3.12297e-06
1.60865e-06
-6.39673e-07
4.53234e-09
9.20026e-10
5.59322e-10
6.90633e-10
8.90586e-10
1.20579e-09
1.87452e-09
3.70463e-09
8.60836e-09
1.97699e-08
4.25958e-08
1.35066e-07
7.36603e-07
0.526344
0.250831
0.187938
0.294152
0.467934
0.642312
0.782148
0.879763
0.941477
0.973437
0.98688
0.992111
0.993463
0.993502
0.993257
0.992217
0.988194
0.978735
0.956271
0.919569
0.848619
0.702256
0.666484
0.766337
0.812169
0.586726
0.0580888
0.000112832
-8.30439e-06
3.12612e-08
-4.99861e-07
-5.24607e-09
3.99509e-11
3.43578e-10
4.79682e-10
6.37691e-10
8.09127e-10
9.91855e-10
1.24915e-09
1.92952e-09
3.31796e-09
7.18701e-09
1.61669e-08
4.65373e-08
2.46796e-07
-1.00861e-11
-4.67055e-17
1.44815e-21
7.55548e-29
1.55324e-21
0.0402439
0.114661
0.211963
0.325757
0.443986
0.541127
0.607056
0.650797
0.655073
0.64318
0.613024
0.560311
0.476848
0.37084
0.273144
0.170352
0.0623021
0.0524594
0.118568
0.128827
0.00753301
-1.98308e-06
-6.52134e-06
-1.70564e-07
-1.5521e-07
-2.27754e-09
-6.07971e-11
1.66476e-10
3.47389e-10
4.82012e-10
6.68115e-10
8.661e-10
1.09512e-09
1.25868e-09
1.53523e-09
2.06307e-09
3.52756e-09
2.5739e-08
3.1416e-07
3.01336e-07
-2.19667e-16
-7.17272e-17
-2.01472e-17
-2.26768e-16
-6.62818e-14
-9.19137e-14
-1.39582e-13
-4.08984e-13
-3.02767e-22
0
0.00965142
0.0264822
0.042065
0.0434609
0.0386897
0.0274039
0.0100243
-2.58953e-08
-5.13644e-11
-5.0806e-14
-4.79834e-17
-9.05091e-21
0
-4.30493e-09
-9.94766e-07
-1.96572e-07
-9.11478e-07
-1.29421e-07
-1.77799e-08
-1.66625e-09
-1.22279e-10
5.46272e-12
2.12463e-10
3.61322e-10
5.184e-10
7.14446e-10
9.11443e-10
1.12951e-09
1.33364e-09
1.60719e-09
1.69741e-09
1.81125e-09
5.17922e-08
5.10331e-07
2.52674e-07
2.08414e-18
-4.71132e-17
-3.76086e-17
-5.00238e-16
-1.25376e-13
-2.33558e-13
-4.73262e-13
-2.40075e-12
-3.66331e-12
-1.05257e-11
-4.35814e-09
-8.76859e-08
-1.82055e-07
-1.12055e-07
-3.72745e-08
-9.51649e-09
-1.31098e-09
-7.24158e-10
-1.99718e-10
-1.99109e-10
-3.33832e-10
-5.99652e-10
-1.9566e-09
-5.89688e-08
-9.68368e-08
-8.52398e-08
-4.09734e-08
-1.39731e-08
-3.26968e-09
-5.1554e-10
-1.74957e-11
1.42323e-10
2.67817e-10
3.96398e-10
5.5524e-10
7.41457e-10
9.19335e-10
1.11666e-09
1.33558e-09
1.56164e-09
1.52559e-09
1.60139e-09
3.84764e-08
1.51694e-07
1.22701e-07
1.69655e-17
-8.1786e-17
-6.17185e-17
-8.1046e-16
-1.56328e-13
-3.17981e-13
-7.32748e-13
-3.97205e-12
-6.70021e-12
-2.13622e-11
-7.76599e-09
-1.69113e-07
-3.31411e-07
-2.10767e-07
-7.09764e-08
-1.84761e-08
-5.1903e-09
-1.48375e-09
-5.62809e-10
-4.85248e-10
-8.21777e-10
-1.30321e-09
-3.91217e-09
-8.12053e-08
-9.688e-08
-8.97475e-08
-4.16336e-08
-1.02981e-08
-1.46267e-09
-9.02108e-11
9.51528e-11
1.91196e-10
2.97047e-10
4.24794e-10
5.72276e-10
7.3552e-10
8.9254e-10
1.06096e-09
1.258e-09
1.39798e-09
1.38389e-09
1.58257e-09
4.62682e-09
6.46945e-09
2.89778e-08
3.11102e-17
-9.79672e-17
-8.22275e-17
-1.13184e-15
-1.33513e-13
-3.30036e-13
-9.12247e-13
-5.10037e-12
-8.93784e-12
-2.81082e-11
-5.58095e-09
-5.1617e-08
-8.81795e-08
-7.2474e-08
-3.79116e-08
-1.49613e-08
-5.04512e-09
-1.64083e-09
-7.15732e-10
-7.59389e-10
-1.30187e-09
-2.00425e-09
-4.90682e-09
-6.21569e-08
-7.66314e-08
-4.57426e-08
-2.0365e-08
-3.73003e-09
-2.79085e-10
5.39022e-11
1.46817e-10
2.20996e-10
3.20017e-10
4.36301e-10
5.65428e-10
6.9536e-10
8.15276e-10
9.41036e-10
1.07513e-09
1.15248e-09
1.15479e-09
1.22961e-09
1.81925e-09
8.93808e-09
6.95252e-08
3.398e-17
-8.73696e-17
-9.46929e-17
-1.45749e-15
-8.8785e-14
-2.90614e-13
-1.03926e-12
-5.94619e-12
-1.04414e-11
-3.1083e-11
-5.68495e-09
-4.46629e-08
-7.06902e-08
-5.66147e-08
-2.9671e-08
-1.19283e-08
-4.10286e-09
-1.40077e-09
-7.67985e-10
-1.03917e-09
-1.8114e-09
-2.67017e-09
-4.9807e-09
-3.32927e-08
-4.33736e-08
-2.40269e-08
-1.04109e-08
-1.06053e-09
1.96584e-11
1.1369e-10
1.68739e-10
2.42834e-10
3.30608e-10
4.30073e-10
5.29469e-10
6.1618e-10
6.90634e-10
7.6194e-10
8.2711e-10
8.63298e-10
8.931e-10
1.09623e-09
3.31355e-09
2.77171e-08
2.93092e-07
2.90775e-17
-6.17014e-17
-1.04604e-16
-1.79004e-15
-6.34585e-14
-2.41686e-13
-1.14768e-12
-6.59987e-12
-1.12199e-11
-3.09111e-11
-5.21393e-09
-3.49195e-08
-4.74778e-08
-3.54377e-08
-1.82691e-08
-7.30816e-09
-2.55536e-09
-9.93164e-10
-8.06985e-10
-1.35779e-09
-2.3418e-09
-3.25441e-09
-4.81951e-09
-6.64708e-09
-1.24151e-08
-6.28604e-09
-2.04194e-09
-3.77451e-11
8.22926e-11
1.29908e-10
1.86017e-10
2.52936e-10
3.25795e-10
3.99858e-10
4.62165e-10
5.06819e-10
5.3545e-10
5.55205e-10
5.75091e-10
5.87247e-10
6.48907e-10
1.02174e-09
4.75047e-09
4.12579e-08
3.89307e-07
9.5226e-18
-3.85359e-17
-1.23222e-16
-2.14253e-15
-6.60774e-14
-2.15774e-13
-1.26215e-12
-7.07885e-12
-1.13005e-11
-2.81646e-11
-4.52621e-09
-2.92275e-08
-3.60474e-08
-2.44535e-08
-1.15408e-08
-4.27855e-09
-1.48664e-09
-7.33801e-10
-9.19208e-10
-1.72115e-09
-2.83766e-09
-3.65888e-09
-4.80618e-09
-4.75707e-09
-5.09725e-09
-2.39701e-09
-3.71593e-10
4.29598e-11
9.77031e-11
1.38706e-10
1.93428e-10
2.47301e-10
3.00088e-10
3.43371e-10
3.7035e-10
3.81005e-10
3.71294e-10
3.59878e-10
3.5798e-10
3.67424e-10
4.3013e-10
8.41467e-10
4.19502e-09
3.41446e-08
2.88987e-07
1.24867e-18
-2.48352e-17
-1.59165e-16
-2.53949e-15
-6.48045e-14
-2.09051e-13
-1.37275e-12
-7.2879e-12
-1.06515e-11
-2.36428e-11
-3.57824e-09
-2.24086e-08
-2.46776e-08
-1.48522e-08
-6.23893e-09
-2.11016e-09
-8.01411e-10
-6.2485e-10
-1.09929e-09
-2.08428e-09
-3.20283e-09
-3.77959e-09
-4.3225e-09
-4.21122e-09
-3.83121e-09
-1.56337e-09
-1.14256e-11
7.20327e-11
1.00349e-10
1.41035e-10
1.84015e-10
2.2163e-10
2.51448e-10
2.66498e-10
2.68657e-10
2.51087e-10
2.24575e-10
2.03469e-10
1.95793e-10
2.05067e-10
2.46137e-10
5.2265e-10
2.57363e-09
1.99917e-08
1.98612e-07
-1.32727e-19
-1.99511e-17
-2.15116e-16
-3.00858e-15
-6.03537e-14
-2.16384e-13
-1.4476e-12
-7.09719e-12
-9.3065e-12
-1.82957e-11
-2.53403e-09
-1.55645e-08
-1.51339e-08
-7.95211e-09
-2.91707e-09
-9.22524e-10
-4.8647e-10
-6.40284e-10
-1.30792e-09
-2.36615e-09
-3.32686e-09
-3.55263e-09
-3.51741e-09
-3.33469e-09
-2.65226e-09
-9.66476e-10
1.98824e-11
7.75317e-11
9.17274e-11
1.26624e-10
1.56339e-10
1.775e-10
1.87096e-10
1.82788e-10
1.64357e-10
1.40356e-10
1.15954e-10
9.81372e-11
9.12493e-11
9.65023e-11
1.30517e-10
2.34638e-10
1.00848e-09
7.66391e-09
6.42504e-08
-4.77603e-19
-2.10808e-17
-2.88455e-16
-3.56017e-15
-5.43023e-14
-2.26163e-13
-1.4478e-12
-6.42315e-12
-7.44099e-12
-1.31051e-11
-1.55908e-09
-9.37649e-09
-7.78676e-09
-3.44802e-09
-1.08519e-09
-3.76893e-10
-3.81054e-10
-7.10941e-10
-1.47838e-09
-2.47154e-09
-3.13514e-09
-3.00871e-09
-2.61855e-09
-2.31115e-09
-1.63393e-09
-5.38074e-10
4.03827e-11
7.12591e-11
7.64497e-11
9.95423e-11
1.16208e-10
1.23102e-10
1.18391e-10
1.00943e-10
8.23131e-11
6.48716e-11
4.98107e-11
3.9521e-11
3.54243e-11
3.67548e-11
5.58146e-11
9.14195e-11
3.334e-10
2.10181e-09
1.59821e-08
-7.4839e-19
-2.54784e-17
-3.72438e-16
-4.162e-15
-4.83791e-14
-2.29861e-13
-1.34986e-12
-5.30205e-12
-5.37743e-12
-8.86114e-12
-8.01846e-10
-4.67308e-09
-3.14351e-09
-1.11392e-09
-3.1554e-10
-1.97125e-10
-3.68023e-10
-7.77465e-10
-1.53905e-09
-2.33217e-09
-2.64623e-09
-2.31079e-09
-1.77636e-09
-1.37211e-09
-8.65599e-10
-2.56786e-10
4.34831e-11
5.72203e-11
5.70929e-11
6.66467e-11
7.17201e-11
7.02465e-11
5.7175e-11
4.38898e-11
3.29662e-11
2.41417e-11
1.73558e-11
1.30705e-11
1.13654e-11
1.14061e-11
1.85379e-11
4.5083e-11
1.10508e-10
5.59959e-10
3.89029e-09
-9.94221e-19
-3.12519e-17
-4.56879e-16
-4.72424e-15
-4.34842e-14
-2.23119e-13
-1.15578e-12
-3.90893e-12
-3.48378e-12
-5.87486e-12
-3.26598e-10
-1.80046e-09
-9.12508e-10
-2.50857e-10
-9.94687e-11
-1.60712e-10
-3.72576e-10
-7.90835e-10
-1.41367e-09
-1.95554e-09
-2.04368e-09
-1.62794e-09
-1.07627e-09
-6.78957e-10
-3.69379e-10
-9.50931e-11
3.2061e-11
3.61604e-11
3.41134e-11
3.55612e-11
3.53202e-11
2.84798e-11
2.08954e-11
1.47974e-11
1.03262e-11
7.08682e-12
4.84418e-12
3.53781e-12
3.04625e-12
3.05249e-12
5.06429e-12
1.79736e-11
6.00698e-11
1.34008e-10
5.95968e-10
-1.22824e-18
-3.71514e-17
-5.28733e-16
-5.10979e-15
-3.92633e-14
-2.02085e-13
-8.9272e-13
-2.50827e-12
-2.02791e-12
-3.91263e-12
-9.75596e-11
-4.70972e-10
-1.66364e-10
-4.94769e-11
-6.2465e-11
-1.48972e-10
-3.45145e-10
-6.96544e-10
-1.15015e-09
-1.47973e-09
)
;

boundaryField
{
    leftWall
    {
        type            zeroGradient;
    }
    rightWall
    {
        type            zeroGradient;
    }
    lowerWall
    {
        type            zeroGradient;
    }
    atmosphere
    {
        type            inletOutlet;
        inletValue      nonuniform 0();
        value           nonuniform 0();
    }
    defaultFaces
    {
        type            empty;
    }
    procBoundary0to1
    {
        type            processor;
        value           nonuniform List<scalar> 
44
(
0.870659
0.989469
0.999948
0.9999
0.999999
1
1
1
1
1
1
1
1
1
1
1
1
1
1.00001
0.999967
0.999967
0.998038
0.876044
0.666545
0.199426
0.00228666
0.000642315
0.000166227
4.17707e-05
1.04191e-05
2.62113e-06
-5.2718e-06
1.26577e-07
1.08514e-07
9.45948e-07
1.32326e-06
1.18656e-05
7.51462e-06
7.89501e-06
2.59732e-06
3.67387e-07
1.02776e-07
2.45709e-08
3.94479e-09
)
;
    }
    procBoundary0to2
    {
        type            processor;
        value           nonuniform List<scalar> 
46
(
-1.44807e-09
-1.06298e-09
-5.96484e-10
-2.79119e-10
-1.11822e-10
-1.9323e-11
1.64265e-11
1.80703e-11
1.53436e-11
1.40719e-11
1.17882e-11
8.39603e-12
5.72572e-12
3.81045e-12
2.49959e-12
1.63863e-12
1.09378e-12
7.94438e-13
6.86569e-13
6.75802e-13
9.03809e-13
1.69263e-12
4.48282e-12
2.05414e-11
1.08336e-10
-1.44301e-18
-4.20712e-17
-5.73275e-16
-5.17119e-15
-3.45537e-14
-1.66287e-13
-6.07346e-13
-1.35462e-12
-1.08254e-12
-2.47781e-12
-1.94757e-11
-5.90334e-11
-2.20317e-11
-2.09691e-11
-4.98501e-11
-1.24651e-10
-2.79542e-10
-5.32336e-10
-8.24028e-10
-1.44807e-09
-1.00382e-09
)
;
    }
}


// ************************************************************************* //
