/*--------------------------------*- C++ -*----------------------------------*\
  =========                 |
  \\      /  F ield         | OpenFOAM: The Open Source CFD Toolbox
   \\    /   O peration     | Website:  https://openfoam.org
    \\  /    A nd           | Version:  7
     \\/     M anipulation  |
\*---------------------------------------------------------------------------*/
FoamFile
{
    version     2.0;
    format      ascii;
    class       volScalarField;
    location    "0.25";
    object      p;
}
// * * * * * * * * * * * * * * * * * * * * * * * * * * * * * * * * * * * * * //

dimensions      [1 -1 -2 0 0 0 0];

internalField   nonuniform List<scalar> 
1935
(
1987.03
1990.62
1998.11
2006.8
2014.1
2019.61
2023.54
2026.36
2028.47
2030.13
2031.5
2032.66
2033.62
2034.37
2034.85
2034.98
2034.69
2033.91
2032.56
2030.58
2027.96
2024.7
2020.86
2016.56
2012.01
2007.52
2003.53
2000.6
1999.52
2001.29
2007.2
2018.93
2038.72
2069.93
2114.21
2174.39
2252.39
2348.74
2460.49
2579.31
2691.51
2782.26
2842.41
2869.1
1937.71
1940.35
1946.35
1953.13
1959.12
1963.87
1967.46
1970.16
1972.23
1973.87
1975.18
1976.22
1977.01
1977.52
1977.69
1977.47
1976.77
1975.54
1973.7
1971.23
1968.12
1964.37
1960.09
1955.41
1950.56
1945.88
1941.82
1938.99
1938.19
1940.44
1947
1959.44
1979.56
2008.99
2051.91
2110.46
2187.39
2284.05
2398.85
2525
2649.07
2751.54
2815.14
2833.58
1887.64
1891.39
1895.93
1900.66
1904.96
1908.48
1911.22
1913.35
1914.99
1916.24
1917.17
1917.79
1918.1
1918.05
1917.61
1916.7
1915.26
1913.23
1910.57
1907.26
1903.31
1898.76
1893.73
1888.4
1883.01
1877.95
1873.7
1870.89
1870.34
1873.06
1880.32
1893.61
1914.66
1945.37
1988.55
2046.5
2121.37
2214.25
2324.19
2446.78
2572.32
2684.67
2765.51
2805.91
1836.19
1841.12
1845.2
1848.69
1851.72
1854.15
1856.01
1857.43
1858.48
1859.2
1859.6
1859.67
1859.38
1858.69
1857.52
1855.83
1853.55
1850.63
1847.04
1842.78
1837.88
1832.4
1826.48
1820.33
1814.22
1808.55
1803.83
1800.71
1800.01
1802.73
1810.09
1823.53
1844.73
1875.46
1917.9
1974.25
2046.34
2134.99
2239.35
2356.04
2478.3
2595.5
2694.61
2767.12
1783.18
1788.99
1792.94
1795.75
1797.98
1799.65
1800.87
1801.74
1802.29
1802.55
1802.48
1802.05
1801.22
1799.92
1798.1
1795.68
1792.61
1788.85
1784.38
1779.2
1773.36
1766.94
1760.1
1753.04
1746.07
1739.59
1734.13
1730.31
1728.96
1731.06
1737.76
1750.44
1770.68
1800.13
1840.68
1894.28
1962.52
2046.15
2144.64
2255.69
2374.83
2495.26
2608.06
2706.52
1728.6
1734.96
1738.83
1741.19
1742.91
1744.11
1744.92
1745.43
1745.65
1745.57
1745.15
1744.33
1743.05
1741.24
1738.84
1735.78
1732
1727.48
1722.19
1716.14
1709.4
1702.05
1694.26
1686.24
1678.31
1670.86
1664.4
1659.57
1657.14
1658.06
1663.44
1674.57
1692.89
1719.98
1757.51
1807.19
1870.44
1947.99
2039.61
2143.94
2258.37
2378.83
2499.39
2615.76
1672.45
1679.09
1682.83
1684.89
1686.29
1687.22
1687.81
1688.13
1688.17
1687.89
1687.22
1686.11
1684.48
1682.25
1679.36
1675.73
1671.32
1666.1
1660.05
1653.18
1645.57
1637.3
1628.55
1619.53
1610.54
1601.97
1594.32
1588.2
1584.35
1583.64
1587.14
1596.03
1611.67
1635.46
1668.91
1713.51
1770.53
1840.62
1923.81
2019.37
2125.84
2240.98
2361.35
2485.56
1614.75
1621.45
1625.02
1626.88
1628.11
1628.92
1629.44
1629.7
1629.67
1629.3
1628.5
1627.2
1625.3
1622.73
1619.43
1615.31
1610.34
1604.48
1597.71
1590.08
1581.62
1572.45
1562.72
1552.65
1542.53
1532.73
1523.72
1516.08
1510.49
1507.78
1508.93
1515.03
1527.29
1546.99
1575.41
1613.83
1663.33
1724.5
1797.4
1881.61
1976.15
2079.5
2189.51
2306.75
1555.53
1562.14
1565.51
1567.24
1568.43
1569.24
1569.8
1570.11
1570.12
1569.75
1568.9
1567.47
1565.39
1562.56
1558.91
1554.37
1548.9
1542.45
1535.04
1526.67
1517.4
1507.34
1496.64
1485.49
1474.18
1463.04
1452.53
1443.15
1435.57
1430.54
1428.94
1431.76
1440.09
1455.01
1477.58
1508.84
1549.66
1600.44
1661.15
1731.27
1809.63
1894.12
1981.69
2070.99
1494.88
1501.26
1504.41
1506.11
1507.34
1508.25
1508.93
1509.38
1509.5
1509.2
1508.36
1506.89
1504.68
1501.65
1497.72
1492.82
1486.9
1479.94
1471.93
1462.87
1452.84
1441.91
1430.23
1417.98
1405.42
1392.87
1380.71
1369.45
1359.66
1352.03
1347.36
1346.52
1350.43
1360.01
1376.07
1399.38
1430.54
1469.7
1516.54
1570.11
1628.38
1687.32
1740.28
1776.81
1432.33
1438.39
1441.33
1443.04
1444.39
1445.48
1446.37
1447.01
1447.3
1447.12
1446.36
1444.89
1442.61
1439.43
1435.27
1430.06
1423.76
1416.33
1407.76
1398.07
1387.31
1375.53
1362.88
1349.52
1335.67
1321.61
1307.7
1294.39
1282.19
1271.73
1263.69
1258.84
1257.94
1261.71
1270.7
1285.41
1306.13
1332.71
1364.41
1399.64
1435.11
1464.15
1474.31
1438.1
1367.65
1373.32
1376.06
1377.85
1379.38
1380.71
1381.85
1382.73
1383.24
1383.23
1382.58
1381.15
1378.84
1375.55
1371.21
1365.74
1359.1
1351.26
1342.2
1331.93
1320.47
1307.88
1294.27
1279.78
1264.6
1248.97
1233.2
1217.7
1202.92
1189.41
1177.77
1168.62
1162.59
1160.18
1161.72
1167.41
1177.25
1190.73
1206.72
1223.08
1235.66
1236.25
1209.38
1121.31
1301.19
1306.42
1308.99
1310.89
1312.65
1314.25
1315.69
1316.85
1317.61
1317.8
1317.28
1315.92
1313.62
1310.27
1305.79
1300.11
1293.19
1284.98
1275.48
1264.67
1252.57
1239.21
1224.67
1209.05
1192.52
1175.27
1157.58
1139.78
1122.29
1105.58
1090.16
1076.54
1065.19
1056.44
1050.42
1047.04
1046.01
1046.56
1047.24
1045.71
1037.84
1016.16
968.103
870.793
1233.05
1237.8
1240.24
1242.28
1244.28
1246.19
1247.94
1249.41
1250.43
1250.84
1250.48
1249.22
1246.95
1243.56
1238.99
1233.15
1225.99
1217.49
1207.6
1196.32
1183.63
1169.54
1154.1
1137.38
1119.49
1100.59
1080.91
1060.75
1040.45
1020.44
1001.13
982.957
966.242
951.176
937.71
925.537
914.121
902.466
888.995
871.481
846.541
808.811
750.48
659.483
1163.32
1167.58
1169.91
1172.1
1174.36
1176.58
1178.67
1180.45
1181.74
1182.38
1182.2
1181.06
1178.84
1175.46
1170.83
1164.87
1157.55
1148.8
1138.6
1126.9
1113.69
1098.93
1082.64
1064.84
1045.6
1025.04
1003.35
980.758
957.596
934.219
910.998
888.272
866.283
845.113
824.593
804.244
783.339
760.745
734.868
703.81
665.232
616.14
552.701
469.154
1092.12
1095.86
1098.11
1100.46
1102.97
1105.51
1107.92
1110.01
1111.59
1112.46
1112.47
1111.46
1109.33
1105.99
1101.34
1095.32
1087.88
1078.97
1068.52
1056.49
1042.83
1027.48
1010.4
991.567
971.003
948.78
925.037
899.992
873.927
847.173
820.067
792.906
765.885
739.03
712.104
684.544
655.508
623.805
587.863
546.121
497.253
440.639
376.11
301.996
1019.56
1022.77
1024.95
1027.43
1030.19
1033.02
1035.75
1038.15
1040.01
1041.12
1041.33
1040.48
1038.46
1035.18
1030.56
1024.54
1017.05
1008.03
997.426
985.154
971.131
955.267
937.47
917.664
895.811
871.934
846.138
818.618
789.646
759.549
728.666
697.297
665.642
633.732
601.348
567.995
532.874
494.752
451.885
402.66
346.326
284.865
222.68
161.052
945.746
948.394
950.513
953.099
956.065
959.182
962.215
964.914
967.046
968.408
968.826
968.153
966.275
963.101
958.558
952.578
945.099
936.055
925.368
912.941
898.656
882.374
863.949
843.239
820.145
794.639
766.799
736.81
704.961
671.61
637.14
601.902
566.168
530.085
493.651
456.72
418.724
378.008
331.768
277.813
215.622
150.286
91.9063
44.8912
870.812
872.846
874.883
877.512
880.655
884.031
887.354
890.347
892.76
894.379
895.027
894.555
892.847
889.815
885.388
879.502
872.093
863.09
852.404
839.915
825.47
808.878
789.927
768.404
744.138
717.051
687.197
654.776
620.119
583.657
545.862
507.198
468.123
429.145
390.808
353.399
315.681
273.698
223.102
164.494
101.663
42.1844
-8.94033
-45.4889
794.876
796.204
798.122
800.713
803.994
807.609
811.216
814.506
817.211
819.105
820.004
819.758
818.251
815.395
811.125
805.379
798.094
789.198
778.593
766.138
751.643
734.865
715.519
693.305
667.969
639.379
607.571
572.78
535.419
496.036
455.246
413.71
372.298
332.19
294.037
256.085
212.441
157.337
99.1521
53.9442
21.3458
-4.08051
-35.9707
-78.246
718.049
718.502
720.257
722.716
726.102
729.952
733.85
737.456
740.476
742.671
743.849
743.856
742.575
739.925
735.843
730.274
723.16
714.431
703.983
691.662
677.242
660.428
640.856
618.122
591.868
561.891
528.221
491.151
451.221
409.154
365.765
322.045
279.448
238.875
196.991
145.903
85.9814
38.5452
13.0663
1.70129
-3.19704
-6.81974
-13.9336
-37.9854
-86.0979
640.424
639.709
641.254
643.504
646.991
651.094
655.318
659.275
662.649
665.181
666.67
666.959
665.93
663.506
659.632
654.264
647.352
638.835
628.613
616.523
602.316
585.65
566.077
543.063
516.108
484.917
449.513
410.29
367.967
323.486
277.935
232.624
188.44
141.601
86.2247
35.5857
5.81126
-2.92203
-3.93262
-4.79662
-5.37555
-5.86198
-6.84417
-10.218
-36.7642
562
559.747
561.017
563.045
566.671
571.082
575.688
580.056
583.835
586.75
588.588
589.185
588.428
586.242
582.585
577.424
570.729
562.45
552.502
540.732
526.885
510.589
491.318
468.366
441.024
408.868
371.925
330.716
286.161
239.475
192.1
144.87
95.1616
44.0181
8.96941
-3.47327
-4.4337
-4.95274
-5.23579
-5.47832
-5.64267
-5.80146
-5.99572
-6.24545
-11.7216
482.456
478.477
479.41
481.311
485.154
489.961
495.037
499.89
504.139
507.489
509.714
510.646
510.172
508.225
504.776
499.812
493.322
485.28
475.633
464.256
450.919
435.264
416.712
394.317
367.051
334.304
296.08
252.989
206.15
157.445
109.11
61.5284
20.563
-2.01776
-4.41157
-4.84784
-5.08775
-5.19253
-5.31456
-5.48304
-5.66287
-5.85808
-6.05846
-6.09432
-5.94873
401.311
395.795
396.29
398.296
402.489
407.807
413.454
418.878
423.667
427.505
430.154
431.44
431.25
429.524
426.257
421.455
415.131
407.296
397.944
387.015
374.34
359.649
342.389
321.274
294.769
261.947
222.642
177.476
128.41
79.9979
37.8856
8.83676
-3.74007
-4.4417
-4.84402
-4.96231
-5.07436
-5.17967
-5.32243
-5.50103
-5.69489
-5.90428
-6.12753
-6.28866
-6.05958
318.48
312.614
311.94
314.206
318.924
324.888
331.196
337.249
342.621
346.977
350.065
351.705
351.783
350.245
347.112
342.419
336.203
328.515
319.424
308.967
297.072
283.68
268.466
249.678
224.905
192.599
152.25
105.313
57.823
21.094
2.22061
-4.06039
-4.49899
-4.72858
-4.86017
-4.95629
-5.07569
-5.20832
-5.35984
-5.53001
-5.71366
-5.91479
-6.1484
-6.38847
-6.37306
236.161
228.281
226.918
229.55
234.818
241.507
248.551
255.297
261.297
266.197
269.721
271.691
271.996
270.581
267.51
262.844
256.631
248.953
239.968
229.839
218.598
206.696
194.639
179.868
158.263
127.369
87.0869
43.6208
11.3791
-1.36543
-4.15034
-4.44232
-4.63046
-4.74511
-4.85481
-4.96995
-5.09503
-5.22616
-5.36718
-5.52146
-5.69029
-5.88097
-6.10716
-6.34935
-6.4011
152.985
143.625
140.754
144.091
150.128
157.548
165.26
172.668
179.316
184.802
188.79
191.074
191.538
190.107
186.933
182.092
175.597
167.536
158.198
147.907
136.77
126.563
120.062
112.708
96.9309
69.9713
35.448
7.87299
-2.5406
-4.1313
-4.35233
-4.51977
-4.63506
-4.74017
-4.85438
-4.97027
-5.08724
-5.2069
-5.33379
-5.4719
-5.62445
-5.79871
-6.00605
-6.22029
-6.2657
70.8362
62.428
55.0632
59.3753
66.9882
75.4406
83.3635
90.5949
97.087
102.584
106.652
108.984
109.371
107.621
104.076
98.851
91.888
83.3391
73.8529
64.0524
53.759
46.6994
49.4161
54.239
48.183
29.5767
8.21118
-2.50734
-4.04982
-4.24315
-4.39511
-4.51289
-4.62014
-4.72801
-4.83712
-4.94373
-5.04902
-5.1557
-5.26754
-5.38812
-5.52099
-5.67298
-5.85383
-6.03966
-6.08903
15.3679
9.12848
5.51586
7.27754
10.724
15.3835
19.5776
23.258
26.8399
30.2363
32.824
34.1233
33.8289
31.5792
28.0706
23.5513
17.9449
11.6228
5.84891
1.54766
-2.2092
-2.66056
4.30794
15.3682
18.1403
8.41627
-2.35192
-3.93611
-4.11954
-4.26094
-4.37924
-4.48901
-4.59594
-4.69933
-4.79876
-4.89409
-4.98689
-5.07947
-5.17474
-5.27578
-5.38584
-5.50999
-5.65577
-5.80889
-5.87731
-2.33162
-1.35546
-1.64709
-1.92843
-1.96354
-1.24429
-0.48569
0.00846732
0.0803958
-0.215353
-0.90066
-1.91134
-3.25284
-4.93422
-6.37633
-7.27108
-7.69494
-7.66821
-7.09525
-6.32814
-5.76455
-4.50907
-3.03875
-0.190936
0.390625
-3.28096
-3.83309
-3.98361
-4.1169
-4.23696
-4.34961
-4.45747
-4.55926
-4.65428
-4.74312
-4.82664
-4.90627
-4.98381
-5.06145
-5.14161
-5.22667
-5.31846
-5.41952
-5.52573
-5.52763
-2.16927
-2.00116
-2.01978
-2.03582
-2.02489
-2.04731
-2.14686
-2.25651
-2.34511
-2.36879
-2.55454
-2.9193
-3.33171
-3.62973
-3.76505
-3.66793
-3.28768
-2.96649
-3.00419
-3.05848
-3.1869
-3.26191
-3.19232
-3.13888
-3.38674
-3.62596
-3.80392
-3.95572
-4.08487
-4.2035
-4.31442
-4.41702
-4.51089
-4.59636
-4.67438
-4.74574
-4.81175
-4.8739
-4.9338
-4.99329
-5.05427
-5.11679
-5.17799
-5.2308
-5.23179
-2.17597
-2.11414
-2.09575
-2.09814
-2.10031
-2.10524
-2.12508
-2.15186
-2.17721
-2.19956
-2.26184
-2.38248
-2.50999
-2.61147
-2.68858
-2.74349
-2.75573
-2.74358
-2.77458
-2.84482
-2.94926
-3.06363
-3.16614
-3.28303
-3.45182
-3.62722
-3.7865
-3.92794
-4.05413
-4.16943
-4.27437
-4.36901
-4.45374
-4.52912
-4.59599
-4.65508
-4.70752
-4.75455
-4.79743
-4.83763
-4.87698
-4.91584
-4.94942
-4.97561
-4.99029
-2.20789
-2.17276
-2.16557
-2.16699
-2.17494
-2.18951
-2.21283
-2.24165
-2.27049
-2.29496
-2.31096
-2.34768
-2.40279
-2.4672
-2.53699
-2.61571
-2.70952
-2.80915
-2.88099
-2.96012
-3.05365
-3.15447
-3.25521
-3.36628
-3.49901
-3.64114
-3.78151
-3.91025
-4.0279
-4.13478
-4.23069
-4.31585
-4.39065
-4.45563
-4.51126
-4.55827
-4.59764
-4.63036
-4.6574
-4.67995
-4.69969
-4.71748
-4.72918
-4.73002
-4.7273
-2.26516
-2.24319
-2.2395
-2.24097
-2.24919
-2.26522
-2.2894
-2.31937
-2.35182
-2.38431
-2.41766
-2.46143
-2.51636
-2.57912
-2.64701
-2.72033
-2.80073
-2.88395
-2.96045
-3.04052
-3.12852
-3.22129
-3.31597
-3.41857
-3.53461
-3.65845
-3.78093
-3.89641
-4.00283
-4.09912
-4.18476
-4.25969
-4.32418
-4.37867
-4.42337
-4.45888
-4.48597
-4.5054
-4.51788
-4.52432
-4.52604
-4.52401
-4.51534
-4.49551
-4.47206
-2.3384
-2.32017
-2.3173
-2.31899
-2.32676
-2.3417
-2.36377
-2.39161
-2.4235
-2.45881
-2.49856
-2.54576
-2.60049
-2.66103
-2.72593
-2.79466
-2.86704
-2.94184
-3.01728
-3.09653
-3.18112
-3.26995
-3.36192
-3.45939
-3.56454
-3.67366
-3.78132
-3.88342
-3.97773
-4.0628
-4.13776
-4.2023
-4.25657
-4.30081
-4.33512
-4.35986
-4.37558
-4.38279
-4.38199
-4.37376
-4.3588
-4.33781
-4.30952
-4.27119
-4.22689
-2.41366
-2.39993
-2.39789
-2.40006
-2.40777
-2.42199
-2.4425
-2.46862
-2.49952
-2.53484
-2.57501
-2.62106
-2.67304
-2.73026
-2.792
-2.8578
-2.92719
-2.99927
-3.07339
-3.15046
-3.23136
-3.31585
-3.40345
-3.49466
-3.58961
-3.68606
-3.78043
-3.86984
-3.95227
-4.02621
-4.09064
-4.14507
-4.18954
-4.22402
-4.24857
-4.26334
-4.26867
-4.26487
-4.25216
-4.2307
-4.20046
-4.16108
-4.11147
-4.04888
-3.96938
-2.48908
-2.48066
-2.47966
-2.48259
-2.49055
-2.50441
-2.52401
-2.54896
-2.57886
-2.61342
-2.65269
-2.69698
-2.74635
-2.80055
-2.85919
-2.92188
-2.98814
-3.05726
-3.12867
-3.2026
-3.27934
-3.35877
-3.44057
-3.52449
-3.60989
-3.69503
-3.77751
-3.8552
-3.92637
-3.98968
-4.04408
-4.08895
-4.12416
-4.14955
-4.16509
-4.17084
-4.16695
-4.15352
-4.13046
-4.09747
-4.05379
-3.99795
-3.92781
-3.83959
-3.72472
-2.56433
-2.56109
-2.56122
-2.56503
-2.57334
-2.5869
-2.60574
-2.62967
-2.65846
-2.69187
-2.72975
-2.77213
-2.81905
-2.8704
-2.92594
-2.98531
-3.04801
-3.11346
-3.18121
-3.25112
-3.32313
-3.39707
-3.47255
-3.549
-3.62551
-3.70058
-3.77243
-3.8394
-3.90016
-3.95354
-3.99857
-4.03457
-4.0612
-4.07829
-4.08577
-4.08362
-4.07181
-4.05024
-4.01854
-3.97602
-3.9214
-3.85258
-3.76653
-3.65861
-3.52001
-2.63913
-2.6403
-2.64151
-2.64618
-2.65481
-2.66805
-2.68611
-2.70897
-2.73649
-2.76842
-2.80455
-2.8448
-2.8892
-2.93767
-2.99004
-3.04593
-3.10487
-3.16634
-3.22992
-3.29531
-3.36229
-3.43056
-3.49965
-3.56884
-3.6371
-3.7031
-3.76538
-3.82267
-3.87394
-3.91822
-3.95464
-3.98254
-4.00143
-4.01115
-4.01162
-4.00275
-3.98437
-3.95616
-3.91758
-3.86768
-3.80496
-3.7272
-3.63122
-3.51238
-3.36339
-2.71312
-2.71752
-2.71971
-2.72519
-2.73411
-2.74708
-2.76441
-2.78618
-2.81228
-2.84248
-2.87659
-2.91455
-2.95632
-3.00186
-3.05095
-3.10325
-3.15829
-3.21559
-3.27474
-3.33539
-3.39722
-3.45983
-3.52263
-3.58484
-3.64541
-3.70314
-3.75682
-3.80544
-3.84818
-3.88427
-3.91295
-3.9336
-3.94569
-3.94903
-3.94354
-3.9291
-3.90542
-3.87204
-3.82825
-3.77311
-3.70515
-3.62228
-3.5217
-3.39952
-3.25039
-2.7856
-2.79212
-2.7952
-2.80149
-2.81074
-2.82353
-2.84021
-2.86087
-2.88544
-2.91378
-2.94578
-2.98137
-3.0205
-3.06305
-3.10879
-3.15738
-3.20841
-3.26144
-3.31606
-3.37191
-3.4286
-3.4856
-3.54226
-3.59774
-3.6511
-3.70128
-3.74725
-3.78817
-3.82336
-3.85221
-3.87407
-3.88838
-3.89464
-3.89262
-3.88219
-3.86319
-3.83533
-3.79809
-3.75074
-3.69238
-3.62172
-3.53699
-3.43601
-3.31591
-3.17311
-2.85584
-2.86339
-2.86745
-2.87456
-2.88425
-2.89698
-2.91309
-2.93267
-2.95572
-2.9822
-3.01207
-3.04532
-3.08181
-3.12135
-3.1637
-3.20855
-3.25554
-3.30426
-3.35435
-3.40543
-3.45701
-3.50849
-3.55915
-3.6082
-3.65481
-3.69809
-3.73716
-3.77127
-3.79982
-3.82229
-3.83822
-3.84711
-3.84851
-3.84209
-3.82766
-3.80504
-3.774
-3.73413
-3.68475
-3.62499
-3.55381
-3.46988
-3.37157
-3.25698
-3.12414
-2.92317
-2.93087
-2.93607
-2.94408
-2.95431
-2.9671
-2.98273
-3.00135
-3.02299
-3.0477
-3.07553
-3.10644
-3.14029
-3.17683
-3.21581
-3.25696
-3.29995
-3.34443
-3.39005
-3.4364
)
;

boundaryField
{
    leftWall
    {
        type            calculated;
        value           nonuniform List<scalar> 
44
(
1987.03
1937.71
1887.64
1836.19
1783.18
1728.6
1672.45
1614.75
1555.53
1494.88
1432.33
1367.65
1301.19
1233.05
1163.32
1092.12
1019.56
945.746
870.812
794.876
718.049
640.424
562
482.456
401.311
318.48
236.161
152.985
70.8362
15.3679
-2.33162
-2.16927
-2.17597
-2.20789
-2.26516
-2.3384
-2.41366
-2.48908
-2.56433
-2.63913
-2.71312
-2.7856
-2.85584
-2.92317
)
;
    }
    rightWall
    {
        type            calculated;
        value           nonuniform 0();
    }
    lowerWall
    {
        type            calculated;
        value           nonuniform List<scalar> 
44
(
2010.57
2014.16
2021.65
2030.34
2037.65
2043.16
2047.09
2049.9
2052.01
2053.67
2055.04
2056.2
2057.17
2057.91
2058.39
2058.52
2058.24
2057.45
2056.1
2054.13
2051.5
2048.24
2044.4
2040.1
2035.56
2031.07
2027.07
2024.15
2023.07
2024.83
2030.74
2042.48
2062.26
2093.47
2137.76
2197.93
2275.94
2372.29
2484.03
2602.85
2715.06
2805.81
2865.96
2891.53
)
;
    }
    atmosphere
    {
        type            calculated;
        value           nonuniform 0();
    }
    defaultFaces
    {
        type            empty;
    }
    procBoundary0to1
    {
        type            processor;
        value           nonuniform List<scalar> 
44
(
2893.68
2824.48
2823.64
2824.91
2804.56
2747.26
2639.08
2464.8
2205.61
1841.04
1347.39
961.175
723.645
531.781
359.524
214.603
96.6831
2.55034
-69.8457
-110.404
-110.404
-130.352
-98.8283
-45.5553
-16.1944
-8.91426
-7.91022
-7.68541
-7.43945
-7.06621
-6.57415
-5.0956
-4.96864
-4.88453
-4.67982
-4.4249
-4.15844
-3.85728
-3.56496
-3.33419
-3.1732
-3.06782
-3.00441
-2.9718
)
;
    }
    procBoundary0to2
    {
        type            processor;
        value           nonuniform List<scalar> 
46
(
-3.48293
-3.529
-3.57388
-3.61686
-3.6572
-3.69416
-3.72701
-3.75508
-3.7778
-3.79473
-3.80552
-3.80977
-3.80712
-3.79719
-3.77969
-3.75442
-3.72122
-3.67982
-3.62969
-3.57012
-3.50024
-3.41907
-3.32545
-3.21832
-3.09699
-2.98718
-2.99444
-3.00105
-3.01001
-3.02086
-3.03378
-3.04904
-3.06682
-3.08723
-3.11034
-3.13621
-3.16481
-3.196
-3.22955
-3.26522
-3.30276
-3.34188
-3.38224
-3.4235
-3.48293
-3.46521
)
;
    }
}


// ************************************************************************* //
