/*--------------------------------*- C++ -*----------------------------------*\
  =========                 |
  \\      /  F ield         | OpenFOAM: The Open Source CFD Toolbox
   \\    /   O peration     | Website:  https://openfoam.org
    \\  /    A nd           | Version:  7
     \\/     M anipulation  |
\*---------------------------------------------------------------------------*/
FoamFile
{
    version     2.0;
    format      ascii;
    class       scalarField;
    location    "0.00072/lagrangian/dsmc";
    object      Ei;
}
// * * * * * * * * * * * * * * * * * * * * * * * * * * * * * * * * * * * * * //


11797
(
6.33468e-21
1.87923e-21
3.50653e-21
2.11703e-20
6.36037e-21
4.15294e-21
3.89057e-21
2.14726e-21
5.85067e-21
4.86066e-21
5.64043e-21
2.98525e-21
2.30739e-21
3.72614e-22
6.2347e-22
1.02449e-20
2.35499e-21
7.10415e-22
6.40649e-20
7.06167e-22
6.29281e-21
2.73719e-20
1.70173e-20
1.79215e-20
6.8595e-21
9.67356e-21
6.47729e-21
6.68493e-21
1.76943e-21
3.70352e-21
1.16747e-20
7.95684e-21
3.80349e-21
6.13907e-21
4.43462e-21
8.42877e-21
8.52654e-21
1.4013e-22
2.12124e-23
1.42541e-20
1.92032e-20
4.4389e-21
2.44224e-20
1.02607e-20
1.73687e-20
4.67779e-21
5.45265e-22
3.02952e-20
3.79502e-20
4.76392e-23
4.37186e-21
9.61131e-21
2.85434e-21
1.76444e-20
4.56115e-20
2.23616e-21
1.92535e-21
5.38896e-21
1.93003e-20
2.81026e-20
5.44293e-21
1.70036e-20
3.64437e-21
5.25515e-21
2.52684e-21
2.3624e-21
6.10246e-22
3.49569e-21
3.67026e-20
9.42912e-21
3.32331e-21
4.4142e-21
7.98305e-22
5.82585e-21
6.1654e-21
2.23028e-20
4.86691e-21
2.03564e-21
2.53801e-21
1.30429e-20
1.19521e-20
1.11307e-20
9.11982e-26
2.04394e-20
7.43331e-21
5.10211e-21
3.14261e-21
9.72451e-21
1.22718e-20
1.98818e-21
2.77754e-21
2.29834e-21
6.82562e-21
1.45039e-20
2.73611e-22
2.51799e-20
3.20438e-21
1.19982e-20
7.96403e-22
3.40764e-21
6.40768e-22
1.80019e-21
4.70363e-21
3.0541e-21
1.13986e-20
5.29133e-21
1.95865e-21
1.3891e-21
5.1668e-21
2.13069e-20
6.95997e-21
1.47038e-20
4.85898e-22
8.7022e-23
1.93782e-20
4.4723e-21
2.20246e-20
2.17345e-21
9.93027e-21
2.3754e-20
1.14015e-20
1.75149e-20
6.20385e-22
3.07027e-20
1.07368e-20
8.55052e-21
5.65965e-22
2.12037e-20
6.16203e-21
4.09354e-21
3.14673e-21
1.51788e-20
1.35998e-20
2.35489e-21
9.48834e-21
4.72301e-21
1.41393e-21
3.96128e-21
1.91286e-21
5.99218e-21
4.8852e-21
2.54421e-20
5.97614e-21
3.71324e-22
7.74423e-21
2.16585e-21
2.44614e-22
1.19791e-20
1.87759e-20
1.91751e-20
4.79706e-22
8.34638e-22
2.48893e-20
1.51278e-20
7.89418e-21
8.5195e-21
1.72642e-20
3.31014e-21
1.40298e-21
1.56933e-20
8.00136e-21
1.46673e-20
5.2577e-21
4.03706e-21
1.15684e-20
4.47946e-22
3.98818e-21
1.37547e-20
6.73563e-21
1.37201e-20
6.40631e-21
4.38263e-21
2.53376e-20
1.11398e-20
1.33968e-20
7.71203e-21
2.36111e-21
2.13292e-21
1.03988e-20
7.92871e-21
1.46829e-20
2.31584e-22
8.14549e-21
2.17063e-21
5.38357e-21
7.51053e-23
6.12846e-22
3.36671e-21
1.43333e-21
5.14377e-21
9.18598e-21
1.33307e-21
1.06891e-20
2.00894e-20
4.80031e-21
1.54781e-20
9.35339e-22
5.36649e-21
1.36219e-20
2.6115e-21
5.12426e-21
6.0814e-22
1.09062e-22
4.6131e-21
6.74849e-21
9.29363e-21
8.25135e-21
3.29481e-21
6.82219e-21
9.98109e-24
1.24837e-20
2.49881e-21
9.31354e-22
2.76814e-22
7.73622e-21
1.0385e-21
8.02599e-21
4.51535e-21
1.07374e-20
1.87652e-20
1.03511e-20
1.85034e-20
2.39772e-22
6.24699e-21
1.22537e-21
6.30402e-21
2.41741e-21
4.18265e-21
3.40128e-21
1.67238e-20
5.10569e-21
8.48767e-22
2.97747e-21
3.33058e-20
8.15642e-21
1.49081e-21
4.4989e-21
1.80819e-20
3.03822e-20
1.30337e-21
7.3611e-21
1.47231e-21
1.44776e-20
8.83095e-21
4.59385e-21
3.99326e-21
1.39256e-21
6.90936e-21
8.87455e-21
2.36872e-21
1.61958e-21
4.42397e-21
1.42066e-23
9.80672e-22
1.1698e-20
9.86241e-21
6.32426e-21
4.75322e-21
7.86498e-21
3.02711e-21
6.04979e-21
1.70268e-20
7.30866e-21
4.29899e-21
2.38186e-20
1.84094e-20
3.39348e-21
1.23764e-20
9.53022e-21
3.16593e-21
8.19759e-21
1.62358e-21
5.67306e-21
1.15534e-20
4.7632e-23
5.76366e-21
1.51283e-20
9.16014e-21
7.41361e-21
2.75047e-21
6.11873e-21
6.54644e-21
6.64416e-21
1.49781e-21
7.01153e-21
1.59569e-21
1.23412e-20
7.04118e-23
3.86425e-21
1.0081e-20
6.08429e-22
6.1052e-21
5.07687e-21
1.65781e-21
5.48786e-21
2.37065e-21
2.41227e-21
1.11343e-20
5.0748e-22
5.48468e-21
9.24089e-21
1.71621e-20
4.31206e-22
1.90445e-20
1.34029e-21
2.7118e-20
1.41208e-20
1.83324e-20
1.1604e-21
3.88314e-21
2.7466e-21
5.43605e-22
6.83055e-20
2.58189e-21
1.13068e-20
1.97821e-21
5.29289e-22
1.48111e-20
1.19489e-21
1.41027e-21
3.23396e-21
7.15128e-22
6.18949e-21
6.89382e-21
4.9469e-22
5.34476e-21
3.38827e-22
1.31613e-20
5.8467e-21
4.03368e-21
2.92764e-21
2.91508e-22
1.3404e-20
2.91441e-21
1.67828e-20
1.06159e-20
1.86194e-21
3.30505e-20
1.02872e-20
1.11176e-21
2.16428e-20
1.17878e-21
6.68907e-21
3.67496e-21
9.92846e-21
4.94695e-20
1.22825e-20
1.81953e-20
1.31621e-20
8.90426e-22
1.19907e-20
6.4876e-21
1.1496e-21
7.73767e-21
4.27252e-22
7.02862e-21
1.33861e-20
2.59687e-21
1.76941e-20
1.23531e-20
2.6105e-21
1.8403e-21
4.6826e-21
2.5451e-21
1.19778e-20
3.03335e-21
1.6635e-23
4.31727e-21
1.40934e-21
5.49621e-21
7.51778e-21
5.42543e-21
1.51588e-21
1.31143e-20
1.5411e-21
5.25563e-21
6.05186e-21
3.04387e-21
4.92386e-21
5.69692e-22
1.43963e-20
2.03494e-22
3.38026e-21
3.6153e-21
2.48043e-21
3.79428e-21
3.37187e-21
8.97552e-22
8.87748e-21
1.51868e-21
2.88291e-21
1.13608e-20
2.62037e-21
1.10457e-21
9.28467e-21
2.15572e-21
1.1885e-20
1.2313e-21
1.13713e-20
4.45941e-21
4.33076e-21
3.35377e-21
1.92138e-20
1.20716e-20
1.34196e-21
6.04205e-21
1.01107e-20
6.72882e-21
2.96544e-21
9.30907e-22
2.63222e-21
4.60747e-22
2.63981e-21
1.1292e-20
2.14719e-20
7.15813e-21
3.87782e-21
8.00586e-21
9.17106e-22
8.57401e-21
4.05369e-21
1.47401e-22
5.66892e-21
2.97226e-21
1.66553e-21
1.20185e-20
6.29771e-22
2.22839e-21
1.0354e-20
2.61697e-21
5.93275e-21
6.73858e-21
1.43354e-21
4.50804e-21
3.37515e-21
9.91136e-21
1.63511e-20
3.39894e-21
5.43644e-21
8.98744e-21
1.16965e-20
1.9127e-21
3.26676e-21
2.32803e-21
1.66951e-20
1.3794e-20
2.69702e-20
5.89984e-21
6.85169e-21
8.38066e-22
1.9306e-22
1.51871e-21
1.20681e-20
1.31764e-21
6.3198e-21
5.6096e-21
7.12544e-21
7.14397e-21
3.41663e-21
1.45491e-20
6.07335e-21
6.44219e-21
2.04682e-21
1.12554e-20
2.97784e-21
2.86189e-21
1.77376e-21
9.06219e-21
1.40922e-22
2.87015e-21
2.08559e-20
3.21221e-21
2.18034e-20
7.55503e-22
3.87937e-21
3.96158e-21
4.50029e-21
3.82248e-21
2.48497e-21
1.75315e-20
1.0598e-21
4.36727e-21
9.78046e-21
1.76267e-21
3.38988e-21
3.96839e-21
1.64838e-20
9.2274e-21
1.36242e-21
1.39858e-22
3.75813e-21
9.24473e-22
6.41056e-21
2.62545e-21
9.37621e-22
1.08873e-21
1.45684e-21
5.04181e-21
2.21563e-20
3.50993e-21
1.35211e-20
1.25994e-20
1.01583e-20
1.03811e-21
4.19015e-21
3.65344e-20
7.43192e-22
8.7125e-21
5.46601e-21
4.51134e-21
1.35365e-20
2.85454e-20
2.36542e-21
1.0755e-20
7.44605e-21
8.54174e-21
2.64356e-20
6.09052e-21
5.63432e-22
7.32074e-21
7.99711e-21
1.61023e-20
7.1898e-21
6.91486e-21
1.75133e-21
3.28217e-21
7.99031e-22
1.04731e-20
1.19692e-22
7.52915e-21
6.62633e-21
2.10696e-20
5.63405e-22
1.32707e-20
3.53619e-22
1.08801e-20
2.59218e-21
2.20571e-21
3.01218e-21
9.48483e-21
4.67724e-21
4.7019e-21
4.77077e-21
5.28859e-21
9.12081e-21
1.63713e-20
5.20003e-22
2.95276e-21
1.36257e-20
3.48301e-21
1.78856e-20
8.67811e-22
9.77085e-21
1.66135e-21
2.34118e-21
3.32392e-20
2.88392e-20
2.44914e-21
5.27068e-21
5.48933e-22
3.13076e-21
6.48574e-21
2.46081e-21
3.55756e-22
4.85902e-22
2.33039e-21
4.59668e-21
5.93086e-21
6.35331e-21
5.77102e-21
3.72387e-21
6.83377e-21
3.70651e-21
1.80937e-20
5.53566e-21
2.51052e-22
4.81267e-21
1.85075e-20
1.84135e-20
1.2112e-20
1.33525e-20
1.13241e-20
1.56926e-21
5.48162e-21
8.20424e-21
1.41205e-20
4.2711e-21
1.0995e-20
6.17567e-21
3.46462e-21
2.43883e-20
1.70512e-21
2.05753e-22
7.43901e-22
1.84348e-20
4.1965e-21
1.06561e-20
1.09875e-20
1.34335e-21
4.0807e-22
1.55994e-20
3.4667e-21
6.89329e-21
2.28854e-21
8.05006e-21
7.64792e-21
6.18277e-22
4.68296e-21
6.11451e-23
2.40856e-20
5.69859e-22
7.55454e-22
3.47234e-21
9.77033e-24
1.17234e-20
2.17428e-21
1.4885e-21
2.27801e-20
1.93704e-21
1.09248e-20
1.01596e-20
9.32667e-22
5.42784e-21
2.16085e-21
6.13274e-21
7.77668e-21
7.61791e-21
3.97176e-21
1.16021e-21
4.52268e-21
1.11581e-21
3.21063e-21
1.53509e-21
9.93001e-21
9.53491e-22
6.84169e-21
1.72614e-22
4.91738e-21
2.4461e-20
1.19655e-21
7.32975e-21
1.78993e-20
1.19303e-20
2.11849e-22
9.16287e-22
1.65672e-20
1.58225e-21
6.185e-21
1.5244e-20
4.08694e-21
1.47785e-21
2.16277e-21
5.11648e-22
1.05751e-20
3.75302e-21
1.28207e-20
2.06948e-21
3.01955e-22
3.36157e-20
1.9491e-21
7.49359e-22
1.88227e-20
9.78374e-22
8.28867e-21
7.85118e-21
1.05076e-20
8.90919e-22
2.44282e-21
5.65452e-21
1.26349e-20
1.71336e-20
8.36152e-21
4.54008e-22
6.03873e-21
7.20632e-21
6.38339e-21
2.35483e-21
6.37173e-21
2.56226e-22
1.80404e-22
2.50909e-21
1.59147e-21
1.60089e-20
6.754e-21
5.24629e-21
6.63753e-21
9.22537e-22
2.97933e-21
4.25015e-21
1.30777e-21
2.94179e-20
1.98421e-21
1.31047e-20
1.6447e-20
2.5524e-21
1.06137e-20
3.64987e-22
2.93494e-22
9.64274e-21
1.59541e-20
2.13623e-21
7.35816e-21
1.06779e-21
1.56397e-20
8.25328e-21
7.71914e-21
7.83182e-22
6.16576e-22
7.50311e-22
7.35772e-21
4.62447e-21
3.68662e-21
5.97743e-21
5.52078e-21
2.43452e-21
3.20123e-20
1.11621e-20
7.50356e-21
1.36041e-21
1.27645e-20
1.29534e-21
7.6439e-21
1.46802e-20
1.02833e-20
1.52093e-20
9.83378e-21
3.13036e-20
1.85736e-21
5.88238e-21
2.78167e-21
1.23672e-22
1.2895e-20
3.91281e-21
5.54263e-21
3.45304e-21
1.72174e-22
2.62379e-21
3.09162e-21
3.51221e-21
1.12403e-21
7.81878e-22
1.57454e-21
3.96209e-21
8.71685e-21
1.09786e-21
9.74233e-21
8.16568e-22
8.30579e-21
4.73706e-21
1.03604e-20
2.84298e-21
5.23921e-21
1.18964e-20
2.20967e-20
8.51111e-21
1.36869e-20
1.20526e-22
2.63998e-20
4.0023e-21
2.67383e-21
1.68115e-20
2.40704e-20
1.01383e-20
1.02659e-20
1.83982e-20
5.16766e-21
3.63114e-21
4.78857e-22
6.85767e-21
5.82937e-21
3.1473e-21
3.24085e-21
8.20326e-21
8.10151e-22
2.62365e-21
2.0047e-20
2.06243e-20
3.56412e-22
8.71628e-22
7.86058e-21
3.93104e-21
3.45447e-21
2.80819e-21
1.07873e-21
5.47987e-21
1.1107e-21
5.42918e-21
2.50353e-21
1.20257e-21
7.40785e-22
7.19172e-22
6.16563e-21
1.33309e-20
6.75016e-21
8.93238e-21
3.06651e-21
1.93582e-21
6.60784e-21
8.95625e-21
2.11499e-20
4.28185e-21
1.07256e-20
4.369e-21
5.66823e-21
8.98799e-21
1.16167e-20
1.325e-20
1.3127e-20
1.45449e-20
4.74276e-21
1.7303e-20
2.58943e-20
9.30817e-23
6.05764e-21
1.73144e-21
9.57255e-21
3.27124e-21
1.68807e-21
9.30698e-21
5.09578e-22
7.16359e-21
1.39121e-20
1.6694e-20
1.2608e-20
1.49479e-20
4.61882e-21
1.83622e-21
4.48653e-22
5.77057e-21
5.99615e-21
1.191e-20
1.93907e-21
6.22072e-21
7.73205e-21
6.82804e-21
1.11039e-20
4.62034e-22
1.19691e-20
2.00236e-21
5.46006e-21
2.89848e-20
1.67731e-21
4.80894e-22
1.83767e-21
9.8609e-21
8.0863e-21
1.71164e-21
9.12293e-21
3.01943e-21
3.28427e-21
1.58824e-20
2.74833e-20
3.05739e-22
3.51595e-20
6.78664e-23
1.57789e-20
3.46403e-21
1.97166e-20
6.09116e-21
2.64067e-21
1.13314e-20
2.21598e-20
4.6429e-21
6.90188e-21
4.62046e-21
7.59008e-21
1.83968e-21
5.81106e-21
2.05522e-21
6.56256e-21
7.53744e-21
1.53115e-20
5.03127e-21
1.81931e-20
2.27206e-21
3.08178e-21
9.84882e-21
3.48236e-21
1.18569e-20
3.70429e-21
8.0119e-22
3.52173e-21
8.60145e-21
3.68953e-21
2.23225e-20
2.22959e-20
5.24282e-22
1.79479e-20
1.27634e-20
5.74965e-21
2.60193e-21
4.11252e-21
1.17702e-21
1.32122e-20
1.12691e-20
5.96823e-21
1.11694e-22
2.29079e-21
9.23933e-21
2.05955e-21
1.21535e-20
9.18621e-21
3.83595e-21
1.37884e-20
7.1048e-22
1.01584e-21
2.92069e-22
2.5485e-21
5.94726e-23
4.74149e-21
1.51162e-20
2.14029e-21
3.94524e-22
6.85748e-21
5.45892e-21
9.56887e-21
1.19619e-20
2.80537e-22
1.17569e-20
1.85318e-20
5.75328e-22
2.27751e-20
6.64643e-21
7.28197e-22
9.44255e-21
4.01718e-21
1.86723e-21
1.49255e-22
5.1205e-21
6.3282e-21
4.60066e-21
6.04258e-21
1.98815e-21
3.25703e-22
1.78836e-21
1.36499e-21
6.31226e-21
1.01831e-21
1.89709e-20
9.77663e-21
1.49608e-20
2.43028e-20
2.77768e-21
6.15444e-21
1.79996e-20
3.45771e-21
4.85322e-23
1.04203e-21
2.62179e-21
1.40996e-21
7.37076e-21
1.10372e-20
1.80853e-21
1.58942e-21
3.40408e-21
2.01961e-20
5.70499e-21
6.16203e-21
9.5076e-21
7.1595e-21
1.73694e-20
3.35216e-21
2.08978e-20
4.04461e-22
1.91793e-20
9.53605e-21
2.81598e-20
5.50498e-22
6.43827e-21
3.77551e-21
6.53667e-21
6.74024e-21
6.48506e-23
2.79932e-20
4.39475e-21
3.9879e-21
1.07564e-20
1.85293e-21
1.75989e-20
1.20205e-20
1.02256e-20
2.04099e-21
1.57423e-20
1.42525e-21
1.6316e-20
2.29291e-21
1.31937e-22
2.04446e-21
1.40028e-20
8.66224e-21
8.35876e-22
8.20066e-21
8.53921e-22
2.253e-21
7.75579e-21
7.17679e-21
9.83384e-21
2.70209e-20
9.18894e-21
1.25767e-20
3.25277e-21
1.04786e-20
1.15347e-20
4.43499e-21
8.24133e-21
4.66475e-21
1.97457e-20
5.51775e-21
7.16124e-22
2.36294e-21
3.64382e-21
2.3273e-20
7.60059e-22
1.45062e-20
1.24436e-20
1.31254e-20
5.69529e-21
5.72747e-21
2.33942e-21
3.28759e-21
3.57555e-21
9.66329e-21
2.52243e-22
2.15367e-21
5.63148e-21
3.92953e-21
1.09073e-20
3.67507e-21
1.42094e-20
1.13531e-20
2.16394e-21
1.66737e-20
1.52457e-21
1.6494e-20
3.80027e-21
1.13689e-21
2.99486e-21
3.98685e-21
1.05867e-20
7.62469e-21
1.16239e-20
4.64232e-21
2.02243e-20
4.82567e-23
4.32156e-21
9.02971e-21
3.56775e-21
5.90268e-21
5.01123e-21
7.42069e-21
7.89449e-21
5.92591e-21
8.72861e-21
1.08656e-20
2.59177e-20
1.5683e-20
1.21187e-20
6.37531e-24
6.34949e-21
1.86247e-21
2.17551e-21
2.08011e-22
3.07216e-21
7.18851e-21
3.71339e-21
1.49764e-20
6.17329e-21
1.57758e-21
4.15482e-21
6.86217e-21
4.80395e-21
5.67647e-21
1.49142e-20
2.86831e-21
2.23044e-21
4.0127e-21
1.42e-20
1.73176e-21
1.29509e-20
1.45126e-21
1.34106e-20
7.78183e-22
1.99598e-21
2.16813e-21
3.0286e-22
4.28747e-21
9.38484e-22
4.03082e-21
4.53838e-20
1.27659e-21
8.66654e-21
1.5745e-20
2.66279e-22
2.35349e-21
1.17366e-21
1.28065e-20
1.12877e-20
6.75808e-21
1.57275e-20
1.92917e-20
3.35861e-21
8.4511e-21
9.47637e-22
4.25584e-21
8.43582e-21
5.8195e-21
9.16489e-22
1.522e-20
4.62297e-21
3.79757e-21
7.40668e-21
1.27877e-21
1.14611e-20
1.99663e-21
1.41315e-21
1.56737e-20
4.1093e-21
5.72607e-21
6.3497e-21
5.33093e-22
2.16459e-21
7.68722e-22
2.68098e-21
6.31084e-24
3.67251e-21
9.7381e-21
7.10717e-21
7.65958e-21
2.66862e-21
4.47258e-20
8.9386e-21
1.05571e-20
1.37492e-21
7.82388e-21
9.27051e-21
3.48231e-21
1.79366e-21
1.57345e-20
3.49734e-20
2.4035e-20
2.1469e-21
1.27954e-20
2.65592e-21
1.46745e-20
6.73874e-21
6.46861e-21
2.4688e-21
1.70775e-21
2.40505e-21
3.15664e-21
6.27769e-23
1.32252e-20
9.28437e-22
1.81388e-21
1.72982e-22
1.80275e-20
2.94231e-21
3.46962e-21
3.78696e-21
5.19392e-22
1.81034e-20
6.01386e-21
5.44976e-21
1.95726e-20
2.18327e-21
1.17373e-20
1.20349e-20
4.45853e-21
2.99179e-23
1.01425e-21
3.07869e-21
1.90675e-21
1.00696e-21
1.75606e-21
1.40084e-21
1.34579e-20
8.68363e-21
1.81621e-21
2.51164e-21
7.09674e-22
3.60425e-21
2.04531e-21
3.09068e-21
3.19408e-22
4.3043e-21
2.88303e-20
9.23779e-21
4.06741e-21
1.41627e-20
1.12589e-20
1.33781e-22
5.0299e-21
2.55224e-22
4.27523e-22
6.72177e-21
1.77834e-20
3.18166e-21
2.6457e-21
4.54731e-21
1.05942e-20
2.73197e-21
4.00981e-21
1.26296e-20
8.73961e-21
1.49848e-21
1.28449e-20
1.01922e-20
3.15412e-21
2.43229e-21
2.15896e-20
5.70177e-21
2.0427e-20
5.56476e-21
1.91786e-20
3.55146e-21
2.28635e-21
8.44338e-21
1.50603e-20
1.01149e-20
9.20594e-21
5.65324e-21
9.00547e-21
5.1812e-21
4.97512e-21
1.09581e-21
4.12882e-21
1.06962e-21
2.98091e-21
1.60944e-20
1.51791e-21
6.78469e-21
4.23772e-21
1.84677e-20
1.21985e-20
5.99618e-22
9.14055e-21
5.6013e-21
3.31195e-21
1.56546e-22
2.45089e-22
1.38848e-21
1.07521e-20
4.16974e-22
1.75138e-21
6.86749e-21
3.63139e-21
1.93457e-21
2.11415e-21
1.27392e-21
5.71903e-22
9.64674e-21
1.18625e-20
2.43868e-21
1.65907e-20
3.786e-20
1.04175e-20
7.88462e-22
4.34165e-21
7.58844e-21
3.35368e-21
7.2267e-21
8.739e-22
1.23353e-20
2.03316e-21
4.58215e-21
1.05093e-20
4.90518e-21
1.55638e-20
1.68921e-21
4.9522e-21
4.07056e-21
9.13516e-21
5.31142e-21
5.4474e-21
1.63931e-20
2.04981e-21
1.0852e-20
1.04196e-20
8.38532e-21
1.69404e-21
1.99632e-21
1.15782e-20
2.47683e-21
4.58951e-21
6.49525e-22
1.42589e-21
7.26393e-21
4.65041e-21
3.07876e-21
8.59118e-21
5.36197e-21
2.11706e-22
2.54886e-21
7.4448e-21
6.79404e-21
7.32836e-21
5.204e-22
1.39282e-21
2.01979e-20
1.18329e-21
3.06263e-21
1.52103e-22
1.25835e-20
5.54154e-21
1.76496e-21
1.54595e-20
2.93398e-21
3.30706e-21
2.71897e-21
1.88258e-21
1.6606e-21
8.81228e-21
1.79687e-20
7.6657e-21
1.19564e-20
7.43922e-21
2.24568e-20
3.939e-21
6.00364e-21
8.46209e-21
4.52781e-21
2.46538e-22
4.90634e-21
1.61516e-20
1.25234e-20
5.58741e-21
8.22818e-21
5.54777e-22
2.22732e-20
6.63927e-22
5.61646e-21
6.8165e-21
1.4489e-21
2.38701e-20
3.65104e-21
5.72813e-21
3.01056e-21
3.56199e-22
1.91286e-20
1.34246e-20
4.15631e-22
9.19971e-22
4.73512e-21
6.87234e-21
5.85788e-21
1.47661e-21
1.82864e-21
5.05747e-21
1.84084e-21
2.52652e-20
1.46046e-20
8.30286e-21
5.71995e-22
1.27828e-21
1.29755e-20
3.36865e-21
2.55478e-21
1.25489e-21
3.53191e-21
1.69669e-20
1.88445e-22
1.24186e-20
1.82794e-22
1.37093e-20
4.58611e-22
1.30066e-20
1.34477e-20
3.88975e-21
2.56385e-20
1.19126e-21
1.70573e-21
3.21262e-21
3.96321e-21
1.01453e-21
8.16758e-22
1.76047e-20
1.08599e-20
6.32997e-21
1.07804e-20
3.46979e-21
1.79732e-20
7.51374e-21
1.2296e-20
7.87875e-21
4.02007e-21
1.35734e-21
1.10655e-20
1.05668e-20
5.91097e-23
4.19484e-21
7.32417e-22
1.07567e-21
1.7065e-21
3.19122e-21
1.61984e-21
3.54866e-21
9.55783e-22
1.4703e-20
7.19064e-21
1.31169e-20
8.98543e-21
1.88489e-21
7.31014e-21
8.45672e-22
5.4432e-22
3.29312e-21
3.42981e-21
3.37124e-21
1.60185e-20
1.89027e-21
1.09737e-21
1.29497e-20
1.37643e-21
1.07195e-20
2.44475e-21
7.42356e-22
8.89655e-22
5.45691e-21
2.1734e-21
4.48526e-21
1.299e-20
5.88133e-21
1.41879e-20
1.05948e-20
1.34975e-21
4.12771e-21
2.19672e-21
1.17232e-21
8.84971e-21
1.33416e-20
1.76229e-20
1.931e-20
1.91415e-21
5.86208e-21
3.93033e-21
1.58721e-21
3.07481e-21
2.86553e-21
1.05487e-20
5.80807e-21
7.80463e-21
1.38604e-20
3.44218e-22
4.29322e-21
1.43774e-21
2.40985e-20
9.6239e-22
8.85535e-21
3.05249e-21
1.22441e-20
2.25281e-21
4.79309e-21
1.06423e-21
1.38399e-20
4.55016e-21
2.57767e-21
1.24672e-20
2.88355e-21
7.40948e-23
1.09936e-20
9.79312e-22
2.57113e-21
7.38856e-22
6.23249e-21
2.73218e-21
8.34159e-21
7.80341e-21
1.59162e-20
2.77118e-21
7.22111e-23
8.1823e-21
4.12237e-21
7.11652e-21
5.04533e-21
8.1878e-22
2.53216e-21
3.17942e-21
3.17599e-21
6.5695e-22
3.17742e-21
2.39915e-21
6.65625e-21
3.5054e-22
8.02125e-21
6.44675e-21
1.50655e-21
2.53267e-21
3.29293e-21
6.55261e-21
3.22783e-21
4.21974e-21
3.24299e-20
3.95812e-21
1.23733e-20
7.01839e-21
5.78414e-21
2.32755e-20
2.89749e-21
9.3166e-21
6.85297e-21
9.79216e-23
3.83422e-20
3.07144e-21
1.55802e-20
6.14572e-21
9.35953e-21
4.54435e-21
3.62965e-21
1.76609e-21
3.9125e-21
1.43833e-20
1.49881e-20
3.1896e-21
1.31165e-21
7.15271e-21
7.96911e-21
7.06566e-21
7.14669e-24
1.63352e-21
1.2244e-20
8.06259e-21
1.2045e-20
8.57679e-23
4.73528e-21
9.70803e-21
8.56467e-21
1.75253e-22
9.11633e-23
1.10164e-20
4.24765e-21
2.80048e-21
1.03412e-20
1.74949e-20
1.08542e-20
3.32967e-22
1.29162e-20
1.81128e-21
2.17873e-21
1.14215e-21
5.0387e-21
3.98308e-21
3.97861e-20
2.04554e-21
5.115e-21
8.73263e-21
5.40511e-21
2.76886e-21
1.93918e-21
6.66462e-22
1.52088e-21
8.06905e-22
6.16597e-22
4.17114e-21
9.14344e-21
3.07443e-21
8.34658e-21
1.29365e-20
3.06589e-21
1.54966e-20
3.6515e-21
3.18213e-22
5.05261e-21
8.77496e-21
5.35601e-21
7.41827e-21
2.6527e-21
3.24688e-21
5.17072e-21
1.49029e-21
2.15543e-21
2.92519e-21
1.45786e-21
9.92629e-21
4.97348e-21
3.14517e-20
4.11917e-21
2.73894e-21
4.1986e-21
1.9333e-20
4.28058e-21
2.70871e-21
5.6289e-21
1.7938e-22
1.36327e-21
5.14248e-22
4.7129e-21
1.20419e-21
2.71876e-21
1.26032e-21
6.06749e-21
5.99709e-22
8.64028e-21
2.0755e-20
2.69369e-21
3.57633e-21
2.47572e-21
3.01824e-21
3.46131e-21
8.69567e-22
6.09921e-21
9.90913e-21
1.23573e-20
2.98402e-22
3.64615e-20
4.31347e-21
4.33586e-21
5.18482e-21
9.82574e-21
7.17428e-22
2.64347e-22
8.82738e-21
1.40855e-21
8.46946e-21
2.45518e-21
9.22643e-21
8.10704e-21
7.10388e-21
4.28169e-21
1.16499e-20
4.09395e-21
1.11854e-20
1.52035e-20
8.4722e-21
5.56879e-21
1.49357e-21
4.41599e-21
9.50088e-21
7.36444e-22
2.0578e-21
6.26085e-21
1.44092e-20
8.19211e-21
7.63776e-21
5.38024e-21
4.17843e-21
4.37269e-21
9.23531e-21
4.79576e-21
5.835e-21
2.70172e-22
8.42808e-21
1.55103e-21
2.86738e-22
1.59228e-20
1.3641e-20
1.62989e-20
6.21332e-21
1.90416e-20
1.70893e-21
3.10823e-22
1.14309e-20
4.52761e-21
1.04563e-21
1.18573e-20
2.17052e-21
6.7444e-21
6.5216e-21
1.66061e-20
2.5988e-21
1.75388e-20
3.35595e-21
1.24532e-20
1.1558e-21
4.02232e-21
1.09661e-20
3.99344e-21
2.75694e-20
1.24448e-21
4.27378e-20
5.80768e-21
1.99732e-21
5.04249e-21
2.29342e-22
7.2275e-21
2.74011e-21
7.17731e-21
8.42203e-21
1.31664e-21
2.75563e-20
3.07597e-21
8.11835e-21
1.88624e-21
1.92469e-21
1.29918e-20
8.82817e-21
3.16988e-21
2.33991e-20
1.80058e-20
4.09562e-22
2.69598e-21
4.91995e-22
2.35713e-21
5.7973e-21
1.21869e-22
6.73834e-21
1.92246e-21
8.59415e-21
1.15961e-21
1.56179e-20
6.83777e-21
8.7105e-22
4.76721e-21
1.47053e-20
1.09785e-20
3.34562e-21
1.37261e-21
1.10239e-20
4.10245e-21
1.22309e-20
1.3056e-20
2.00261e-20
4.75789e-21
6.26027e-22
2.0118e-20
9.77323e-21
2.38968e-21
9.09796e-21
1.36902e-21
1.24674e-21
1.30076e-21
6.22284e-22
6.18227e-21
1.29874e-20
2.44411e-20
1.1782e-20
2.0361e-20
2.24841e-21
5.06121e-21
8.11049e-21
4.67758e-21
8.33172e-21
1.72634e-22
1.48925e-20
2.46023e-21
1.21824e-20
4.57808e-21
2.2958e-20
1.29955e-20
1.76274e-21
3.82658e-21
7.56285e-21
3.40841e-21
1.45634e-20
9.70392e-21
2.54234e-21
3.43433e-22
1.75994e-20
7.42263e-21
4.87911e-21
6.61868e-22
4.88168e-21
1.16467e-20
2.66421e-20
6.19101e-21
5.05479e-21
1.7371e-20
1.91155e-21
2.74431e-21
5.00449e-21
1.07048e-20
1.22414e-21
1.59205e-21
3.5245e-21
5.31399e-22
2.68278e-21
1.22221e-21
5.18172e-21
9.94734e-21
7.78025e-22
3.53274e-21
6.15957e-22
4.58626e-21
1.75005e-21
1.4148e-20
3.47707e-21
1.98425e-21
1.32538e-22
3.14468e-22
5.11946e-21
1.43219e-21
1.15166e-21
5.15047e-21
1.25042e-21
7.89569e-21
1.97619e-21
3.69086e-21
8.93157e-21
9.82301e-21
2.16086e-22
4.80004e-21
1.56808e-21
1.11975e-20
7.0234e-22
1.79308e-20
2.03142e-20
3.66032e-21
4.97472e-21
1.53118e-20
4.9884e-21
3.69966e-21
9.66718e-21
7.14834e-21
5.46831e-21
2.80094e-21
1.30271e-20
6.13606e-21
1.24828e-20
1.18711e-20
1.35929e-20
2.36112e-21
2.5406e-21
7.96454e-21
5.45804e-21
3.50052e-21
3.94112e-21
4.84157e-21
8.33926e-21
1.78023e-21
6.86382e-21
8.305e-21
5.84643e-21
1.27206e-20
4.47922e-21
2.98064e-21
5.59955e-21
6.86569e-21
2.10399e-22
1.69947e-21
4.1138e-22
1.18843e-20
4.27256e-21
2.02164e-20
1.24457e-20
1.29322e-20
6.01046e-22
1.40379e-20
2.61096e-20
4.43853e-21
1.28617e-20
1.00891e-20
6.87467e-21
1.01231e-21
2.95296e-21
1.75445e-20
1.57689e-21
1.65726e-20
2.19016e-21
9.80822e-21
2.63936e-21
1.33001e-20
4.28973e-21
6.42822e-22
4.82142e-20
2.88655e-21
1.46383e-21
7.48246e-21
2.58163e-21
5.93733e-21
1.36097e-21
1.20438e-20
2.82536e-21
1.9215e-21
8.84618e-22
1.29957e-21
6.0603e-21
3.6196e-21
5.78116e-22
1.37838e-20
2.15538e-21
1.57188e-21
3.07218e-22
2.68182e-21
2.32782e-21
7.94065e-21
5.46523e-22
2.5302e-20
5.22192e-21
5.7455e-21
7.14375e-23
5.64092e-21
5.29962e-21
1.16458e-20
7.87309e-21
3.47241e-21
4.44963e-22
8.12386e-23
1.47037e-20
2.73725e-21
6.07547e-22
2.37693e-20
2.94889e-21
1.48546e-21
1.17291e-20
3.13842e-21
2.26932e-21
5.02461e-22
6.03039e-21
1.98654e-21
1.40616e-20
2.66374e-21
4.57574e-20
1.90715e-21
1.04874e-20
1.65998e-20
1.23221e-20
1.69167e-21
7.55981e-21
1.6548e-20
2.75239e-22
1.16906e-20
6.62105e-21
2.15336e-21
4.5776e-21
2.20219e-23
8.74912e-21
5.00805e-21
8.58533e-21
1.60847e-20
2.09288e-21
8.60789e-23
3.55865e-21
4.37608e-21
1.69643e-20
9.04646e-21
6.15013e-21
7.13824e-21
1.43413e-20
6.58264e-22
1.41742e-22
8.98613e-21
6.70006e-21
7.86559e-21
5.23996e-21
1.20448e-20
1.67783e-20
6.28735e-21
1.45783e-22
5.8169e-21
1.09333e-20
6.68673e-21
1.69155e-21
3.38337e-21
1.28096e-21
6.56596e-21
5.75878e-21
5.89342e-21
5.63469e-21
1.34887e-21
2.56316e-22
1.84685e-21
7.43846e-21
6.81301e-21
1.60613e-20
6.77861e-22
2.22458e-21
3.06844e-21
1.94354e-20
4.99814e-21
2.02505e-22
5.49877e-21
4.20677e-21
8.27065e-21
1.04832e-21
3.51e-22
2.33008e-21
7.06513e-21
7.13112e-21
1.43088e-21
1.33416e-20
4.85403e-21
6.52223e-21
2.7868e-20
5.09502e-21
6.5843e-21
5.77147e-21
2.8126e-21
6.37015e-21
5.46771e-22
1.00215e-21
1.36634e-20
5.68613e-22
1.35171e-20
1.10233e-20
7.41479e-21
8.81131e-21
8.72013e-21
1.40269e-21
2.07347e-20
2.48836e-21
8.80628e-21
7.21262e-21
3.54976e-21
3.539e-21
5.31311e-21
1.45548e-20
3.9366e-21
1.4399e-21
5.71303e-21
8.48552e-21
2.99734e-20
7.56275e-21
1.75369e-21
8.50348e-21
4.79345e-21
1.42905e-20
4.95919e-21
1.6205e-21
1.15417e-20
1.58983e-20
8.18402e-21
2.66009e-21
2.12625e-21
4.17171e-21
6.0499e-21
3.95979e-21
5.53982e-21
4.0443e-22
9.02342e-21
4.2268e-21
9.23888e-21
1.67959e-20
1.16637e-22
4.86433e-21
5.15492e-21
7.09205e-22
4.294e-21
1.02675e-21
2.0084e-21
2.56426e-20
5.11871e-21
1.03198e-20
2.76457e-21
1.55964e-20
1.44617e-20
6.93298e-21
1.09368e-20
2.97701e-21
9.0573e-21
3.31503e-21
9.96468e-21
1.27159e-21
7.14997e-21
7.04522e-21
1.71761e-20
1.15138e-20
1.00405e-21
4.81996e-21
9.58868e-21
7.59658e-22
6.41601e-22
1.97018e-21
3.77418e-22
1.29712e-21
1.07602e-21
2.16762e-21
1.49231e-20
6.21245e-21
3.72063e-20
4.54189e-21
2.42783e-20
2.57027e-21
3.50576e-21
1.19624e-20
4.92381e-21
1.38534e-20
5.52099e-21
6.37e-21
4.02857e-21
1.18574e-21
2.34857e-21
5.12795e-21
1.52873e-20
3.19654e-20
8.33078e-21
6.44919e-21
2.1927e-22
4.66564e-21
7.57087e-21
7.62581e-21
3.3644e-21
1.12122e-20
2.13415e-21
3.68625e-22
2.38308e-21
5.07431e-21
7.89639e-21
6.09224e-21
1.98262e-21
2.66267e-21
6.06386e-21
6.81977e-21
9.378e-22
3.85303e-21
7.34067e-22
1.06349e-21
2.31088e-21
3.32757e-21
7.84712e-21
3.06376e-21
2.96162e-21
5.97281e-21
2.05476e-21
1.31176e-20
1.05778e-20
1.92053e-21
2.8784e-20
1.98262e-20
1.73375e-22
8.7168e-21
1.27442e-21
5.10433e-21
2.18465e-21
3.4348e-21
5.30909e-21
8.41997e-21
3.84633e-21
6.95559e-23
2.32076e-21
4.05642e-22
5.34841e-21
1.4537e-21
9.15625e-22
9.11507e-22
8.63434e-21
6.5455e-21
4.74227e-21
1.09869e-20
3.41256e-21
3.77675e-21
1.32928e-21
6.36838e-21
1.388e-21
9.18372e-21
3.87806e-21
4.85766e-21
4.56791e-21
2.77538e-20
2.25155e-21
3.26264e-20
5.20758e-21
1.3867e-21
6.35979e-22
3.10088e-20
3.15496e-21
1.29436e-20
8.27663e-21
3.92031e-21
7.88609e-21
1.44786e-21
2.2525e-21
3.74481e-21
1.04542e-21
2.69433e-21
2.25407e-22
4.12805e-21
2.8466e-21
1.29379e-20
3.76174e-21
1.23883e-20
8.16462e-22
1.23406e-20
5.50997e-21
8.56587e-21
2.55305e-21
4.86875e-21
1.06651e-20
8.96255e-22
3.69632e-22
3.195e-21
2.6903e-22
1.85918e-20
2.70451e-20
1.22011e-21
2.91735e-21
2.94826e-21
1.5952e-21
1.30286e-20
1.08857e-21
5.47278e-22
1.96586e-21
9.25458e-22
7.88676e-21
8.09916e-22
6.64711e-21
2.12805e-21
7.40639e-22
1.65206e-20
4.56686e-21
4.02201e-21
2.86506e-20
6.77224e-21
2.03686e-21
1.40135e-20
8.77527e-21
1.55022e-22
1.0206e-20
1.11803e-20
1.61973e-20
3.40297e-22
2.29418e-20
1.00356e-21
9.34906e-21
6.7455e-21
1.59359e-21
1.40022e-20
8.2622e-21
1.22126e-20
5.60224e-21
3.13368e-21
1.44004e-21
7.25454e-21
6.09505e-21
1.34625e-20
1.80096e-21
2.36953e-21
2.10409e-21
6.89276e-21
2.3158e-21
1.67393e-20
5.57565e-22
2.03222e-21
5.42048e-21
3.11807e-21
4.4637e-21
9.75598e-21
8.39711e-21
1.88332e-21
3.58265e-21
4.38564e-21
5.26888e-21
3.9737e-21
2.53763e-21
1.07756e-22
7.19017e-21
6.69816e-21
1.79089e-21
1.77774e-20
8.01083e-21
8.32311e-21
3.25212e-20
1.27155e-20
1.3376e-20
1.28614e-21
2.20581e-22
5.7334e-21
3.27529e-21
3.49226e-23
8.69307e-21
2.21898e-21
3.31601e-21
7.42554e-21
4.65023e-22
5.95755e-21
4.8914e-21
3.8744e-21
9.22748e-21
2.38104e-21
3.85617e-21
4.85697e-21
5.92641e-21
5.10435e-21
7.60804e-21
2.20142e-20
3.00759e-21
2.71232e-21
7.90213e-21
1.26465e-20
1.16108e-21
3.64473e-21
6.77608e-22
4.49593e-21
1.97347e-20
6.13536e-21
9.57123e-22
5.2011e-21
4.33469e-22
2.88483e-21
9.92051e-21
1.0461e-21
1.93001e-21
5.30177e-21
8.23651e-21
7.98797e-21
6.75416e-22
1.3444e-20
4.11037e-21
1.01549e-21
7.83991e-21
1.80202e-20
6.72596e-21
2.66984e-21
1.42717e-20
1.47652e-20
1.46145e-21
8.13757e-22
5.62388e-21
5.60385e-21
6.40233e-21
4.53145e-21
7.71729e-21
2.69044e-21
2.54144e-21
3.20525e-21
5.30598e-22
1.82042e-20
2.02026e-21
3.89025e-21
2.66666e-21
9.80412e-21
2.65721e-21
1.81151e-20
2.64483e-21
4.10999e-22
1.4396e-21
8.24941e-21
2.09845e-20
4.45234e-21
1.15665e-20
3.879e-21
6.11499e-21
4.40119e-21
5.35818e-21
5.32489e-21
2.67575e-21
1.18936e-20
2.30537e-21
2.58114e-20
3.80116e-21
7.94026e-21
2.07089e-21
1.05567e-20
6.84706e-21
5.75041e-21
2.10551e-21
4.01175e-21
1.07753e-21
1.56894e-22
4.95729e-21
1.71937e-22
1.82311e-21
4.70491e-21
7.31802e-21
3.85605e-21
5.47751e-21
1.82231e-21
8.40263e-21
2.88518e-21
4.39473e-21
3.35845e-21
3.11576e-21
3.84225e-21
6.22038e-21
1.12886e-20
1.74891e-21
3.05925e-23
2.76984e-22
1.85808e-21
1.22317e-21
2.78082e-21
8.42904e-22
2.09773e-21
2.55621e-22
3.00039e-22
6.08795e-21
1.04135e-21
1.32451e-20
1.98211e-20
7.46064e-22
3.03602e-21
2.93686e-21
5.07688e-23
4.0114e-21
8.43086e-21
1.67905e-21
5.44558e-21
1.70408e-21
2.72703e-21
4.47775e-21
1.29231e-20
5.81735e-21
3.49697e-21
1.1762e-22
3.7247e-21
3.67082e-21
1.64951e-21
5.29692e-21
6.464e-21
1.00861e-21
9.28197e-21
2.53318e-21
2.35486e-21
3.67879e-20
7.96473e-21
4.40578e-20
3.17846e-21
6.38398e-21
2.07158e-21
1.44426e-20
8.25326e-21
6.53665e-21
1.2257e-20
4.56879e-22
3.46218e-21
2.69078e-21
7.32043e-21
1.83943e-21
1.79609e-21
2.13785e-21
9.65402e-21
2.92116e-20
1.93637e-21
7.55333e-21
1.25245e-20
7.0348e-21
1.09024e-20
3.27038e-21
6.86772e-21
1.53814e-20
8.60659e-21
4.27623e-21
4.78467e-21
1.06359e-21
1.5135e-20
6.67136e-21
1.84042e-22
9.57676e-21
1.60524e-21
1.4456e-21
2.87715e-20
4.06794e-21
1.27106e-21
5.00375e-22
2.25057e-21
2.0427e-21
6.07269e-21
7.95753e-22
1.38456e-22
1.58573e-21
7.03977e-21
1.32576e-21
5.11087e-21
9.44829e-21
7.90226e-21
1.08695e-21
3.19555e-21
2.60633e-21
7.93378e-21
4.84582e-22
1.32434e-21
1.63857e-21
2.76071e-21
1.21839e-21
3.91899e-21
2.13271e-21
8.09913e-21
8.28959e-22
2.0141e-21
7.19129e-21
1.30983e-21
8.04262e-21
1.32912e-22
1.21098e-21
2.89827e-21
4.22927e-21
3.1473e-21
2.27089e-21
8.00662e-23
1.80575e-21
1.73512e-20
1.03667e-20