/*--------------------------------*- C++ -*----------------------------------*\
  =========                 |
  \\      /  F ield         | OpenFOAM: The Open Source CFD Toolbox
   \\    /   O peration     | Website:  https://openfoam.org
    \\  /    A nd           | Version:  7
     \\/     M anipulation  |
\*---------------------------------------------------------------------------*/
FoamFile
{
    version     2.0;
    format      ascii;
    class       vectorField;
    location    "0.00072/lagrangian/dsmc";
    object      U;
}
// * * * * * * * * * * * * * * * * * * * * * * * * * * * * * * * * * * * * * //


11797
(
(-249.115 -428.071 974.355)
(273.941 -60.919 470.453)
(-366.007 445.667 -104.627)
(436.392 -1136.68 57.0862)
(698.032 722.268 -758.72)
(668.626 16.7777 -524.605)
(602.498 -710.685 -483.988)
(-158.939 42.2579 -143.187)
(554.651 -600.933 -59.3192)
(9.80253 -265.484 384.287)
(465.763 -145.351 -80.3213)
(703.013 -88.3109 -256.377)
(136.222 -706.792 -315.937)
(547.648 437.491 123.527)
(512.058 -600.942 -843.38)
(-483.484 188.948 -918.589)
(-364.271 476.297 560.186)
(-106.153 284.071 -494.028)
(864.527 155.799 111.491)
(53.2259 -717.528 38.4838)
(497.539 374.086 305.643)
(143.608 234.28 27.5877)
(534.748 -378.184 22.405)
(-351.82 -297.117 -43.0282)
(344.708 902.693 -569.337)
(798.104 197.516 -91.8175)
(-7.21219 241.057 245.871)
(38.9731 683.026 654.965)
(-8.37416 -630.97 -142.25)
(497.127 268.276 -744.236)
(354.89 145.106 -185.348)
(366.785 -371.803 -61.2565)
(-94.2346 438.976 603.122)
(485.911 345.023 694.251)
(895.975 385.79 192.186)
(1573.83 -168.276 87.5219)
(-447.584 530.131 -250.044)
(130.509 205.013 -240.081)
(512.785 406.327 22.1558)
(-545.779 -962.009 628.406)
(417.606 52.9164 307.005)
(619.995 -422.082 120.863)
(81.951 -148.455 32.0359)
(744.898 -175.765 859.988)
(551.375 6.86355 115.956)
(86.1966 -644.708 -350.048)
(-9.99979 78.3504 -45.5851)
(219.004 -511.769 -121.02)
(207.674 -12.143 -113.605)
(835.795 -251.427 -594.433)
(594.594 1094.08 -589.641)
(674.265 -162.561 -844.715)
(298.963 90.8406 -505.759)
(1115.89 -292.587 -332.151)
(-759.09 155.312 -302.708)
(373.791 -630.836 -167.608)
(-160.189 -22.375 455.835)
(729.208 -378.313 -55.4161)
(727.761 8.85689 355.521)
(530.351 529.077 -84.3965)
(450.263 344.736 897.017)
(686.891 -220.387 -0.511671)
(-48.1346 -272.564 -356.058)
(708.147 -40.8427 6.58092)
(656.318 384.19 153.906)
(22.621 210.949 319.14)
(271.263 194.72 -162.724)
(1142 170.435 340.219)
(516.146 -496.341 478.092)
(84.7838 550.731 -166.976)
(394.579 -587.384 -155.628)
(1172.88 -147.358 4.30586)
(365.608 161.982 -180.325)
(-81.3173 -1011.68 -184.633)
(483.626 619.432 -876.497)
(497.724 -618.139 -150.993)
(1418.47 289.104 -491.994)
(76.0007 268.675 498.003)
(-724.354 157.213 -539.315)
(505.038 92.9008 -362.229)
(-126.925 247.746 -204.05)
(382.687 -150.149 162.713)
(-106.309 -147.885 -146.944)
(124.735 -24.558 -586.312)
(651.529 -436.187 176.2)
(408.864 93.4236 653.228)
(64.4058 -464.621 267.276)
(487.222 -274.345 -688.042)
(295.721 160.555 -724.134)
(-204.096 95.7943 -674.563)
(526.454 19.7863 -38.9213)
(578.791 -390.764 -94.9808)
(542.08 -982.671 522.477)
(-355.318 77.8687 -684.522)
(434.996 47.3797 -280.841)
(542.262 257.442 -551.153)
(801.432 334.725 384.011)
(614.022 195.179 -125.78)
(732.516 -620.309 349.12)
(-224.91 227.402 -92.9559)
(258.961 422.514 311.716)
(356.319 337.937 173.887)
(84.7167 -276.343 -24.7219)
(1019.84 568.902 -213.348)
(385.963 10.6257 457.328)
(231.269 -493.886 -627.193)
(559.318 -603.04 560.491)
(475.68 454.237 -908.166)
(128.854 -41.0658 168.107)
(799.438 54.2625 -312.503)
(30.4746 -142.134 -471.578)
(-382.613 412.412 532.202)
(161.91 -460.765 -253.882)
(-227.001 112.693 -17.8718)
(828.63 53.3407 389.85)
(347.816 338.386 22.0937)
(341.567 606.805 72.5071)
(482.599 -323.69 22.3352)
(-446.904 -102.456 986.897)
(438.411 399.813 -381.428)
(213.257 243.876 94.6582)
(86.1636 -365.317 272.038)
(524.806 71.6558 -138.047)
(-195.788 69.9956 -153.923)
(381.555 -177.348 -461.438)
(668.984 304.108 225.593)
(611.652 -190.568 8.60902)
(428.388 -443.766 -211.251)
(353.448 272.668 63.1557)
(126.745 -222.411 193.182)
(983.22 34.0891 -653.38)
(16.6899 -398.059 252.108)
(28.5722 351.615 501.458)
(467.123 926.674 647.429)
(562.84 -3.06746 -359.565)
(393.05 -211.382 222.096)
(354.548 193.831 408.082)
(97.5845 15.1105 -68.4586)
(440.357 -141.714 72.6118)
(978.635 12.2114 108.446)
(343.609 355.066 -57.5097)
(-61.8481 -97.3787 380.319)
(36.3335 -347.433 -132.543)
(688.26 183.813 269.45)
(95.9958 -230.188 225.187)
(578.156 -322.463 -305.002)
(268.714 287.643 -917.656)
(447.366 108.077 501.917)
(767.22 -602.461 -54.2521)
(-164.798 126.501 302.784)
(-101.921 -297.259 -471.156)
(370.92 -669.839 511.501)
(566.627 647.108 -71.735)
(417.149 -814.366 691.151)
(775.182 -574.214 -0.237859)
(724.18 -44.8836 89.0835)
(-294.465 41.8349 -618.354)
(498.762 -77.1956 -240.767)
(615.522 -401.673 -168.72)
(621.858 -496.522 216.898)
(171.26 232.253 332.823)
(-141.707 -380.643 -49.1829)
(667.848 188.624 -420.09)
(953.858 -35.3604 143.406)
(498.992 -684.19 102.626)
(-45.7866 784.549 -337.603)
(-200.649 203.45 -448.303)
(215.194 -102.61 382.67)
(125.491 229.742 344.132)
(640.171 191.44 -109.493)
(295.095 -370.154 -103.731)
(-505.595 153.561 -472.032)
(786.372 -265.506 361.651)
(18.8509 -147.742 212.741)
(-412.033 -177.587 -176.307)
(-60.2389 -92.3583 54.0207)
(-5.56393 -385.903 -461)
(167.035 272.566 -95.6498)
(1077.03 -117.699 -210.357)
(340.001 -329.386 292.631)
(-33.8233 115.477 -335.763)
(145.895 -499.038 -674.326)
(431.991 561.85 -396.172)
(527.484 198.224 -494.098)
(791.958 -268.513 -431.136)
(976.92 -149.784 549.802)
(451.608 -96.3126 -319.837)
(-57.0414 -89.2144 27.5058)
(115.867 405.703 392.765)
(100.297 91.6876 -303.026)
(398.095 484.853 -51.7831)
(416.655 193.447 467.659)
(1294.46 -17.7341 352.055)
(32.8979 86.3223 -233.011)
(177.562 534.1 -218.954)
(541.327 759.093 102.052)
(-43.9822 -303.607 -510.133)
(213.854 -174.86 87.6954)
(-829.976 -69.3324 -173.475)
(271.347 -519.175 651.851)
(1000 -45.3256 -83.6857)
(792.44 102.972 -371.338)
(782.135 922.527 271.318)
(411.956 501.425 383.486)
(153.272 -60.58 -419.801)
(52.7716 -93.7077 -104.86)
(408.46 177.398 158.505)
(416.204 358.844 -189.513)
(108.727 -281.954 -196.458)
(939.019 302.932 699.842)
(464.844 -55.9862 15.0574)
(85.4176 -682.651 40.5665)
(139.392 199.781 859.403)
(525.2 -788.659 161.239)
(776.835 -145.251 876.612)
(765.998 217.952 -168.702)
(528.082 -1011.43 -276.575)
(158.351 511.19 487.533)
(1033.21 -690.718 -308.574)
(711.102 497.037 -246.694)
(349.015 -249.87 128.67)
(417.999 -47.7844 400.666)
(3.0386 276.312 -300.392)
(1154.93 125.06 -633.529)
(665.219 156.676 -532.523)
(855.553 118.713 -218.877)
(230.954 111.564 -407.896)
(736.194 98.1286 156.008)
(419.74 -386.228 123.473)
(105.93 -1238.49 734.106)
(586.886 -600.831 31.8862)
(799.118 15.0201 747.953)
(293.21 -11.3718 642.936)
(641.331 531.007 35.9487)
(367.915 560.198 672.065)
(1501.46 402.845 214.542)
(1397.44 -389.663 -649.309)
(203.038 -339.45 -542.159)
(726.784 244.649 117.525)
(744.468 351.182 448.867)
(783.591 -509.524 -275.542)
(-126.435 99.9963 384.645)
(276.742 -487.258 -25.8359)
(661.449 28.0503 356.863)
(182.546 644.246 -12.1578)
(574.71 766.38 278.515)
(411.416 104.844 174.604)
(62.1054 14.758 258.527)
(-46.876 -312.3 -207.699)
(350.53 -133.558 -94.3172)
(259.6 155.093 -884.549)
(480.49 227.851 253.551)
(413.267 -755.763 72.5714)
(940.151 -62.4382 1065.92)
(1173.35 -6.20236 -191.143)
(-29.8035 -233.599 713.456)
(92.2999 83.3076 254.494)
(197.084 -162.608 589.126)
(359.939 615.206 802.378)
(627.303 -301.271 -124.466)
(525.536 -202.547 22.0758)
(23.7839 -197.068 399.105)
(735.837 41.445 -105.496)
(384.829 506.435 -333.771)
(445.249 215.814 -146.555)
(479.516 292.573 157.172)
(28.5433 270.373 126.048)
(190.272 695.382 -366.238)
(332.533 -535.373 173.113)
(343.487 -513.68 302.123)
(309.361 856.08 -574.361)
(681.927 -28.9921 144.52)
(777.019 -957.486 -25.6368)
(-18.242 -624.22 355.891)
(479.236 331.434 -42.3331)
(1252 170.343 -182.612)
(-317.386 -907.816 -224.935)
(69.0703 126.061 134.15)
(297.263 -52.1554 -137.719)
(589.76 13.55 63.2551)
(533.326 521.083 -619.306)
(57.5446 -588.356 -381.48)
(476.394 557.631 -1019.39)
(-7.33062 -12.1388 484.019)
(-53.2219 -441.304 184.708)
(428.73 192.92 -428.597)
(471.447 -661.639 -20.0553)
(-10.5761 -537.41 346.014)
(720.481 -29.1166 131.242)
(662.429 62.7426 -122.975)
(-92.2806 231.241 220.131)
(577.637 -140.552 -490.717)
(144.731 290.772 -752.818)
(783.874 177.191 -201.989)
(335.068 245.198 -366.362)
(253.339 166.336 -242.469)
(736.673 274.024 -542.539)
(-17.8167 653.398 -376.786)
(-51.781 473.48 441.815)
(165.785 -457.47 668.931)
(652.982 -15.3463 253.108)
(327.324 -298.481 -547.894)
(222.775 308.056 -9.71396)
(625.863 754.11 1279.47)
(235.098 -118.652 72.4818)
(94.3934 220.725 -540.109)
(436.844 -92.4067 -72.0774)
(533.826 -191.24 158.8)
(898.034 1054.2 -253.62)
(869.626 -318.841 417.269)
(298.427 -326.573 -219.03)
(411.192 -135.304 -14.3847)
(523.161 -239.352 239.446)
(-494.975 -147.419 -801.534)
(1194.18 331.938 544.449)
(557.493 -430.515 -296.229)
(896.304 271.606 -5.44609)
(145.205 -574.785 -308.086)
(421.422 257.508 559.794)
(959.331 -154.58 -553.308)
(153.245 -214.045 -541.849)
(82.5393 68.9324 693.124)
(-449.402 -119.673 -351.763)
(-240.485 203.589 577.609)
(706.714 395.558 -1202.47)
(343.727 -318.152 -420.303)
(142.569 -458.046 752.031)
(898.06 389.178 321.428)
(909.641 148.572 -513.509)
(675.999 174.38 -384.888)
(930.479 -35.5298 -692.032)
(141.167 -561.126 150.895)
(528.614 -44.4086 -28.6382)
(47.9218 -124.859 204.129)
(479.466 -712.887 -389.261)
(8.59592 10.7389 -214.753)
(505.016 -620.92 187.254)
(398.084 147.974 375.354)
(717.544 -94.5764 28.357)
(-127.725 -348.807 -200.674)
(748.856 -229.459 98.6977)
(70.7416 80.7088 -128.64)
(301.495 373.383 569.906)
(882.229 -320.914 9.43859)
(-39.9186 -688.255 238.97)
(1134.6 373.847 650.766)
(52.294 -191.75 9.62635)
(800.071 27.3627 -439.58)
(440.529 612.037 61.9156)
(364.111 -156.427 81.9797)
(-76.6553 479.825 646.121)
(656.522 -459.449 176.54)
(914.284 -248.079 160.597)
(258.454 -81.3388 -237.855)
(130.114 -512.268 552.718)
(-22.4504 125.388 438.397)
(-37.8202 432.129 -458.977)
(20.107 -530.178 766.708)
(478.601 646.944 -82.3134)
(427.472 893.955 681.841)
(504.645 41.4959 -14.6174)
(203.24 -319.012 75.3148)
(-189.555 176.065 209.574)
(592.712 700.261 -86.7976)
(527.424 144.86 -81.0525)
(-275.813 -210.405 -28.1227)
(1215.81 -451.767 510.461)
(1127.34 -505.571 -93.8132)
(565.637 57.955 45.1316)
(1015.49 -191.337 -239.264)
(1021.44 -215.18 -385.316)
(534.447 265.638 -175.707)
(-3.76294 92.4265 197.724)
(827.568 307.465 118.111)
(530.939 158.78 -419.244)
(479.285 113.258 622.987)
(698.056 324.867 -40.6312)
(890.957 421.369 428.51)
(391.477 -888.154 266.279)
(455.577 291.057 365.607)
(841.039 -418.391 -1210)
(178.553 -176.723 -105.274)
(-454.458 -97.3616 780.759)
(545.549 249.923 77.3014)
(1106.26 406.756 79.283)
(1094.5 269.862 -34.9624)
(498.236 291.677 208.164)
(412.156 -69.2361 -12.0344)
(366.707 -78.1233 -71.8138)
(566.717 459.162 -408.877)
(215.464 176.38 37.4624)
(810.883 52.3332 164.503)
(58.0555 -45.5261 655.395)
(367.338 395.564 384.114)
(-123.392 230.974 -490.555)
(-314.057 -498.065 -143.144)
(216.485 154.701 91.7553)
(139.673 53.143 -444.808)
(318.063 -24.4764 439.026)
(308.748 653.864 -92.229)
(808.481 217.827 -55.8221)
(605.877 128.645 343.584)
(66.8861 -512.183 613.197)
(-143.569 464.802 109.926)
(-172.757 215.735 -247.919)
(422.412 -129.715 477.389)
(706.603 -729.115 440.762)
(234.423 397.871 -307.264)
(360.357 556.327 322.173)
(730.603 200.615 241.004)
(486.364 244.233 331.687)
(103.603 192.606 60.1253)
(737.652 -275.761 -12.4102)
(398.991 489.693 -355.454)
(945.957 -584.854 345.848)
(331.604 -456.881 -229.804)
(326.905 -14.4394 262.232)
(682.008 -308.671 -290.549)
(-252.436 121.779 -96.6132)
(1190.42 -732.336 -234.423)
(645.84 357.739 -597.197)
(-113.16 -702.401 -26.2559)
(-259.968 482.462 271.921)
(441.41 305.892 -206.208)
(476.595 259.533 -65.6244)
(293.284 303.55 -805.61)
(569.68 -78.2563 -365.607)
(659.777 214.892 -77.8083)
(-226.92 -39.2575 324.958)
(370.817 407.804 197.082)
(-70.578 463.77 -413.649)
(670.876 -0.296558 210.754)
(512.032 -452.811 -197.195)
(-0.831146 512.039 304.325)
(592.159 -863.931 67.7534)
(521.786 80.5603 -1308.06)
(-147.486 336.39 -37.7554)
(370.473 -481.822 49.9017)
(190.537 234.547 374.245)
(-459.438 -405.153 -629.06)
(179.905 212.908 83.6718)
(32.3733 146.103 -392.372)
(820.493 119.963 621.707)
(766.763 677.05 607.579)
(507.68 -80.8703 -526.472)
(299.877 -107.176 411.302)
(448.818 350.538 286.253)
(-115.4 58.0757 263.779)
(752.534 -99.2959 -305.988)
(244.713 -77.3443 348.743)
(13.6456 917.949 -212.282)
(904.729 652.785 -246.598)
(614.097 33.0902 111.96)
(230.309 -436.633 59.9097)
(776.018 399.328 -83.6083)
(342.547 206.701 -212.523)
(960.982 -24.7072 -163.714)
(-125.989 222.768 -586.853)
(1227.86 -224.608 747.64)
(866.315 -316.841 -100.425)
(740.695 -23.0759 297.071)
(419.953 -160.677 -208.504)
(562.181 328.864 -167.829)
(767.644 73.9658 -74.9328)
(388.36 -125.572 -329.104)
(-153.793 569.843 -248.514)
(15.4551 377.315 315.914)
(350.678 -559.433 732.119)
(877.543 145.076 132.568)
(599.56 -551.665 -452.843)
(632.877 -16.3004 872.73)
(-28.69 358.009 641.42)
(75.0377 -68.8765 173.523)
(185.94 305.854 190.951)
(106.027 383.566 0.917582)
(-159.223 -410.955 -218.035)
(614.424 -491.508 -98.696)
(72.8011 -436.942 360.499)
(251.211 53.5889 122.623)
(1206.64 -560.672 48.121)
(844.952 607.36 -149.626)
(649.878 385.753 -150.815)
(408.625 -32.1183 -83.5942)
(407.967 -637.074 459.943)
(827.768 -491.945 40.8169)
(60.3943 -214.96 -204.086)
(69.4024 -428.681 227.966)
(-336.577 230.957 402.055)
(872.771 -221.254 -349.604)
(1044.3 -25.1917 -429.115)
(585.49 150.228 180.078)
(1097.56 -203.289 68.9573)
(189.273 249.099 -62.1119)
(-39.2363 79.8979 -519.154)
(597.944 -895.196 232.872)
(453.431 284.81 434.243)
(947.308 -422.507 -100.513)
(245.85 -634.193 218.38)
(89.1215 -271.996 876.869)
(268.053 -336.525 107.787)
(763.579 384.12 791.01)
(550.105 -175.694 -569.878)
(246.213 291.798 -18.3228)
(391.135 -628.082 131.416)
(12.426 -343.46 121.841)
(342.449 13.1908 -144.871)
(410.641 -141.714 160.611)
(277.107 -182.872 518.214)
(-279.869 -1232.36 -170.511)
(1036.57 -432.401 711.545)
(303.496 -166.627 -541.162)
(-156.075 -49.4876 257.553)
(414.29 280.916 -80.7586)
(619.712 -213.504 -165.487)
(-70.5345 -21.0294 -346.882)
(613.998 -177.826 -350.323)
(158.912 356.615 -11.7127)
(618.111 259.462 -1121.51)
(379.108 247.212 387.446)
(447.463 -178.748 -21.0037)
(189.3 227.698 -293.629)
(-63.2825 410.078 -27.1267)
(538.337 -13.7719 437.039)
(44.998 330.225 199.332)
(780.266 487.081 145.393)
(555.161 388.763 298.157)
(-59.599 268.128 154.167)
(402.035 -433.528 -379.253)
(362.757 205.666 -719.533)
(339 -362.627 -456.317)
(198.788 296.779 827.649)
(1032.88 -70.0689 435.815)
(213.163 -40.0917 7.30093)
(682.083 -556.316 369.551)
(360.169 162.574 -60.0462)
(170.822 161.689 -64.9046)
(-24.9691 -462.323 233.679)
(985.387 65.909 430.187)
(293.658 -382.982 200.762)
(241.322 960.591 -251.414)
(1068.45 -127.681 -722.982)
(53.2929 417.476 -429.899)
(-161.052 -59.9001 239.081)
(792.518 93.9722 282.41)
(1075.88 -120.193 599.832)
(-560.38 386.063 -416.589)
(377.79 -273.049 340.564)
(60.7176 -110.567 -134.26)
(833.473 353.621 143.419)
(671.626 151.584 478.103)
(633.295 -334.014 -200.463)
(366.986 -202.32 621.969)
(-39.6585 403.418 -754.991)
(233.43 -134.283 105.315)
(408.761 -409.31 211.715)
(896.099 -22.746 -269.213)
(1032.42 81.3396 -605.879)
(457.89 -461.264 -523.994)
(-132.89 -567.851 230.097)
(1026.48 415.308 387.491)
(194.768 166.347 -390.658)
(-67.959 -609.575 180.7)
(876.836 1071.78 166.611)
(221.569 -1126.47 -375.363)
(567.676 61.5273 36.9321)
(11.1022 503.24 29.7772)
(870.052 468.494 123.036)
(623.45 -417.775 158.261)
(773.62 83.0618 -441.64)
(381.489 363.098 39.6509)
(545.092 -475.302 -65.0914)
(516.176 -29.3791 400.395)
(669.615 -396.262 311.122)
(124.524 -40.3003 390.93)
(812.245 802.957 86.3607)
(62.2783 -82.4353 -263.936)
(45.2918 204.611 -554.17)
(333.178 46.557 -117.156)
(1178.89 -39.7471 -297.981)
(-104.241 309.654 -279.959)
(152.69 672.002 910.263)
(-13.1173 495.937 33.4454)
(212.982 -522.484 -772.63)
(31.2679 148.532 -298.171)
(693.756 402.906 55.1576)
(560.543 -701.35 657.612)
(133.634 -44.4244 102.301)
(859.969 -448.882 -24.7759)
(594.206 -174.132 506.876)
(307.575 190.887 40.881)
(209.305 471.052 446.07)
(354.892 -489.113 714.487)
(51.5858 -347.337 317.322)
(669.52 -37.8879 -543.667)
(1763.65 -202.295 104.112)
(425.471 -299.186 254.612)
(-220.15 -899.407 133.984)
(286.337 -522.373 -410.483)
(804.503 -104.654 206.376)
(138.151 16.9024 278.031)
(59.4803 529.237 -312.888)
(369.732 185.319 292.489)
(1314.39 266.916 673.536)
(459.966 142.26 416.405)
(589.432 -43.3568 124.993)
(1265.22 299.405 154.115)
(1100.42 -434.697 -322.319)
(205.944 -207.621 240.814)
(143.854 -159.616 -143.209)
(888.408 -536.684 -479.42)
(219.373 -30.2553 294.842)
(-350.515 -211.064 313.788)
(497.587 244.637 36.2069)
(78.5314 -68.8771 7.80472)
(319.81 127.114 -312.67)
(258.602 -153.36 59.2753)
(1280.43 -22.327 -308.076)
(-258.346 155.907 -374.916)
(24.7775 -156.912 -144.431)
(817.038 -422.899 -621.31)
(484.047 244.89 -256.222)
(-31.7665 170.163 -175.072)
(526.007 -183.471 -1140.84)
(1096.04 -432.298 51.8644)
(594.421 -603.937 538.798)
(504.404 641.062 306.25)
(221.757 -227.609 471.664)
(587.84 540.175 18.6225)
(194.564 486.749 -187.06)
(546.025 27.1667 41.227)
(-351.131 720.845 241.358)
(-163.138 249.091 118.405)
(1152.27 -207.732 112.218)
(946.775 -313.628 -327.942)
(258.053 495.746 7.75849)
(92.7262 396.473 -126.157)
(448.371 393.848 425.839)
(646.743 244.356 -476.138)
(-45.8451 366.12 -573.018)
(589.082 -457.638 -96.1781)
(847.527 291.456 -511.396)
(178.257 584.856 273.892)
(-331.251 15.7862 -36.2192)
(161.903 -2.27825 141.267)
(146.93 117.279 292.891)
(978.937 -140.368 -662.563)
(524.07 407.728 204.761)
(-194.528 386.579 284.396)
(1475.45 -265.283 14.4248)
(-329.229 -293.984 167.723)
(771.607 317.085 -146.122)
(816.614 438.691 639.465)
(-448.942 428.348 453.798)
(689.677 308.497 308.513)
(400.549 252.459 -214.952)
(1104.18 760.532 -118.27)
(606.045 -229.552 158.812)
(322.232 -697.107 742.262)
(735.316 257.506 -599.087)
(102.418 -676.089 179.516)
(827.602 166.476 -444.65)
(855.902 -73.6828 -164.347)
(476.504 -302.097 199.698)
(-304.305 279.447 30.0839)
(292.035 5.30145 135.844)
(-2.69317 -254.78 635.065)
(94.9449 626.416 121.526)
(161.156 375.06 -248.126)
(172.252 -331.643 -349.355)
(-500.186 380.807 -145.026)
(372.966 241.756 72.5575)
(605.716 44.2236 528.58)
(267.986 65.8382 -29.8066)
(444.412 -500.109 -216.873)
(200.659 293.176 -716.566)
(738.375 256.259 -434.883)
(-341.477 545.571 76.7088)
(-53.3361 -595.843 -237.915)
(-292.949 -171.37 -90.1116)
(727.94 786.587 168.22)
(440.09 -297.899 269.41)
(465.252 -478.992 199.58)
(560.962 -328.859 128.403)
(782.825 556.567 -255.944)
(91.5346 -34.4163 428.402)
(635.599 -57.3971 363.83)
(193.287 -37.1582 262.791)
(173.787 666.493 379.206)
(325.007 3.75595 252.363)
(634.748 537.792 151.684)
(1094.19 222.64 -243.736)
(897.246 -129.039 697.132)
(-561.067 265.286 791.238)
(38.1431 149.705 252.937)
(378.75 39.6617 -571.766)
(502.395 -275.314 302.229)
(316.564 265.047 -1213.71)
(580.844 232.112 -306.239)
(774.24 -327.888 -128.806)
(683.606 5.99079 795.144)
(9.815 -92.8284 64.6035)
(328.444 -315.332 72.4135)
(857.464 -166.8 -181.962)
(41.5926 329.48 -91.1012)
(436.355 -330.218 -214.733)
(225.423 -93.5177 122.473)
(775.659 -112.06 291.286)
(607.966 333.657 -10.7057)
(411.161 -369.203 95.7203)
(118.987 -399.775 178.352)
(315.056 -540.471 -176.5)
(124.107 -535.348 -197.441)
(506.296 -401.379 495.593)
(324.055 564.664 259.526)
(1072.27 -46.9219 104.489)
(370.399 226.299 28.9513)
(789.073 -187.401 -105.002)
(681.817 -89.6643 -187.928)
(325.991 311.245 600.543)
(755.402 -71.0271 -475.071)
(846.698 -508.594 245.218)
(924.363 323.801 -387.182)
(-421.774 -727.098 83.5725)
(-341.272 235.107 312.646)
(-225.083 -113.046 448.401)
(253.527 467.745 419.793)
(403.401 457.153 -495.977)
(543.803 -107.971 -245.763)
(192.812 306.186 144.192)
(861.976 -212.588 202.523)
(238.91 -376.04 218.895)
(-122.087 462.158 -860.421)
(-175.451 -1238.49 -832.921)
(362.52 40.9163 159.133)
(-142.284 446.268 386.53)
(588.863 110.343 74.8125)
(221.578 -928.269 -334.971)
(649.029 -456.18 -164.977)
(126.698 347.273 -359.561)
(465.209 215.297 -712.165)
(1080.14 221.364 226.5)
(410.268 -816.472 111.462)
(423.861 -556.839 114.103)
(703.058 -264.393 217.606)
(1228.7 219.099 -66.4063)
(512.16 -22.5605 -481.716)
(478.242 -808.167 285.278)
(774.987 14.2854 113.645)
(223.959 -146.609 -91.5595)
(431.327 112.709 13.9645)
(448.442 -409.901 366.049)
(101.859 230.427 -372.428)
(-12.0962 450.293 56.3745)
(1344.06 -520.915 323.759)
(-50.1017 236.726 -555.623)
(-22.2214 -119.541 544.541)
(314.268 408.259 604.581)
(369.127 -347.428 -453.913)
(1239.2 -614.314 97.3504)
(416.764 363.938 -295.064)
(362.038 53.0574 -64.4111)
(162.389 459.95 99.6626)
(523.451 159.283 533.954)
(834.909 126.781 249.216)
(1030.61 -364.03 -3.31152)
(962.569 -263.539 -77.1066)
(310.48 -34.3135 294.386)
(469.028 817.307 -550.333)
(1055.16 -479.982 -544.753)
(598.286 -13.0136 275.165)
(360.219 -805.262 -213.679)
(897.709 971.592 76.4683)
(189.782 -560.826 -191.701)
(370.787 -671.384 802.831)
(514.312 -445.544 101.807)
(151.275 -309.903 490.207)
(213.045 -95.2591 -560.478)
(220.044 -222.459 -899.953)
(-473.966 172.433 163.016)
(292.808 995.87 823.114)
(373.129 100.888 -154.42)
(958.335 -544.207 786.584)
(487.866 -605.668 48.4391)
(727.665 -223.434 -211.218)
(539.743 -77.5254 85.0715)
(230.348 38.4214 -100.35)
(590.204 190.585 -388.472)
(-17.9087 -513.202 -703.624)
(721.038 144.909 6.25573)
(-263.878 -264.284 26.2453)
(669.148 -329.026 88.2931)
(93.927 219.717 -106.83)
(1163.76 210.319 -270.796)
(684.54 213.989 957.521)
(-570.673 -590.661 260.333)
(799.803 -538.067 -551.983)
(902.257 627.008 -350.221)
(333.045 -207.249 564.552)
(782.673 -204.89 992.505)
(-85.6692 -296.626 -812.972)
(291.053 19.208 -135.14)
(63.7193 131.257 15.2489)
(466.212 -637.855 263.314)
(468.872 -171.395 20.6069)
(62.3687 375.272 86.6289)
(-156.507 624.632 76.1298)
(-80.6978 -279.256 127.023)
(253.07 16.7256 -408.979)
(426.113 -264.383 103.076)
(598.095 -251.707 -535.05)
(534.288 -472.657 -31.1562)
(198.574 1038.44 146.855)
(148.838 5.48169 -511.753)
(-253.512 -190.368 -340.306)
(-737.939 -338.772 173.944)
(917.649 12.2426 215.762)
(325.819 -158.919 61.9313)
(704.53 226.538 9.09489)
(236.884 -49.9219 -307.24)
(288.761 -58.9308 -119.98)
(275.693 -211.021 -164.384)
(231.622 455.431 56.4792)
(311.695 222.224 425.164)
(113.119 -862.312 -99.9316)
(430.684 -908.286 212.883)
(169.213 94.96 86.2451)
(643.031 448.96 113.284)
(307.594 -877.832 -724.141)
(576.204 446.414 317.113)
(-184.226 315.577 -279.756)
(192.276 352.469 -728.271)
(267.078 243.244 -206.605)
(120.338 -92.0426 234.948)
(134.093 -120.558 -109.78)
(559.226 -10.1005 -445.804)
(485.693 313.74 881.49)
(521.252 -519.35 -27.381)
(814.525 736.431 593.232)
(-242.227 905.246 843.424)
(760.794 -266.55 -134.384)
(694.947 260.089 117.619)
(237.091 -605.867 462.276)
(629.193 -273.783 377.245)
(334.619 36.7907 238.036)
(705.78 334.085 -827.888)
(-56.1083 -434.653 117.175)
(117.628 81.0146 336.631)
(-207.247 -248.058 376.834)
(175.625 -143.8 -73.268)
(646.596 107.963 124.538)
(-143.951 -290.849 325.162)
(926.632 330.905 -229.611)
(864.716 -404.888 -362.311)
(452.89 467.512 -394.074)
(650.652 -312.865 -307.649)
(618.811 -542.067 -524.239)
(573.584 -303.137 -391.454)
(343.237 -122.994 -32.6367)
(721.732 -472.743 -93.8435)
(1025.46 -177.234 806.411)
(336.491 113.328 -458.214)
(448.018 210.731 -206.931)
(345.046 275.143 427.321)
(422.825 822.501 280.556)
(1025.86 -48.2564 259.429)
(-701.366 321.95 -49.6432)
(661.866 -127.735 428.176)
(-216.964 -326.991 224.264)
(285.329 -39.8253 -188.684)
(3.03642 77.3435 426.973)
(248.262 109.862 -422.102)
(519.843 361.058 -318.938)
(-437.965 478.07 515.188)
(395.274 51.4793 -267.601)
(6.87494 123.189 -295.8)
(1059.85 -1.59505 -1.26583)
(931.436 372.118 -432.432)
(180.597 21.7848 286.764)
(-258.155 -262.087 -361.355)
(262.845 432.853 24.6251)
(279.29 117.933 -166.452)
(537.03 -424.811 -286.913)
(138.285 26.3127 233.616)
(240.372 -283.969 236.086)
(465.508 -662.61 -288.669)
(1290.74 728.465 -209.219)
(-73.6685 138.346 -499.315)
(-99.272 -227.661 122.645)
(622.061 223.105 352.614)
(111.001 541.737 201.457)
(367.184 53.7124 -831.41)
(452.913 -142.838 -220.329)
(808.578 72.7212 61.922)
(868.871 209.725 120.374)
(390.362 -337.329 -98.0001)
(3.00521 -99.4607 -24.16)
(75.2212 -445.967 -241.423)
(652.836 488.83 440.136)
(685.892 -556.688 -194.65)
(772.489 -96.1316 -85.2447)
(-97.8374 659.853 -273.32)
(569.799 601.764 -218.717)
(630.645 352.405 -131.279)
(-46.6256 -300.375 -111.473)
(328.202 235.709 -47.5837)
(258.208 131.18 282.698)
(549.54 19.6868 181.53)
(244.955 -321.724 -365.784)
(240.845 459.211 -80.9679)
(-103.087 -319.153 278.463)
(587.742 -404.197 -369.634)
(861.975 40.4988 -80.2563)
(459.247 -278.942 497.134)
(48.6918 -210.25 -176.519)
(-170.318 11.6998 -370.59)
(-73.9355 666.401 24.0839)
(684.05 -50.1535 -680.196)
(-318.469 93.1316 403.022)
(565.793 -209.181 260.492)
(304.201 886.086 366.621)
(682.102 660.65 -565.58)
(451.343 6.23762 -23.3094)
(312.866 274.621 23.3707)
(454.213 -404.616 -90.6842)
(739.159 72.0168 469.796)
(980.939 -536.451 -175.905)
(1103.75 311.322 260.088)
(359.485 24.3492 730.316)
(308.026 -365.402 -33.0868)
(1115.9 198.454 -458.116)
(494.985 302.904 -172.628)
(433.653 666.657 160.986)
(-71.2631 78.2036 -772.245)
(-29.9194 157.837 348.611)
(305.137 -137.537 -419.116)
(309.692 137.975 150.301)
(569.338 -506.855 -721.743)
(604.303 281.762 -297.251)
(405.281 -260.582 524.063)
(337.456 366.342 -512.153)
(-957.824 -40.6788 731.522)
(76.1582 83.9947 -26.7865)
(543.801 26.2662 -287.218)
(181.823 -132.633 664.643)
(330.959 209.187 132.053)
(369.969 332.852 411.29)
(-275.433 -299.941 214.071)
(506.85 178.94 -178.79)
(551.951 -475.886 -619.163)
(628.063 -230.052 131.244)
(913.943 716.486 -75.9681)
(1235.49 308.409 -281.318)
(1252.6 120.373 -488.236)
(-268.194 -489.768 70.2564)
(466.797 -387.422 582.655)
(327.12 -378.676 -922.661)
(62.435 -518.032 4.95477)
(705.24 -199.491 -301.124)
(826.669 -470.495 -365.563)
(469.883 -29.2497 545.805)
(838.885 -203.759 -576.583)
(62.49 605.702 814.716)
(56.4422 375.687 -489.904)
(634.309 10.6012 26.4741)
(-238.923 61.3404 121.638)
(585.504 -304.144 538.697)
(274.938 29.6723 -1067.32)
(125.725 -20.9799 200.995)
(479.333 -295.37 111.034)
(116.134 97.6508 -58.0575)
(265.831 -186.948 410.724)
(428.892 1373.34 -105.451)
(-222.94 -198.667 122.06)
(105.139 -309.045 93.3042)
(-461.558 -123.578 -107.741)
(208.837 743.518 65.5754)
(880.132 -183.167 120.942)
(340.062 369.965 677.415)
(-77.7948 254.186 -294.484)
(994.073 -568.311 -29.6912)
(596.299 493.521 410.233)
(376.771 344.668 531.149)
(-120.063 -85.1934 50.6062)
(855.355 -315.522 804.767)
(348.822 64.2957 215.907)
(438.569 -303.922 -322.696)
(48.7005 -666.05 -101.338)
(-187.364 -34.7108 546.408)
(358.924 -552.228 204.071)
(298.748 -40.3343 393.992)
(414.047 -173.45 -340.564)
(-286.423 -429.876 214.399)
(603.157 -173.031 281.923)
(369.516 515.991 898.895)
(64.5111 435.857 -276.655)
(51.0083 280.398 170.484)
(369.117 -28.7919 966.839)
(594.028 -84.6387 211.889)
(1044.2 197.079 350.34)
(622.88 557.472 -444.494)
(483.085 -5.67972 -733.462)
(714.927 459.496 -78.4544)
(188.732 -616.799 300.624)
(320.2 284.897 -734.661)
(3.14031 -30.4571 241.032)
(1340 288.693 -275.497)
(536.91 -105.503 -100.587)
(608.466 -293.025 7.54187)
(143.621 185.793 338.911)
(-153.846 -257.811 238.29)
(-207.267 -233.546 -118.034)
(683.22 109.362 -93.1955)
(1072.16 -179.894 275.721)
(782.754 565.925 -128.883)
(348.335 -324.533 28.2318)
(73.2198 139.497 96.4226)
(853.602 -678.872 -126.65)
(721.468 110.943 136.587)
(365.683 209.381 -110.346)
(224.85 -131.05 20.3983)
(290.814 108.025 538.65)
(349.279 144.346 219.659)
(682.893 -155.565 -5.61901)
(408.894 -435.192 -717.009)
(441.995 137.065 -24.6272)
(82.7883 -391.849 -136.629)
(353.505 -85.2308 -241.737)
(1137.76 -598.453 380.296)
(909.149 55.6144 -144.509)
(597.987 433.196 -284.029)
(-258.156 -418.866 411.094)
(485.02 101.326 358.465)
(244.104 677.518 -77.3999)
(181.857 20.3331 -104.292)
(795.789 -82.3896 470.516)
(429.23 245.031 81.691)
(930.243 -488.468 -101.696)
(641.716 218.534 129.863)
(487.837 351.504 196.566)
(583.033 67.1553 410.816)
(-155.223 -344.049 -488.625)
(-6.03359 334.371 -133.972)
(1117.89 148.679 255.215)
(450.225 -206.77 -86.97)
(482.079 378.054 660.008)
(94.7918 45.5759 -193.634)
(243.504 -608.811 -372.184)
(113.864 -440.81 219.379)
(-73.3171 -105.759 -199.427)
(311.681 276.615 465.785)
(287.481 595.328 -233.697)
(574.177 -499.151 209.593)
(310.527 25.9332 404.701)
(-137.524 1003.86 872.925)
(645.222 -409.113 572.147)
(607.566 -135.359 -426.727)
(101.65 -64.7575 -275.862)
(-59.4453 -338.209 -370.026)
(285.154 -32.9623 197.534)
(827.584 -44.0962 -117.733)
(292.036 124.276 290.622)
(1279.39 -31.1466 -3.27478)
(417.423 -165.356 -771.837)
(769.385 204.793 243.104)
(281.175 -67.2442 -61.3947)
(554.751 291.97 224.771)
(460.565 -77.374 -447.141)
(612.155 623.528 -1335.07)
(575.915 -181.821 -221.445)
(439.782 -150.84 -17.8375)
(927.717 -241.82 -0.0931539)
(493.94 -28.602 -67.055)
(183.286 -609.722 -331.335)
(307.714 344.482 -104.506)
(-211.444 -80.2471 -173.781)
(-185.537 -7.86648 229.244)
(416.888 477.43 -244.57)
(841.92 856.625 -377.662)
(53.0731 -164.594 291.659)
(747.113 127.557 -209.569)
(332.862 -219.938 -139.808)
(497.239 -496.45 230.244)
(-104.471 153.92 -387.94)
(157.005 -131.311 -59.7836)
(607.948 -80.8581 -413.248)
(712.443 15.86 -113.086)
(-8.72065 241.235 -129.182)
(117.004 -782.802 -344.147)
(331.767 52.9264 -46.8987)
(130.726 -11.3097 204.755)
(867.115 199.494 82.535)
(-87.7498 -455.163 169.335)
(6.36848 1091.8 346.195)
(621.684 16.4626 -199.997)
(407.586 314.297 -109.029)