/*--------------------------------*- C++ -*----------------------------------*\
  =========                 |
  \\      /  F ield         | OpenFOAM: The Open Source CFD Toolbox
   \\    /   O peration     | Website:  https://openfoam.org
    \\  /    A nd           | Version:  7
     \\/     M anipulation  |
\*---------------------------------------------------------------------------*/
FoamFile
{
    version     2.0;
    format      ascii;
    class       volScalarField;
    location    "0.0225";
    object      dsmcRhoN;
}
// * * * * * * * * * * * * * * * * * * * * * * * * * * * * * * * * * * * * * //

dimensions      [0 -3 0 0 0 0 0];

internalField   nonuniform List<scalar> 
250
(
897
920
949
895
881
928
955
934
879
905
887
935
938
911
900
851
900
987
913
901
992
906
925
972
933
942
935
944
900
948
885
920
921
942
921
928
910
915
945
901
934
914
891
918
866
915
903
898
931
883
909
897
876
900
883
871
911
945
939
948
948
947
924
940
957
943
883
898
964
860
896
925
905
962
928
894
897
908
928
888
933
876
932
971
952
905
884
970
884
968
935
878
959
901
935
858
891
874
962
951
924
913
907
920
904
927
914
942
904
900
873
912
899
951
939
911
899
876
890
926
954
878
953
890
883
936
934
882
899
861
898
932
913
903
942
923
925
921
898
935
976
923
948
943
908
903
951
891
891
910
857
926
964
930
912
882
912
929
953
878
937
903
901
877
917
898
893
867
969
869
876
912
873
907
935
928
882
902
911
921
872
910
903
914
922
920
870
941
971
863
939
856
859
984
921
909
864
908
858
883
901
890
919
937
972
915
888
930
875
878
983
921
875
914
924
911
949
908
934
871
942
885
821
919
868
978
935
866
909
883
896
873
954
924
874
964
858
865
887
888
924
896
924
903
938
903
870
926
901
924
)
;

boundaryField
{
    sides
    {
        type            symmetry;
    }
    empty
    {
        type            empty;
    }
    procBoundary0to1
    {
        type            processor;
        value           uniform 917;
    }
}


// ************************************************************************* //
