/*--------------------------------*- C++ -*----------------------------------*\
  =========                 |
  \\      /  F ield         | OpenFOAM: The Open Source CFD Toolbox
   \\    /   O peration     | Website:  https://openfoam.org
    \\  /    A nd           | Version:  7
     \\/     M anipulation  |
\*---------------------------------------------------------------------------*/
FoamFile
{
    version     2.0;
    format      ascii;
    class       scalarField;
    location    "0.0075/lagrangian/dsmc";
    object      Ei;
}
// * * * * * * * * * * * * * * * * * * * * * * * * * * * * * * * * * * * * * //


228869
(
2.0984e-21
6.62868e-21
3.4448e-22
3.96186e-21
2.81505e-21
5.91225e-22
1.48728e-21
3.74236e-22
8.18224e-21
5.61104e-22
1.03313e-21
6.19361e-21
2.97101e-21
1.57197e-21
2.06513e-21
2.86605e-21
5.25115e-22
6.87883e-22
2.5161e-22
6.6894e-22
1.45653e-22
4.2717e-22
1.22132e-21
1.14677e-21
2.00992e-21
2.90179e-21
1.3806e-22
9.61191e-22
9.60274e-22
2.64363e-21
1.02759e-21
7.83156e-22
9.9747e-22
1.13018e-21
9.13136e-21
1.98623e-21
1.69026e-21
9.81978e-22
4.1519e-22
6.24455e-21
1.68416e-21
1.7645e-21
1.91089e-21
1.26403e-22
1.30551e-21
1.18828e-21
2.22336e-21
3.41631e-21
2.11038e-21
1.54383e-21
1.43278e-21
1.06423e-21
8.42359e-23
1.27833e-21
2.80331e-21
1.72303e-21
2.85753e-22
3.16778e-21
6.63915e-23
9.79777e-22
2.61534e-21
1.62229e-21
1.38118e-21
1.80412e-21
9.19156e-23
4.654e-21
6.26997e-22
3.00288e-22
1.11393e-21
1.26245e-21
5.7949e-22
3.72174e-22
4.12093e-21
2.13948e-21
2.1031e-21
4.44328e-22
6.92128e-22
1.20906e-21
1.42935e-21
5.93127e-22
2.90204e-22
2.88895e-21
1.81919e-21
2.81352e-21
1.10882e-21
3.02481e-21
4.45575e-22
1.01441e-21
1.07544e-21
2.43158e-21
4.54105e-21
1.10461e-21
1.46402e-21
2.85581e-22
2.65358e-21
4.93026e-22
2.53667e-22
7.30907e-21
1.88411e-21
1.92158e-21
9.5253e-21
1.53761e-21
8.6484e-23
4.13906e-21
3.59303e-21
1.56851e-21
1.09322e-21
4.06631e-21
8.58148e-23
2.03568e-21
2.45771e-21
2.26085e-22
9.00108e-22
7.49773e-22
5.45785e-21
6.50619e-22
1.74847e-22
6.37092e-22
7.77991e-22
1.28901e-21
1.58414e-21
1.06005e-22
3.26159e-22
2.67306e-22
6.76026e-22
1.7263e-22
1.94655e-21
6.39733e-21
9.54425e-23
5.44852e-21
2.20894e-21
2.4364e-21
2.512e-22
2.42838e-21
1.51863e-21
7.98224e-22
1.79911e-21
1.90264e-21
2.15989e-21
2.60886e-21
1.16811e-21
1.36179e-21
5.3162e-22
5.04902e-22
1.14388e-21
1.96162e-21
3.76438e-21
1.06907e-21
4.94635e-22
1.40563e-22
2.84781e-21
2.92485e-22
1.42102e-21
8.90697e-22
3.13422e-22
1.37464e-21
1.09088e-21
3.72486e-21
3.73575e-22
2.74037e-21
2.6664e-21
1.44323e-21
2.10068e-21
4.08282e-22
3.00737e-21
2.24542e-21
3.39182e-23
4.99383e-21
3.40594e-22
1.74928e-22
2.51759e-21
7.7077e-22
1.33112e-22
3.38448e-21
6.56487e-22
1.61137e-21
3.35337e-22
2.80929e-21
1.38424e-21
7.58058e-22
5.29674e-22
2.13549e-21
4.08487e-22
2.10985e-21
1.03257e-21
1.90073e-22
1.51083e-21
6.26937e-21
1.87708e-22
2.84921e-22
1.7806e-21
4.40168e-22
2.99897e-21
1.72564e-21
4.28246e-22
2.91678e-21
2.01853e-21
8.05831e-22
1.70637e-22
3.84433e-21
5.30576e-22
4.48022e-22
3.36981e-21
2.95863e-22
2.36066e-21
1.36306e-21
1.08321e-21
1.03408e-21
4.01297e-21
1.77023e-22
1.71654e-21
4.75597e-22
1.50681e-21
7.76331e-22
1.19855e-21
2.34817e-23
4.73779e-22
1.16924e-21
1.42285e-21
1.13353e-21
3.72271e-22
4.85703e-22
2.16665e-21
2.95303e-21
5.78755e-22
3.51586e-22
1.32331e-21
4.31427e-22
1.1792e-21
8.20431e-22
7.69019e-23
1.59187e-22
2.29207e-22
2.13608e-22
2.10601e-22
2.20092e-21
9.3961e-22
3.11519e-21
3.70909e-21
2.7693e-22
1.23874e-21
1.32885e-21
2.03465e-22
6.42797e-21
5.81431e-21
1.87112e-22
1.9616e-21
1.76021e-21
1.07782e-22
1.38988e-21
9.04274e-22
1.0796e-21
2.01589e-21
1.49782e-21
1.06588e-21
2.51504e-21
3.19884e-22
2.32215e-21
1.68946e-22
1.06338e-21
3.32544e-21
7.47958e-22
1.32434e-21
1.95058e-21
2.63359e-21
3.78254e-22
2.57635e-22
5.78831e-22
2.96267e-21
2.04103e-21
3.48444e-21
3.16495e-22
4.32933e-22
2.68988e-22
2.49111e-21
5.55084e-22
2.50616e-22
2.04754e-22
1.14687e-21
2.18235e-21
5.88049e-21
2.76358e-21
7.49561e-22
8.48912e-22
4.54019e-21
3.69716e-21
2.01881e-21
2.31789e-23
5.67929e-21
1.2683e-21
6.90579e-22
8.08446e-22
1.73826e-21
3.55493e-21
1.23211e-23
6.47827e-25
1.25226e-21
2.55003e-21
3.41586e-21
1.26622e-21
2.21885e-21
8.82435e-22
6.01803e-22
4.67191e-23
1.10406e-21
2.16862e-22
2.20662e-21
1.22178e-21
3.15979e-22
1.7318e-22
1.18836e-21
2.59591e-21
3.16722e-22
1.11345e-21
5.56283e-22
5.32938e-22
4.2415e-21
1.95723e-22
1.34795e-21
1.77361e-21
5.04351e-21
2.9235e-21
5.43264e-22
2.74297e-21
2.47861e-21
3.04927e-21
1.576e-22
4.37973e-22
1.53859e-21
9.67851e-21
2.1685e-22
6.26336e-22
4.18689e-21
5.02574e-21
1.78491e-21
3.41181e-23
1.12494e-21
2.78784e-24
1.0832e-21
1.131e-21
2.00223e-22
3.95331e-22
1.43389e-21
2.61254e-22
5.52258e-22
8.06787e-21
2.49324e-22
2.60141e-21
1.73397e-22
1.58293e-21
5.37834e-22
3.47313e-21
5.23945e-22
1.79548e-21
3.37929e-22
1.01768e-21
1.19924e-21
9.88642e-22
1.38746e-21
2.59285e-21
9.83842e-22
7.18313e-22
1.19823e-21
2.69147e-21
1.65712e-21
1.36367e-21
5.15683e-22
4.51633e-21
5.70903e-21
7.89502e-22
3.13119e-21
3.03363e-21
1.85889e-21
7.87835e-22
1.44072e-21
5.86059e-22
3.15711e-22
3.43973e-21
7.22648e-23
2.13657e-21
2.03064e-21
6.52221e-22
3.71668e-21
8.6586e-22
4.15339e-22
9.81442e-22
1.50729e-21
1.68766e-21
8.61683e-22
1.81612e-21
9.96694e-22
1.17968e-21
1.11708e-21
1.71985e-21
8.27244e-22
5.15254e-22
1.18019e-21
3.31647e-21
8.77766e-22
7.54576e-22
3.13773e-21
1.01903e-21
3.75947e-21
3.47859e-23
7.23177e-22
2.99768e-21
5.51489e-21
3.17281e-22
1.32317e-21
4.47008e-22
9.76613e-22
5.52059e-22
1.81966e-21
1.35448e-22
7.97845e-22
5.38949e-22
3.94888e-22
5.25988e-21
1.04469e-21
4.74773e-22
1.32426e-22
2.80475e-22
3.78401e-21
3.97883e-21
3.0424e-22
2.60008e-22
2.82264e-22
1.62051e-21
2.49711e-22
7.6295e-22
4.72221e-23
2.22183e-21
1.48617e-21
2.92125e-21
6.41253e-22
6.1472e-22
2.46501e-23
2.83364e-25
9.75003e-22
2.35188e-22
3.15839e-21
2.83679e-21
2.26238e-21
7.27436e-23
8.37585e-22
1.18159e-21
1.27261e-21
4.44652e-22
1.27219e-21
8.24612e-22
9.23564e-22
1.94135e-23
4.16468e-22
3.86982e-22
4.58659e-22
5.8699e-23
1.25906e-21
6.78307e-21
6.79532e-23
9.76427e-22
9.5516e-23
4.4446e-22
2.02319e-21
3.01092e-22
1.40761e-21
4.58288e-21
1.47908e-22
2.5543e-21
1.53967e-22
1.13162e-21
3.48276e-22
3.42294e-21
3.69333e-22
1.39513e-21
1.38415e-22
1.73701e-22
3.16773e-21
6.27001e-22
3.46997e-22
1.85289e-21
2.10498e-21
6.61309e-22
3.03756e-22
2.22074e-21
3.20731e-21
9.43716e-22
3.47985e-21
2.14554e-22
9.4613e-22
2.50723e-21
2.02073e-21
1.87808e-22
2.73947e-22
6.75751e-22
1.08819e-21
6.53876e-23
4.32343e-22
2.63325e-21
7.07201e-21
2.69182e-21
9.14659e-23
3.88679e-22
2.45054e-23
2.57106e-22
4.66552e-21
1.67134e-21
6.65813e-21
5.30798e-22
4.24742e-22
3.01824e-21
3.21414e-21
1.71561e-21
3.20121e-21
6.9669e-21
3.25575e-22
1.32519e-21
1.43142e-22
6.7144e-22
1.91298e-21
8.57293e-23
2.23525e-22
1.18228e-21
8.68789e-22
4.01565e-22
5.20802e-22
1.38079e-21
1.04144e-21
1.64685e-21
1.69837e-21
1.49312e-21
9.43825e-22
5.84399e-22
1.97974e-21
1.84103e-21
1.73531e-21
1.30839e-21
6.78217e-23
6.01131e-23
1.81349e-22
8.12169e-22
3.2285e-22
1.19838e-21
1.29293e-21
5.05256e-22
1.11483e-21
2.79318e-21
8.08186e-22
3.74408e-21
7.05612e-21
1.43797e-22
4.448e-21
1.09022e-22
4.40104e-22
8.47306e-22
1.51944e-22
8.66845e-23
9.13121e-22
5.13429e-23
2.73896e-21
3.16489e-21
1.79688e-21
1.93396e-21
2.92905e-22
2.3073e-22
2.53454e-22
3.02792e-22
1.51829e-21
4.31052e-22
1.19235e-22
9.90268e-22
3.38657e-23
4.42557e-22
1.33451e-22
1.05757e-21
1.86303e-21
3.74412e-22
2.25998e-21
1.58642e-22
3.97802e-23
2.76062e-22
4.36525e-21
2.3516e-21
3.24716e-22
1.78813e-21
6.31458e-22
3.99266e-21
6.42274e-22
2.50008e-21
8.3603e-22
4.39463e-21
1.34378e-21
1.33292e-21
1.83249e-21
2.98374e-23
7.1488e-23
3.03898e-21
5.93866e-21
5.96478e-22
2.21769e-21
2.23843e-21
1.44779e-21
2.3146e-21
6.00971e-22
1.9494e-23
1.17322e-22
1.52596e-21
3.41144e-23
2.08342e-21
1.87599e-21
2.70671e-21
1.44598e-21
4.78565e-23
8.97384e-22
5.65878e-22
1.00608e-21
1.18565e-21
4.53542e-22
4.64031e-22
8.28212e-23
7.57684e-23
1.51401e-21
1.28756e-21
8.37123e-22
1.72653e-21
1.24597e-22
1.1987e-22
7.44193e-21
1.1049e-21
2.83605e-21
6.5135e-22
4.68271e-22
2.38829e-21
1.36663e-21
1.90801e-21
9.02094e-21
2.33366e-21
1.31603e-21
9.55948e-22
5.72248e-23
4.79262e-22
1.1862e-21
8.12487e-22
1.59808e-21
4.90055e-22
7.47208e-22
7.74624e-22
3.10529e-22
1.47415e-21
2.12756e-21
1.26337e-21
2.1474e-23
9.56189e-22
8.77619e-22
4.5528e-22
1.38586e-21
2.56324e-21
6.48449e-22
4.38537e-21
1.50672e-21
2.28382e-21
3.17654e-21
2.41226e-21
3.86896e-21
5.2002e-21
4.01396e-22
1.79227e-22
2.8318e-21
2.74503e-21
1.44397e-21
7.87153e-22
2.01916e-21
1.18902e-21
2.29928e-21
1.33747e-21
6.29738e-21
1.8302e-21
8.41455e-22
1.6474e-21
1.32563e-21
5.04904e-22
6.14011e-22
1.26137e-21
1.08361e-21
2.26351e-23
1.88005e-21
3.70103e-21
6.86461e-22
1.87645e-21
6.38084e-23
8.9756e-22
6.88195e-22
2.21946e-22
2.02562e-21
2.93155e-21
8.68929e-22
5.45673e-22
1.98222e-21
8.87372e-22
3.8785e-21
1.60259e-21
8.3269e-22
3.20108e-23
1.89508e-22
3.97094e-22
9.06623e-23
1.43297e-22
8.02542e-22
1.67e-21
2.02472e-21
1.48528e-22
1.5634e-21
4.08213e-23
4.22421e-22
2.55275e-21
8.10683e-22
2.92966e-21
7.66848e-21
1.78107e-21
4.03997e-21
6.97986e-22
1.04083e-20
6.06262e-22
1.13659e-21
2.61123e-22
1.86349e-22
1.03019e-21
2.05893e-21
2.02222e-21
1.02554e-21
1.13133e-21
3.53591e-21
2.03765e-22
6.39519e-22
1.79809e-21
1.17198e-21
6.79604e-22
9.33375e-23
1.71826e-22
3.60299e-22
3.04115e-25
2.22154e-22
3.81217e-21
1.45462e-21
2.27114e-22
9.79766e-22
1.24539e-21
1.36708e-21
9.74007e-22
2.6578e-21
5.57084e-22
3.14936e-22
9.26091e-22
2.31398e-22
5.08598e-22
6.93535e-21
1.71331e-21
1.18535e-21
1.01014e-21
8.37744e-22
9.59238e-22
1.02364e-21
7.00002e-22
2.99504e-21
1.00482e-22
4.96408e-22
1.942e-22
1.04999e-21
8.74744e-22
2.54942e-21
1.63641e-21
5.67568e-21
5.39432e-21
7.73327e-22
1.89407e-21
3.9627e-21
2.50076e-21
3.64445e-21
1.44177e-21
1.50813e-21
1.60586e-21
6.39451e-22
5.67041e-22
1.30423e-21
1.92338e-21
1.16521e-21
1.68383e-21
3.61551e-22
3.35502e-21
7.42317e-23
3.05604e-21
3.09637e-21
6.67984e-22
1.32227e-21
3.84369e-22
1.27058e-21
1.31235e-21
3.02657e-22
1.10807e-21
1.22354e-21
3.3635e-22
2.82602e-21
5.74986e-22
1.23034e-21
1.77743e-21
4.92836e-22
1.95413e-21
9.08788e-22
2.72274e-22
1.04903e-21
5.02441e-22
2.42856e-22
2.60605e-22
5.9122e-22
3.05546e-21
3.78805e-22
1.21934e-21
1.46316e-21
1.71381e-21
6.96051e-22
2.29076e-21
7.04109e-22
2.15584e-21
2.64449e-22
5.13865e-21
1.23159e-22
8.48615e-21
2.38661e-21
8.70807e-22
2.37225e-21
1.40292e-23
6.20148e-24
1.10442e-21
7.66669e-21
1.28933e-21
1.19303e-21
1.34606e-21
1.73805e-22
2.0681e-21
2.41197e-21
2.15594e-22
2.36979e-23
3.59936e-23
3.15224e-22
2.87374e-21
8.55666e-22
3.14911e-21
3.69423e-21
1.35503e-21
4.37599e-22
1.06303e-21
3.07041e-21
9.92562e-22
1.73963e-21
5.56628e-22
1.19077e-21
7.33595e-22
3.85198e-23
4.29484e-22
5.2238e-21
2.18589e-21
2.72926e-21
9.51746e-22
2.0707e-21
3.92631e-22
1.61032e-22
7.07806e-22
6.22345e-22
9.2494e-21
9.97237e-22
3.08861e-22
6.53276e-22
2.98929e-22
1.55209e-23
9.57479e-22
8.87625e-22
1.06437e-21
1.14349e-21
6.75669e-22
6.40957e-22
3.48258e-22
3.2279e-21
3.64893e-21
3.3244e-21
3.22755e-22
7.98403e-22
9.71765e-22
5.24899e-22
5.08598e-22
2.74516e-21
7.60911e-22
4.0143e-22
2.19431e-22
4.5976e-22
5.90765e-22
2.38737e-21
1.61635e-21
4.93086e-22
8.75014e-22
7.36958e-23
1.63438e-23
8.97028e-22
2.1331e-22
1.16375e-21
2.2549e-21
5.22361e-22
1.03954e-21
1.49129e-22
1.5918e-21
5.27261e-21
1.14951e-21
5.07277e-22
2.25441e-21
4.41827e-21
1.08015e-21
3.55525e-21
8.14271e-22
2.42852e-22
1.24803e-21
3.31288e-21
2.94905e-21
2.02512e-21
2.03754e-21
3.90751e-21
2.80003e-21
8.39186e-22
3.88616e-22
5.17412e-21
1.53977e-23
2.19449e-22
2.57612e-22
8.56882e-22
4.53502e-21
9.24151e-22
8.13837e-22
1.4859e-21
2.33179e-21
8.95254e-22
8.90071e-23
3.24861e-22
1.48767e-21
5.52394e-21
1.33671e-21
1.7386e-21
5.94307e-22
1.90341e-21
7.97126e-22
7.43297e-22
1.59324e-21
1.93355e-21
3.60275e-21
2.54073e-21
1.73119e-21
4.95009e-21
7.09872e-22
3.72116e-21
3.25845e-22
8.82301e-22
2.02397e-21
1.49163e-22
1.68415e-21
2.16687e-21
7.27412e-22
1.20706e-21
7.74331e-23
1.24282e-21
1.77427e-22
5.96032e-22
7.53865e-22
4.02284e-22
1.93017e-22
4.31156e-22
1.72528e-21
1.20848e-22
3.95469e-23
3.18848e-21
2.96874e-21
7.54716e-22
4.26942e-21
1.63809e-22
4.1436e-23
2.90554e-22
5.69865e-22
3.86826e-22
1.21972e-22
1.161e-21
4.00252e-22
7.0331e-21
1.14233e-21
1.83297e-21
5.25537e-21
2.95389e-21
1.79138e-22
6.82443e-22
1.24032e-21
1.6175e-21
2.73736e-21
7.49448e-22
4.11208e-22
5.50649e-22
6.71449e-22
3.43922e-22
2.80529e-21
1.20596e-21
3.09233e-21
4.1725e-22
1.14111e-22
5.52381e-21
1.06201e-21
7.13908e-23
2.3228e-21
1.5728e-21
1.10985e-21
5.42347e-21
8.81878e-22
5.53941e-22
1.4825e-22
3.39048e-21
1.17461e-21
1.13408e-21
1.41311e-21
3.37539e-22
1.84186e-21
4.87109e-22
2.3027e-21
9.04014e-24
2.05231e-21
9.96822e-22
1.91328e-21
1.38772e-22
1.23154e-21
1.85993e-21
5.47321e-22
1.44481e-21
1.61537e-21
5.14479e-22
7.85371e-21
7.24632e-22
1.40438e-21
1.91121e-21
6.55277e-22
1.37799e-22
2.70107e-22
5.39908e-22
2.75949e-21
1.65516e-21
8.30972e-22
3.6322e-22
9.72814e-22
3.70064e-21
1.52955e-21
1.32557e-21
3.69163e-22
6.27544e-22
8.46734e-22
3.56286e-22
5.48626e-21
2.10749e-21
3.49776e-21
1.37231e-21
9.00451e-22
2.45779e-21
1.84075e-21
2.25451e-21
2.72507e-21
8.14644e-25
5.93455e-22
1.96518e-21
8.68074e-22
1.39313e-21
1.03754e-21
1.07129e-21
1.06678e-21
2.05631e-21
3.3159e-21
9.05203e-23
2.95069e-21
2.19229e-21
2.38571e-22
2.25124e-21
7.46811e-22
2.16989e-21
1.57916e-22
3.96712e-22
5.38918e-21
3.06679e-21
4.51017e-22
5.63327e-21
1.33777e-22
1.28334e-21
9.55802e-22
1.00779e-20
1.19214e-21
1.96014e-21
5.91716e-22
4.60208e-21
2.26014e-21
1.00322e-21
5.25527e-22
1.43025e-21
6.83949e-22
4.75721e-21
2.54262e-21
9.64672e-22
1.33687e-21
2.53552e-21
1.62638e-21
4.61252e-22
1.96374e-21
2.85674e-22
4.62535e-21
4.39527e-21
1.46239e-22
3.50242e-22
3.98038e-21
3.63139e-21
6.50163e-22
1.30729e-22
1.87695e-22
2.45519e-21
6.6129e-22
1.86102e-21
1.3487e-21
2.50118e-22
8.93621e-22
1.14431e-21
1.48848e-21
4.11436e-22
6.12781e-22
1.34749e-21
7.41398e-22
4.68128e-21
1.31076e-21
3.38207e-22
1.07928e-21
1.77387e-21
7.29548e-22
9.01559e-22
1.40663e-21
8.85131e-22
2.23416e-21
2.27058e-21
6.56008e-22
7.9514e-22
1.71496e-21
3.50052e-22
7.16113e-22
2.13443e-21
9.18321e-22
2.2654e-21
7.44193e-22
2.36197e-21
2.16135e-21
3.15994e-21
8.81527e-22
1.02228e-21
2.17112e-21
2.33615e-21
3.97089e-21
2.92032e-22
3.10246e-22
8.74069e-22
3.71798e-22
1.65661e-21
2.02289e-21
1.92881e-21
6.48709e-23
6.57155e-21
2.37554e-21
4.47129e-22
5.70223e-22
1.80859e-22
4.41889e-21
2.30222e-21
4.55827e-21
9.20591e-22
2.07966e-21
5.30124e-22
3.95158e-22
5.9041e-23
4.13805e-21
1.98773e-21
2.19323e-21
2.52223e-22
8.40974e-23
8.79156e-21
1.65036e-21
9.24136e-23
2.53219e-21
1.4209e-21
7.59223e-22
3.8127e-22
1.52195e-21
1.50152e-22
1.10461e-21
3.14328e-21
2.63437e-21
1.39774e-21
3.36068e-21
4.08398e-22
2.15691e-21
3.74345e-22
1.31583e-21
1.81259e-21
3.8554e-24
2.16583e-21
5.36785e-22
4.04137e-21
3.10902e-22
1.63019e-21
1.5729e-21
4.34709e-21
1.43845e-21
2.48982e-22
5.25853e-23
1.15851e-22
2.0393e-21
2.42923e-21
2.38818e-21
1.89687e-23
8.42902e-22
1.92317e-21
3.21456e-23
6.19079e-22
3.72046e-21
2.54368e-21
1.56394e-22
1.45094e-21
1.97991e-21
2.21983e-21
4.59157e-21
1.45612e-21
4.74803e-22
4.53636e-22
7.77091e-23
1.49218e-21
5.36836e-23
2.63687e-22
2.49976e-21
1.71523e-21
5.38525e-22
1.09328e-21
1.212e-21
1.4518e-21
2.36265e-21
1.11277e-22
2.52586e-21
1.27068e-21
5.99115e-22
1.22438e-21
6.39237e-22
5.49496e-22
2.25739e-22
1.15331e-21
2.18808e-21
3.81873e-21
1.96441e-21
1.38464e-22
2.04479e-22
3.12291e-22
1.50826e-21
1.34706e-21
3.98788e-21
1.1997e-21
1.39953e-21
6.41571e-22
3.96516e-22
3.91629e-21
2.17035e-21
2.29171e-21
6.14828e-21
6.59916e-22
4.91372e-21
1.34675e-21
3.02004e-21
4.02528e-21
4.14233e-22
3.7917e-21
4.13839e-22
2.62365e-21
1.82924e-21
3.0341e-22
5.81734e-22
9.1188e-23
1.54253e-21
2.98184e-21
1.9554e-21
1.5898e-23
1.85342e-21
2.12667e-21
1.07814e-21
1.4521e-21
1.68075e-22
2.6448e-21
4.13111e-21
4.82795e-22
1.72632e-21
7.3383e-23
1.56653e-21
1.16398e-21
8.3877e-22
3.17615e-23
5.13231e-22
4.9379e-22
1.6261e-21
2.56141e-22
2.36593e-21
4.00887e-21
3.8447e-21
1.30122e-21
1.19514e-20
8.12996e-23
2.84306e-22
3.96141e-22
2.48291e-21
4.07221e-22
1.83372e-21
6.74349e-23
2.8536e-22
6.58589e-23
6.30244e-22
3.46791e-23
1.59542e-21
2.27756e-21
1.89253e-23
1.28391e-21
5.2955e-23
5.23291e-21
2.69138e-21
1.11471e-21
7.50532e-21
1.38506e-21
2.26074e-21
5.00204e-21
5.63279e-22
1.14017e-22
2.72423e-22
5.60607e-21
2.34234e-21
3.19429e-21
6.41256e-22
3.34788e-22
2.42925e-21
1.0366e-21
3.17507e-23
1.24638e-21
7.0656e-22
2.13629e-22
1.34366e-21
5.71081e-22
1.33482e-21
2.33436e-21
2.59364e-21
1.48707e-21
6.99576e-22
1.1552e-21
1.8048e-22
1.70768e-21
1.21055e-21
5.75753e-22
2.83372e-21
3.43939e-22
1.11113e-21
8.2903e-22
2.14924e-21
1.11676e-22
4.13398e-22
2.53981e-21
7.72206e-22
1.93154e-21
6.81874e-21
7.01181e-22
2.91462e-21
1.90454e-21
8.14284e-22
8.95687e-22
1.40005e-21
4.98998e-22
7.84587e-21
1.80552e-21
3.56667e-22
2.45292e-21
7.76882e-22
3.50691e-21
3.51742e-22
1.82512e-21
3.76352e-21
2.26827e-21
2.5192e-21
4.14856e-21
6.56133e-22
6.98201e-24
1.56572e-21
6.8823e-21
3.11714e-22
6.11999e-22
1.53906e-21
2.35074e-21
4.89887e-23
2.40467e-21
2.71782e-21
5.16042e-22
9.21141e-22
4.19793e-21
4.30161e-23
1.43124e-21
2.1367e-22
1.64737e-21
5.90348e-22
8.58302e-22
1.67843e-21
5.82401e-22
8.66252e-22
1.906e-21
9.61271e-22
5.42337e-22
6.18234e-22
7.72133e-24
5.46088e-22
2.88505e-21
1.75704e-21
3.36559e-22
6.14811e-22
4.46387e-21
2.47509e-21
3.61961e-21
1.93479e-22
3.32563e-21
2.52683e-22
1.22092e-21
1.41916e-21
3.7857e-22
3.95877e-21
6.8598e-22
3.91687e-22
7.01595e-23
4.81096e-22
2.78059e-21
9.21786e-22
2.10803e-21
3.6073e-21
7.71743e-22
1.58431e-21
2.16703e-21
3.95016e-21
4.12545e-22
2.59472e-21
1.84256e-22
2.66648e-22
4.44862e-22
3.72048e-22
4.76102e-21
3.84707e-21
7.95839e-22
1.78858e-22
3.05566e-21
5.47098e-21
1.20229e-21
2.65814e-22
3.12535e-21
5.1344e-21
1.37531e-21
2.8701e-21
4.0515e-22
1.82392e-21
2.71118e-21
1.95809e-21
1.08531e-21
1.10093e-21
3.42754e-22
4.25681e-22
2.46672e-22
1.11792e-20
7.33217e-21
2.6352e-21
2.55302e-21
1.16337e-22
8.53866e-22
1.765e-22
4.43235e-23
2.79929e-21
1.76429e-21
5.84986e-22
1.37189e-21
7.40596e-21
9.8163e-23
1.46228e-22
5.69067e-22
7.20017e-22
7.61867e-22
1.22724e-21
1.80787e-21
3.04495e-22
5.87297e-22
1.79187e-21
1.34897e-25
5.34591e-21
6.21865e-22
5.97405e-22
4.85864e-22
2.24137e-21
5.99911e-22
1.28794e-21
2.16661e-21
2.83641e-21
4.85451e-22
5.18482e-22
8.39928e-23
3.70134e-22
1.31697e-21
1.53978e-21
9.16578e-22
2.75782e-21
9.70321e-22
4.24889e-22
7.70542e-22
5.39053e-22
1.09261e-21
1.75334e-22
9.37799e-22
2.34553e-21
1.74185e-22
1.15233e-21
2.96103e-21
1.30529e-21
2.11206e-21
2.60684e-21
3.24406e-22
2.2331e-21
7.0156e-22
5.97763e-21
9.64414e-22
8.29377e-23
3.74143e-22
4.20797e-22
5.04123e-22
2.71556e-22
1.14053e-21
2.26492e-21
3.67407e-22
2.90172e-22
6.65915e-22
1.33629e-22
2.65792e-22
3.14217e-21
9.673e-22
7.16405e-21
2.41433e-21
3.63355e-22
7.47876e-23
3.09494e-21
1.25778e-21
2.9737e-21
2.56041e-21
2.18173e-21
5.25147e-21
1.08463e-21
3.87948e-21
2.23574e-21
2.22071e-21
4.17002e-22
1.11744e-21
2.36337e-21
5.67033e-22
1.03207e-21
1.09518e-21
1.91607e-21
9.67057e-22
6.9602e-24
1.79874e-22
2.10204e-22
9.42589e-24
1.426e-22
4.36996e-21
1.76635e-21
7.80313e-22
1.80654e-21
8.43606e-22
3.59528e-22
2.96303e-22
7.25207e-22
2.86958e-22
3.00287e-21
1.59863e-22
2.57358e-21
4.32303e-21
2.07793e-21
9.27508e-22
4.85436e-21
1.22255e-21
2.07485e-22
2.81472e-22
3.30236e-22
1.73259e-21
4.54876e-22
1.27331e-21
6.54007e-22
5.72066e-21
1.30494e-21
1.38538e-21
1.74829e-21
1.23603e-22
3.03712e-21
1.17904e-21
1.51892e-21
3.04117e-21
3.19767e-22
4.62936e-21
2.03079e-22
3.10372e-21
4.5954e-21
5.55683e-21
2.91021e-21
1.8324e-21
1.98055e-21
5.16477e-22
3.55379e-21
2.51335e-22
7.37451e-22
7.31093e-22
3.16958e-22
2.20143e-21
1.36264e-22
3.76876e-21
1.1135e-21
3.70631e-22
4.4067e-21
1.10054e-22
3.4033e-21
1.2666e-21
2.90156e-21
4.62326e-21
3.58184e-22
1.85118e-22
1.07816e-21
1.71226e-22
3.25077e-21
6.71678e-21
6.70744e-22
5.24956e-21
5.00127e-23
2.81818e-21
3.00852e-22
1.93694e-22
1.07733e-21
2.12355e-21
2.66848e-22
9.08656e-22
6.19049e-22
3.33106e-21
5.68475e-22
1.36649e-21
4.83537e-23
8.81364e-22
5.9514e-21
5.6156e-23
1.89301e-22
1.82991e-22
7.80449e-22
5.61788e-22
1.38935e-21
2.10686e-22
1.83055e-21
6.6914e-22
4.71625e-22
2.04033e-22
3.95762e-22
1.97524e-21
4.17013e-21
1.74006e-22
1.468e-21
3.50134e-22
5.60052e-21
3.35291e-21
4.90068e-22
7.30552e-22
1.64837e-21
6.37282e-22
1.23661e-22
3.8034e-22
1.44186e-21
4.21676e-22
6.61314e-22
2.21439e-21
3.05562e-21
3.71565e-23
4.25971e-22
4.74931e-22
3.86048e-22
1.26599e-21
4.81093e-22
2.91275e-21
2.25919e-22
1.17221e-21
1.55453e-21
3.79642e-22
4.10499e-22
6.51957e-21
3.78923e-21
3.77615e-22
1.21136e-21
4.77171e-21
3.37643e-21
2.44197e-21
6.95586e-22
6.70899e-22
2.4878e-21
2.479e-21
3.44245e-21
3.14709e-21
1.2519e-21
9.40248e-22
5.04202e-22
7.12628e-22
2.08876e-21
1.44964e-21
3.79191e-23
8.38596e-22
2.73942e-21
1.67129e-21
1.16269e-21
1.91679e-23
5.59406e-22
3.01278e-22
1.29354e-21
4.50822e-21
2.17743e-21
5.30722e-21
6.20603e-21
1.45564e-22
6.49999e-22
5.20433e-22
1.41963e-22
1.30569e-21
6.75229e-23
2.25843e-21
5.1125e-22
8.10645e-21
2.71332e-21
1.81535e-23
1.05038e-21
1.84098e-21
8.42555e-22
5.68318e-22
8.76912e-23
1.9704e-21
1.89603e-22
3.28044e-21
3.50315e-22
1.86788e-21
9.91561e-22
4.0988e-21
1.698e-21
9.30027e-22
6.88284e-22
8.26074e-22
2.01082e-21
2.07348e-21
7.22177e-23
2.04485e-21
3.38034e-21
3.06799e-21
3.29206e-22
8.28377e-22
2.48841e-22
3.28356e-22
1.85386e-22
7.06576e-22
2.57308e-21
4.83561e-22
5.77269e-21
1.04896e-22
5.74864e-22
1.08907e-21
8.71892e-22
2.00346e-21
3.92516e-21
4.70014e-21
2.67263e-21
7.09259e-22
2.63834e-22
2.58114e-21
6.54879e-22
6.76425e-22
3.75583e-21
2.17381e-21
6.50481e-22
7.93387e-22
3.46122e-23
1.50785e-21
3.45705e-21
2.22601e-21
2.13353e-21
1.56439e-21
6.48968e-22
3.33874e-21
1.59207e-21
2.13886e-22
1.69233e-21
9.55503e-22
3.85108e-22
7.22754e-22
2.58278e-22
1.20372e-21
7.00703e-22
2.25613e-21
1.44445e-21
8.92552e-22
2.54852e-22
6.13345e-21
1.42847e-21
1.89565e-21
4.79121e-22
8.27057e-21
8.30884e-22
1.58579e-21
4.17934e-21
9.20813e-21
1.12504e-21
2.05202e-21
7.12261e-23
1.81651e-21
3.02375e-21
3.44263e-22
1.95673e-22
1.04374e-21
4.10062e-21
6.03625e-22
7.71451e-23
2.0035e-21
6.21416e-22
1.52353e-21
9.59548e-22
2.69613e-21
6.2183e-23
1.43942e-21
3.85941e-22
1.78072e-21
1.60534e-23
1.4375e-21
8.74594e-23
9.15345e-22
2.26942e-21
4.67376e-22
2.27292e-21
4.71382e-22
2.02124e-21
2.9701e-22
3.34153e-21
1.05665e-21
2.51377e-21
2.97862e-21
1.03075e-21
3.1438e-22
1.02622e-21
2.08963e-22
1.08155e-21
4.14312e-22
3.79938e-21
1.03695e-21
2.82397e-23
2.90887e-21
1.17616e-21
1.24385e-21
1.42331e-21
5.35472e-22
2.78975e-21
1.56118e-21
6.07255e-21
7.88323e-24
1.00775e-21
1.75801e-21
3.14128e-21
5.23322e-22
2.28958e-21
1.39375e-21
2.58854e-21
4.25048e-22
1.60434e-21
3.66544e-23
1.54002e-21
1.99711e-21
3.36269e-21
2.71562e-22
1.37446e-21
1.06013e-21
2.78092e-22
2.47838e-21
1.43363e-21
5.56882e-22
7.7897e-22
8.58441e-22
3.87457e-22
2.48577e-21
1.71569e-21
1.87424e-21
4.42023e-21
1.0823e-21
3.10469e-22
2.76813e-21
3.29992e-21
3.76608e-21
9.70816e-22
4.40774e-22
1.07009e-21
3.88684e-22
2.75742e-23
4.49049e-21
1.02613e-22
7.65471e-23
2.20066e-21
6.87641e-22
1.45474e-23
5.27517e-22
6.93239e-22
1.09919e-21
1.22439e-20
3.15502e-22
8.35542e-22
9.35829e-22
5.77236e-22
4.12414e-22
1.8509e-21
3.1227e-21
1.4353e-21
2.98189e-21
4.4658e-23
2.31899e-22
3.23224e-22
1.15265e-21
4.11533e-21
1.25453e-22
1.73155e-21
1.0243e-21
8.26056e-22
3.82886e-24
4.55885e-21
1.26184e-21
7.5828e-22
4.68861e-24
1.83556e-21
3.05409e-22
1.09842e-21
2.56394e-22
6.99084e-21
2.31874e-21
4.1884e-21
2.04306e-21
6.69371e-22
6.2785e-22
9.08597e-23
2.53487e-21
8.31138e-22
6.88306e-23
5.14817e-21
1.49265e-21
3.52168e-23
4.98961e-22
2.88961e-22
1.24637e-21
2.56751e-21
1.4322e-21
3.20404e-21
1.79166e-21
5.60642e-22
4.54996e-22
7.44949e-22
1.11526e-21
5.97363e-22
1.55399e-21
1.76977e-21
1.55089e-22
1.16911e-22
2.14309e-21
3.56685e-21
1.70392e-21
1.42855e-21
1.18358e-22
2.065e-23
2.56462e-21
7.5762e-22
4.02854e-22
6.98815e-22
2.45857e-22
3.27708e-24
2.55004e-21
2.24953e-21
1.44072e-21
1.56076e-21
4.07738e-21
1.88534e-22
1.07944e-21
3.2181e-21
2.13231e-21
2.06973e-21
9.09879e-22
4.19093e-22
2.52078e-21
8.05157e-22
1.86865e-21
2.12557e-21
9.21378e-22
2.61392e-21
2.97564e-21
1.01803e-21
1.44495e-21
4.22655e-21
4.15287e-21
1.30378e-21
6.65163e-21
4.95351e-22
1.252e-22
3.17362e-21
1.16705e-21
6.53159e-23
9.71881e-23
2.68992e-21
3.66572e-22
3.30323e-21
2.89817e-22
8.91783e-22
1.33501e-22
9.55031e-23
6.41052e-21
5.46259e-22
6.80877e-22
1.84124e-21
2.95243e-21
3.0493e-21
9.90742e-23
2.71168e-21
1.50843e-21
7.12074e-21
2.64375e-21
5.34561e-23
2.65629e-21
8.73583e-22
3.95308e-21
1.79915e-21
5.54246e-24
1.44413e-21
4.94217e-22
2.24785e-21
2.8868e-21
4.10747e-21
1.47015e-21
2.22727e-21
2.74185e-22
3.44317e-22
1.52772e-21
1.91337e-22
8.06516e-22
3.6837e-21
4.09663e-21
3.30044e-22
8.82545e-22
2.10624e-22
1.71455e-21
5.85727e-22
5.84406e-21
5.97154e-22
2.2305e-21
5.45668e-21
8.70125e-23
1.8302e-23
2.51443e-22
6.1341e-22
2.33258e-21
6.15584e-22
1.55077e-21
2.65529e-21
6.59224e-22
5.17255e-21
8.14218e-22
7.11069e-22
1.18144e-21
2.19719e-21
1.53321e-21
7.65168e-22
1.72063e-21
2.51897e-21
1.3834e-21
5.98677e-22
1.54253e-21
7.7835e-22
1.6651e-22
8.15266e-22
1.88593e-21
2.90226e-21
1.11681e-21
2.3114e-22
2.4965e-22
7.13797e-24
4.19836e-22
9.7149e-22
2.74545e-22
1.877e-21
2.72361e-21
5.52043e-21
1.96865e-21
1.15767e-21
5.64636e-22
3.73869e-22
3.18967e-23
1.457e-23
1.11184e-22
1.08167e-21
1.90816e-22
2.57797e-21
1.95984e-21
2.04452e-21
6.44479e-21
4.69326e-22
1.31646e-23
1.17772e-21
1.31607e-22
1.2139e-21
2.31219e-21
2.69831e-21
9.25092e-22
6.73933e-22
5.34319e-21
3.13647e-21
2.7536e-21
1.44043e-21
3.12033e-21
1.61851e-21
8.74451e-21
1.73997e-21
4.75223e-22
2.49898e-21
2.0269e-21
6.63635e-21
6.19433e-22
2.77395e-21
3.25673e-21
3.41502e-21
2.91088e-21
1.20195e-22
5.78023e-22
2.08691e-21
3.14535e-21
2.2582e-22
5.76188e-22
3.49126e-21
4.9232e-22
6.87789e-22
1.52914e-21
2.68413e-21
3.38395e-21
6.93258e-22
2.33886e-21
1.01402e-21
1.12191e-21
1.80543e-21
1.21446e-21
5.45399e-21
8.1553e-22
1.80228e-21
2.14754e-21
2.02446e-21
2.15721e-21
1.93051e-21
1.45372e-21
2.11166e-22
1.1735e-21
1.14988e-22
6.72852e-22
1.3294e-21
4.5995e-22
4.25372e-21
1.89156e-21
3.5833e-22
2.39384e-21
1.44898e-22
2.05843e-22
1.51222e-21
1.7886e-21
3.47435e-22
1.37924e-21
3.06201e-21
1.83221e-21
3.26459e-21
4.9379e-22
1.282e-22
5.16215e-22
1.05999e-21
1.29868e-21
6.90005e-23
4.76286e-22
5.71543e-21
1.32761e-21
3.37091e-22
3.67477e-22
1.08971e-21
4.38019e-21
7.18233e-22
2.82352e-21
4.86792e-21
3.10085e-21
2.44019e-21
8.48859e-22
2.10051e-23
4.12381e-22
7.12603e-22
2.50008e-22
2.47971e-21
2.4438e-21
1.45462e-21
9.40981e-22
2.41106e-21
1.1901e-21
2.02876e-21
1.78983e-21
3.47261e-22
5.76374e-22
1.46612e-21
5.25919e-21
1.81691e-21
4.76051e-21
1.3036e-21
3.07834e-21
3.62495e-22
4.4134e-22
7.41769e-22
8.72943e-22
3.51589e-21
1.29876e-21
1.40989e-21
8.28381e-23
1.26904e-21
1.5439e-21
6.2102e-22
1.06109e-21
1.32367e-21
1.1123e-21
5.29539e-22
3.55943e-22
1.14117e-21
4.30027e-21
1.99817e-21
3.51629e-22
1.38127e-22
2.00242e-21
2.45837e-22
1.05286e-21
6.58681e-22
8.30697e-23
1.63188e-22
3.65879e-21
1.15713e-22
1.38554e-22
6.83904e-22
4.81739e-22
8.46759e-22
1.17373e-21
6.50308e-22
1.84356e-21
2.44615e-23
4.09858e-22
2.19694e-21
4.18773e-22
2.17428e-21
2.3784e-21
8.45621e-22
1.24368e-21
1.00009e-21
2.70404e-21
2.48639e-21
3.70139e-21
3.02611e-21
1.21863e-21
4.09487e-22
2.62367e-21
4.81676e-22
1.495e-21
1.2882e-21
6.20268e-22
1.84219e-22
4.27999e-21
8.01367e-22
3.62997e-23
2.84209e-21
5.02624e-23
7.55426e-22
3.69155e-21
7.8279e-22
6.43681e-22
9.90789e-23
1.64673e-21
1.2382e-21
3.02643e-21
1.04226e-21
4.38719e-22
2.6242e-21
4.25124e-21
1.29512e-21
2.84092e-21
1.6657e-21
2.12795e-21
1.20904e-21
1.4107e-21
1.20357e-21
7.14511e-21
1.95779e-22
4.93227e-23
3.13909e-21
5.67414e-22
7.13624e-22
1.56439e-21
7.61636e-22
2.05164e-22
1.29991e-21
2.16415e-21
4.30104e-21
2.97411e-22
1.93642e-21
5.24216e-23
4.56161e-25
1.3804e-21
1.07701e-21
3.40288e-21
3.13829e-22
6.35426e-22
3.00677e-21
1.73319e-21
1.02304e-20
2.63199e-21
1.86066e-21
1.29597e-21
8.19366e-22
3.57645e-22
2.35825e-21
4.41688e-22
1.15913e-21
1.79458e-21
1.15076e-21
1.02553e-21
9.9108e-22
3.2352e-22
9.90015e-22
2.64494e-21
2.11678e-21
2.32969e-21
1.12381e-21
1.76047e-21
2.29438e-21
5.41446e-22
1.45124e-21
1.03132e-20
2.453e-22
2.92015e-21
2.44285e-22
2.13286e-21
1.15835e-21
1.37687e-21
1.33986e-21
2.09745e-22
4.28191e-21
4.2073e-22
3.27456e-21
8.93173e-22
1.88778e-21
2.61527e-21
1.53958e-21
1.72325e-21
8.32209e-21
4.53395e-21
1.35571e-21
1.13831e-21
4.1038e-21
1.69453e-21
8.59979e-22
7.04222e-22
1.06066e-21
2.77698e-21
3.51322e-22
2.2597e-22
4.16571e-21
7.97249e-22
2.74057e-22
9.23875e-22
1.34966e-21
1.19477e-21
7.71643e-22
3.90616e-21
2.62274e-22
7.54551e-22
2.04531e-21
1.86632e-21
3.82199e-22
6.09593e-22
2.84962e-21
4.8023e-22
3.24152e-21
2.94545e-22
3.23318e-21
2.69695e-21
1.54036e-21
1.41978e-21
3.56933e-21
2.27186e-21
2.11566e-21
8.93327e-22
1.58694e-21
2.96054e-22
3.1688e-23
6.3425e-22
2.32706e-21
2.19309e-21
2.56737e-22
5.98153e-22
2.27558e-22
3.27527e-21
3.19803e-22
1.91191e-21
3.25894e-21
3.61253e-23
2.33997e-21
2.8471e-22
1.6055e-21
2.5364e-21
2.57874e-23
5.64834e-22
3.23977e-21
8.99607e-22
6.3157e-22
6.67664e-22
1.70556e-21
2.91828e-21
2.27719e-21
1.91702e-21
2.90274e-22
5.83345e-22
5.18836e-21
1.46546e-22
2.50138e-22
9.5531e-22
1.6055e-21
2.6192e-21
1.53534e-22
1.85177e-21
2.68995e-22
8.63361e-23
1.96244e-22
2.68269e-21
1.33316e-21
1.08321e-21
3.85883e-22
5.30346e-21
1.27996e-21
1.92294e-22
2.19688e-21
1.02208e-21
2.73885e-21
2.55207e-21
6.42665e-21
9.83613e-22
5.08977e-21
7.2312e-22
2.57741e-21
1.76138e-21
1.8559e-21
6.85418e-21
2.00564e-22
3.94494e-21
3.23173e-22
1.17339e-22
3.26754e-21
5.67037e-22
2.99443e-21