/*--------------------------------*- C++ -*----------------------------------*\
  =========                 |
  \\      /  F ield         | OpenFOAM: The Open Source CFD Toolbox
   \\    /   O peration     | Website:  https://openfoam.org
    \\  /    A nd           | Version:  7
     \\/     M anipulation  |
\*---------------------------------------------------------------------------*/
FoamFile
{
    version     2.0;
    format      ascii;
    class       labelField;
    location    "0.0075/lagrangian/dsmc";
    object      origId;
}
// * * * * * * * * * * * * * * * * * * * * * * * * * * * * * * * * * * * * * //


228869
(
916532
888642
889628
885677
828047
848957
865674
873477
895303
767391
844878
879029
828449
860910
777842
780894
808940
878325
670322
777349
790302
813601
825193
832698
834851
859907
875368
882224
881342
661145
674147
740329
740661
742046
771725
782318
786860
788208
798698
823925
829273
863472
716186
749242
757129
757899
776293
796217
805530
809676
813566
816705
825033
836139
836774
838851
854527
861561
876330
876896
893394
834365
623981
701346
710721
717691
724543
733735
778923
792642
797494
815758
822093
827657
828084
828485
856125
860543
876712
885101
908747
846861
850689
631633
664280
680644
720131
757027
768846
777746
785090
795039
795581
801132
805722
810635
815328
815424
819551
819914
821701
823105
825914
828108
829143
840877
847202
868807
900072
863188
770868
795669
589112
592208
627830
632400
649970
669733
686773
692027
692173
695237
701601
719682
742946
747059
749493
749946
756956
764426
769650
773944
774283
775034
777497
798510
798692
803158
807869
811133
815516
820192
822042
849675
850422
830624
721340
809105
816321
545653
561738
585601
630157
631013
665139
677670
683407
692165
696750
703609
708657
724442
729753
729859
732633
735719
736607
737812
738021
740406
742558
754998
759958
763393
768446
777898
778088
786082
790163
793667
794762
799374
809030
809316
828574
833725
843665
847330
865111
877551
780542
874036
770313
848248
781254
868499
513584
582271
611337
615548
649586
649719
657228
661590
663138
680425
684174
694012
700076
703793
704979
717853
719413
725524
729204
729394
729998
731550
731821
735708
739344
743998
745245
747158
749263
752463
753236
761786
767331
775022
782836
785456
790823
795008
798290
800002
800745
801337
804573
805735
808194
811155
820878
825850
836944
875205
884469
800106
667526
880563
849344
463283
581178
581189
615286
618840
646721
670216
670232
687825
694225
696455
699540
701456
709787
711329
719546
725872
727513
729598
731947
740052
741916
744678
744960
746026
747275
750251
756002
758174
760371
765141
768611
769582
774757
776987
778110
781108
787442
805178
809412
811292
817065
826616
832448
831101
779588
870147
751647
812845
826383
649474
838105
706548
577476
577493
598410
605512
620252
634868
637740
643092
644164
644198
648884
650878
657451
665003
669929
672846
673948
675042
675103
675732
676570
680091
682720
685279
685473
689724
691259
692315
694483
695799
698366
702406
702881
703634
707553
709418
709731
715053
716040
716848
716912
719717
719810
723371
725609
725636
726121
727479
729231
731680
732146
734982
742417
744437
745902
746510
746732
748261
752689
754493
757546
759092
760992
761587
764044
769080
775762
776303
777136
782931
784885
791988
793036
793834
799738
800326
804796
806529
809639
813551
820886
825070
839436
840981
842898
856875
869910
874464
876955
882570
900069
888267
831822
851266
746873
857543
748833
790381
811460
691643
764601
507421
573491
604565
617003
618697
619528
622201
624924
627940
628120
632824
639798
642991
643939
649595
650625
651958
653357
653422
657582
659960
660218
665435
667749
667751
668732
670334
670789
672057
673772
675131
677555
680102
680854
681681
682882
683683
684222
684262
684499
694531
696103
696445
698096
698966
701613
704561
706330
707703
711372
712066
715074
720467
725220
725237
729451
730787
734574
737679
741172
743587
743689
743781
744275
745455
745964
747024
748029
750576
756644
757212
760152
761135
772043
774240
776916
779302
780581
784070
784120
784146
787430
791328
794527
802374
802437
808984
811081
812138
815464
815485
816530
831629
831994
835556
837877
842833
853992
864510
686911
806929
808414
868808
770538
720409
534890
548042
551839
568219
573023
593116
595473
597545
600175
604256
604953
606325
609913
611746
616739
618596
621919
622812
623771
624319
629802
630069
630272
631772
637882
638318
642076
645189
645847
646004
646741
649714
655805
657288
659973
661313
662058
662233
664257
669131
669208
669446
669681
670226
671977
672088
672243
677001
678391
679235
680716
682553
685612
685637
686609
689842
690543
693328
697031
704240
708584
709233
710366
710575
711193
715245
715625
716310
717311
721584
721795
722630
724576
725580
726441
728098
728999
729380
730551
731600
732178
732560
734839
736895
738181
742015
742242
743044
747292
749522
750016
750978
755137
755176
756648
760736
765462
768097
769133
771443
773533
780895
783252
783407
784039
785106
788890
789768
796065
800844
803137
803497
807850
809830
810743
811446
811720
812830
812976
816647
818847
820997
821720
823483
824152
824918
829242
831128
832758
833957
834321
837234
841175
844792
846045
854589
862352
863821
878918
879163
343725
821995
871892
534195
761647
659209
848377
695058
817860
712153
531294
552099
560121
563606
568808
572093
577378
580389
586039
588835
592358
594275
598747
605517
605547
608011
611279
611681
616031
616311
617374
619401
619701
620414
620790
621724
622396
623760
626817
631620
634482
635740
636042
637074
640089
640092
642363
643963
645590
648695
649733
649810
652084
656006
657916
659137
659846
663580
665070
665507
665749
666048
668322
669070
670200
671130
678545
682136
683792
686071
686770
687923
689446
696023
699010
700583
701134
701325
705967
712494
714107
714228
714695
715111
715152
718097
718537
721928
722802
724192
726109
726386
726402
727013
727725
727824
729404
729552
730255
730552
731404
732357
734876
738128
738754
739960
740326
741325
742187
742285
742496
745897
746239
747215
747945
749197
749708
750555
751448
752898
753313
754030
761669
761687
762683
763852
764080
764742
767709
767871
767916
768357
768399
768810
769037
770991
772490
772806
772848
773774
774774
778673
780387
784493
785812
786332
788068
789818
792342
792634
793146
793563
797648
797745
800873
801707
803646
805386
809473
810777
816400
822168
826842
831237
836752
838575
842008
844138
845373
855159
855623
859822
876695
440125
780804
719423
734005
785432
753458
671852
726573
772364
618015
716452
721115
725466
834777
863663
478297
485510
486264
560395
565844
567619
570311
574099
579439
582773
588520
590729
591324
591495
592483
593924
600516
600554
603813
604425
605090
608496
609410
613155
616886
619299
619745
620043
621615
626783
630167
635376
637099
639968
640242
641532
641976
642117
643211
644143
644759
645927
647375
647514
650954
652056
652190
653180
654101
654529
655301
656251
657864
662515
662657
663411
663775
663995
665218
665365
665380
667664
667689
669927
670263
670698
671007
673654
674350
676045
676259
681259
682716
686570
688682
690775
691139
691229
692580
693953
695870
697625
701969
703535
709420
710751
714119
714724
716152
716946
721108
722894
722897
727724
729325
729986
730031
731597
732849
733822
734397
735987
736024
736137
736644
738258
739765
740573
741284
742518
744692
744955
747336
749900
750161
750416
752104
752997
753033
753219
753712
756425
757871
759222
759251
759910
762224
764618
765875
768207
769359
772915
773041
773091
773834
774033
775381
775478
775495
775831
775860
777911
778219
781903
787149
788185
788393
797837
801563
807196
810201
811170
816049
816950
822804
823475
824023
824659
825858
828380
830848
841402
849636
853066
868507
871859
876748
876775
887817
891813
856748
647497
706336
734550
828111
747695
738952
662004
787498
789882
769354
603561
738011
569699
681581
744936
784538
458673
461506
476442
505482
511828
512688
524137
534981
542736
544099
544159
546208
555820
556001
560125
565434
568933
571336
578144
578894
581941
588495
589119
591523
592113
595930
596272
597460
606382
608607
609290
609368
611698
615055
615983
616752
618439
626217
627854
628139
630414
630557
632345
632654
632761
633234
634091
634735
637417
640430
640665
640870
641056
645395
645611
646137
646253
647416
649433
649440
651688
651816
651926
653468
654608
654634
655625
656819
657157
657276
659495
659797
661240
664300
664435
664773
668670
668931
668955
670364
670791
671687
673157
675051
681152
681232
683278
685012
685674
686261
686996
687631
689627
691192
691234
692681
693520
695292
695561
697070
698579
698746
699404
699562
700051
701255
701461
702046
705320
705997
706601
707725
711278
711884
715803
716095
717469
718630
721035
721977
722842
722895
725604
726528
727912
729106
729117
730785
731263
735121
735222
735555
736285
736447
738929
739751
739836
740808
741872
742693
743209
743677
745394
747889
748723
750855
751831
753299
757647
759919
761085
765750
768538
769623
769907
769940
770554
770940
773906
774024
776075
779174
779742
779896
782241
782926
790763
791435
791828
792570
794700
795920
798545
799367
800693
802227
802608
804146
806053
806464
807466
810790
811595
813556
817182
819780
820180
825409
827385
832787
839534
844014
856995
860794
872511
740606
744777
720216
739390
482948
734857
749331
665631
719399
772578
880119
658340
683085
839703
697808
703240
776090
780793
633608
668747
688994
710790
726068
739164
750118
762739
450654
455874
485986
486092
487219
498404
510101
515513
516859
517384
517857
531246
534382
535331
541863
542395
543100
547508
552507
553176
553536
553611
558326
561495
561580
565773
566714
567160
567807
573156
574049
576933
579227
579296
580664
581269
584385
584820
585185
585947
589415
592271
593009
593578
595916
596051
598589
599255
601010
601499
603209
603273
603582
604104
605496
608420
608482
609870
611139
611312
613563
615482
615538
615640
616432
616497
618061
619593
621275
621544
622222
624354
628896
628900
629860
630933
631315
631515
632420
632813
633705
636890
638698
642043
642285
644355
645773
645866
651739
653381
654005
655256
656933
658525
658910
659090
659829
661496
661568
662093
662416
662577
662736
663156
664696
666490
667256
669557
671859
672167
672537
672955
674949
675089
676865
678006
679994
680221
680546
682337
682704
683008
683644
683851
683905
684341
684862
684959
685785
686195
687090
689410
690925
692761
693779
694547
696769
697754
699141
699566
699606
700281
705218
705413
705807
706200
706384
707083
707365
708204
708716
709449
709487
709851
710720
711387
712306
713115
714025
714328
715446
716234
716666
718272
718609
720201
720428
720461
720629
721096
722604
722697
722892
725390
726189
726484
726970
727630
728040
728710
731268
733518
734713
735269
735942
736229
736753
737711
738961
740253
740635
741866
744165
744887
748033
749475
751298
751352
757641
760951
761763
765270
765837
766026
771341
771846
773097
774743
776568
777103
779121
779802
780322
781532
781695
783327
784666
785039
787898
788288
789913
794709
798764
800029
806133
813310
814101
815270
822745
824691
825396
825962
828578
834726
845276
849778
861444
886364
897814
697073
813604
708246
735389
716836
550049
671290
810335
667152
742731
479296
746251
763782
820888
824722
872202
843389
687089
802375
633369
670208
614735
797382
571789
675521
742718
774263
828798
544891
578452
634917
703997
757445
766316
459049
465249
484339
491504
492126
498459
499005
500031
500425
503806
504359
508386
509137
509824
509832
520080
531628
534864
537968
543666
543740
544472
547400
552334
554036
557672
558344
558671
559160
560682
560812
562141
562142
564803
565234
566520
567400
569838
570533
572396
572469
572790
574805
577389
578121
578889
581487
581566
582154
582447
583923
586640
587022
589418
591153
591220
592511
592954
593592
595009
595072
595600
596324
597697
599469
601643
601732
601985
602714
605590
606746
606777
607378
608050
613895
614001
615360
617131
618896
619127
619802
621902
623190
623640
624073
624349
625555
625626
625731
626236
626341
628447
629173
630467
631329
631562
631607
631670
632436
632651
633038
637134
637527
637549
637763
637865
638305
638462
639439
639783
640185
640319
642687
642694
643026
643887
644647
644716
644798
645710
646624
647226
647572
647887
648405
649206
650496
650623
650819
651012
651383
651951
652485
652505
652524
652622
652935
653874
654639
655415
655483
657144
657675
657761
659494
661988
662187
662839
664624
666266
666672
667781
668697
669297
669554
671956
673458
673465
673608
674807
674831
675356
676407
676485
678984
679289
679679
679800
680382
680622
680922
680983
681831
683191
684529
684764
684996
687604
688366
688720
688944
689134
690006
691146
691616
692020
692546
693120
693530
693538
694194
694941
695201
695621
696013
696671
697309
697961
698242
698393
698443
698521
701427
702386
702771
702884
703637
705165
705441
706930
707702
708900
709200
710173
710382
710464
710534
710957
711334
711664
712781
712847
713546
713982
714453
715471
716595
717675
718168
719356
721257
721277
723478
723956
724184
724993
725445
727258
727961
728762
728825
729505
730484
730734
730933
731282
731301
731438
732342
732522
733364
734099
734242
735507
735576
736208
736933
737311
737918
738845
739874
740206
740304
741179
741592
741810
742996
743023
745041
746543
747545
749265
749851
750414
751982
752491
753544
753840
754067
754715
756271
757996
759854
760849
762227
765671
766447
766873
767869
767973
768923
771032
772097
773016
774087
774732
776006
776786
779024
780193
780990
784276
784346
785545
787967
790069
792686
792922
793144
794256
797589
797930
801153
802406
804712
804817
805614
806155
807168
807576
808871
809430
813497
815926
816810
824648
826624
827676
839851
845610
853356
856945
866387
872118
895257
439716
398735
440160
905270
738584
791834
683591
728770
826669
716510
803645
753214
870252
668978
783930
755115
712035
690664
694049
584675
661593
774457
793532
803510
891968
543680
647521
658636
686649
705585
712627
714344
457370
458901
464108
466962
475571
485165
491688
494842
498179
501468
501837
504082
505815
509794
513840
519085
521863
522259
523196
525879
527586
529013
530683
535266
536453
536791
537537
539459
541251
542912
546326
547898
551800
556339
556782
560660
560921
563012
564983
565763
567074
569407
570245
570277
572917
574831
575602
577221
578814
580778
581953
581985
583311
584710
585426
586812
587649
587690
587918
590815
591833
592516
592819
593269
594505
595576
595657
596142
596508
597294
598793
599013
601334
601448
602201
602600
602601
603079
603329
604094
605004
605078
605206
605226
605347
606247
606576
607617
608908
609244
609573
610220
611423
611494
612448
612891
613196
615458
615490
616275
616865
617523
618076
618323
618770
619691
620996
621952
622259
622383
622735
623470
623968
624626
625196
625216
625554
627758
628732
628847
629172
630250
631320
632379
633260
634291
634621
634769
634854
635244
635539
636334
637023
637192
637504
637637
638418
640073
642038
642539
643018
643344
643904
644002
644009
644666
645154
647036
647699
648245
649450
649622
649681
650182
650970
651605
651975
653046
653900
654458
655460
655639
655813
656213
656645
657627
658625
659566
660414
662651
663112
663153
663330
663501
665345
666910
666925
668921
669845
669859
670109
670394
670588
671867
672331
673021
673278
673440
673770
674372
675858
677075
677943
678188
678853
679320
679561
679845
680143
680259
680777
681129
681294
681653
682019
682088
682849
684074
684233
685343
686431
687342
688221
688280
688293
688785
689148
689367
690400
690531
691375
691961
693068
693404
693407
693572
693622
694706
694840
695394
695453
697098
697305
697365
697960
700201
700479
701244
701381
703457
706786
707455
707973
708147
708984
708991
709480
710023
710485
711203
711944
712109
712252
712483
712690
712958
715787
715999
716835
718109
718687
719982
721319
721750
724139
724343
724678
724762
725089
725547
725791
725908
725971
728408
729438
731242
731319
731791
731901
732129
732365
734385
735627
737222
737290
738038
738549
739309
739872
740706
743392
744814
745109
745389
746120
748189
749432
749957
749971
750175
751371
754842
757017
757785
758448
759276
759770
759948
760757
763487
763828
765417
768197
769496
770009
771288
772606
773675
774555
774798
774862
777584
778659
778754
779518
780815
781037
781114
784906
785137
785479
786363
788150
789016
789470
789705
792652
793313
793317
803000
803015
805495
808895
816473
818246
819942
821468
822850
825651
833052
841631
849878
850254
860727
866941
874191
438364
462987
496074
386771
839826
732718
626885
629225
718136
825844
674844
558486
664213
781403
819250
745954
770526
715238
739479
720187
806678
654722
686507
754788
810166
593465
632947
703083
724384
761683
792443
331651
772738
632822
454689
465932
476255
477028
486833
488603
488768
492003
493337
494050
495494
497002
498277
499960
500782
503903
505163
511480
512079
519025
520752
521842
523659
524143
524373
526190
527489
528183
534039
534555
536068
536410
536938
537597
538117
539120
539454
540288
540824
542408
544263
547893
548687
548726
548728
548737
550577
551352
551643
552913
552921
555246
557109
557621
557886
559599
560180
561176
562059
562371
562552
562881
563186
563499
564550
569147
569961
570300
570984
571247
571404
571529
571656
572105
573685
574254
574490
575008
575041
575905
576290
577268
578104
578295
578326
579168
580250
581681
582427
582831
582972
583180
584402
587265
588235
589632
589958
590766
590856
591565
592525
592764
593172
593279
593501
594004
594643
594706
596190
596280
596317
597307
597961
600893
601190
601474
602116
602357
604071
604355
604413
604590
604632
604841
605350
605978
606144
606843
607655
608493
608902
609109
611986
612296
612421
612507
612835
614687
615444
617164
617870
618289
619348
620332
621193
621427
621495
621695
621772
622173
623293
624297
624439
624482
624503
624517
625394
626762
627892
629279
629280
629305
629363
629473
629501
629621
630332
630748
630826
630944
631268
631284
633065
633178
634750
634940
635251
636364
636605
636785
636999
637464
637716
637877
638879
639315
639418
640031
640566
641657
642381
642822
644138
644701
644751
645433
645651
645845
646570
646633
646695
647792
647950
648875
649045
649823
649889
649929
650368
650497
651706
652308
652677
652776
653004
653816
654312
654378
655459
655803
656005
656632
656925
657009
657056
657589
657977
658237
658312
658875
659043
659194
659384
659429
660649
660661
663317
663681
664341
665159
665500
665622
665629
666073
666606
666811
667054
667480
668909
668911
670065
670994
671288
671697
672791
672828
672882
673041
673149
673617
674225
674278
675454
676153
676154
677172
679045
679503
680668
681870
682663
682964
683360
683539
683719
684892
686407
686895
687664
690149
690478
691405
692247
692422
692491
692528
693969
694744
694860
696342
697219
697275
698683
699046
699425
700944
701182
701260
701673
702301
704423
706196
706888
707106
707490
707793
709255
710081
711271
711611
712833
712973
713555
714163
714769
714937
715801
716269
716640
716787
717136
718564
719552
719830
719979
720469
721215
721936
722545
722867
723854
724195
724671
724690
725434
726351
728064
729196
729542
730199
731049
731692
731908
733100
733129
734965
736486
737433
737514
738980
739284
739875
741169
741609
742292
742508
742536
743266
743802
745018
745034
746065
746371
746375
746966
747289
747792
748592
748736
749889
749967
751303
753074
753719
754309
754855
754994
755220
755271
756868
760842
760872
760913
761604
763019
765066
766550
769490
770681
771793
774291
774584
775121
775128
775462
776766
776969
777134
778030
778303
778742
779741
781916
782088
782550
790159
790716
791157
795742
796028
796051
797576
799425
799824
800592
801330
802027
804479
806863
810034
811235
816384
817841
819799
820758
824783
828322
830857
838557
841892
843237
847090
853518
856191
858901
865425
868698
431902
435206
453196
459212
432785
442244
446620
499513
673916
663023
728829
613595
649223
655176
705027
625075
718190
797062
692131
602138
639686
660262
696005
707750
773810
777780
682636
739222
648079
618284
677690
720881
818528
497373
621128
645323
676638
699765
796412
861766
593070
455501
461680
467666
469816
475880
477480
478795
482696
486098
488537
490197
493487
495805
497716
497838
498284
500090
500809
506126
509356
509827
511512
511599
512046
513981
514710
517739
518251
519971
522777
523605
525417
527147
528287
530570
530674
530992
531173
533680
533969
540340
542963
543392
543476
543865
549820
551078
551101
551328
553306
553825
554980
555259
556663
557810
558307
558844
558849
559058
559228
560474
561213
561852
562076
563042
563374
564246
565472
566147
566523
567169
567253
568876
568988
569628
570037
571361
573333
573596
574089
574919
575263
575334
576872
577144
577320
577694
578916
579075
579959
580562
581649
581733
582360
583527
584006
586288
587723
587818
588083
588166
589969
590781
590843
591028
591399
591567
591956
592057
592468
592704
593024
593666
594117
594359
594768
595245
596650
597369
597499
597559
597751
598450
599516
599638
600579
600890
601149
601806
601978
602171
602403
602643
603187
603215
603747
605080
605196
605247
605518
605534
605770
605991
606039
606615
606679
607706
607887
607998
608152
608344
608385
608418
608737
609144
609394
609469
610195
610938
611157
612137
613038
613232
613314
613352
613429
614052
614311
614478
614612
614703
614867
615413
616616
617290
618131
618218
618573
618674
618884
619145
620412
620525
620919
621257
621795
622840
623794
623978
624178
624550
624657
624705
624771
624982
625043
625634
625663
625723
625792
625890
626061
626965
627765
628027
628045
628679
628915
629591
630173
630817
631748
632069
632595
633244
633282
633294
633993
634529
636069
636619
636654
637143
637311
637401
638922
638962
638984
640003
640304
640474
641267
641282
641650
641895
641989
642320
643256
644367
644613
645476
645480
645493
645599
646706
646922
647468
647492
648426
648516
649162
649762
650274
650341
651595
651757
652443
652694
653153
654067
654382
654457
656457
657237
657547
657757
658056
658367
658942
659707
660472
661482
661742
661821
661939
662924
664165
664676
664801
665551
665605
665675
665951
666931
667863
668045
668176
668391
668980
669680
670610
671044
671141
671303
671310
671642
672026
672524
672634
674409
675671
678060
678655
679180
679594
679865
680001
680149
680296
680797
681067
681649
681684
681835
682268
682662
682689
682694
683016
683255
683517
683592
684941
685521
686621
687214
687707
688921
689304
689451
690045
690096
690591
690688
690692
691389
693219
694305
694591
695075
695623
695631
697822
698045
698246
698827
699863
700435
700525
700938
701043
701157
702075
702681
703689
703812
705582
705588
705775
706876
707128
707331
707574
708241
708310
708667
709012
709197
709352
710103
710390
710531
710660
711782
712289
714485
715115
715445
715569
715603
716161
716370
717009
717385
718038
718245
718376
719530
719726
719761
720123
721025
721059
721452
721842
722368
722422
724126
725526
725642
726017
726160
726198
726873
726912
726919
727560
728305
729332
729531
729695
729743
730111
731700
732731
733068
733720
734529
735596
735742
736353
736873
737505
738464
738469
740695
741080
741702
742612
742727
743390
743401
743932
744242
745260
746535
746683
747430
748010
748397
751103
752176
754216
755578
757536
757601
759841
762540
762827
764009
764119
764485
766133
767420
768058
768310
770328
774324
776872
778528
778714
779627
780772
782670
785665
786331
786415
786704
788311
788631
790187
790285
790336
797701
798235
800397
800956
802086
802571
803813
804007
804761
806581
806985
809062
813007
814225
815585
819152
822883
823784
826177
829221
834077
840816
848902
851246
861106
869104
872342
418498
426585
427459
440583
443202
428411
437917
392806
385748
483092
406436
440121
456913
416806
417691
348834
382534
802187
733975
722342
664869
779927
664718
836295
870639
599761
807548
603041
697761
769518
846705
773820
721130
629837
513774
547671
678642
700270
673297
766196
780176
661828
678533
705522
632482
702066
632731
655708
675947
629268
578301
588092
656382
474234
565819
606891
624368
656419
664567
673323
674176
689313
703334
771029
792846
875074
823698
457840
458666
460562
462418
463090
463096
464009
466675
477059
482244
482718
485173
490509
491567
493020
497081
498418
499287
501091
501190
502752
503068
503427
506937
507016
507678
508107
508782
509572
509882
512056
513340
514771
515026
515121
516576
518182
518267
518977
520086
521682
522651
522775
523242
523403
524121
524664
526210
527231
529053
529730
530139
530867
532066
532067
534636
535523
535635
536153
536229
538406
541004
541445
541671
543037
543537
544441
544850
545079
546176
546633
547518
547560
547750
548426
549522
550308
551597
551703
552641
554028
554563
555265
555384
555731
556264
556481
556493
556770
557540
558920
559140
559489
560471
561362
561742
561760
562179
563242
563801
563829
564122
564330
564362
564518
565476
565562
565577
565696
566372
566702
567161
567597
568093
568578
570297
571199
572014
572069
572170
572226
572276
572879
572916
573415
573556
573857
574953
575383
575555
577798
578105
578179
578362
578375
578387
578476
578920
579095
579465
579485
580290
581011
581126
582437
583347
583843
584308
584419
585033
585364
585904
587056
587397
587764
588464
588734
589089
589461
590180
591131
591435
591488
591703
591790
592227
592598
593022
593211
593495
594533
595476
595990
596907
597539
597805
598917
599275
599880
600990
601845
602115
602249
602354
602412
603112
603584
603792
604472
604481
604912
606240
607275
607391
607735
607932
607980
608033
609365
609969
610051
610123
610823
611119
611120
611330
612042
612300
613105
613772
613793
614136
614885
614989
615466
616264
616993
617079
617694
617707
617895
617934
618279
618411
618660
619340
619438
619834
620263
620309
620480
620526
620602
620961
621195
621478
621581
622773
623022
624462
624493
624800
625959
626279
626416
628094
628347
628587
629605
629848
629923
630030
631391
631496
631527
631819
632160
633243
633428
633487
633522
635192
635443
635760
636030
636143
636290
637259
637879
637944
638383
638802
640526
640803
640869
640917
642098
642246
642745
643435
643518
643647
643662
644226
644325
644687
645170
645195
645272
646866
648115
648931
649411
650521
650929
651226
651989
653193
653315
653477
653897
653946
654040
654374
654409
654996
655029
655236
655281
655391
655646
656180
656437
657126
657974
658468
658723
658801
659106
659473
659488
659673
660295
661557
661681
661792
661958
662465
662751
662795
663827
664216
664256
664967
665264
666691
667391
667859
668621
668651
668883
669673
669941
670409
670798
671349
671702
672297
672628
672697
673977
674542
674860
675216
675397
675972
676096
676288
676576
677314
677675
677745
677927
678643
678892
679423
679704
679902
680896
681194
681469
681602
681629
681895
683116
683325
683510
685469
685832
686637
686640
687344
687571
687596
687649
688271
689264
690064
691052
691342
691433
691456
691847
691964
692236
692595
693014
693678
694017
694078
694142
694320
694428
694523
694541
694623
694736
695240
695481
695929
695957
696034
696086
696170
696207
696370
696792
696900
697024
697687
698519
698710
698741
698978
699706
700820
701146
702063
703020
703253
704025
704219
704254
705614
705849
706095
706254
706421
706729
707425
707495
707891
707957
709575
709964
710036
710352
710609
710684
711410
712842
713288
713620
714105
714967
715854
716318
716719
718086
718433
719175
720306
720370
720866
722744
724082
725272
726657
727757
727806
728904
728977
729142
729374
729492
729793
729948
730915
731007
731609
732407
732608
732809
733437
733587
733618
733710
733740
734996
735279
735556
735729
735966
737680
737713
738621
738643
738881
739133
739163
739428
740723
742994
743326
744315
744959
745730
745924
745935
746332
746749
747096
747304
748730
749400
750214
750243
750358
750599
751557
752008
752551
753798
757141
759126
760665
760713
761062
761783
762531
762690
762839
763438
764168
765153
765308
765994
766676
767161
767661
770236
773394
774115
774992
775454
776903
778597
779063
779546
779949
781396
783235
783805
787142
787194
788146
788907
788948
790424
791684
793495
795323
795797
796892
800358
801472
802797
804455
810619
812766
814340
814835
818579
818808
823266
825143
827270
830488
834111
834984
835171
840293
841560
845675
847187
848789
852635
859253
860927
865765
867307
869323
869671
894747
405984
390694
406410
414010
415202
420557
399120
421041
436097
447640
832947
408291
426222
461333
548184
454826
385914
395563
418933
295641
342913
442787
443091
444687
464675
520267
401829
318247
298342
304744
323480
414989
651152
852742
639466
756172
647249
730629
579438
721202
681302
793685
557948
621234
651245
810863
642941
776950
523120
762225
818843
526444
649490
700934
746378
789077
752632
732576
555181
635628
594180
706445
663351
530347
535533
610858
631026
715548
708400
668446
743370
472709
589725
637107
639366
666712
685621
686614
698878
815261
600974
634516
684803
708180
725386
761507
761917
766338
771345
774460
731020
450158
450713
453051
462236
462294
463101
467298
468166
468661
472103
472644
474949
476296
477583
480903
482782
484504
484876
485976
489344
491232
492227
492457
492904
494182
494367
494691
497385
497497
498614
500904
502245
502725
503288
503956
504982
506156
508955
511321
513345
513377
513668
514225
514404
518154
518699
518813
520074
520691
520716
521124
521202
522510
525273
526977
528069
529941
531028
532790
532877
535997
537019
537149
537720
537737
538178
538844
538885
538934
539034
539799
540051
540286
541381
541650
542165
542588
543084
543782
544316
544410
544765
544989
545096
545124
545136
545629
545652
545799
545909
546033
546514
546755
548028
548670
549174
549995
550071
551143
551245
552341
553104
553359
554268
554597
555733
556709
556724
557568
557669
557736
558536
558646
558839
559732
559784
559965
561113
561195
561835
561891
562045
562244
562320
562692
563205
564278
564728
565218
565632
565699
565847
566405
566812
567192
567521
568097
569319
569428
569550
569676
569960
570122
570168
570480
570536
570641
571148
571667
571723
571729
572215
573676
573813
573870
573909
574705
575045
575567
575738
576213
576215
576321
576389
577181
577401
577665
577733
577792
578171
580074
580718
581605
582049
582077
582341
582657
582672
583455
584439
585676
585935
586105
586183
586245
586617
586943
587616
587969