/*--------------------------------*- C++ -*----------------------------------*\
  =========                 |
  \\      /  F ield         | OpenFOAM: The Open Source CFD Toolbox
   \\    /   O peration     | Website:  https://openfoam.org
    \\  /    A nd           | Version:  7
     \\/     M anipulation  |
\*---------------------------------------------------------------------------*/
FoamFile
{
    version     2.0;
    format      ascii;
    class       scalarField;
    location    "0.025/lagrangian/dsmc";
    object      Ei;
}
// * * * * * * * * * * * * * * * * * * * * * * * * * * * * * * * * * * * * * //


213066
(
3.74055e-22
4.26165e-23
3.75314e-22
3.41197e-22
1.79968e-23
2.58583e-22
4.96598e-22
2.92802e-22
3.51688e-21
1.53664e-21
5.69979e-21
2.51132e-21
1.66484e-21
3.67971e-21
5.02297e-21
6.08134e-21
1.42887e-21
4.08359e-22
2.60007e-21
6.084e-21
2.35544e-22
1.30536e-21
2.55331e-21
7.64902e-23
4.986e-22
4.96554e-21
3.13945e-21
4.63965e-22
3.86366e-22
3.87509e-22
3.56478e-21
9.52508e-22
2.63945e-21
3.21863e-21
7.58253e-22
1.29098e-21
4.61371e-22
1.75934e-22
8.27497e-21
3.08678e-21
2.54851e-21
1.50972e-21
8.4367e-22
5.30397e-22
5.34377e-21
2.38387e-21
2.64709e-21
3.11492e-23
1.58419e-21
1.82688e-22
4.26811e-21
2.96072e-22
1.17085e-21
2.15507e-21
3.75028e-22
5.33665e-21
3.18939e-22
3.95123e-21
2.44013e-21
4.13079e-22
1.25374e-22
9.98374e-23
4.67295e-22
2.25105e-21
3.46194e-21
2.70317e-22
1.40361e-21
8.45942e-22
4.24035e-21
9.36696e-23
4.41948e-21
7.82456e-21
5.34079e-22
7.6151e-22
3.35874e-21
4.53086e-21
2.85156e-22
6.20145e-22
6.9674e-22
1.73796e-21
1.72042e-21
1.04059e-21
1.12835e-21
3.13303e-21
1.86433e-21
6.27e-21
1.64374e-22
3.35774e-22
2.90012e-21
1.649e-21
3.96792e-22
3.40514e-22
1.9118e-21
3.5134e-21
1.99849e-21
1.20979e-21
1.60452e-22
7.31406e-22
3.0042e-21
5.50334e-21
2.54956e-21
1.36848e-22
1.304e-21
9.12852e-22
4.45471e-21
3.00791e-21
2.54843e-22
3.88648e-21
1.11433e-21
8.39295e-22
6.31372e-21
1.06553e-21
2.71075e-21
4.25432e-21
1.37098e-21
9.18744e-22
1.81775e-21
2.45586e-21
1.69302e-21
3.9747e-21
5.75994e-22
6.49892e-21
1.86643e-21
8.71606e-21
5.95125e-22
2.12784e-21
1.2909e-21
1.51415e-21
2.25226e-22
6.6729e-23
4.71705e-21
3.57122e-22
1.04699e-21
2.20681e-21
2.89983e-21
2.4469e-21
2.33617e-21
6.96355e-22
4.62588e-22
2.52639e-21
5.61617e-21
1.84203e-21
1.39293e-21
2.80214e-21
1.30538e-21
2.08332e-20
2.14645e-21
1.20427e-21
1.44321e-21
1.02863e-20
2.49347e-21
4.57512e-21
8.85797e-22
1.14401e-21
1.26061e-21
2.20747e-22
2.30841e-21
1.43492e-21
1.88421e-21
7.61907e-21
1.53382e-21
2.49547e-22
2.39543e-22
2.38299e-21
2.78891e-21
5.08685e-22
8.78143e-22
2.06131e-21
1.86497e-21
7.71171e-22
4.54989e-22
1.41045e-21
4.01506e-21
6.39524e-22
1.76453e-21
3.65235e-21
9.15465e-22
1.85468e-21
3.76779e-22
5.52603e-22
3.86384e-21
1.22491e-21
1.62445e-21
1.80111e-21
1.13918e-22
1.14746e-21
2.98831e-21
7.74493e-21
5.77117e-23
3.42667e-22
5.2623e-21
7.25867e-22
9.18901e-21
1.16611e-21
2.25816e-21
1.00371e-21
4.89001e-21
5.98015e-21
3.47628e-21
3.62382e-21
8.6976e-22
2.68168e-21
2.34244e-21
3.1389e-21
2.90231e-21
1.99466e-22
7.76531e-22
3.94444e-21
2.27357e-21
3.97225e-21
1.02761e-22
3.03873e-21
1.10521e-21
1.02103e-21
5.15596e-22
5.72173e-22
3.48151e-22
5.56008e-21
2.36499e-21
4.40546e-22
1.86593e-21
3.89686e-22
7.92936e-22
3.34719e-22
1.62183e-21
7.378e-21
3.86042e-22
1.70778e-21
8.53132e-22
1.63467e-21
3.08875e-21
1.04981e-21
1.87615e-21
2.57741e-21
3.42802e-21
1.69538e-21
4.83153e-23
1.62674e-22
7.21678e-22
6.07376e-22
1.47944e-21
3.7631e-21
1.63557e-21
2.76466e-21
2.65764e-21
6.30267e-23
4.31656e-22
1.34076e-21
2.42085e-22
2.27123e-21
7.52405e-23
3.13413e-21
1.04975e-21
5.66871e-22
6.38784e-22
4.16266e-21
1.21733e-21
4.70777e-21
3.71298e-21
3.66796e-21
1.82354e-21
2.62243e-21
2.26704e-22
1.7571e-21
1.20884e-21
6.73133e-22
4.96026e-22
2.9005e-21
2.12061e-21
1.16445e-21
5.54895e-21
1.36349e-23
1.41903e-21
2.43154e-21
6.87735e-21
1.06205e-21
3.14885e-21
3.69818e-22
9.82822e-22
3.1922e-22
2.46058e-21
5.3748e-21
1.04036e-22
7.00686e-22
3.51724e-22
4.80561e-21
1.65848e-22
2.54029e-21
1.96128e-22
1.11805e-21
1.51399e-21
4.97262e-21
3.80759e-21
2.15294e-21
1.96944e-20
7.65867e-22
4.19079e-22
5.21859e-21
8.66668e-22
2.87131e-21
2.56728e-21
4.63283e-22
1.44194e-22
6.08506e-23
6.46755e-22
4.34211e-22
1.94318e-21
6.72197e-21
2.10494e-21
2.51921e-22
3.00854e-21
7.11834e-22
9.77038e-22
3.92634e-21
9.92613e-22
9.12714e-22
2.95576e-21
7.38459e-21
1.89601e-21
2.37451e-21
2.028e-21
2.49714e-21
1.70367e-22
9.73929e-22
1.1789e-22
1.69318e-21
4.94482e-21
9.53472e-21
5.85486e-21
2.05191e-21
4.87096e-21
1.8837e-21
6.59279e-22
1.61997e-21
2.57086e-21
5.31077e-22
1.85777e-21
1.47198e-21
4.01259e-21
3.81402e-21
1.61212e-22
3.94707e-22
1.47142e-21
2.56169e-21
1.14811e-21
9.48202e-22
5.61099e-21
9.92558e-23
1.09886e-21
6.48483e-21
1.20935e-21
1.15458e-21
1.38252e-21
3.00617e-21
5.21796e-22
9.68587e-23
3.99711e-22
4.01699e-21
4.73915e-21
1.93032e-22
1.0441e-21
6.54115e-23
1.05159e-21
2.43516e-21
2.18642e-21
1.77246e-22
1.20632e-21
1.52015e-21
2.41696e-21
1.9056e-22
4.0726e-22
2.92915e-21
2.88016e-21
1.50571e-22
6.20575e-22
2.90504e-21
1.27765e-21
1.29667e-22
3.57918e-21
3.28875e-22
3.76502e-21
2.08914e-21
4.68889e-22
1.67591e-21
2.50436e-21
3.53596e-22
1.33739e-21
1.18292e-20
1.14728e-21
3.08267e-22
3.30159e-21
1.94104e-21
8.40356e-24
1.71605e-21
6.67721e-21
4.74694e-21
2.43534e-22
8.50297e-22
1.08196e-21
8.19467e-23
9.9419e-22
5.48619e-22
2.36768e-21
1.16521e-21
3.99642e-21
4.03553e-22
2.0534e-21
2.77733e-21
1.31254e-21
6.46731e-23
1.08577e-21
7.19305e-21
3.67795e-21
1.39523e-21
9.51484e-22
4.2103e-22
1.91221e-21
2.33095e-21
1.22455e-21
2.67613e-21
5.00085e-23
1.7963e-21
6.82658e-22
5.21031e-22
5.30377e-22
9.20646e-22
8.03259e-22
7.41156e-22
2.84197e-23
9.49812e-21
8.16553e-22
2.43599e-21
1.86048e-21
1.96886e-21
3.61702e-21
1.04042e-21
2.5095e-22
9.32206e-21
8.78596e-21
3.24177e-21
9.83743e-22
5.11023e-23
4.33632e-21
9.52641e-23
3.2286e-21
2.25573e-21
2.01684e-21
2.28057e-21
2.61326e-22
1.34413e-21
2.46387e-21
5.86503e-22
1.11062e-21
5.47092e-22
4.85749e-21
6.0104e-22
1.21252e-21
1.34101e-21
2.4512e-21
1.67398e-21
1.07421e-20
7.32695e-22
3.86127e-21
2.07903e-21
2.12694e-21
3.69263e-21
1.40066e-21
3.00571e-22
3.22472e-22
2.5253e-22
4.55677e-21
8.94861e-22
1.6942e-21
4.23856e-22
6.73203e-22
3.85536e-21
1.29218e-21
6.01685e-24
4.1797e-21
1.32995e-21
1.19787e-21
2.96082e-21
1.07217e-21
1.94127e-21
1.37477e-21
3.05703e-21
1.74476e-21
4.59281e-21
1.57697e-21
1.12968e-22
2.55822e-23
1.40016e-21
8.52372e-21
9.30795e-21
8.99438e-22
2.1746e-21
2.45012e-24
1.94817e-21
3.44182e-21
6.56576e-22
3.24043e-22
9.7825e-22
1.64463e-21
2.4546e-21
7.94775e-22
7.49652e-22
2.91577e-22
4.04427e-22
6.91315e-22
1.30979e-22
5.33934e-22
8.58644e-22
6.24876e-21
6.59493e-22
1.23087e-22
7.81766e-22
4.40358e-21
7.16597e-22
7.66412e-22
9.0013e-23
3.66652e-22
4.47776e-22
1.24038e-20
2.73887e-22
4.73032e-22
8.80862e-22
4.89575e-22
1.11208e-20
4.56503e-22
1.05839e-21
2.4277e-22
1.40083e-21
1.63635e-21
4.73617e-21
3.35256e-22
4.20424e-22
1.27105e-20
6.2958e-21
1.41125e-21
5.35446e-22
9.22896e-21
2.60445e-21
5.8043e-23
2.95708e-21
3.09773e-21
4.3609e-22
2.74029e-21
7.09827e-21
1.35445e-21
2.55736e-21
1.14786e-21
8.1026e-22
5.69315e-21
6.98988e-21
6.98478e-22
5.05931e-22
4.68793e-21
8.10531e-22
1.16304e-21
2.1498e-22
7.58204e-21
3.90241e-22
3.38377e-22
2.29564e-21
1.23445e-21
4.27822e-21
2.3184e-21
2.4115e-21
2.79729e-23
3.78785e-21
8.24788e-23
4.17307e-22
1.80143e-21
6.29821e-22
2.82066e-21
2.76127e-22
9.34736e-23
1.29885e-21
1.74269e-21
2.13778e-21
6.30086e-22
2.27019e-23
3.64034e-22
2.56768e-23
1.64207e-22
8.04331e-22
1.63704e-21
1.79545e-21
3.21919e-21
1.00897e-21
7.07745e-22
1.62612e-21
2.22685e-21
9.14361e-22
6.50508e-22
9.49265e-22
2.59133e-21
4.76579e-21
5.42294e-22
1.16272e-21
1.79143e-21
1.37631e-21
2.59926e-21
1.10577e-20
2.32829e-21
1.03694e-21
3.48992e-23
1.4914e-21
1.83588e-21
2.96322e-21
1.64294e-21
6.07082e-22
1.27196e-21
6.05829e-22
1.63427e-22
2.80469e-23
1.37423e-21
3.23782e-23
4.55154e-21
6.96476e-21
3.4221e-22
3.35313e-22
4.93845e-21
1.09311e-21
1.90472e-21
5.90862e-21
7.34923e-22
3.08191e-22
1.70178e-22
4.23041e-22
2.94317e-21
1.75674e-21
1.65852e-21
1.64008e-21
1.23649e-21
1.0805e-21
4.40068e-21
2.50675e-22
9.18317e-23
8.42272e-22
1.27154e-21
5.161e-22
1.78945e-21
7.33815e-22
1.32722e-23
7.66114e-22
2.16127e-22
1.18468e-21
5.17098e-22
8.07377e-22
1.08671e-22
5.23055e-22
1.56368e-21
1.50479e-21
3.41919e-22
1.88776e-22
3.76514e-22
9.79433e-22
3.85306e-22
5.26501e-21
8.81902e-22
5.28304e-22
5.72221e-22
2.28815e-22
2.77269e-21
2.78425e-22
4.79368e-21
2.23499e-21
1.2353e-21
6.84477e-22
2.10598e-21
2.58295e-21
3.6662e-21
5.48686e-21
1.24907e-21
1.53363e-21
7.90067e-22
2.99886e-21
2.71572e-21
7.47986e-22
3.76066e-21
1.98357e-21
4.95657e-21
1.94332e-21
2.07168e-21
1.41183e-21
1.42759e-21
1.84825e-21
2.28863e-21
1.47162e-22
6.21561e-22
1.4083e-21
3.72364e-21
2.9753e-21
2.60929e-23
1.35092e-21
2.8226e-22
3.56967e-21
2.5405e-21
2.21477e-21
3.28418e-21
2.61781e-22
2.63749e-21
9.15969e-22
1.68936e-21
2.46488e-21
8.31646e-22
1.2129e-21
3.79092e-23
4.06956e-21
5.81361e-21
9.37906e-22
2.56608e-21
1.04698e-21
2.02192e-21
1.34572e-21
1.30894e-21
7.03746e-22
9.08131e-21
1.07256e-20
6.24241e-22
2.18297e-21
3.57452e-21
8.17316e-22
1.82359e-22
1.27035e-22
3.72641e-21
1.05948e-20
1.42886e-21
2.10062e-21
3.75894e-21
1.38249e-21
1.93733e-21
2.90748e-21
1.54986e-21
5.71806e-22
9.25262e-21
2.21732e-22
1.66386e-21
2.45591e-22
8.7435e-22
3.30521e-21
1.18831e-21
3.94163e-21
1.97519e-21
1.72832e-21
3.14038e-22
1.51999e-21
2.66288e-21
1.03225e-22
1.08569e-21
2.50034e-23
1.42401e-21
3.47273e-21
8.74164e-22
1.22516e-21
1.12377e-21
1.01802e-21
3.61173e-21
5.85396e-22
4.63057e-21
1.53945e-21
1.10557e-22
4.42363e-22
2.90248e-21
1.49029e-22
5.57397e-22
2.44455e-21
2.56715e-21
2.70365e-21
5.35916e-21
3.45507e-21
1.82145e-21
1.84821e-21
5.91762e-21
1.074e-21
2.1555e-21
6.36533e-21
1.80133e-21
8.43081e-22
2.253e-21
1.9527e-21
2.54095e-22
3.99351e-21
3.90893e-22
3.85974e-21
1.94417e-21
2.41834e-21
3.65937e-21
1.98201e-22
2.09556e-21
1.0297e-22
1.64206e-21
3.26879e-21
2.42764e-22
9.69675e-22
1.18089e-21
4.60335e-22
4.67898e-21
2.62172e-21
1.95131e-21
1.44818e-21
5.61229e-21
5.26012e-21
1.94244e-21
2.52507e-21
1.22605e-22
3.36019e-22
7.6095e-22
2.5271e-21
3.55312e-22
1.14542e-22
8.37651e-22
1.26304e-21
2.18527e-21
8.8497e-22
4.53097e-21
2.21986e-21
4.52268e-21
7.18388e-22
3.43897e-22
2.58275e-22
2.72475e-21
1.28272e-21
5.84262e-22
2.21281e-21
5.87947e-23
1.1645e-22
4.90333e-22
5.59445e-21
9.30921e-22
2.24789e-21
3.87269e-22
3.9535e-21
4.64748e-22
1.50421e-21
5.41991e-21
9.68106e-22
5.65403e-21
6.25252e-23
1.30008e-21
3.71493e-21
1.57804e-21
4.73347e-21
2.035e-21
1.28863e-21
1.06799e-20
1.12978e-21
6.59392e-22
1.63937e-21
1.89002e-21
6.5039e-22
2.29893e-21
1.43114e-21
1.70786e-21
1.31059e-21
4.72652e-22
2.0508e-21
3.27867e-21
2.01585e-22
5.78834e-21
3.7269e-21
4.31567e-22
9.32355e-22
4.63827e-22
2.71865e-21
1.22662e-21
2.28053e-21
2.98837e-21
2.54577e-21
7.14768e-22
1.04716e-21
7.78899e-22
1.58531e-21
8.80775e-22
8.86861e-22
3.5731e-22
1.19784e-21
4.08791e-22
9.779e-22
2.93942e-21
2.02768e-21
4.91191e-21
6.83226e-22
1.18228e-21
9.92278e-23
7.55836e-22
5.70526e-23
1.92474e-21
6.761e-21
1.95647e-21
1.70531e-21
2.25389e-21
1.88847e-21
5.38814e-22
5.33611e-22
2.22463e-23
2.0136e-21
2.26527e-21
1.61597e-21
9.61952e-22
4.1772e-22
3.83489e-22
1.1546e-21
6.43941e-21
1.8275e-21
4.87695e-21
5.81739e-22
3.7324e-21
3.83491e-21
2.86688e-23
2.107e-21
3.38108e-21
1.01584e-22
1.72333e-21
4.71559e-22
1.32777e-21
2.29531e-21
1.44746e-21
4.46809e-21
1.72472e-21
2.00244e-21
1.1055e-21
1.71719e-21
1.10457e-21
3.02384e-22
1.20844e-21
1.64663e-21
1.34541e-22
3.99887e-21
6.9052e-22
9.1544e-22
1.8639e-21
6.62365e-22
2.32155e-21
5.05582e-21
1.23998e-21
6.76535e-22
3.58421e-21
1.07765e-21
1.63829e-21
1.01627e-21
1.03552e-22
9.01858e-22
1.58975e-21
3.82008e-21
2.67948e-22
4.08012e-21
1.4396e-22
5.07014e-21
1.31624e-21
3.92301e-21
9.08621e-22
4.54408e-22
4.73471e-21
9.55958e-22
2.20242e-21
1.45767e-21
6.79191e-22
1.91236e-21
1.89153e-22
4.35414e-22
4.15195e-21
4.02985e-21
2.52786e-21
2.27489e-21
6.99755e-23
1.65982e-21
4.26794e-22
4.18816e-21
1.84194e-21
1.83628e-21
5.49223e-21
5.85144e-22
1.13956e-21
1.39035e-21
3.72775e-21
1.05692e-21
4.28732e-21
2.24608e-21
4.50396e-21
3.32647e-22
4.94991e-21
2.04446e-22
2.51674e-21
3.30016e-22
5.06377e-21
3.74083e-21
5.54869e-22
1.74071e-22
7.34622e-22
2.4791e-22
9.41857e-22
1.17444e-21
1.49428e-21
3.60995e-22
6.20463e-21
2.93334e-22
2.26422e-21
3.03686e-21
1.68176e-21
1.11308e-21
1.42768e-22
6.53589e-22
2.95187e-21
8.03671e-22
2.55632e-21
1.34675e-21
1.51149e-23
5.93896e-22
2.13736e-21
7.47854e-22
1.50645e-21
4.37559e-23
1.01257e-20
1.41942e-21
6.91715e-22
1.61081e-21
1.66955e-21
2.82415e-21
1.80266e-22
5.09733e-21
1.75467e-21
2.5306e-22
3.8357e-22
3.86597e-21
9.69299e-22
1.58167e-21
3.56286e-21
1.1721e-21
1.6373e-21
9.74499e-22
1.90737e-21
2.83503e-21
3.34068e-21
1.3633e-21
2.36808e-21
1.54883e-21
1.51144e-22
8.44211e-22
5.54558e-21
3.14962e-21
3.44704e-21
7.40109e-22
4.80302e-22
2.05123e-21
5.99383e-23
4.98113e-21
2.48098e-21
2.13941e-21
2.57091e-22
1.13952e-21
3.47735e-21
9.56707e-23
6.36132e-21
4.93903e-21
2.26218e-22
7.42404e-22
5.04262e-22
3.30683e-23
9.91288e-22
4.83454e-22
2.28187e-22
2.41352e-21
1.1986e-21
7.81585e-22
1.0382e-21
2.40917e-21
2.3525e-21
1.64399e-21
7.61318e-22
5.23947e-22
1.17808e-21
8.6694e-23
5.98876e-22
2.06496e-21
7.40314e-22
1.17998e-21
2.79373e-22
2.37284e-22
3.40924e-21
7.50853e-21
9.16502e-22
3.44289e-21
3.81114e-21
1.58384e-21
8.23646e-22
4.37096e-21
8.77712e-22
1.68101e-21
4.88842e-21
1.78495e-21
5.06458e-21
4.78843e-22
1.75637e-21
1.67422e-21
1.51528e-21
6.70009e-22
5.16782e-22
2.83761e-21
3.46445e-21
1.72073e-21
7.31542e-22
9.14668e-22
2.55397e-21
4.56429e-21
5.3253e-22
1.05887e-21
3.69697e-21
1.93374e-21
1.30795e-21
3.0107e-22
3.19841e-21
1.34946e-22
2.34884e-21
2.43523e-21
3.33568e-22
6.41478e-22
6.94027e-22
1.34795e-21
2.71704e-21
3.90942e-22
5.60507e-23
5.39905e-22
4.06364e-21
3.41192e-22
1.73991e-21
7.37334e-22
1.09106e-21
1.05822e-21
3.12202e-21
3.47384e-21
4.11344e-21
2.01468e-21
3.27987e-22
8.79448e-22
3.25707e-21
1.54243e-22
5.77217e-23
1.64652e-21
1.75135e-21
8.20824e-21
5.36862e-23
1.54637e-21
1.51732e-21
2.1996e-21
1.22708e-21
1.43056e-21
3.07261e-21
5.0093e-21
6.11441e-22
2.96545e-21
3.62285e-22
1.25804e-22
1.47281e-21
2.0053e-21
6.9724e-22
1.20582e-21
5.20287e-21
1.0609e-21
1.98405e-21
2.00873e-21
8.02517e-23
1.31555e-21
8.00546e-22
6.2942e-21
6.22902e-22
1.87181e-21
3.85714e-21
1.0804e-21
1.01433e-21
1.65844e-22
2.18134e-21
3.6977e-22
3.93665e-22
7.92794e-22
6.29834e-21
4.07254e-21
1.52683e-21
3.59316e-21
1.40981e-21
7.91167e-21
5.969e-23
4.13036e-21
4.24005e-21
9.51997e-22
1.59542e-21
7.11703e-22
5.1851e-21
6.21172e-21
1.95856e-21
3.29459e-21
5.17286e-22
5.35146e-21
2.13279e-22
2.70754e-21
2.02657e-21
3.04078e-22
1.85862e-21
3.17856e-21
2.61075e-21
2.3756e-22
1.30397e-20
2.55595e-21
1.80784e-21
1.93212e-21
8.03913e-22
1.43538e-21
1.8548e-21
5.08526e-21
1.32004e-21
1.09177e-21
6.35383e-22
1.454e-21
3.59924e-21
6.29924e-22
2.4205e-21
1.61479e-21
3.71391e-21
3.29989e-21
3.417e-22
8.10388e-22
1.81549e-21
9.01184e-21
7.1162e-23
1.94499e-21
6.61252e-22
3.26813e-21
5.59435e-22
1.09929e-21
5.45194e-21
2.9864e-22
7.30623e-22
2.51358e-23
1.1389e-21
1.38116e-21
1.14992e-21
3.66348e-21
2.13941e-22
1.93363e-21
8.35326e-22
2.49898e-21
1.64182e-21
8.2179e-21
6.12583e-21
7.50404e-22
4.5009e-21
1.41962e-21
2.53397e-21
1.19685e-21
5.12522e-23
7.26726e-22
9.27697e-22
1.78767e-21
7.16421e-22
9.05786e-22
1.40393e-22
2.21822e-21
1.33794e-21
1.42471e-22
7.92382e-21
1.54715e-21
3.15876e-22
1.56982e-21
2.3904e-21
6.42208e-22
1.13541e-21
6.40332e-22
1.11869e-22
2.93623e-22
3.22123e-22
1.62693e-22
1.98792e-22
1.35661e-21
3.19433e-21
3.79307e-22
4.63631e-21
2.47887e-22
2.65615e-21
5.59609e-22
1.00935e-21
1.078e-21
2.63505e-22
5.09645e-22
1.02108e-21
1.81246e-21
1.46353e-21
5.95963e-22
2.96868e-22
3.54282e-21
2.2506e-21
4.72114e-22
4.39212e-22
1.65059e-21
1.89337e-22
2.87447e-21
2.93995e-21
4.74411e-22
1.01966e-21
9.66552e-22
1.60585e-22
5.59388e-22
2.15567e-21
3.32473e-22
1.87664e-22
3.95186e-21
3.00199e-21
2.07551e-22
3.41611e-22
2.27883e-21
4.65202e-21
7.02261e-22
8.89256e-22
8.14658e-22
5.71923e-22
3.90406e-21
4.64911e-21
3.52761e-21
3.96433e-24
3.07508e-21
3.0877e-22
1.61569e-21
4.8091e-21
2.67951e-21
1.16635e-21
2.05026e-21
2.60164e-22
9.86016e-22
3.23731e-21
4.43434e-22
2.14556e-21
2.84001e-21
2.17266e-21
2.42442e-21
4.06305e-22
1.17347e-22
7.87416e-22
4.88579e-21
3.20642e-21
1.53232e-21
2.35538e-22
4.2353e-22
3.43018e-21
2.60794e-21
2.61199e-21
2.74024e-21
9.07605e-22
3.54288e-21
5.60747e-22
7.35646e-21
1.37813e-22
3.21915e-21
6.87774e-22
3.13438e-21
2.33414e-22
3.97724e-22
1.32427e-21
2.85258e-22
9.31028e-23
3.19392e-22
4.14666e-21
7.18037e-21
2.61254e-21
1.0905e-21
1.82144e-21
1.68505e-21
1.12494e-21
9.15162e-22
3.61014e-22
4.50311e-21
2.02691e-21
7.62964e-22
3.1441e-21
3.66714e-21
1.06499e-21
3.7009e-21
6.87488e-22
1.21684e-21
1.56984e-21
2.5912e-21
3.02369e-22
5.04726e-22
5.58543e-23
5.19287e-21
2.23635e-21
1.15673e-22
2.43016e-21
3.64518e-22
1.7317e-21
2.20548e-21
1.57108e-21
4.26894e-22
6.72415e-23
7.59637e-22
7.35504e-22
3.96309e-21
1.2617e-21
1.58506e-21
4.59795e-22
1.05782e-21
1.61853e-21
2.57233e-22
1.22581e-21
1.02408e-21
1.31021e-21
4.45509e-23
5.65356e-21
1.10641e-21
2.02737e-21
2.10004e-21
4.76625e-22
7.70038e-22
1.38278e-21
2.0917e-21
9.79386e-22
7.32013e-22
2.15946e-21
7.46178e-22
3.65756e-21
1.81085e-21
4.54528e-21
8.41107e-22
2.49466e-21
1.15379e-22
1.6018e-21
3.3186e-21
7.95683e-22
3.02491e-22
1.87735e-21
5.15648e-21
3.70584e-21
5.33264e-21
6.86632e-21
4.10587e-21
2.10431e-22
1.75211e-21
2.06883e-21
1.58104e-21
2.67124e-21
6.27476e-21
1.46719e-21
3.7583e-22
1.99009e-23
2.08395e-21
3.77079e-21
1.06173e-21
1.45341e-22
2.05427e-21
2.38639e-21
3.27632e-21
3.69118e-22
9.30123e-22
2.64476e-21
2.83925e-21
7.4968e-21
2.70481e-21
2.19555e-21
1.6418e-21
2.66471e-21
1.97396e-22
4.8142e-22
9.99678e-22
6.66027e-22
4.72316e-21
1.32474e-21
4.42232e-22
9.16127e-22
6.14471e-22
1.69293e-21
2.3796e-21
7.22928e-21
2.82772e-21
4.54711e-22
1.68404e-22
9.59912e-22
1.90068e-21
5.3005e-22
3.78474e-22
2.85581e-21
1.84348e-21
2.26505e-23
2.98543e-21
1.36896e-21
2.92679e-21
3.02007e-21
1.52919e-21
1.23338e-22
2.42458e-21
2.70569e-21
4.21465e-22
9.13277e-22
4.46792e-22
1.72251e-21
5.1956e-22
6.39425e-21
5.88002e-22
7.13356e-22
2.32643e-21
4.10611e-22
4.66459e-22
1.6283e-22
8.03286e-22
1.39675e-21
1.93813e-21
6.84447e-21
1.31806e-21
3.96398e-21
1.37875e-21
1.95622e-21
4.90368e-22
3.67074e-21
3.5248e-21
5.38457e-21
5.14476e-21
4.11249e-21
3.47403e-21
2.74116e-21
1.73134e-22
1.05196e-21
5.1184e-21
1.11775e-21
4.14348e-21
9.00758e-21
3.15975e-21
1.08514e-21
2.39859e-23
3.99785e-21
7.44974e-22
8.2663e-21
6.48565e-22
2.05544e-22
1.82599e-21
2.1043e-21
2.13973e-22
1.66644e-21
2.1e-21
2.9211e-21
2.36297e-22
7.77231e-22
4.13873e-22
7.55519e-21
7.57005e-23
3.14747e-21
3.6896e-21
2.40004e-21
1.03963e-21
8.31842e-22
2.18205e-21
4.93348e-22
4.16137e-22
2.1115e-21
2.45262e-21
1.90207e-21
3.39557e-23
1.58342e-22
5.13339e-21
4.09875e-21
8.21827e-22
2.92188e-22
2.71917e-22
1.26683e-21
3.20477e-21
3.97595e-21
2.02115e-21
1.01243e-21
2.38353e-21
4.48276e-21
8.44313e-22
1.55692e-21
3.33108e-21
6.39732e-22
5.254e-22
1.40954e-21
1.44328e-21
1.1186e-21
8.01828e-22
1.5259e-21
2.01549e-21
1.35457e-21
5.87818e-21
8.2825e-22
6.57856e-21
9.13934e-22
5.48361e-22
2.72947e-21
1.23223e-21
1.91519e-21
1.30459e-21
2.35795e-22
2.20051e-21
5.83058e-21
2.4606e-21
3.15867e-21
1.7825e-21
6.67897e-22
1.52872e-21
1.61053e-21
2.02311e-22
1.79769e-21
4.87569e-21
2.13304e-21
1.4526e-21
1.5366e-21
1.46117e-21
2.81378e-21
2.4251e-21
3.0923e-22
8.26485e-22
2.50711e-21
1.04472e-21
2.18141e-22
9.61105e-22
1.07902e-21
2.61233e-21
2.80043e-21
2.05774e-21
1.1151e-21
2.71921e-21
6.73676e-21
5.81656e-22
2.97737e-21
1.6548e-21
1.1181e-21
2.63472e-21
3.85088e-21
4.69888e-22
6.66374e-21
3.74287e-22
1.71608e-21
2.33503e-21
8.19486e-22
2.42884e-21
9.7498e-22
6.78451e-22
6.75639e-22
1.64834e-21
3.39473e-21
3.00767e-21
2.76997e-21
3.94993e-21
1.0948e-21
7.78753e-21
1.53356e-21
2.71872e-22
1.13252e-20
1.41197e-22
6.47317e-21
2.62027e-21
4.38552e-21
1.26751e-22
2.0214e-21
1.54192e-21
4.17571e-21
9.63629e-22
2.53445e-22
1.81524e-21
3.87005e-22
1.61344e-21
3.60981e-21
4.64627e-22
2.12681e-21
1.61684e-21
2.01509e-21
7.31238e-22
2.04968e-22
2.5341e-21
2.88976e-21
3.40473e-21
1.58111e-21
2.58965e-21
6.02217e-23
2.17072e-21
2.92936e-21
1.59641e-21
3.48412e-22
3.29077e-22
2.52844e-22
5.28689e-21
7.82544e-22
9.28255e-22
3.24087e-21
1.3803e-21
8.98701e-21
1.56741e-21
4.21201e-22
1.80058e-21
2.79907e-21
5.32158e-21
4.41544e-23
1.64533e-21
4.71284e-22
2.47803e-22
3.83404e-22
1.68969e-22
3.58459e-21
6.26935e-22
1.82294e-21
7.4182e-22
5.97769e-21
3.29768e-21
3.20365e-21
1.33552e-21
1.17489e-21
7.01156e-21
6.55516e-21
2.04552e-21
1.82656e-21
3.25597e-22
2.21766e-21
7.82971e-22
9.83697e-22
4.05815e-23
1.36807e-21
2.71122e-21
1.16411e-21
7.01068e-21
3.12737e-22
8.34458e-22
6.32578e-21
5.05551e-22
1.72686e-22
7.07844e-22
2.1448e-21
1.91207e-22
3.49232e-23
9.44117e-21
5.65294e-21
2.75807e-21
1.04467e-21
2.08739e-21
3.5956e-21
8.89168e-22
5.15436e-22
1.60679e-22
8.14352e-22
1.65867e-22
1.37805e-21
1.15148e-21
5.21701e-22
7.74216e-22
1.8583e-21
1.38829e-21
2.57731e-22
1.47979e-21
3.11408e-22
2.0586e-22
2.17435e-22
3.37953e-21
1.11175e-21
3.80323e-23
3.63266e-21
1.327e-21
2.594e-21
5.80181e-22
1.41923e-22
9.53611e-22
3.39161e-22
9.68895e-22
1.20717e-21
1.23148e-21
3.44134e-21
5.78472e-21
2.65363e-21
4.3652e-21
9.18431e-21
4.98727e-22
7.67734e-22
5.04007e-22
3.90446e-21
7.1891e-22
1.73705e-21
1.37187e-21
7.57055e-22
1.62287e-21
6.34432e-22
8.54644e-21
7.25752e-22
1.16463e-22
2.07284e-21
8.69642e-21
1.03923e-21
8.07865e-22
2.9918e-21
2.83769e-22
2.97181e-22
1.45843e-21
1.40248e-21
3.17614e-21
1.35298e-21
9.85906e-22
2.60361e-21
6.52423e-22
3.41728e-22
4.51635e-22
2.25458e-21
3.08418e-21
5.8374e-21
8.30602e-23
1.00627e-22
5.4308e-21
6.03696e-22
1.98648e-21
1.45978e-21
7.91941e-22
3.31088e-22
1.14288e-22
2.0202e-21
4.63248e-21
7.8302e-22
2.83603e-21
4.55308e-22
4.69677e-21
2.78875e-21
2.58209e-22
2.91184e-21
3.1229e-22
6.33141e-22
2.67182e-21
8.76714e-23
3.44886e-23
5.49648e-22
1.10565e-21
4.35256e-21
3.51352e-21
6.63739e-22
2.33891e-21
2.58421e-21
1.55464e-22
3.05018e-21
7.42489e-22
6.23863e-22
3.26421e-22
2.15387e-21
2.80377e-21
2.62591e-21
1.6906e-21
4.58426e-22
1.60815e-21
2.79463e-21
1.9604e-21
1.49722e-21
6.99742e-21
1.45774e-21
2.37641e-21
1.6673e-21
1.84172e-21
2.27886e-21
3.24404e-21
4.41022e-21
1.28599e-21
2.38233e-22
1.43063e-21
3.85412e-21
9.5889e-21
2.09675e-22
1.18299e-21
5.91829e-21
1.748e-21
9.4202e-22
1.80933e-21
7.90746e-22
2.22517e-21
1.29792e-21
8.7516e-24
9.95292e-22
4.38942e-21
1.80351e-22
6.31742e-21
8.85327e-22
3.16332e-21
5.2657e-21
1.96174e-21
2.74602e-21
6.86916e-21
1.30353e-21
8.68086e-22
3.54949e-22
2.30427e-22
1.91811e-22
2.05912e-21
5.88437e-22
7.86948e-22
1.47915e-21
2.21508e-21
3.60987e-21
2.35661e-21
6.20212e-22
1.37898e-21
2.94258e-21
9.66634e-24
6.05849e-22
1.87388e-22
8.39345e-22
4.15986e-21
3.7122e-21
1.78485e-21
1.70557e-21
7.6363e-21
2.63628e-21
1.95606e-22
3.01685e-22
4.89864e-21
1.78063e-22
1.53888e-21
3.43347e-21
8.77476e-22
2.2847e-21
1.87507e-21
1.69596e-21
1.27282e-21
2.34489e-21
4.58741e-21
1.73292e-21
9.11021e-23
7.97764e-22
1.4951e-21
5.91671e-22
2.50142e-21
2.58424e-21
5.46822e-22
2.32589e-21
2.13639e-21
7.13742e-22
4.61903e-21
7.35737e-22
2.61327e-21
6.77195e-24
4.1561e-22
3.4135e-23
4.07222e-21
6.07302e-22
4.98448e-22
1.05109e-20
1.08183e-21
9.60547e-22
3.31197e-21
2.13756e-21
1.73297e-21
2.89731e-21
6.27226e-22
2.21473e-21
1.83617e-21
1.3965e-21
2.68948e-21
1.42773e-21
1.04721e-21
1.29901e-21
2.03556e-21
3.43883e-21
1.51178e-21
1.52109e-21
1.8749e-22
8.67643e-21
1.74597e-21
8.36391e-22
3.49665e-21
7.61659e-22
1.88697e-21
4.18519e-22
2.65581e-21
1.15857e-22
3.07989e-22
1.12125e-21
6.12073e-22
4.68842e-21
4.3044e-22
1.96334e-21
2.03208e-21
4.66596e-21
9.82379e-22
1.98518e-21
9.9674e-21
1.09787e-21
4.42605e-21
3.16684e-21
5.46827e-22
1.43282e-20
1.18643e-21
2.3212e-21
6.36604e-21
4.73764e-22
7.10988e-22
2.14341e-21
3.20875e-21
4.76613e-21
2.2488e-21
2.07285e-21
1.39524e-22
8.47052e-22
1.08493e-22
1.69489e-21
7.8148e-22
1.19589e-22
8.5402e-22
7.6914e-22
3.13509e-22
6.61769e-21
3.81208e-22
3.72395e-21
1.64782e-22
8.65102e-22
2.66086e-21
1.94828e-21
1.82275e-21
2.21606e-21
9.86133e-22
7.49254e-21
1.16793e-21
1.66299e-21
3.8454e-21
3.13747e-21
1.22021e-21
1.30538e-21
5.35743e-22
3.77911e-21
3.42425e-21
1.1407e-21
2.2688e-21
2.17836e-24
2.21796e-21
3.78305e-21
9.28944e-21
6.6432e-22
6.34081e-22
3.50125e-21
1.50645e-21
8.70564e-22
1.00397e-21
4.52521e-22
1.67443e-21
2.90616e-21
2.88966e-21
2.00337e-21
6.03384e-22
3.98279e-21
1.03206e-21
6.14242e-22
1.19392e-21
3.72345e-21
8.54994e-23
2.23681e-21
9.44981e-22
8.78821e-22
9.52084e-22
9.07917e-22
2.23906e-21
1.45537e-21
4.99927e-21
3.80605e-21
2.04943e-21
1.16952e-21
2.28312e-21
1.74607e-21
7.87324e-22
5.19843e-22
3.83557e-22
1.18765e-21
2.23875e-21
3.87119e-21
2.25088e-22
3.59509e-21
1.59083e-21
5.02675e-22
1.13126e-21
1.53137e-21
1.64422e-21
1.7247e-22
1.94194e-21
2.52061e-22
6.21981e-21
7.56585e-21
1.42828e-21
1.11169e-22
1.34509e-21
2.10634e-21
9.56495e-22
2.02948e-21
2.51834e-21
1.49492e-21
7.97304e-22
2.92964e-21
5.30628e-21
6.20556e-22
4.04866e-22
2.51894e-21
7.78397e-22
1.21075e-21
6.64391e-22
5.99761e-22
5.11612e-21
9.97122e-23
1.80434e-21
3.14246e-22
8.27062e-23
1.20666e-22
7.27388e-21
1.95573e-22
2.98383e-21
1.61606e-21
1.29461e-22
3.99885e-21
1.82666e-22
3.26359e-22
1.58009e-22
2.1179e-22
5.03845e-22
8.90143e-22
2.00507e-21
2.06009e-21
2.61574e-21
7.14349e-22
4.10754e-21
1.17571e-21
1.16852e-22
3.03417e-22
1.09498e-21
2.1262e-21
2.96833e-21
8.76118e-22
5.48129e-23
2.18527e-22
8.2479e-24
1.5955e-23
1.24802e-21
2.93118e-22
4.03093e-23
1.32051e-21
3.09178e-21
9.44421e-22
1.19176e-21
4.3448e-21
4.03369e-22
2.11946e-21
2.37387e-21
1.73449e-21
1.83654e-21
1.08293e-22
3.24075e-22
1.80076e-21
4.63258e-21
2.36679e-22
2.41477e-21
2.56481e-22
6.18733e-21
8.67794e-22
3.12591e-21
2.46251e-21
7.11653e-21
1.20219e-21
3.24134e-21
9.44189e-22
3.13408e-21
7.65418e-22
3.1166e-22
2.03634e-21
4.31562e-21
1.31539e-21
7.75733e-22
7.88638e-22
1.44968e-21
4.8255e-21
7.87801e-22
2.85864e-22
2.58212e-21
4.76121e-22
8.73494e-22
4.46458e-22
2.72125e-21
2.06898e-21
3.55932e-21
3.51528e-21
1.9116e-21
6.09052e-22
3.33279e-21
3.58869e-21
2.93245e-22
9.05214e-22
4.82281e-21
4.11504e-22
2.67714e-22
6.43334e-22
2.27767e-21
7.55933e-22
1.8401e-21
2.85101e-21
7.72876e-22
9.88345e-23
6.33219e-21
6.09806e-21
3.06763e-21
1.81997e-21
1.89307e-22
2.41286e-21
1.91368e-22
1.37528e-21
6.12782e-22
1.89965e-21
6.7938e-21
5.67072e-21
5.06873e-22
9.22059e-22
2.8655e-21
3.71316e-22
1.35095e-21
2.43933e-21
1.43837e-22
5.34602e-23
2.51729e-21
3.26439e-21
6.40922e-21
7.42658e-22
1.29446e-22
2.94754e-22
1.42201e-21
4.15975e-21
3.94222e-21
8.84491e-21
3.46337e-21
9.0222e-22
2.73437e-21
9.01355e-22
2.40062e-21
1.07961e-21
5.65753e-21
2.14017e-21
2.24657e-23
9.37677e-23
8.02677e-21
4.73376e-21
4.94263e-21
1.11581e-21
2.50028e-21
1.40031e-21
5.90271e-22
3.4044e-21
5.65623e-23
1.48026e-21
4.15006e-21
1.28675e-22
7.59632e-22
4.56495e-21
5.02243e-21
5.44589e-22
3.21254e-22
1.85514e-21
2.33392e-22
1.02606e-21
1.41266e-21
3.54898e-22
1.15649e-21
2.61317e-21
1.61597e-21
4.55642e-22
1.90929e-21
2.7272e-22
2.30448e-22
1.05799e-22
1.96283e-23
5.63596e-22
2.717e-21
1.2988e-22
2.00794e-22
6.24772e-22
1.33611e-21
1.06346e-21
6.14139e-22
6.2722e-22
9.08589e-22
9.21145e-22
2.35193e-21
1.621e-22
1.57087e-21
9.6686e-22
8.95534e-22
2.34352e-21
4.33396e-22
3.99207e-22
6.23921e-22
3.36651e-22
3.20391e-21
4.76732e-21
1.60286e-21
6.4813e-22
1.71394e-21
6.66543e-23
2.34464e-21
1.36847e-21
1.42839e-21
1.8452e-22
2.07449e-21
2.31955e-22
1.55716e-22
2.9376e-21
1.46058e-21
1.56244e-21
1.66258e-21
3.59464e-22
8.23682e-22
4.01911e-21
1.08526e-21
7.46123e-21
3.77784e-21
8.93919e-23
1.36162e-21
1.34364e-21
1.65096e-22
3.4027e-21
2.71396e-21
1.89662e-21
4.31867e-22
1.85016e-21
5.79619e-21
1.50144e-22
1.26507e-21
3.05732e-22
5.66433e-22
1.57822e-21
1.34118e-22
1.20524e-21
8.71449e-22
3.49339e-22
3.34429e-21
3.87392e-22
8.96882e-22
2.10287e-23
1.53293e-21
1.04633e-21
5.0401e-22
4.92352e-22
4.73822e-21
4.36273e-22
7.49341e-22
2.09397e-21
3.07308e-22
1.09299e-21
1.96619e-21
6.62118e-21
3.04234e-21
3.3965e-22
3.39893e-21
2.18835e-21
4.31967e-21
2.52386e-21
1.06246e-21
6.62735e-22
5.087e-22
2.00137e-22
1.88013e-21
8.47181e-23
3.13103e-22
1.17591e-21
3.13474e-21
1.42747e-21
4.08126e-21
2.39424e-21
1.41556e-21
1.34437e-21
4.36159e-22
2.36462e-21
1.44368e-21
7.67792e-21
1.45618e-22
5.55999e-22
4.09492e-22
2.71062e-22
1.9906e-21
5.19232e-22
1.54293e-22
1.09304e-21
1.8316e-21
1.99641e-21
2.54859e-21
1.20814e-22
2.28819e-22
1.72493e-21
3.26649e-21
1.97726e-21
2.70281e-23
5.29176e-22
4.53803e-22
5.53522e-22
1.0476e-22
1.80452e-21
3.64063e-21
7.70417e-22
1.2765e-21
4.18381e-22
4.63237e-22
2.08659e-21
1.95679e-21
4.72477e-22
2.35759e-21
1.1052e-21
1.26539e-21
1.01394e-21
1.76803e-21
3.33072e-22
3.30374e-21
2.82248e-21
7.76087e-21
8.7018e-22
2.72043e-21
1.26031e-21
7.5859e-22
8.94235e-21
3.55609e-21
1.15304e-21
2.19978e-21
2.63361e-21
1.09179e-20
9.78827e-23
1.36999e-22
1.6703e-21
2.65155e-21
3.57086e-21
4.65342e-21
9.94759e-22
1.79483e-23
3.41727e-21
4.48955e-22
1.47087e-21
2.86044e-21
5.67456e-22
4.01187e-21
2.23736e-21
7.56355e-23
2.93047e-21
1.90117e-21
1.31035e-21
1.10468e-21
2.5038e-21
1.65583e-21
2.6161e-21
9.29297e-22
2.02073e-21
2.23273e-21
2.39384e-22
3.75987e-21
2.16493e-21
4.50354e-22
8.6223e-22
1.34276e-21
6.59909e-21
5.69376e-22
4.10821e-21
2.50083e-21
3.00335e-21
1.02821e-21
1.58355e-21
2.32256e-21
4.6333e-22
2.22604e-21
7.99675e-22
5.56064e-22
8.12249e-22
2.79861e-21
1.69336e-21
1.00046e-22
6.17237e-22
1.67663e-21
4.23543e-21
9.57946e-23
4.89175e-22
1.99683e-21
8.18941e-23
6.70889e-22
4.79152e-21
2.00504e-21
3.0827e-21
6.81257e-22
6.93335e-22