/*--------------------------------*- C++ -*----------------------------------*\
  =========                 |
  \\      /  F ield         | OpenFOAM: The Open Source CFD Toolbox
   \\    /   O peration     | Website:  https://openfoam.org
    \\  /    A nd           | Version:  7
     \\/     M anipulation  |
\*---------------------------------------------------------------------------*/
FoamFile
{
    version     2.0;
    format      ascii;
    class       volScalarField;
    location    "0.00216";
    object      iDof;
}
// * * * * * * * * * * * * * * * * * * * * * * * * * * * * * * * * * * * * * //

dimensions      [0 -3 0 0 0 0 0];

internalField   nonuniform List<scalar> 
125
(
1.79286e+23
1.8e+23
1.92857e+23
1.87143e+23
1.74286e+23
1.68571e+23
1.77857e+23
1.64286e+23
1.83571e+23
1.95e+23
1.86429e+23
1.87857e+23
1.73571e+23
1.90714e+23
1.73571e+23
1.85e+23
1.83571e+23
1.57143e+23
1.89286e+23
1.67857e+23
1.94286e+23
1.83571e+23
1.82143e+23
1.89286e+23
1.95714e+23
1.84286e+23
1.55e+23
1.84286e+23
1.89286e+23
1.77143e+23
1.84286e+23
1.55e+23
1.73571e+23
1.75e+23
1.77143e+23
1.65714e+23
1.55e+23
1.68571e+23
1.57143e+23
1.66429e+23
1.67857e+23
1.66429e+23
1.63571e+23
1.68571e+23
1.53571e+23
1.52143e+23
1.49286e+23
1.52857e+23
1.49286e+23
1.43571e+23
1.42857e+23
1.65e+23
1.53571e+23
1.54286e+23
1.27143e+23
1.46429e+23
1.28571e+23
1.45e+23
1.42857e+23
1.36429e+23
1.2e+23
1.29286e+23
1.33571e+23
1.36429e+23
1.47857e+23
1.36429e+23
1.41429e+23
1.45714e+23
1.37143e+23
1.15e+23
1.12143e+23
1.29286e+23
1.38571e+23
1.32143e+23
1.30714e+23
1.13571e+23
1.30714e+23
1.36429e+23
1.26429e+23
1.14286e+23
1.22857e+23
1.32143e+23
1.11429e+23
1.19286e+23
1e+23
9.14286e+22
1.05e+23
9.85714e+22
1.1e+23
8.64286e+22
1.06429e+23
1.08571e+23
1.22143e+23
1.00714e+23
9.5e+22
1e+23
1.10714e+23
9.35714e+22
8.78571e+22
9.57143e+22
1.01429e+23
9.5e+22
1.02143e+23
9.21429e+22
8.64286e+22
9.5e+22
8.85714e+22
8.85714e+22
1.01429e+23
9.5e+22
8.71429e+22
9.21429e+22
8.78571e+22
9.5e+22
9.85714e+22
8.42857e+22
9.07143e+22
8.78571e+22
9.28571e+22
8.28571e+22
8.07143e+22
9.64286e+22
9.71429e+22
9.78571e+22
9.42857e+22
)
;

boundaryField
{
    sides
    {
        type            symmetry;
    }
    empty
    {
        type            empty;
    }
    procBoundary1to0
    {
        type            processor;
        value           uniform 1.87143e+23;
    }
    procBoundary1to2
    {
        type            processor;
        value           uniform 7.71429e+22;
    }
}


// ************************************************************************* //
