/*--------------------------------*- C++ -*----------------------------------*\
  =========                 |
  \\      /  F ield         | OpenFOAM: The Open Source CFD Toolbox
   \\    /   O peration     | Website:  https://openfoam.org
    \\  /    A nd           | Version:  7
     \\/     M anipulation  |
\*---------------------------------------------------------------------------*/
FoamFile
{
    version     2.0;
    format      ascii;
    class       volScalarField;
    location    "0.00216";
    object      internalE;
}
// * * * * * * * * * * * * * * * * * * * * * * * * * * * * * * * * * * * * * //

dimensions      [1 -1 -2 0 0 0 0];

internalField   nonuniform List<scalar> 
125
(
1100.07
1101.38
1197.04
1158.99
1089.57
1134.73
1048.19
986.969
1252.55
1246.52
1151.44
1206.76
1149.86
1259.5
1046.32
1115.79
1130.56
965.907
1115.69
1082.54
1122.11
1268.14
1144.87
1240.93
1232.89
1126.84
971.504
1133.1
1235.51
1079.62
1159.16
995.08
972.513
955.286
1112.1
1039.01
1037.33
979.983
984.579
1008.79
879.916
1070.81
966.769
995.221
952.236
867.287
940.779
940.823
890.009
776.838
837.906
996.888
908.99
875.378
751.297
862.844
727.889
877.306
758.393
892.015
705.346
662.969
592.086
729.391
852.633
708.624
713.179
820.723
695.309
582.829
611.289
669.82
626.847
752.046
697.662
621.497
678.799
795.314
708.313
636.471
505.156
600.617
483.621
716.476
491.196
509.64
507.249
502.885
506.35
459.226
641.904
562.545
624.184
543.714
521.261
453.77
561.443
485.3
409.415
449.815
459.441
440.8
469.822
453.694
358.588
378.173
434.093
370.767
497.626
435.475
389.611
465.293
391.162
508.76
525.618
341.935
461.462
446.305
405.609
457.114
344.798
431.87
520.772
437.729
423.07
)
;

boundaryField
{
    sides
    {
        type            symmetry;
    }
    empty
    {
        type            empty;
    }
    procBoundary1to0
    {
        type            processor;
        value           uniform 1109.04;
    }
    procBoundary1to2
    {
        type            processor;
        value           uniform 331.885;
    }
}


// ************************************************************************* //
