/*--------------------------------*- C++ -*----------------------------------*\
  =========                 |
  \\      /  F ield         | OpenFOAM: The Open Source CFD Toolbox
   \\    /   O peration     | Website:  https://openfoam.org
    \\  /    A nd           | Version:  7
     \\/     M anipulation  |
\*---------------------------------------------------------------------------*/
FoamFile
{
    version     2.0;
    format      ascii;
    class       volScalarField;
    location    "0.00216";
    object      linearKE;
}
// * * * * * * * * * * * * * * * * * * * * * * * * * * * * * * * * * * * * * //

dimensions      [1 -1 -2 0 0 0 0];

internalField   nonuniform List<scalar> 
125
(
1619.41
1618.34
1960.01
1696.9
1682.74
1511.27
1701.6
1364.54
1662.27
1877.58
1576.22
1818.34
1513.12
1834.68
1509.75
1786.01
1755.12
1526.25
1742.27
1520.84
1877.24
1633.57
1590.82
1790.12
1839.5
1669.86
1544.19
1695.07
1703.01
1578.26
1518.54
1417.12
1588.96
1504.56
1710.71
1456.78
1343.58
1541.25
1281.36
1574.86
1382.07
1359.64
1582.43
1554.19
1373.4
1425.45
1401.8
1351.78
1244.81
1306.45
1232.76
1452.6
1410.85
1341.11
1147.45
1182.44
1198.52
1209.72
1248.66
1164.76
970.805
1036.06
1198.21
1207.96
1206.77
1256.95
1423.78
1355.5
1118.46
952.104
867.776
1153.61
1294.42
1107.09
1071.88
950.368
1209.51
1035.02
1078.4
982.109
1020.25
1112.93
1064.19
1038.16
796.355
839.194
987.027
835.013
937.739
780.495
948.242
1080.33
1087.8
824.079
910.349
831.095
1055.94
765.486
773.755
769.951
931.834
885.407
951.714
737.638
665.41
919.733
706.06
737.157
830.312
751.007
775.234
804.258
724.613
804.658
910.712
800.37
751.188
745.676
798.533
672.456
698.142
773.723
904.453
910.896
783.902
)
;

boundaryField
{
    sides
    {
        type            symmetry;
    }
    empty
    {
        type            empty;
    }
    procBoundary1to0
    {
        type            processor;
        value           uniform 1734.04;
    }
    procBoundary1to2
    {
        type            processor;
        value           uniform 715.507;
    }
}


// ************************************************************************* //
