/*--------------------------------*- C++ -*----------------------------------*\
  =========                 |
  \\      /  F ield         | OpenFOAM: The Open Source CFD Toolbox
   \\    /   O peration     | Website:  https://openfoam.org
    \\  /    A nd           | Version:  7
     \\/     M anipulation  |
\*---------------------------------------------------------------------------*/
FoamFile
{
    version     2.0;
    format      ascii;
    class       scalarField;
    location    "0.006/lagrangian/dsmc";
    object      Ei;
}
// * * * * * * * * * * * * * * * * * * * * * * * * * * * * * * * * * * * * * //


10852
(
2.77883e-21
6.08366e-21
4.38586e-21
1.89904e-21
4.31872e-22
2.55459e-20
4.85926e-21
2.06608e-21
3.44378e-21
2.47463e-21
8.24747e-21
4.88357e-21
7.37575e-21
1.10137e-20
2.99266e-21
1.04895e-20
4.71478e-21
3.22976e-21
4.35299e-21
2.40459e-21
1.23433e-20
4.72554e-21
2.84249e-21
1.70976e-21
4.16285e-21
1.22544e-21
1.8658e-21
3.10411e-21
4.26864e-21
2.25661e-22
8.26151e-21
8.54627e-21
1.1091e-20
9.25577e-21
7.6704e-21
4.27544e-21
4.5918e-21
2.89471e-21
8.70775e-22
2.12615e-21
1.68063e-20
1.18255e-21
1.0604e-20
3.588e-21
4.00512e-22
2.62613e-20
5.5437e-21
4.88242e-22
6.23656e-21
4.10506e-21
1.57905e-21
1.42071e-21
1.18912e-22
1.60249e-21
1.79701e-21
4.07813e-21
1.57249e-21
9.552e-21
3.59342e-21
5.14825e-21
1.46756e-20
2.05486e-21
5.72897e-21
5.58606e-21
2.57066e-20
7.97367e-21
4.36804e-21
2.23207e-20
7.40331e-21
4.10172e-21
2.1226e-21
1.74763e-20
3.49559e-21
1.11649e-20
5.07373e-21
6.25279e-23
2.21008e-21
1.72633e-21
2.36882e-22
1.58744e-21
1.1945e-21
1.13507e-22
8.81216e-22
8.10731e-21
1.35335e-21
3.46691e-21
1.10684e-20
5.27332e-21
2.80547e-21
4.30475e-21
7.92096e-21
2.84491e-21
6.67969e-21
5.40965e-22
6.18694e-22
4.01343e-22
9.47862e-21
1.24236e-21
1.02339e-21
5.62759e-21
1.73904e-21
3.9146e-22
1.20171e-20
1.98397e-21
2.92605e-21
1.03717e-22
1.38192e-21
1.27907e-20
2.47844e-21
7.01241e-22
8.22895e-23
2.47113e-21
7.25114e-21
2.912e-22
1.03436e-21
4.46655e-21
2.20402e-21
2.6414e-21
8.17699e-21
3.32284e-21
3.42453e-21
4.98923e-21
2.82188e-21
2.37253e-20
1.29974e-21
2.63047e-21
1.33219e-20
6.16665e-21
2.48644e-22
3.6588e-21
2.70219e-21
3.86726e-21
1.96035e-21
1.21816e-22
3.33094e-21
5.63712e-22
1.52602e-21
4.94968e-21
9.64606e-21
1.16954e-20
6.46287e-22
4.53357e-21
5.33374e-21
1.8161e-20
2.18866e-21
2.38433e-21
2.17083e-22
2.98864e-21
7.85813e-21
2.53784e-22
2.46116e-21
2.54664e-22
4.45001e-21
1.05838e-20
2.53114e-22
2.26013e-21
5.21309e-21
7.28002e-21
1.35909e-21
2.33912e-21
9.20984e-21
5.49063e-21
7.66312e-21
9.85838e-21
1.52666e-21
1.27658e-21
3.37078e-21
7.24125e-21
1.16393e-20
3.08772e-21
3.00576e-21
1.42022e-20
5.70787e-21
7.3505e-21
8.38287e-21
2.87043e-21
8.2863e-21
7.10478e-22
1.74421e-21
1.9331e-21
1.06586e-22
1.07944e-20
2.37035e-21
2.05841e-21
3.11706e-22
2.54577e-21
4.29136e-21
1.64638e-21
6.49577e-21
1.34756e-20
5.46292e-21
1.61885e-21
2.48119e-20
2.51518e-21
3.32234e-21
6.93079e-21
1.44597e-20
7.27887e-21
1.77059e-21
1.71826e-21
1.40887e-20
4.1167e-21
1.8444e-22
2.15152e-21
1.44817e-20
2.17785e-21
1.71231e-21
1.8148e-20
2.12115e-21
9.47895e-22
6.78988e-21
2.17978e-21
3.25373e-21
3.65582e-22
5.78712e-21
4.62515e-21
2.41628e-20
5.5638e-21
1.69432e-20
8.01142e-21
3.57056e-21
2.72613e-22
9.03958e-21
5.65605e-21
8.92567e-22
3.09572e-21
5.85648e-21
4.03603e-21
3.61286e-21
3.03048e-22
1.7305e-22
1.57589e-20
1.12854e-21
4.2224e-21
1.21559e-20
9.88491e-22
1.23295e-21
6.87246e-21
3.38124e-21
1.01213e-20
1.48199e-20
2.72939e-22
4.69113e-21
7.05547e-21
2.47164e-21
4.02156e-21
2.95046e-21
1.29125e-20
6.34538e-22
1.69425e-21
1.15766e-20
5.35278e-21
9.64329e-22
8.51323e-23
6.72443e-21
6.91305e-21
4.61376e-21
7.83504e-21
1.124e-20
3.27566e-22
3.87666e-21
2.20436e-20
3.62683e-23
8.43272e-21
2.1746e-21
6.84956e-21
4.30962e-21
7.88555e-22
1.06761e-21
1.31509e-20
6.71259e-21
2.77696e-21
1.73643e-21
4.69411e-21
2.75348e-21
4.07693e-21
8.28108e-21
4.14549e-21
9.00606e-22
1.73802e-23
1.08039e-20
6.5225e-21
3.10171e-21
3.28979e-20
2.35456e-21
9.16656e-21
7.47347e-21
9.14601e-21
8.64826e-22
5.05279e-22
1.05767e-20
9.91616e-22
1.91152e-20
6.62171e-21
1.52556e-21
1.36498e-21
1.02575e-20
1.96136e-22
1.79497e-21
1.36051e-21
5.5504e-24
8.11707e-21
1.23486e-20
1.13428e-20
7.23349e-21
2.09874e-20
1.03793e-21
1.12698e-21
2.53392e-21
1.28555e-20
6.40349e-22
2.92612e-21
2.11576e-21
2.23925e-21
2.39976e-21
1.35507e-20
8.73139e-21
5.53262e-21
1.29021e-21
4.72429e-21
4.19286e-21
4.45126e-21
2.14141e-20
3.99696e-23
1.60774e-21
1.38961e-20
8.07786e-21
3.52714e-21
2.26974e-20
1.61731e-22
1.0437e-20
3.86295e-22
8.50066e-21
1.79246e-21
1.0007e-21
9.68715e-21
2.94189e-20
1.11133e-20
2.96512e-21
5.49793e-21
1.24656e-21
2.49706e-20
1.06669e-20
5.7525e-21
2.52448e-20
1.87383e-21
7.17609e-21
3.70056e-21
6.39172e-21
2.74161e-21
2.49871e-21
1.34793e-20
4.36758e-21
3.04097e-22
4.68658e-21
4.91164e-21
1.33561e-20
8.88439e-21
8.51428e-21
2.23227e-21
9.35229e-22
3.18844e-21
2.13104e-21
9.27082e-21
2.17963e-21
2.98948e-21
5.06555e-21
9.30696e-21
1.87129e-20
2.36506e-21
8.04622e-22
3.04625e-21
5.66207e-21
1.36495e-21
5.9902e-21
3.61388e-22
2.19655e-20
2.00132e-20
1.14093e-20
4.48325e-22
2.71593e-22
1.71251e-22
8.3345e-21
1.25944e-20
1.16513e-21
3.09846e-21
2.42807e-21
2.66361e-22
5.40354e-22
1.97798e-21
1.66168e-21
4.95218e-22
1.28687e-21
2.41115e-21
2.34832e-21
6.4199e-22
1.96084e-21
1.7796e-21
1.55003e-21
1.39745e-20
5.6077e-22
1.07393e-22
5.01739e-21
4.40176e-21
7.42014e-21
1.03573e-21
3.21188e-21
1.1974e-21
1.91125e-20
4.75157e-21
3.37654e-21
1.96737e-20
5.39262e-21
6.15528e-21
6.9607e-22
5.84325e-22
7.96586e-21
4.78346e-21
3.68521e-22
1.15384e-21
4.88264e-21
8.20043e-23
3.46537e-21
3.93843e-21
1.81152e-21
5.66678e-22
3.57668e-21
9.03874e-21
8.98853e-21
2.78494e-20
2.61499e-21
8.41946e-21
1.29332e-20
1.38066e-21
4.74722e-21
5.56046e-21
7.43262e-22
4.53073e-21
1.81011e-21
9.52656e-23
7.75453e-21
6.5152e-21
9.73131e-21
5.84935e-21
1.62181e-20
7.24158e-22
1.04805e-21
1.67947e-20
6.36035e-21
1.93175e-21
6.45942e-22
1.05596e-22
6.44429e-21
6.93503e-21
7.68356e-22
2.92632e-21
3.97101e-21
4.47158e-21
2.75269e-21
4.55336e-21
1.98623e-21
1.9512e-21
8.47643e-21
5.58514e-21
4.83965e-21
6.08108e-21
9.53139e-21
1.05919e-20
4.29815e-21
1.40391e-20
3.26365e-21
1.67204e-21
5.63779e-21
7.06793e-21
1.13666e-20
5.92735e-21
1.77929e-21
1.12151e-21
3.2569e-21
1.34805e-20
1.12514e-21
5.20934e-21
1.41748e-20
9.74333e-22
4.53016e-21
1.54457e-20
3.60213e-21
4.91025e-21
7.87219e-22
3.70236e-21
1.71578e-20
1.54377e-21
8.33809e-22
5.96768e-21
4.17343e-21
4.10074e-21
5.26463e-21
2.16195e-21
5.87109e-22
2.72739e-21
1.66897e-21
2.4821e-22
1.5335e-21
1.90005e-21
3.02627e-21
4.37247e-21
1.15323e-20
1.69837e-21
1.42872e-21
5.03809e-21
4.77684e-23
2.96176e-21
9.09591e-21
9.77364e-22
2.36657e-21
1.13963e-20
9.6744e-21
3.39579e-21
4.62635e-22
6.48571e-21
1.76926e-21
5.18458e-21
1.95588e-21
7.73832e-21
1.8847e-20
1.81218e-21
3.45649e-21
1.12833e-22
1.70695e-21
1.08875e-20
3.33019e-22
4.3043e-21
1.62915e-21
1.7478e-21
5.15751e-21
3.39016e-21
9.3815e-23
3.44186e-21
4.40884e-21
4.73658e-22
8.11867e-22
2.79915e-21
7.10152e-22
1.29436e-20
9.77488e-23
3.49543e-22
9.70581e-22
6.21225e-21
1.19784e-21
1.00922e-20
5.6954e-21
6.12506e-21
4.30979e-21
5.11197e-21
6.8248e-21
4.80874e-21
2.5328e-22
6.00651e-21
8.78351e-21
2.94867e-21
2.07626e-21
6.90905e-21
1.37579e-20
2.48969e-21
1.14044e-21
5.29117e-21
3.42449e-21
1.49203e-21
1.0343e-20
1.3225e-20
5.16019e-21
2.06665e-21
4.66178e-21
2.70736e-21
7.74875e-21
8.50172e-21
1.45014e-21
2.18185e-21
3.92145e-21
5.31732e-22
8.42692e-21
2.47725e-21
5.19876e-21
3.07634e-21
9.78493e-21
1.22066e-20
1.63861e-20
1.28754e-21
5.47215e-21
1.48493e-21
4.83459e-22
9.14694e-21
5.09833e-21
5.41173e-21
9.89881e-23
2.78687e-21
1.53712e-20
3.40415e-22
3.34044e-22
3.62514e-21
2.79237e-22
3.69644e-21
3.0097e-21
4.55335e-24
1.78048e-20
4.72854e-21
1.3409e-21
1.94273e-21
6.78132e-21
2.70474e-21
1.227e-20
8.78517e-22
6.20857e-22
1.29315e-22
1.73783e-21
4.49073e-21
6.00085e-21
3.06233e-21
3.93098e-22
8.45753e-21
1.90262e-21
1.33454e-21
4.50543e-21
1.01196e-20
2.7074e-21
9.62168e-22
1.18235e-21
1.94338e-21
3.22588e-20
8.22741e-21
1.4585e-20
1.12045e-20
1.43807e-21
5.00866e-21
6.48789e-21
2.53039e-21
1.68172e-20
1.1328e-21
9.50819e-22
2.42334e-21
2.27455e-22
9.02924e-21
5.48722e-21
4.25073e-21
8.32587e-21
6.44594e-21
9.2199e-21
7.9261e-21
6.42599e-21
1.97942e-21
1.51238e-22
3.076e-21
6.30826e-21
1.06354e-20
3.67687e-21
1.01568e-21
2.06e-21
7.35119e-22
6.08042e-21
9.61161e-21
8.20123e-21
2.21593e-20
1.36398e-22
2.08194e-21
9.91644e-21
4.73934e-21
1.53042e-20
1.40778e-22
5.82516e-21
8.59197e-22
8.47029e-23
1.77936e-21
2.43138e-20
1.87372e-21
2.15374e-21
3.2991e-21
2.99054e-21
1.50053e-20
1.4268e-20
1.15296e-22
9.84215e-21
1.45057e-21
3.48654e-21
1.12534e-20
2.08079e-21
1.81134e-21
9.28915e-21
6.53579e-21
4.23909e-21
4.28688e-21
1.14871e-21
5.07357e-21
1.28035e-20
6.02402e-23
3.45569e-21
7.51929e-22
1.19697e-21
1.68969e-20
7.43422e-21
1.04372e-21
9.99301e-21
2.94235e-21
3.54912e-21
3.06298e-22
7.06211e-21
1.82949e-24
6.30366e-21
9.33424e-22
2.3752e-21
1.97295e-21
7.44852e-21
2.43596e-21
1.3078e-21
1.30297e-21
2.36841e-20
4.38016e-21
7.36796e-21
1.54104e-20
5.82496e-21
1.65566e-21
6.51649e-21
6.49771e-22
3.28539e-21
8.73106e-22
6.38458e-21
3.13446e-22
1.60412e-22
7.13555e-21
4.5615e-21
2.3312e-21
2.06955e-21
4.57687e-21
2.85796e-21
7.81281e-21
8.21105e-21
1.91018e-20
5.08674e-21
4.04506e-21
7.20999e-21
3.22812e-21
3.38149e-21
3.9832e-22
4.2563e-23
4.82967e-21
1.20965e-20
1.98883e-20
1.41882e-21
5.40468e-21
2.98294e-21
3.53317e-21
1.40641e-20
1.04084e-20
1.27232e-21
1.03621e-20
5.28797e-21
1.90167e-20
3.97767e-22
2.19959e-21
8.55749e-21
7.99048e-21
8.22182e-22
2.8588e-21
7.04487e-21
3.10992e-21
1.82237e-20
1.89667e-21
2.94137e-21
1.44547e-21
1.21031e-22
5.65964e-21
4.72791e-21
2.46988e-20
7.50127e-21
4.33646e-21
5.94987e-22
3.20568e-21
8.91121e-21
5.38523e-22
1.46935e-21
2.54321e-21
7.62039e-21
1.96009e-20
1.83315e-21
4.92358e-22
4.49525e-21
7.63617e-23
1.32651e-21
3.39813e-21
4.25787e-21
3.29954e-21
4.68615e-21
1.47252e-20
4.82475e-21
4.29837e-23
3.73851e-22
2.95932e-21
3.98555e-21
8.008e-21
4.24414e-21
5.02633e-22
1.13109e-20
1.37085e-21
2.05814e-21
1.38866e-20
3.06215e-21
3.82094e-21
5.96129e-21
1.31113e-20
2.99124e-21
3.87935e-21
7.82207e-21
2.74691e-21
4.95189e-21
3.56188e-21
5.33166e-22
6.70771e-21
6.10682e-21
2.14041e-20
1.56114e-20
2.75743e-21
3.66196e-21
5.15313e-21
1.24501e-20
4.10716e-21
1.03558e-21
6.81207e-21
1.21105e-20
1.27832e-21
2.50599e-21
3.79618e-22
5.77947e-22
1.43303e-21
1.08533e-21
2.42043e-21
1.37378e-23
6.43209e-21
2.6013e-21
2.35388e-22
9.42198e-21
8.89444e-21
3.10661e-21
3.06325e-22
1.71318e-21
1.7279e-20
8.68442e-22
2.95556e-23
8.22225e-21
6.89551e-22
4.98277e-21
2.23527e-20
2.97224e-22
5.40768e-21
5.64109e-22
4.94965e-21
3.64458e-21
2.04152e-22
2.81757e-22
1.04288e-20
5.87654e-21
3.42777e-21
9.37057e-22
2.65171e-22
1.10869e-21
1.52961e-21
3.86745e-21
6.66451e-21
6.3638e-21
5.01192e-21
3.53771e-22
6.20388e-22
6.83798e-22
1.62736e-20
4.117e-21
1.0525e-20
2.72707e-21
7.54124e-22
2.81742e-21
4.00332e-21
3.14361e-21
1.22029e-20
1.5274e-20
2.18672e-22
1.2961e-20
2.53639e-21
9.09058e-21
4.49684e-21
1.28945e-21
1.15694e-21
8.69736e-21
1.44418e-21
2.56002e-21
5.05544e-21
2.88624e-21
4.55659e-21
7.05941e-21
6.54279e-22
2.39898e-21
5.2491e-21
1.8527e-21
3.76029e-21
9.65017e-22
2.32327e-22
5.07451e-21
8.1324e-21
1.87687e-20
3.5227e-21
1.07387e-20
2.05407e-21
1.12994e-21
1.8471e-22
1.76493e-21
1.33811e-21
1.09525e-20
3.41327e-21
5.95312e-21
5.5352e-22
3.42564e-22
7.63394e-21
3.65913e-21
3.19499e-21
3.8058e-22
2.42127e-21
1.00964e-22
1.14385e-21
8.77753e-21
8.42955e-21
1.16634e-21
8.48922e-21
4.39597e-21
1.89326e-20
5.42449e-21
9.53849e-21
2.22767e-21
8.80164e-21
9.55375e-22
2.40216e-21
1.66029e-22
2.83773e-21
1.48989e-20
2.3283e-21
1.63917e-20
8.84243e-21
1.20938e-21
4.31123e-21
9.74222e-23
3.35487e-21
1.11239e-20
8.0565e-21
5.09002e-21
8.41844e-21
2.12116e-20
4.8455e-21
1.85765e-21
1.08006e-21
5.19525e-21
3.30889e-21
1.49072e-20
1.66932e-22
6.17505e-22
2.42021e-21
3.05352e-21
2.26133e-20
4.63921e-21
1.77637e-21
9.1082e-22
1.91871e-21
3.77048e-21
2.39355e-21
3.15102e-22
1.58229e-21
6.28049e-22
8.43142e-21
4.73032e-21
1.84201e-21
1.48331e-20
3.52707e-22
9.02504e-21
7.62649e-21
2.01529e-21
3.96e-21
1.14343e-20
4.96115e-21
8.41876e-21
6.54084e-21
3.34374e-21
4.24356e-22
1.79997e-20
1.6688e-22
3.27952e-21
1.20727e-20
3.01858e-21
1.80842e-21
2.35963e-21
1.54367e-20
9.40633e-21
4.78116e-21
8.80431e-21
1.62326e-21
5.22773e-21
8.54769e-21
3.98664e-22
6.70232e-21
7.77296e-21
6.42698e-21
1.32594e-21
1.1115e-20
1.55301e-20
5.03452e-21
6.37152e-21
8.76243e-22
1.18776e-21
4.71603e-21
6.33458e-21
7.63684e-21
6.17096e-22
6.64392e-21
3.88071e-21
8.2709e-21
1.93428e-21
3.61811e-21
5.62435e-21
6.56316e-21
2.30732e-20
5.02632e-21
3.33157e-21
2.13662e-21
2.91321e-21
4.61523e-21
3.15062e-21
3.41328e-22
1.47625e-21
3.05795e-21
2.35473e-21
1.43891e-20
2.26664e-21
4.45187e-21
1.0368e-20
8.34024e-21
1.47782e-21
5.10528e-21
1.71888e-20
1.74e-21
4.31185e-21
2.35561e-21
1.87569e-21
1.07226e-21
2.04357e-21
1.54192e-20
1.26435e-20
1.21717e-22
2.04902e-22
2.74273e-21
3.53971e-21
2.15973e-20
1.96311e-21
3.58677e-21
3.08607e-23
6.51859e-22
2.31935e-21
9.9243e-21
1.27629e-20
6.61831e-21
1.81485e-20
1.22773e-20
1.56176e-21
1.28986e-20
3.41781e-21
2.20297e-21
2.37623e-22
1.94108e-21
9.60356e-22
7.43545e-21
1.42616e-20
8.94452e-21
1.8669e-21
5.01147e-21
1.01288e-21
6.43917e-21
8.13488e-21
3.27098e-21
5.66274e-21
6.31044e-22
1.66094e-21
1.46178e-21
3.74628e-23
2.62729e-21
2.35465e-21
5.03649e-21
1.71452e-21
5.65041e-21
1.37566e-21
1.33468e-20
1.02804e-21
2.08524e-22
3.8026e-21
6.25084e-21
7.32703e-21
2.86519e-21
5.09501e-21
1.20254e-20
3.02401e-22
8.09404e-22
1.02263e-20
1.7021e-21
2.09622e-20
7.54507e-22
9.73145e-21
2.49717e-21
1.10896e-20
3.06154e-21
4.74786e-21
3.99571e-21
4.66175e-21
8.54005e-21
1.568e-21
1.30855e-20
1.2974e-21
1.65536e-21
2.35662e-21
6.37011e-21
2.96199e-21
5.40847e-21
6.38357e-21
6.0939e-21
3.80982e-21
1.34764e-20
2.99581e-22
8.84761e-22
1.38142e-20
4.86535e-23
1.50248e-21
2.63673e-21
3.82833e-21
8.92796e-22
7.77374e-21
5.03633e-21
1.40625e-21
4.37589e-21
1.85234e-20
8.79523e-21
4.38275e-22
2.49111e-21
7.68521e-21
1.00995e-20
4.60663e-22
3.27919e-22
1.40763e-21
1.71341e-21
8.90424e-21
9.88407e-21
7.90193e-22
1.19135e-20
1.15698e-20
1.89266e-20
2.02963e-21
6.25466e-22
1.022e-20
1.39013e-21
6.94239e-21
1.41686e-20
2.17232e-20
6.07544e-21
6.27388e-22
9.19259e-21
3.84086e-21
8.54575e-21
4.08295e-22
5.63864e-21
3.19287e-21
7.05893e-23
3.13837e-23
4.20376e-21
5.26891e-21
6.1403e-21
3.12659e-21
1.91173e-20
8.02557e-21
4.42935e-21
1.40477e-20
1.14488e-21
6.42542e-21
2.14161e-21
1.57803e-21
9.57453e-21
6.70497e-21
1.6406e-20
9.08158e-22
1.05612e-21
7.58227e-21
4.67958e-21
3.72413e-21
2.40711e-21
1.34587e-21
4.15352e-21
2.12542e-21
4.53961e-22
2.17242e-21
6.7596e-22
4.03708e-21
1.02357e-20
3.06105e-20
1.75408e-20
2.00577e-21
7.48563e-21
4.4203e-21
1.3386e-20
1.79875e-21
8.82245e-22
3.71386e-21
4.36258e-21
1.45446e-20
2.09089e-20
9.6822e-21
1.42197e-20
5.27461e-21
9.14658e-21
7.99344e-22
4.03628e-21
3.67999e-21
8.01335e-21
1.16357e-20
7.50562e-21
6.58374e-21
1.13943e-21
3.02431e-23
5.60283e-21
1.44498e-22
2.40222e-20
3.49311e-21
9.25386e-22
9.51312e-21
1.14119e-21
5.54933e-21
1.31289e-22
5.92901e-21
5.95899e-21
2.41039e-21
1.65958e-21
1.73038e-21
1.07582e-21
1.08097e-20
5.89428e-22
3.79301e-21
5.65177e-21
3.82504e-21
1.01696e-21
9.72327e-22
1.29001e-20
9.83784e-22
9.94652e-21
8.4439e-21
2.11061e-20
5.43584e-22
1.31165e-21
1.47643e-20
1.65562e-20
2.94039e-21
4.29474e-21
7.6224e-22
6.67848e-21
2.5957e-20
5.91068e-21
5.0259e-21
2.33533e-21
1.73548e-21
3.8667e-21
3.23999e-21
4.51676e-21
1.65504e-21
8.48465e-22
1.03398e-20
1.84396e-20
6.70917e-21
9.45509e-21
8.75907e-22
3.82923e-21
2.12652e-21
1.20114e-20
2.83053e-21
5.46441e-21
6.27469e-21
7.03439e-21
5.03916e-21
7.35922e-21
1.03461e-20
2.47754e-21
4.34315e-22
2.60695e-20
2.2839e-21
6.40736e-21
3.34101e-21
6.23555e-21
3.58519e-21
9.79956e-21
1.21209e-20
1.06226e-20
8.7576e-21
8.06438e-21
5.63122e-23
1.90044e-21
1.01682e-20
6.72517e-21
4.49964e-21
1.90395e-20
3.00699e-21
2.4773e-21
5.64043e-21
1.01158e-20
4.31705e-21
1.30122e-21
9.85148e-22
9.23251e-21
9.45674e-21
2.38234e-21
2.50472e-21
9.10059e-22
1.59906e-20
4.46622e-22
5.96266e-21
4.63655e-21
5.72979e-22
2.38937e-21
6.31592e-21
8.851e-21
7.95142e-22
6.68405e-21
1.09393e-21
6.99025e-22
2.30566e-21
1.27053e-20
2.02306e-21
1.80992e-20
6.70908e-21
5.89381e-21
6.73862e-22
5.31986e-21
9.75944e-22
4.8881e-21
3.1428e-22
2.16012e-21
1.48397e-21
2.96622e-21
1.19869e-21
8.45476e-23
4.37772e-21
2.83769e-21
6.24256e-21
2.70793e-21
7.62477e-21
3.26185e-23
1.75733e-22
5.28106e-21
4.4522e-21
4.15872e-21
3.0869e-21
3.97341e-21
4.80113e-21
7.39622e-21
8.21556e-21
5.89392e-21
5.40331e-21
1.95143e-20
3.23243e-22
3.89637e-21
1.09038e-20
1.36215e-21
1.18591e-20
4.86781e-21
9.96013e-21
4.24902e-22
8.00532e-21
3.24993e-21
3.71434e-21
1.06406e-20
7.04108e-22
4.0187e-21
4.03743e-21
1.57737e-21
5.56101e-21
1.23124e-21
8.41304e-21
5.95102e-21
2.00946e-22
2.57959e-22
4.834e-22
2.36428e-20
6.71626e-21
5.29841e-21
5.59616e-22
2.24221e-21
2.66453e-21
6.80415e-21
2.256e-22
4.61598e-21
2.38208e-21
4.96592e-21
6.45923e-21
1.81942e-20
7.40351e-21
5.6417e-22
3.71863e-21
1.01441e-21
4.87969e-21
3.94244e-21
6.99798e-22
3.62712e-21
1.24183e-21
2.43559e-22
1.44507e-21
4.23216e-21
4.39813e-22
2.62831e-21
6.8111e-21
4.49287e-21
1.05389e-20
7.26696e-21
1.04682e-21
2.81294e-21
1.77105e-21
1.36124e-20
7.90672e-21
2.80501e-21
2.59496e-21
3.88429e-21
1.81246e-21
5.62573e-21
2.82574e-21
2.00306e-21
1.09411e-20
1.76397e-20
5.54374e-23
3.07869e-21
3.31097e-21
5.48367e-22
7.97822e-22
1.42744e-21
5.55083e-21
2.1282e-21
9.37039e-21
1.75432e-21
8.83969e-21
6.92343e-21
1.25571e-21
5.46369e-21
4.08245e-21
7.93311e-21
8.15842e-22
2.50909e-21
3.9408e-21
5.01284e-22
4.50757e-21
2.53923e-21
2.78271e-21
3.63048e-21
3.97682e-21
1.62318e-20
1.89054e-20
4.5728e-22
5.0761e-22
3.1095e-22
5.38896e-22
1.26365e-21
1.24025e-21
2.53137e-21
3.00633e-21
1.12876e-21
1.24567e-20
1.18468e-20
1.74038e-21
3.72084e-21
8.77913e-21
2.82621e-21
1.20915e-20
9.61031e-22
2.97451e-21
6.44536e-21
9.26984e-21
3.72739e-21
9.42867e-21
2.03072e-21
1.57439e-21
1.58102e-20
7.93725e-21
5.60285e-21
1.63374e-20
5.56162e-23
1.61892e-21
2.70675e-21
1.86178e-21
9.46349e-21
9.77378e-21
3.10721e-21
2.502e-22
1.45408e-21
1.37354e-20
8.64386e-21
2.77751e-21
3.34741e-21
1.09654e-21
2.19041e-21
1.56556e-20
4.89128e-21
4.56712e-21
1.32399e-20
2.03131e-20
7.48382e-22
1.07172e-21
6.4083e-21
4.41073e-21
1.16898e-20
6.87028e-22
3.60995e-20
8.11162e-21
9.79034e-21
1.18641e-21
1.4004e-21
2.09973e-21
2.0971e-20
2.86793e-21
3.72545e-21
5.80553e-21
9.48708e-21
8.32611e-21
6.76823e-21
1.11004e-20
4.94048e-22
2.4223e-22
3.13088e-21
9.97974e-23
5.90241e-21
2.92383e-21
2.90358e-21
1.71467e-20
1.75959e-20
3.93802e-21
4.37265e-22
7.15188e-21
2.11788e-20
3.51461e-21
9.37452e-22
4.48232e-22
2.81411e-21
1.0015e-20
3.50669e-21
7.65201e-21
3.46893e-21
2.75654e-21
2.70932e-21
6.64809e-21
1.52975e-20
1.3324e-21
5.08662e-21
8.43757e-21
3.89696e-21
4.08508e-21
8.92342e-21
1.23023e-22
3.64302e-21
1.21378e-21
9.26468e-21
1.64864e-21
2.30224e-21
5.03967e-21
3.31252e-21
7.6108e-21
5.40592e-22
5.3078e-21
1.2801e-20
7.00887e-22
2.02159e-21
9.30167e-21
7.79195e-22
6.14163e-21
7.28433e-21
2.02623e-21
1.41468e-21
7.77358e-21
6.35322e-21
1.47715e-20
7.0846e-21
4.87591e-21
2.60166e-21
3.04998e-21
7.43195e-22
9.19913e-21
9.81005e-21
8.36964e-21
1.05611e-20
2.49091e-21
1.73944e-21
1.01814e-21
1.52254e-21
1.84007e-21
9.44575e-21
1.40329e-20
4.37005e-21
5.72036e-21
3.39063e-21
1.48049e-21
1.49421e-20
3.36663e-21
3.35994e-21
3.94649e-21
4.26524e-21
4.23124e-21
1.92492e-21
4.8129e-21
1.76388e-22
2.27412e-21
5.0008e-21
4.2653e-22
3.16913e-20
8.01902e-21
6.51557e-22
2.32892e-20
7.42932e-21
4.91711e-21
1.05335e-21
5.20222e-22
1.21196e-21
3.99845e-22
2.25166e-21
3.09107e-20
7.82682e-22
5.07113e-21
1.21273e-20
1.67303e-21
6.43201e-22
2.6172e-21
5.67825e-21
1.06386e-20
9.05047e-21
5.28051e-21
4.51561e-21
6.82811e-21
3.06391e-20
9.69104e-21
4.98496e-21
3.70919e-21
7.34391e-22
6.66892e-23
6.0257e-21
4.64275e-22
2.27032e-21
1.66417e-21
2.41021e-21
3.07401e-21
9.24963e-21
2.98314e-21
2.71236e-20
8.12174e-21
7.48401e-21
4.31721e-21
7.72756e-21
1.57043e-20
1.04058e-21
7.66332e-21
1.0661e-21
8.83639e-21
3.67751e-21
9.09703e-21
1.27743e-21
2.22814e-21
1.77098e-21
1.2596e-21
1.34019e-22
3.29362e-21
5.90029e-21
1.29991e-20
1.02557e-21
6.50955e-21
1.35911e-20
5.75063e-21
1.86991e-20
1.76529e-21
1.86543e-21
6.08159e-21
7.095e-21
3.69195e-22
6.72485e-21
7.97176e-21
3.39581e-21
1.13595e-21
8.75489e-22
1.18063e-20
1.68089e-21
1.36453e-22
5.14795e-22
1.5603e-20
4.81206e-21
6.85664e-22
1.19805e-21
2.40292e-21
2.57874e-21
6.49001e-22
3.063e-21
8.11324e-21
1.75337e-21
4.26981e-21
1.2815e-20
1.64552e-20
1.25381e-21
1.72784e-21
1.66151e-21
4.99812e-21
1.56866e-21
8.87133e-22
3.63457e-21
1.67884e-21
4.72317e-21
2.75305e-21
1.63419e-20
1.80824e-21
6.53303e-23
3.682e-21
1.0974e-21
2.20068e-21
7.38634e-22
1.31216e-20
1.68119e-21
6.89318e-22
1.51347e-20
7.05919e-22
3.74804e-21
2.89238e-21
3.57352e-21
2.15179e-21
4.09353e-21
2.02129e-22
4.49256e-22
8.24859e-21
5.92455e-21
1.28633e-21
2.26744e-22
7.71972e-21
1.92367e-21
1.0048e-20
1.29054e-21
6.58152e-21
5.28533e-21
2.77514e-20
2.59965e-21
8.10569e-21
1.07219e-20
1.39394e-21
2.30458e-21
1.01242e-21
7.44861e-21
2.67758e-20
3.47204e-21
1.7713e-21
4.87372e-22
1.34648e-20
3.72336e-21
7.17096e-21
1.07685e-20
1.99778e-21
1.48971e-20
1.98829e-21
1.04082e-20
7.89828e-22
1.26432e-21
1.04677e-21
1.41327e-21
3.40479e-21
5.93689e-22
1.01887e-22
2.15613e-21
1.47034e-21
7.04269e-22
2.17996e-21
1.57425e-21
1.31207e-21
7.00371e-21
1.52681e-20
4.5834e-21
3.74229e-21
5.64425e-21
1.06203e-22
2.0913e-21
1.11149e-20
5.80621e-21
5.56228e-21
1.20132e-21
4.37658e-21
1.39938e-21
7.66964e-22
2.20653e-21
7.33965e-22
1.95769e-20
7.72259e-22
2.60073e-21
2.11761e-21
1.31937e-20
1.44584e-21
5.81619e-21
7.27656e-22
4.17127e-22
6.98923e-21
8.313e-22
1.76123e-20
2.76626e-21
1.29932e-21
2.53532e-21
7.25723e-21
9.90712e-21
9.52643e-21
1.56107e-21
8.61909e-21
2.279e-21
6.09638e-22
6.18861e-21
1.17031e-21
2.11481e-20
1.03698e-20
3.78534e-21
2.55823e-21
1.20756e-20
8.10934e-22
2.90554e-21
8.00991e-21
8.87086e-21
1.39813e-20
2.40857e-21
6.25763e-21
8.9141e-21
6.71489e-21
1.28606e-20
3.58767e-21
1.11952e-21
3.42734e-22
4.19972e-20
5.56831e-21
5.66983e-22
3.19155e-22
1.66569e-21
1.02431e-20
1.50601e-22
7.94039e-21
7.77106e-21
4.25917e-21
5.79816e-21
7.58691e-21
5.65929e-21
3.61466e-21
1.86689e-21
1.33376e-21
1.40573e-21
1.6144e-20
2.17282e-20
1.30431e-20
6.86704e-22
1.32718e-21
1.50421e-20
2.7641e-21
7.91207e-23
2.79829e-21
2.82885e-21
2.5582e-23
7.01596e-22
2.27062e-21
1.24157e-20
4.67829e-21
1.76658e-20
1.40565e-20
3.18588e-21
1.78384e-21
2.0249e-21
1.59916e-21
2.69791e-21
2.79011e-21
1.4701e-22
6.82343e-22
6.06415e-21
3.35524e-21
7.85834e-21
1.20936e-21
7.38175e-21
1.11267e-20
7.76272e-21
9.16967e-21
1.42232e-21
1.60754e-20
5.43711e-24
6.36962e-21
1.51489e-20
5.63675e-21
1.061e-20
1.94307e-22
2.80748e-21
1.69146e-21
1.22443e-21
5.61315e-21
4.5012e-21
1.54976e-22
1.69903e-20
4.02067e-21
7.66983e-23
1.60656e-20
1.9356e-21
5.45602e-21
2.0134e-22
7.67521e-21
4.22315e-21
1.10932e-20
1.56382e-20
1.28747e-20
1.49243e-21
1.74005e-21
4.70646e-21
7.14311e-21
6.12396e-21
3.50891e-21
4.44804e-21
8.3166e-21
1.41577e-21
1.71112e-21
4.39556e-21
7.7467e-21
1.72604e-21
7.41133e-22
2.68324e-21
1.33782e-20
1.31072e-20
6.87866e-21
1.73821e-21
1.08293e-20
5.67969e-21
2.89497e-21
4.20937e-21
7.94547e-22
1.69102e-21
1.54251e-21
1.20109e-21
9.40704e-21
1.2717e-22
1.30217e-21
2.87909e-21
4.49783e-21
8.92288e-21
2.38584e-21
6.4345e-22
1.38248e-21
3.24273e-21
3.49471e-21
4.69953e-21
2.71806e-21
7.36956e-21
8.12107e-22
1.0981e-20
2.44454e-21
9.58387e-22
1.95622e-21
1.89901e-21
3.19623e-21
9.31027e-21
8.05768e-21
4.57461e-21
1.34057e-20
9.19802e-21
4.72518e-21
5.7779e-21
1.37407e-20
8.86671e-22
1.60102e-21
2.8707e-22
7.40498e-21
3.50109e-21
1.87002e-22
4.59836e-21
2.5468e-22
3.61457e-21
4.56429e-21
2.0786e-21
1.48762e-20
9.42184e-21
1.77056e-20
2.0477e-21
9.71852e-22
8.11889e-21
4.38713e-21
6.65404e-21
8.62387e-21
2.17824e-20
1.06218e-23
3.73321e-22
6.53782e-22
2.91325e-21
9.25426e-22
1.2849e-20
1.94643e-21
3.94922e-21
4.67643e-21
5.71619e-22
3.80695e-21
3.67964e-22
2.10191e-22
1.49877e-21
5.00228e-21
1.27606e-23
5.79703e-21
4.01297e-21
2.11252e-21
1.94047e-21
1.04996e-21
8.90066e-22
2.1552e-21
3.07544e-21
1.13075e-20
5.72467e-21
2.21132e-21
3.41376e-21
4.89691e-21
1.12657e-21
3.20447e-20
2.31448e-22
5.65413e-22
1.35051e-22
3.06091e-21
2.3098e-20
5.3715e-21
1.8487e-21
1.41079e-20
1.06954e-20
1.05638e-22
9.7243e-22
3.28986e-21
1.10656e-21
3.25228e-22
1.024e-21
7.81112e-21
1.37717e-20
5.48388e-22
1.98752e-21
2.34269e-20
1.14314e-22
6.02121e-22
8.14537e-21
5.4022e-21
5.50968e-21
1.10217e-21
3.12382e-21
3.23938e-21
3.94267e-21
6.94146e-21
1.55062e-22
4.79728e-21
7.9536e-23
6.58432e-21
3.30916e-22
3.85166e-21
6.73769e-21
6.90415e-21
2.83777e-21
1.38056e-20
9.91951e-22
2.82009e-21
7.21761e-22
1.82459e-21
4.2495e-22
1.71348e-20
1.31058e-20
1.94605e-20
5.20191e-21
2.6126e-21
3.66928e-21
1.9523e-21
9.7433e-21
2.46409e-21
2.7145e-21
2.01434e-21
2.04347e-21
9.86855e-21
8.68679e-21
3.1911e-21
3.05565e-23
5.43861e-21
7.12018e-21
1.97925e-21
5.9286e-21
2.66619e-21
2.28414e-21
5.52241e-21
7.15048e-21
8.31015e-21
2.3257e-21
2.35502e-21
5.6428e-21
1.22993e-20
2.50403e-21
1.68135e-20
3.64631e-21
4.02994e-21
1.35557e-20
2.4029e-22
6.38296e-21
4.29615e-21
1.70775e-21
1.10676e-21
3.82792e-21
1.02121e-20
8.81419e-21
2.03424e-20
1.66956e-20
1.39066e-20
1.78789e-21
1.57715e-23
4.51434e-21
5.62026e-21
3.58472e-21
5.81031e-22
4.36555e-21
4.62852e-21
7.08897e-22
2.58872e-21
2.60158e-22
3.23465e-21
1.37003e-21
1.57354e-20
2.84039e-22
1.15169e-20
2.90516e-21
5.23407e-21
9.98508e-21
3.70474e-22
8.00984e-21
8.66408e-21
1.32681e-20
5.98203e-21
3.7196e-21
1.3143e-20
3.75679e-21
4.59415e-22
1.56326e-21
2.00824e-20
1.36751e-20
5.94748e-21
1.20241e-21
5.08529e-21
1.53848e-21
1.22187e-20
6.24571e-21
4.51436e-21
3.77804e-21
3.12045e-21
1.08445e-22
1.91257e-20
1.90337e-21
6.22163e-21
2.55655e-21
2.13869e-21
5.77457e-21
8.08946e-21
2.00763e-21
1.47618e-20
8.94732e-22
5.87232e-21
2.36472e-20
7.39374e-21
7.79133e-21
7.80213e-21
1.84656e-21
1.10684e-21
1.62508e-20
8.16593e-21
2.19871e-21
4.04689e-21
1.45341e-21
1.27026e-20
4.07079e-23
6.85886e-23
3.8596e-21
6.00774e-21
2.82387e-21
1.0735e-21
3.87814e-22
7.00534e-21
1.80644e-21
2.04933e-21
3.74965e-21
1.24439e-20
2.85712e-21
3.49884e-21
6.70179e-21
2.13376e-21
3.06286e-21
7.90974e-21
1.06378e-20
1.27711e-21
1.12595e-20
2.09525e-21
1.81746e-20
3.22397e-21
6.62772e-21
1.664e-21
7.77492e-21
8.37092e-22
5.61091e-22
1.01458e-20
7.46978e-22
3.93944e-21
5.79257e-22
1.3546e-20
1.0192e-21
2.11275e-20
3.62185e-21
4.0578e-21
3.06312e-21
2.86576e-21
5.55011e-21
7.70896e-22
1.53846e-22
4.6054e-21
5.89132e-21
3.49537e-21
2.60809e-21
6.54398e-21
2.97868e-21
3.21605e-22
1.23246e-20
5.10612e-21
6.4224e-22
1.59839e-21
3.00828e-22
3.87179e-22
3.72537e-21
2.13911e-20
1.82709e-20
1.64573e-20
6.09939e-21
4.28484e-21
1.40353e-21
4.44539e-21
3.99427e-21
6.19539e-21
4.4399e-21
6.36639e-21
2.5811e-21
2.24791e-21
9.71403e-21
3.07612e-21
1.24311e-20
6.71634e-21
7.77072e-21
1.00474e-20
7.16737e-22
1.7966e-21
5.47436e-21
4.95767e-21
4.83064e-21
1.03187e-22
3.27052e-21
1.17531e-21
4.01145e-21
3.1564e-21
9.35338e-21
1.98044e-21
1.61011e-20
3.03556e-21
7.71487e-21
5.81936e-21
2.00935e-21
1.97754e-20
2.62341e-21
7.78498e-21
1.13589e-20
1.02063e-20
5.60854e-21
1.53867e-20
3.28561e-21
8.35071e-21
8.49796e-21
4.87232e-21
1.0831e-21
4.06806e-21
2.15766e-21
1.76161e-21
6.35141e-21
4.33629e-21
5.03644e-21
4.40706e-21
4.65004e-21
4.42683e-21
9.83364e-22
4.79397e-21
5.24026e-21
6.5098e-21
2.04128e-21
3.23647e-21
8.3232e-21
5.72788e-21
2.60792e-21
5.11494e-21
1.0536e-20
3.8581e-22
9.16302e-21
4.95456e-21
7.96295e-21
1.03186e-20
4.50894e-22
2.59285e-21
8.19789e-22
1.47751e-20
5.3309e-22
3.57591e-21
2.44954e-21
7.16591e-21
8.40197e-22
1.0216e-20
2.95469e-21
1.08019e-21
8.34773e-21
3.66867e-21
5.18523e-22
6.69534e-22
1.31406e-20
7.96844e-21
3.17424e-21
5.0319e-22
1.10993e-20
1.38775e-21
1.59544e-21
1.50561e-20
5.81961e-21
5.74541e-21
1.52823e-20
4.97276e-21
1.82378e-20
1.84063e-21
2.18888e-22
7.54923e-21
2.88402e-20
1.23934e-20
5.41945e-21
9.18775e-22
1.13426e-20
3.42681e-21
1.46681e-20
2.12614e-21
9.24738e-22
9.44461e-22
2.71071e-20
6.41704e-21
5.26051e-22
2.7825e-21
2.91664e-21
5.49186e-21
8.16257e-21
5.35858e-21
9.89491e-22
1.21171e-20
1.88691e-21
4.58669e-21
1.71231e-21
5.18585e-22
6.89926e-22
2.05059e-22
4.97013e-21
5.40684e-21
1.64581e-23
1.52601e-22
2.10431e-21
4.35143e-21
4.49295e-21
3.74975e-21
1.62486e-21
1.10255e-20
4.22935e-22
1.2488e-21
3.78473e-21
3.81153e-21
7.99447e-21
2.21521e-20
4.11976e-21
1.54088e-22
8.5939e-22
1.08979e-20
5.18146e-21
1.57208e-22
7.66195e-21
1.02468e-20
1.25185e-20
3.83822e-21
1.87584e-22
8.62959e-21
2.51826e-21
3.80181e-21
3.38837e-21
4.86135e-21
2.12067e-21
5.45972e-21
2.24401e-21
7.42847e-21
9.44558e-21
4.56123e-21
4.56681e-21
5.43367e-21
3.55308e-21
1.68754e-20
8.09862e-21
1.20776e-20
4.3863e-21
5.31277e-22
2.56683e-21
2.96572e-21
6.43256e-21
3.14166e-21
9.47625e-21
1.62108e-20
1.36368e-20
2.95902e-21
1.00133e-22
1.48604e-21
1.79464e-22
2.41687e-21
2.94656e-21
1.12996e-20
2.08059e-21
7.04794e-22
7.44318e-22
2.77055e-21
3.97292e-21
1.42725e-20
2.81419e-21
8.69063e-22
5.60452e-21
2.0605e-21
1.52162e-21
1.164e-20
4.11703e-22
2.11621e-21
4.53532e-21
9.69431e-22
3.24991e-21
1.06499e-21
3.59488e-21
2.17604e-21
2.13928e-21
5.34791e-21
8.05397e-21
8.74391e-21
3.47686e-21
4.60349e-21
3.48433e-21
7.17396e-21
4.42584e-21
1.08395e-21
9.34582e-21
9.17289e-21
3.10118e-21
1.65483e-21
5.46434e-21
4.16053e-21
1.18436e-21
1.5282e-21
5.40229e-22
1.97834e-22
9.93414e-22
3.44202e-22
3.62832e-21
7.3001e-21
2.94383e-22
1.29974e-21
4.35707e-22
2.05548e-22
1.15246e-20
2.57997e-21
6.19042e-22
1.41744e-21