/*--------------------------------*- C++ -*----------------------------------*\
  =========                 |
  \\      /  F ield         | OpenFOAM: The Open Source CFD Toolbox
   \\    /   O peration     | Website:  https://openfoam.org
    \\  /    A nd           | Version:  7
     \\/     M anipulation  |
\*---------------------------------------------------------------------------*/
FoamFile
{
    version     2.0;
    format      ascii;
    class       scalarField;
    location    "0.006/lagrangian/dsmc";
    object      Ei;
}
// * * * * * * * * * * * * * * * * * * * * * * * * * * * * * * * * * * * * * //


2571
(
1.97142e-21
6.87977e-21
5.99693e-21
3.76657e-22
6.97414e-21
1.43219e-20
1.0394e-21
7.94082e-22
3.2803e-21
7.80686e-22
8.27025e-22
1.0449e-21
6.27711e-21
1.82256e-21
4.96014e-21
3.23121e-21
4.57947e-23
6.27282e-21
4.63843e-21
1.05394e-22
3.50886e-22
1.05618e-22
4.14393e-23
1.26685e-21
2.87492e-22
1.63258e-21
2.4696e-21
1.69845e-21
2.55695e-23
1.56855e-21
4.85182e-22
6.45948e-21
6.04088e-21
6.63443e-22
1.00312e-21
3.99657e-22
4.81398e-21
7.18836e-21
5.11849e-21
4.7692e-21
2.10544e-21
7.22465e-22
2.52782e-21
8.96685e-22
3.78011e-23
1.80947e-21
1.37039e-21
4.94412e-21
3.57252e-22
3.67385e-21
2.89893e-21
2.10965e-22
1.69707e-21
2.67404e-21
4.4328e-21
9.41189e-21
1.15439e-20
1.87789e-21
2.21439e-20
6.2277e-21
3.941e-21
6.21773e-21
6.02992e-21
1.76845e-21
4.73178e-21
3.65203e-22
1.58023e-20
3.0488e-21
2.55944e-21
1.23593e-23
5.58363e-22
2.62876e-21
5.90559e-21
7.61414e-21
1.89975e-21
3.14255e-21
8.60536e-21
5.90826e-21
7.97549e-21
4.39362e-21
4.44072e-21
3.24292e-21
2.24719e-21
3.60849e-21
1.41746e-21
6.15137e-21
5.36585e-21
3.9571e-21
1.24462e-20
5.76298e-21
7.9446e-22
5.53089e-22
2.34539e-22
1.89708e-20
7.47883e-22
7.57883e-21
5.63957e-21
3.7971e-21
6.11432e-21
9.82292e-24
3.42915e-21
1.59277e-21
4.30841e-22
2.97963e-22
5.13014e-21
5.51693e-21
2.60549e-21
1.47379e-21
4.74371e-21
2.3092e-21
4.59587e-22
4.82564e-21
1.74971e-21
5.68738e-22
4.77747e-22
8.39655e-22
2.79294e-21
4.44624e-22
1.63926e-21
4.62966e-21
8.31513e-21
4.58887e-22
6.36915e-21
4.77808e-21
2.83854e-21
3.16349e-21
3.24536e-21
2.24796e-21
1.67645e-21
5.39569e-21
3.86191e-23
1.89054e-21
3.02672e-22
7.12928e-21
2.44831e-21
3.07837e-21
1.09608e-20
3.45059e-21
1.00463e-21
1.75192e-21
5.03318e-21
3.60639e-23
1.26193e-20
2.32303e-21
5.16098e-21
5.43308e-21
8.15121e-21
5.00069e-21
1.99873e-21
4.1624e-21
1.05513e-21
8.83797e-21
5.15209e-21
3.93439e-21
1.0808e-21
3.84993e-21
9.20787e-22
1.29135e-21
1.70517e-22
9.89687e-23
9.12348e-23
8.57808e-21
5.83133e-21
2.2991e-21
3.1881e-21
2.1321e-21
1.47854e-21
1.70751e-21
7.80499e-22
3.54348e-21
4.91955e-21
1.15743e-21
6.98063e-22
1.81244e-21
1.12171e-20
2.27184e-21
1.69122e-21
3.15166e-22
2.57666e-22
8.80765e-21
5.34308e-22
8.40675e-21
1.95529e-21
2.94603e-21
5.11662e-22
3.68729e-22
9.22036e-22
5.49675e-21
1.08084e-21
1.90589e-21
3.32065e-21
3.55454e-21
3.94724e-21
6.33124e-21
7.50865e-21
5.77092e-21
9.75815e-21
6.23407e-22
7.73281e-22
3.2335e-21
5.00976e-21
7.5165e-21
8.46588e-21
2.15337e-22
2.23961e-21
1.33393e-20
2.58292e-21
7.16079e-21
5.03411e-21
4.32132e-21
6.2453e-21
3.93491e-21
8.86912e-22
2.28614e-21
5.05725e-21
1.05432e-21
1.13501e-21
2.97305e-21
3.72971e-21
3.87558e-21
1.41125e-21
1.8704e-22
7.80522e-21
9.01611e-22
9.23492e-22
1.49453e-21
3.26181e-21
3.00255e-21
1.05643e-21
3.14171e-21
2.54508e-21
5.23671e-21
3.61506e-21
9.43631e-21
2.54957e-21
2.99652e-21
6.6956e-21
3.07139e-21
2.97508e-21
8.57864e-21
4.32397e-21
7.10803e-22
1.08568e-21
1.39181e-22
1.67517e-21
1.19204e-20
6.92604e-22
1.92477e-21
3.05766e-21
1.42289e-20
9.20797e-22
1.94928e-21
4.19349e-21
5.17199e-22
3.25869e-21
4.76313e-21
7.94664e-22
1.92114e-21
7.9054e-21
2.34229e-21
3.27309e-21
2.19314e-22
2.58364e-21
5.65981e-21
1.66811e-22
1.27088e-21
4.08157e-21
4.77838e-22
8.57988e-22
8.33813e-22
1.72402e-22
6.01952e-22
4.62345e-21
5.184e-21
2.39545e-21
3.77258e-21
8.03431e-21
3.18291e-23
8.54658e-22
1.1951e-22
9.99151e-22
8.17025e-21
5.77401e-21
6.28483e-21
4.93385e-22
1.29651e-21
6.75339e-21
1.16952e-21
2.13089e-21
2.71602e-21
8.78264e-22
3.84844e-21
1.48185e-21
1.54949e-21
4.90119e-23
1.46125e-20
3.26934e-21
3.02611e-22
1.67887e-21
7.93078e-21
3.72562e-21
3.88063e-21
1.45377e-20
3.79426e-21
3.20383e-21
2.70848e-21
5.81094e-21
2.04042e-21
3.88901e-21
3.21962e-21
1.07325e-22
9.68233e-21
1.16218e-21
2.1119e-21
5.97062e-21
1.82147e-22
3.72251e-21
6.62322e-21
2.34307e-21
2.69766e-21
1.79941e-21
1.09079e-21
4.04317e-21
1.42505e-21
5.59235e-21
1.79502e-21
5.67566e-21
5.53901e-22
2.14433e-21
5.442e-21
6.96957e-23
3.52974e-21
1.88482e-21
1.22226e-21
7.45899e-21
2.42847e-21
8.63094e-22
1.4069e-20
1.50661e-20
6.3396e-21
1.1144e-20
2.31678e-21
7.31844e-21
5.43196e-21
7.16456e-21
1.5804e-21
2.95112e-22
5.67386e-22
8.64595e-23
1.55639e-21
1.16151e-21
5.15342e-21
2.00223e-21
1.21868e-20
8.25603e-22
8.06729e-21
5.65804e-22
6.00901e-21
1.53892e-21
9.70724e-22
8.3028e-21
4.46949e-21
3.16842e-21
8.27479e-22
2.24344e-21
3.74777e-21
4.19192e-21
5.80934e-22
4.06687e-21
6.41868e-21
1.76899e-21
1.12053e-21
2.81865e-21
1.1469e-21
6.27958e-21
8.38646e-22
4.31251e-21
1.31483e-20
4.39795e-21
4.59202e-21
3.75292e-21
2.02159e-20
6.02103e-21
8.92506e-21
7.6818e-21
4.58646e-21
2.07185e-21
1.19036e-21
1.78733e-21
8.15006e-21
1.30352e-21
4.60245e-21
6.90812e-21
6.75971e-21
6.1868e-21
1.07113e-22
1.65161e-20
8.17797e-21
2.31931e-21
1.79174e-21
8.64122e-21
7.39821e-22
1.64211e-21
1.21299e-20
4.23278e-21
4.31766e-21
3.4742e-21
3.5248e-21
6.79425e-22
3.0673e-22
7.78311e-22
2.11698e-21
3.55101e-21
9.48523e-22
1.77761e-21
2.09376e-21
9.34254e-21
6.02344e-21
7.69508e-21
5.60178e-21
1.73152e-21
5.4312e-21
1.07755e-20
7.65757e-22
1.71719e-21
2.7017e-21
4.64257e-21
1.84546e-21
1.5779e-21
2.03807e-21
9.1171e-23
1.97119e-21
6.50803e-21
1.44594e-21
5.83047e-21
8.95015e-21
6.72413e-21
1.52989e-21
5.7045e-22
2.8042e-21
2.74406e-21
1.34001e-21
9.25925e-23
2.20175e-20
3.28131e-22
3.54839e-21
1.01143e-21
7.0586e-22
3.02655e-21
1.41974e-21
5.06666e-21
1.75259e-22
6.86494e-21
2.60444e-21
6.76891e-22
1.14602e-20
2.65317e-21
1.16208e-21
1.7573e-20
8.69309e-21
9.98984e-22
3.0502e-21
1.06919e-21
1.27558e-21
2.96757e-21
1.14552e-21
9.85257e-21
1.30152e-21
6.3689e-21
4.06881e-22
4.22734e-21
1.80667e-21
2.13662e-20
5.24902e-21
8.96609e-21
2.12176e-21
1.32345e-20
1.31225e-21
1.80117e-21
1.05996e-20
5.21184e-21
9.95451e-22
2.46589e-21
7.27135e-21
9.84456e-21
1.87426e-21
1.57832e-21
1.31349e-21
1.16872e-21
7.04408e-21
4.68107e-22
1.7577e-21
6.15711e-21
2.06276e-21
2.72515e-21
2.73516e-21
1.32089e-20
4.99027e-21
2.78827e-21
1.31717e-22
2.91951e-21
8.50015e-21
2.62236e-21
3.02755e-21
4.80417e-21
7.54598e-22
2.53608e-21
1.49467e-20
9.29608e-22
7.82815e-22
1.19562e-20
1.48596e-21
2.33572e-21
5.47417e-21
3.88442e-21
7.3493e-21
3.20485e-21
6.07581e-22
1.25511e-21
2.45478e-21
1.47254e-21
1.15529e-21
2.31401e-21
4.72195e-21
1.10034e-20
1.33096e-21
3.56235e-21
3.54627e-22
3.25405e-21
1.03844e-21
4.85436e-21
8.63264e-21
7.15385e-21
3.07967e-21
1.48108e-20
2.58689e-21
3.50411e-21
2.43144e-21
2.05681e-21
8.53287e-21
5.71133e-21
1.77695e-21
1.12693e-20
2.74638e-21
2.64661e-21
3.77643e-21
7.69612e-21
1.34918e-21
3.93505e-21
1.41223e-22
5.30969e-21
9.79291e-22
7.64739e-21
8.19709e-22
9.02584e-21
3.12198e-21
5.91663e-22
1.06786e-20
9.05788e-22
8.21181e-22
2.33421e-22
3.45549e-21
1.16241e-21
2.26167e-21
1.65672e-20
1.18219e-21
3.52657e-21
2.49275e-21
4.43876e-21
3.0317e-22
1.27604e-21
1.27547e-21
3.63306e-21
2.04437e-20
1.90092e-21
9.11551e-22
3.05299e-22
2.45669e-21
7.45078e-21
1.26637e-20
3.41571e-21
4.26765e-21
9.51846e-21
2.69883e-21
5.45507e-21
2.52023e-21
3.29718e-21
5.82063e-22
4.42497e-21
5.88108e-21
6.54226e-22
6.52918e-21
4.41233e-21
1.68033e-21
9.52812e-21
4.20065e-21
1.94215e-22
9.11796e-21
1.9195e-21
2.39614e-21
1.10135e-21
3.5497e-22
1.21675e-21
5.15955e-21
3.41716e-23
1.83501e-21
2.31863e-21
9.39084e-22
1.17157e-20
6.08343e-21
3.60998e-21
1.19256e-21
1.22362e-20
1.09845e-20
1.04313e-21
1.23875e-22
1.97888e-21
4.27659e-22
1.47719e-20
7.39703e-22
2.56363e-21
4.08705e-21
3.79867e-21
1.50333e-21
5.61055e-21
1.45968e-21
2.7618e-21
1.43798e-21
5.68272e-22
1.92826e-21
7.55588e-21
4.00251e-21
4.61464e-21
6.02318e-21
2.04566e-21
3.02094e-21
7.47066e-21
1.37619e-21
6.02854e-22
1.08499e-20
4.61083e-21
8.21984e-22
1.39005e-21
2.38753e-21
1.37718e-21
6.51278e-21
4.913e-21
2.62366e-21
6.47874e-22
3.58879e-22
7.57227e-22
4.56394e-21
6.30263e-21
7.43316e-22
5.65856e-21
2.27466e-21
9.26763e-22
2.66109e-21
5.38659e-21
1.06946e-22
3.52877e-21
2.66404e-20
2.29701e-20
1.77958e-22
3.19302e-22
1.32086e-22
2.0662e-21
5.07269e-21
1.68025e-21
1.43213e-21
4.83598e-21
1.27178e-21
1.16726e-21
2.24133e-21
5.00428e-21
7.75034e-21
5.26732e-21
4.75209e-21
3.73731e-22
4.21097e-21
6.10319e-21
5.48187e-21
1.42813e-21
1.62621e-20
1.08521e-21
2.10241e-21
4.14592e-21
9.79809e-22
4.8123e-21
4.37714e-22
1.15083e-20
5.5783e-21
2.50226e-21
8.05237e-21
1.5017e-21
2.24766e-21
3.35287e-22
2.85627e-21
2.41753e-21
2.3979e-22
1.02106e-21
9.21433e-22
5.72751e-22
2.49225e-21
1.71309e-21
2.71574e-21
5.70134e-21
6.94568e-21
3.34601e-21
4.6231e-21
1.41891e-21
3.59656e-21
6.3426e-21
6.50759e-22
6.24542e-21
3.6445e-22
1.65728e-21
1.902e-21
9.1123e-21
4.03434e-21
1.05597e-21
3.80566e-21
1.12041e-22
1.21991e-21
9.61157e-21
1.34904e-21
1.70473e-21
3.05882e-21
7.15509e-22
7.37342e-22
2.32132e-21
1.31249e-21
5.20775e-21
3.68808e-21
4.62125e-21
1.49678e-22
3.19259e-21
6.86014e-21
2.52464e-21
1.5254e-22
6.37235e-22
7.41348e-21
1.01363e-22
1.45786e-21
1.01164e-20
2.66073e-21
1.58679e-21
5.04075e-21
4.43233e-21
8.17567e-22
3.01973e-22
8.43865e-22
2.17854e-21
6.25892e-21
6.13239e-21
1.5629e-21
2.13483e-21
1.80966e-22
3.1507e-21
3.35584e-21
1.1028e-21
9.38842e-23
5.1871e-23
4.26031e-21
5.98556e-21
1.41465e-21
5.90471e-21
4.967e-21
3.23023e-21
1.43885e-21
1.11004e-21
5.70995e-22
1.20251e-21
4.9896e-21
2.33297e-22
1.13741e-21
6.313e-22
5.20359e-21
1.63885e-20
6.35813e-21
3.61388e-21
1.11368e-20
1.12119e-20
3.04555e-21
9.45262e-23
5.21381e-21
5.99195e-21
1.34818e-21
2.50076e-21
4.82628e-21
1.50477e-20
1.58968e-22
9.01219e-21
6.50194e-21
4.52301e-21
6.80039e-21
4.30571e-21
4.13078e-22
4.60153e-21
5.81522e-21
1.55554e-21
9.60525e-21
4.33919e-21
5.25142e-21
9.73174e-22
2.53982e-21
4.98384e-21
3.27521e-21
3.0796e-21
4.08922e-21
1.2111e-20
3.83035e-22
5.43721e-21
3.60922e-21
6.08532e-21
4.14056e-21
1.28466e-20
1.62343e-20
6.8643e-21
3.0367e-21
2.53304e-21
5.93557e-22
2.17321e-21
4.93285e-21
3.26811e-21
2.4225e-21
6.24484e-21
4.28096e-22
1.90881e-21
2.73586e-21
4.02636e-21
2.16668e-21
3.25866e-21
1.01662e-21
8.29521e-22
3.72832e-21
1.03211e-20
3.22697e-22
5.30136e-21
6.71206e-21
1.57522e-20
6.63329e-21
4.47019e-21
7.55922e-22
1.11378e-21
2.99703e-21
1.2153e-21
1.40876e-20
1.56523e-21
1.53583e-21
3.08886e-21
6.57003e-21
2.23719e-21
1.01743e-20
5.0414e-21
1.06639e-21
2.93423e-22
5.96807e-22
1.16644e-21
1.49932e-21
1.34489e-20
7.45046e-21
7.69687e-21
1.59415e-20
9.71509e-21
1.42206e-21
3.02652e-22
2.06306e-21
2.3747e-21
1.9175e-21
2.47565e-21
1.66526e-21
7.92138e-21
8.54184e-21
6.8347e-21
8.30286e-21
2.21547e-21
1.79418e-21
7.59049e-21
7.48147e-21
1.71008e-20
4.30107e-21
3.96592e-21
3.49326e-21
6.24061e-21
1.07574e-21
1.51418e-21
2.79294e-21
1.19742e-21
2.2279e-21
3.32866e-21
7.17854e-22
2.61954e-22
2.00829e-20
2.57298e-21
2.87441e-21
4.98129e-21
1.30581e-20
4.70728e-21
5.1872e-21
7.5615e-21
6.50828e-21
1.63145e-21
1.30608e-20
8.42708e-22
5.05044e-22
1.25702e-20
1.16542e-20
1.0245e-22
1.45616e-20
2.69777e-21
9.4774e-21
6.47135e-22
2.48978e-21
2.83034e-21
1.60525e-21
2.77019e-21
4.89759e-21
2.13059e-21
2.83867e-21
3.79932e-21
1.64647e-21
7.42631e-21
4.63322e-22
3.14598e-21
2.60122e-21
1.15912e-20
4.27388e-21
9.68041e-21
6.29061e-21
2.87076e-21
3.60589e-21
1.12923e-21
8.84616e-22
1.16583e-21
3.23259e-21
1.65215e-21
7.06208e-21
6.95467e-21
1.14176e-21
1.4358e-21
7.60117e-21
9.49768e-22
2.47965e-21
6.42723e-21
2.45286e-21
1.60784e-20
6.11207e-21
1.03834e-20
4.92396e-21
5.22906e-21
2.22397e-21
2.6666e-22
3.96111e-22
1.71523e-21
4.15757e-21
7.38049e-21
4.08735e-21
5.37801e-22
2.3671e-22
5.09678e-22
4.69509e-21
3.19807e-22
1.77314e-21
6.51874e-21
6.23251e-22
5.02454e-21
3.22743e-21
2.18605e-21
7.04543e-21
9.95931e-22
3.77495e-21
2.06344e-23
9.05577e-21
1.91619e-21
4.08573e-22
8.74223e-22
2.60046e-21
4.4415e-21
5.05473e-21
1.65561e-21
5.61213e-21
1.11463e-20
5.656e-22
4.91447e-22
1.57018e-22
9.5425e-21
4.70576e-21
3.30378e-21
5.91668e-21
5.4168e-21
1.29725e-21
2.76417e-21
1.88884e-21
1.55149e-20
2.51188e-21
7.79537e-22
7.55566e-21
1.6645e-21
1.6971e-21
1.5459e-21
9.14503e-21
5.19107e-21
1.00228e-20
1.02939e-20
1.67192e-21
8.22089e-21
5.06366e-23
5.12674e-21
3.93369e-21
6.5968e-21
3.74104e-21
6.46766e-21
9.48076e-21
3.89566e-22
8.23629e-21
2.71328e-21
3.22577e-21
1.00276e-20
2.53474e-21
2.2517e-22
8.8137e-22
1.0315e-20
1.68363e-22
1.60318e-21
3.05581e-21
8.99846e-23
3.82442e-21
1.75177e-21
1.19485e-20
7.0756e-21
1.06798e-21
1.93172e-21
9.4231e-21
3.93463e-23
7.19296e-22
6.76469e-21
3.26876e-21
5.86779e-22
5.02857e-22
1.59702e-21
4.62615e-21
4.48046e-22
5.60035e-22
9.45144e-21
6.75407e-21
8.13528e-21
6.68402e-21
8.21186e-21
3.80539e-21
7.71828e-21
8.56735e-22
4.37253e-21
2.831e-21
8.16197e-21
1.01565e-21
4.11649e-22
2.93062e-21
2.17506e-22
6.39043e-21
8.87006e-21
7.07651e-22
7.95773e-22
1.17007e-20
1.12096e-21
4.1831e-21
3.20372e-22
1.80176e-21
4.08667e-21
8.27157e-21
4.15e-22
4.15268e-21
1.13082e-21
5.74101e-21
2.99702e-21
3.36747e-21
8.44521e-21
1.3507e-21
5.94029e-22
3.03975e-21
5.12085e-21
3.973e-22
6.73684e-21
1.5274e-21
1.03286e-21
1.19333e-20
2.75665e-21
5.23406e-21
5.92932e-22
4.38975e-21
6.08425e-22
3.56035e-22
2.94562e-21
5.42838e-21
2.2973e-21
1.33761e-20
1.00406e-21
7.05304e-21
5.14491e-21
2.26209e-21
1.47014e-21
9.35388e-22
4.77645e-21
3.08821e-21
9.24896e-21
1.58212e-21
1.51537e-20
1.80298e-21
4.1155e-21
2.3206e-21
3.31727e-21
1.97568e-21
4.06794e-21
8.73583e-21
5.59425e-21
5.94432e-21
1.09959e-20
4.11273e-21
1.99268e-21
1.45519e-21
4.82132e-21
1.23491e-20
2.57658e-20
4.18059e-21
2.52144e-22
7.26479e-21
8.12662e-22
1.99518e-21
3.45052e-21
2.36602e-21
7.07216e-21
4.33588e-22
1.23177e-20
1.54967e-21
2.10404e-21
6.31123e-22
4.14861e-21
1.23824e-20
6.48756e-21
7.80281e-21
7.15728e-21
8.21608e-21
1.69255e-24
4.53557e-22
6.30224e-22
4.63647e-21
2.76051e-21
2.82771e-21
1.3996e-21
6.46051e-21
9.36882e-21
5.58005e-22
1.81022e-21
6.34397e-21
4.42594e-21
1.23638e-21
4.84314e-21
4.80169e-21
9.96534e-21
4.53311e-21
2.63581e-21
7.39987e-22
1.466e-20
3.46397e-21
1.00417e-21
6.42101e-22
2.98725e-21
4.45016e-22
6.54815e-21
1.39976e-21
8.55384e-21
5.25867e-22
7.96811e-21
4.42063e-21
1.42279e-21
9.11186e-22
2.58882e-21
3.11036e-21
4.40896e-22
1.37688e-20
5.4738e-21
3.44833e-22
1.29564e-21
3.63319e-21
4.01203e-21
3.9781e-22
2.8607e-21
1.09234e-21
1.369e-21
4.49545e-21
1.68748e-21
4.31788e-21
3.34851e-21
2.91688e-21
1.02776e-20
1.13755e-21
5.71569e-21
5.55748e-21
1.10184e-21
1.45836e-22
3.83356e-22
1.96468e-23
3.09973e-21
5.70179e-22
1.26982e-21
9.48772e-21
6.75192e-21
8.33255e-21
6.37378e-22
1.89031e-22
7.07301e-21
3.35183e-21
3.36871e-21
1.13953e-21
1.82333e-20
6.87813e-21
5.3684e-22
5.82326e-21
2.72403e-21
6.28829e-21
1.9728e-21
1.08584e-21
2.18417e-20
1.7298e-21
4.36048e-21
2.50444e-22
1.41752e-22
1.63124e-21
1.93364e-21
2.88144e-21
3.56843e-21
1.20137e-21
1.15087e-21
5.48207e-21
7.06911e-22
7.69458e-22
5.90898e-23
4.49453e-21
4.77623e-22
1.54407e-21
4.11446e-21
7.35543e-21
2.35545e-21
2.18339e-21
8.78248e-21
1.71743e-22
1.77957e-21
9.79726e-21
3.22008e-22
1.84985e-21
4.00047e-21
2.17716e-20
3.69781e-21
6.74448e-21
2.57728e-22
4.67444e-22
3.07542e-21
2.04646e-21
3.68117e-21
2.5249e-21
9.61381e-21
4.22536e-21
5.8247e-21
3.06013e-21
5.0588e-21
6.98357e-22
1.13791e-20
8.29138e-21
2.55438e-22
1.2888e-21
1.88761e-21
3.13688e-21
3.7993e-21
2.73971e-21
6.07525e-21
2.26845e-21
2.23933e-21
7.47423e-21
2.24286e-22
3.75685e-21
1.72707e-22
6.48825e-21
1.88964e-21
1.66752e-20
6.0869e-21
1.11755e-21
4.4723e-22
1.62454e-21
3.75133e-21
2.30292e-22
3.8711e-21
1.77022e-21
8.46038e-21
7.47398e-21
1.37128e-21
9.36362e-21
1.50397e-20
1.42947e-21
4.89832e-21
9.4369e-21
3.09213e-21
7.93624e-21
3.84904e-23
5.97847e-21
1.55708e-23
8.96e-21
3.41606e-21
9.32651e-22
4.12855e-21
1.66565e-21
2.83518e-20
1.72915e-21
3.81e-21
1.76206e-22
2.04666e-21
1.41989e-21
8.69353e-22
5.35954e-21
1.42202e-22
5.91735e-21
2.20994e-21
7.28601e-22
1.78993e-21
3.62616e-22
5.31673e-21
2.18597e-21
4.66739e-21
1.40088e-21
1.55814e-21
4.28783e-21
5.53772e-22
1.60974e-22
5.02426e-22
1.1381e-21
6.43045e-21
1.029e-20
4.07223e-21
4.90861e-22
2.82723e-21
1.37456e-20
3.16812e-21
7.91402e-21
2.46371e-21
8.27367e-22
8.88945e-21
4.34427e-21
3.06306e-21
5.18276e-21
3.7483e-21
4.22134e-21
1.98222e-21
1.73024e-21
1.06511e-21
6.3947e-21
5.54729e-21
3.06273e-21
2.16724e-21
1.03991e-20
3.9489e-21
7.91653e-21
6.44075e-21
2.02655e-21
1.2267e-21
5.38613e-21
3.18114e-21
1.14256e-20
5.19258e-21
5.67125e-21
1.89374e-22
2.43584e-22
9.37813e-21
6.58224e-21
2.8497e-21
7.30265e-21
1.14414e-20
9.02414e-21
5.43081e-22
1.3358e-23
2.41856e-20
2.5818e-22
2.18933e-21
4.96867e-21
8.62186e-21
7.58312e-22
9.91858e-21
2.25349e-21
2.41711e-22
2.26693e-20
5.85234e-21
6.87487e-22
5.16328e-21
2.73917e-21
1.20099e-20
8.32546e-22
7.67703e-22
2.51177e-21
7.0339e-22
4.59429e-21
1.0434e-21
1.05112e-22
1.46677e-20
7.44899e-22
5.06283e-21
2.06069e-21
8.64399e-21
5.23751e-21
1.49469e-22
1.48313e-21
7.16178e-21
6.49444e-21
7.92e-22
4.17094e-22
1.87982e-21
5.16034e-21
7.6403e-21
4.04775e-23
1.1802e-20
5.07128e-21
1.12829e-21
3.53214e-21
5.85507e-21
1.49364e-21
2.3391e-22
1.03679e-20
3.01821e-21
4.16058e-21
2.2487e-20
2.98907e-21
9.07374e-21
7.32582e-22
5.43612e-21
5.88106e-22
1.37131e-20
4.09395e-21
3.16464e-21
1.31449e-20
2.58626e-22
4.97191e-21
3.52102e-22
4.13819e-21
2.07726e-21
3.32331e-21
4.38131e-21
1.55712e-21
5.0538e-22
9.95032e-21
5.68081e-21
1.98329e-21
5.80027e-21
2.54639e-22
3.07978e-21
7.22496e-21
6.24196e-21
2.27186e-21
7.00227e-22
6.79568e-21
2.5574e-21
1.68638e-21
6.7202e-22
1.03424e-21
1.39022e-20
5.60016e-21
1.18127e-21
1.17843e-21
8.30644e-21
9.65934e-22
1.45876e-21
1.51464e-21
5.94881e-21
1.13809e-21
1.71503e-20
1.16027e-20
6.2546e-21
3.29265e-22
1.97563e-21
8.43472e-22
3.00925e-21
2.15298e-21
2.26932e-21
6.4674e-21
8.27788e-21
3.0503e-21
2.36447e-23
8.35944e-23
1.38786e-21
1.29705e-21
6.34134e-21
4.03068e-21
8.24961e-21
2.05758e-21
1.11368e-20
1.78228e-21
5.74797e-21
4.52388e-21
1.36843e-21
3.34942e-21
8.91421e-21
3.46776e-21
5.79676e-21
3.68016e-21
7.17186e-22
2.61364e-21
5.16181e-22
6.91984e-21
1.076e-20
1.48136e-21
7.07769e-21
5.00298e-21
9.00162e-22
2.07355e-21
7.21985e-23
4.18759e-21
2.2195e-22
7.56293e-21
5.33771e-21
1.54567e-20
5.78289e-21
4.30941e-21
1.28938e-21
3.19857e-21
7.06807e-21
8.64083e-21
1.60759e-21
3.02572e-21
1.43281e-21
3.80607e-22
9.42222e-22
1.41059e-20
7.20953e-21
1.22561e-20
2.94774e-20
5.05065e-21
4.90318e-21
2.77346e-21
8.5804e-21
1.88795e-22
9.32489e-22
7.31319e-21
5.14257e-21
3.35819e-21
6.54557e-23
3.26113e-22
1.49225e-21
3.17327e-22
2.30862e-21
1.18599e-21
5.10467e-21
8.89105e-21
1.46598e-22
1.05505e-21
9.31991e-22
8.49314e-22
3.72286e-23
8.79947e-21
3.70151e-22
2.59285e-21
8.93006e-22
9.52583e-21
7.46964e-22
9.04736e-22
2.11773e-21
1.37847e-21
3.64384e-21
3.22817e-21
1.69084e-21
6.49177e-21
1.52339e-21
4.55897e-22
1.72592e-21
3.22719e-21
1.12256e-20
1.84499e-21
7.25904e-21
1.6723e-21
1.23545e-21
2.34736e-21
2.93203e-21
8.3195e-21
3.29134e-22
1.01132e-20
1.79672e-21
3.14298e-22
9.3452e-21
2.1935e-22
1.18018e-22
7.12374e-21
1.72828e-21
6.90822e-21
1.30398e-21
1.83795e-21
1.74521e-22
3.16935e-21
1.65138e-21
1.66196e-21
7.46313e-22
1.13588e-20
2.76709e-21
2.69237e-22
9.32639e-21
9.59567e-21
2.3562e-21
1.4197e-21
1.16003e-21
6.53236e-22
1.95474e-21
2.8266e-21
2.41055e-21
3.16011e-21
2.52925e-22
1.2434e-22
5.16463e-22
5.39882e-21
1.06341e-21
8.20533e-21
2.71382e-21
4.14132e-22
3.34551e-21
3.9094e-21
1.74826e-21
1.09754e-21
9.66936e-22
2.77717e-21
2.5446e-21
3.11094e-21
5.10409e-21
1.4397e-20
4.36193e-21
1.26775e-21
9.2423e-21
7.49135e-22
2.87843e-21
1.32273e-20
2.27897e-21
3.96566e-22
1.40656e-21
3.8173e-21
8.07656e-22
5.20541e-22
1.43479e-20
7.82137e-21
8.92398e-22
6.35427e-21
2.46885e-21
1.98651e-21
1.26585e-21
1.77469e-21
4.90828e-21
4.06105e-21
1.23064e-20
1.78989e-20
6.34515e-21
5.98849e-21
2.07132e-21
4.9836e-21
5.97801e-21
1.31472e-21
3.96725e-22
3.06589e-21
1.87434e-21
1.15999e-22
3.93139e-21
8.22637e-22
1.14318e-20
2.16032e-21
3.13806e-24
4.50189e-21
4.912e-23
4.52475e-21
8.19323e-21
1.35642e-21
1.26405e-21
5.22733e-21
1.57969e-20
1.54232e-21
1.08488e-20
5.93744e-23
9.22345e-22
8.99828e-21
9.56094e-21
1.34726e-21
5.42812e-21
3.3191e-21
3.05186e-21
8.9029e-21
1.55648e-21
5.57717e-21
1.24208e-20
2.09057e-21
7.97234e-22
3.90481e-21
1.13437e-21
3.4799e-21
1.25107e-21
2.05299e-21
6.04173e-21
1.14438e-21
4.3687e-21
1.98858e-21
2.39259e-21
2.35896e-21
6.31588e-22
1.2294e-21
3.7936e-21
6.79105e-21
2.37229e-21
2.09662e-21
3.04444e-21
7.15215e-21
3.43309e-21
1.05329e-20
1.72301e-21
7.52056e-21
2.9828e-21
8.10475e-21
9.27458e-21
9.51564e-22
3.62872e-21
3.15556e-22
8.78678e-22
1.27098e-21
1.00239e-21
2.64728e-21
1.69376e-21
3.55224e-21
8.63216e-22
3.23089e-21
9.28974e-22
2.04686e-21
1.30282e-20
5.08371e-21
5.36492e-21
2.49425e-22
1.08331e-21
2.99943e-21
4.10552e-21
7.48029e-21
7.77714e-21
3.24266e-21
2.91235e-22
2.39529e-21
3.58176e-21
8.84396e-21
4.87184e-23
1.80706e-21
8.15136e-21
1.50405e-21
1.68808e-20
2.13748e-21
3.03065e-21
2.71648e-22
1.06778e-20
1.10098e-20
6.98646e-21
2.23474e-21
4.09254e-21
1.35004e-21
8.75474e-22
2.38766e-21
1.03607e-20
2.37161e-21
6.9147e-21
2.38182e-21
1.49055e-21
1.98959e-22
4.63974e-21
8.80761e-21
3.31948e-21
1.59591e-20
8.10291e-22
5.33182e-21
1.41819e-21
2.21087e-21
1.57551e-21
8.53383e-23
4.08519e-22
8.3643e-21
2.40032e-21
4.80707e-21
1.12646e-23
2.83486e-21
3.07491e-21
1.78415e-21
1.10314e-20
3.41618e-22
7.25342e-21
2.02273e-21
4.27707e-23
2.54454e-22
2.86938e-22
7.06843e-23
1.77213e-21
8.16607e-22
2.10452e-21
1.62981e-21
1.01989e-21
1.05572e-20
4.47325e-21
1.12537e-21
6.05112e-21
3.55648e-21
6.97803e-21
9.6072e-21
1.38326e-21
2.19035e-22
2.20752e-21
7.46607e-21
1.02205e-20
3.00407e-21
1.1781e-21
9.1706e-22
6.66404e-22
6.5892e-21
7.26934e-21
1.73895e-21
2.19468e-21
6.99182e-21
6.08722e-21
3.50018e-21
1.15102e-20
3.55652e-22
4.60038e-21
3.3473e-21
4.64522e-21
2.27983e-21
5.55538e-21
2.60732e-21
4.14494e-22
1.59732e-21
1.6653e-21
5.36159e-22
2.52784e-21
3.77066e-21
4.15497e-21
5.54894e-22
9.13177e-21
2.40975e-21
1.49992e-21
1.19417e-21
1.99609e-21
4.83671e-21
2.3611e-21
8.75791e-21
1.37788e-21
1.02789e-21
7.00889e-21
4.06204e-21
5.54553e-21
2.34339e-21
1.29188e-21
2.9079e-21
1.36896e-20
3.17132e-21
3.29537e-21
2.99606e-21
2.69792e-21
2.64976e-21
1.35991e-20
4.5342e-21
6.87967e-23
1.07969e-20
2.30764e-22
3.54789e-22
1.31931e-20
3.51951e-21
5.85352e-21
1.27037e-21
9.70019e-21
5.38658e-22
4.61746e-22
3.44782e-21
6.18939e-21
2.4706e-22
4.34282e-21
2.1546e-21
3.27953e-21
2.40228e-21
5.33059e-21
5.38726e-21
2.03039e-21
8.3942e-21
4.83885e-24
1.2678e-21
1.34256e-21
1.11574e-21
1.44418e-21
1.68277e-21
1.06334e-21
1.25883e-22
2.05621e-21
2.06978e-20
1.59395e-21
3.05e-21
1.3287e-20
2.37898e-21
2.58376e-22
2.40566e-21
3.34419e-21
7.51837e-22
1.26664e-22
3.07254e-21
1.01203e-20
5.8654e-21
4.83345e-22
1.3199e-20
5.44567e-21
3.71954e-21
4.14846e-21
3.16343e-21
5.70501e-22
1.23429e-21
6.35667e-22
3.52971e-21
8.74468e-21
3.72439e-21
9.97018e-22
8.89891e-22
1.09381e-20
2.93478e-21
1.94144e-21
2.82647e-21
5.97441e-21
1.94397e-21
2.50899e-21
3.40982e-22
2.71658e-21
1.01018e-21
1.06384e-22
7.33934e-21
4.02707e-21
1.88215e-21
1.12082e-20
1.56331e-21
5.16249e-21
1.22063e-21
4.7404e-21
2.08528e-21
6.54837e-21
4.29956e-21
1.89574e-21
2.28394e-21
1.39517e-21
9.58241e-22
1.89692e-22
1.74772e-21
8.25493e-21
2.68856e-21
1.02181e-20
4.9302e-21
2.90029e-21
3.47273e-21
7.13565e-22
1.4855e-21
3.69489e-21
3.57068e-21
3.95044e-21
6.10379e-22
1.4756e-21
7.69931e-21
1.2413e-20
6.31665e-21
3.47647e-21
3.97108e-22
1.29429e-20
3.41917e-21
4.65675e-22
1.97065e-21
1.26099e-22
6.28321e-21
5.04543e-21
5.80781e-22
7.11276e-22
3.30775e-21
2.70592e-21
1.98758e-22
4.06737e-21
2.43705e-21
4.11975e-21
2.15541e-21
1.15796e-21
5.6366e-21
3.25886e-21
3.68677e-21
3.13219e-21
1.83394e-21
3.46974e-21
2.34362e-21
2.02444e-21
1.23384e-20
3.51857e-21
8.2819e-21
9.0419e-22
6.78329e-21
6.74424e-22
1.40579e-21
6.89918e-21
1.21175e-21
1.62924e-21
6.51776e-22
3.01019e-21
1.26768e-21
1.73557e-21
2.63923e-22
3.25088e-21
7.11604e-22
1.02566e-22
4.00754e-21
2.81336e-21
5.42351e-21
6.26978e-22
1.59729e-21
4.68222e-21
6.38521e-21
2.39626e-23
2.20176e-21
4.50602e-21
9.76036e-22
1.13881e-20
1.35397e-20
3.68448e-21
1.2837e-20
1.59314e-20
9.76442e-22
2.49153e-21
7.44462e-23
6.94985e-22
5.05049e-21
2.55098e-21
5.04219e-21
3.50568e-21
3.10223e-21
3.20646e-21
8.24222e-21
1.26194e-21
1.85554e-22
1.79893e-22
3.08082e-21
5.72559e-21
7.22853e-21
3.09991e-21
3.28706e-22
4.75045e-21
6.96864e-22
3.21835e-21
2.02331e-22
8.13193e-21
2.57931e-21
1.15325e-21
4.43265e-22
2.24161e-21
1.72124e-21
2.24098e-21
1.35327e-20
5.15816e-21
2.4979e-22
4.42822e-21
4.16245e-21
1.76689e-22
1.00197e-21
4.0204e-21
2.1483e-21
5.11126e-21
2.06353e-21
9.3919e-21
6.58757e-21
1.70133e-21
8.49741e-22
5.29028e-22
5.02406e-21
4.25281e-21
3.11808e-21
1.84566e-21
1.05469e-21
2.75347e-21
2.37215e-21
2.34477e-21
2.6074e-21
2.05924e-21
3.68645e-21
7.92507e-21
1.26835e-20
8.09513e-21
8.54985e-23
6.66356e-22
2.86168e-21
3.46058e-21
1.69777e-21
1.41162e-21
1.09124e-21
8.9031e-21
2.86936e-21
3.46234e-21
2.30123e-21
2.4861e-22
2.81977e-23
1.01741e-20
1.33512e-20
7.7283e-22
2.57458e-21
1.34533e-20
6.581e-21
2.95043e-22
8.31511e-21
5.20887e-21
5.46495e-21
1.46906e-21
1.68945e-21
4.61232e-21
9.89694e-21
4.26357e-22
8.89999e-21
1.36723e-20
1.87959e-22
4.59178e-21
1.96879e-20
1.17635e-20
1.41425e-21
4.40817e-22
3.02439e-21
2.94126e-22
2.91385e-21
3.33957e-21
1.10642e-21
1.36021e-21
3.64835e-21
8.27933e-21
1.05765e-21
2.70648e-21
2.3248e-21
9.63552e-22
2.72008e-21
2.28556e-21
2.85239e-22
1.77624e-21
1.39293e-21
7.21304e-21
9.76591e-21
3.21117e-21
3.25024e-21
5.13158e-21
1.13494e-20
1.98547e-22
1.64229e-21
2.99006e-21
3.75762e-21
5.81122e-21
1.71167e-21
7.53418e-21
1.56356e-21
2.83367e-21
1.76658e-21
4.4733e-21
6.57746e-21
2.90855e-21
1.00046e-20
2.12957e-21
9.9369e-22
6.16849e-21
7.28346e-21
3.73669e-21
8.4321e-21
1.00553e-21
9.27309e-22
4.94364e-22
1.1366e-21
3.04512e-22
2.84087e-21
1.25648e-20
4.32095e-23
8.1146e-21
1.50055e-21
2.91368e-21
1.0825e-21
7.66374e-21
8.95923e-22
3.67927e-21
1.28697e-20
2.70396e-21
1.49813e-21
1.36217e-20
5.88323e-23
1.73376e-21
5.43115e-21
1.86488e-20
4.05347e-21
1.18939e-21
2.47801e-21
7.71644e-21
8.42803e-22
3.47337e-21
1.69927e-21
1.06672e-21
5.65343e-21
3.19235e-21
3.78806e-21
1.48892e-21
2.44243e-21
1.60332e-21
1.18446e-20
7.76709e-22
1.12422e-21
1.76182e-20
3.46496e-21
3.59072e-21
2.7074e-21
4.1243e-21
1.28422e-21
3.11269e-22
5.13599e-21
6.71106e-21
1.34365e-20
1.63645e-21
1.33014e-21
1.60952e-20
6.82525e-22
4.596e-21
2.86501e-21
5.76369e-21
2.14438e-23
2.557e-21
3.08248e-21
1.54193e-20
6.77776e-21
4.55242e-22
1.31162e-21
3.22278e-21
1.25466e-21
3.96641e-21
3.85022e-22
1.90568e-20
1.14009e-21
4.03251e-21
9.58237e-22
7.11632e-21
2.85145e-21
1.25239e-21
2.7203e-21
3.2295e-21
5.15457e-21
2.43143e-21
4.23089e-22
7.15043e-21
2.61427e-22
3.05015e-21
1.16914e-20
5.86486e-21
2.66715e-21
1.27499e-20
5.06871e-21
6.51668e-21
7.46811e-22
1.72283e-21
2.36853e-21
4.76584e-21
3.17491e-21
6.96023e-21
3.4185e-21
2.24622e-20
2.56793e-21
2.57833e-21
1.99677e-21
1.69412e-21
3.54503e-21
1.3506e-21
3.55646e-21
6.70949e-22
2.6342e-22
2.94516e-21
4.98283e-21
3.63473e-21
4.82194e-21
4.39124e-21
6.67436e-21
2.15161e-21
6.67234e-21
4.32049e-21
1.01775e-20
4.39159e-21
8.52131e-21
2.56356e-21
3.4581e-21
5.62566e-21
5.61119e-22
5.35957e-21
5.491e-21
2.92119e-21
1.61169e-21
2.73303e-22
5.74817e-22
2.34134e-21
2.73077e-21
8.56545e-22
1.51983e-21
4.6901e-21
5.99538e-21
4.99723e-21
6.51653e-21
9.59241e-21
1.64502e-21
9.6618e-22
1.63856e-22
1.89848e-21
5.12677e-22
1.60777e-21
1.65218e-21
1.01235e-21
3.75892e-21
1.59524e-21
1.65277e-21
7.41167e-21
1.03142e-21
3.6459e-21
5.23103e-21
5.70483e-21
4.99845e-21
3.10129e-22
2.40514e-21
1.10207e-20
5.20999e-22
2.21467e-21
2.08554e-22
3.94774e-21
2.79453e-21
3.65607e-22
7.92513e-21
7.23106e-21
4.44161e-21
4.72363e-21
3.91476e-21
4.54153e-21
6.93209e-21
4.56829e-21
8.61937e-21
1.18633e-21
8.73095e-21
1.71808e-20
1.93956e-21
3.826e-21
2.64002e-21
1.02811e-20
1.20053e-22
6.50043e-21
2.79723e-22
2.64612e-21
2.40774e-21
7.04674e-21
7.68502e-21
1.94906e-21
4.24242e-21
4.25108e-21
2.29525e-21
3.66636e-22
3.80178e-21
2.99431e-21
5.47485e-21
3.71064e-21
6.22972e-21
2.04561e-21
6.78527e-23
1.17049e-21
1.65149e-21
3.17846e-21
3.15597e-21
2.03674e-21
3.66173e-21
3.89026e-21
4.22002e-21
5.3199e-22
1.02462e-20
3.59786e-22
6.12764e-21
9.19056e-23
3.72323e-21
5.85452e-21
3.94596e-21
3.44087e-22
2.71703e-21
1.17868e-22
2.25487e-21
8.75463e-22
2.90765e-21
1.13074e-21
1.51101e-20
4.29921e-21
2.60695e-22
6.74056e-21
5.88101e-21
1.43665e-21
3.21619e-21
6.25469e-21
1.26909e-20
3.27855e-21
5.11083e-22
3.3873e-21
8.30449e-22
7.47325e-21
7.23498e-22
3.37408e-21
4.01674e-21
6.1883e-21
2.79649e-21
5.23936e-21
4.78704e-22
4.2338e-21
1.21892e-22
3.36095e-21
3.81346e-21
1.3615e-21
1.59216e-21
6.78329e-21
1.92376e-22
1.79501e-21
2.07339e-22
6.1568e-21
1.70725e-21
8.23222e-23
1.15882e-20
5.9788e-21
2.68163e-21
5.3178e-22
2.92913e-21
6.25687e-21
5.57107e-23
2.66844e-21
4.52681e-23
3.41097e-21
3.95035e-21
1.99879e-21
3.94351e-21
3.22986e-22
4.20011e-22
1.43487e-21
2.5672e-22
7.27006e-22
5.64962e-21
2.29473e-21
1.62578e-21
3.96319e-21
2.01562e-21
4.77409e-21
8.74967e-21
2.89543e-22
1.35021e-20
1.81971e-21
2.01984e-21
5.12459e-21
1.11013e-20
3.89191e-21
5.94913e-22
2.15127e-21
4.136e-22
3.83801e-21
1.9157e-21
1.5191e-22
2.72158e-21
4.24578e-21
1.79416e-21
7.22149e-21
2.3634e-21
2.53706e-21
3.06956e-22
2.20815e-21
2.68172e-21
4.06217e-22
1.42122e-21
3.16698e-22
2.95481e-21
3.98521e-22
1.47227e-21
1.96912e-21
2.60832e-21
1.02216e-21