/*--------------------------------*- C++ -*----------------------------------*\
  =========                 |
  \\      /  F ield         | OpenFOAM: The Open Source CFD Toolbox
   \\    /   O peration     | Website:  https://openfoam.org
    \\  /    A nd           | Version:  7
     \\/     M anipulation  |
\*---------------------------------------------------------------------------*/
FoamFile
{
    version     2.0;
    format      ascii;
    class       scalarField;
    location    "0.006/lagrangian/dsmc";
    object      Ei;
}
// * * * * * * * * * * * * * * * * * * * * * * * * * * * * * * * * * * * * * //


218032
(
2.5108e-21
2.62134e-20
3.8793e-21
7.58415e-22
2.27439e-20
5.98822e-21
3.50599e-22
2.51252e-21
1.72613e-20
7.45613e-21
2.96887e-20
2.93466e-20
1.94115e-20
1.98213e-20
1.51967e-20
6.28724e-21
7.70129e-21
6.85959e-21
7.14301e-21
4.58538e-20
6.22665e-21
4.64831e-20
2.21856e-22
6.12931e-21
2.25166e-20
4.66221e-20
3.2095e-20
2.06225e-20
3.00036e-21
1.59703e-20
6.69278e-21
1.71573e-20
2.53989e-20
1.0186e-21
7.0189e-21
8.55808e-21
1.17929e-20
1.03611e-20
1.18605e-20
7.83097e-21
3.55845e-20
1.5925e-20
6.8101e-21
1.6211e-21
3.49167e-21
1.0318e-20
3.13609e-21
7.43193e-21
8.59137e-21
9.16479e-21
7.58183e-21
1.81267e-20
1.05995e-20
1.18691e-20
1.76571e-20
2.58724e-20
3.98469e-21
9.69822e-21
5.57919e-22
2.78068e-21
3.22795e-20
8.80038e-21
1.31921e-20
3.48497e-21
2.18196e-20
4.06985e-21
3.39919e-21
2.73581e-20
3.7132e-20
6.33121e-21
6.78406e-21
2.70642e-20
6.18826e-21
1.01806e-21
9.99429e-21
4.14354e-21
1.24492e-21
3.21563e-21
9.3924e-21
2.15994e-20
8.00185e-21
3.17261e-20
2.5804e-20
6.23378e-22
5.16944e-21
9.12413e-21
5.07772e-21
1.06427e-20
3.07644e-20
8.20964e-21
3.27898e-20
7.34164e-21
3.05842e-20
1.51938e-20
1.67683e-20
8.03855e-21
5.34143e-21
2.44695e-20
1.48394e-20
9.90539e-21
3.66196e-21
1.98245e-21
6.55931e-21
3.33737e-20
4.61294e-21
4.81523e-21
6.85518e-21
2.61949e-21
6.5841e-23
2.32826e-20
1.30727e-20
2.14101e-20
2.43471e-20
1.16485e-20
6.19098e-21
1.40835e-20
8.91382e-21
2.94775e-20
3.05673e-21
9.31237e-21
1.54054e-21
1.13248e-20
7.73115e-22
6.78416e-22
1.14074e-20
1.52788e-21
3.45007e-21
4.07232e-20
7.1754e-21
2.09771e-20
1.07779e-20
4.10995e-20
1.68066e-22
1.09294e-20
1.57359e-20
1.35702e-20
1.07409e-20
4.49795e-20
5.16659e-20
9.04173e-21
8.10533e-21
9.78474e-21
2.05946e-20
4.23928e-20
3.9474e-21
1.99471e-20
2.48452e-20
5.70195e-21
8.57343e-21
8.64196e-21
2.9892e-21
1.38681e-20
6.98779e-21
7.17768e-21
4.07386e-21
1.55064e-20
4.14918e-22
1.15689e-21
1.73606e-20
8.3087e-22
1.76909e-21
2.06114e-21
8.34479e-21
2.5482e-21
8.19045e-21
2.61214e-21
2.68558e-20
5.14813e-21
4.90909e-20
1.6721e-21
4.25105e-21
7.07906e-20
5.7322e-21
2.42679e-20
1.5882e-20
8.99259e-21
2.58802e-20
2.7551e-21
7.8146e-21
1.93096e-21
1.22728e-20
1.67996e-20
7.95688e-21
9.56641e-23
9.57474e-21
1.31188e-20
4.54015e-21
3.38768e-20
1.20359e-20
1.16464e-21
1.97062e-20
1.44444e-22
1.48326e-20
1.45937e-21
1.49853e-20
3.76336e-21
1.34386e-20
2.22044e-21
9.28655e-21
2.47829e-20
1.07867e-21
1.0146e-20
1.30994e-20
1.0289e-20
1.21915e-20
3.97342e-20
1.31028e-21
1.04391e-20
2.00755e-20
1.63214e-21
2.53535e-21
3.65949e-22
9.8945e-21
3.13896e-20
7.96219e-21
7.1829e-22
2.10819e-20
1.03545e-20
4.01829e-21
3.38379e-20
2.23216e-20
8.51535e-21
2.42339e-21
4.51081e-21
1.61688e-22
1.47438e-20
4.85183e-21
6.76001e-21
1.43257e-20
4.61774e-21
2.32972e-20
2.54498e-21
1.51414e-20
1.28231e-20
1.03424e-20
1.82628e-21
2.34776e-20
1.94594e-21
4.74774e-21
1.56908e-20
7.3082e-21
2.41731e-23
2.70708e-20
1.8167e-20
4.51805e-22
1.96857e-21
1.28342e-20
1.75765e-20
6.35581e-21
1.36315e-21
2.17033e-20
2.57084e-20
1.49466e-20
1.05028e-20
3.95867e-21
1.63833e-20
7.32267e-21
1.27102e-21
2.31373e-21
3.89621e-20
6.60188e-21
1.51344e-22
1.35494e-20
7.11675e-21
2.62856e-20
4.2883e-21
7.16169e-22
6.73769e-21
7.0031e-21
3.03577e-21
1.32224e-20
3.05479e-20
2.25857e-21
5.21402e-21
8.25613e-22
1.509e-20
4.50553e-20
1.89484e-21
3.28197e-20
1.902e-20
1.60674e-20
3.36664e-21
4.03005e-21
1.89303e-21
2.50662e-21
1.88389e-21
5.50719e-21
2.9354e-20
1.80546e-20
1.81941e-21
2.77786e-20
9.38906e-21
9.15787e-21
4.50126e-21
9.20972e-21
1.87839e-20
9.56998e-21
4.62348e-21
2.35861e-20
3.08453e-21
2.18257e-20
3.14628e-21
9.01037e-21
6.25285e-22
8.56197e-21
1.78156e-20
7.78119e-21
1.86674e-21
2.50362e-20
1.41807e-20
2.34608e-22
3.05805e-20
3.44469e-20
5.7694e-21
2.80141e-20
6.96601e-21
4.83712e-22
7.13449e-22
4.07663e-20
6.36879e-21
3.14439e-21
1.04853e-20
1.23993e-20
1.16754e-21
1.82936e-20
1.17911e-20
4.95236e-21
1.2513e-20
7.90723e-21
3.76106e-21
6.14975e-21
1.41809e-20
5.02421e-21
6.74641e-21
4.02442e-20
1.61034e-20
2.12278e-20
1.26381e-21
2.43185e-20
3.66184e-21
2.77539e-21
6.95535e-21
4.88991e-21
1.48866e-20
2.38486e-21
4.34549e-20
1.96668e-21
8.1232e-22
2.60572e-21
6.51507e-21
9.99645e-21
2.85781e-20
3.4418e-22
3.60231e-20
9.01447e-21
1.18466e-20
5.75505e-21
1.35137e-21
2.55072e-21
4.73366e-21
2.41539e-21
2.63839e-20
2.23876e-20
9.47884e-21
1.59884e-21
3.7286e-21
9.53809e-21
2.88872e-20
1.63875e-20
1.44363e-20
4.64938e-22
7.97397e-21
1.11395e-21
1.15173e-20
1.42919e-20
1.20814e-20
1.64499e-20
7.94346e-21
1.79433e-21
6.29277e-21
9.41676e-22
3.76018e-21
4.11492e-21
8.1065e-21
7.57765e-21
3.30057e-20
9.53824e-21
9.76718e-21
3.29781e-21
3.04504e-20
3.18532e-20
2.0503e-21
3.58095e-20
2.61466e-20
1.62744e-20
1.95843e-20
8.60897e-22
1.12639e-20
2.10118e-20
8.3991e-21
1.00461e-21
1.28313e-21
1.07538e-20
4.53944e-21
2.77155e-20
7.32737e-21
4.59057e-21
1.11096e-21
6.60316e-21
7.11087e-21
1.95411e-20
1.09496e-20
2.72959e-20
1.32457e-20
2.32139e-20
5.16186e-21
6.83655e-21
9.69178e-21
5.06157e-20
2.32773e-21
4.63938e-21
1.27055e-20
4.09977e-20
5.93067e-21
1.68996e-20
5.38603e-21
1.36946e-20
2.66714e-21
3.46736e-20
1.20483e-21
5.80197e-21
8.09111e-21
2.02179e-20
6.68156e-21
7.03381e-21
4.03594e-21
7.99345e-21
3.59265e-21
5.26339e-21
7.83604e-21
3.34868e-21
1.99925e-21
7.22623e-21
6.57155e-21
2.49764e-20
1.54355e-21
3.0151e-21
1.45127e-20
1.15962e-20
1.21021e-20
2.81423e-21
1.21236e-21
1.35483e-20
2.4541e-21
2.26287e-20
3.11904e-20
3.45321e-21
4.13944e-21
4.20955e-20
3.97549e-20
2.91755e-20
1.68657e-20
1.76303e-20
1.35086e-21
1.43229e-20
6.55691e-21
1.22746e-20
1.16685e-20
3.00592e-21
3.92185e-20
7.88648e-21
8.65239e-21
7.88068e-21
4.89193e-20
5.54279e-20
1.07829e-20
1.79123e-20
3.79329e-21
7.69794e-21
1.69131e-20
9.53339e-21
6.08012e-21
2.38552e-20
2.25599e-21
1.21716e-20
8.98111e-21
1.10641e-20
1.33517e-20
2.69216e-20
1.61564e-20
2.87695e-20
7.63484e-21
2.9558e-20
1.70949e-21
3.13885e-20
2.12414e-21
1.00765e-20
3.15636e-21
6.98053e-21
8.04424e-21
4.14609e-20
8.48879e-21
5.9779e-20
2.0984e-20
3.01814e-20
4.85256e-21
7.83014e-21
1.41169e-20
4.33564e-21
1.82139e-20
2.12492e-20
4.80045e-21
1.2213e-21
2.46908e-20
7.55916e-23
6.97611e-21
5.15552e-21
4.51331e-22
1.27752e-21
3.40071e-21
3.37633e-21
8.15665e-21
1.23831e-20
2.99721e-20
1.12718e-21
2.01208e-22
1.68155e-20
2.95387e-20
8.34829e-21
3.84636e-21
1.55356e-20
6.60889e-21
4.4533e-22
4.7755e-21
9.14886e-21
2.50833e-22
1.10675e-20
1.88924e-20
5.0693e-21
4.09451e-21
7.17436e-21
1.99861e-20
8.25337e-21
2.17812e-20
2.10504e-21
1.49872e-20
3.63746e-21
8.87166e-20
7.30062e-21
4.99768e-20
2.5922e-20
1.02737e-20
8.63616e-20
2.56887e-20
2.35778e-21
1.11539e-20
1.81144e-20
1.58326e-20
3.96845e-21
4.56688e-21
3.20099e-20
2.15754e-20
1.48078e-20
5.45125e-21
1.30977e-20
4.31873e-21
1.50574e-20
2.36385e-20
1.23693e-20
1.58072e-20
1.83543e-23
1.8418e-22
1.18587e-21
4.07813e-22
7.38829e-22
2.11142e-21
8.8759e-21
1.46103e-21
2.01721e-20
2.39969e-20
1.91583e-20
6.92356e-21
4.21693e-21
1.94782e-20
9.31329e-21
2.35167e-20
3.55007e-20
2.98211e-21
1.65758e-21
5.01734e-21
2.31955e-20
1.452e-20
9.8637e-22
1.10795e-20
2.01694e-20
1.37295e-22
7.8123e-21
3.59751e-21
2.73121e-20
6.18086e-22
4.29828e-21
2.56977e-20
3.21291e-21
1.98782e-20
2.23497e-22
5.77217e-21
9.12665e-21
9.20706e-21
5.35919e-21
1.24411e-20
4.79664e-21
3.80281e-20
1.73802e-21
1.90285e-21
8.38895e-21
1.45504e-20
2.43642e-20
4.35365e-22
5.62763e-21
2.02616e-20
8.90228e-21
2.88328e-21
2.0673e-21
6.78439e-21
4.07195e-21
1.87499e-20
5.725e-22
7.40654e-21
3.19353e-21
1.6039e-20
2.22525e-20
3.82068e-22
1.20109e-20
1.19968e-20
3.87214e-22
2.39877e-20
1.30048e-20
3.00546e-21
2.7169e-21
1.86162e-20
8.03817e-21
2.31685e-20
1.35212e-21
8.1731e-21
3.57321e-21
1.02027e-20
7.99421e-21
1.80674e-21
4.25929e-21
2.10326e-20
7.12103e-21
1.87116e-21
6.83112e-21
2.27812e-20
3.14946e-21
3.24221e-21
2.10675e-20
1.00774e-20
1.87293e-20
2.14705e-20
1.26747e-20
7.90032e-21
1.86662e-21
1.09768e-20
1.00329e-20
2.56352e-20
5.03247e-21
1.39906e-21
4.49161e-21
1.38655e-21
1.16574e-21
8.7773e-21
1.00419e-20
6.79494e-21
2.22888e-21
2.77558e-21
2.78827e-22
7.44503e-21
1.34575e-20
4.73772e-20
4.10766e-21
2.40604e-20
2.54705e-20
3.1313e-21
9.29215e-21
8.68255e-21
6.13337e-21
2.81664e-21
8.32128e-22
6.93654e-21
3.58018e-20
1.40746e-21
1.27051e-20
4.18753e-21
6.86594e-21
4.74781e-20
5.40172e-21
2.56225e-20
1.63835e-20
3.96953e-21
7.03411e-21
2.996e-21
2.18903e-20
6.20147e-21
1.20822e-20
4.28761e-20
1.15996e-20
1.15673e-20
1.65409e-20
5.06258e-20
2.44885e-21
1.37962e-20
3.48644e-21
1.14202e-21
1.52127e-21
2.41233e-20
5.31567e-21
4.96717e-21
2.26149e-21
2.56575e-20
3.77864e-20
6.91237e-21
2.07233e-20
7.9899e-21
9.70193e-22
8.04215e-21
2.98709e-20
7.79338e-21
1.63206e-21
6.02631e-21
1.82502e-20
5.30246e-21
1.01129e-22
5.96632e-22
9.93406e-21
1.80904e-20
1.75672e-21
7.90099e-21
4.33119e-21
6.50557e-21
2.7545e-20
9.94989e-22
1.07531e-20
3.09376e-21
6.59863e-21
8.24606e-21
2.10539e-20
4.85273e-21
5.14691e-21
5.46134e-21
2.99492e-20
1.52744e-20
2.16273e-22
2.62725e-21
4.77673e-20
3.02735e-20
4.53323e-21
6.30699e-21
1.82912e-20
1.07329e-20
1.15664e-20
4.0618e-21
9.21849e-22
1.63758e-20
5.55337e-21
8.77056e-21
3.04483e-20
1.03667e-20
7.99311e-21
9.31335e-21
1.71173e-20
6.83608e-21
3.47986e-21
9.84013e-22
4.06207e-21
1.73103e-20
1.3473e-21
1.86703e-20
5.02618e-21
1.0658e-21
4.07008e-20
7.16812e-21
8.70424e-21
6.72636e-22
2.32161e-20
1.64003e-20
2.29595e-20
2.22716e-21
1.00227e-20
4.45556e-21
2.47328e-20
4.6801e-20
8.58915e-21
1.87421e-21
1.00945e-20
1.52513e-20
7.35793e-21
1.4094e-20
1.54473e-20
4.79748e-21
6.29903e-21
7.92254e-21
1.00363e-20
3.70425e-21
8.45169e-21
5.20009e-21
1.78799e-20
6.35567e-21
1.17833e-21
4.09465e-22
1.68052e-21
1.88921e-20
1.53749e-20
6.8438e-21
4.29775e-21
1.24446e-20
3.20633e-21
7.63864e-21
3.78438e-20
5.06506e-22
1.06186e-20
5.26345e-21
5.9331e-21
4.11364e-21
1.12882e-20
4.33848e-21
2.49475e-21
4.44639e-21
1.77303e-20
1.14024e-20
3.82537e-21
1.62996e-20
1.5577e-21
9.92784e-21
2.42085e-21
1.45016e-20
2.30114e-20
1.73774e-20
4.76762e-21
2.24344e-20
6.23745e-22
4.57286e-21
3.32642e-21
6.90503e-21
1.30201e-20
1.68283e-21
1.10028e-20
3.33994e-20
1.9324e-21
1.52227e-20
1.73448e-20
3.75067e-20
2.03907e-20
1.30433e-20
1.25313e-20
4.68037e-21
2.39911e-20
1.43021e-20
4.19743e-21
1.32777e-20
1.33049e-20
1.90534e-21
1.15049e-20
5.36873e-22
1.29988e-20
7.03193e-21
2.26901e-20
4.25187e-20
2.73037e-20
7.88515e-21
1.88587e-20
7.34854e-21
2.67272e-20
2.14605e-20
5.11294e-21
2.5499e-20
1.19647e-20
1.67402e-20
2.64347e-20
1.40424e-20
5.96209e-21
3.50507e-21
1.28595e-20
4.32382e-21
2.88428e-21
1.69356e-20
6.69738e-21
2.87272e-20
1.81209e-20
3.37742e-20
8.00959e-22
1.45884e-20
1.7358e-21
3.42042e-20
1.44278e-22
5.34121e-20
5.05465e-22
3.07895e-21
1.5531e-20
1.96992e-20
3.31166e-20
5.63149e-21
3.12979e-22
2.46559e-21
6.03567e-20
3.65815e-21
2.52256e-21
5.56282e-22
1.86031e-22
1.39454e-20
5.21036e-21
1.71048e-20
3.3386e-21
1.77516e-22
3.64218e-20
2.82982e-20
3.79974e-20
2.0365e-21
2.80396e-21
2.85725e-22
4.02664e-20
1.28457e-20
4.34561e-20
2.39244e-21
2.04864e-20
8.13347e-21
8.6741e-22
4.88434e-21
1.83427e-20
2.1996e-20
4.85407e-21
1.82224e-21
1.11096e-20
3.48275e-20
2.72981e-21
3.02253e-20
3.21037e-21
1.92766e-21
2.37008e-21
8.88459e-21
1.28602e-20
3.79973e-22
6.4079e-21
6.67735e-21
1.25648e-20
1.67984e-20
2.43722e-20
1.25031e-21
1.81158e-20
1.43746e-20
2.11807e-20
2.79209e-20
1.10356e-20
1.06344e-20
1.31318e-20
2.49391e-20
1.3214e-20
3.8773e-21
5.03349e-21
1.35951e-20
7.08432e-22
3.42681e-21
1.55231e-20
7.41647e-21
2.33808e-20
1.0404e-20
1.79069e-20
9.98643e-21
2.71137e-21
2.93714e-22
4.31848e-21
1.32047e-20
1.93505e-20
9.6154e-21
3.31485e-21
7.02701e-21
1.6117e-20
1.80179e-21
2.77244e-22
1.00672e-21
1.30457e-20
2.68569e-20
4.18881e-20
3.32627e-20
3.66694e-21
3.63509e-20
1.58208e-20
5.33314e-20
3.64925e-20
2.93438e-21
3.7107e-20
3.12223e-20
1.81645e-21
1.25866e-20
1.57927e-21
5.70704e-22
1.18159e-20
1.12967e-20
9.50445e-21
8.51695e-21
1.25284e-20
1.50038e-21
2.29222e-20
8.10017e-21
1.76832e-20
9.88467e-21
4.23114e-22
9.63823e-21
6.10646e-21
5.35114e-20
2.05899e-21
6.75958e-22
2.08639e-21
1.84296e-20
3.14204e-20
2.10311e-21
2.72789e-20
1.62386e-20
4.35273e-24
1.66418e-20
3.27515e-21
1.17855e-20
6.16787e-22
2.13684e-20
1.43393e-20
4.56475e-21
1.05222e-20
7.30003e-22
4.73074e-21
8.17271e-22
1.02748e-21
1.58267e-20
1.81181e-20
1.39025e-20
1.78351e-20
2.20899e-20
1.02206e-21
5.72537e-21
7.36086e-21
1.41532e-20
2.80663e-20
1.00373e-20
4.78369e-21
4.99854e-21
8.81039e-21
5.08855e-20
2.54033e-22
1.71848e-22
5.97772e-21
9.42596e-21
1.3488e-20
2.08626e-21
5.20194e-21
3.46891e-21
1.92984e-20
4.24764e-21
1.32553e-21
1.79258e-20
1.56437e-20
1.6202e-22
1.84041e-21
1.24831e-22
6.74022e-21
2.63337e-21
1.73845e-21
4.36417e-21
1.83682e-20
1.69768e-21
6.75049e-21
4.00807e-21
1.47228e-20
6.05783e-21
1.77023e-21
2.11205e-20
1.69452e-21
5.79178e-22
1.35227e-20
4.57798e-21
3.22016e-21
9.97586e-21
1.21616e-20
4.167e-20
9.87111e-21
2.75132e-22
8.7903e-21
5.53684e-21
7.14636e-21
2.04109e-20
5.1857e-21
3.76782e-20
2.21759e-20
1.51364e-20
1.54132e-20
1.09868e-20
1.16711e-21
2.49396e-21
5.46243e-21
3.93426e-21
9.07258e-21
1.12219e-21
9.48751e-21
2.25389e-20
1.59681e-20
7.53035e-21
3.23467e-20
4.55858e-21
2.99669e-20
7.87098e-20
6.95113e-20
2.29228e-20
3.36774e-21
2.09884e-20
3.85211e-21
1.28588e-20
5.36474e-21
1.91896e-20
6.01067e-21
1.99486e-20
3.12458e-21
4.47948e-21
1.66678e-21
2.44335e-20
1.54879e-20
1.92507e-20
3.50621e-21
1.49217e-21
8.93871e-21
1.40784e-20
7.72925e-21
7.1096e-22
3.17143e-21
4.83392e-21
1.50725e-20
8.05188e-21
6.49318e-21
1.49915e-22
7.87023e-21
1.88653e-20
2.11677e-20
6.72289e-21
1.17017e-20
3.02785e-20
1.94271e-22
2.07125e-20
7.77395e-21
1.62911e-22
1.89899e-20
4.35592e-21
5.72742e-21
8.50314e-21
2.69338e-20
1.39198e-20
6.91328e-21
8.45834e-21
3.27022e-21
9.56698e-21
1.06084e-20
1.22792e-21
2.70157e-21
3.62101e-21
2.58217e-20
1.51016e-20
6.13995e-21
6.59175e-22
2.20675e-21
3.54865e-21
1.33678e-21
1.22768e-20
3.04421e-20
3.42014e-21
1.73029e-21
2.51005e-20
9.51091e-21
9.10089e-21
6.06659e-21
6.03266e-21
3.00361e-22
2.81433e-20
2.32656e-21
1.76634e-20
4.27747e-21
8.80152e-21
4.41343e-21
2.37037e-20
3.10046e-21
8.83594e-21
4.51413e-21
3.30042e-20
1.84571e-20
6.38818e-21
2.18624e-20
1.66091e-20
7.24784e-21
1.67098e-20
7.55577e-21
1.32569e-20
1.53001e-20
2.83343e-20
1.53203e-20
6.63312e-20
1.58696e-20
4.82968e-20
1.59134e-20
1.85395e-20
6.02603e-22
1.27584e-20
3.50744e-20
2.30252e-20
9.49606e-21
6.95637e-22
4.81258e-20
3.41341e-20
2.99581e-21
3.29652e-20
1.2836e-20
1.8486e-20
2.55445e-21
2.06816e-20
1.73855e-21
7.89912e-21
6.26193e-21
2.1985e-21
5.12292e-21
4.75442e-21
4.59858e-21
3.02706e-20
2.57761e-20
3.68516e-21
1.8695e-20
5.30501e-21
3.63718e-20
1.13555e-20
2.66914e-20
2.73258e-20
1.62977e-20
4.91197e-20
5.54068e-21
2.0918e-20
2.29521e-20
7.48821e-20
6.9482e-22
1.93482e-20
1.68879e-20
2.35182e-21
2.46831e-21
2.05614e-20
3.12227e-21
2.17579e-21
1.47185e-20
9.64392e-21
3.00742e-21
7.28346e-21
2.17476e-21
1.79579e-20
1.18239e-21
3.83941e-21
3.21741e-21
7.618e-21
3.0831e-20
1.11168e-20
3.11168e-20
3.08905e-21
3.7518e-20
1.65802e-20
2.15175e-20
6.0811e-21
1.74298e-20
1.19598e-20
1.37824e-20
4.09847e-22
5.48493e-21
1.57817e-21
4.71375e-21
4.43646e-21
6.21654e-21
1.09582e-20
4.36755e-21
2.26167e-21
3.86858e-21
2.25759e-23
2.3158e-21
1.44264e-20
4.86404e-21
1.86304e-20
3.95152e-21
3.04981e-20
3.70103e-21
3.13577e-20
2.02144e-21
1.07523e-20
2.17094e-21
5.76315e-21
3.46362e-22
2.40549e-20
9.96333e-21
1.25514e-20
3.21503e-21
1.2313e-20
9.28075e-21
1.35644e-21
1.23734e-20
1.41324e-20
1.01548e-20
7.52464e-21
1.91924e-21
3.2281e-20
1.0419e-20
3.12153e-21
2.10302e-20
1.73445e-20
1.10157e-20
1.19894e-20
3.2361e-20
8.52182e-21
4.76501e-21
2.28065e-21
9.66802e-21
1.07685e-21
2.37179e-21
3.23388e-22
3.29922e-20
1.18367e-20
1.32456e-20
4.48204e-21
8.77053e-21
3.07156e-20
8.72272e-22
3.31785e-21
1.36731e-20
1.26969e-20
4.54778e-20
1.43846e-20
2.05502e-21
2.26178e-20
3.15468e-21
2.70182e-20
5.87093e-21
9.72045e-21
8.61334e-21
9.86004e-21
1.02131e-21
1.50532e-20
3.60499e-22
1.19842e-20
9.96821e-21
1.71188e-20
2.15816e-20
2.91347e-21
1.45829e-20
1.35487e-20
2.29096e-20
1.92115e-22
2.68999e-21
1.02751e-21
6.51487e-22
1.87187e-20
6.37759e-21
1.16735e-20
3.15254e-24
1.38452e-21
9.27277e-22
2.23219e-20
1.42823e-20
5.32384e-21
1.05594e-20
3.43646e-20
7.59545e-21
3.56988e-20
3.03018e-20
3.06599e-21
3.66022e-21
5.30171e-21
6.94307e-21
2.70266e-21
2.76696e-20
1.5538e-20
2.43042e-20
8.80737e-23
1.43593e-20
4.67385e-20
1.58119e-20
2.97179e-21
1.47216e-21
6.62501e-21
1.35908e-20
3.61164e-20
7.56452e-21
5.24426e-21
1.14687e-20
3.14942e-20
2.33832e-21
7.76687e-21
2.51689e-21
1.89704e-22
1.16322e-20
2.49727e-21
8.69395e-21
2.37667e-21
1.65705e-20
1.76617e-21
1.86706e-20
5.10071e-20
3.31753e-20
2.06373e-21
2.4401e-21
1.11359e-21
2.85755e-20
1.57349e-20
1.17235e-20
7.62264e-21
1.02627e-20
2.04736e-20
1.77433e-21
1.02659e-20
1.07862e-20
2.01468e-20
2.67129e-21
1.64826e-20
6.22267e-21
1.68746e-20
1.86148e-20
7.19677e-21
3.30651e-21
7.09807e-21
1.99125e-20
9.65225e-21
7.45052e-21
8.70766e-22
4.69124e-21
3.16788e-22
7.38788e-21
3.79444e-20
8.05186e-22
6.88095e-21
1.15376e-20
1.75806e-20
3.11938e-21
2.71623e-21
6.31194e-21
1.75189e-20
3.37406e-20
3.05617e-20
1.80714e-21
1.0833e-20
1.95686e-20
2.63534e-20
2.04086e-20
5.24836e-21
9.67614e-21
1.02521e-20
1.57438e-20
2.00657e-20
1.11608e-20
2.71187e-22
3.00988e-21
2.69146e-21
1.86978e-21
2.02054e-20
9.19067e-21
1.94285e-20
1.55673e-21
4.72543e-21
2.75573e-21
5.41676e-21
2.68243e-20
1.23872e-20
5.67167e-21
2.07328e-21
8.28017e-22
1.33096e-21
2.2003e-21
7.65674e-20
2.09286e-21
7.23954e-22
3.99616e-21
1.26439e-20
2.22906e-20
1.17771e-20
1.205e-20
1.1564e-20
4.971e-21
3.56262e-21
2.32567e-21
1.21338e-20
4.68071e-21
5.87034e-21
3.2541e-21
4.57433e-21
1.64113e-20
3.65844e-20
2.85047e-21
1.82162e-22
2.58288e-21
2.0643e-21
2.89575e-20
1.96025e-20
3.63343e-21
1.33236e-21
4.16966e-21
9.78436e-21
5.00224e-21
2.96658e-21
3.59708e-20
1.27151e-20
1.62418e-20
8.49541e-22
3.97559e-20
4.22698e-21
3.78362e-20
4.3224e-20
2.86453e-21
5.58735e-21
1.32046e-20
8.64433e-21
5.5059e-21
9.86798e-21
1.33163e-20
1.47343e-22
1.70649e-20
8.75382e-21
6.80155e-21
3.96958e-20
1.88386e-21
1.13628e-20
9.92896e-21
8.24499e-21
1.35222e-20
7.45675e-22
5.39977e-21
2.58429e-20
5.87822e-21
2.53526e-20
2.78266e-21
2.21418e-21
2.98741e-21
2.72254e-20
1.23536e-20
3.07814e-20
1.75875e-20
8.56289e-21
2.98339e-21
1.80613e-20
8.24154e-21
1.61181e-20
2.38106e-20
1.10784e-21
1.88331e-21
3.32639e-21
1.50189e-20
1.17616e-20
1.2065e-20
1.38235e-20
6.21425e-22
1.71414e-20
3.57089e-20
2.25584e-20
7.78249e-21
8.73538e-21
8.25859e-21
9.23541e-21
3.49351e-21
5.06615e-21
1.3885e-22
1.24955e-21
5.14026e-21
3.57052e-21
3.24392e-21
1.56173e-20
6.4132e-21
9.39101e-21
2.63309e-20
8.43977e-21
2.53313e-20
2.79892e-21
4.02723e-20
2.2793e-20
2.59906e-20
7.20845e-21
2.06868e-20
6.49667e-20
1.30511e-20
2.11041e-22
7.01628e-21
9.50705e-23
8.83611e-21
2.49788e-20
1.54019e-21
1.15781e-20
2.507e-20
8.45184e-22
1.01533e-20
2.19955e-20
1.27812e-20
2.94634e-24
1.68861e-20
1.29283e-20
7.57867e-21
9.71412e-21
1.31919e-21
9.6378e-22
1.44647e-21
7.76964e-21
1.95985e-20
7.99468e-21
2.56989e-20
2.97685e-20
7.84829e-21
3.145e-22
3.37782e-20
1.9729e-20
1.80356e-20
8.84231e-21
3.01404e-20
3.29616e-20
3.24952e-20
3.97917e-21
3.14779e-21
1.42267e-21
1.6409e-20
1.52732e-22
5.48732e-21
1.22438e-20
9.57529e-21
4.9356e-21
1.2225e-20
2.56414e-20
3.71125e-21
7.73452e-21
8.71526e-21
5.29027e-21
1.34495e-20
1.21345e-20
6.0745e-21
4.46651e-20
3.85597e-22
1.32738e-20
2.0306e-20
1.18077e-20
1.14953e-20
5.13321e-21
2.14797e-20
9.70008e-21
1.50554e-20
2.08492e-21
2.98157e-20
3.219e-21
1.33067e-20
3.7679e-20
1.9912e-20
2.12712e-21
2.08586e-21
1.24215e-20
2.96025e-20
2.70731e-20
4.35784e-21
1.91216e-20
1.51919e-21
5.43184e-21
2.53761e-20
1.7072e-21
8.15824e-21
2.61344e-20
3.60724e-20
5.13771e-23
1.37135e-20
2.02795e-20
1.89548e-21
3.85502e-21
4.82049e-21
1.04681e-21
1.75402e-20
1.61469e-20
3.1878e-21
2.12598e-21
4.50864e-21
7.72873e-21
6.38828e-21
1.30343e-21
3.58323e-20
1.13804e-20
1.08396e-20
1.72145e-20
2.55502e-21
1.74785e-20
9.87154e-21
2.33764e-20
9.32404e-21
5.01377e-21
1.1017e-20
1.93582e-20
7.0419e-22
3.50112e-21
1.20484e-20
4.75379e-21
1.50797e-20
1.13065e-20
1.32633e-21
8.07388e-21
9.97782e-21
1.63526e-20
2.66407e-20
1.63054e-20
7.07223e-21
8.67543e-21
1.59115e-20
3.75849e-21
1.61909e-20
8.46034e-21
1.78781e-21
5.15224e-20
3.19133e-21
1.41326e-20
4.03013e-21
3.7611e-20
1.54104e-20
3.21749e-20
4.15642e-21
1.37159e-21
9.54879e-21
2.65252e-20
4.18337e-21
1.76534e-21
1.81215e-21
2.68176e-21
5.65969e-21
1.0271e-20
2.63557e-20
5.79752e-21
5.36973e-21
1.41819e-20
2.74756e-21
1.35873e-20
1.52446e-20
3.2184e-21
3.66875e-20
9.17683e-21
1.05057e-20
2.0616e-20
2.61447e-21
5.64793e-22
9.00013e-21
3.40843e-20
3.43578e-20
5.83814e-20
5.36471e-21
2.88284e-20
7.92207e-22
2.6544e-21
3.56584e-21
3.68297e-21
3.74221e-21
1.36643e-20
1.1803e-21
6.09991e-21
1.38739e-20
8.91358e-21
2.33823e-22
6.23897e-21
2.86677e-20
2.88642e-20
7.18575e-22
9.46604e-21
1.29616e-20
4.23541e-21
2.8218e-21
4.2557e-22
1.4242e-20
2.01268e-20
1.01467e-20
5.95113e-20
8.03067e-21
5.13828e-21
2.78333e-20
2.96375e-22
3.34174e-21
2.12522e-20
1.26718e-20
5.2908e-21
3.0428e-20
7.4525e-21
2.16453e-20
1.07968e-20
5.66491e-20
2.49034e-20
1.69807e-22
7.93096e-21
1.78327e-20
3.99198e-21
4.70901e-21
2.36735e-20
9.23488e-21
3.16232e-20
4.87395e-20
1.401e-20
1.12056e-20
2.496e-20
4.57472e-20
3.1611e-20
8.92925e-21
3.86874e-20
1.57313e-20
2.69332e-22
1.4554e-20
4.01524e-21
1.41718e-20
1.13905e-20
2.24276e-20
3.31475e-20
9.71762e-21
5.58117e-21
4.17416e-21
6.01543e-22
2.37742e-20
5.59551e-21
3.67258e-20
1.61448e-20
3.31937e-20
1.74775e-20
4.44604e-20
7.31388e-21
6.3134e-21
1.07983e-20
7.48791e-21
1.08335e-20
1.5081e-20
1.3633e-20
1.52795e-20
4.1727e-21
1.41067e-20
1.76771e-20
3.48633e-20
2.61532e-22
4.02687e-20
2.24546e-21
9.02106e-21
7.16164e-22
4.14153e-21
2.41639e-21
2.72323e-20
4.0553e-21
2.24506e-21
1.49832e-20
2.16654e-20
4.77274e-20
7.23447e-20
6.08649e-21
5.4796e-21
1.7613e-20
1.4207e-20
2.34272e-22
1.68979e-20
7.00028e-21
4.62241e-20
4.97374e-23
2.17849e-20
4.25531e-22
1.83758e-22
1.05856e-20
2.70924e-21
5.44309e-22
1.46427e-21
6.7574e-21
3.87031e-21
1.20818e-20
3.44667e-20
2.40287e-20
1.13757e-20
1.27455e-20
6.82164e-21
1.93574e-21
4.97003e-21
2.25105e-21
2.2679e-21
1.27238e-22
2.52921e-21
4.99473e-21
1.75298e-22
2.59298e-20
4.20432e-21
2.32002e-20
3.72777e-21
5.58541e-21
2.02497e-21
5.41273e-21
1.27262e-21
3.42615e-20
4.1302e-21
2.07076e-20
5.11554e-21
9.46785e-22
6.28964e-21
1.74441e-21
1.32764e-20
1.63031e-20
1.65767e-20
5.4739e-20
5.66779e-21
7.07609e-21
7.08235e-21
5.51552e-21
5.17183e-21
5.61763e-21
1.74295e-20
3.13365e-20
1.22768e-20
1.97507e-21
1.10162e-20
2.24118e-20
8.9932e-21
4.98257e-21
1.64462e-20
6.43841e-21
7.33633e-21
1.54918e-21
6.40046e-21
9.56827e-21
1.73816e-20
1.22646e-20
5.64062e-23
2.86715e-21
3.66373e-21
5.57985e-20
7.61362e-21
5.9069e-20
2.12472e-20
1.71409e-20
1.8936e-20
1.53537e-20
2.64771e-21
2.49324e-20
5.06756e-21
7.66948e-21
5.23796e-21
1.34799e-20
1.49703e-23
4.75554e-21
2.54846e-20
3.21152e-22
1.64739e-20
5.53936e-21
5.02679e-21
3.88245e-21
3.00154e-20
9.3461e-21
5.44671e-21
3.30523e-20
3.14907e-21
2.35422e-21
2.55871e-20
6.44927e-21
2.23749e-20
4.80916e-20
8.96697e-21
2.68582e-21
1.8962e-21
7.32594e-21
2.29589e-20
4.24359e-21
5.29896e-20
6.97845e-21
8.14315e-21
5.31767e-21
5.50259e-21
4.68067e-21
1.50976e-21
2.91e-20
2.35736e-21
4.70744e-20
3.08352e-21
2.74808e-21
2.55988e-20
8.07031e-22
9.377e-21
1.07185e-20
1.72958e-20
9.37783e-21
8.8888e-21
2.43048e-20
1.93791e-21
1.03996e-20
7.62891e-21
1.27535e-20
4.87598e-20
1.00562e-20
1.79229e-20
3.9087e-20
3.48757e-21
2.83885e-20
1.72062e-20
1.19467e-20
1.69573e-20
3.3877e-21
3.22001e-20
2.08452e-20
2.21835e-20
1.74819e-20
4.3191e-20
2.67637e-22
1.26303e-20
3.58865e-20
5.74277e-21
2.68189e-22
1.63473e-20
2.41021e-20
9.91819e-21
1.9006e-21
1.04076e-21
1.44247e-20
1.43961e-20
4.79183e-21
1.71786e-20
3.71298e-21
1.62565e-20
2.24244e-21
9.16734e-22
3.2861e-20
6.12877e-21
1.72895e-20
2.74283e-22
1.83947e-20
1.70119e-20
9.44048e-21
2.20179e-20
2.34653e-21
2.23426e-21
1.54557e-20
2.18802e-20
7.94655e-21
1.70013e-20
1.86048e-20
1.03349e-20
3.65232e-21
2.61031e-21
4.37505e-21
2.60732e-21
1.8508e-20
8.43349e-21
2.06823e-20
7.44223e-21
1.57329e-20
4.50245e-20
3.23365e-21
3.74348e-21
2.22585e-21
4.86258e-21
1.23811e-20
1.54903e-21
1.3199e-21
6.35981e-20
2.01556e-20
2.15699e-20
2.44999e-20
4.23933e-21
3.20114e-22
3.6566e-21
8.35167e-21
2.34767e-21
1.30587e-20
7.36835e-21
2.22566e-20
2.88604e-21
6.82704e-21
1.12415e-20
3.75221e-20
9.53753e-21
1.80543e-21
2.87508e-21
5.3791e-21
4.99719e-21
6.44382e-21
1.68118e-20
4.0871e-21
1.11161e-20
1.78338e-20
5.03887e-21
3.40538e-21
1.75685e-20
7.6062e-22
5.32234e-21
1.9186e-20
2.06461e-20
1.67305e-20
2.7613e-20
6.05445e-21
3.67346e-21
2.55935e-21
1.34509e-22
1.64121e-20
5.22318e-20
4.64153e-21
2.67112e-21
2.02557e-21
6.85812e-21
4.1633e-21
1.06142e-20
8.41735e-21
2.21966e-20
4.01498e-20
2.05059e-21
1.22262e-21
2.90136e-22
1.63267e-20
1.35244e-21
2.96741e-20
3.77085e-21
1.68799e-20
1.03407e-20
5.68178e-21
2.53686e-20
2.91806e-21
9.62395e-21
6.49925e-21
2.60037e-21
1.52187e-20
8.78444e-21
1.73998e-20
9.77193e-21
1.34643e-20
1.04106e-20
2.49735e-21
2.42667e-20
5.49507e-21
3.15618e-21
1.05438e-20
1.54866e-21
6.24657e-20
2.48834e-20
1.13089e-21
3.78133e-21
1.56408e-20
1.39812e-20
5.282e-20
3.68742e-20
2.47042e-21
1.64271e-20
1.39048e-20
2.22779e-21
9.83202e-21
1.59722e-20
7.45589e-21
3.90345e-21
9.64785e-21
1.74089e-21
8.0651e-21
8.68213e-21
2.39449e-21
2.98131e-21
1.99174e-20
1.95713e-20
1.2967e-20
1.03432e-20
2.17069e-21
4.77537e-21
1.64464e-20
9.59092e-21
1.00086e-20
3.47106e-21
2.66933e-20
1.42184e-20
2.74383e-21
3.71705e-20
7.15469e-21
2.07222e-20
7.61921e-22
1.56149e-20
1.89803e-20
1.62935e-20
2.65562e-21
9.08029e-22
3.62051e-20
2.92514e-20
4.31975e-21
8.0702e-21
1.30702e-20
2.49207e-20
1.98295e-20
8.27859e-21
3.32105e-21
1.74466e-20
1.42148e-20
3.42016e-21
3.36429e-20
2.91569e-21
1.47813e-20
1.8071e-20
3.39113e-20
1.02918e-20
6.51112e-21
4.2974e-21
1.45546e-20
1.6944e-21
4.59324e-21
6.96262e-21
1.02281e-20
1.46259e-20
2.27678e-20
3.2985e-20
2.48847e-23
9.26708e-21
3.31917e-21
1.34626e-20
9.93562e-21
8.02412e-22
8.08389e-21
5.34959e-21
6.31165e-21
1.48619e-21
1.88078e-20
2.30316e-22
3.01031e-21
4.16061e-21
1.37385e-20
8.61993e-21
1.10442e-20
1.70145e-20
1.96305e-20
1.00979e-20
1.24061e-20
2.49454e-21
1.4807e-20
1.31878e-20
8.59567e-23
3.51602e-21
8.35638e-22
1.73591e-20
4.7618e-21
4.62623e-21
9.97129e-21
3.2416e-20
5.65105e-21
1.06107e-21
2.6524e-21
1.25978e-20
3.70957e-23
4.13875e-21
9.43556e-21
4.15868e-22
1.57779e-21
3.52946e-20
1.3353e-20
1.56713e-20
1.78887e-20
5.21009e-21
2.55348e-21
6.91003e-21
8.69186e-21
3.82361e-21
2.16923e-20
1.69917e-20
3.90256e-20
3.17219e-21
1.72095e-21
5.80809e-21
1.0271e-20
1.64624e-20
1.48837e-20
1.72408e-20
1.40365e-20
3.24394e-20
7.48327e-22
2.33876e-21
5.5246e-21
1.02744e-20
1.65286e-20
8.19869e-21
5.41838e-21
4.80979e-22
6.39456e-21
2.71358e-21
3.53768e-20
3.52128e-20
4.46929e-20
1.43194e-20
2.20035e-20
1.87474e-20
5.1203e-20
5.1341e-20
9.70981e-21
7.80641e-21
2.87721e-20
1.90042e-20
1.75267e-20
2.43165e-21
1.13156e-20
8.75114e-21
1.1134e-20
2.37946e-21
1.7339e-20
1.10757e-20
2.17126e-20
1.40246e-20
1.23511e-20
5.50371e-21
1.1224e-20
3.02585e-21
9.68971e-21
2.02239e-20
2.61295e-20
4.07787e-20
1.00946e-20
4.66293e-20
1.0393e-22
1.30792e-20
1.39365e-20
2.97566e-20
8.63223e-21
2.99745e-21
1.83317e-20
3.89419e-21
4.23908e-21
4.03479e-21
6.35255e-21
9.81461e-21
3.0773e-21
4.07546e-20
1.93699e-20
3.00505e-20
2.77757e-20
1.59002e-21
2.80735e-20
5.04894e-20
1.46787e-20
3.39704e-21
1.5928e-21
9.7305e-21
2.74485e-21
5.7894e-22
1.42125e-20
1.24838e-21
1.84997e-20
8.71287e-21
3.93408e-21
5.97359e-21
1.32096e-21
2.2186e-20
2.51294e-20
7.07267e-21
2.95072e-20
7.34138e-21
1.84199e-20
2.25236e-20
4.35515e-21
1.27901e-20
1.2819e-20
2.21835e-20
5.66264e-21
2.64862e-22
3.29315e-20
1.75005e-20
1.20847e-20
4.06401e-21
1.07702e-20
1.82878e-20
2.14115e-20
4.38426e-21
6.80365e-22
2.62986e-21
1.17004e-20
4.47508e-22
3.67987e-21
3.96271e-21
1.81146e-20
5.94008e-21
8.93822e-22
5.61183e-22
2.46046e-20
3.4343e-20
3.86502e-21
8.10536e-21
8.66574e-22
2.54183e-21
8.82625e-21
3.22856e-20
2.61215e-20
5.29053e-21
4.36134e-20
3.22338e-20
1.28145e-20
2.78364e-21
5.42641e-20
2.52608e-20
3.70218e-21
4.91443e-21
1.01086e-19
5.41257e-21
8.4721e-22
8.44247e-21
5.41939e-21
1.05768e-20
1.52331e-20
1.48837e-20
1.00119e-20
7.59301e-21
1.87515e-20
4.58533e-20
1.54501e-20
4.83706e-21
1.28588e-20
1.18307e-20
6.84942e-21
7.31576e-22
6.85317e-21
1.66784e-20
8.99754e-22
5.10553e-21
7.90522e-21
3.66121e-20
1.32156e-21
3.87147e-21
2.31456e-20
2.27174e-20
8.44625e-21
2.06028e-20
4.11588e-21
9.26515e-21
2.43681e-21
4.8121e-21
2.17807e-21
3.64051e-20
9.44998e-22
1.1424e-20
7.21552e-21
6.57924e-21
1.24702e-20
1.15694e-20
1.94185e-20
5.06038e-21
2.5554e-20
1.55131e-20
2.82606e-21
9.9852e-22
1.51935e-21
4.73649e-20
1.15349e-21
3.35435e-20
2.69662e-20
1.18052e-20
1.63251e-20
4.33189e-20
1.58898e-20
1.12113e-20
9.29531e-21
1.04653e-20
2.95631e-21
9.01534e-21
7.42844e-21
3.78028e-21
1.91376e-20
7.16665e-22
4.27652e-21
1.12079e-20
2.34879e-22
2.93875e-20
1.67252e-20
2.41128e-21
2.50403e-21
1.97477e-22
8.43977e-21
8.12251e-21
1.45111e-20
1.64436e-21
2.24127e-21
2.96183e-20
2.42562e-20
2.84166e-21
5.00527e-21
3.05093e-21