/*--------------------------------*- C++ -*----------------------------------*\
  =========                 |
  \\      /  F ield         | OpenFOAM: The Open Source CFD Toolbox
   \\    /   O peration     | Website:  https://openfoam.org
    \\  /    A nd           | Version:  7
     \\/     M anipulation  |
\*---------------------------------------------------------------------------*/
FoamFile
{
    version     2.0;
    format      ascii;
    class       Cloud<dsmcParcel>;
    location    "0.006/lagrangian/dsmc";
    object      positions;
}
// * * * * * * * * * * * * * * * * * * * * * * * * * * * * * * * * * * * * * //

93318
(
(0.429238 0.285381 0.285381 0) 1 0 1
(0.92323 0.0383851 0.0383851 0) 22 21 1
(0.700409 0.149796 0.149796 0) 3 2 1
(0.507905 0.246048 0.246048 0) 0 0 2
(0.550502 0.224749 0.224749 0) 14 13 1
(0.991499 0.00425044 0.00425044 0) 12 12 2
(0.787542 0.106229 0 0.106229) 18 18 1
(0.0941377 0.452931 0 0.452931) 18 17 2
(0.999214 0.000392822 0.000392822 0) 2 1 1
(0.414927 0.292537 0.292537 0) 2 2 2
(0.988177 0.00591154 0.00591154 0) 6 5 1
(0.516027 0.241986 0 0.241986) 32 31 2
(0.821778 0.0891108 0.0891108 0) 4 3 1
(0.511082 0.244459 0.244459 0) 0 0 2
(0.71586 0.14207 0 0.14207) 27 27 1
(0.545156 0.227422 0 0.227422) 13 12 2
(0.292757 0.353622 0.353622 0) 25 24 1
(0.418482 0.290759 0.290759 0) 8 8 2
(0.161934 0.419033 0.419033 0) 17 17 2
(0.912276 0.0438622 0.0438622 0) 0 0 2
(0.102673 0.448663 0.448663 0) 5 5 2
(0.382782 0.308609 0 0.308609) 1 0 2
(0.69428 0.15286 0 0.15286) 1 0 2
(0.298409 0.350795 0.350795 0) 10 9 1
(0.194249 0.402876 0 0.402876) 1 1 1
(0.896693 0.0516534 0 0.0516534) 11 10 2
(0.945903 0.0270485 0.0270485 0) 3 3 2
(0.714068 0.142966 0 0.142966) 0 1000 1
(0.306423 0.346789 0.346789 0) 19 19 2
(0.452073 0.273964 0 0.273964) 5 4 2
(0.65776 0.17112 0.17112 0) 6 6 2
(0.732621 0.133689 0 0.133689) 22 21 2
(0.971332 0.0143342 0.0143342 0) 19 18 1
(0.768986 0.115507 0.115507 0) 7 6 1
(0.937305 0.0313476 0 0.0313476) 4 3 2
(0.2558 0.3721 0.3721 0) 12 12 2
(0.562165 0.218917 0 0.218917) 7 6 2
(0.612339 0.193831 0.193831 0) 17 16 1
(0.885293 0.0573537 0.0573537 0) 5 4 1
(0.583191 0.208405 0.208405 0) 1 0 1
(0.0959012 0.452049 0 0.452049) 2 2 1
(0.116439 0.44178 0 0.44178) 1 0 2
(0.715815 0.142092 0.142092 0) 15 14 1
(0.320763 0.339618 0 0.339618) 21 21 1
(0.885381 0.0573095 0 0.0573095) 3 3 1
(0.445766 0.277117 0 0.277117) 2 2 1
(0.367237 0.316382 0 0.316382) 8 7 2
(0.529228 0.235386 0 0.235386) 3 2 2
(0.134863 0.432569 0.432569 0) 6 6 2
(0.211184 0.394408 0.394408 0) 37 37 2
(0.147665 0.426167 0.426167 0) 1 1 2
(0.751167 0.124416 0.124416 0) 11 10 1
(0.175015 0.412493 0 0.412493) 34 34 1
(0.10278 0.44861 0 0.44861) 7 7 1
(0.939992 0.0300042 0.0300042 0) 20 19 1
(0.953936 0.0230318 0 0.0230318) 2 1 2
(0.7845 0.10775 0 0.10775) 12 12 1
(0.464808 0.267596 0.267596 0) 1 0 1
(0.747319 0.12634 0 0.12634) 8 7 2
(0.28505 0.357475 0 0.357475) 10 10 1
(0.406767 0.296617 0 0.296617) 15 14 2
(0.898895 0.0505527 0.0505527 0) 9 9 2
(0.689773 0.155113 0 0.155113) 18 17 2
(0.15502 0.42249 0.42249 0) 14 13 1
(0.959692 0.020154 0.020154 0) 2 1 1
(0.50453 0.247735 0.247735 0) 11 11 2
(0.172307 0.413846 0.413846 0) 15 15 2
(0.901427 0.0492864 0 0.0492864) 6 6 1
(0.511657 0.244171 0 0.244171) 2 2 1
(0.188496 0.405752 0 0.405752) 5 4 2
(0.239561 0.38022 0.38022 0) 14 14 2
(0.07504 0.46248 0 0.46248) 26 25 2
(0.873087 0.0634563 0.0634563 0) 16 15 1
(0.762156 0.118922 0.118922 0) 2 2 2
(0.270083 0.364958 0.364958 0) 5 5 2
(0.363443 0.318278 0 0.318278) 0 0 1
(0.295681 0.352159 0.352159 0) 3 2 1
(0.430239 0.28488 0 0.28488) 2 1 2
(0.655466 0.172267 0 0.172267) 32 32 1
(0.137945 0.431027 0 0.431027) 5 5 1
(0.475605 0.262197 0 0.262197) 6 6 1
(0.108537 0.445731 0.445731 0) 7 7 2
(0.482895 0.258553 0 0.258553) 20 19 2
(0.431252 0.284374 0.284374 0) 15 14 1
(0.340051 0.329974 0.329974 0) 2 1 1
(0.781066 0.109467 0 0.109467) 2 1 2
(0.830765 0.0846175 0 0.0846175) 9 9 1
(0.391673 0.304163 0.304163 0) 9 8 1
(0.994725 0.00263748 0 0.00263748) 38 37 2
(0.0799957 0.460002 0 0.460002) 5 4 2
(0.825836 0.087082 0.087082 0) 12 12 2
(0.692754 0.153623 0.153623 0) 1 1 2
(0.62759 0.186205 0.186205 0) 32 32 2
(0.947326 0.0263372 0 0.0263372) 25 25 1
(0.205613 0.397194 0.397194 0) 4 4 2
(0.626009 0.186996 0 0.186996) 4 4 1
(0.598885 0.200558 0 0.200558) 15 15 1
(0.254145 0.372927 0.372927 0) 4 4 2
(0.179163 0.410419 0 0.410419) 3 2 2
(0.542714 0.228643 0 0.228643) 16 16 1
(0.23526 0.38237 0.38237 0) 33 32 1
(0.61328 0.19336 0 0.19336) 2 1 2
(0.498037 0.250981 0.250981 0) 12 11 1
(0.170697 0.414651 0 0.414651) 3 2 2
(0.545464 0.227268 0.227268 0) 1 0 1
(0.163827 0.418086 0 0.418086) 4 4 1
(0.614898 0.192551 0 0.192551) 16 15 2
(0.275692 0.362154 0.362154 0) 17 16 1
(0.424835 0.287583 0 0.287583) 0 1000 1
(0.180517 0.409742 0 0.409742) 32 32 1
(0.0987916 0.450604 0.450604 0) 21 21 2
(0.768407 0.115796 0 0.115796) 3 3 1
(0.419749 0.290126 0 0.290126) 5 4 2
(0.268543 0.365728 0 0.365728) 4 4 1
(0.436579 0.281711 0 0.281711) 5 5 1
(0.519984 0.240008 0 0.240008) 7 6 2
(0.667785 0.166108 0.166108 0) 18 17 1
(0.994623 0.00268836 0 0.00268836) 0 1000 1
(0.595023 0.202488 0.202488 0) 3 2 1
(0.175243 0.412379 0 0.412379) 1 0 2
(0.0603013 0.469849 0.469849 0) 17 17 2
(0.894258 0.0528709 0.0528709 0) 18 17 1
(0.120829 0.439585 0.439585 0) 0 1000 2
(0.412979 0.29351 0.29351 0) 13 13 2
(0.790458 0.104771 0 0.104771) 15 14 2
(0.502605 0.248698 0.248698 0) 17 17 2
(0.787386 0.106307 0 0.106307) 11 11 1
(0.972073 0.0139637 0 0.0139637) 38 37 2
(0.140368 0.429816 0.429816 0) 17 17 2
(0.933924 0.0330382 0.0330382 0) 0 0 2
(0.504199 0.247901 0.247901 0) 8 7 1
(0.126871 0.436564 0.436564 0) 4 4 2
(0.0918254 0.454087 0 0.454087) 0 1000 1
(0.876808 0.0615958 0.0615958 0) 8 7 1
(0.598553 0.200724 0.200724 0) 17 16 1
(0.495553 0.252223 0 0.252223) 15 14 2
(0.709159 0.145421 0.145421 0) 6 6 2
(0.0935496 0.453225 0.453225 0) 21 21 2
(0.5398 0.2301 0 0.2301) 14 13 2
(0.203135 0.398433 0.398433 0) 7 6 1
(0.773179 0.11341 0.11341 0) 18 18 2
(0.832786 0.0836068 0.0836068 0) 8 7 1
(0.124179 0.437911 0.437911 0) 3 2 1
(0.886905 0.0565473 0 0.0565473) 15 15 1
(0.0417336 0.479133 0.479133 0) 18 18 2
(0.195836 0.402082 0 0.402082) 8 8 1
(0.808465 0.0957676 0.0957676 0) 7 6 1
(0.349627 0.325186 0.325186 0) 15 14 1
(0.759796 0.120102 0.120102 0) 18 18 2
(0.0841004 0.45795 0.45795 0) 10 10 2
(0.00791172 0.496044 0 0.496044) 14 13 2
(0.4355 0.28225 0 0.28225) 47 47 1
(0.487449 0.256275 0 0.256275) 11 10 2
(0.904562 0.0477188 0 0.0477188) 3 2 2
(0.110686 0.444657 0.444657 0) 24 23 1
(0.992033 0.00398348 0 0.00398348) 18 18 1
(0.83767 0.0811652 0 0.0811652) 13 12 2
(0.796409 0.101796 0.101796 0) 4 4 2
(0.250443 0.374779 0 0.374779) 28 27 2
(0.064248 0.467876 0 0.467876) 4 3 2
(0.439451 0.280275 0 0.280275) 12 12 1
(0.204605 0.397698 0.397698 0) 3 2 1
(0.432825 0.283587 0.283587 0) 47 46 1
(0.822391 0.0888047 0.0888047 0) 5 4 1
(0.356473 0.321764 0.321764 0) 10 9 1
(0.709589 0.145206 0 0.145206) 9 9 1
(0.391208 0.304396 0 0.304396) 16 16 1
(0.389306 0.305347 0 0.305347) 28 27 2
(0.975717 0.0121417 0.0121417 0) 9 8 1
(0.76657 0.116715 0.116715 0) 23 22 1
(0.992926 0.00353689 0.00353689 0) 33 33 2
(0.340599 0.3297 0 0.3297) 0 0 1
(0.61559 0.192205 0 0.192205) 11 10 2
(0.198696 0.400652 0 0.400652) 33 32 2
(0.265691 0.367155 0.367155 0) 8 8 2
(0.502562 0.248719 0 0.248719) 4 4 1
(0.356621 0.321689 0 0.321689) 2 1 2
(0.693573 0.153214 0 0.153214) 5 5 1
(0.39247 0.303765 0.303765 0) 3 2 1
(0.796091 0.101954 0 0.101954) 0 0 1
(0.807323 0.0963384 0.0963384 0) 13 13 2
(0.00721075 0.496395 0 0.496395) 9 9 1
(0.437498 0.281251 0 0.281251) 5 4 2
(0.441418 0.279291 0.279291 0) 11 10 1
(0.126403 0.436799 0 0.436799) 8 8 1
(0.316165 0.341917 0 0.341917) 22 22 1
(0.980272 0.00986397 0 0.00986397) 28 27 2
(0.604994 0.197503 0 0.197503) 4 4 1
(0.300819 0.34959 0 0.34959) 40 40 1
(0.738753 0.130623 0.130623 0) 21 20 1
(0.427964 0.286018 0 0.286018) 24 23 2
(0.254317 0.372842 0 0.372842) 10 10 1
(0.660434 0.169783 0 0.169783) 2 1 2
(0.656853 0.171574 0 0.171574) 17 16 2
(0.83434 0.0828299 0.0828299 0) 7 7 2
(0.761145 0.119427 0 0.119427) 19 18 2
(0.639242 0.180379 0 0.180379) 3 2 2
(0.525146 0.237427 0.237427 0) 2 2 2
(0.0759315 0.462034 0.462034 0) 18 18 2
(0.0350876 0.482456 0 0.482456) 0 1000 1
(0.798658 0.100671 0.100671 0) 1 1 2
(0.549171 0.225415 0 0.225415) 14 13 2
(0.741001 0.129499 0 0.129499) 18 18 1
(0.134426 0.432787 0 0.432787) 6 5 2
(0.895503 0.0522486 0.0522486 0) 11 11 2
(0.93757 0.0312151 0.0312151 0) 0 0 2
(0.593242 0.203379 0 0.203379) 4 4 1
(0.187155 0.406423 0.406423 0) 25 25 2
(0.685374 0.157313 0 0.157313) 6 6 1
(0.539189 0.230406 0 0.230406) 3 3 1
(0.183603 0.408198 0 0.408198) 20 19 2
(0.096741 0.45163 0 0.45163) 4 4 1
(0.805759 0.0971207 0 0.0971207) 19 18 2
(0.918507 0.0407466 0 0.0407466) 7 7 1
(0.97067 0.0146651 0 0.0146651) 6 5 2
(0.565973 0.217014 0.217014 0) 3 2 1
(0.861953 0.0690235 0.0690235 0) 9 8 1
(0.131025 0.434487 0.434487 0) 5 4 1
(0.735798 0.132101 0.132101 0) 45 44 1
(0.455289 0.272355 0.272355 0) 7 6 1
(0.537963 0.231019 0 0.231019) 3 2 2
(0.258744 0.370628 0.370628 0) 0 0 2
(0.143158 0.428421 0.428421 0) 10 9 1
(0.971 0.0145001 0.0145001 0) 26 26 2
(0.180213 0.409893 0 0.409893) 1 0 2
(0.812214 0.0938932 0 0.0938932) 12 12 1
(0.168015 0.415992 0 0.415992) 5 5 1
(0.719144 0.140428 0 0.140428) 1 0 2
(0.721018 0.139491 0.139491 0) 15 15 2
(0.607659 0.196171 0.196171 0) 11 11 2
(0.598599 0.200701 0 0.200701) 11 11 1
(0.469796 0.265102 0.265102 0) 19 18 1
(0.0847498 0.457625 0.457625 0) 5 4 1
(0.627921 0.18604 0.18604 0) 15 14 1
(0.939006 0.0304969 0 0.0304969) 16 15 2
(0.760177 0.119911 0 0.119911) 14 13 2
(0.493175 0.253413 0 0.253413) 5 5 1
(0.15479 0.422605 0 0.422605) 11 10 2
(0.263491 0.368255 0 0.368255) 30 29 2
(0.795234 0.102383 0.102383 0) 10 10 2
(0.704349 0.147825 0 0.147825) 13 12 2
(0.297696 0.351152 0.351152 0) 17 16 1
(0.734299 0.13285 0.13285 0) 17 17 2
(0.54219 0.228905 0 0.228905) 4 3 2
(0.917745 0.0411273 0.0411273 0) 10 9 1
(0.600989 0.199506 0 0.199506) 20 19 2
(0.497051 0.251474 0.251474 0) 1 0 1
(0.96268 0.01866 0.01866 0) 6 6 2
(0.806183 0.0969085 0 0.0969085) 5 4 2
(0.553611 0.223195 0.223195 0) 2 2 2
(0.541236 0.229382 0 0.229382) 0 0 1
(0.930621 0.0346894 0 0.0346894) 14 13 2
(0.842995 0.0785027 0 0.0785027) 8 7 2
(0.866582 0.0667088 0.0667088 0) 21 20 1
(0.846192 0.0769039 0.0769039 0) 13 12 1
(0.49214 0.25393 0 0.25393) 15 15 1
(0.271715 0.364143 0 0.364143) 16 15 2
(0.943034 0.0284828 0 0.0284828) 1 0 2
(0.380197 0.309901 0 0.309901) 11 11 1
(0.849435 0.0752825 0 0.0752825) 27 26 2
(0.611729 0.194135 0 0.194135) 19 18 2
(0.157878 0.421061 0 0.421061) 15 14 2
(0.575227 0.212386 0.212386 0) 10 9 1
(0.50785 0.246075 0 0.246075) 5 5 1
(0.467034 0.266483 0.266483 0) 38 37 1
(0.885611 0.0571947 0 0.0571947) 5 4 2
(0.623087 0.188456 0.188456 0) 12 11 1
(0.806434 0.096783 0 0.096783) 13 13 1
(0.343999 0.328 0.328 0) 24 24 2
(0.38137 0.309315 0.309315 0) 26 25 1
(0.723067 0.138467 0.138467 0) 43 42 1
(0.0265916 0.486704 0 0.486704) 14 13 2
(0.936499 0.0317505 0.0317505 0) 7 6 1
(0.351439 0.32428 0.32428 0) 23 23 2
(0.440631 0.279685 0.279685 0) 4 3 1
(0.516908 0.241546 0 0.241546) 7 7 1
(0.0133553 0.493322 0.493322 0) 4 4 2
(0.891463 0.0542687 0.0542687 0) 6 6 2
(0.994973 0.00251369 0 0.00251369) 2 2 1
(0.294961 0.352519 0 0.352519) 3 2 2
(0.388649 0.305676 0.305676 0) 13 13 2
(0.913365 0.0433176 0 0.0433176) 14 14 1
(0.857886 0.0710568 0 0.0710568) 7 7 1
(0.953816 0.0230919 0.0230919 0) 5 4 1
(0.265216 0.367392 0 0.367392) 0 0 1
(0.753856 0.123072 0.123072 0) 5 5 2
(0.151159 0.424421 0 0.424421) 25 24 2
(0.937402 0.031299 0.031299 0) 12 12 2
(0.191511 0.404244 0 0.404244) 23 23 1
(0.770978 0.114511 0.114511 0) 23 22 1
(0.666428 0.166786 0 0.166786) 10 9 2
(0.99579 0.00210499 0.00210499 0) 9 8 1
(0.339683 0.330158 0 0.330158) 17 16 2
(0.976725 0.0116377 0 0.0116377) 20 19 2
(0.80604 0.0969798 0 0.0969798) 15 15 1
(0.204602 0.397699 0.397699 0) 6 6 2
(0.589207 0.205397 0.205397 0) 37 37 2
(0.805546 0.097227 0 0.097227) 1 1 1
(0.0668114 0.466594 0 0.466594) 30 29 2
(0.596056 0.201972 0.201972 0) 21 21 2
(0.936412 0.0317939 0 0.0317939) 11 11 1
(0.418083 0.290959 0 0.290959) 51 50 2
(0.966046 0.016977 0.016977 0) 17 17 2
(0.549654 0.225173 0.225173 0) 17 16 1
(0.983277 0.00836153 0 0.00836153) 14 14 1
(0.917666 0.0411671 0 0.0411671) 23 22 2
(0.396158 0.301921 0 0.301921) 20 19 2
(0.63864 0.18068 0.18068 0) 2 1 1
(0.496543 0.251729 0.251729 0) 27 26 1
(0.455592 0.272204 0 0.272204) 19 19 1
(0.634973 0.182514 0.182514 0) 14 13 1
(0.138057 0.430971 0.430971 0) 11 11 2
(0.221216 0.389392 0.389392 0) 23 23 2
(0.440768 0.279616 0.279616 0) 3 2 1
(0.520343 0.239829 0 0.239829) 25 25 1
(0.836557 0.0817216 0.0817216 0) 8 7 1
(0.270494 0.364753 0.364753 0) 21 20 1
(0.690048 0.154976 0 0.154976) 5 4 2
(0.562558 0.218721 0.218721 0) 20 19 1
(0.317436 0.341282 0 0.341282) 7 7 1
(0.031553 0.484224 0 0.484224) 7 6 2
(0.989813 0.00509326 0 0.00509326) 47 47 1
(0.64931 0.175345 0 0.175345) 15 14 2
(0.0537536 0.473123 0.473123 0) 3 3 2
(0.507236 0.246382 0 0.246382) 17 17 1
(0.579999 0.210001 0.210001 0) 26 25 1
(0.764123 0.117939 0.117939 0) 50 50 2
(0.7394 0.1303 0 0.1303) 11 11 1
(0.914494 0.0427528 0 0.0427528) 67 67 1
(0.0958898 0.452055 0.452055 0) 0 0 2
(0.619897 0.190052 0 0.190052) 19 18 2
(0.806759 0.0966204 0 0.0966204) 18 18 1
(0.348975 0.325513 0.325513 0) 18 17 1
(0.079282 0.460359 0 0.460359) 4 3 2
(0.659167 0.170416 0.170416 0) 5 4 1
(0.562317 0.218842 0 0.218842) 4 3 2
(0.415567 0.292216 0 0.292216) 1 0 2
(0.538613 0.230694 0 0.230694) 0 1000 1
(0.0648458 0.467577 0 0.467577) 25 24 2
(0.439972 0.280014 0.280014 0) 17 16 1
(0.531308 0.234346 0 0.234346) 32 32 1
(0.784402 0.107799 0.107799 0) 7 6 1
(0.0286954 0.485652 0.485652 0) 38 37 1
(0.766284 0.116858 0 0.116858) 9 9 1
(0.818775 0.0906124 0 0.0906124) 26 25 2
(0.105292 0.447354 0 0.447354) 3 2 2
(0.323159 0.338421 0 0.338421) 9 8 2
(0.316604 0.341698 0 0.341698) 21 21 1
(0.666479 0.16676 0 0.16676) 18 17 2
(0.19131 0.404345 0 0.404345) 20 19 2
(0.328031 0.335984 0.335984 0) 24 23 1
(0.545557 0.227222 0 0.227222) 18 18 1
(0.714217 0.142891 0 0.142891) 19 19 1
(0.305506 0.347247 0 0.347247) 14 14 1
(0.0809767 0.459512 0 0.459512) 7 7 1
(0.869151 0.0654246 0 0.0654246) 19 18 2
(0.951781 0.0241094 0.0241094 0) 12 11 1
(0.404816 0.297592 0 0.297592) 2 1 2
(0.453086 0.273457 0.273457 0) 12 11 1
(0.591545 0.204228 0.204228 0) 26 26 2
(0.197861 0.401069 0 0.401069) 6 6 1
(0.395902 0.302049 0.302049 0) 16 15 1
(0.955844 0.022078 0.022078 0) 30 29 1
(0.274748 0.362626 0 0.362626) 6 5 2
(0.885608 0.0571962 0.0571962 0) 6 5 1
(0.364424 0.317788 0.317788 0) 13 13 2
(0.973273 0.0133634 0 0.0133634) 5 4 2
(0.997879 0.0010606 0 0.0010606) 8 7 2
(0.921679 0.0391607 0 0.0391607) 4 4 1
(0.873271 0.0633643 0.0633643 0) 19 18 1
(0.684677 0.157661 0.157661 0) 34 33 1
(0.805109 0.0974455 0.0974455 0) 5 4 1
(0.864212 0.0678938 0 0.0678938) 5 5 1
(0.428296 0.285852 0 0.285852) 31 30 2
(0.341646 0.329177 0 0.329177) 27 26 2
(0.621092 0.189454 0 0.189454) 19 19 1
(0.217432 0.391284 0.391284 0) 14 14 2
(0.484266 0.257867 0.257867 0) 24 23 1
(0.627126 0.186437 0.186437 0) 20 19 1
(0.516106 0.241947 0 0.241947) 4 3 2
(0.623344 0.188328 0 0.188328) 3 3 1
(0.557196 0.221402 0 0.221402) 4 4 1
(0.907435 0.0462823 0 0.0462823) 12 12 1
(0.9044 0.0478002 0 0.0478002) 25 25 1
(0.698662 0.150669 0 0.150669) 5 4 2
(0.827429 0.0862855 0.0862855 0) 36 35 1
(0.710414 0.144793 0.144793 0) 5 5 2
(0.146494 0.426753 0 0.426753) 6 5 2
(0.29789 0.351055 0 0.351055) 12 11 2
(0.651226 0.174387 0.174387 0) 23 23 2
(0.482291 0.258855 0.258855 0) 8 7 1
(0.143383 0.428309 0.428309 0) 26 26 2
(0.15005 0.424975 0.424975 0) 31 31 2
(0.647939 0.176031 0 0.176031) 6 5 2
(0.255095 0.372453 0 0.372453) 12 11 2
(0.242869 0.378565 0.378565 0) 2 2 2
(0.047509 0.476246 0.476246 0) 12 12 2
(0.672283 0.163859 0 0.163859) 26 25 2
(0.0667899 0.466605 0.466605 0) 19 19 2
(0.451196 0.274402 0.274402 0) 11 11 2
(0.422078 0.288961 0.288961 0) 30 30 2
(0.745752 0.127124 0.127124 0) 3 3 2
(0.338457 0.330772 0.330772 0) 19 19 2
(0.281951 0.359024 0.359024 0) 21 21 2
(0.916765 0.0416175 0 0.0416175) 20 19 2
(0.00411229 0.497944 0.497944 0) 16 16 2
(0.992284 0.00385781 0 0.00385781) 42 41 2
(0.226694 0.386653 0.386653 0) 9 9 2
(0.754798 0.122601 0.122601 0) 7 7 2
(0.484832 0.257584 0.257584 0) 43 42 1
(0.917426 0.0412871 0 0.0412871) 56 56 1
(0.208292 0.395854 0.395854 0) 12 12 2
(0.15549 0.422255 0.422255 0) 16 15 1
(0.935718 0.0321412 0.0321412 0) 3 3 2
(0.418356 0.290822 0 0.290822) 9 8 2
(0.192247 0.403877 0 0.403877) 0 0 1
(0.320392 0.339804 0.339804 0) 14 13 1
(0.513249 0.243376 0 0.243376) 14 14 1
(0.100551 0.449725 0 0.449725) 44 44 1
(0.8119 0.09405 0 0.09405) 5 5 1
(0.298669 0.350665 0.350665 0) 3 2 1
(0.89256 0.0537198 0.0537198 0) 26 26 2
(0.472675 0.263663 0 0.263663) 33 32 2
(0.668076 0.165962 0 0.165962) 30 30 1
(0.106258 0.446871 0.446871 0) 3 2 1
(0.415239 0.292381 0.292381 0) 7 6 1
(0.0525769 0.473712 0 0.473712) 7 7 1
(0.967477 0.0162615 0.0162615 0) 30 29 1
(0.780016 0.109992 0 0.109992) 1 0 2
(0.0985799 0.45071 0.45071 0) 16 16 2
(0.918951 0.0405247 0 0.0405247) 19 18 2
(0.384776 0.307612 0 0.307612) 5 4 2
(0.950983 0.0245086 0.0245086 0) 37 36 1
(0.662951 0.168524 0 0.168524) 34 33 2
(0.00196891 0.499016 0 0.499016) 23 22 2
(0.646574 0.176713 0.176713 0) 22 21 1
(0.273756 0.363122 0.363122 0) 15 14 1
(0.156158 0.421921 0.421921 0) 9 8 1
(0.758585 0.120707 0.120707 0) 25 24 1
(0.883061 0.0584697 0 0.0584697) 12 12 1
(0.657582 0.171209 0.171209 0) 1 0 1
(0.369669 0.315166 0 0.315166) 1 1 1
(0.208908 0.395546 0 0.395546) 8 7 2
(0.211136 0.394432 0 0.394432) 21 20 2
(0.910983 0.0445087 0 0.0445087) 5 4 2
(0.0362287 0.481886 0 0.481886) 18 18 1
(0.165051 0.417475 0.417475 0) 8 7 1
(0.096384 0.451808 0 0.451808) 10 10 1
(0.512376 0.243812 0.243812 0) 35 34 1
(0.944133 0.0279334 0.0279334 0) 6 5 1
(0.38886 0.30557 0.30557 0) 69 68 1
(0.815817 0.0920916 0.0920916 0) 37 37 2
(0.903429 0.0482856 0.0482856 0) 7 7 2
(0.113559 0.443221 0 0.443221) 26 25 2
(0.194091 0.402955 0 0.402955) 4 3 2
(0.941903 0.0290487 0.0290487 0) 24 24 2
(0.126367 0.436816 0 0.436816) 33 32 2
(0.642922 0.178539 0 0.178539) 29 28 2
(0.225506 0.387247 0.387247 0) 23 23 2
(0.0800114 0.459994 0 0.459994) 10 9 2
(0.44756 0.27622 0 0.27622) 7 6 2
(0.941248 0.0293761 0.0293761 0) 32 31 1
(0.939832 0.0300842 0.0300842 0) 19 19 2
(0.0520336 0.473983 0 0.473983) 17 16 2
(0.940096 0.0299519 0 0.0299519) 31 31 1
(0.0475154 0.476242 0 0.476242) 0 1000 1
(0.860934 0.0695332 0 0.0695332) 32 31 2
(0.441508 0.279246 0 0.279246) 3 3 1
(0.0369606 0.48152 0 0.48152) 24 23 2
(0.838712 0.0806442 0.0806442 0) 29 29 2
(0.674587 0.162706 0.162706 0) 11 10 1
(0.574961 0.212519 0.212519 0) 2 1 1
(0.23615 0.381925 0 0.381925) 21 21 1
(0.414881 0.29256 0 0.29256) 13 12 2
(0.525647 0.237177 0.237177 0) 9 9 2
(0.431893 0.284054 0.284054 0) 23 23 2
(0.18506 0.40747 0.40747 0) 2 2 2
(0.167701 0.41615 0 0.41615) 45 45 1
(0.184205 0.407897 0 0.407897) 3 2 2
(0.809244 0.0953781 0.0953781 0) 24 23 1
(0.182739 0.40863 0.40863 0) 12 12 2
(0.539971 0.230015 0 0.230015) 20 20 1
(0.516439 0.241781 0.241781 0) 5 5 2
(0.383846 0.308077 0 0.308077) 13 12 2
(0.865855 0.0670725 0.0670725 0) 14 14 2
(0.225599 0.3872 0.3872 0) 12 12 2
(0.692281 0.15386 0.15386 0) 33 32 1
(0.297897 0.351052 0.351052 0) 26 26 2
(0.0516373 0.474181 0 0.474181) 2 2 1
(0.281417 0.359291 0.359291 0) 21 21 2
(0.076669 0.461665 0 0.461665) 6 6 1
(0.921577 0.0392116 0 0.0392116) 31 31 1
(0.823268 0.0883658 0 0.0883658) 8 7 2
(0.954184 0.022908 0 0.022908) 12 12 1
(0.0556757 0.472162 0 0.472162) 13 13 1
(0.836841 0.0815793 0.0815793 0) 0 0 2
(0.734685 0.132658 0 0.132658) 18 17 2
(0.453028 0.273486 0.273486 0) 15 15 2
(0.618191 0.190904 0 0.190904) 9 9 1
(0.82729 0.0863548 0 0.0863548) 15 15 1
(0.603328 0.198336 0.198336 0) 5 5 2
(0.242185 0.378907 0.378907 0) 20 20 2
(0.298538 0.350731 0 0.350731) 49 49 1
(0.231358 0.384321 0 0.384321) 11 10 2
(0.365385 0.317308 0 0.317308) 3 2 2
(0.0694819 0.465259 0 0.465259) 11 11 1
(0.968183 0.0159084 0.0159084 0) 39 38 1
(0.0907536 0.454623 0.454623 0) 28 27 1
(0.00667158 0.496664 0 0.496664) 47 46 2
(0.469842 0.265079 0.265079 0) 21 20 1
(0.726177 0.136911 0 0.136911) 4 4 1
(0.613054 0.193473 0.193473 0) 16 15 1
(0.870093 0.0649537 0 0.0649537) 1 0 2
(0.539204 0.230398 0 0.230398) 7 7 1
(0.974438 0.012781 0 0.012781) 31 31 1
(0.326892 0.336554 0.336554 0) 4 4 2
(0.247716 0.376142 0.376142 0) 24 24 2
(0.920717 0.0396413 0.0396413 0) 13 13 2
(0.279261 0.360369 0 0.360369) 59 58 2
(0.626866 0.186567 0 0.186567) 42 41 2
(0.620731 0.189634 0 0.189634) 31 30 2
(0.976357 0.0118216 0.0118216 0) 17 16 1
(0.342666 0.328667 0.328667 0) 3 3 2
(0.916399 0.0418004 0 0.0418004) 16 15 2
(0.829283 0.0853587 0 0.0853587) 21 21 1
(0.287968 0.356016 0.356016 0) 10 10 2
(0.434446 0.282777 0 0.282777) 2 1 2
(0.455647 0.272176 0.272176 0) 34 33 1
(0.407342 0.296329 0 0.296329) 2 2 1
(0.988722 0.00563916 0.00563916 0) 15 15 2
(0.950285 0.0248575 0.0248575 0) 15 14 1
(0.485729 0.257136 0.257136 0) 27 27 2
(0.374829 0.312586 0.312586 0) 4 4 2
(0.649459 0.175271 0.175271 0) 13 12 1
(0.72322 0.13839 0.13839 0) 6 6 2
(0.0254311 0.487284 0.487284 0) 23 23 2
(0.974125 0.0129376 0 0.0129376) 36 36 1
(0.898638 0.0506812 0.0506812 0) 7 7 2
(0.592787 0.203606 0.203606 0) 13 13 2
(0.646758 0.176621 0 0.176621) 4 3 2
(0.640899 0.179551 0.179551 0) 13 12 1
(0.453797 0.273102 0.273102 0) 5 5 2
(0.973037 0.0134815 0.0134815 0) 22 21 1
(0.412993 0.293503 0 0.293503) 25 24 2
(0.265818 0.367091 0 0.367091) 13 12 2
(0.669558 0.165221 0.165221 0) 41 41 2
(0.945209 0.0273953 0.0273953 0) 12 12 2
(0.594902 0.202549 0 0.202549) 3 2 2
(0.38325 0.308375 0 0.308375) 1 0 2
(0.121752 0.439124 0 0.439124) 25 24 2
(0.873496 0.063252 0.063252 0) 1 1 2
(0.924674 0.0376632 0.0376632 0) 10 10 2
(0.136574 0.431713 0 0.431713) 4 4 1
(0.0956917 0.452154 0 0.452154) 5 4 2
(0.824395 0.0878027 0.0878027 0) 38 37 1
(0.342459 0.328771 0 0.328771) 1 0 2
(0.271482 0.364259 0.364259 0) 26 26 2
(0.878405 0.0607977 0.0607977 0) 18 17 1
(0.624972 0.187514 0 0.187514) 20 19 2
(0.883001 0.0584997 0 0.0584997) 4 4 1
(0.0271604 0.48642 0 0.48642) 25 24 2
(0.906258 0.0468708 0 0.0468708) 50 50 1
(0.996584 0.00170798 0.00170798 0) 18 18 2
(0.0359619 0.482019 0.482019 0) 19 18 1
(0.698483 0.150758 0 0.150758) 32 32 1
(0.359756 0.320122 0 0.320122) 0 0 1
(0.876313 0.0618433 0 0.0618433) 22 22 1
(0.550925 0.224538 0 0.224538) 27 26 2
(0.321763 0.339119 0.339119 0) 12 11 1
(0.654007 0.172997 0 0.172997) 17 17 1
(0.499703 0.250149 0.250149 0) 24 23 1
(0.469661 0.265169 0.265169 0) 5 4 1
(0.277531 0.361234 0 0.361234) 8 8 1
(0.906695 0.0466525 0 0.0466525) 4 4 1
(0.660411 0.169795 0.169795 0) 6 5 1
(0.416666 0.291667 0 0.291667) 3 3 1
(0.471722 0.264139 0 0.264139) 9 8 2
(0.37506 0.31247 0 0.31247) 9 8 2
(0.372832 0.313584 0.313584 0) 8 8 2
(0.983155 0.00842266 0.00842266 0) 20 20 2
(0.206542 0.396729 0.396729 0) 25 24 1
(0.907163 0.0464183 0.0464183 0) 24 24 2
(0.668253 0.165874 0 0.165874) 24 24 1
(0.176445 0.411778 0 0.411778) 17 16 2
(0.824434 0.0877831 0.0877831 0) 16 15 1
(0.973963 0.0130187 0.0130187 0) 19 18 1
(0.860806 0.0695972 0.0695972 0) 19 19 2
(0.750734 0.124633 0.124633 0) 6 6 2
(0.141557 0.429221 0 0.429221) 41 41 1
(0.311997 0.344001 0 0.344001) 13 13 1
(0.0862905 0.456855 0 0.456855) 17 17 1
(0.012153 0.493923 0.493923 0) 18 17 1
(0.678339 0.16083 0.16083 0) 10 9 1
(0.538915 0.230542 0.230542 0) 10 9 1
(0.145354 0.427323 0 0.427323) 2 1 2
(0.6624 0.1688 0.1688 0) 35 35 2
(0.260738 0.369631 0 0.369631) 1 0 2
(0.405415 0.297293 0.297293 0) 29 29 2
(0.32598 0.33701 0.33701 0) 2 2 2
(0.868283 0.0658583 0.0658583 0) 32 31 1
(0.428385 0.285808 0.285808 0) 14 14 2
(0.0762858 0.461857 0.461857 0) 43 43 2
(0.622364 0.188818 0 0.188818) 17 17 1
(0.729543 0.135229 0.135229 0) 28 28 2
(0.197762 0.401119 0 0.401119) 4 4 1
(0.52329 0.238355 0 0.238355) 2 2 1
(0.770388 0.114806 0.114806 0) 7 6 1
(0.665648 0.167176 0.167176 0) 43 43 2
(0.34788 0.32606 0 0.32606) 47 47 1
(0.287235 0.356383 0.356383 0) 13 13 2
(0.215903 0.392049 0.392049 0) 15 15 2
(0.772175 0.113913 0 0.113913) 0 1000 1
(0.405741 0.29713 0.29713 0) 32 31 1
(0.202169 0.398915 0 0.398915) 11 10 2
(0.702776 0.148612 0.148612 0) 55 55 2
(0.675389 0.162305 0 0.162305) 46 45 2
(0.486564 0.256718 0.256718 0) 1 1 2
(0.810476 0.0947621 0 0.0947621) 8 7 2
(0.237383 0.381308 0.381308 0) 7 7 2
(0.0232742 0.488363 0 0.488363) 21 20 2
(0.0962953 0.451852 0.451852 0) 6 6 2
(0.860593 0.0697033 0.0697033 0) 37 37 2
(0.264357 0.367822 0 0.367822) 22 21 2
(0.363882 0.318059 0 0.318059) 6 5 2
(0.670202 0.164899 0 0.164899) 36 36 1
(0.77284 0.11358 0 0.11358) 0 1000 1
(0.940708 0.0296459 0.0296459 0) 38 38 2
(0.770964 0.114518 0.114518 0) 29 29 2
(0.358649 0.320676 0.320676 0) 4 3 1
(0.0990524 0.450474 0.450474 0) 14 14 2
(0.153803 0.423098 0 0.423098) 27 27 1
(0.741712 0.129144 0 0.129144) 2 1 2
(0.200331 0.399835 0 0.399835) 5 4 2
(0.312513 0.343744 0 0.343744) 6 5 2
(0.16469 0.417655 0.417655 0) 11 10 1
(0.564787 0.217606 0 0.217606) 5 4 2
(0.373608 0.313196 0.313196 0) 20 20 2
(0.218859 0.39057 0.39057 0) 23 23 2
(0.512373 0.243814 0 0.243814) 22 21 2
(0.486434 0.256783 0 0.256783) 31 31 1
(0.188813 0.405594 0.405594 0) 18 18 2
(0.0493575 0.475321 0 0.475321) 0 1000 1
(0.961992 0.0190041 0 0.0190041) 37 36 2
(0.588888 0.205556 0 0.205556) 37 37 1
(0.950302 0.0248492 0.0248492 0) 17 16 1
(0.0176768 0.491162 0 0.491162) 3 3 1
(0.680901 0.159549 0.159549 0) 10 10 2
(0.650049 0.174976 0 0.174976) 3 2 2
(0.0129832 0.493508 0.493508 0) 13 12 1
(0.302803 0.348599 0.348599 0) 13 13 2
(0.628845 0.185577 0.185577 0) 27 27 2
(0.495398 0.252301 0.252301 0) 45 44 1
(0.451853 0.274073 0.274073 0) 4 3 1
(0.808054 0.0959729 0.0959729 0) 22 21 1
(0.192726 0.403637 0 0.403637) 1 1 1
(0.820598 0.0897012 0.0897012 0) 0 1000 2
(0.898201 0.0508994 0.0508994 0) 1 0 1
(0.178901 0.410549 0 0.410549) 11 11 1
(0.697408 0.151296 0 0.151296) 19 19 1
(0.190862 0.404569 0.404569 0) 0 1000 2
(0.897678 0.0511612 0.0511612 0) 21 21 2
(0.60517 0.197415 0 0.197415) 31 31 1
(0.753352 0.123324 0 0.123324) 2 1 2
(0.313726 0.343137 0.343137 0) 4 3 1
(0.623809 0.188096 0 0.188096) 16 16 1
(0.679164 0.160418 0.160418 0) 24 23 1
(0.204576 0.397712 0 0.397712) 34 33 2
(0.319429 0.340285 0 0.340285) 9 8 2
(0.525415 0.237293 0 0.237293) 13 13 1
(0.490486 0.254757 0 0.254757) 5 4 2
(0.727511 0.136245 0.136245 0) 22 22 2
(0.77386 0.11307 0.11307 0) 39 38 1
(0.708292 0.145854 0.145854 0) 6 5 1
(0.759103 0.120449 0.120449 0) 7 6 1
(0.589306 0.205347 0.205347 0) 35 34 1
(0.262426 0.368787 0.368787 0) 0 1000 2
(0.85313 0.0734352 0 0.0734352) 6 5 2
(0.677963 0.161018 0.161018 0) 8 7 1
(0.279197 0.360401 0.360401 0) 12 11 1
(0.59234 0.20383 0.20383 0) 21 21 2
(0.491742 0.254129 0 0.254129) 10 10 1
(0.0332254 0.483387 0 0.483387) 3 3 1
(0.482019 0.25899 0 0.25899) 15 15 1
(0.0824728 0.458764 0.458764 0) 4 4 2
(0.384564 0.307718 0 0.307718) 4 3 2
(0.105817 0.447092 0.447092 0) 0 1000 2
(0.13506 0.43247 0.43247 0) 10 10 2
(0.670541 0.16473 0 0.16473) 3 2 2
(0.693746 0.153127 0 0.153127) 31 31 1
(0.684232 0.157884 0.157884 0) 21 20 1
(0.677984 0.161008 0 0.161008) 16 16 1
(0.0606255 0.469687 0 0.469687) 3 2 2
(0.560834 0.219583 0.219583 0) 1 1 2
(0.216773 0.391614 0.391614 0) 27 27 2
(0.0311182 0.484441 0.484441 0) 11 11 2
(0.490684 0.254658 0 0.254658) 20 19 2
(0.596331 0.201834 0 0.201834) 10 10 1
(0.805514 0.097243 0.097243 0) 27 27 2
(0.770292 0.114854 0.114854 0) 31 31 2
(0.445128 0.277436 0 0.277436) 15 14 2
(0.384237 0.307881 0.307881 0) 23 22 1
(0.766699 0.116651 0.116651 0) 19 19 2
(0.597927 0.201037 0 0.201037) 55 54 2
(0.0567241 0.471638 0 0.471638) 16 15 2
(0.302806 0.348597 0.348597 0) 1 0 1
(0.779135 0.110432 0.110432 0) 34 34 2
(0.0332062 0.483397 0 0.483397) 35 34 2
(0.212633 0.393684 0 0.393684) 19 19 1
(0.92307 0.0384648 0 0.0384648) 27 27 1
(0.925156 0.037422 0.037422 0) 40 39 1
(0.613836 0.193082 0.193082 0) 22 22 2
(0.228252 0.385874 0 0.385874) 32 31 2
(0.515083 0.242459 0.242459 0) 17 16 1
(0.718911 0.140544 0.140544 0) 31 30 1
(0.488842 0.255579 0 0.255579) 33 32 2
(0.439697 0.280152 0.280152 0) 25 25 2
(0.176082 0.411959 0 0.411959) 0 0 1
(0.648348 0.175826 0 0.175826) 9 8 2
(0.460491 0.269755 0 0.269755) 25 25 1
(0.0231743 0.488413 0.488413 0) 34 33 1
(0.546991 0.226505 0 0.226505) 5 5 1
(0.557649 0.221176 0.221176 0) 2 1 1
(0.977329 0.0113353 0 0.0113353) 38 38 1
(0.163663 0.418168 0.418168 0) 26 26 2
(0.101111 0.449444 0.449444 0) 15 15 2
(0.986279 0.00686062 0 0.00686062) 37 36 2
(0.940762 0.0296188 0.0296188 0) 63 63 2
(0.470345 0.264827 0.264827 0) 11 11 2
(0.676806 0.161597 0 0.161597) 7 7 1
(0.761223 0.119389 0 0.119389) 2 2 1
(0.86831 0.0658451 0 0.0658451) 6 5 2
(0.521134 0.239433 0.239433 0) 7 6 1
(0.314137 0.342931 0.342931 0) 1 1 2
(0.510515 0.244743 0.244743 0) 3 3 2
(0.259145 0.370427 0 0.370427) 6 5 2
(0.786169 0.106915 0 0.106915) 27 27 1
(0.0324785 0.483761 0 0.483761) 25 24 2
(0.2656 0.3672 0.3672 0) 25 25 2
(0.249598 0.375201 0.375201 0) 20 20 2
(0.0215472 0.489226 0 0.489226) 8 8 1
(0.394218 0.302891 0.302891 0) 6 5 1
(0.970184 0.0149082 0.0149082 0) 32 31 1
(0.482181 0.258909 0 0.258909) 3 3 1
(0.39458 0.30271 0.30271 0) 14 14 2
(0.860202 0.069899 0.069899 0) 2 1 1
(0.482101 0.258949 0 0.258949) 14 14 1
(0.176995 0.411503 0.411503 0) 13 12 1
(0.0625108 0.468745 0 0.468745) 4 4 1
(0.672216 0.163892 0.163892 0) 41 40 1
(0.0398059 0.480097 0.480097 0) 4 3 1
(0.0310801 0.48446 0 0.48446) 2 2 1
(0.732227 0.133887 0 0.133887) 41 41 1
(0.181796 0.409102 0.409102 0) 11 10 1
(0.0713091 0.464345 0 0.464345) 7 7 1
(0.23487 0.382565 0.382565 0) 20 20 2
(0.244117 0.377941 0.377941 0) 13 13 2
(0.105443 0.447279 0.447279 0) 42 41 1
(0.152174 0.423913 0 0.423913) 12 12 1
(0.377572 0.311214 0.311214 0) 0 1000 2
(0.855458 0.0722712 0.0722712 0) 6 5 1
(0.923 0.0385002 0.0385002 0) 13 12 1
(0.0441213 0.477939 0 0.477939) 16 15 2
(0.536845 0.231577 0.231577 0) 17 16 1