/*--------------------------------*- C++ -*----------------------------------*\
  =========                 |
  \\      /  F ield         | OpenFOAM: The Open Source CFD Toolbox
   \\    /   O peration     | Website:  https://openfoam.org
    \\  /    A nd           | Version:  7
     \\/     M anipulation  |
\*---------------------------------------------------------------------------*/
FoamFile
{
    version     2.0;
    format      ascii;
    class       Cloud<dsmcParcel>;
    location    "0.006/lagrangian/dsmc";
    object      positions;
}
// * * * * * * * * * * * * * * * * * * * * * * * * * * * * * * * * * * * * * //

2923
(
(0.268374 0.365813 0.365813 0) 243 243 2
(0.273414 0.363293 0 0.363293) 403 402 2
(0.747848 0.126076 0.126076 0) 64 64 2
(0.40818 0.29591 0.29591 0) 34 34 2
(0.543361 0.228319 0.228319 0) 25 25 2
(0.726792 0.136604 0 0.136604) 88 87 2
(0.386514 0.306743 0 0.306743) 67 66 2
(0.263852 0.368074 0.368074 0) 88 88 2
(0.952027 0.0239866 0 0.0239866) 73 73 1
(0.0080574 0.495971 0 0.495971) 422 421 2
(0.263922 0.368039 0.368039 0) 133 132 1
(0.381069 0.309465 0 0.309465) 109 109 1
(0.448388 0.275806 0 0.275806) 86 85 2
(0.284874 0.357563 0.357563 0) 49 49 2
(0.786056 0.106972 0 0.106972) 200 200 1
(0.383021 0.30849 0 0.30849) 279 279 1
(0.874538 0.0627309 0.0627309 0) 52 52 2
(0.50235 0.248825 0.248825 0) 7 7 2
(0.539326 0.230337 0.230337 0) 256 256 2
(0.279251 0.360375 0 0.360375) 112 111 2
(0.904361 0.0478195 0.0478195 0) 152 151 1
(0.474461 0.262769 0 0.262769) 41 40 2
(0.722596 0.138702 0 0.138702) 9 9 1
(0.532523 0.233738 0.233738 0) 169 169 2
(0.752361 0.12382 0.12382 0) 26 26 2
(0.711246 0.144377 0 0.144377) 99 99 1
(0.0206402 0.48968 0.48968 0) 87 87 2
(0.173737 0.413132 0.413132 0) 232 231 1
(0.644045 0.177977 0 0.177977) 123 123 1
(0.68294 0.15853 0 0.15853) 25 25 1
(0.964696 0.0176521 0.0176521 0) 247 246 1
(0.726957 0.136521 0 0.136521) 134 134 1
(0.416485 0.291758 0 0.291758) 261 261 1
(0.601621 0.199189 0 0.199189) 195 194 2
(0.98619 0.00690519 0.00690519 0) 208 208 2
(0.204854 0.397573 0 0.397573) 286 285 2
(0.379555 0.310222 0 0.310222) 218 218 1
(0.154662 0.422669 0 0.422669) 110 109 2
(0.550772 0.224614 0 0.224614) 33 32 2
(0.823308 0.0883458 0.0883458 0) 256 256 2
(0.217056 0.391472 0 0.391472) 265 265 1
(0.385328 0.307336 0.307336 0) 17 17 2
(0.758203 0.120898 0 0.120898) 197 196 2
(0.25153 0.374235 0 0.374235) 151 150 2
(0.742381 0.12881 0.12881 0) 79 79 2
(0.475424 0.262288 0.262288 0) 141 140 1
(0.608135 0.195933 0.195933 0) 111 111 2
(0.916716 0.0416419 0 0.0416419) 410 409 2
(0.158103 0.420948 0 0.420948) 121 121 1
(0.788936 0.105532 0 0.105532) 60 59 2
(0.595596 0.202202 0.202202 0) 6 5 1
(0.866681 0.0666596 0 0.0666596) 16 15 2
(0.216286 0.391857 0 0.391857) 186 186 1
(0.877118 0.0614408 0 0.0614408) 89 89 1
(0.507924 0.246038 0 0.246038) 52 52 1
(0.554239 0.222881 0 0.222881) 154 154 1
(0.596969 0.201515 0.201515 0) 145 145 2
(0.568538 0.215731 0 0.215731) 197 196 2
(0.657794 0.171103 0 0.171103) 268 268 1
(0.782347 0.108827 0.108827 0) 126 126 2
(0.463065 0.268467 0.268467 0) 70 70 2
(0.310726 0.344637 0 0.344637) 76 76 1
(0.00970057 0.49515 0.49515 0) 30 29 1
(0.301269 0.349366 0.349366 0) 71 71 2
(0.358384 0.320808 0.320808 0) 49 49 2
(0.60218 0.19891 0.19891 0) 155 155 2
(0.586355 0.206822 0 0.206822) 91 90 2
(0.83438 0.0828099 0 0.0828099) 176 176 1
(0.608706 0.195647 0.195647 0) 11 11 2
(0.331301 0.33435 0 0.33435) 82 82 1
(0.0596023 0.470199 0 0.470199) 315 314 2
(0.547362 0.226319 0.226319 0) 206 205 1
(0.441603 0.279199 0.279199 0) 61 60 1
(0.553417 0.223292 0 0.223292) 275 275 1
(0.443962 0.278019 0.278019 0) 5 4 1
(0.242399 0.3788 0.3788 0) 316 315 1
(0.242467 0.378767 0.378767 0) 357 357 2
(0.143161 0.428419 0 0.428419) 212 212 1
(0.68546 0.15727 0 0.15727) 151 150 2
(0.770917 0.114542 0.114542 0) 273 272 1
(0.669296 0.165352 0 0.165352) 272 272 1
(0.910796 0.044602 0.044602 0) 92 92 2
(0.12007 0.439965 0.439965 0) 276 275 1
(0.108947 0.445526 0 0.445526) 101 100 2
(0.628558 0.185721 0 0.185721) 185 185 1
(0.482354 0.258823 0 0.258823) 8 7 2
(0.462052 0.268974 0.268974 0) 242 242 2
(0.829695 0.0851523 0 0.0851523) 75 74 2
(0.676227 0.161886 0 0.161886) 82 82 1
(0.927385 0.0363075 0.0363075 0) 89 89 2
(0.953142 0.0234292 0 0.0234292) 168 167 2
(0.239959 0.38002 0.38002 0) 272 271 1
(0.297295 0.351353 0 0.351353) 166 166 1
(0.92961 0.0351952 0 0.0351952) 11 10 2
(0.533022 0.233489 0.233489 0) 43 42 1
(0.300162 0.349919 0.349919 0) 24 24 2
(0.917194 0.041403 0 0.041403) 273 273 1
(0.167726 0.416137 0 0.416137) 273 272 2
(0.753064 0.123468 0.123468 0) 216 216 2
(0.444787 0.277607 0.277607 0) 241 240 1
(0.803732 0.0981339 0.0981339 0) 254 254 2
(0.775742 0.112129 0 0.112129) 195 194 2
(0.701678 0.149161 0.149161 0) 159 158 1
(0.454926 0.272537 0 0.272537) 15 15 1
(0.590697 0.204651 0 0.204651) 63 62 2
(0.66839 0.165805 0 0.165805) 154 154 1
(0.302976 0.348512 0.348512 0) 92 91 1
(0.908136 0.0459318 0 0.0459318) 45 44 2
(0.593482 0.203259 0 0.203259) 241 241 1
(0.43577 0.282115 0 0.282115) 267 266 2
(0.411077 0.294462 0.294462 0) 143 142 1
(0.0144632 0.492768 0.492768 0) 0 1000 2
(0.27439 0.362805 0.362805 0) 318 317 1
(0.365111 0.317445 0.317445 0) 339 339 2
(0.186843 0.406578 0.406578 0) 28 28 2
(0.815664 0.0921678 0 0.0921678) 137 136 2
(0.508222 0.245889 0 0.245889) 29 29 1
(0.356954 0.321523 0.321523 0) 170 169 1
(0.806951 0.0965245 0 0.0965245) 90 89 2
(0.363738 0.318131 0.318131 0) 121 120 1
(0.0737434 0.463128 0.463128 0) 309 308 1
(0.559343 0.220329 0 0.220329) 282 281 2
(0.0186809 0.49066 0.49066 0) 45 44 1
(0.6757 0.16215 0 0.16215) 65 64 2
(0.0912668 0.454367 0.454367 0) 267 266 1
(0.300522 0.349739 0 0.349739) 14 14 1
(0.673233 0.163383 0 0.163383) 64 63 2
(0.850586 0.0747072 0.0747072 0) 10 10 2
(0.259538 0.370231 0.370231 0) 186 185 1
(0.200303 0.399848 0.399848 0) 40 39 1
(0.045937 0.477032 0.477032 0) 241 240 1
(0.908801 0.0455993 0.0455993 0) 39 38 1
(0.475217 0.262392 0 0.262392) 5 4 2
(0.80325 0.0983752 0.0983752 0) 203 203 2
(0.980245 0.00987733 0 0.00987733) 89 89 1
(0.438972 0.280514 0 0.280514) 103 103 1
(0.614184 0.192908 0.192908 0) 47 47 2
(0.351256 0.324372 0 0.324372) 175 174 2
(0.0787899 0.460605 0 0.460605) 63 62 2
(0.238843 0.380579 0 0.380579) 215 214 2
(0.117826 0.441087 0.441087 0) 64 64 2
(0.63293 0.183535 0.183535 0) 253 252 1
(0.329607 0.335197 0 0.335197) 376 375 2
(0.503659 0.24817 0.24817 0) 74 74 2
(0.732273 0.133864 0.133864 0) 470 470 2
(0.119529 0.440236 0.440236 0) 257 256 1
(0.0207749 0.489613 0.489613 0) 257 257 2
(0.306865 0.346567 0 0.346567) 17 17 1
(0.105199 0.4474 0 0.4474) 120 119 2
(0.390403 0.304798 0 0.304798) 391 390 2
(0.231452 0.384274 0 0.384274) 74 74 1
(0.232533 0.383733 0 0.383733) 32 32 1
(0.362381 0.318809 0 0.318809) 416 415 2
(0.82379 0.0881048 0.0881048 0) 33 32 1
(0.635044 0.182478 0.182478 0) 26 26 2
(0.199068 0.400466 0.400466 0) 269 268 1
(0.342358 0.328821 0 0.328821) 260 259 2
(0.491267 0.254366 0 0.254366) 94 93 2
(0.66801 0.165995 0.165995 0) 16 16 2
(0.53385 0.233075 0 0.233075) 191 190 2
(0.746201 0.126899 0 0.126899) 102 101 2
(0.0644532 0.467773 0.467773 0) 288 287 1
(0.0363147 0.481843 0.481843 0) 151 150 1
(0.81414 0.0929301 0 0.0929301) 86 85 2
(0.921647 0.0391763 0 0.0391763) 126 125 2
(0.70938 0.14531 0 0.14531) 89 89 1
(0.499974 0.250013 0 0.250013) 251 251 1
(0.971954 0.014023 0.014023 0) 184 183 1
(0.924669 0.0376657 0.0376657 0) 243 242 1
(0.00922848 0.495386 0.495386 0) 79 79 2
(0.326707 0.336646 0 0.336646) 178 178 1
(0.734222 0.132889 0.132889 0) 126 126 2
(0.581578 0.209211 0.209211 0) 106 106 2
(0.55397 0.223015 0 0.223015) 31 31 1
(0.612379 0.193811 0.193811 0) 353 353 2
(0.0915381 0.454231 0.454231 0) 135 134 1
(0.335307 0.332346 0.332346 0) 393 392 1
(0.811296 0.0943522 0.0943522 0) 137 137 2
(0.145728 0.427136 0 0.427136) 176 176 1
(0.626724 0.186638 0 0.186638) 49 49 1
(0.691874 0.154063 0.154063 0) 165 165 2
(0.661775 0.169112 0.169112 0) 0 0 2
(0.867046 0.0664771 0.0664771 0) 299 299 2
(0.00488376 0.497558 0.497558 0) 143 143 2
(0.190739 0.404631 0.404631 0) 208 208 2
(0.732296 0.133852 0.133852 0) 67 67 2
(0.680254 0.159873 0 0.159873) 320 320 1
(0.661773 0.169114 0 0.169114) 74 73 2
(0.852718 0.0736409 0.0736409 0) 72 72 2
(0.160327 0.419836 0.419836 0) 193 192 1
(0.873424 0.0632878 0.0632878 0) 370 370 2
(0.257874 0.371063 0 0.371063) 114 113 2
(0.390282 0.304859 0 0.304859) 344 343 2
(0.965958 0.0170208 0.0170208 0) 199 198 1
(0.103889 0.448056 0 0.448056) 121 121 1
(0.566671 0.216665 0 0.216665) 108 108 1
(0.815535 0.0922323 0.0922323 0) 318 318 2
(0.900141 0.0499293 0.0499293 0) 404 404 2
(0.5612 0.2194 0 0.2194) 193 192 2
(0.182352 0.408824 0.408824 0) 141 141 2
(0.234083 0.382958 0 0.382958) 333 332 2
(0.538381 0.230809 0.230809 0) 16 16 2
(0.146958 0.426521 0 0.426521) 255 255 1
(0.65889 0.170555 0 0.170555) 301 300 2
(0.203731 0.398134 0 0.398134) 112 112 1
(0.373606 0.313197 0.313197 0) 235 235 2
(0.647335 0.176333 0 0.176333) 118 117 2
(0.760498 0.119751 0.119751 0) 241 240 1
(0.110901 0.44455 0 0.44455) 284 283 2
(0.5304 0.2348 0 0.2348) 56 55 2
(0.632812 0.183594 0.183594 0) 387 386 1
(0.882868 0.0585658 0 0.0585658) 57 57 1
(0.334954 0.332523 0.332523 0) 113 112 1
(0.10233 0.448835 0.448835 0) 488 488 2
(0.0316947 0.484153 0 0.484153) 200 199 2
(0.90842 0.0457899 0.0457899 0) 391 391 2
(0.968333 0.0158335 0 0.0158335) 258 258 1
(0.166925 0.416537 0.416537 0) 28 28 2
(0.18146 0.40927 0.40927 0) 561 560 1
(0.397229 0.301386 0 0.301386) 143 142 2
(0.00978953 0.495105 0 0.495105) 246 246 1
(0.516105 0.241947 0 0.241947) 29 28 2
(0.00038284 0.499809 0 0.499809) 417 417 1
(0.364523 0.317739 0 0.317739) 284 283 2
(0.818819 0.0905904 0.0905904 0) 12 11 1
(0.560769 0.219616 0 0.219616) 50 50 1
(0.395047 0.302477 0.302477 0) 110 110 2
(0.262167 0.368917 0.368917 0) 101 101 2
(0.504342 0.247829 0.247829 0) 267 266 1
(0.679606 0.160197 0 0.160197) 216 216 1
(0.163535 0.418233 0 0.418233) 171 170 2
(0.306894 0.346553 0 0.346553) 592 591 2
(0.292212 0.353894 0 0.353894) 231 231 1
(0.392502 0.303749 0.303749 0) 72 71 1
(0.343674 0.328163 0 0.328163) 265 264 2
(0.858539 0.0707303 0.0707303 0) 180 180 2
(0.0836284 0.458186 0.458186 0) 60 59 1
(0.550389 0.224805 0 0.224805) 215 214 2
(0.180922 0.409539 0.409539 0) 466 465 1
(0.680439 0.159781 0.159781 0) 172 171 1
(0.0303408 0.48483 0 0.48483) 0 0 1
(0.5734 0.2133 0.2133 0) 86 86 2
(0.0313791 0.48431 0 0.48431) 61 60 2
(0.315377 0.342311 0 0.342311) 129 129 1
(0.107258 0.446371 0.446371 0) 537 536 1
(0.634566 0.182717 0.182717 0) 296 296 2
(0.436555 0.281722 0 0.281722) 347 346 2
(0.489038 0.255481 0.255481 0) 161 160 1
(0.756672 0.121664 0.121664 0) 117 116 1
(0.322444 0.338778 0 0.338778) 172 172 1
(0.347247 0.326377 0 0.326377) 111 110 2
(0.965951 0.0170244 0 0.0170244) 54 53 2
(0.187197 0.406402 0 0.406402) 291 291 1
(0.400521 0.29974 0.29974 0) 88 87 1
(0.405751 0.297124 0.297124 0) 139 139 2
(0.754491 0.122755 0 0.122755) 101 100 2
(0.530972 0.234514 0.234514 0) 244 243 1
(0.37295 0.313525 0 0.313525) 114 114 1
(0.435485 0.282258 0 0.282258) 77 76 2
(0.868746 0.0656271 0.0656271 0) 216 216 2
(0.387626 0.306187 0.306187 0) 393 392 1
(0.758307 0.120847 0 0.120847) 239 239 1
(0.36517 0.317415 0.317415 0) 91 90 1
(0.0268205 0.48659 0 0.48659) 526 526 1
(0.119762 0.440119 0 0.440119) 188 187 2
(0.665876 0.167062 0.167062 0) 456 455 1
(0.682533 0.158734 0 0.158734) 91 91 1
(0.0132384 0.493381 0 0.493381) 235 235 1
(0.958432 0.0207839 0 0.0207839) 178 177 2
(0.134296 0.432852 0.432852 0) 257 257 2
(0.171937 0.414031 0 0.414031) 138 138 1
(0.468287 0.265856 0.265856 0) 186 186 2
(0.999824 8.80601e-05 0 8.80601e-05) 444 444 1
(0.774123 0.112938 0.112938 0) 142 141 1
(0.426353 0.286824 0.286824 0) 273 272 1
(0.195771 0.402115 0.402115 0) 83 83 2
(0.0550728 0.472464 0 0.472464) 206 206 1
(0.116359 0.441821 0.441821 0) 222 221 1
(0.706117 0.146942 0 0.146942) 75 74 2
(0.688717 0.155641 0 0.155641) 208 207 2
(0.075988 0.462006 0 0.462006) 131 130 2
(0.0598727 0.470064 0.470064 0) 528 528 2
(0.280135 0.359932 0.359932 0) 87 86 1
(0.131554 0.434223 0.434223 0) 285 285 2
(0.733414 0.133293 0.133293 0) 343 342 1
(0.750149 0.124926 0.124926 0) 38 37 1
(0.664442 0.167779 0 0.167779) 156 156 1
(0.079682 0.460159 0.460159 0) 87 87 2
(0.98777 0.00611477 0 0.00611477) 408 407 2
(0.818011 0.0909943 0 0.0909943) 159 159 1
(0.67508 0.16246 0 0.16246) 137 136 2
(0.798074 0.100963 0 0.100963) 237 237 1
(0.34075 0.329625 0.329625 0) 348 348 2
(0.682421 0.158789 0 0.158789) 50 49 2
(0.250074 0.374963 0 0.374963) 88 88 1
(0.917934 0.041033 0 0.041033) 240 239 2
(0.960136 0.0199321 0 0.0199321) 215 214 2
(0.729805 0.135098 0.135098 0) 251 250 1
(0.925768 0.0371162 0.0371162 0) 13 13 2
(0.775334 0.112333 0 0.112333) 156 155 2
(0.898931 0.0505346 0 0.0505346) 239 238 2
(0.87276 0.0636199 0.0636199 0) 96 95 1
(0.342147 0.328926 0.328926 0) 278 277 1
(0.972209 0.0138956 0 0.0138956) 206 206 1
(0.895246 0.0523769 0.0523769 0) 286 286 2
(0.967396 0.016302 0 0.016302) 102 101 2
(0.638687 0.180657 0.180657 0) 301 300 1
(0.290539 0.354731 0 0.354731) 261 260 2
(0.769683 0.115159 0 0.115159) 118 117 2
(0.666815 0.166593 0 0.166593) 613 612 2
(0.0739788 0.463011 0 0.463011) 71 70 2
(0.194889 0.402555 0.402555 0) 304 303 1
(0.346145 0.326928 0.326928 0) 77 76 1
(0.819309 0.0903457 0.0903457 0) 617 617 2
(0.453263 0.273368 0 0.273368) 68 67 2
(0.968904 0.0155479 0 0.0155479) 88 87 2
(0.888412 0.0557942 0.0557942 0) 424 423 1
(0.86026 0.0698701 0.0698701 0) 265 265 2
(0.708852 0.145574 0 0.145574) 362 361 2
(0.831803 0.0840986 0.0840986 0) 43 42 1
(0.249363 0.375319 0 0.375319) 107 107 1
(0.42351 0.288245 0 0.288245) 395 395 1
(0.140353 0.429823 0.429823 0) 145 145 2
(0.730929 0.134536 0 0.134536) 287 286 2
(0.737802 0.131099 0.131099 0) 25 25 2
(0.293349 0.353325 0 0.353325) 289 288 2
(0.488001 0.255999 0.255999 0) 379 378 1
(0.357043 0.321479 0 0.321479) 204 204 1
(0.463567 0.268216 0 0.268216) 314 313 2
(0.695525 0.152238 0.152238 0) 44 43 1
(0.206108 0.396946 0 0.396946) 179 179 1
(0.375435 0.312283 0 0.312283) 381 381 1
(0.345133 0.327433 0.327433 0) 180 179 1
(0.902433 0.0487834 0.0487834 0) 149 149 2
(0.213317 0.393342 0.393342 0) 42 42 2
(0.894687 0.0526567 0.0526567 0) 228 227 1
(0.498142 0.250929 0 0.250929) 338 337 2
(0.567051 0.216474 0.216474 0) 276 275 1
(0.729818 0.135091 0.135091 0) 315 315 2
(0.570982 0.214509 0 0.214509) 87 86 2
(0.568576 0.215712 0.215712 0) 460 460 2
(0.704556 0.147722 0.147722 0) 185 184 1
(0.604515 0.197743 0.197743 0) 236 235 1
(0.742263 0.128869 0 0.128869) 160 160 1
(0.97403 0.012985 0.012985 0) 111 110 1
(0.106814 0.446593 0 0.446593) 138 137 2
(0.155309 0.422345 0 0.422345) 145 145 1
(0.785635 0.107182 0.107182 0) 110 109 1
(0.780998 0.109501 0 0.109501) 470 469 2
(0.633512 0.183244 0 0.183244) 250 249 2
(0.822714 0.0886429 0.0886429 0) 109 108 1
(0.934772 0.0326142 0 0.0326142) 215 214 2
(0.934653 0.0326736 0 0.0326736) 68 67 2
(0.573021 0.21349 0 0.21349) 255 254 2
(0.580343 0.209828 0.209828 0) 69 68 1
(0.515109 0.242446 0.242446 0) 363 362 1
(0.678476 0.160762 0.160762 0) 412 412 2
(0.79157 0.104215 0 0.104215) 360 360 1
(0.88271 0.058645 0 0.058645) 350 350 1
(0.0450654 0.477467 0.477467 0) 336 335 1
(0.321121 0.339439 0.339439 0) 137 136 1
(0.87938 0.0603102 0 0.0603102) 185 184 2
(0.865839 0.0670804 0 0.0670804) 226 226 1
(0.74476 0.12762 0.12762 0) 120 120 2
(0.00356555 0.498217 0.498217 0) 155 154 1
(0.712574 0.143713 0.143713 0) 115 115 2
(0.230481 0.38476 0.38476 0) 411 410 1
(0.480859 0.25957 0 0.25957) 6 6 1
(0.506865 0.246567 0.246567 0) 501 500 1
(0.300195 0.349902 0 0.349902) 561 561 1
(0.438308 0.280846 0 0.280846) 244 243 2
(0.253629 0.373185 0 0.373185) 277 276 2
(0.29928 0.35036 0 0.35036) 335 335 1
(0.253867 0.373067 0.373067 0) 109 108 1
(0.0662708 0.466865 0.466865 0) 101 101 2
(0.134767 0.432617 0.432617 0) 10 10 2
(0.395852 0.302074 0 0.302074) 300 300 1
(0.525994 0.237003 0.237003 0) 260 259 1
(0.565941 0.217029 0.217029 0) 288 287 1
(0.629867 0.185066 0 0.185066) 208 207 2
(0.56485 0.217575 0.217575 0) 133 133 2
(0.557015 0.221492 0.221492 0) 455 455 2
(0.106292 0.446854 0 0.446854) 240 240 1
(0.72722 0.13639 0 0.13639) 95 94 2
(0.540568 0.229716 0.229716 0) 384 384 2
(0.641062 0.179469 0.179469 0) 235 234 1
(0.308375 0.345813 0 0.345813) 62 61 2
(0.472753 0.263624 0.263624 0) 204 203 1
(0.784047 0.107977 0 0.107977) 78 78 1
(0.655369 0.172316 0 0.172316) 311 311 1
(0.204065 0.397968 0.397968 0) 428 428 2
(0.446132 0.276934 0.276934 0) 265 265 2
(0.507983 0.246008 0 0.246008) 255 254 2
(0.132978 0.433511 0.433511 0) 48 48 2
(0.489156 0.255422 0 0.255422) 340 340 1
(0.631582 0.184209 0 0.184209) 81 80 2
(0.984093 0.00795335 0.00795335 0) 213 212 1
(0.463592 0.268204 0.268204 0) 376 375 1
(0.46758 0.26621 0 0.26621) 392 392 1
(0.365488 0.317256 0 0.317256) 268 268 1
(0.904942 0.047529 0 0.047529) 164 164 1
(0.590155 0.204922 0.204922 0) 93 93 2
(0.170111 0.414944 0.414944 0) 557 557 2
(0.539742 0.230129 0.230129 0) 300 300 2
(0.428482 0.285759 0 0.285759) 146 145 2
(0.943377 0.0283113 0.0283113 0) 156 155 1
(0.347566 0.326217 0.326217 0) 351 351 2
(0.408749 0.295626 0 0.295626) 328 327 2
(0.0896847 0.455158 0 0.455158) 259 258 2
(0.137275 0.431363 0 0.431363) 590 590 1
(0.106443 0.446778 0.446778 0) 233 233 2
(0.636077 0.181961 0.181961 0) 225 224 1
(0.968707 0.0156466 0.0156466 0) 111 111 2
(0.549236 0.225382 0 0.225382) 332 331 2
(0.243777 0.378111 0 0.378111) 225 224 2
(0.703837 0.148081 0 0.148081) 451 450 2
(0.999738 0.000130939 0.000130939 0) 150 149 1
(0.746238 0.126881 0 0.126881) 364 364 1
(0.94259 0.028705 0 0.028705) 32 31 2
(0.110165 0.444917 0 0.444917) 435 435 1
(0.0259567 0.487022 0 0.487022) 44 43 2
(0.34815 0.325925 0 0.325925) 167 167 1
(0.821611 0.0891947 0 0.0891947) 315 315 1
(0.806496 0.0967522 0.0967522 0) 119 119 2
(0.89488 0.0525598 0.0525598 0) 507 506 1
(0.91311 0.0434452 0 0.0434452) 127 127 1
(0.14007 0.429965 0 0.429965) 77 76 2
(0.735674 0.132163 0.132163 0) 106 105 1
(0.316563 0.341719 0.341719 0) 209 209 2
(0.0534844 0.473258 0 0.473258) 228 227 2
(0.609023 0.195489 0.195489 0) 37 36 1
(0.187555 0.406223 0.406223 0) 200 199 1
(0.297838 0.351081 0.351081 0) 484 483 1
(0.797069 0.101466 0.101466 0) 278 277 1
(0.819626 0.0901869 0.0901869 0) 33 32 1
(0.412242 0.293879 0.293879 0) 389 388 1
(0.437029 0.281486 0 0.281486) 546 545 2
(0.406867 0.296566 0.296566 0) 149 148 1
(0.779672 0.110164 0.110164 0) 524 523 1
(0.76555 0.117225 0 0.117225) 143 142 2
(0.346106 0.326947 0.326947 0) 235 235 2
(0.14717 0.426415 0.426415 0) 586 585 1
(0.308853 0.345573 0 0.345573) 191 190 2
(0.845817 0.0770913 0 0.0770913) 202 201 2
(0.560396 0.219802 0.219802 0) 28 28 2
(0.584903 0.207548 0.207548 0) 284 284 2
(0.348945 0.325528 0 0.325528) 80 80 1
(0.831859 0.0840704 0 0.0840704) 593 592 2
(0.557868 0.221066 0 0.221066) 140 140 1
(0.3971 0.30145 0 0.30145) 48 48 1
(0.478297 0.260852 0.260852 0) 57 57 2
(0.702325 0.148838 0.148838 0) 343 342 1
(0.865459 0.0672706 0 0.0672706) 391 391 1
(0.168329 0.415836 0 0.415836) 194 194 1
(0.585573 0.207213 0 0.207213) 39 39 1
(0.268859 0.365571 0.365571 0) 155 155 2
(0.812618 0.0936909 0.0936909 0) 243 242 1
(0.0190811 0.490459 0 0.490459) 254 253 2
(0.0325172 0.483741 0.483741 0) 291 290 1
(0.894258 0.0528711 0.0528711 0) 295 294 1
(0.612262 0.193869 0.193869 0) 57 57 2
(0.793476 0.103262 0 0.103262) 71 71 1
(0.766469 0.116765 0 0.116765) 329 329 1
(0.984362 0.0078189 0 0.0078189) 95 95 1
(0.201735 0.399132 0 0.399132) 309 309 1
(0.319686 0.340157 0 0.340157) 263 263 1
(0.50732 0.24634 0 0.24634) 591 590 2
(0.854451 0.0727743 0 0.0727743) 307 306 2
(0.554068 0.222966 0 0.222966) 248 247 2
(0.866762 0.0666188 0.0666188 0) 232 231 1
(0.0647555 0.467622 0 0.467622) 329 329 1
(0.989351 0.00532455 0.00532455 0) 413 412 1
(0.93955 0.030225 0 0.030225) 203 202 2
(0.965506 0.0172469 0 0.0172469) 303 303 1
(0.112686 0.443657 0 0.443657) 182 181 2
(0.293898 0.353051 0 0.353051) 414 413 2
(0.156159 0.42192 0 0.42192) 526 525 2
(0.544302 0.227849 0 0.227849) 392 391 2
(0.16756 0.41622 0.41622 0) 111 111 2
(0.331456 0.334272 0 0.334272) 319 318 2
(0.726905 0.136548 0 0.136548) 248 247 2
(0.704272 0.147864 0 0.147864) 274 273 2
(0.0361986 0.481901 0.481901 0) 88 87 1
(0.927862 0.036069 0 0.036069) 236 235 2
(0.793571 0.103215 0.103215 0) 36 35 1
(0.872249 0.0638753 0.0638753 0) 239 239 2
(0.646498 0.176751 0 0.176751) 102 102 1
(0.800018 0.0999909 0 0.0999909) 49 49 1
(0.172461 0.41377 0 0.41377) 306 306 1
(0.401975 0.299012 0.299012 0) 433 432 1
(0.984303 0.00784866 0.00784866 0) 378 377 1
(0.609377 0.195311 0 0.195311) 238 237 2
(0.705834 0.147083 0 0.147083) 206 205 2
(0.583393 0.208304 0 0.208304) 174 174 1
(0.0266806 0.48666 0.48666 0) 191 190 1
(0.41874 0.29063 0.29063 0) 83 83 2
(0.579428 0.210286 0.210286 0) 321 321 2
(0.718508 0.140746 0 0.140746) 113 113 1
(0.912387 0.0438064 0.0438064 0) 264 263 1
(0.807013 0.0964935 0 0.0964935) 556 556 1
(0.549463 0.225269 0.225269 0) 251 251 2
(0.307152 0.346424 0 0.346424) 67 66 2
(0.489372 0.255314 0 0.255314) 196 196 1
(0.857374 0.0713128 0.0713128 0) 247 246 1
(0.58878 0.20561 0 0.20561) 94 94 1
(0.414158 0.292921 0.292921 0) 151 150 1
(0.945291 0.0273546 0 0.0273546) 299 298 2
(0.50881 0.245595 0 0.245595) 14 13 2
(0.371168 0.314416 0.314416 0) 348 347 1
(0.402768 0.298616 0 0.298616) 395 395 1
(0.357647 0.321176 0 0.321176) 479 478 2
(0.406015 0.296993 0 0.296993) 26 26 1
(0.242607 0.378697 0 0.378697) 342 342 1
(0.239562 0.380219 0 0.380219) 193 192 2
(0.658376 0.170812 0 0.170812) 91 91 1
(0.242349 0.378826 0 0.378826) 160 159 2
(0.325367 0.337316 0.337316 0) 301 301 2
(0.196231 0.401884 0 0.401884) 247 247 1
(0.960039 0.0199803 0 0.0199803) 240 239 2
(0.145449 0.427275 0 0.427275) 88 87 2
(0.453009 0.273495 0 0.273495) 272 271 2
(0.353587 0.323207 0.323207 0) 19 18 1
(0.582305 0.208848 0.208848 0) 398 398 2
(0.127369 0.436315 0.436315 0) 212 211 1
(0.236516 0.381742 0 0.381742) 300 300 1
(0.56167 0.219165 0 0.219165) 154 153 2
(0.664994 0.167503 0.167503 0) 437 436 1
(0.163406 0.418297 0 0.418297) 394 394 1
(0.174477 0.412761 0 0.412761) 412 411 2
(0.811911 0.0940447 0 0.0940447) 42 41 2
(0.0190426 0.490479 0.490479 0) 249 249 2
(0.475512 0.262244 0.262244 0) 234 234 2
(0.309967 0.345016 0 0.345016) 116 115 2
(0.479683 0.260159 0.260159 0) 411 410 1
(0.89729 0.0513548 0.0513548 0) 235 234 1
(0.278131 0.360934 0.360934 0) 202 201 1
(0.385266 0.307367 0 0.307367) 139 138 2
(0.180055 0.409972 0.409972 0) 433 433 2
(0.331578 0.334211 0.334211 0) 234 234 2
(0.29161 0.354195 0 0.354195) 251 251 1
(0.171277 0.414361 0 0.414361) 443 443 1
(0.331975 0.334012 0.334012 0) 381 381 2
(0.309584 0.345208 0.345208 0) 181 180 1
(0.767148 0.116426 0.116426 0) 272 271 1
(0.593985 0.203008 0.203008 0) 300 300 2
(0.908588 0.0457062 0.0457062 0) 318 318 2
(0.957105 0.0214475 0 0.0214475) 41 40 2
(0.87851 0.0607451 0 0.0607451) 399 398 2
(0.405904 0.297048 0.297048 0) 418 418 2
(0.767394 0.116303 0 0.116303) 239 239 1
(0.396815 0.301593 0.301593 0) 558 558 2
(0.546944 0.226528 0 0.226528) 244 244 1
(0.721917 0.139042 0 0.139042) 155 154 2
(0.349008 0.325496 0 0.325496) 407 406 2
(0.496828 0.251586 0.251586 0) 240 239 1
(0.821457 0.0892715 0.0892715 0) 315 314 1
(0.503664 0.248168 0.248168 0) 122 122 2
(0.590037 0.204981 0 0.204981) 80 80 1
(0.413653 0.293173 0.293173 0) 202 202 2
(0.571591 0.214204 0.214204 0) 350 349 1
(0.092305 0.453848 0.453848 0) 332 331 1
(0.394409 0.302795 0 0.302795) 673 673 1
(0.794677 0.102662 0 0.102662) 57 57 1
(0.928437 0.0357813 0.0357813 0) 233 232 1
(0.150976 0.424512 0 0.424512) 280 279 2
(0.802983 0.0985084 0 0.0985084) 88 88 1
(0.522883 0.238558 0.238558 0) 334 334 2
(0.442208 0.278896 0.278896 0) 216 216 2
(0.237982 0.381009 0 0.381009) 292 292 1
(0.73796 0.13102 0.13102 0) 355 354 1
(0.925621 0.0371893 0 0.0371893) 224 223 2
(0.133028 0.433486 0 0.433486) 276 275 2
(0.374479 0.312761 0 0.312761) 51 51 1
(0.651833 0.174084 0 0.174084) 117 116 2
(0.562888 0.218556 0 0.218556) 219 218 2
(0.544966 0.227517 0 0.227517) 237 236 2
(0.295736 0.352132 0.352132 0) 203 202 1
(0.443335 0.278332 0.278332 0) 469 468 1
(0.521824 0.239088 0.239088 0) 447 446 1
(0.973282 0.0133589 0.0133589 0) 272 272 2
(0.886328 0.0568362 0.0568362 0) 173 172 1
(0.636839 0.18158 0 0.18158) 165 164 2
(0.856418 0.071791 0.071791 0) 68 68 2
(0.816778 0.091611 0.091611 0) 169 169 2
(0.360085 0.319958 0 0.319958) 250 250 1
(0.0746949 0.462653 0.462653 0) 319 318 1
(0.886648 0.0566759 0 0.0566759) 319 319 1
(0.593998 0.203001 0.203001 0) 340 340 2
(0.179315 0.410342 0.410342 0) 136 136 2
(0.26674 0.36663 0.36663 0) 206 205 1
(0.746892 0.126554 0 0.126554) 368 368 1
(0.515992 0.242004 0 0.242004) 225 225 1
(0.107892 0.446054 0 0.446054) 514 513 2
(0.510493 0.244753 0.244753 0) 619 619 2
(0.291555 0.354222 0 0.354222) 300 299 2
(0.496883 0.251558 0 0.251558) 378 377 2
(0.987738 0.00613098 0 0.00613098) 362 362 1
(0.173345 0.413328 0 0.413328) 229 229 1
(0.956009 0.0219956 0.0219956 0) 529 529 2
(0.819954 0.0900228 0 0.0900228) 425 425 1
(0.27107 0.364465 0 0.364465) 83 83 1
(0.438266 0.280867 0.280867 0) 773 772 1
(0.115798 0.442101 0.442101 0) 407 406 1
(0.230587 0.384706 0 0.384706) 588 587 2
(0.733477 0.133261 0.133261 0) 351 350 1
(0.990609 0.0046957 0 0.0046957) 83 83 1
(0.637407 0.181297 0 0.181297) 544 544 1
(0.0456255 0.477187 0 0.477187) 320 320 1
(0.163458 0.418271 0 0.418271) 394 394 1
(0.948938 0.0255311 0 0.0255311) 187 187 1
(0.0968975 0.451551 0 0.451551) 183 183 1
(0.444146 0.277927 0.277927 0) 493 492 1
(0.641136 0.179432 0.179432 0) 303 302 1
(0.82346 0.0882701 0 0.0882701) 480 479 2
(0.653643 0.173179 0 0.173179) 532 532 1
(0.443396 0.278302 0 0.278302) 423 423 1
(0.00497119 0.497514 0 0.497514) 340 339 2
(0.332811 0.333594 0 0.333594) 487 486 2
(0.195652 0.402174 0.402174 0) 325 324 1
(0.545791 0.227104 0 0.227104) 303 303 1
(0.402001 0.298999 0.298999 0) 569 569 2
(0.0216058 0.489197 0.489197 0) 328 327 1
(0.566974 0.216513 0 0.216513) 350 349 2
(0.0368789 0.481561 0.481561 0) 228 227 1
(0.376227 0.311887 0 0.311887) 320 319 2
(0.183755 0.408123 0.408123 0) 454 454 2
(0.0668984 0.466551 0 0.466551) 124 124 1
(0.73749 0.131255 0 0.131255) 577 577 1
(0.305266 0.347367 0.347367 0) 374 373 1
(0.228802 0.385599 0 0.385599) 402 402 1
(0.800834 0.0995831 0 0.0995831) 201 201 1
(0.338648 0.330676 0.330676 0) 415 415 2
(0.219771 0.390115 0.390115 0) 303 303 2
(0.279881 0.36006 0.36006 0) 474 474 2
(0.814013 0.0929937 0.0929937 0) 429 429 2
(0.812804 0.0935979 0 0.0935979) 380 379 2
(0.512066 0.243967 0.243967 0) 159 158 1
(0.353415 0.323292 0 0.323292) 162 162 1
(0.589631 0.205184 0 0.205184) 369 369 1
(0.41367 0.293165 0.293165 0) 394 394 2
(0.508696 0.245652 0 0.245652) 185 185 1
(0.30375 0.348125 0 0.348125) 131 131 1
(0.296435 0.351783 0 0.351783) 171 170 2
(0.98472 0.00764011 0.00764011 0) 533 533 2
(0.250242 0.374879 0 0.374879) 409 409 1
(0.640468 0.179766 0.179766 0) 85 85 2
(0.896355 0.0518224 0.0518224 0) 193 192 1
(0.555256 0.222372 0.222372 0) 159 158 1
(0.126998 0.436501 0.436501 0) 443 442 1
(0.0756283 0.462186 0.462186 0) 32 32 2
(0.784133 0.107933 0 0.107933) 240 240 1
(0.967606 0.0161972 0.0161972 0) 502 501 1
(0.354489 0.322755 0.322755 0) 507 506 1
(0.430765 0.284618 0 0.284618) 492 491 2
(0.118917 0.440542 0 0.440542) 205 205 1
(0.972882 0.0135591 0 0.0135591) 404 404 1
(0.72253 0.138735 0 0.138735) 12 11 2
(0.826644 0.0866779 0.0866779 0) 485 485 2
(0.864045 0.0679774 0 0.0679774) 265 265 1
(0.842619 0.0786904 0 0.0786904) 110 109 2
(0.711546 0.144227 0.144227 0) 120 119 1
(0.584226 0.207887 0.207887 0) 219 218 1
(0.399139 0.300431 0 0.300431) 136 136 1
(0.590153 0.204923 0 0.204923) 656 656 1
(0.249851 0.375075 0 0.375075) 302 301 2
(0.776329 0.111835 0.111835 0) 189 189 2
(0.0884467 0.455777 0.455777 0) 160 160 2
(0.674379 0.16281 0 0.16281) 145 144 2
(0.845571 0.0772143 0.0772143 0) 28 28 2
(0.713477 0.143262 0.143262 0) 266 265 1
(0.561559 0.219221 0.219221 0) 315 315 2
(0.690508 0.154746 0.154746 0) 185 184 1
(0.811224 0.0943879 0 0.0943879) 249 248 2
(0.316122 0.341939 0.341939 0) 251 250 1
(0.408575 0.295712 0.295712 0) 408 407 1
(0.496703 0.251648 0 0.251648) 230 229 2
(0.143517 0.428242 0.428242 0) 133 132 1
(0.493782 0.253109 0 0.253109) 421 420 2
(0.801301 0.0993494 0.0993494 0) 463 462 1
(0.954644 0.0226781 0.0226781 0) 439 438 1
(0.98661 0.00669488 0.00669488 0) 71 71 2
(0.486399 0.256801 0.256801 0) 137 137 2
(0.190881 0.404559 0 0.404559) 448 447 2
(0.500155 0.249922 0.249922 0) 404 404 2
(0.702607 0.148696 0.148696 0) 412 411 1
(0.440897 0.279551 0.279551 0) 362 361 1
(0.0741229 0.462939 0.462939 0) 253 252 1
(0.391436 0.304282 0 0.304282) 225 224 2
(0.669635 0.165182 0 0.165182) 743 743 1
(0.988496 0.00575218 0.00575218 0) 554 554 2
(0.0520445 0.473978 0 0.473978) 405 404 2
(0.720879 0.13956 0.13956 0) 482 481 1
(0.208412 0.395794 0.395794 0) 311 310 1
(0.149057 0.425472 0.425472 0) 685 684 1
(0.407309 0.296345 0.296345 0) 593 592 1
(0.0210628 0.489469 0.489469 0) 407 406 1
(0.897471 0.0512644 0 0.0512644) 12 11 2
(0.678687 0.160657 0.160657 0) 175 175 2
(0.307184 0.346408 0.346408 0) 76 76 2
(0.452372 0.273814 0.273814 0) 101 101 2
(0.482649 0.258676 0 0.258676) 208 207 2
(0.167782 0.416109 0.416109 0) 506 505 1
(0.545246 0.227377 0 0.227377) 484 484 1
(0.990572 0.0047139 0.0047139 0) 758 758 2
(0.229422 0.385289 0 0.385289) 530 530 1
(0.84329 0.0783552 0 0.0783552) 93 93 1
(0.978739 0.0106304 0.0106304 0) 213 212 1
(0.997099 0.00145057 0 0.00145057) 684 683 2
(0.980349 0.00982553 0.00982553 0) 358 358 2
(0.79271 0.103645 0 0.103645) 322 322 1
(0.248808 0.375596 0.375596 0) 233 233 2
(0.442918 0.278541 0.278541 0) 217 216 1
(0.153339 0.42333 0 0.42333) 400 399 2
(0.332086 0.333957 0.333957 0) 102 101 1
(0.0383663 0.480817 0.480817 0) 381 381 2
(0.695254 0.152373 0.152373 0) 475 475 2
(0.975503 0.0122484 0.0122484 0) 326 326 2
(0.818369 0.0908156 0.0908156 0) 247 246 1
(0.644388 0.177806 0.177806 0) 368 367 1
(0.0767447 0.461628 0 0.461628) 282 282 1