/*--------------------------------*- C++ -*----------------------------------*\
  =========                 |
  \\      /  F ield         | OpenFOAM: The Open Source CFD Toolbox
   \\    /   O peration     | Website:  https://openfoam.org
    \\  /    A nd           | Version:  7
     \\/     M anipulation  |
\*---------------------------------------------------------------------------*/
FoamFile
{
    version     2.0;
    format      ascii;
    class       Cloud<dsmcParcel>;
    location    "0.006/lagrangian/dsmc";
    object      positions;
}
// * * * * * * * * * * * * * * * * * * * * * * * * * * * * * * * * * * * * * //

10852
(
(0.959537 0.0202315 0 0.0202315) 8 7 2
(0.397356 0.301322 0.301322 0) 4 4 2
(0.276464 0.361768 0 0.361768) 23 23 1
(0.941393 0.0293036 0 0.0293036) 5 4 2
(0.393118 0.303441 0 0.303441) 10 10 1
(0.850978 0.0745109 0.0745109 0) 7 7 2
(0.251118 0.374441 0.374441 0) 4 4 2
(0.834566 0.0827171 0 0.0827171) 10 10 1
(0.681939 0.15903 0.15903 0) 16 16 2
(0.0529379 0.473531 0 0.473531) 29 28 2
(0.369984 0.315008 0 0.315008) 19 19 1
(0.667294 0.166353 0 0.166353) 11 11 1
(0.562375 0.218813 0.218813 0) 3 3 2
(0.925735 0.0371326 0 0.0371326) 2 2 1
(0.75723 0.121385 0 0.121385) 12 11 2
(0.0145025 0.492749 0 0.492749) 14 14 1
(0.852216 0.0738921 0 0.0738921) 9 9 1
(0.842503 0.0787484 0 0.0787484) 13 13 1
(0.391346 0.304327 0.304327 0) 3 3 2
(0.886348 0.0568261 0.0568261 0) 10 10 2
(0.683496 0.158252 0 0.158252) 5 4 2
(0.315319 0.342341 0.342341 0) 10 10 2
(0.265717 0.367141 0.367141 0) 5 4 1
(0.549363 0.225318 0 0.225318) 14 13 2
(0.315203 0.342399 0.342399 0) 24 23 1
(0.0746228 0.462689 0 0.462689) 2 1 2
(0.526088 0.236956 0.236956 0) 14 14 2
(0.922765 0.0386175 0 0.0386175) 12 11 2
(0.264363 0.367818 0 0.367818) 10 10 1
(0.188623 0.405688 0 0.405688) 5 5 1
(0.0632671 0.468366 0.468366 0) 3 2 1
(0.156046 0.421977 0.421977 0) 2 2 2
(0.824601 0.0876993 0 0.0876993) 0 0 1
(0.923165 0.0384175 0 0.0384175) 8 8 1
(0.539239 0.23038 0.23038 0) 7 7 2
(0.186617 0.406691 0 0.406691) 9 8 2
(0.344604 0.327698 0 0.327698) 12 11 2
(0.407586 0.296207 0.296207 0) 9 9 2
(0.935938 0.0320308 0.0320308 0) 8 7 1
(0.588371 0.205814 0 0.205814) 5 5 1
(0.329194 0.335403 0.335403 0) 13 12 1
(0.79508 0.10246 0.10246 0) 2 2 2
(0.023853 0.488074 0.488074 0) 24 23 1
(0.1773 0.41135 0.41135 0) 17 16 1
(0.480033 0.259983 0.259983 0) 3 3 2
(0.944576 0.0277119 0 0.0277119) 1 0 2
(0.163252 0.418374 0.418374 0) 2 1 1
(0.427336 0.286332 0.286332 0) 0 1000 2
(0.842946 0.0785268 0 0.0785268) 3 3 1
(0.724133 0.137934 0 0.137934) 26 26 1
(0.926285 0.0368573 0 0.0368573) 9 9 1
(0.464111 0.267945 0 0.267945) 9 9 1
(0.373712 0.313144 0.313144 0) 3 2 1
(0.404345 0.297827 0 0.297827) 2 2 1
(0.676528 0.161736 0.161736 0) 26 26 2
(0.224853 0.387573 0.387573 0) 5 4 1
(0.722316 0.138842 0 0.138842) 1 0 2
(0.122756 0.438622 0.438622 0) 6 5 1
(0.131425 0.434288 0.434288 0) 35 34 1
(0.397757 0.301121 0 0.301121) 9 8 2
(0.378146 0.310927 0 0.310927) 6 6 1
(0.729559 0.135221 0 0.135221) 13 13 1
(0.354363 0.322818 0.322818 0) 24 23 1
(0.875683 0.0621584 0 0.0621584) 14 14 1
(0.932084 0.0339582 0 0.0339582) 6 6 1
(0.168072 0.415964 0 0.415964) 14 13 2
(0.496351 0.251824 0 0.251824) 18 18 1
(0.395829 0.302085 0.302085 0) 4 4 2
(0.0129481 0.493526 0 0.493526) 0 0 1
(0.997923 0.00103854 0.00103854 0) 14 13 1
(0.0290903 0.485455 0.485455 0) 0 0 2
(0.56679 0.216605 0.216605 0) 3 3 2
(0.953312 0.0233439 0 0.0233439) 8 7 2
(0.558201 0.2209 0 0.2209) 9 9 1
(0.601599 0.199201 0 0.199201) 28 27 2
(0.582111 0.208944 0 0.208944) 3 2 2
(0.838261 0.0808695 0.0808695 0) 15 15 2
(0.566504 0.216748 0.216748 0) 24 23 1
(0.201673 0.399163 0.399163 0) 18 17 1
(0.979587 0.0102066 0.0102066 0) 23 22 1
(0.426183 0.286908 0 0.286908) 2 2 1
(0.32442 0.33779 0 0.33779) 13 13 1
(0.653062 0.173469 0.173469 0) 5 5 2
(0.073527 0.463237 0.463237 0) 9 9 2
(0.580498 0.209751 0 0.209751) 4 4 1
(0.585513 0.207244 0.207244 0) 0 0 2
(0.898206 0.050897 0 0.050897) 11 11 1
(0.877739 0.0611304 0.0611304 0) 19 19 2
(0.543015 0.228492 0.228492 0) 2 2 2
(0.681125 0.159438 0 0.159438) 25 24 2
(0.54852 0.22574 0.22574 0) 9 9 2
(0.493074 0.253463 0.253463 0) 3 2 1
(0.419127 0.290436 0.290436 0) 10 10 2
(0.521272 0.239364 0.239364 0) 11 11 2
(0.504092 0.247954 0 0.247954) 7 7 1
(0.0601968 0.469902 0 0.469902) 22 22 1
(0.185211 0.407394 0 0.407394) 6 6 1
(0.907841 0.0460793 0 0.0460793) 3 3 1
(0.145532 0.427234 0 0.427234) 4 4 1
(0.0923338 0.453833 0.453833 0) 1 1 2
(0.186585 0.406708 0 0.406708) 9 9 1
(0.384142 0.307929 0 0.307929) 19 18 2
(0.189938 0.405031 0.405031 0) 18 18 2
(0.472525 0.263737 0 0.263737) 15 15 1
(0.187236 0.406382 0 0.406382) 11 10 2
(0.98985 0.00507494 0 0.00507494) 15 14 2
(0.770374 0.114813 0.114813 0) 11 10 1
(0.511575 0.244213 0 0.244213) 2 1 2
(0.593231 0.203385 0 0.203385) 10 9 2
(0.977213 0.0113934 0.0113934 0) 11 10 1
(0.536176 0.231912 0 0.231912) 21 21 1
(0.0382449 0.480878 0.480878 0) 4 4 2
(0.905998 0.0470008 0.0470008 0) 13 13 2
(0.0296114 0.485194 0.485194 0) 2 1 1
(0.268992 0.365504 0.365504 0) 8 8 2
(0.69898 0.15051 0 0.15051) 5 5 1
(0.826355 0.0868224 0.0868224 0) 19 19 2
(0.0793375 0.460331 0 0.460331) 6 6 1
(0.308808 0.345596 0.345596 0) 18 18 2
(0.525257 0.237372 0 0.237372) 11 10 2
(0.395788 0.302106 0 0.302106) 4 3 2
(0.413037 0.293482 0.293482 0) 7 6 1
(0.105564 0.447218 0.447218 0) 4 4 2
(0.360725 0.319638 0 0.319638) 7 7 1
(0.20729 0.396355 0 0.396355) 18 17 2
(0.700347 0.149826 0 0.149826) 1 1 1
(0.283347 0.358326 0.358326 0) 9 8 1
(0.382022 0.308989 0 0.308989) 16 15 2
(0.26275 0.368625 0.368625 0) 6 5 1
(0.00985567 0.495072 0 0.495072) 11 11 1
(0.532461 0.23377 0 0.23377) 14 13 2
(0.270793 0.364603 0.364603 0) 0 1000 2
(0.947312 0.026344 0.026344 0) 4 4 2
(0.297581 0.351209 0.351209 0) 11 11 2
(0.0259544 0.487023 0.487023 0) 11 11 2
(0.957789 0.0211057 0 0.0211057) 7 6 2
(0.926853 0.0365737 0.0365737 0) 13 12 1
(0.912189 0.0439057 0.0439057 0) 18 18 2
(0.874473 0.0627634 0.0627634 0) 24 24 2
(0.00657954 0.49671 0 0.49671) 6 6 1
(0.997064 0.00146777 0.00146777 0) 18 18 2
(0.605115 0.197443 0 0.197443) 5 5 1
(0.0703027 0.464849 0.464849 0) 12 11 1
(0.00782803 0.496086 0.496086 0) 13 12 1
(0.188073 0.405963 0 0.405963) 1 0 2
(0.693577 0.153212 0.153212 0) 7 7 2
(0.343249 0.328375 0 0.328375) 6 5 2
(0.457868 0.271066 0.271066 0) 18 18 2
(0.658313 0.170844 0.170844 0) 17 16 1
(0.661469 0.169265 0.169265 0) 9 9 2
(0.793675 0.103163 0.103163 0) 13 12 1
(0.58587 0.207065 0.207065 0) 19 19 2
(0.603345 0.198328 0 0.198328) 3 3 1
(0.259671 0.370165 0.370165 0) 23 23 2
(0.311045 0.344477 0 0.344477) 2 2 1
(0.1382 0.4309 0 0.4309) 17 17 1
(0.687584 0.156208 0 0.156208) 35 35 1
(0.358135 0.320932 0 0.320932) 0 1000 1
(0.723454 0.138273 0 0.138273) 18 17 2
(0.320087 0.339957 0 0.339957) 23 22 2
(0.46132 0.26934 0.26934 0) 2 1 1
(0.7034 0.1483 0.1483 0) 17 17 2
(0.823131 0.0884346 0.0884346 0) 6 5 1
(0.144792 0.427604 0 0.427604) 5 5 1
(0.434652 0.282674 0 0.282674) 9 9 1
(0.608858 0.195571 0.195571 0) 2 1 1
(0.73294 0.13353 0.13353 0) 0 0 2
(0.938496 0.030752 0 0.030752) 17 17 1
(0.827948 0.0860258 0 0.0860258) 17 17 1
(0.255685 0.372157 0.372157 0) 9 8 1
(0.213769 0.393115 0 0.393115) 13 12 2
(0.077894 0.461053 0.461053 0) 10 10 2
(0.787142 0.106429 0 0.106429) 3 3 1
(0.462856 0.268572 0 0.268572) 4 4 1
(0.928707 0.0356465 0 0.0356465) 9 8 2
(0.146855 0.426572 0 0.426572) 11 10 2
(0.180239 0.409881 0.409881 0) 5 4 1
(0.59825 0.200875 0 0.200875) 2 2 1
(0.180524 0.409738 0.409738 0) 23 22 1
(0.279619 0.36019 0.36019 0) 13 13 2
(0.495214 0.252393 0.252393 0) 12 11 1
(0.179074 0.410463 0 0.410463) 7 7 1
(0.272812 0.363594 0 0.363594) 8 7 2
(0.53772 0.23114 0 0.23114) 0 0 1
(0.476013 0.261994 0 0.261994) 22 21 2
(0.372419 0.31379 0 0.31379) 6 5 2
(0.0682806 0.46586 0.46586 0) 17 16 1
(0.191015 0.404493 0.404493 0) 16 15 1
(0.249272 0.375364 0 0.375364) 8 8 1
(0.191545 0.404228 0.404228 0) 6 6 2
(0.232634 0.383683 0 0.383683) 14 14 1
(0.152786 0.423607 0 0.423607) 0 1000 1
(0.415438 0.292281 0.292281 0) 7 6 1
(0.377652 0.311174 0 0.311174) 1 1 1
(0.880571 0.0597147 0 0.0597147) 37 37 1
(0.108565 0.445718 0.445718 0) 1 1 2
(0.237022 0.381489 0.381489 0) 15 14 1
(0.692396 0.153802 0 0.153802) 16 15 2
(0.365123 0.317439 0.317439 0) 5 4 1
(0.0585123 0.470744 0.470744 0) 24 23 1
(0.396207 0.301896 0 0.301896) 0 1000 1
(0.206821 0.39659 0.39659 0) 7 7 2
(0.0646603 0.46767 0.46767 0) 4 3 1
(0.471758 0.264121 0.264121 0) 2 2 2
(0.466828 0.266586 0 0.266586) 11 11 1
(0.374437 0.312782 0.312782 0) 10 10 2
(0.344834 0.327583 0 0.327583) 18 18 1
(0.188837 0.405582 0 0.405582) 18 17 2
(0.163874 0.418063 0.418063 0) 33 32 1
(0.141814 0.429093 0.429093 0) 6 5 1
(0.761799 0.119101 0 0.119101) 5 5 1
(0.758145 0.120928 0.120928 0) 17 16 1
(0.192395 0.403803 0 0.403803) 3 2 2
(0.480082 0.259959 0.259959 0) 5 4 1
(0.198254 0.400873 0 0.400873) 14 14 1
(0.894136 0.052932 0 0.052932) 23 23 1
(0.607553 0.196224 0.196224 0) 7 7 2
(0.925484 0.0372579 0 0.0372579) 19 18 2
(0.671913 0.164043 0 0.164043) 29 29 1
(0.431994 0.284003 0.284003 0) 6 6 2
(0.213476 0.393262 0 0.393262) 18 18 1
(0.459233 0.270384 0.270384 0) 7 6 1
(0.983292 0.00835398 0.00835398 0) 11 10 1
(0.115588 0.442206 0 0.442206) 20 19 2
(0.935934 0.0320328 0.0320328 0) 15 15 2
(0.121344 0.439328 0.439328 0) 18 18 2
(0.610696 0.194652 0.194652 0) 2 2 2
(0.991521 0.00423926 0.00423926 0) 39 38 1
(0.222526 0.388737 0 0.388737) 22 21 2
(0.530539 0.234731 0 0.234731) 9 8 2
(0.936704 0.0316479 0.0316479 0) 45 45 2
(0.648854 0.175573 0 0.175573) 26 25 2
(0.212661 0.393669 0.393669 0) 2 2 2
(0.63786 0.18107 0.18107 0) 7 6 1
(0.00757525 0.496212 0.496212 0) 15 15 2
(0.671653 0.164173 0.164173 0) 18 17 1
(0.595634 0.202183 0 0.202183) 8 7 2
(0.0659436 0.467028 0 0.467028) 10 9 2
(0.0493457 0.475327 0.475327 0) 15 15 2
(0.487149 0.256426 0 0.256426) 4 3 2
(0.520488 0.239756 0 0.239756) 10 9 2
(0.0453215 0.477339 0.477339 0) 25 25 2
(0.475424 0.262288 0 0.262288) 20 20 1
(0.382297 0.308852 0.308852 0) 29 28 1
(0.0679211 0.466039 0.466039 0) 18 18 2
(0.200215 0.399893 0 0.399893) 18 17 2
(0.113843 0.443079 0 0.443079) 28 27 2
(0.4278 0.2861 0 0.2861) 1 1 1
(0.734956 0.132522 0.132522 0) 31 30 1
(0.516637 0.241682 0.241682 0) 29 28 1
(0.112752 0.443624 0.443624 0) 2 1 1
(0.0552933 0.472353 0.472353 0) 3 3 2
(0.758009 0.120996 0 0.120996) 11 11 1
(0.393857 0.303071 0.303071 0) 19 18 1
(0.628827 0.185586 0 0.185586) 21 21 1
(0.173015 0.413493 0 0.413493) 14 13 2
(0.552863 0.223569 0.223569 0) 20 20 2
(0.171257 0.414371 0.414371 0) 11 10 1
(0.381386 0.309307 0 0.309307) 2 1 2
(0.486302 0.256849 0 0.256849) 23 23 1
(0.483038 0.258481 0 0.258481) 12 12 1
(0.972986 0.0135071 0 0.0135071) 20 20 1
(0.87618 0.0619101 0.0619101 0) 19 19 2
(0.350821 0.32459 0 0.32459) 19 18 2
(0.121619 0.439191 0 0.439191) 1 0 2
(0.360382 0.319809 0.319809 0) 13 13 2
(0.581636 0.209182 0.209182 0) 28 28 2
(0.641434 0.179283 0.179283 0) 18 17 1
(0.46312 0.26844 0.26844 0) 25 24 1
(0.647681 0.176159 0 0.176159) 32 32 1
(0.412596 0.293702 0.293702 0) 24 23 1
(0.0880191 0.45599 0.45599 0) 5 4 1
(0.497282 0.251359 0.251359 0) 6 5 1
(0.268406 0.365797 0.365797 0) 28 28 2
(0.999612 0.000193978 0.000193978 0) 11 11 2
(0.613396 0.193302 0.193302 0) 17 16 1
(0.857745 0.0711276 0 0.0711276) 1 0 2
(0.656026 0.171987 0 0.171987) 17 16 2
(0.843023 0.0784886 0.0784886 0) 26 25 1
(0.0629002 0.46855 0 0.46855) 41 41 1
(0.992086 0.00395705 0 0.00395705) 16 16 1
(0.774875 0.112562 0.112562 0) 21 21 2
(0.79778 0.10111 0 0.10111) 14 14 1
(0.350721 0.324639 0 0.324639) 14 14 1
(0.399536 0.300232 0.300232 0) 13 13 2
(0.477307 0.261347 0.261347 0) 6 5 1
(0.987643 0.00617827 0.00617827 0) 9 9 2
(0.984227 0.00788644 0 0.00788644) 29 29 1
(0.502931 0.248535 0.248535 0) 15 15 2
(0.155241 0.42238 0.42238 0) 21 20 1
(0.780928 0.109536 0.109536 0) 19 18 1
(0.754583 0.122708 0.122708 0) 21 21 2
(0.0532913 0.473354 0 0.473354) 7 7 1
(0.567516 0.216242 0.216242 0) 10 9 1
(0.582375 0.208812 0 0.208812) 6 5 2
(0.0772738 0.461363 0.461363 0) 20 19 1
(0.614809 0.192596 0 0.192596) 11 10 2
(0.134189 0.432905 0 0.432905) 19 19 1
(0.804509 0.0977455 0 0.0977455) 31 30 2
(0.047787 0.476106 0 0.476106) 2 2 1
(0.920571 0.0397146 0 0.0397146) 26 25 2
(0.078591 0.460705 0 0.460705) 4 4 1
(0.149518 0.425241 0.425241 0) 1 1 2
(0.240984 0.379508 0 0.379508) 8 8 1
(0.560193 0.219904 0.219904 0) 34 33 1
(0.688243 0.155879 0 0.155879) 19 18 2
(0.391207 0.304397 0.304397 0) 40 39 1
(0.457543 0.271228 0.271228 0) 15 15 2
(0.749879 0.125061 0 0.125061) 26 26 1
(0.295822 0.352089 0 0.352089) 38 37 2
(0.87251 0.0637451 0.0637451 0) 10 10 2
(0.921496 0.0392521 0.0392521 0) 8 7 1
(0.795225 0.102388 0 0.102388) 9 8 2
(0.171607 0.414197 0 0.414197) 20 19 2
(0.685832 0.157084 0 0.157084) 28 27 2
(0.0169819 0.491509 0.491509 0) 0 0 2
(0.934081 0.0329596 0 0.0329596) 32 32 1
(0.181588 0.409206 0 0.409206) 8 7 2
(0.851031 0.0744844 0 0.0744844) 8 7 2
(0.579901 0.210049 0.210049 0) 14 14 2
(0.535796 0.232102 0 0.232102) 37 36 2
(0.633295 0.183353 0 0.183353) 18 17 2
(0.546955 0.226523 0.226523 0) 12 12 2
(0.798395 0.100803 0.100803 0) 7 7 2
(0.356272 0.321864 0.321864 0) 29 29 2
(0.322313 0.338843 0 0.338843) 5 4 2
(0.8489 0.0755501 0 0.0755501) 31 31 1
(0.404997 0.297501 0.297501 0) 29 28 1
(0.426808 0.286596 0.286596 0) 10 10 2
(0.760325 0.119837 0.119837 0) 0 0 2
(0.0226802 0.48866 0 0.48866) 4 4 1
(0.184499 0.40775 0 0.40775) 16 16 1
(0.590867 0.204566 0.204566 0) 21 20 1
(0.953114 0.0234429 0.0234429 0) 14 14 2
(0.989104 0.00544788 0 0.00544788) 12 11 2
(0.339224 0.330388 0 0.330388) 28 27 2
(0.122092 0.438954 0.438954 0) 1 0 1
(0.426295 0.286853 0 0.286853) 13 12 2
(0.38009 0.309955 0 0.309955) 33 32 2
(0.832197 0.0839016 0 0.0839016) 39 38 2
(0.158261 0.420869 0 0.420869) 28 27 2
(0.402552 0.298724 0.298724 0) 6 5 1
(0.210749 0.394625 0 0.394625) 28 28 1
(0.530147 0.234927 0 0.234927) 21 21 1
(0.843885 0.0780575 0.0780575 0) 24 24 2
(0.0497995 0.4751 0 0.4751) 43 43 1
(0.422916 0.288542 0.288542 0) 13 12 1
(0.245492 0.377254 0.377254 0) 18 18 2
(0.376515 0.311743 0.311743 0) 32 31 1
(0.0127156 0.493642 0 0.493642) 9 8 2
(0.450029 0.274986 0.274986 0) 14 14 2
(0.677847 0.161076 0 0.161076) 23 23 1
(0.179963 0.410018 0 0.410018) 10 9 2
(0.828227 0.0858864 0 0.0858864) 27 26 2
(0.266173 0.366913 0.366913 0) 39 39 2
(0.160119 0.419941 0 0.419941) 6 6 1
(0.708697 0.145652 0 0.145652) 30 29 2
(0.150643 0.424679 0.424679 0) 30 30 2
(0.308193 0.345904 0 0.345904) 28 28 1
(0.131487 0.434257 0.434257 0) 6 5 1
(0.540917 0.229541 0 0.229541) 9 9 1
(0.540106 0.229947 0.229947 0) 20 19 1
(0.511173 0.244414 0.244414 0) 12 11 1
(0.0798919 0.460054 0.460054 0) 20 19 1
(0.157806 0.421097 0 0.421097) 31 30 2
(0.0982385 0.450881 0 0.450881) 20 20 1
(0.941391 0.0293044 0.0293044 0) 30 29 1
(0.320794 0.339603 0 0.339603) 26 25 2
(0.735148 0.132426 0.132426 0) 0 0 2
(0.38541 0.307295 0 0.307295) 35 35 1
(0.190492 0.404754 0 0.404754) 10 10 1
(0.593675 0.203163 0.203163 0) 38 37 1
(0.218862 0.390569 0 0.390569) 33 32 2
(0.883382 0.058309 0 0.058309) 36 35 2
(0.103761 0.448119 0.448119 0) 6 6 2
(0.665573 0.167214 0 0.167214) 29 28 2
(0.73428 0.13286 0.13286 0) 13 12 1
(0.767094 0.116453 0 0.116453) 6 6 1
(0.364615 0.317692 0.317692 0) 13 12 1
(0.643982 0.178009 0 0.178009) 21 20 2
(0.218176 0.390912 0.390912 0) 16 16 2
(0.00720579 0.496397 0.496397 0) 18 18 2
(0.198616 0.400692 0 0.400692) 19 19 1
(0.397322 0.301339 0 0.301339) 32 32 1
(0.308875 0.345563 0.345563 0) 27 26 1
(0.903447 0.0482764 0.0482764 0) 29 28 1
(0.495244 0.252378 0.252378 0) 19 18 1
(0.926003 0.0369985 0 0.0369985) 19 18 2
(0.576649 0.211675 0 0.211675) 15 14 2
(0.451217 0.274391 0.274391 0) 26 26 2
(0.719757 0.140122 0.140122 0) 46 45 1
(0.353696 0.323152 0 0.323152) 17 16 2
(0.603205 0.198397 0.198397 0) 8 8 2
(0.865192 0.0674039 0.0674039 0) 28 27 1
(0.296928 0.351536 0.351536 0) 15 15 2
(0.177563 0.411218 0.411218 0) 13 13 2
(0.969229 0.0153857 0 0.0153857) 9 8 2
(0.643809 0.178095 0.178095 0) 31 30 1
(0.99127 0.00436476 0 0.00436476) 31 30 2
(0.947386 0.0263072 0 0.0263072) 28 28 1
(0.840132 0.0799338 0.0799338 0) 17 16 1
(0.0427206 0.47864 0 0.47864) 39 39 1
(0.964257 0.0178716 0 0.0178716) 33 32 2
(0.475512 0.262244 0.262244 0) 27 26 1
(0.094095 0.452952 0 0.452952) 18 17 2
(0.308924 0.345538 0 0.345538) 34 33 2
(0.59348 0.20326 0 0.20326) 28 27 2
(0.176639 0.411681 0.411681 0) 18 18 2
(0.525886 0.237057 0.237057 0) 28 27 1
(0.497059 0.251471 0 0.251471) 27 26 2
(0.987654 0.00617283 0.00617283 0) 27 26 1
(0.296833 0.351584 0 0.351584) 27 26 2
(0.934259 0.0328707 0.0328707 0) 34 34 2
(0.512952 0.243524 0 0.243524) 47 46 2
(0.202746 0.398627 0 0.398627) 19 18 2
(0.654029 0.172986 0 0.172986) 14 13 2
(0.872193 0.0639036 0.0639036 0) 28 27 1
(0.308893 0.345554 0.345554 0) 33 32 1
(0.61837 0.190815 0 0.190815) 2 2 1
(0.583669 0.208166 0 0.208166) 15 15 1
(0.235077 0.382461 0.382461 0) 12 11 1
(0.694096 0.152952 0 0.152952) 9 9 1
(0.889123 0.0554385 0 0.0554385) 28 28 1
(0.17314 0.41343 0 0.41343) 21 20 2
(0.792873 0.103563 0.103563 0) 30 29 1
(0.969202 0.0153991 0 0.0153991) 37 36 2
(0.417602 0.291199 0.291199 0) 4 3 1
(0.438401 0.280799 0.280799 0) 23 23 2
(0.619942 0.190029 0 0.190029) 13 13 1
(0.184185 0.407907 0.407907 0) 16 15 1
(0.0594973 0.470251 0 0.470251) 29 29 1
(0.208651 0.395674 0 0.395674) 17 16 2
(0.98134 0.0093302 0 0.0093302) 38 38 1
(0.0302442 0.484878 0 0.484878) 27 27 1
(0.382822 0.308589 0.308589 0) 35 35 2
(0.507414 0.246293 0 0.246293) 0 1000 1
(0.5342 0.2329 0 0.2329) 29 28 2
(0.160155 0.419923 0 0.419923) 9 8 2
(0.869546 0.0652269 0.0652269 0) 30 29 1
(0.956374 0.0218131 0 0.0218131) 11 10 2
(0.913884 0.0430581 0.0430581 0) 8 8 2
(0.35977 0.320115 0 0.320115) 42 42 1
(0.666258 0.166871 0.166871 0) 44 43 1
(0.691022 0.154489 0 0.154489) 40 39 2
(0.653509 0.173245 0.173245 0) 6 5 1
(0.0302521 0.484874 0 0.484874) 11 11 1
(0.708257 0.145872 0.145872 0) 10 9 1
(0.475731 0.262135 0.262135 0) 35 34 1
(0.365297 0.317351 0 0.317351) 13 12 2
(0.173078 0.413461 0.413461 0) 11 11 2
(0.840786 0.0796068 0.0796068 0) 43 42 1
(0.00942636 0.495287 0 0.495287) 37 37 1
(0.989809 0.00509561 0 0.00509561) 15 14 2
(0.706017 0.146991 0 0.146991) 35 34 2
(0.701465 0.149268 0.149268 0) 16 16 2
(0.223466 0.388267 0.388267 0) 19 18 1
(0.821424 0.0892882 0.0892882 0) 23 23 2
(0.972799 0.0136006 0 0.0136006) 13 13 1
(0.925615 0.0371924 0 0.0371924) 17 17 1
(0.435468 0.282266 0.282266 0) 14 14 2
(0.898928 0.0505359 0.0505359 0) 19 18 1
(0.999895 5.22734e-05 5.22734e-05 0) 16 16 2
(0.858236 0.070882 0.070882 0) 39 38 1
(0.596297 0.201852 0 0.201852) 30 30 1
(0.451205 0.274398 0.274398 0) 3 3 2
(0.580207 0.209897 0 0.209897) 23 23 1
(0.835963 0.0820184 0 0.0820184) 52 51 2
(0.991218 0.00439079 0 0.00439079) 20 20 1
(0.220819 0.389591 0.389591 0) 31 30 1
(0.990722 0.00463914 0.00463914 0) 29 28 1
(0.139376 0.430312 0 0.430312) 1 0 2
(0.818462 0.0907691 0 0.0907691) 37 36 2
(0.749544 0.125228 0.125228 0) 2 2 2
(0.751605 0.124197 0.124197 0) 32 31 1
(0.982888 0.00855585 0 0.00855585) 23 22 2
(0.507415 0.246292 0.246292 0) 41 40 1
(0.471462 0.264269 0 0.264269) 19 19 1
(0.592008 0.203996 0.203996 0) 37 36 1
(0.544056 0.227972 0.227972 0) 23 22 1
(0.874249 0.0628754 0.0628754 0) 23 23 2
(0.518004 0.240998 0 0.240998) 19 18 2
(0.628697 0.185652 0 0.185652) 62 61 2
(0.258014 0.370993 0.370993 0) 19 19 2
(0.717951 0.141025 0.141025 0) 22 22 2
(0.376895 0.311552 0 0.311552) 42 41 2
(0.908225 0.0458875 0 0.0458875) 26 25 2
(0.825539 0.0872304 0 0.0872304) 32 31 2
(0.0167206 0.49164 0 0.49164) 39 39 1
(0.79343 0.103285 0 0.103285) 18 17 2
(0.646302 0.176849 0.176849 0) 19 19 2
(0.834461 0.0827693 0 0.0827693) 0 0 1
(0.693683 0.153158 0 0.153158) 24 24 1
(0.145621 0.42719 0.42719 0) 39 39 2
(0.975125 0.0124377 0 0.0124377) 27 26 2
(0.845846 0.0770772 0.0770772 0) 21 21 2
(0.4223 0.28885 0.28885 0) 12 12 2
(0.245483 0.377258 0.377258 0) 17 16 1
(0.526011 0.236995 0 0.236995) 25 25 1
(0.384498 0.307751 0.307751 0) 23 22 1
(0.0373812 0.481309 0 0.481309) 23 23 1
(0.603024 0.198488 0.198488 0) 24 23 1
(0.152699 0.423651 0 0.423651) 19 19 1
(0.506033 0.246984 0.246984 0) 19 18 1
(0.567072 0.216464 0.216464 0) 32 32 2
(0.862158 0.0689211 0.0689211 0) 22 22 2
(0.322101 0.33895 0 0.33895) 38 38 1
(0.280868 0.359566 0.359566 0) 24 24 2
(0.0458568 0.477072 0.477072 0) 27 26 1
(0.687649 0.156175 0 0.156175) 29 28 2
(0.557464 0.221268 0 0.221268) 43 42 2
(0.0755456 0.462227 0.462227 0) 15 14 1
(0.616845 0.191578 0.191578 0) 25 24 1
(0.238693 0.380654 0.380654 0) 37 36 1
(0.423907 0.288047 0 0.288047) 34 33 2
(0.774321 0.112839 0.112839 0) 31 30 1
(0.0606572 0.469671 0 0.469671) 29 28 2
(0.977044 0.011478 0 0.011478) 29 28 2
(0.0373637 0.481318 0 0.481318) 44 43 2
(0.871662 0.0641691 0 0.0641691) 29 29 1
(0.0707251 0.464637 0 0.464637) 27 27 1
(0.66363 0.168185 0 0.168185) 25 24 2
(0.325177 0.337412 0.337412 0) 32 32 2
(0.271071 0.364464 0 0.364464) 25 25 1
(0.284382 0.357809 0.357809 0) 40 39 1
(0.387109 0.306446 0 0.306446) 3 3 1
(0.802405 0.0987973 0 0.0987973) 18 18 1
(0.786228 0.106886 0 0.106886) 39 38 2
(0.120796 0.439602 0 0.439602) 28 28 1
(0.277522 0.361239 0.361239 0) 42 41 1
(0.452161 0.27392 0.27392 0) 50 49 1
(0.252979 0.37351 0 0.37351) 35 34 2
(0.830251 0.0848744 0.0848744 0) 19 19 2
(0.451831 0.274085 0.274085 0) 18 18 2
(0.0374753 0.481262 0 0.481262) 11 11 1
(0.315718 0.342141 0 0.342141) 23 22 2
(0.455975 0.272012 0 0.272012) 50 50 1
(0.152689 0.423655 0.423655 0) 25 24 1
(0.50038 0.24981 0 0.24981) 59 58 2
(0.0345814 0.482709 0.482709 0) 34 34 2
(0.867071 0.0664647 0 0.0664647) 35 35 1
(0.613144 0.193428 0.193428 0) 49 48 1
(0.0448172 0.477591 0 0.477591) 29 28 2
(0.82907 0.0854648 0 0.0854648) 24 24 1
(0.406369 0.296815 0.296815 0) 17 16 1
(0.0629677 0.468516 0 0.468516) 27 26 2
(0.114394 0.442803 0 0.442803) 44 44 1
(0.524271 0.237864 0 0.237864) 24 24 1
(0.911066 0.044467 0.044467 0) 37 37 2
(0.926079 0.0369604 0 0.0369604) 19 18 2
(0.095276 0.452362 0.452362 0) 33 32 1
(0.87901 0.0604949 0.0604949 0) 24 24 2
(0.311993 0.344003 0 0.344003) 45 45 1
(0.575336 0.212332 0.212332 0) 20 20 2
(0.76974 0.11513 0.11513 0) 26 25 1
(0.346159 0.326921 0 0.326921) 44 43 2
(0.754944 0.122528 0 0.122528) 35 34 2
(0.808444 0.0957782 0 0.0957782) 15 14 2
(0.939233 0.0303833 0.0303833 0) 25 25 2
(0.257012 0.371494 0 0.371494) 10 10 1
(0.464648 0.267676 0.267676 0) 20 19 1
(0.628163 0.185919 0.185919 0) 26 26 2
(0.821491 0.0892545 0 0.0892545) 50 50 1
(0.10305 0.448475 0.448475 0) 24 23 1
(0.763169 0.118416 0 0.118416) 38 37 2
(0.38529 0.307355 0 0.307355) 41 41 1
(0.552237 0.223882 0.223882 0) 30 30 2
(0.661515 0.169242 0.169242 0) 29 28 1
(0.902269 0.0488656 0 0.0488656) 34 33 2
(0.211257 0.394371 0.394371 0) 39 38 1
(0.162613 0.418693 0.418693 0) 35 35 2
(0.97167 0.0141648 0 0.0141648) 25 25 1
(0.994635 0.00268272 0 0.00268272) 30 30 1
(0.0182293 0.490885 0 0.490885) 9 9 1
(0.820055 0.0899725 0 0.0899725) 25 24 2
(0.771954 0.114023 0.114023 0) 36 35 1
(0.134364 0.432818 0.432818 0) 35 34 1
(0.628226 0.185887 0.185887 0) 21 20 1
(0.826215 0.0868927 0 0.0868927) 50 50 1
(0.714353 0.142824 0 0.142824) 47 46 2
(0.826134 0.0869328 0 0.0869328) 37 37 1
(0.00656611 0.496717 0 0.496717) 48 47 2
(0.769199 0.115401 0 0.115401) 17 16 2
(0.142577 0.428712 0 0.428712) 26 26 1
(0.934142 0.0329288 0 0.0329288) 45 44 2
(0.647579 0.176211 0.176211 0) 24 24 2
(0.521566 0.239217 0 0.239217) 34 33 2
(0.0541277 0.472936 0.472936 0) 62 61 1
(0.136948 0.431526 0.431526 0) 35 35 2
(0.810185 0.0949074 0 0.0949074) 21 20 2
(0.134468 0.432766 0.432766 0) 41 41 2
(0.129791 0.435104 0.435104 0) 42 42 2
(0.417285 0.291357 0 0.291357) 50 50 1
(0.715758 0.142121 0 0.142121) 21 21 1
(0.778897 0.110552 0.110552 0) 25 25 2
(0.739794 0.130103 0.130103 0) 29 28 1
(0.623089 0.188456 0.188456 0) 24 23 1
(0.0274313 0.486284 0.486284 0) 39 39 2
(0.835117 0.0824414 0 0.0824414) 40 39 2
(0.256871 0.371564 0.371564 0) 39 39 2
(0.0495259 0.475237 0 0.475237) 56 55 2
(0.0189608 0.49052 0 0.49052) 39 38 2
(0.482019 0.258991 0 0.258991) 9 8 2
(0.994306 0.00284708 0 0.00284708) 37 36 2
(0.843919 0.0780406 0 0.0780406) 21 20 2
(0.859627 0.0701866 0.0701866 0) 26 26 2
(0.571376 0.214312 0 0.214312) 28 27 2
(0.0633786 0.468311 0 0.468311) 28 27 2
(0.0300597 0.48497 0 0.48497) 35 35 1
(0.445371 0.277315 0 0.277315) 45 45 1
(0.04122 0.47939 0.47939 0) 50 49 1
(0.0223667 0.488817 0.488817 0) 31 31 2
(0.327023 0.336488 0 0.336488) 53 52 2
(0.589436 0.205282 0 0.205282) 44 44 1
(0.891723 0.0541384 0.0541384 0) 33 32 1
(0.759345 0.120327 0.120327 0) 55 55 2
(0.501074 0.249463 0.249463 0) 55 54 1
(0.0899501 0.455025 0 0.455025) 16 16 1
(0.61529 0.192355 0 0.192355) 37 36 2
(0.659981 0.170009 0 0.170009) 68 67 2
(0.590195 0.204903 0.204903 0) 47 47 2
(0.488061 0.25597 0 0.25597) 37 37 1
(0.493395 0.253302 0.253302 0) 51 50 1
(0.04943 0.475285 0 0.475285) 46 46 1
(0.132912 0.433544 0.433544 0) 46 45 1
(0.927677 0.0361613 0.0361613 0) 47 46 1
(0.494222 0.252889 0.252889 0) 20 20 2
(0.0910133 0.454493 0 0.454493) 18 17 2
(0.115379 0.44231 0.44231 0) 55 55 2
(0.977204 0.011398 0 0.011398) 38 37 2
(0.68401 0.157995 0.157995 0) 44 44 2
(0.281142 0.359429 0 0.359429) 64 64 1
(0.526131 0.236934 0 0.236934) 44 43 2
(0.484332 0.257834 0.257834 0) 36 36 2
(0.586517 0.206741 0.206741 0) 50 50 2
(0.421094 0.289453 0 0.289453) 40 40 1
(0.873019 0.0634903 0 0.0634903) 45 44 2
(0.385977 0.307012 0.307012 0) 40 39 1
(0.199185 0.400408 0.400408 0) 50 49 1
(0.568285 0.215857 0.215857 0) 40 40 2
(0.250302 0.374849 0 0.374849) 36 36 1
(0.79498 0.10251 0 0.10251) 50 50 1
(0.324608 0.337696 0.337696 0) 54 54 2
(0.434653 0.282673 0.282673 0) 20 20 2
(0.097304 0.451348 0.451348 0) 46 45 1
(0.38907 0.305465 0 0.305465) 38 37 2
(0.287111 0.356444 0 0.356444) 13 13 1
(0.450966 0.274517 0.274517 0) 18 17 1
(0.478003 0.260999 0.260999 0) 44 44 2
(0.244014 0.377993 0 0.377993) 25 24 2
(0.596376 0.201812 0 0.201812) 18 18 1
(0.726383 0.136809 0 0.136809) 48 47 2
(0.950922 0.024539 0.024539 0) 12 11 1
(0.390236 0.304882 0 0.304882) 36 36 1
(0.47113 0.264435 0.264435 0) 39 38 1
(0.576405 0.211798 0.211798 0) 73 73 2
(0.572353 0.213824 0 0.213824) 32 32 1
(0.964182 0.0179088 0 0.0179088) 57 57 1
(0.492547 0.253726 0 0.253726) 35 34 2
(0.00725762 0.496371 0.496371 0) 28 27 1
(0.036536 0.481732 0.481732 0) 49 48 1
(0.467657 0.266172 0.266172 0) 59 58 1
(0.386059 0.30697 0 0.30697) 25 25 1
(0.193563 0.403218 0.403218 0) 38 38 2
(0.763518 0.118241 0 0.118241) 35 34 2
(0.870394 0.0648029 0 0.0648029) 49 49 1
(0.581426 0.209287 0.209287 0) 35 35 2
(0.271313 0.364343 0.364343 0) 63 63 2
(0.39217 0.303915 0.303915 0) 51 51 2
(0.387447 0.306276 0.306276 0) 53 52 1
(0.821609 0.0891957 0 0.0891957) 36 36 1
(0.440926 0.279537 0.279537 0) 36 35 1
(0.824111 0.0879446 0 0.0879446) 40 40 1
(0.437771 0.281115 0.281115 0) 64 64 2
(0.28272 0.35864 0.35864 0) 36 36 2
(0.172286 0.413857 0 0.413857) 39 38 2
(0.825822 0.087089 0.087089 0) 30 30 2
(0.389722 0.305139 0.305139 0) 38 37 1
(0.72573 0.137135 0.137135 0) 31 30 1
(0.228823 0.385588 0.385588 0) 47 46 1
(0.885843 0.0570784 0 0.0570784) 46 46 1
(0.3765 0.31175 0 0.31175) 27 26 2
(0.9611 0.0194499 0.0194499 0) 49 49 2
(0.949761 0.0251194 0.0251194 0) 30 30 2
(0.798165 0.100918 0.100918 0) 39 38 1
(0.842115 0.0789424 0 0.0789424) 58 58 1
(0.0515316 0.474234 0.474234 0) 53 53 2
(0.453865 0.273067 0 0.273067) 42 42 1
(0.896032 0.0519842 0 0.0519842) 41 40 2
(0.440867 0.279567 0 0.279567) 77 76 2
(0.950843 0.0245785 0 0.0245785) 81 81 1
(0.651525 0.174238 0.174238 0) 20 19 1
(0.314305 0.342847 0.342847 0) 44 43 1
(0.19209 0.403955 0.403955 0) 38 37 1
(0.814442 0.092779 0.092779 0) 12 11 1
(0.919094 0.0404532 0.0404532 0) 57 56 1
(0.161404 0.419298 0.419298 0) 41 40 1
(0.39264 0.30368 0.30368 0) 39 39 2
(0.337525 0.331238 0 0.331238) 51 50 2
(0.348019 0.32599 0.32599 0) 44 43 1
(0.733657 0.133172 0 0.133172) 35 35 1
(0.942727 0.0286365 0.0286365 0) 28 28 2
(0.992054 0.00397283 0.00397283 0) 51 51 2
(0.358709 0.320646 0 0.320646) 47 46 2
(0.0344066 0.482797 0 0.482797) 35 34 2
(0.411868 0.294066 0.294066 0) 26 26 2
(0.710127 0.144936 0 0.144936) 24 24 1
(0.107699 0.44615 0 0.44615) 69 68 2
(0.634997 0.182501 0 0.182501) 22 21 2
(0.60505 0.197475 0.197475 0) 26 26 2
(0.598185 0.200907 0 0.200907) 33 32 2
(0.4521 0.27395 0.27395 0) 35 35 2
(0.736625 0.131688 0.131688 0) 38 37 1
(0.814287 0.0928565 0.0928565 0) 42 41 1
(0.00954655 0.495227 0.495227 0) 39 38 1
(0.463415 0.268293 0.268293 0) 25 24 1
(0.644221 0.17789 0 0.17789) 36 35 2
(0.0212834 0.489358 0.489358 0) 31 30 1
(0.456829 0.271586 0.271586 0) 37 36 1
(0.227929 0.386035 0 0.386035) 60 59 2
(0.583333 0.208333 0.208333 0) 48 48 2
(0.581041 0.20948 0.20948 0) 43 42 1
(0.399548 0.300226 0 0.300226) 53 52 2
(0.434354 0.282823 0 0.282823) 51 51 1
(0.692786 0.153607 0 0.153607) 20 19 2
(0.724777 0.137611 0 0.137611) 34 33 2
(0.105677 0.447162 0.447162 0) 58 57 1
(0.894672 0.0526639 0 0.0526639) 54 54 1
(0.474512 0.262744 0.262744 0) 56 55 1
(0.125469 0.437266 0.437266 0) 38 37 1
(0.175474 0.412263 0 0.412263) 52 51 2
(0.248734 0.375633 0 0.375633) 53 53 1
(0.920665 0.0396677 0 0.0396677) 71 70 2
(0.332421 0.33379 0 0.33379) 49 48 2
(0.994464 0.00276816 0 0.00276816) 54 54 1
(0.451644 0.274178 0 0.274178) 38 37 2
(0.0777887 0.461106 0.461106 0) 49 49 2
(0.0526729 0.473664 0 0.473664) 52 52 1
(0.569725 0.215138 0 0.215138) 39 38 2
(0.0589007 0.47055 0 0.47055) 37 37 1
(0.295912 0.352044 0.352044 0) 59 58 1
(0.483365 0.258317 0 0.258317) 37 36 2
(0.379147 0.310427 0 0.310427) 33 32 2
(0.752767 0.123617 0 0.123617) 48 47 2
(0.551173 0.224414 0 0.224414) 51 50 2
(0.423074 0.288463 0.288463 0) 48 47 1
(0.434435 0.282783 0.282783 0) 43 42 1
(0.394676 0.302662 0 0.302662) 9 8 2
(0.846369 0.0768156 0.0768156 0) 44 44 2
(0.0730614 0.463469 0.463469 0) 56 55 1
(0.821739 0.0891303 0 0.0891303) 33 33 1
(0.967123 0.0164383 0 0.0164383) 52 51 2
(0.673776 0.163112 0 0.163112) 38 38 1
(0.348518 0.325741 0.325741 0) 54 54 2
(0.70296 0.14852 0 0.14852) 34 33 2
(0.432391 0.283804 0 0.283804) 33 32 2
(0.516688 0.241656 0.241656 0) 54 53 1