/*--------------------------------*- C++ -*----------------------------------*\
  =========                 |
  \\      /  F ield         | OpenFOAM: The Open Source CFD Toolbox
   \\    /   O peration     | Website:  https://openfoam.org
    \\  /    A nd           | Version:  7
     \\/     M anipulation  |
\*---------------------------------------------------------------------------*/
FoamFile
{
    version     2.0;
    format      ascii;
    class       volScalarField;
    location    "0.00144/particle";
    object      dsmcRhoNMean;
}
// * * * * * * * * * * * * * * * * * * * * * * * * * * * * * * * * * * * * * //

dimensions      [0 -3 0 0 0 0 0];

internalField   nonuniform List<scalar> 
600
(
214.84447589062
213.126992750257
219.009960570317
240.184422993452
251.858432990075
238.096791782373
241.614835731358
229.352142640917
241.143835140563
215.206108678968
229.515458137073
237.500957915051
228.360081220271
229.670442859021
231.780694688543
225.873324789256
226.062643569315
235.295627326724
235.264798892599
231.5421288084
236.596087868356
225.365069993891
240.410034868656
234.142734864915
228.020363492828
218.626112728668
230.307819348611
237.287549911662
228.431772269553
239.111677877668
224.884941933029
211.904114842288
231.151603094493
230.519484957003
222.878795169332
225.73865378441
231.80794220303
231.542524292681
231.019204304964
232.923226518569
229.260278773295
218.517840505609
227.170930580379
235.54232364197
223.771710227659
215.507380000117
228.608386944402
231.21076378046
232.405563644987
225.858784865416
235.740009508358
234.901496976688
231.609229320565
223.038962859403
236.702068426873
237.211757876109
229.550571117195
218.362454182228
230.864153847228
218.873066768901
211.408656901977
221.99936775435
223.570966424334
231.133079372231
219.603457951095
220.268028270724
237.414354827986
226.023451892875
229.697794027344
227.48531878989
236.765843302774
233.76047861794
225.520995058975
229.568076125285
230.205550855467
228.217944723131
240.991816266389
249.513847592035
229.682242648286
233.97228403623
228.797422775493
232.878173647935
228.745258177434
222.552676733264
235.828192803237
229.455099854896
231.085074956803
237.561424167184
230.872160208781
227.534762445931
233.033677921038
223.12012881405
231.428487399765
233.640079397137
231.188032113521
207.232898432219
214.426149019217
204.564585860136
214.984846486036
230.577293104399
230.614697990287
225.353604461802
215.118727789143
225.016289973539
223.36966008947
221.015974617772
210.828412662999
208.227954406599
214.994158357245
218.186731830504
214.200603463601
237.607810424704
233.8425974891
230.48247388826
228.483128896305
232.645620057914
234.988288006705
235.336028282676
233.396102283366
214.16664965801
227.873886481952
221.096311967824
218.356204360738
215.363532027081
229.3695940073
237.738054394812
243.303563360222
229.753238032245
243.556500486313
240.974160472636
224.943037409791
227.273503861976
241.508844617595
235.374458854595
230.083671333316
229.848153327425
236.259947550449
223.837893731062
228.952148924408
244.879529536569
223.880802569598
218.079434744891
232.763296821222
223.84680926854
231.914936821865
216.179182555327
221.319848665465
231.943144749675
222.521122220274
214.936420873311
227.201460807456
234.793685635092
221.740032217713
221.982118364059
220.83976893487
226.356668342718
216.603797728658
219.362511490343
222.568702344535
225.780727769393
218.64307135377
218.969733431882
232.326814911019
208.554624050967
214.90615690619
222.257052306113
243.692398745212
225.122009541923
234.37402081471
229.170606741243
221.447090010961
232.581501911019
241.730736990982
243.054999924492
245.078710294345
218.710475979174
215.914487693393
218.167607194521
229.493329413335
231.26764684877
242.254304594663
232.638662068726
230.216439943867
228.585067338785
229.921817041786
241.555464220619
237.626550271807
233.464423425998
223.277097943746
230.102325605659
214.969367483051
220.990414007287
221.465788210614
224.990396503065
225.583362906731
223.942118380936
238.810887654559
234.866926607459
219.581104617094
221.127230143212
201.429340166771
205.129785997973
218.824106359023
220.622184892496
233.566351249874
223.421862616397
219.003235296453
222.266013896914
221.813643056261
210.837467042249
224.573742131245
221.203570953287
213.560938155715
202.760754749797
206.773919330179
222.839610558726
209.148880949019
217.705367723739
212.471439874894
205.634787707321
207.741147717887
203.064831767734
201.295123540358
210.257495844851
185.467507414403
196.263600120165
198.727903781796
192.083294113001
186.346666220344
191.199201071543
182.68442480275
196.357781554713
216.296014838769
203.665817498863
215.677792149253
196.022715195278
176.840090202497
173.439062266853
182.011065683232
165.941258878674
175.431449507999
181.980001831109
172.656932063517
161.194421322762
170.816375095011
174.50632282424
172.535192147689
170.370482227195
161.296860371006
158.932903247127
166.08621652448
152.287329314631
163.025790951346
153.027069775979
149.897164482931
152.929899165473
140.942106539794
145.60290420905
146.819110251523
139.427235168496
143.295735211866
147.90608112261
127.93545909049
130.437508454391
141.741114687199
149.876665895717
146.825191620053
140.580268510638
134.468879217741
127.881679936568
131.139766354195
127.666070338721
125.866737937529
133.564300806806
126.632067942293
132.774559741814
127.016038531688
112.087912897095
115.168051236107
120.367575813282
117.389107662945
123.994696235728
118.833399963435
112.578059337991
113.123906645577
108.794200678832
113.956309896505
116.373249943498
127.282405710678
125.805183590603
120.022099182174
101.81041397237
108.717785354841
109.973795424101
117.594152703735
109.89051915155
110.232054192043
112.379257263607
117.821389519797
116.295998575575
115.93583192507
123.13369697854
112.170409407677
111.591651247898
112.797275971077
114.545152338525
109.986685095851
114.529570766238
104.744442603686
107.735880127661
111.303048056564
123.728284272727
113.866176095651
112.913889257824
107.294867167748
114.979241075453
110.977769058078
112.553569847982
115.26922315961
113.849133137714
114.21454553429
120.77882783915
115.381990041428
111.176202123707
112.68752260394
107.01147638623
127.986454134925
128.449111662124
110.43512098701
121.681059181987
119.650450541957
119.618628071599
131.135767842139
124.203545442795
106.95769809386
114.578609516522
104.59736451196
113.241877861349
109.768187448313
126.17106200022
108.410949077288
107.367055420065
120.441909469782
115.74745327304
113.99219379394
115.414148744576
120.106025860936
124.063148226369
111.477144818459
112.333483380348
122.697544276158
126.05928497455
117.242340383998
121.223606884671
123.128362263992
138.688091004587
141.99792382537
153.319527612421
144.899330632233
147.44196224548
163.343325612863
166.576925957972
164.704219068204
146.23301967548
155.71483612352
158.37265327142
158.817287154636
158.045116970047
142.298442653478
147.938928606299
152.961247768295
168.156233424113
175.144119653254
171.191020087361
169.245731705896
155.376234205122
159.993406472797
156.049944038033
162.391767809475
151.835068266016
155.605764054794
169.467639299569
164.369163392418
158.266456012294
154.434903627588
161.843266682548
164.28767049914
161.582288345148
161.26110225263
155.710542943028
151.097964908572
164.261200946129
162.694639663764
150.762185445172
136.492420300891
90.1536997035225
65.2106792458712
63.9861285063109
66.3549769515018
61.2854328580595
70.7172183539574
67.5805711352607
60.8879868485008
66.4717159053755
62.8279348540463
70.5842844069144
59.6886692314872
54.8498214147566
64.1496929358937
57.8620072865289
69.4248787554199
65.8665950733865
68.5951946407867
70.2439294414767
58.4287253839826
60.7820489028542
54.7277158589921
64.8605681350365
79.4395233790461
63.6727689831521
61.7340834456524
65.3979752822459
86.1691544461772
66.3357148264023
64.8856042708924
65.4044491620907
65.3812586887482
67.1820545431968
61.2349097002203
59.5767102526293
57.1218421337913
61.2118663031005
66.6423259582084
65.8399524344918
70.72002048202
67.5260588113493
68.9756150535678
80.9361530739245
63.4712631771969
65.0107107397684
73.7323425676543
71.2108537900566
61.1294243631379
66.5523649521308
65.0176519506773
64.7440280771649
75.4084199309515
66.2930751049779
67.3616964479873
66.2494737946426
68.138444073752
73.2115376628109
70.8713315967263
59.5722899389079
61.0092598362928
70.7273321881243
63.8828196147388
60.7673218744484
58.6004705646041
65.3980709285052
66.5648701346506
69.4600564707623
69.3299131461274
70.3428301798098
66.1308572444802
71.3615206449629
62.3437398233017
68.2663515374646
72.031282117652
57.9733660665095
62.1988529360936
72.3049651324436
69.9862625467388
60.7298750894438
72.5660303674061
61.5439453290501
58.712057157384
65.1579970222115
66.4772124102027
69.2530428727859
70.7980844688628
81.8385077166342
60.840617007812
57.1372356652692
66.9963595501436
59.5628854922335
60.9157053734169
55.9843937907799
64.7147770493234
63.2433351641822
71.9714726897448
67.6185953369669
70.7550745278399
75.5640998069742
62.6000519316582
58.2027095332278
64.5915528994404
64.8215691337647
75.0561866021526
60.4171969783782
56.616130172672
61.5749092940297
55.038303237924
53.2213572301984
65.4015283522107
70.6817506868635
62.4964793442643
58.2757096443439
64.355300412543
68.0645633898004
74.184073477832
60.7932068989382
74.9581438333161
63.6595424047395
67.9133295320517
67.6000165549503
69.0015267494507
68.8431905806565
66.9364237540865
58.3847126225474
65.0693004823157
59.6689022467563
68.7989090513375
71.4388221448368
67.5454729235045
68.1855477427415
70.3548383773586
67.7571863698838
65.1693864247671
54.6174692836126
69.7042810015389
62.3923595193661
62.5617092448505
66.0685201802325
71.2463439942556
71.3163013308661
62.0430931214685
66.5103960956043
70.9749940367162
58.911482526779
70.7290015892556
62.3373117437584
67.1300535657973
65.3291827615354
72.8042075232064
67.6713800186033
59.4156589530402
60.7546707312781
69.1848682623065
72.7828319607656
62.7062474581295
70.772470131462
66.1665668919129
68.416004997478
69.624285493165
68.545641906015
68.0784502560625
75.7646441109117
70.60992039938
64.1650259329506
63.8441836591182
65.1302524149704
61.4013443019811
58.9658254118074
65.6387458349972
70.1984506360121
68.8993865958085
65.7660873409439
62.7325739646956
63.952760519561
82.2754923021135
75.5449807811027
60.5405553997254
69.1914770502425
80.3400991653009
69.8357175205139
65.4729037523575
74.1931147337414
66.1906957983261
62.0293130482728
64.8383710212369
59.098545343233
63.7885546190753
58.6321110373798
62.2836776877023
57.7688898760254
64.4197025506024
74.7985805292395
66.9944627727011
77.0284877476809
61.336092378935
68.3049918462556
66.2407577732714
65.995784760812
63.0575987994427
71.7886459442832
68.7029600844511
73.7229260167046
70.6661693209159
74.4299240887682
)
;

boundaryField
{
    DSMCSide
    {
        type            symmetry;
    }
    DSMCBound
    {
        type            calculated;
        value           uniform 214.84447589062;
    }
    nullDims
    {
        type            empty;
    }
}


// ************************************************************************* //
