/*--------------------------------*- C++ -*----------------------------------*\
  =========                 |
  \\      /  F ield         | OpenFOAM: The Open Source CFD Toolbox
   \\    /   O peration     | Website:  https://openfoam.org
    \\  /    A nd           | Version:  7
     \\/     M anipulation  |
\*---------------------------------------------------------------------------*/
FoamFile
{
    version     2.0;
    format      ascii;
    class       volScalarField;
    location    "0.00144/particle";
    object      dsmcRhoN;
}
// * * * * * * * * * * * * * * * * * * * * * * * * * * * * * * * * * * * * * //

dimensions      [0 -3 0 0 0 0 0];

internalField   nonuniform List<scalar> 
600
(
216
203
222
257
238
244
242
221
244
214
233
237
226
231
227
218
237
252
245
229
233
215
231
245
221
215
226
241
235
228
228
209
216
251
226
212
230
242
236
233
239
209
241
237
218
210
218
247
230
202
240
259
234
213
232
251
213
198
247
203
228
226
204
237
219
223
248
218
225
232
238
237
234
234
234
251
217
241
221
226
222
220
248
233
249
224
230
235
218
243
227
229
227
248
238
191
208
213
224
215
232
226
204
246
229
207
204
212
193
226
213
266
224
231
238
212
242
239
235
204
230
228
221
227
213
248
248
202
250
237
221
226
238
240
242
233
252
223
232
250
214
194
249
211
237
214
222
238
225
217
239
240
207
198
237
235
207
209
236
241
204
208
235
221
214
214
244
214
240
235
218
236
240
238
246
226
211
220
235
233
263
241
225
205
231
243
223
233
202
250
211
230
229
231
207
220
248
248
215
214
204
204
216
225
237
216
230
218
220
206
230
219
206
196
210
218
208
217
212
218
192
205
190
229
173
196
204
167
176
199
174
189
223
199
211
201
185
165
168
164
189
184
184
165
148
166
176
170
153
163
158
157
167
144
138
160
139
139
150
143
145
149
125
132
137
128
159
151
137
117
123
131
126
135
121
141
127
119
99
123
115
133
114
112
124
99
118
100
137
127
117
116
101
108
117
114
108
120
111
111
112
122
119
119
103
115
98
128
117
97
110
117
110
121
107
114
106
123
113
115
107
124
99
111
124
100
129
147
100
118
120
118
148
125
99
118
107
116
98
132
116
97
121
110
115
120
123
124
108
107
120
138
109
100
123
136
145
143
141
146
155
156
193
158
153
150
153
163
133
123
168
165
182
160
176
171
158
149
161
153
145
171
179
153
161
150
168
157
161
163
159
165
176
179
184
139
73
70
65
65
68
73
55
70
68
62
60
55
66
63
54
75
67
77
56
65
48
63
87
61
60
71
78
63
66
66
66
75
56
58
59
63
61
65
69
74
69
83
67
56
78
70
59
62
74
62
80
70
70
63
61
72
66
69
68
63
68
59
52
66
70
65
65
71
62
77
66
67
75
54
68
66
74
53
70
69
63
61
69
73
70
82
59
56
62
62
66
52
66
62
72
77
65
75
60
62
58
62
75
66
48
62
59
61
60
68
67
60
66
61
74
62
80
62
68
74
66
68
69
55
67
53
68
67
72
70
67
79
63
50
69
68
58
63
71
80
54
62
77
64
70
61
67
60
69
69
66
63
70
75
63
66
69
57
72
72
64
75
74
78
57
62
63
65
61
64
74
63
58
67
89
63
66
73
71
75
66
70
74
65
58
61
65
52
77
58
63
69
67
74
65
67
64
63
60
75
76
72
64
80
)
;

boundaryField
{
    DSMCSide
    {
        type            symmetry;
    }
    DSMCBound
    {
        type            zeroGradient;
    }
    nullDims
    {
        type            empty;
    }
}


// ************************************************************************* //
