/*--------------------------------*- C++ -*----------------------------------*\
  =========                 |
  \\      /  F ield         | OpenFOAM: The Open Source CFD Toolbox
   \\    /   O peration     | Website:  https://openfoam.org
    \\  /    A nd           | Version:  7
     \\/     M anipulation  |
\*---------------------------------------------------------------------------*/
FoamFile
{
    version     2.0;
    format      ascii;
    class       volScalarField;
    location    "0.00144/particle";
    object      internalE;
}
// * * * * * * * * * * * * * * * * * * * * * * * * * * * * * * * * * * * * * //

dimensions      [1 -1 -2 0 0 0 0];

internalField   nonuniform List<scalar> 
600
(
89.7010462056821
121.655097250146
122.304349271838
115.664450365853
106.459783751077
115.261691653912
111.980919381386
122.853812857186
107.469354932869
122.325833672698
124.382345304468
142.500162963911
115.277737810606
107.63377626426
106.142833345365
112.378748383898
106.812232819139
99.2262927891842
109.79742712275
105.610700475545
101.079149582741
134.430078802929
103.122982426989
125.537397727684
116.799352918645
112.891201104591
109.755859523358
106.739811534529
106.365413546667
112.760916026368
115.466371179549
128.233479016693
132.615823177138
113.114856323763
119.230422776434
112.649981757606
115.486178948301
123.661883426172
126.091276093578
126.553912342401
113.393443406019
128.598265520358
109.834710146616
119.918522870729
126.500923976748
101.984996563407
121.016358844336
128.491665682273
110.861932278593
103.735146391079
119.741053221886
107.813751899907
111.645284683284
101.35466779092
96.6691160045367
121.626759915628
123.783854949222
115.582913725053
116.592401175429
99.4880851081212
121.863615918509
116.986824896927
107.166752395756
118.895820310637
120.172183529899
109.434531415776
101.879119111554
116.813157759593
118.348136688998
104.559745027633
126.757880222717
97.1990223083158
129.529847953255
110.790732135672
121.14813764877
96.97849036221
113.466190567113
117.879353655171
121.784080246556
106.826734551859
131.6910826697
112.86006548349
105.49285730176
106.968890748049
122.938885915552
113.341596646205
116.211795495214
107.569569556638
136.608790802497
105.890419168431
114.290902612294
114.163469580878
125.558153703538
124.746072802391
113.761812936119
97.6394305987487
117.415243283983
104.287466773811
105.246305611997
135.421956376017
102.007510481531
108.758030996101
106.107081829366
99.6770105342816
115.253410934536
113.648383786796
114.338335628483
99.0372130117014
102.012475231464
81.7865422478077
124.711856508862
116.572421918178
110.615868650698
120.004959452848
124.154490137575
124.201914182773
123.098195494481
110.208058825194
117.120121390501
108.85445677596
97.8431078828802
104.038285193423
105.534959916635
104.192069292522
113.122819737972
106.1030204496
129.580196097342
117.821675034386
121.53017139721
112.984308011727
98.6985965977989
117.75133471728
110.803982850124
109.452969150719
105.941683249907
101.197896217643
116.4166715109
127.837582157291
122.115283778141
112.419952023282
135.699108754891
121.730796242032
107.845677169022
121.195554000867
102.315382063317
107.120210719332
127.260172466697
112.053364869375
112.028140851129
92.7067422420278
107.26688203645
110.706069151275
99.6190116896417
137.776557092121
111.182108882974
101.811047387654
97.561634342619
104.322903014862
114.510235151124
97.370011540156
138.000534975272
113.520073700488
112.971879007456
129.883948477828
111.110599253118
118.966270241197
106.323331560445
104.296504598007
118.778842807976
97.1930872579568
108.489825738411
111.86364635651
101.04038090223
96.2842957596448
120.650255911375
100.976622395116
111.561496037207
117.975979751933
107.682680411672
98.6092419469173
118.128136259064
120.814667213466
108.151646511652
123.223844475702
114.9294246941
133.180237625269
114.632034944754
115.358967071675
112.039962164902
94.1515925323421
101.736294405732
108.784657319428
110.349800665901
98.2465736305727
113.035282159977
118.940862939258
108.452949553818
115.207868086512
116.493444649077
130.612279506499
114.74050729871
108.99073026549
98.7118021349488
146.468377470282
99.9193269473773
104.364364284065
102.78328877658
107.89765153372
114.144000744436
98.2636534512867
117.161334769383
93.4563462375935
91.8076044767489
100.767313571048
105.139451820635
95.4842440367779
113.771027657116
90.002356874876
100.616844061131
111.452137890339
84.7683001249045
82.9030186028918
88.6982779346052
98.9885550153576
91.9939241645347
100.485320114889
83.7810291392848
83.2222796326893
89.2159811850978
100.43851576346
97.2027002192162
84.2745725588831
89.5305354882395
86.8114000987052
105.679997255436
80.7853733262148
79.1448110791065
81.9977846845679
93.8668821993408
79.7286489427191
67.9580310055519
73.3449529219703
84.2946778523368
77.4204733718421
68.3446706617623
76.6342296760206
66.8590099689545
80.2591218846781
78.0507788346931
69.4196956403995
78.9060962210599
53.8280042990505
69.9631114864654
68.9357875287561
55.8033661413992
63.583420530134
60.1223604510523
68.6461732164706
61.3557709430855
63.571710103677
54.7640073374142
57.5087163364082
57.9300762447389
55.0789343049747
45.1533333653222
56.5156834047876
64.1984671938228
58.0820675930761
54.1277452003122
45.6991868029353
45.6055207051942
56.8877445383439
45.7582274774549
44.0936558232255
52.0324357817245
44.5472282747724
43.7782408879988
58.6731529470076
43.8147424927977
55.5678591807286
38.8510922013058
41.1736876654708
48.6441024758936
41.733177421354
42.9119894443912
44.3594885507524
41.3441419680797
43.4301756716161
39.4408548325245
53.5351032699391
54.4382316681151
43.1760180302067
33.7149697116835
36.5174810525546
51.7724187355383
38.765353413413
44.1753276553095
43.7347651849297
50.4012248723457
43.1206855934283
43.7375520631283
46.815549668371
42.1366296796802
41.1142147911157
42.8915189470503
44.831822285521
35.5408542512374
44.9989557343632
44.8966754459423
39.9752279381603
40.625446073235
58.0644504104472
36.5760978635118
46.1691033748142
39.5942799623409
45.600512855679
47.264274755997
39.9096615629455
40.2768915458687
38.325730072185
50.7521407401367
48.1289599128702
48.2462191367218
47.9574167813665
33.2874605597771
35.0736925928489
46.4671961304909
46.6048215567122
42.2749372187232
36.8652197315043
44.7727556500514
47.694962252442
44.5361384184657
38.1745439575756
34.9095505682632
48.1737603711435
51.7390231549296
53.9114742600368
48.6176889613056
42.4713995529897
42.1708823992653
42.5546373056084
48.6479467369655
41.270110385697
41.589573987806
31.9671083674091
41.7873921858183
35.3691760551701
56.7454900239931
46.3313203169032
48.0155442578592
40.6523081972706
35.9325902865831
47.6520371799944
46.8969746531099
42.4680338446133
41.6426442132727
47.9094945562926
43.7730362140034
39.7034218419259
49.0657051790219
47.5408023166557
56.0516489627249
43.4874526221322
35.2233010494198
45.1344595665409
46.3656519843682
31.0704499958595
45.9854951024138
42.7984380581315
39.7501314671009
38.4255815982497
40.757993990722
43.6721580740726
48.3758982254378
37.1944140952561
38.9888628519357
42.4937842549359
41.0975695332357
42.1268405870353
36.9937665657097
39.9742802389799
38.8515520982523
42.6289911163426
41.4594755375793
43.1389642200779
45.8568269404469
40.8915826902326
40.634849671687
37.4539136071993
40.3399981561889
48.2844794165764
42.732275584538
44.4676044138473
53.0695600488461
32.0637629103638
11.507367833179
10.8683776310779
12.4990509610236
11.6436951568214
13.6536673235938
13.1958951822655
11.5568925471071
12.5255154739303
16.6149276111146
9.40928585007846
10.3538025359513
11.2086227583192
11.2471690587858
10.2012395039765
10.9512069942402
9.41667798683834
13.8893001126184
15.1538098203382
8.35436110148058
10.8130285015337
9.53801495197114
12.2092697844087
11.460709722558
11.4754997424935
11.3362106322625
11.5576538010974
10.4495501460238
9.8678402757717
10.0989761771506
9.76058297933414
11.1818259331043
8.11520180078329
11.0391158897897
11.3499713051492
7.74472945014515
7.44872144893339
10.652040415085
10.1148515318571
12.1432381830895
8.93309266606215
9.72655970758218
11.6775839006923
11.2880469923205
9.56410136669042
11.7314082844947
12.4386552757276
16.2820357153734
12.7308112364638
9.32427779438726
11.1848774712757
9.63773032127389
10.2325105356266
10.1181396557174
10.9508274160126
11.4754493902296
11.8563186104086
9.33855399282352
10.7740286539784
12.1217060374165
9.61837294717098
11.5131048401754
11.3400830965473
7.35852832064562
14.8618264881707
9.22261546248383
10.7374592067276
9.45244235992809
10.597574563952
9.78378097652697
13.5058218267
11.1047274337743
12.025400109895
9.20792421571621
9.56909736782519
12.9196478877957
13.1092507302119
8.16508851436115
11.2718650848738
9.53517762418449
12.2805245280506
11.8970994682008
8.76058967847358
9.82615403653511
11.9432588299452
10.2716556774747
11.8684756662959
11.347944674966
12.1668041794117
9.55018418510418
12.6870431222942
12.8643137608946
7.39283396412603
10.3892469927041
13.3955257378621
12.5074465311145
10.8318602412706
13.5644522813175
10.1213362897124
10.4060161383963
10.8309984057206
13.9896497527789
9.39809161533375
11.6526615709607
11.6199808919668
9.87582843230036
10.4183370073695
11.3871852816334
9.92337789648593
12.578216753957
9.29034279577864
6.63094501395932
11.8655425290057
10.9781237218699
11.0155493005662
11.0549910669526
10.5807235321815
13.1353213501058
9.7557172425101
15.5527916349659
10.5281555360394
12.9515946342114
9.50995539840699
11.3563617564524
11.489452328985
10.2124024519504
9.91698824976585
12.4313247297868
10.6834969866835
7.9770456851316
9.27412556612234
9.50580613734309
14.2980904601975
8.41151154625657
11.1423664845112
10.6871262977546
9.46893933939963
10.5375558664563
8.7929354208605
10.3242685952127
9.84732665624573
8.91913341182465
10.1825999158422
12.4383292030677
9.39908725583727
12.187387152376
10.712951025234
11.1590982256762
12.8988627232097
9.27542392245344
11.4864043648533
15.1201008565663
11.9284926294947
9.31322344904248
8.80082095773809
13.9739084249826
8.69527296635046
13.8028096467068
8.11648357962216
9.62171874170892
10.7017020680301
7.71921110150853
11.1820871085682
8.64151821262664
11.0056937060141
15.703922948751
10.5339213767629
12.048617859099
12.0562229007801
12.3127522718734
9.98535770504627
10.4884024283287
14.1678876128458
16.0702466333502
8.71194605098774
10.9309419319699
9.72327323356017
12.9105367790104
9.08619772982676
9.91120486220425
9.55914998917226
9.94067886751502
14.9536639600646
9.75745031818153
14.7052790537962
15.1560982650852
13.8504875510599
12.3647508352306
9.21552550126634
11.9062107185239
10.9170337797569
9.67204692220727
9.6605399389688
11.870066561974
11.3844476715856
10.4317562757514
11.0190365974627
10.4535889512899
10.7217513126556
10.9925367140048
12.5505288004165
9.29707169399668
12.7114544185134
11.4553858494107
15.4195757156811
)
;

boundaryField
{
    DSMCSide
    {
        type            symmetry;
    }
    DSMCBound
    {
        type            zeroGradient;
    }
    nullDims
    {
        type            empty;
    }
}


// ************************************************************************* //
