/*--------------------------------*- C++ -*----------------------------------*\
  =========                 |
  \\      /  F ield         | OpenFOAM: The Open Source CFD Toolbox
   \\    /   O peration     | Website:  https://openfoam.org
    \\  /    A nd           | Version:  7
     \\/     M anipulation  |
\*---------------------------------------------------------------------------*/
FoamFile
{
    version     2.0;
    format      ascii;
    class       volScalarField;
    location    "0.00144/particle";
    object      linearKE;
}
// * * * * * * * * * * * * * * * * * * * * * * * * * * * * * * * * * * * * * //

dimensions      [1 -1 -2 0 0 0 0];

internalField   nonuniform List<scalar> 
600
(
146.896817785401
162.745666341264
166.395340095256
170.576802296246
164.496351346224
166.176828475933
170.255546841117
169.232024419879
167.346005916025
177.765354881092
162.220150787823
187.528509537682
170.765785923112
158.915899252633
172.003019383466
173.415058151629
181.795676482386
159.957756126363
154.94375103337
172.315668353167
202.514013623449
192.469000886965
182.244187444593
176.322896968018
161.957944080714
196.332895099286
167.823559792813
183.712333750285
163.448727717603
172.05695949161
154.382365102169
158.147083615594
182.438193464122
176.504617545155
174.763417505246
173.825417241057
165.217263958454
184.237759577106
182.969037403295
177.204090460123
187.288420110139
201.391064816851
172.6870220414
171.61162220706
201.112517047975
163.425241834853
189.530175902203
167.033572894477
164.683882675575
172.13831905799
177.262445567161
165.666410375157
136.089003033592
164.059946169735
161.525950816068
161.581882991415
175.106516860471
167.358064578437
175.835646243849
176.9281111512
169.993867124264
165.145216150636
154.703329628344
163.018055548191
196.329117412503
179.924461982558
171.756249139801
182.800855558048
172.277096137087
175.963313533314
177.7265169177
177.945041907988
183.40888768574
168.693644950604
175.968840651122
168.54805332286
176.373657121472
174.473961073956
160.76665921638
156.840063466788
178.087447063455
177.72173432702
169.520455235381
140.055636493157
183.574804325951
171.145224895861
185.44583785264
162.977476483108
171.828562710656
146.956259025113
167.579681420792
171.5885975999
190.663680288809
168.55355982795
172.164639394337
163.269487417983
197.643671925445
159.178390416735
142.239874901862
168.182654234123
161.253678078624
163.621383826531
182.798031417373
152.073657528357
167.021783199832
167.388276128327
180.061597286451
163.698052373131
163.00043780698
143.963410840611
183.717606971467
160.015155210011
150.050642703105
182.216061135372
190.2193759519
178.222602583286
196.53228502607
180.622667616228
167.773863455919
178.452462992109
146.189448164447
165.296170255524
148.850026363693
175.698680424037
176.428596403793
140.275114653999
195.92994497089
152.85037075254
184.183576857931
169.691130441864
161.778934387448
181.406597699151
156.109440062272
164.01563947472
181.91140090489
157.703813747355
161.474346365676
166.733647722165
179.782156500971
157.387039088479
207.316411698525
183.982616630535
154.260402714614
167.78100175928
159.058982757659
177.70165941559
205.065103362206
158.557449295309
171.974570240112
147.413856069228
162.414788715769
158.26113031579
158.512929576759
189.606350878142
169.242595930937
160.356896379009
153.38975055289
170.155850652133
185.855107713102
151.068965001269
197.563593860111
161.916211461942
172.643850052817
184.911949919998
155.66753950571
181.84185653071
168.819237338307
149.966637097269
185.76978415527
145.39978445548
161.62309215306
167.896363086997
191.480895759883
159.935539348121
166.771128697675
160.87685567527
165.234715519722
161.562278353431
156.003538413505
168.052655817939
176.550778758695
170.950304639899
177.61841544613
169.322956190798
151.680807375162
173.694805049758
164.703561229477
173.840378678131
170.429873837316
162.834379068483
148.910519217919
188.474888723791
153.218136566375
163.822640528996
164.577778773757
177.036492082972
160.833212607949
185.088268039767
157.615262001406
153.828839880269
166.568308437673
165.282403181409
161.357247236734
185.793200241574
170.902533642006
140.820752329084
181.441940372475
163.86307292203
158.974696268281
163.501080012873
177.16188229053
173.265998075732
142.356919870121
152.171889121116
147.24033214851
133.519143048088
140.30617339124
145.360235673176
162.48951201823
169.991941791434
129.168111091601
140.286530897539
126.211141590135
141.287645605177
134.251969237872
149.126499877309
164.094814580289
123.920219410756
146.360891929208
153.439362466729
128.821103214123
144.637281761585
113.942180555929
117.671045083262
137.898143905308
136.926674880352
109.445041316425
136.397600135021
129.619936712025
126.064649124745
108.677967135029
111.660332077157
119.788167060338
111.145131868705
117.803345812199
137.321830550552
113.276694733282
97.7265846077658
108.412153794374
109.907585286446
111.982857814852
87.8711373054083
113.359196764028
99.4494149457735
93.91294793687
94.529182246203
106.883250680756
107.28531025418
101.20947821522
96.4864015482685
99.1618943042298
105.948972803446
99.0561304020655
107.089808607747
81.8615995021406
87.3236184798917
113.085303563922
99.1363402842761
94.7716053685782
77.9355147134922
81.5970011475161
89.0936244045091
80.1215736142999
80.5033518959449
87.4011062050241
76.4750635195193
85.2975372497214
96.8009193311231
71.3791775780634
78.5551207253525
87.8010956665289
74.7337781856011
102.506898238821
88.9528975970332
90.2507914817272
84.6627688140145
65.2380536334281
87.2225375790949
82.3746874143138
100.240661673668
85.4450455420219
78.7230191111631
63.8025566605473
71.0880340412054
86.4729160330382
74.6704073412746
80.9640489666269
82.867209592072
98.4921569407457
89.4171573948741
75.0365784373673
89.2339586069126
82.1657288544711
62.0820490742823
74.6318043377217
89.7705182992682
59.3152110158531
92.3590339047844
81.3105324628586
77.1599834015183
82.239617070402
90.4541117235371
68.434123488471
81.2076049817196
65.3401477553766
84.5833834655741
95.9825840541947
71.6297705920619
63.9888960625751
84.2166783871105
90.1316916821581
86.2970048325404
84.4935187723981
75.0296844775489
81.2204701522717
88.4222859563516
74.3401800745369
80.4199009077228
85.1823990559487
71.0086130138658
102.242302954752
86.9433779781483
86.560526609693
65.2573684288314
66.7497664443891
107.103853030654
91.3305658712339
79.255434046641
85.6106654221667
79.8965770525716
71.4123729193633
79.1689077625034
87.3248917291239
75.0476422503592
77.0890879140696
74.802502252449
80.9026891744642
76.5467604444514
91.7442383068379
86.0870355512983
80.5940716080643
86.5838870728793
77.8835042912758
90.5707678405766
97.9919368362856
88.994659945265
86.8555247181605
94.4507438602574
83.4988024366972
78.2872758268593
92.4582587408026
98.4317673190223
96.5040245059171
85.1130159418144
69.1477826582469
90.5802747849758
87.550200756636
80.8024540398405
72.0793851519726
89.1896113694803
76.2046623680865
89.1250219920138
83.9093210959514
89.2667540413649
95.9922781206595
91.0097826225405
78.0633234912306
96.0416249363487
81.5247347210833
71.4809388546345
75.3444140076242
91.3707891128992
84.1690771876492
84.6109049688798
92.6733854554337
88.0606220191763
94.6363071730999
92.6665517924811
93.7469918758532
78.170212608407
85.4382090299556
100.496994184737
86.1458520008589
91.2424091605584
93.9298325556616
64.8663602088362
20.2712880356796
16.750024163733
17.7124944416644
12.5724155248776
18.9606132468457
18.5668870294509
14.7211367260829
16.8176551301086
16.8438290241479
13.9134082492882
16.0258553176021
16.7656497159359
14.5930376331829
14.2356883973701
14.7102668681754
13.6703384748707
19.803853268936
19.8014547816286
10.9667803088067
17.2874409381658
16.9109998173233
15.7887052523011
14.497298346253
17.2776957665601
15.1998005534293
16.5729910235396
17.6651018403645
14.2650225627927
13.7332015848941
12.5879507421972
17.337672379879
16.33987989618
19.6835383289492
21.7049636016722
16.4031333990019
14.9252343985025
12.910564043839
17.7016147216276
16.1023661192331
18.8324504305232
16.9694193030884
12.9738209921002
15.0226031291251
17.8564995566338
19.2192475189277
15.8928682850007
19.1356572022214
16.0717062671697
18.0646329949083
18.7806188166164
18.3621768894136
15.5067233321772
16.379301441056
18.9499503458914
15.1312576508067
18.4767722627407
14.2640018069458
17.2219554539384
16.7513902792486
13.6742994247925
17.3612267961009
16.1312037630107
12.3714021166644
18.8995192736974
17.3838759307017
13.6502161452546
14.3561828781825
17.1639286957398
21.7619840384321
16.3538950332243
13.5226458705556
19.9109406895029
17.4971274994865
16.6667764643226
17.5607872437166
14.3558272460173
11.9675002547312
17.1589250270795
14.3201367900172
17.8474120906013
19.6255793165741
12.6472668122729
17.883272783535
20.3018102762732
15.3617528506329
14.6826420124933
12.9889949177109
12.8431902736282
14.5272951928975
18.8447322734322
21.8407961282013
14.6023833480211
17.3454387869449
16.7984033355028
15.4887220139195
17.724729899598
15.6617110705861
14.9417645967782
14.2044578046645
19.5508162409996
20.3072652568757
13.5459473803052
17.0346457280164
15.9643765365007
13.2869278939775
13.0053105509565
17.0758746189289
15.0313582765657
19.1628482870666
16.6113237094445
11.5832938314743
16.030329328395
16.2293880831346
18.3940655117367
17.9541068912291
16.0941546708603
17.7466732868348
10.5708385287684
19.533435063409
17.3099852393125
17.0873479066056
14.2182630109076
21.193693607753
12.5263759801234
16.1500551762606
17.4115770163141
20.6569520319779
14.748491388661
15.058705909114
16.8830181362917
12.7099786354571
17.018189306433
16.2664493297399
15.930215485799
19.7618837036406
16.7895340677156
19.6143059854838
18.1213552268013
18.9795453116602
16.3925272693586
16.0448115807898
19.6944671636554
22.4969490703724
18.7851703871443
20.6225535188414
17.2746917903414
15.7962626402022
15.9966503674545
18.3188372958197
16.7564227028137
18.7360291463278
17.2385976468179
19.3408921173115
17.1303982314626
18.4405818771426
15.3387152711558
14.8252534463918
15.9441976668142
14.4089025466456
22.1114159690038
16.2063087069065
15.2688646242813
14.6704435801588
16.4640693935431
16.7673288645624
14.922881470373
15.2938015849668
20.2060641149843
16.2279388059259
17.9140369640876
14.6108403780199
16.1814299018161
23.9747565133756
21.3867705212725
16.333034698138
14.6536881558868
19.225708874991
16.6571254164132
18.2041600526397
14.999120023437
13.4351481539458
15.4778407721899
15.0883963182607
16.0645570869352
18.5999086859018
18.1432469489295
14.0985129608844
15.0419800576014
15.4440504779214
16.2490944054488
18.0393521131936
14.673927382058
18.5761063178787
17.9459886631985
15.5359054107413
18.9176545956168
17.1013240644499
17.3910620152888
19.8692774119412
17.2735533197511
15.7198744783306
22.3541885000997
14.4285852369132
18.0469148502713
)
;

boundaryField
{
    DSMCSide
    {
        type            symmetry;
    }
    DSMCBound
    {
        type            zeroGradient;
    }
    nullDims
    {
        type            empty;
    }
}


// ************************************************************************* //
