/*--------------------------------*- C++ -*----------------------------------*\
  =========                 |
  \\      /  F ield         | OpenFOAM: The Open Source CFD Toolbox
   \\    /   O peration     | Website:  https://openfoam.org
    \\  /    A nd           | Version:  7
     \\/     M anipulation  |
\*---------------------------------------------------------------------------*/
FoamFile
{
    version     2.0;
    format      ascii;
    class       volScalarField;
    location    "0.00144/particle";
    object      rhoM;
}
// * * * * * * * * * * * * * * * * * * * * * * * * * * * * * * * * * * * * * //

dimensions      [1 -3 0 0 0 0 0];

internalField   nonuniform List<scalar> 
600
(
0.000401759999999999
0.00037758
0.000412920000000002
0.000478019999999995
0.000442679999999999
0.000453839999999999
0.000450120000000002
0.000411059999999996
0.000453839999999999
0.000398039999999999
0.000433380000000002
0.000440819999999996
0.000420360000000008
0.000429659999999999
0.000422219999999999
0.000405480000000002
0.000440819999999996
0.000468719999999999
0.000455699999999999
0.000425940000000002
0.000433379999999996
0.000399899999999999
0.000429659999999999
0.000455700000000002
0.000411059999999996
0.000399899999999999
0.000420359999999999
0.000448260000000002
0.000437099999999996
0.000424079999999999
0.000424079999999999
0.000388740000000002
0.000401759999999996
0.000466859999999999
0.000420359999999999
0.000394320000000002
0.000427799999999996
0.000450120000000009
0.000438959999999999
0.000433380000000002
0.000444539999999999
0.000388739999999997
0.000448259999999999
0.000440819999999999
0.000405480000000002
0.000390599999999997
0.000405479999999999
0.000459420000000002
0.000427799999999999
0.000375719999999997
0.000446399999999999
0.000481739999999999
0.000435240000000002
0.000396179999999996
0.000431519999999999
0.000466860000000002
0.000396179999999999
0.000368279999999997
0.000459419999999999
0.00037758
0.000424080000000002
0.000420359999999996
0.000379440000000008
0.000440819999999999
0.000407340000000002
0.000414779999999999
0.000461279999999995
0.000405479999999999
0.000418499999999999
0.000431520000000002
0.000442679999999996
0.000440819999999999
0.000435240000000002
0.000435239999999999
0.000435239999999996
0.000466859999999999
0.000403619999999999
0.000448260000000002
0.000411059999999996
0.000420359999999999
0.000412920000000002
0.000409199999999999
0.000461279999999995
0.000433379999999999
0.000463139999999999
0.000416640000000002
0.000427799999999996
0.000437100000000009
0.000405479999999999
0.000451980000000002
0.000422219999999999
0.000425939999999996
0.000422219999999999
0.000461279999999999
0.000442680000000002
0.000355259999999997
0.000386879999999999
0.000396180000000002
0.000416639999999999
0.000399899999999996
0.000431520000000009
0.00042035999999999
0.000379440000000008
0.000457559999999989
0.000425940000000009
0.000385019999999997
0.000379440000000008
0.000394319999999985
0.000358980000000008
0.00042035999999999
0.000396180000000008
0.000494759999999987
0.000416640000000008
0.000429659999999996
0.000442680000000009
0.000394319999999985
0.000450120000000009
0.000444539999999989
0.000437100000000009
0.000379439999999991
0.000427800000000009
0.000424079999999996
0.000411060000000008
0.000422219999999983
0.000396180000000008
0.000461280000000009
0.000461279999999988
0.000375720000000008
0.000464999999999988
0.000440820000000009
0.000411059999999996
0.000420360000000008
0.000442679999999983
0.000446400000000009
0.000450119999999989
0.000433380000000009
0.000468719999999988
0.000414780000000008
0.000431519999999996
0.000465000000000009
0.000398039999999985
0.000360840000000008
0.000463139999999988
0.000392460000000008
0.000440819999999989
0.000398040000000008
0.000412919999999996
0.000442680000000009
0.000418499999999984
0.000403620000000008
0.000444540000000009
0.000446399999999989
0.000385020000000008
0.000368279999999991
0.000440820000000009
0.000437099999999996
0.000385020000000008
0.000388739999999985
0.000438960000000009
0.000448259999999989
0.000379440000000008
0.000386879999999991
0.000437100000000009
0.000411059999999996
0.000398040000000008
0.000398039999999985
0.000453840000000009
0.00039803999999999
0.000446400000000009
0.000437099999999989
0.000405480000000014
0.000438959999999989
0.000446400000000009
0.000442679999999983
0.000457560000000009
0.000420360000000008
0.000392459999999991
0.000409200000000008
0.000437099999999989
0.000433380000000015
0.000489179999999988
0.000448260000000009
0.000418499999999984
0.000381300000000008
0.000429659999999989
0.000451980000000009
0.000414779999999996
0.000433380000000002
0.000375719999999997
0.000465000000000009
0.000392459999999985
0.000427800000000009
0.00042593999999999
0.000429660000000009
0.000385019999999991
0.000409200000000014
0.000461279999999988
0.000461280000000009
0.000399899999999985
0.000398040000000008
0.000379440000000008
0.000379439999999991
0.000401760000000008
0.00041849999999999
0.000440820000000015
0.00040175999999999
0.000427800000000009
0.000405479999999984
0.000409200000000008
0.000383159999999991
0.000427800000000009
0.000407339999999996
0.000383160000000002
0.000364559999999997
0.000390600000000008
0.000405479999999984
0.000386880000000008
0.00040361999999999
0.000394320000000008
0.00040547999999999
0.000357120000000013
0.000381299999999991
0.000353400000000008
0.000425939999999983
0.000321780000000007
0.000364560000000008
0.000379439999999991
0.000310620000000007
0.000327359999999993
0.000370140000000013
0.000323639999999993
0.000351540000000008
0.000414779999999984
0.000370140000000008
0.000392459999999991
0.000373860000000008
0.000344099999999997
0.000306900000000002
0.000312479999999998
0.000305040000000007
0.000351539999999987
0.000342240000000007
0.000342239999999992
0.000306900000000007
0.000275279999999994
0.000308760000000012
0.000327359999999993
0.000316200000000007
0.00028457999999999
0.000303180000000007
0.000293880000000007
0.000292019999999994
0.000310620000000007
0.000267839999999995
0.00025668000000001
0.000297599999999994
0.000258540000000006
0.000258539999999991
0.000279000000000007
0.000265979999999995
0.000269700000000007
0.000277139999999998
0.000232500000000002
0.000245519999999999
0.000254820000000006
0.000238079999999992
0.000295740000000007
0.000280859999999994
0.000254820000000006
0.000217619999999995
0.000228780000000009
0.000243659999999995
0.000234360000000006
0.000251099999999991
0.000225060000000005
0.000262260000000006
0.000236219999999995
0.000221340000000005
0.000184139999999996
0.000228780000000009
0.000213899999999996
0.000247380000000006
0.000212039999999992
0.000208320000000005
0.000230639999999995
0.000184140000000004
0.000219479999999999
0.000186000000000002
0.000254819999999999
0.000236220000000006
0.000217619999999992
0.000215760000000005
0.000187859999999996
0.000200880000000005
0.000217619999999995
0.000212040000000008
0.000200879999999996
0.000223200000000005
0.000206459999999993
0.000206460000000005
0.000208320000000005
0.000226920000000005
0.000221339999999992
0.000221339999999999
0.00019158000000001
0.000213899999999999
0.000182279999999988
0.000238080000000006
0.000217620000000005
0.000180420000000004
0.000204599999999987
0.000217620000000012
0.000204599999999999
0.000225060000000012
0.000199019999999981
0.000212040000000005
0.000197160000000005
0.000228780000000005
0.000210179999999992
0.000213899999999999
0.000199020000000011
0.000230639999999999
0.000184139999999988
0.000206460000000005
0.000230640000000006
0.000186000000000004
0.000239940000000006
0.00027341999999999
0.000185999999999999
0.000219480000000012
0.000223199999999999
0.000219479999999986
0.000275280000000007
0.000232500000000006
0.000184140000000004
0.000219479999999986
0.000199020000000011
0.000215759999999999
0.00018228000000001
0.000245519999999977
0.000215760000000005
0.000180420000000004
0.000225060000000005
0.000204599999999993
0.000213899999999999
0.000223200000000012
0.000228779999999999
0.000230639999999985
0.000200880000000005
0.000199020000000005
0.000223200000000005
0.000256680000000006
0.000202739999999993
0.000185999999999999
0.000228780000000012
0.000252959999999999
0.000269699999999983
0.000265980000000007
0.000262260000000006
0.000271560000000007
0.000288299999999981
0.000290160000000015
0.000358979999999997
0.000293880000000016
0.000284579999999973
0.000279000000000007
0.000284580000000007
0.000303180000000007
0.000247379999999991
0.000228779999999999
0.000312480000000016
0.000306899999999998
0.000338519999999977
0.000297600000000007
0.000327360000000007
0.000318060000000007
0.000293880000000007
0.00027713999999999
0.000299459999999998
0.000284580000000015
0.000269699999999999
0.000318059999999979
0.000332940000000007
0.000284580000000007
0.000299460000000007
0.000278999999999982
0.000312480000000016
0.000292019999999998
0.000299460000000016
0.000303179999999971
0.000295740000000007
0.000306900000000007
0.000327360000000007
0.000332939999999988
0.000342239999999997
0.000258540000000014
0.000135779999999999
0.000130199999999991
0.000120900000000002
0.000120900000000002
0.000126480000000003
0.000135780000000003
0.000102299999999996
0.000130199999999999
0.000126480000000006
0.000115319999999999
0.000111599999999992
0.000102300000000002
0.000122760000000003
0.000117180000000002
0.000100439999999993
0.000139500000000007
0.000124619999999999
0.000143220000000007
0.00010415999999999
0.000120900000000002
8.92800000000018e-05
0.000117180000000002
0.000161819999999994
0.000113459999999999
0.000111600000000006
0.000132059999999999
0.00014507999999999
0.000117180000000002
0.000122760000000003
0.000122760000000003
0.000122760000000003
0.000139499999999995
0.000104159999999999
0.000107880000000005
0.000109739999999999
0.000117179999999992
0.000113460000000002
0.000120900000000002
0.000128340000000006
0.000137639999999987
0.000128340000000006
0.000154379999999999
0.000124620000000006
0.00010415999999999
0.000145080000000003
0.000130200000000007
0.000109739999999999
0.000115319999999996
0.000137639999999999
0.000115320000000006
0.000148799999999999
0.000130199999999991
0.000130200000000007
0.000117179999999999
0.000113460000000002
0.000133920000000003
0.000122759999999995
0.000128339999999999
0.000126480000000006
0.000117179999999999
0.000126479999999991
0.000109740000000002
9.6720000000002e-05
0.000122760000000006
0.000130199999999987
0.000120900000000006
0.000120899999999999
0.000132060000000007
0.000115319999999989
0.000143220000000003
0.000122760000000006
0.000124619999999999
0.000139499999999995
0.000100439999999999
0.000126480000000006
0.000122759999999999
0.000137639999999991
9.8580000000005e-05
0.000130199999999999
0.000128340000000003
0.000117180000000002
0.000113459999999996
0.000128339999999999
0.000135780000000007
0.000130199999999999
0.00015251999999999
0.000109740000000002
0.000104160000000002
0.000115320000000006
0.000115319999999989
0.000122760000000006
9.67199999999991e-05
0.000122760000000006
0.000115319999999989
0.000133920000000003
0.000143220000000007
0.000120899999999999
0.000139499999999995
0.000111599999999999
0.000115320000000006
0.000107879999999999
0.000115319999999992
0.000139500000000007
0.000122759999999999
8.92800000000018e-05
0.000115320000000002
0.000109739999999996
0.000113459999999999
0.000111600000000006
0.000126479999999999
0.000124619999999991
0.000111600000000002
0.000122760000000003
0.000113460000000006
0.000137639999999987
0.000115320000000006
0.000148799999999999
0.000115320000000006
0.000126479999999988
0.000137640000000003
0.000122760000000006
0.000126479999999999
0.000128339999999995
0.000102299999999999
0.000124620000000006
9.85799999999991e-05
0.000126479999999991
0.000124620000000006
0.000133919999999999
0.000130200000000003
0.000124620000000003
0.000146939999999994
0.000117179999999999
9.30000000000047e-05
0.000128339999999999
0.000126479999999991
0.000107880000000002
0.000117180000000002
0.000132060000000007
0.000148799999999986
0.000100440000000005
0.000115319999999999
0.000143220000000007
0.000119039999999988
0.000130200000000003
0.000113460000000006
0.000124619999999999
0.000111599999999996
0.000128339999999999
0.000128340000000006
0.000122759999999999
0.000117179999999992
0.000130200000000007
0.000139499999999999
0.000117180000000002
0.000122760000000003
0.000128339999999995
0.000106019999999999
0.000133920000000007
0.000133919999999999
0.000119039999999992
0.000139500000000003
0.000137640000000003
0.000145080000000007
0.00010601999999999
0.000115320000000006
0.000117179999999999
0.000120900000000006
0.000113459999999989
0.000119040000000002
0.000137640000000007
0.000117179999999999
0.000107879999999996
0.000124619999999999
0.000165540000000009
0.000117179999999999
0.000122759999999992
0.000135780000000007
0.000132059999999999
0.000139500000000003
0.000122760000000003
0.000130199999999995
0.000137639999999999
0.000120900000000006
0.000107879999999999
0.000113459999999992
0.000120900000000002
9.6720000000002e-05
0.000143220000000007
0.000107879999999989
0.000117180000000006
0.000128339999999999
0.000124620000000006
0.000137639999999987
0.000120900000000002
0.000124620000000006
0.000119039999999999
0.000117179999999995
0.000111599999999999
0.000139500000000007
0.000141359999999999
0.000133919999999991
0.000119040000000006
0.000148799999999999
)
;

boundaryField
{
    DSMCSide
    {
        type            symmetry;
    }
    DSMCBound
    {
        type            zeroGradient;
    }
    nullDims
    {
        type            empty;
    }
}


// ************************************************************************* //
