/*--------------------------------*- C++ -*----------------------------------*\
  =========                 |
  \\      /  F ield         | OpenFOAM: The Open Source CFD Toolbox
   \\    /   O peration     | Website:  https://openfoam.org
    \\  /    A nd           | Version:  7
     \\/     M anipulation  |
\*---------------------------------------------------------------------------*/
FoamFile
{
    version     2.0;
    format      ascii;
    class       volScalarField;
    location    "0.00144/particle";
    object      rhoNMean;
}
// * * * * * * * * * * * * * * * * * * * * * * * * * * * * * * * * * * * * * //

dimensions      [0 -3 0 0 0 0 0];

internalField   nonuniform List<scalar> 
600
(
8.5937790356248e+21
8.52507971001027e+21
8.76039842281272e+21
9.607376919738e+21
1.0074337319603e+22
9.52387167129491e+21
9.66459342925437e+21
9.17408570563662e+21
9.64575340562252e+21
8.60824434715873e+21
9.18061832548296e+21
9.50003831660198e+21
9.13440324881102e+21
9.18681771436083e+21
9.27122778754172e+21
9.03493299157029e+21
9.04250574277252e+21
9.41182509306896e+21
9.41059195570396e+21
9.26168515233608e+21
9.46384351473418e+21
9.01460279975564e+21
9.61640139474623e+21
9.36570939459665e+21
9.12081453971306e+21
8.74504450914672e+21
9.21231277394444e+21
9.49150199646654e+21
9.13727089078203e+21
9.56446711510672e+21
8.99539767732113e+21
8.47616459369157e+21
9.24606412377964e+21
9.22077939828012e+21
8.91515180677327e+21
9.02954615137645e+21
9.27231768812113e+21
9.26170097170742e+21
9.24076817219854e+21
9.31692906074282e+21
9.17041115093179e+21
8.74071362022429e+21
9.08683722321517e+21
9.42169294567878e+21
8.9508684091064e+21
8.62029520000461e+21
9.14433547777609e+21
9.24843055121847e+21
9.29622254579948e+21
9.03435139461658e+21
9.4296003803343e+21
9.39605987906751e+21
9.26436917282267e+21
8.92155851437603e+21
9.46808273707489e+21
9.48847031504444e+21
9.18202284468778e+21
8.73449816728905e+21
9.23456615388912e+21
8.75492267075604e+21
8.45634627607912e+21
8.87997471017391e+21
8.94283865697355e+21
9.24532317488923e+21
8.78413831804387e+21
8.81072113082895e+21
9.49657419311936e+21
9.04093807571499e+21
9.18791176109375e+21
9.09941275159565e+21
9.4706337321109e+21
9.35041914471759e+21
9.02083980235907e+21
9.1827230450114e+21
9.20822203421859e+21
9.12871778892523e+21
9.63967265065557e+21
9.98055390368145e+21
9.18728970593137e+21
9.35889136144918e+21
9.15189691101977e+21
9.31512694591738e+21
9.1498103270973e+21
8.90210706933057e+21
9.43312771212946e+21
9.17820399419589e+21
9.24340299827206e+21
9.50245696668757e+21
9.23488640835121e+21
9.1013904978373e+21
9.32134711684152e+21
8.92480515256195e+21
9.25713949599061e+21
9.34560317588549e+21
9.2475212845409e+21
8.28931593728869e+21
8.57704596076867e+21
8.18258343440551e+21
8.59939385944142e+21
9.22309172417587e+21
9.22458791961166e+21
9.01414417847188e+21
8.60474911156592e+21
9.00065159894134e+21
8.93478640357899e+21
8.84063898471082e+21
8.43313650652015e+21
8.32911817626366e+21
8.59976633428997e+21
8.72746927321997e+21
8.56802413854423e+21
9.50431241698793e+21
9.35370389956421e+21
9.21929895553031e+21
9.13932515585239e+21
9.30582480231622e+21
9.39953152026838e+21
9.41344113130683e+21
9.33584409133483e+21
8.56666598632019e+21
9.11495545927828e+21
8.84385247871288e+21
8.73424817442971e+21
8.6145412810829e+21
9.17478376029218e+21
9.50952217579269e+21
9.73214253440866e+21
9.19012952129001e+21
9.74226001945228e+21
9.63896641890565e+21
8.99772149639156e+21
9.09094015447925e+21
9.66035378470342e+21
9.41497835418398e+21
9.20334685333244e+21
9.19392613309721e+21
9.45039790201776e+21
8.95351574924268e+21
9.15808595697626e+21
9.79518118146296e+21
8.95523210278357e+21
8.72317738979581e+21
9.31053187284866e+21
8.9538723707418e+21
9.27659747287441e+21
8.64716730221325e+21
8.85279394661851e+21
9.27772578998719e+21
8.90084488881063e+21
8.59745683493261e+21
9.08805843229845e+21
9.39174742540347e+21
8.86960128870869e+21
8.87928473456214e+21
8.83359075739499e+21
9.05426673370865e+21
8.66415190914649e+21
8.77450045961339e+21
8.90274809378158e+21
9.0312291107755e+21
8.74572285415098e+21
8.75878933727507e+21
9.29307259644096e+21
8.34218496203863e+21
8.5962462762478e+21
8.89028209224418e+21
9.74769594980867e+21
9.00488038167673e+21
9.37496083258859e+21
9.1668242696495e+21
8.85788360043874e+21
9.30326007644055e+21
9.6692294796395e+21
9.72219999697931e+21
9.803148411774e+21
8.74841903916714e+21
8.63657950773551e+21
8.72670428778101e+21
9.17973317653318e+21
9.25070587395114e+21
9.69017218378628e+21
9.30554648274925e+21
9.20865759775433e+21
9.14340269355159e+21
9.19687268167121e+21
9.66221856882495e+21
9.50506201087218e+21
9.33857693703997e+21
8.93108391774978e+21
9.20409302422654e+21
8.59877469932172e+21
8.83961656029166e+21
8.85863152842436e+21
8.99961586012278e+21
9.02333451626903e+21
8.95768473523778e+21
9.55243550618214e+21
9.39467706429856e+21
8.78324418468344e+21
8.84508920572865e+21
8.05717360667101e+21
8.20519143991873e+21
8.75296425436112e+21
8.82488739569962e+21
9.3426540499953e+21
8.93687450465567e+21
8.7601294118583e+21
8.89064055587623e+21
8.87254572225065e+21
8.43349868168978e+21
8.98294968524998e+21
8.84814283813143e+21
8.54243752622866e+21
8.1104301899918e+21
8.27095677320735e+21
8.91358442234871e+21
8.36595523796092e+21
8.70821470894935e+21
8.49885759499595e+21
8.22539150829267e+21
8.30964590871579e+21
8.12259327070918e+21
8.05180494161449e+21
8.41029983379374e+21
7.41870029657629e+21
7.85054400480679e+21
7.94911615127168e+21
7.68333176452019e+21
7.45386664881358e+21
7.64796804286199e+21
7.30737699210983e+21
7.85431126218867e+21
8.65184059355042e+21
8.14663269995471e+21
8.62711168596994e+21
7.84090860781128e+21
7.07360360809981e+21
6.93756249067418e+21
7.2804426273292e+21
6.63765035514712e+21
7.01725798031971e+21
7.27920007324453e+21
6.90627728254052e+21
6.44777685291062e+21
6.83265500380027e+21
6.98025291296984e+21
6.90140768590738e+21
6.81481928908796e+21
6.45187441483999e+21
6.35731612988522e+21
6.64344866097934e+21
6.0914931725851e+21
6.52103163805399e+21
6.12108279103902e+21
5.99588657931747e+21
6.11719596661879e+21
5.63768426159189e+21
5.82411616836179e+21
5.87276441006105e+21
5.57708940673971e+21
5.73182940847477e+21
5.91624324490433e+21
5.11741836361965e+21
5.21750033817561e+21
5.66964458748809e+21
5.99506663582844e+21
5.87300766480224e+21
5.62321074042541e+21
5.37875516870974e+21
5.1152671974626e+21
5.24559065416798e+21
5.10664281354871e+21
5.03466951750125e+21
5.34257203227202e+21
5.06528271769184e+21
5.31098238967267e+21
5.0806415412674e+21
4.4835165158839e+21
4.60672204944419e+21
4.81470303253144e+21
4.69556430651769e+21
4.95978784942923e+21
4.75333599853722e+21
4.50312237351974e+21
4.52495626582297e+21
4.35176802715339e+21
4.55825239586015e+21
4.65492999773995e+21
5.09129622842708e+21
5.03220734362421e+21
4.8008839672868e+21
4.07241655889487e+21
4.34871141419353e+21
4.39895181696413e+21
4.70376610814927e+21
4.39562076606214e+21
4.40928216768161e+21
4.49517029054439e+21
4.7128555807917e+21
4.65183994302308e+21
4.6374332770029e+21
4.92534787914173e+21
4.48681637630689e+21
4.46366604991587e+21
4.51189103884329e+21
4.58180609354096e+21
4.39946740383373e+21
4.58118283064962e+21
4.18977770414752e+21
4.30943520510654e+21
4.45212192226226e+21
4.94913137090933e+21
4.55464704382599e+21
4.51655557031319e+21
4.29179468670952e+21
4.5991696430182e+21
4.43911076232321e+21
4.50214279391939e+21
4.61076892638422e+21
4.55396532550853e+21
4.56858182137185e+21
4.83115311356594e+21
4.61527960165682e+21
4.44704808494837e+21
4.50750090415771e+21
4.28045905544931e+21
5.11945816539709e+21
5.13796446648476e+21
4.41740483948038e+21
4.86724236727974e+21
4.78601802167826e+21
4.78474512286364e+21
5.24543071368568e+21
4.9681418177119e+21
4.27830792375449e+21
4.58314438066058e+21
4.18389458047863e+21
4.52967511445391e+21
4.39072749793274e+21
5.04684248000833e+21
4.33643796309162e+21
4.29468221680269e+21
4.81767637879137e+21
4.62989813092141e+21
4.55968775175756e+21
4.61656594978326e+21
4.80424103443742e+21
4.96252592905443e+21
4.45908579273846e+21
4.493339335214e+21
4.90790177104642e+21
5.04237139898213e+21
4.68969361535974e+21
4.84894427538682e+21
4.92513449055995e+21
5.54752364018342e+21
5.6799169530144e+21
6.13278110449697e+21
5.79597322528943e+21
5.89767848981931e+21
6.53373302451407e+21
6.66307703831924e+21
6.58816876272809e+21
5.84932078701949e+21
6.2285934449402e+21
6.33490613085692e+21
6.35269148618559e+21
6.32180467880202e+21
5.69193770613891e+21
5.91755714425193e+21
6.11844991073211e+21
6.72624933696448e+21
7.00576478612967e+21
6.8476408034946e+21
6.769829268236e+21
6.21504936820503e+21
6.39973625891203e+21
6.24199776152109e+21
6.49567071237894e+21
6.07340273064094e+21
6.22423056219172e+21
6.77870557198232e+21
6.57476653569688e+21
6.33065824049191e+21
6.17739614510365e+21
6.4737306673015e+21
6.57150681996594e+21
6.46329153380587e+21
6.45044409010553e+21
6.22842171772053e+21
6.04391859634302e+21
6.5704480378453e+21
6.50778558655069e+21
6.03048741780666e+21
5.45969681203559e+21
3.60614798814108e+21
2.60842716983483e+21
2.55944514025226e+21
2.65419907806013e+21
2.45141731432243e+21
2.82868873415836e+21
2.70322284541049e+21
2.43551947393994e+21
2.658868636215e+21
2.51311739416198e+21
2.82337137627655e+21
2.38754676925933e+21
2.19399285659031e+21
2.5659877174358e+21
2.3144802914612e+21
2.77699515021661e+21
2.6346638029356e+21
2.74380778563145e+21
2.80975717765921e+21
2.33714901535908e+21
2.43128195611422e+21
2.18910863435973e+21
2.59442272540151e+21
3.17758093516172e+21
2.54691075932606e+21
2.46936333782622e+21
2.61591901128982e+21
3.44676617784686e+21
2.65342859305615e+21
2.59542417083575e+21
2.61617796648369e+21
2.61525034754998e+21
2.68728218172777e+21
2.44939638800879e+21
2.3830684101053e+21
2.28487368535163e+21
2.44847465212385e+21
2.66569303832839e+21
2.63359809737973e+21
2.82880081928095e+21
2.70104235245371e+21
2.75902460214285e+21
3.23744612295695e+21
2.53885052708801e+21
2.60042842959049e+21
2.94929370270624e+21
2.84843415160241e+21
2.4451769745255e+21
2.66209459808513e+21
2.60070607802707e+21
2.58976112308673e+21
3.01633679723803e+21
2.65172300419893e+21
2.69446785791963e+21
2.64997895178568e+21
2.72553776295014e+21
2.9284615065125e+21
2.83485326386894e+21
2.3828915975563e+21
2.44037039345184e+21
2.82909328752495e+21
2.55531278458938e+21
2.43069287497799e+21
2.34401882258421e+21
2.61592283714034e+21
2.66259480538576e+21
2.77840225883063e+21
2.77319652584507e+21
2.81371320719253e+21
2.64523428977895e+21
2.85446082579858e+21
2.49374959293219e+21
2.73065406149856e+21
2.88125128470597e+21
2.31893464266036e+21
2.48795411744387e+21
2.89219860529772e+21
2.79945050186936e+21
2.42919500357787e+21
2.90264121469622e+21
2.46175781316206e+21
2.34848228629541e+21
2.60631988088836e+21
2.65908849640809e+21
2.77012171491158e+21
2.83192337875449e+21
3.27354030866515e+21
2.43362468031253e+21
2.28548942661082e+21
2.67985438200588e+21
2.38251541968911e+21
2.4366282149368e+21
2.23937575163118e+21
2.58859108197307e+21
2.52973340656704e+21
2.87885890758985e+21
2.70474381347881e+21
2.83020298111357e+21
3.02256399227886e+21
2.50400207726631e+21
2.32810838132923e+21
2.5836621159776e+21
2.59286276535041e+21
3.00224746408626e+21
2.41668787913511e+21
2.26464520690693e+21
2.46299637176124e+21
2.20153212951688e+21
2.12885428920792e+21
2.61606113408856e+21
2.82727002747452e+21
2.4998591737704e+21
2.33102838577381e+21
2.57421201650177e+21
2.72258253559216e+21
2.96736293911299e+21
2.43172827595765e+21
2.99832575333262e+21
2.54638169618971e+21
2.71653318128181e+21
2.70400066219807e+21
2.76006106997817e+21
2.75372762322624e+21
2.67745695016336e+21
2.33538850490188e+21
2.60277201929276e+21
2.38675608987023e+21
2.75195636205331e+21
2.85755288579362e+21
2.70181891694016e+21
2.72742190970972e+21
2.8141935350944e+21
2.71028745479525e+21
2.60677545699066e+21
2.18469877134461e+21
2.78817124006153e+21
2.49569438077448e+21
2.50246836979407e+21
2.64274080720935e+21
2.84985375977037e+21
2.85265205323437e+21
2.48172372485887e+21
2.66041584382415e+21
2.83899976146879e+21
2.35645930107093e+21
2.82916006357029e+21
2.49349246975046e+21
2.68520214263187e+21
2.61316731046132e+21
2.91216830092823e+21
2.70685520074427e+21
2.37662635812159e+21
2.43018682925096e+21
2.7673947304924e+21
2.9113132784306e+21
2.50824989832523e+21
2.83089880525854e+21
2.64666267567642e+21
2.7366401998991e+21
2.78497141972674e+21
2.74182567624058e+21
2.72313801024232e+21
3.03058576443653e+21
2.82439681597526e+21
2.56660103731815e+21
2.55376734636448e+21
2.60521009659895e+21
2.45605377207922e+21
2.35863301647242e+21
2.62554983339963e+21
2.80793802544054e+21
2.75597546383248e+21
2.63064349363773e+21
2.50930295858773e+21
2.55811042078242e+21
3.29101969208471e+21
3.02179923124408e+21
2.42162221598885e+21
2.76765908200984e+21
3.21360396661201e+21
2.79342870082062e+21
2.61891615009435e+21
2.96772458934954e+21
2.64762783193302e+21
2.48117252193104e+21
2.59353484084946e+21
2.36394181372916e+21
2.55154218476307e+21
2.34528444149524e+21
2.49134710750822e+21
2.31075559504079e+21
2.57678810202423e+21
2.99194322116955e+21
2.67977851090818e+21
3.08113950990694e+21
2.45344369515745e+21
2.73219967385036e+21
2.64963031093083e+21
2.63983139043238e+21
2.52230395197769e+21
2.87154583777148e+21
2.74811840337802e+21
2.94891704066799e+21
2.82664677283678e+21
2.9771969635507e+21
)
;

boundaryField
{
    DSMCSide
    {
        type            symmetry;
    }
    DSMCBound
    {
        type            calculated;
        value           uniform 8.5937790356248e+21;
    }
    nullDims
    {
        type            empty;
    }
}


// ************************************************************************* //
