/*--------------------------------*- C++ -*----------------------------------*\
  =========                 |
  \\      /  F ield         | OpenFOAM: The Open Source CFD Toolbox
   \\    /   O peration     | Website:  https://openfoam.org
    \\  /    A nd           | Version:  7
     \\/     M anipulation  |
\*---------------------------------------------------------------------------*/
FoamFile
{
    version     2.0;
    format      ascii;
    class       volVectorField;
    location    "0.00144/particle";
    object      UMean;
}
// * * * * * * * * * * * * * * * * * * * * * * * * * * * * * * * * * * * * * //

dimensions      [0 1 -1 0 0 0 0];

internalField   nonuniform List<vector> 
600
(
(-19.6340971715094 -7.78791972074028 0.0498677989198192)
(20.0381834855529 15.6640487535754 -18.4479230812898)
(1.5661682107107 38.8068192141755 -25.7456392225877)
(-10.3052871894342 22.1651295456295 -23.2376272185233)
(-44.1446669745699 4.75464884353558 4.07065968561252)
(12.6816498713104 3.16583032921204 10.4558718159643)
(44.1870584218593 25.4061503193502 -15.0985666289593)
(40.1142572541168 26.027664404578 11.4194030395463)
(62.5082208030665 -61.6183772676337 22.2956345320846)
(-41.7499857025147 -36.3622581040601 -30.2012202546195)
(-8.67093860835623 17.0689783899884 -14.5454715564557)
(27.14425648894 22.4361344857531 17.7048300136515)
(4.26730746194069 -29.2363640884956 8.24994437376598)
(-33.8935622746859 -84.7664261160956 4.66441413656564)
(22.8534163055707 -58.9282504758798 41.1092974071313)
(-14.8243312446638 -16.8102025312097 -39.810373347596)
(32.1135302770747 -24.6972565324541 33.7101549471996)
(-5.94059858540182 -6.07101400347659 -49.4856839117328)
(-11.339419577017 -14.7873811356977 -8.76141707083719)
(-64.7839321992241 48.221349435195 33.1646993631999)
(-4.47161531204014 -13.9984064304169 -47.2474938112019)
(-22.5582924305837 69.4139524427822 4.57120884519913)
(10.0150668396262 6.03559377207982 7.32345270889442)
(18.6479788394074 -47.3143190017437 -11.9754969798404)
(-3.99133064794792 -53.1302326351045 14.0908431300243)
(10.7349640687773 -2.43401909842587 62.929476251614)
(-2.51136843830365 60.955621291714 -33.9112730956739)
(9.63439310205332 -2.46805269993446 11.397323102918)
(-48.5292433202286 -42.8560190487393 30.107554804632)
(46.7800658384324 8.8408254381749 20.9290699890004)
(79.7603352222694 42.3650663746149 35.3483057028707)
(31.9189120538751 -20.6128730415087 54.1341940891871)
(21.4759537030757 -48.3890674533217 20.6274846108256)
(19.2014095411881 5.21658078831907 49.2936876297733)
(-16.4686440627747 -32.0771943434955 -64.6925270338532)
(-26.1308075582714 -57.8862259551827 39.8090427613459)
(-27.9199575850511 14.6225925485987 -1.6978426924169)
(42.5885101992156 -11.3142587274989 8.33413864763298)
(-22.7858299044887 -37.6088418896178 -70.7943728958174)
(48.763480366898 18.73659360583 24.0691468937558)
(33.7979651364558 3.74415163128993 -1.28023286172121)
(-10.2453911754455 -34.0529640582478 7.43515447554279)
(-22.4174751243018 -2.95795991161762 -20.3110705441216)
(36.8584241633398 -4.31055106800851 -2.66997107959469)
(1.08991629353112 25.8310238775632 -71.5035970202732)
(-58.8904863264757 -13.75750606328 16.945574059331)
(10.1975404175864 0.489464920876131 -16.4518326342212)
(-60.892663288783 -17.8826219485909 -51.0236323959735)
(61.5004088600555 21.6403549933773 29.3543740320872)
(27.7652349227879 46.8560283776297 -20.6113801820329)
(16.9426751068291 3.25386064770242 -9.25935517965907)
(26.9418670160558 86.4488207374458 18.3871545004204)
(-49.9141324682363 -20.3350223465378 9.08191907485011)
(-8.55376095084589 -26.7192725291904 -12.7327318539258)
(2.73555392677612 15.8461012678319 54.4651201409119)
(-42.3698365400901 23.1783897002233 4.73665995610483)
(16.3265587387337 0.504149108304996 13.6823355947039)
(63.5319501415112 38.2001434285411 -31.0203603862536)
(0.0712327296859359 -31.3110506329746 -18.2644225916084)
(69.9869275905611 11.9252649102358 -22.2563169570959)
(50.3251919526493 38.6021865101835 87.6502734340703)
(12.3158392529526 -61.2053088947303 -12.8755211380996)
(62.7654135698025 37.1373960667435 56.1007224659515)
(55.1001938871048 30.7778152002369 -49.2665754696095)
(19.2312017058981 55.1223937514858 -37.2845759599239)
(-29.3778672928935 -1.28124488486056 -6.22744270369764)
(14.8318361610545 -2.43127832535168 -47.1285742416849)
(53.830860735409 28.2948122194898 19.8148688834025)
(9.2314620753001 -16.7735794937968 0.373653424679611)
(-3.9342622004874 3.75456693842543 -29.6863744449486)
(5.0307017232868 11.7483422444347 45.6932209204677)
(30.3652121300352 -27.4350115200555 47.1873520633749)
(31.2653713040113 37.2858203215063 0.482967751006153)
(-11.2726820330931 -61.9158929505204 -7.65226621525238)
(-57.7382860791074 -31.5891093897703 -68.210085266783)
(-43.4620583681176 -0.529470725665832 -8.38679140906754)
(47.7925187180967 -1.4307355597301 -8.20166130619298)
(-25.6996137711427 -37.8426983418744 -66.057242769426)
(11.5279979928163 24.6104016335944 4.51282169029561)
(2.69597227432862 -26.4825150338971 -24.4627079100702)
(74.9026739487286 -50.9408503046775 -37.852164373732)
(26.693144657184 -49.1068878935085 59.7472362023253)
(80.0223621002826 51.161835819807 35.3183485018591)
(10.271931193865 12.7855666491794 -30.6701950018064)
(-24.6555081336398 8.84070100242177 7.88424974604376)
(-11.7653686244915 -45.9550605113507 -27.6537205444829)
(32.2184524111046 69.9018384258973 9.46536359078872)
(-27.1349131348406 33.3943716047909 -21.8385468804247)
(23.8503695919725 -20.350574682369 4.30663525449409)
(34.9442242884471 42.7853745970057 -10.6781426750677)
(-18.0104402870541 29.876675088846 -27.9829240551551)
(20.8315652949071 37.8846529391798 33.7834804279668)
(-6.87144566986567 19.534225898597 -29.9195665456445)
(11.6698050306927 35.0720590875699 63.3666971512991)
(-13.3254081036797 28.698484026056 13.471088338162)
(77.7203684037513 -33.4251820611521 -4.53779046307459)
(-21.1290116923161 30.2048097260345 48.7893941814735)
(26.6939135289268 -63.7855746161165 -27.9690778535764)
(-55.4719990899899 61.4832114083415 -1.35282001654828)
(1.991627985526 3.97060281700795 -5.65045233185185)
(16.8095531688978 18.5135826735625 2.38752832472471)
(-1.10580704545878 -6.55192870024296 -32.1072803457466)
(53.5396488383346 36.0142956416077 -36.3484360029589)
(-18.6940498585219 23.0722943278993 1.43314743773865)
(-26.1768585201443 13.3829639321306 -25.3632146507671)
(18.3987174073913 29.8682185539449 32.5135296696088)
(11.0504990497274 47.7396726828081 -15.2129055465392)
(50.4035641378268 9.12437800673573 5.48766024600895)
(-58.8972871514952 -11.764635520636 9.01976100467334)
(85.4664763555802 28.6044173817623 38.1855083642053)
(-1.09363524506776 -25.1452970989471 -39.8141054441963)
(33.1050715382294 6.56738081234735 -11.7505015247055)
(-34.587878792337 -30.8370404347275 20.6536343062615)
(14.4352700289338 -1.94106250015924 -1.12317380469527)
(16.3078870529067 -1.96281064559416 -50.8281426697344)
(-43.696139598552 26.0084091446293 -45.5426765654013)
(26.8930151759602 -34.901683556908 4.38632395948971)
(24.6434637013354 -11.5618657860272 11.8601482998126)
(53.0692595758318 -15.5836298941166 27.5760374896861)
(48.3913901787614 16.9838401364239 -36.154693799876)
(-1.5543435270264 -11.5965004138655 -1.82089691139938)
(23.7818428393128 -47.4102236036047 39.60071063527)
(-26.7419202157742 -21.902519863834 29.4472259306257)
(-33.8238701435532 6.31038900799849 -69.4778192968428)
(-17.3633775085607 -29.6571954615192 -27.4872852329895)
(-62.7833900685671 -20.3513385173047 -29.7239486488541)
(47.7641603462238 39.4678602342165 49.0160666237098)
(32.2444329565713 10.3271239386404 -34.0150482286328)
(39.8123622689684 29.1400331000043 -2.95226677360505)
(22.3386898986713 -14.8135711965301 41.4381609403253)
(17.4055090921835 13.7803111559995 -32.8717350647901)
(20.7423385655833 -40.5158037626165 -33.3428552836264)
(63.0656678431071 18.6736762076074 11.6976209370222)
(16.2725969776701 16.7516602857828 -22.8743161476633)
(50.5242621933435 -56.5434760628556 0.433449754096022)
(-48.8465427385872 42.6657614520234 12.3043716927552)
(-0.470823409763517 -13.172669027456 7.01457179919326)
(-22.8814798672383 10.2134936971584 -7.50023838921202)
(-28.7460261131998 -43.120381481604 10.8858190705766)
(-26.414136892074 -7.43912960612928 -49.9873876574781)
(40.7747071935976 29.2717024705574 19.6740300948035)
(-1.81960997989669 14.8277675516922 -49.662135599014)
(-30.2057810286392 6.61914786492863 16.0335398254665)
(8.40627203095258 -78.5766092504741 10.8156708184104)
(19.2445749038424 5.89973584295665 -12.3779275965776)
(35.5615847185969 2.3734202960051 34.6395677360943)
(-47.48354561649 14.4750665819505 35.4803583838979)
(41.1458018018441 14.013959959832 -2.64229302860328)
(17.1523467216446 26.2229585699209 -17.3566234065408)
(-18.7063473030534 -22.0211184149517 17.8410874709162)
(-36.9761530823081 -52.5748039196011 52.167295697208)
(5.16085007614678 -53.4985114557969 7.13332049635604)
(-30.3077318067252 27.4433100004996 27.0638647920039)
(62.5403481590231 33.4304746764453 69.5318403028094)
(32.6905893227111 -31.9104897967388 -12.2404012965367)
(-2.32143113251806 47.5077168149187 33.6820769662432)
(-3.35598977084126 48.017962860019 16.1672351179685)
(8.69475371193359 -7.57869621923989 1.26288844457747)
(-27.8404793725096 93.9610531209863 -29.7459694685584)
(-30.109200061357 -6.58074706391218 -44.4385208749292)
(-33.0094934246797 -21.7125545821499 8.49082116882888)
(-15.0246614787335 28.4229570440397 -28.5178333056793)
(59.5058790499484 -10.1515976281858 47.9133758283282)
(47.2826451765374 -31.2814974364411 -2.39845243952891)
(-77.3422873176639 -5.7156382064669 -2.11186502658419)
(27.522266564435 29.8178733751768 -34.7353437015565)
(7.15485661065468 -20.1961170500648 1.99146112399123)
(26.507223669255 -75.688133224393 -5.6026819651662)
(16.4682477736104 -45.6052784999335 -12.6138566376242)
(27.6097902445361 -18.9388621195367 18.8564240044106)
(6.81025652712744 19.4820966716345 69.0182093664304)
(-59.3446353567113 -35.5259733644102 13.5210742951321)
(29.9463690903617 1.06243468034262 1.97300364419925)
(35.0525475069584 -2.12067606252057 -16.30483716159)
(-14.9553373309884 7.36700141689537 -12.1090633874044)
(48.9424884454478 -17.5630468393571 30.5044811294073)
(23.9971488726235 25.0414997715568 -7.05602450708612)
(-6.29850579660069 0.238540213002319 -68.6456722807317)
(-36.8371845522954 70.4089200793276 11.4477696685859)
(47.5372645341185 -11.7073717245047 20.0452626639763)
(-29.6204730489772 57.7282970909148 39.6321512650569)
(-68.0800522597084 18.5646213344582 -53.4001800848458)
(-28.2430455694813 3.15353025673405 -18.6557709802889)
(-15.5531344989565 -61.4890864237051 45.4396132506484)
(1.61705936271649 -39.259731817394 -40.5262179542083)
(16.4940473531919 22.0245790915723 -30.5493860813347)
(25.0347498817969 -35.531883825236 31.2778259050044)
(4.64892508872745 4.39082072010471 10.3255858167407)
(-18.3004753152626 36.0661339614968 11.5947484341129)
(62.9670754729322 -2.90948498281108 -2.26456864845548)
(40.2195369935182 50.7667945840722 18.5718444896206)
(22.8244552453497 -37.4093203673555 -28.1997262549009)
(6.3828740139779 24.90270167788 33.6144630477646)
(11.584904993656 -10.7928289431339 26.481506911118)
(-28.6792020726496 -6.82197715704216 -9.19163675573681)
(28.4301903197052 -4.41628211036019 -41.3780916867839)
(-17.5186028293669 -38.0519022959403 -78.6265760925283)
(41.7540533976669 -1.86752814134108 15.8514890346991)
(-1.53181435527654 16.666351415525 -15.7101869128932)
(24.6359867164837 -15.7220518438454 -17.7843132472698)
(-3.54722192718296 61.3040524276596 53.4657419258399)
(14.3070576290691 -12.6501274258548 35.9042004265485)
(5.10610315013129 -16.890205035339 2.84433699757201)
(16.047482444551 -55.9888369927837 80.8466219649032)
(16.4529971119293 -53.1558217815702 0.664182790679607)
(-9.75269657326036 73.2589388679696 -17.9477286212261)
(-15.4244992060988 43.7345041518384 -17.6471549248508)
(-4.4622183123566 -58.4836992216958 -5.86875760372797)
(4.18951192955115 41.2545056430383 0.476444206375492)
(55.1053477196349 7.14134383499975 -39.7197070516455)
(15.3047634402919 43.6697505826228 -75.4926586476524)
(5.5651378412587 -17.1578004918352 -12.1664961247296)
(27.0847546731993 -91.4282115344443 45.0042416150223)
(29.5269811705169 13.5032737348465 -52.053059266772)
(42.4964280658211 -42.4417267287032 34.6664044536232)
(26.3643929137507 6.50279177520904 -70.1412253611073)
(47.6633693083103 -49.3583391292828 -3.06347287891547)
(57.2290477855703 17.7769030124684 -8.9774638237368)
(14.5045502632736 47.1553481847987 62.1165431033731)
(78.8411549586014 18.0574845040763 58.4003436693194)
(14.0954106962801 -35.3732334258326 20.5603195270134)
(45.2853661674027 3.97696791792794 31.5922041117545)
(33.1946839488402 -20.8594892918576 -32.0907817312311)
(78.1863572931139 -10.8636575508004 -31.1541803903581)
(77.1912012222467 -37.9093212394506 -33.3930732874159)
(63.5758210856997 -61.0426997855235 -24.0716489128064)
(77.892806276393 -66.9445199888794 -14.1910655032634)
(34.7591722973963 38.2806557270278 30.8445540015056)
(147.405055792273 -33.353697091196 34.3646283752498)
(27.8265818193227 2.11850219947201 -12.3818138391064)
(121.479547533684 -12.5552798229758 -38.0247379592746)
(138.316413196706 -36.1860633343685 4.12652424952519)
(91.7846934626992 -46.1625910069525 -61.6855433644899)
(145.388996752201 -4.23082898658102 67.5491928849041)
(153.359296206279 -16.6011345682415 1.12219456848068)
(144.552724407044 7.08894370082529 -39.1131849946833)
(234.479944492306 17.8449326583873 3.59997077855303)
(126.843248616611 13.1579207757657 -29.3734102572812)
(171.803774654403 9.24477444017625 -57.5402585406481)
(92.1632915917654 4.24601577700147 -31.7072808368619)
(204.694116193906 -31.5487855234159 -42.8895392310026)
(130.571752084459 62.1678127680038 -4.87875349801772)
(193.248835119929 -34.9790113495604 31.0162423051406)
(149.040001092479 6.72025487745121 -78.977950796259)
(87.412787196983 24.0054630521294 -23.5952942722365)
(181.622505018236 -43.0174254561013 4.11369691889929)
(155.266904561482 -20.6460238538416 -19.748991617135)
(213.673134648126 -33.4648835367558 -38.8728183081653)
(209.242695642062 6.50790994243788 -10.2344258929895)
(234.125074257031 20.3010579217849 -16.0716757173159)
(209.517047123187 -9.4354566432931 -12.1922676475759)
(224.748398839605 11.3221149978422 -0.940095461289517)
(176.123869501168 -19.2965201011027 60.5162188857844)
(277.025456011336 57.9580576411549 25.354746684485)
(264.984035072649 61.3777287200861 54.6961336594536)
(193.471957289248 11.3381983913523 22.9677829791675)
(280.569846337725 4.13818277929003 1.9737954491277)
(272.186556870943 40.5268381862656 32.5162147153611)
(254.241139568043 -6.4393172522553 25.3874913972306)
(346.499037939871 2.25486632790146 -1.33138483124877)
(281.973873332042 18.3840791356424 21.5776277337988)
(259.440451344387 33.0868032220058 -3.77602794362397)
(298.628467403252 -39.3523604892419 -41.5855048140936)
(264.703508411612 -0.75793964734567 -57.6665935924747)
(192.963050175286 -2.4715041981989 30.7486146352097)
(301.635718854946 -41.981021278214 -45.8566235132635)
(308.398421630439 -3.0106243102639 2.389696917618)
(338.441328089769 5.68161698581548 10.4431733838042)
(259.053081675098 28.2093901660436 -66.2966434592473)
(300.812000096678 37.2851267485507 -38.4432184702352)
(330.511847871416 -44.9181995583212 76.9477514530422)
(378.746688878847 -33.8966237474424 -84.5543570121998)
(324.390270174049 46.0645747968439 -36.0242513912087)
(313.47543312864 -5.29231925910756 31.9646151212436)
(434.810561723488 16.944453606444 53.1137215286683)
(324.305840695597 -28.2543241549962 21.0911838425463)
(354.651100747876 -53.0504710544309 -4.81869987027291)
(359.148561964431 -69.6632560771666 -84.2360312553607)
(373.727295712191 -9.63935744703271 -37.3578768532673)
(379.801563532924 32.6868244794246 -9.68281816214757)
(381.996429723079 -20.4379059804595 -22.6362353571496)
(347.15846298655 11.3601860598246 -2.91690590784958)
(389.05075868141 30.6084377636438 59.5878256840259)
(370.572951704889 2.68434455122054 -39.4139773679737)
(413.75958953353 -39.5921898277624 20.9874542585595)
(383.758031916276 26.3901496681629 -53.5490466905082)
(388.494033520961 -1.13843286320736 -3.87954339498751)
(298.253351451788 -27.9995258441277 -20.028169851875)
(408.165878581703 32.9020439652246 -84.1888190880667)
(351.836649740378 0.312712819699093 -52.7272604404971)
(417.157928179883 -66.9503568865427 0.015640397990503)
(466.064103897348 -21.3323994301941 28.6519992352219)
(362.664772464192 114.827435095112 -15.1154301471395)
(351.595265249437 -18.9021094655903 59.9766560178293)
(367.633728686608 47.0276884983265 -8.513862887766)
(465.320533794919 85.8251207464536 61.0000501285926)
(343.828632940335 -76.5259844541535 28.7097514768559)
(422.506873362779 24.5303716390165 -24.834449990817)
(340.391964008132 -32.2434747665303 47.5127517286189)
(364.780461523439 21.7266520854213 -24.8969974076895)
(380.48938338831 -2.36761506677352 -60.0073718238491)
(368.486251916188 61.9066697568094 -22.6866608912293)
(420.252211200484 51.3963529638055 7.59479796973165)
(401.118358525342 -41.7595364301808 -40.2057459633118)
(364.571304491959 -7.00158237728485 -13.4877544286297)
(412.979629233922 39.7230796671984 -25.4943476293104)
(363.792656861603 -7.34537509339179 -145.52892615872)
(485.800248585016 -64.7727670412673 66.9641814874717)
(427.580493311974 9.65754333968367 47.7486959096535)
(348.882996163543 24.0168383463206 -16.7788503770955)
(423.066794686328 -35.0344866889627 46.983741440341)
(294.142118281831 58.0902165371528 31.7728090811307)
(431.164585809196 -13.5030661804307 -15.843552182709)
(437.936341789423 52.9107789033146 76.7381517510627)
(423.200725157066 26.8753224114656 -27.0160696516658)
(402.677578702758 18.7074630986476 -27.2525172264507)
(475.180780845973 -39.5596887721016 33.254367877287)
(395.880547944283 1.66736579417154 47.0420049620364)
(356.903909199742 6.18741279240171 1.32023733597431)
(413.282528267111 -51.7203001162988 40.3580257297825)
(423.36359148359 65.5669138689821 40.8400229461058)
(411.071595524869 20.0424769832621 -99.509461581074)
(334.545807715569 -64.9513248026978 76.1116516052076)
(461.338980751391 75.9534297410839 -10.8352868482266)
(485.086788922431 14.6379398218243 -24.020934459823)
(415.580516337994 29.1461901904125 -16.7180193907324)
(410.456637286471 56.4841983203046 -23.7785270870474)
(404.011609196962 -7.38006084792185 38.2068965761954)
(349.726182949739 57.3906645137672 44.3181427358342)
(387.541185211424 -52.3553598273654 -67.1070858928586)
(416.296129026379 42.5797077500233 80.2629102819866)
(428.723779811481 -0.708377495153247 24.8723467647789)
(349.9563250419 -12.1280070628068 19.2492644041703)
(422.950469148869 22.6535722131221 16.5810799924887)
(346.005459993364 -124.612844660781 8.24836963195584)
(442.053062808761 62.0501886095363 -61.5302573779492)
(488.30357339905 11.3234674574336 -9.57598359761465)
(357.4692536408 -57.6408279764541 -56.3672053788732)
(381.999999121849 -27.6544623820655 -17.8446694201697)
(384.537007472097 -54.2665206831982 -14.1698502109642)
(392.710542204147 27.2532295140288 -47.995580068283)
(379.417880127635 5.26347755200023 3.87229817357162)
(391.198898770475 -22.6846120651129 -10.0858396310223)
(382.935716778294 -70.8193101222412 38.2878189710363)
(375.619968415923 -7.51790716841666 14.8251163571082)
(404.919716918171 44.1819108433522 -20.0329710616717)
(342.772640251134 40.0364237975338 32.5270720687493)
(389.700574337041 -57.7999610522229 -1.64129755153456)
(368.310563268633 16.7121163573497 -47.6797883708994)
(455.352531601649 -8.82118227402543 26.6657506269506)
(442.588689070064 63.732277980324 28.3690577212315)
(353.617504493664 -14.9106453207867 -44.8276675423869)
(394.34035001135 -41.1524397827926 -68.4172404295195)
(431.726843487451 -84.4041152959286 20.584973303019)
(448.466659229448 -55.2426677278661 -44.6078373761126)
(348.62885282926 8.33130158089336 27.8412904342335)
(432.630771785901 -26.1726352597638 6.34174697006901)
(359.514516489945 125.682418230565 96.8087415451542)
(439.103247972281 4.56649257943241 9.61347748986148)
(387.681115616976 -56.3378723173861 -2.51041844372021)
(416.729150659227 -39.7291896237757 36.2310142542055)
(410.45273252365 37.5445536126602 -26.2707004665278)
(392.806104330309 2.24024617060392 -46.2485198996935)
(399.177401781598 5.73599968224814 14.0812797173784)
(357.336866714459 -30.8797783334871 13.4485927953913)
(343.375367200369 28.4096786213237 54.1802381259814)
(341.434874937868 8.02323326852182 31.9948008810853)
(381.114583533641 -9.11583070983127 -8.46603604548054)
(401.460870437697 48.6168226634865 -9.12437796380088)
(406.859735292966 22.0441346474429 -25.236944249468)
(437.986779714781 -50.4253667146387 -31.1739849259886)
(392.407935102918 10.7531531370694 12.7812489391388)
(405.449199594031 58.3748242472011 -11.7470525539765)
(405.812303244835 1.15229080809612 -9.15634224462042)
(397.735080262924 -3.08527922977491 12.1724176780468)
(428.453976660674 6.04650876056842 37.7885933163951)
(377.408901208211 -21.0782972140589 -19.437623325463)
(354.050500746724 -59.0302152728556 -20.5869871257046)
(411.668057215922 -2.81862706525555 42.3602879263794)
(421.438509993463 -10.3690673431081 -6.48024703822257)
(368.100528138556 -30.9880933492497 1.71480997963387)
(420.083856598673 22.8079111556035 28.3451421624438)
(370.363967411896 -37.5520751990934 -30.305519000596)
(367.398130502976 14.2499340687997 -26.9130266312558)
(422.000911115661 59.5567023862625 -43.4886342327877)
(406.686314058622 0.163458315150545 -5.38754108764549)
(403.164175682329 -26.1068467103961 -10.3805185244223)
(371.563751157278 -15.8281736832891 -17.8129128276359)
(423.84925815778 -21.9021963885315 9.90138070768654)
(456.53844374909 3.18481497006283 6.19091286249991)
(402.97192685661 14.6252900147496 -20.5535459663809)
(338.472803454922 2.99099571706537 40.5361191039255)
(411.420292789891 11.7356317769498 -43.7031576418585)
(395.484061972457 -12.2328739055751 27.9697138012779)
(406.706932559828 -2.32404141642213 -13.9735393259876)
(330.315770284118 -33.9221988114113 -1.46014658947025)
(236.9188056251 8.4718126439499 34.2457313073142)
(10.9127875685787 7.78365016369507 -45.9750509691844)
(0.710710733829765 -36.7760338567827 0.54702673504516)
(11.2308309785297 -14.659901257216 15.8100569650547)
(-22.77169675744 -8.52337353629578 51.7810766785738)
(-46.5617106278744 4.6138267888837 23.834016626176)
(7.97289891577258 -24.0526387562937 -6.38289810420482)
(-22.1721651835365 12.7964825439956 86.4037732451279)
(19.1461862777193 -26.4918988090253 -3.80492699511816)
(7.75785261893679 -25.2753062170937 -41.2898542824913)
(26.1649288125674 -3.96527224837262 22.6639208559485)
(11.7291004692098 -8.37276846287371 -7.39476032066497)
(-6.96006600769114 79.2644794389185 7.66537620666998)
(-17.8352527401469 37.3889642608617 -83.223335697174)
(19.9164584969607 4.34701560961919 -64.3824454686072)
(18.8619706731944 8.65254620905999 6.08486968779781)
(36.2429070141229 38.2090655131361 38.9898798186788)
(-32.8425535923626 3.87805985400633 -20.2995348171385)
(6.0376586160003 -16.3138435457802 -80.4870552161351)
(9.50344442426469 79.2331992595542 -43.2711023441667)
(-23.565517924482 -9.7328115373237 -29.3983244297237)
(-37.0843839159068 25.2848694225952 22.6239637367704)
(-28.5249901024313 -24.5770803728989 20.5935512995196)
(4.82148404488409 25.4106660938417 7.51087114344045)
(47.3917501154192 -11.1004246331431 31.2186171610108)
(-84.2542919182829 4.43731686732978 -1.34274070571164)
(-16.6506445671751 -38.1108498848811 48.4282797477542)
(55.6526974791123 21.0038668763974 1.02825577918811)
(9.67346786471194 -31.4743671895502 9.19851910888576)
(28.7746873143012 15.9347538884851 -83.0886753594993)
(1.28015564586881 23.6066524321092 70.1299351107523)
(-18.8895512152672 4.28436403671519 -5.37746655215947)
(1.852664605008 -1.60725315507501 25.7055928391197)
(30.4835117119217 -17.3284237341609 -15.2172013244185)
(16.8587156633841 56.1983123003059 -52.1709812157766)
(-10.9486880579497 -46.5609940986247 52.902128821565)
(31.4807526787912 -21.347697014832 -47.1507552534304)
(12.4972312378855 -19.1232200767878 -1.05335737279517)
(-16.9925352514412 -46.067013563993 -38.1894916506601)
(5.88451762071717 -1.79569662351431 32.2080671982443)
(46.9337178321709 44.8577021333773 28.9644970233284)
(-51.716590658063 35.6006379975635 25.5794954731075)
(19.813451468306 32.8127039467545 0.556222906194281)
(-43.9246063912308 -55.5392082716786 -45.0666916991801)
(27.9928476691214 -18.2453728719337 53.5057389303247)
(5.50748402906756 4.02483680162082 -10.5196885404372)
(45.9701220043482 -34.6751936897303 15.5235467463803)
(12.4331919268116 85.2831191187433 -39.495508829405)
(-12.6240586754014 30.3960394198777 -9.73615939269434)
(10.8938931267928 -29.5199084840693 -23.3191582678429)
(-54.2220503369014 -23.9282670992516 43.9819396895469)
(-42.8205502645548 39.1115429840937 5.32733273496558)
(-11.2297661335998 -72.6752324605067 20.5983639038476)
(-64.0890734567086 4.36784941625944 -72.4431283739996)
(22.4700171579046 -64.9219826174764 42.9846807733795)
(-55.9287907713448 -3.75187704861688 -19.7339459528681)
(40.5426435716273 -35.1217264001235 44.8520472294884)
(55.3805941032979 -74.2470896301952 -16.6745194033993)
(-83.8747809182349 -58.9414732061138 9.00681845302006)
(-31.6332254575103 44.2377341730466 -40.4258990742307)
(-24.5235965344784 -44.5464730547643 -46.3183031070152)
(11.0676600604836 -8.88074382761561 29.7060259952372)
(34.9062913227807 12.1806278744617 82.3066229613153)
(-54.0610132353901 46.5605836819695 17.3058323028367)
(51.5010894933478 -24.0552388222902 31.0505917994577)
(-56.9025292242733 22.822269896697 60.8837136411159)
(-0.311417848319942 -20.6158091648924 3.39804560356789)
(73.0888564794381 -27.6178834299775 -10.2902308076903)
(80.7661291986422 -54.4322175960426 6.11545277720701)
(10.0714846553982 14.5805275473352 -11.328777247252)
(10.7498135696954 -27.2289913106594 41.6333636822048)
(-5.65343282674388 -51.8583787805607 15.4567912878983)
(-23.8048301435122 23.0884362993085 -31.6232236714153)
(26.4373474054462 43.7089075100283 14.3069653416251)
(-12.1825263670636 36.3911398695644 -17.598304618269)
(5.06207241046984 45.5821476837266 -18.8391882894259)
(16.1170477929092 -4.80187022849654 -11.211578669477)
(43.3665281672472 68.7542438434748 -0.802137712783966)
(59.077738474831 50.581543797094 -62.8079501461226)
(34.8068437557953 3.78489759717158 30.746530406623)
(2.40161108198535 -95.0356793612772 86.6825638183877)
(-12.3453488087822 -7.35045135335803 11.4845499129187)
(-18.9474919369856 19.999903723281 -22.9789978372953)
(9.88883290920077 29.0853744880959 18.2834707106378)
(-45.7866255981803 -59.7402867501041 32.4837754255591)
(-30.2872994771704 -18.9540793575861 -17.1546799280132)
(62.1481721038473 34.8538959536357 22.2417621790563)
(-21.1254174386629 33.2713938269757 48.2039666994159)
(34.2926693284989 -17.2470718629239 45.7290221793542)
(-12.3489649696028 23.0221779712509 -11.670498988668)
(-2.51947757702777 32.4558638386432 -0.267160670963943)
(18.1073429943877 -36.5227317401474 -36.3688657030696)
(-3.56124613001156 -17.4038768808808 23.7273829210553)
(51.1357926212922 -6.23145696576343 -1.85877854171525)
(-34.9381985692957 11.072235137694 0.784856499837837)
(-23.7745682708105 16.5998357638744 43.4086242904441)
(-56.6650364598825 -70.8603933700076 20.4865805935037)
(8.43125580466414 41.2846576341795 -48.8764068734798)
(30.8406844472179 42.2569420972952 41.0436264640012)
(16.2947547356127 27.8065712557862 4.33481754444956)
(-66.8482680705123 28.5011490629597 -71.0511364352356)
(92.8843649622762 -39.024761713214 -51.1321976408652)
(-5.19876959068792 11.5288541806396 -26.9185621670526)
(65.101064334244 5.3589457325999 -48.3312409885757)
(45.6270918317459 -64.7793407021655 45.5158763340123)
(-2.20046945570842 -12.4460638332629 -43.2540633763622)
(106.039034966537 44.8146876920874 15.1615619980384)
(-19.015698046192 27.005663435426 40.2086661415149)
(3.24296262033675 -59.1690510612088 23.4947095849387)
(-23.6371280551725 5.57716732756507 18.4638356532863)
(57.8859519008651 0.0293288630538306 -47.0099642149511)
(-26.0203877526487 33.2707586190875 -39.017045276222)
(-18.7932130035217 -45.6162386804106 -15.3314775275334)
(-4.16973204458436 17.6508647645691 7.76161610885273)
(47.9599200660378 47.2045896032672 -85.3869610774438)
(-16.8124669283787 17.916208814623 46.4792485664973)
(52.6421679107046 -19.0491279159364 -2.97936750570181)
(11.3528029326879 4.97020347308197 24.1470203248116)
(-42.5094716564868 36.8256312549161 -7.3839719961272)
(-30.7538373534865 21.9193783660556 7.17688666556872)
(-61.328455154955 -3.70006935362266 37.2175374019184)
(-16.2270429066925 23.3468293186835 -19.4069221605642)
(2.81297578472807 -13.0957269951428 7.82760385886761)
(-35.7911412815891 21.7095044434378 14.0622678992042)
(-68.0185696239612 -20.7322813552811 -0.405655491988761)
(4.91912289231881 -13.7330797540109 -74.575373352521)
(32.965085232149 16.6307661541528 20.0672047696199)
(14.6379452215124 31.2312966783563 72.2846772923045)
(22.5005765801472 -32.5411932643657 34.5141816648402)
(-29.1896049612039 -1.08483007246149 19.020178207134)
(106.428202104876 12.8254667710734 3.50533829239248)
(12.3290303142302 -9.92825345636826 29.3426740174387)
(-32.7966210984866 -27.2735218202231 -19.8464404456178)
(-28.7692217677169 -19.3968877383499 -26.6166203910015)
(1.20093645171047 98.7587468943496 -27.3050903186681)
(66.0519937753977 40.4032494178837 14.7840072832686)
(-109.010380012895 28.5852813197269 -30.197741328007)
(45.3178820890946 -17.8431820846084 -1.150215918439)
(12.1559742958478 -48.3705142629357 -53.3944714352568)
(17.6919609375427 7.77305506194782 -0.806464343343504)
(32.2806013688687 -26.3937435027474 68.5150631279863)
(24.4041460155303 0.821724769621431 -0.0394952130939945)
(-4.01442341891773 -43.4656298606246 -59.2991790141384)
(25.492324044735 78.8565838303045 21.554156170749)
(-55.355513601357 34.958158208588 -11.388743789496)
(5.48678010807004 -29.5251877470369 -3.14142564338625)