/*--------------------------------*- C++ -*----------------------------------*\
  =========                 |
  \\      /  F ield         | OpenFOAM: The Open Source CFD Toolbox
   \\    /   O peration     | Website:  https://openfoam.org
    \\  /    A nd           | Version:  7
     \\/     M anipulation  |
\*---------------------------------------------------------------------------*/
FoamFile
{
    version     2.0;
    format      ascii;
    class       volScalarField;
    location    "0.175/particle";
    object      linearKE;
}
// * * * * * * * * * * * * * * * * * * * * * * * * * * * * * * * * * * * * * //

dimensions      [1 -1 -2 0 0 0 0];

internalField   nonuniform List<scalar> 
800
(
0.00140621098797937
0.00137738795133189
0.0014407855014189
0.00146299765554842
0.00155228649080701
0.00158961625021993
0.00163082516375472
0.0015731448585768
0.00152045796997504
0.00145284849961385
0.00163760660602847
0.00165919760989395
0.00143651656685873
0.00155931386562063
0.00144629036200275
0.00150864595633549
0.00151665997229178
0.00157760698398987
0.00152412265196222
0.00160499432541165
0.00155558797002418
0.00156627666561934
0.00156094280810327
0.00156765272181727
0.00152861813929123
0.00149783256102736
0.00154266277861361
0.00156682653625249
0.00150789493124887
0.00153989032786481
0.00144886717212739
0.00144188309965369
0.00156709309872293
0.00140943722712628
0.00152090678618922
0.00145586181413426
0.00157999292660321
0.00146422026907003
0.00161074137360266
0.00160211999768841
0.00157119824818323
0.0014398680658198
0.00151675465420734
0.00153829079884099
0.00155553133325625
0.00141929636899978
0.0016055189662425
0.00156132893520906
0.00155600410869774
0.0015028025295032
0.00163238338725292
0.00148846728606623
0.00149129761981056
0.00145535241312434
0.00146619080949756
0.0015473031113487
0.0015051191697866
0.00157265543785045
0.00147468045601723
0.0015986579632443
0.00157619543258269
0.00146010687217877
0.00155450556079062
0.00142690869397364
0.00156370604357603
0.00154669217014974
0.0015779649331627
0.00160466702282759
0.00158267368872366
0.00148094245202381
0.00154621445245876
0.00159290062680107
0.00154072704973684
0.00148502667661275
0.00147111152985091
0.00156897443286602
0.00142027966603136
0.00155851626892532
0.00157241884730188
0.00150929783763652
0.00152242865715505
0.00148642839651317
0.00154206933729789
0.0015882857419687
0.00157776892502247
0.00150803324221561
0.00153791886863526
0.00151454121177351
0.00144892487509785
0.00145123261140799
0.00142251203166346
0.00154820712408061
0.00144708496831266
0.0014409369455884
0.00155759615801888
0.00142643992424884
0.001507796110769
0.00142189655695564
0.00134715926197028
0.00140986972415838
0.00143095065888345
0.00145712631635312
0.00151244913961192
0.00146535269037662
0.00140519043951521
0.00146418671616885
0.00139710695599784
0.00144235607938232
0.00134557269298308
0.00137225362363373
0.0014002501992753
0.00135632359682148
0.00135234885222424
0.00137038785483461
0.00143697325344053
0.00133576793219645
0.00130208758052385
0.00125823222525928
0.00134854684469685
0.00135559931698518
0.00132514864390346
0.00135315941463801
0.00126779124496117
0.00133152176559667
0.00129446881385813
0.0012494361319796
0.00116840348607835
0.00127955808396007
0.00130178582920151
0.00122569174255041
0.00122063426299454
0.00119380776300544
0.00119508371602876
0.00131472085248414
0.00135564803469538
0.00115269902477154
0.00111569250160214
0.00130138776911061
0.00113127820961735
0.00122366962665373
0.00109215967023317
0.00122090910983968
0.00117217210991874
0.00110050456394093
0.00111340495255773
0.001092188328265
0.00114106453416932
0.0011157382224734
0.00125288068137609
0.00115033822981813
0.00111255575224782
0.00116944959368665
0.00117315206053494
0.00114470411515577
0.00110679572251491
0.00109181097997053
0.00115233706820121
0.00103623331010058
0.00107060352921448
0.00110326974346246
0.00117108808205216
0.00108647464060145
0.000970710980204458
0.00104090116053459
0.000989591748839797
0.00115364915370727
0.00101591918303286
0.00112035647749789
0.00107707908169963
0.00102384320948421
0.0010739156562546
0.00107582749073334
0.000997582981327708
0.00100753744378394
0.000983185378472153
0.00103091158079564
0.000959603495135764
0.0009654319941062
0.000980982437516232
0.000921273274449716
0.000970438543715976
0.000953830818590651
0.00103078156967506
0.00100457646645548
0.000878374804086535
0.000919094949525119
0.000961500048035085
0.000889652730299748
0.000977997812017369
0.000952028515430388
0.00100160309729914
0.000930145769655968
0.00100810468277536
0.000926441723923165
0.00100062997446607
0.00106957148948449
0.000893094953352988
0.000944945538029148
0.000848562242148631
0.000920645203823758
0.000955798344960619
0.000939745108502211
0.000900669151421572
0.000954909561082723
0.00093302314437792
0.000925633374425983
0.000934029449370038
0.000892282489183946
0.000900735848638248
0.000878288158774759
0.000955558681936269
0.00088299179313524
0.000849520239483768
0.000848126352467763
0.000880410687493395
0.000794154882242501
0.000855963433941938
0.000904715685003398
0.000779277804142629
0.00081142448817685
0.000822416013480141
0.000807406096003118
0.000811729626502388
0.000809444638434842
0.000794027457573535
0.000779802800599834
0.00080194990383618
0.000813438272788305
0.000784343048999252
0.000829572019877585
0.000731244279174567
0.000678924457822262
0.00084446672442389
0.000807025662112191
0.000776313158396157
0.000713941394646549
0.000867599056444484
0.000762355967296359
0.000730357241824154
0.000763288212973681
0.000797067132846665
0.000748759036544635
0.000760433567206388
0.000736143761862331
0.000814606034003152
0.000724247870522463
0.000754907935717771
0.000721771306469497
0.000657526084585079
0.000826337651612147
0.000719886257806649
0.00070666686556709
0.000724323555767867
0.00078118352553032
0.000702610894725767
0.000710889081269038
0.000678195700666267
0.000783670609518018
0.000653360780023062
0.000706725470158052
0.000687312477146769
0.000761898104651317
0.00075987179792252
0.000781362142816632
0.000696633163307865
0.000681176051245316
0.000710585171832332
0.000707918617990379
0.000692143295533239
0.000700709779818659
0.000623110609127832
0.000649162863651421
0.000641947248249752
0.000717416390126329
0.000654374375319937
0.000678505951891976
0.000693967296678676
0.00067056787067087
0.00066599944963133
0.000716409294852219
0.000657155539562071
0.0006663383313736
0.000642235884643106
0.000632471038476948
0.000663881394275193
0.000647708134879041
0.000690232028361059
0.000683440740333666
0.000648913119304906
0.000583855402162638
0.000610999566014315
0.000625757263117998
0.000696501223013905
0.000707831259622732
0.000624896520968703
0.000690737431810814
0.000710866778088824
0.000604989564138115
0.000687866860441786
0.000706084003608002
0.000667768746907002
0.000697688216762834
0.000605288864774592
0.000607501348100678
0.000619965532298187
0.000631705698493617
0.000630390842236443
0.000618613493876177
0.000712698846063481
0.000631388764094203
0.000656863028416641
0.00068670800039965
0.000703603196999978
0.000635904684171497
0.000649656485251739
0.000578589147815921
0.00066944991377865
0.00063491984686168
0.000589927453316938
0.000678397487669761
0.000673145601323322
0.000665072668934572
0.000680687840015661
0.000586391404238757
0.000650000417487906
0.000690282724493925
0.000593254761442793
0.000673522949181626
0.000640482338320585
0.000598316400046573
0.000645002523918374
0.000677462023957318
0.000628724238955966
0.000709473269444137
0.000694134762813106
0.000669852942578207
0.00065626136932065
0.000683149496039622
0.000643074300659076
0.000599761646149223
0.000651161827548104
0.000638319649288917
0.0006481454724012
0.000675146136393458
0.000670765699791052
0.000653258822712204
0.000636186830619517
0.000664467988090588
0.00064365773051284
0.000605287267330327
0.000627780220275789
0.000635881286916476
0.000675847949838333
0.000667574956840925
0.000694514052172513
0.000601467161187859
0.000648616648901932
0.000623114835674786
0.000673384378720054
0.00062392455980435
0.000617040203888342
0.000645801476059769
0.000651703226460556
0.000671249782979614
0.00063576987942326
0.000612522625402508
0.000667277780655548
0.000615505076872622
0.000689433220674384
0.000663031943411836
0.000616599616412033
0.000694541518671968
0.000604378182961505
0.000587328119305116
0.000578022055986427
0.000640083186001326
0.000625076817952558
0.000701899701545013
0.000662853116284824
0.000695806645532503
0.000617243505559371
0.000708106838422175
0.00064404267191494
0.000708037828976173
0.000635507843688519
0.000664889697107109
0.000634970893971521
0.000674590924285601
0.000650094167311917
0.000622213151944338
0.000610617967678812
0.000628962992049686
0.000604565375083503
0.000641719885329766
0.000597912429476917
0.000688263190106956
0.000626129237820711
0.000650849774744833
0.000675415392938048
0.000681845846048326
0.00064879437198702
0.00065952059189317
0.000666943839404177
0.00064407650130204
0.000623282571146372
0.000639789001329631
0.000627617179733953
0.000679360833748005
0.000623020520713101
0.000628230297418824
0.00064970982024814
0.000607016670602688
0.00065832583941527
0.000661209057214217
0.000593936167917212
0.000669692336656541
0.000668451505684396
0.000589149889706314
0.000675481775794225
0.000657109726004435
0.000685405574905672
0.000678858875559671
0.000637840548826041
0.000680490387943904
0.000607033880042023
0.000593369128166175
0.000673577697365482
0.000638529777885185
0.000635181240623516
0.000682696942620371
0.000618122268059647
0.000634625240342968
0.000628864826061022
0.000605748236074611
0.000669372604088614
0.000672369297555621
0.00062662531984412
0.000563729925499093
0.000736175338857462
0.0006414751659481
0.000672546877726746
0.000644370389807864
0.000631857489940715
0.000675756687950542
0.000723875994008042
0.000670832918828305
0.000643732673346776
0.000584109072804241
0.000638714177187596
0.000643818697012917
0.000545943397387385
0.000566747194514806
0.000634850603385404
0.000645001485591768
0.000671396006860819
0.000615684417762234
0.000589899361031633
0.000588499491463188
0.000658374149930444
0.000600585604224288
0.000602122078719316
0.000624351609537303
0.000543136445995492
0.000586189741646094
0.000555452269113683
0.000578933839624391
0.000649834701834974
0.000619724826127045
0.000584729850402238
0.000591824313810946
0.000614175590121901
0.000582611164015712
0.000637441790768602
0.000605776628820708
0.000599815836107563
0.000537861948814716
0.000617523935624386
0.000550625590014255
0.000530096950777248
0.000590639064574486
0.000537674536479427
0.000536515819639156
0.000599691594998021
0.000550437748133795
0.000526927320170104
0.000547087975175631
0.000590964191409752
0.000590607233819478
0.000591669380295207
0.000529914856786707
0.000605002619670341
0.00059108723127647
0.000538783071496555
0.00051724013067771
0.000609032622663807
0.000551373467345422
0.000550100089962824
0.000561129624920142
0.000556270336842315
0.000607072265470951
0.000501244020424442
0.000569084932231754
0.000605843258926949
0.000563112143289601
0.000568365178545617
0.000616262621821179
0.000641736544774097
0.000547734370024867
0.000612116896805671
0.000593943183199244
0.000531004818820544
0.000615797179997507
0.000586384990793847
0.00064144273208043
0.000558243103694575
0.000567215230417379
0.000507992245144383
0.000500617887659178
0.000571670508571993
0.000536007114080175
0.000616419290083788
0.000526472478665143
0.000571138063255909
0.000618411590999968
0.000569843463071052
0.000610705515669871
0.000590879867924405
0.000594968515366968
0.000554245546502517
0.000622175956906907
0.000500888062874416
0.000620762406865047
0.000534331222739418
0.000566384055936641
0.000555187432914106
0.000495721686863665
0.000576134198863588
0.000571655345854992
0.000592188437790652
0.000565981171125556
0.000573994334451057
0.000530707224252954
0.00054709651246325
0.000621255733043249
0.000621414289943692
0.000488230323881424
0.000548638765431863
0.000581875393591583
0.000668617146207016
0.000552627993678872
0.000576836813606118
0.000556539187753382
0.000643137153481052
0.00058958337468813
0.000630905526992135
0.000568745636902175
0.000651448629588157
0.000574323299525389
0.00069426151871405
0.000618778334893964
0.000558615945794797
0.000497084569725536
0.000571226533572575
0.000551956825270427
0.000567494589733136
0.000531634376572184
0.000548472066172108
0.000589940208869857
0.000611632551275125
0.000605613677430466
0.000526402177971551
0.000596123946972846
0.000553467553969631
0.000620940283617919
0.000562080179636989
0.000515867745131316
0.000603763787725371
0.000525017293039917
0.000592928987470722
0.000589345763505978
0.000549740352733362
0.000558642536776889
0.000578550597400059
0.000584237272249711
0.000534720190244436
0.000558051707655561
0.000536300657145647
0.000639510731184866
0.000606217782871725
0.000583202636054429
0.000546608964347533
0.000593857761355315
0.000509354300540937
0.000586856611144506
0.000598621004308211
0.000585988854152394
0.000515557996831158
0.000568977664022616
0.000537999365672065
0.000617788422716634
0.000595817691997656
0.000608119954064032
0.000663542249671487
0.000546332417947874
0.000536417608219991
0.00061204424380481
0.000413305760044523
0.00025286859263377
0.000147831746666711
0.000152353755187892
0.000160068331792568
0.000132567953540247
0.000169235772544221
0.000163356213947317
0.00015949181973097
0.000155268362452685
0.000179513172883385
0.000153970922759259
0.000140702945140048
0.0001597997702855
0.00016703116852658
0.000179789184655193
0.000128527100112669
0.000156578323763081
0.000178734960378182
0.000150933762298772
0.000175535855882222
0.000213778441473514
0.00020555652143432
0.000177238851142338
0.000140189334132402
0.000112052986100576
0.00012663650351743
0.000138067211005867
0.000144599266866709
0.000133383826639376
0.000146670574059566
0.000140508960218972
0.000143025406808011
0.000148160941633263
0.000143659705090276
0.000131282539122968
0.000146948775336756
0.000148648911915286
0.000136936972857319
0.000143332019222132
0.000151865429362447
0.000157990753815509
0.000156050721964689
0.000153490296934996
0.000149275834425172
0.000158041327552382
0.000131259095233696
0.00012319277157772
0.000152165467606518
0.000175010429839639
0.000152558524779197
0.000153254747801811
0.000148873331441592
0.000168760397822083
0.000144696673191188
0.000168867732570513
0.000130428831531912
0.000152128981668825
0.000144402067170848
0.000164918863441611
0.000182160424003218
0.000176488927809179
0.000145352923124901
0.000129178624058897
0.000146341250376468
0.000166057070789257
0.000129822772896446
0.000150712571054355
0.000152231407402692
0.000155808740100994
0.000140061801004275
0.000191118002871455
0.000140202202066633
0.000148031198133493
0.000119986937034603
0.000157718117109416
0.000147078681190282
0.000138385441496116
0.000158428130387698
0.000150726513144027
0.000146314514752922
0.000158393343316786
0.000145466560199741
0.000161340593976249
0.000179759380119531
0.000131532234028945
0.000160503678313932
0.000147205798603251
0.00017361936670326
0.000154604722770843
0.000170535550582027
0.000125229488620125
0.000162886510946733
0.000163282287180229
0.000152704909052631
0.000150550083277672
0.00012744730923498
0.000155444093727941
0.000164803617329103
0.000140569951187459
0.000100014647237891
0.000155459901428784
0.000145924346700659
0.000146205976746788
0.000147949532287121
0.00015191503608161
0.000154899623128885
0.000118095184468241
0.000186640165696017
0.000143385284499686
0.000128770449451465
0.000157489180815575
0.000143712270950772
0.000168973163922764
0.000122947013322256
0.000167032514280769
0.000120581889235091
0.000170780182826131
0.000124338737438517
0.000150145963028696
0.000146557132459055
0.000127982917982781
0.000136770546250958
0.000133261044918991
0.00016460033621795
0.000151556449420392
0.00014875339198087
0.000151319411216403
0.00016237836601892
0.000196956060648802
0.000133107282474353
0.000123530360188335
0.000167678824512213
0.00014929500150894
0.000159444776919137
0.000192137821583176
0.000186338201913637
0.000145247415748556
0.000139441176470695
0.000134647563654014
0.000151954260201176
0.000124223514672975
0.000125561351561288
0.000140249093104331
0.000157964482164827
0.000175044794602218
0.000149458615925167
0.000130856773199711
0.000142817291527191
0.000125895375826342
0.000150976306245607
0.000157891319631115
0.000146346277756491
0.000155510480662272
0.000164685580775878
0.000138791171580958
0.000154599379817621
0.000153944440652341
0.000138192392869606
0.000149944048144916
0.000152836487261591
0.000181012011851893
0.000138846904935809
0.000182561200405718
0.000115398944082314
0.000155583333385708
0.000158658048410753
0.000155961198738941
0.000121819167072824
0.000135765407105958
0.000186444937712956
0.000146195283591389
0.000171222540183841
0.00015368549907186
0.00012340590325779
0.000137405471587871
0.000130391758894293
0.000176233746016258
0.00015767464896044
0.000151405164800459
0.00011599330644169
0.000176897781249785
0.00013573218624178
0.000181176352854455
0.000140898830642152
0.000149824891344745
0.000152195855818773
0.000148421117188845
0.000127057790829027
0.000149758648111102
0.000151416076387086
0.000164288211624106
0.000154300425578345
0.000151352478529959
)
;

boundaryField
{
    partSide
    {
        type            symmetry;
    }
    partBound
    {
        type            zeroGradient;
    }
    nullDims
    {
        type            empty;
    }
}


// ************************************************************************* //
