/*--------------------------------*- C++ -*----------------------------------*\
  =========                 |
  \\      /  F ield         | OpenFOAM: The Open Source CFD Toolbox
   \\    /   O peration     | Website:  https://openfoam.org
    \\  /    A nd           | Version:  7
     \\/     M anipulation  |
\*---------------------------------------------------------------------------*/
FoamFile
{
    version     2.0;
    format      ascii;
    class       Cloud<dsmcParcel>;
    location    "0.002/lagrangian/dsmc";
    object      positions;
}
// * * * * * * * * * * * * * * * * * * * * * * * * * * * * * * * * * * * * * //

6907
(
(0.03037613472 0.07027618719 0.4848119326 0.4145357455) 529 1028 1
(0.3421369661 0.328931517 0.2344977995 0.09443371751) 459 897 1
(0.2274295938 0.3617885339 0.3862852031 0.02449666918) 503 978 1
(0.02806333567 0.4859683322 0.3339201454 0.1520481868) 519 2623 2
(0.4559885487 0.08670235712 0.1853033686 0.2720057257) 486 930 2
(0.3908433059 0.3045783471 0.2601722075 0.0444061396) 478 931 2
(0.1702295207 0.2953263739 0.4148852397 0.1195588657) 448 877 2
(0.5920269859 0.203986507 0.02776890263 0.1762176044) 447 872 2
(0.225753356 0.1193868572 0.2677364648 0.387123322) 457 875 2
(0.2152117278 0.387311446 0.3923941361 0.005082690127) 515 1001 1
(0.1526662353 0.4236668824 0.3635381557 0.06012872666) 467 912 2
(0.3563814595 0.1697791537 0.1520301166 0.3218092702) 478 915 2
(0.2552267018 0.3723866491 0.2964320732 0.07595457589) 449 876 2
(0.7310207407 0.0002409095106 0.1342487201 0.1344896296) 458 895 1
(0.01226934769 0.4938653262 0.1421365268 0.3517287993) 449 878 1
(0.1359349036 0.2557866506 0.1762458976 0.4320325482) 447 1305 1
(0.5228043731 0.1802877027 0.2385978135 0.05831011077) 463 905 2
(0.1739791107 0.1710275749 0.2419828697 0.4130104446) 449 1307 1
(0.1264376676 0.4367811662 0.3521039924 0.08467717379) 489 2620 2
(0.004237859635 0.4426222159 0.4978810702 0.0552588543) 469 914 1
(0.4045968088 0.1271635984 0.1705379971 0.2977015956) 457 875 2
(0.3978144041 0.3010927979 0.004230090035 0.2968627079) 447 1305 2
(0.4653267227 0.2165444439 0.2673366386 0.05079219473) 512 998 2
(0.2204999424 0.3897500288 0.1034740906 0.2862759382) 475 928 1
(0.5723593371 0.2138203315 0.07255917812 0.1412611533) 448 1306 2
(0.4004247056 0.2997876472 0.09378265223 0.206004995) 487 950 2
(0.3644958627 0.3177520687 0.2327739368 0.08497813187) 497 970 1
(0.4802668003 0.2598665999 0.1814080314 0.07845856844) 459 897 1
(0.3604648013 0.3197675993 0.313148321 0.006619278331) 479 935 1
(0.05210292458 0.4739485377 0.138659986 0.3352885517) 468 912 2
(0.145664321 0.03287534328 0.4271678395 0.3942924962) 463 905 2
(0.2324038683 0.3837980658 0.3398676862 0.04393037965) 459 897 1
(0.04593565294 0.2535778645 0.4770321735 0.2234543091) 455 887 1
(0.03065352292 0.4846732385 0.01294656049 0.4717266781) 449 2616 2
(0.2263397285 0.3868301357 0.06361218136 0.3232179544) 456 891 2
(0.7528769095 0.01527316417 0.1082883811 0.1235615453) 458 877 2
(0.612249875 0.1938750625 0.001093209829 0.1927818527) 469 914 2
(0.1778390427 0.2494658166 0.4110804786 0.161614662) 458 893 1
(0.3251083955 0.2354774633 0.3374458022 0.101968339) 487 951 2
(0.1706757798 0.4146621101 0.3825268075 0.03213530266) 592 1131 1
(0.6188804064 0.1905597968 0.1714870248 0.01907277207) 459 878 1
(0.03954109398 0.480229453 0.4688535633 0.01137588972) 517 1007 2
(0.531040293 0.2344798535 0.2015369505 0.03294290302) 579 2629 2
(0.8146367139 0.05802151527 0.03466012776 0.09268164303) 517 989 2
(0.3387888496 0.3306055752 0.2653365797 0.06526899547) 458 895 2
(0.6485368585 0.1757315707 0.06554944856 0.1101821222) 467 912 2
(0.006652380189 0.183372219 0.3133015909 0.4966738099) 444 868 1
(0.3031616513 0.3484191743 0.03872921628 0.3096899581) 449 1307 2
(0.3950963062 0.02443027166 0.2780215752 0.3024518469) 476 911 2
(0.699210604 0.05058560746 0.09980909056 0.150394698) 508 990 1
(0.2180702159 0.1237963923 0.2671684998 0.3909648921) 507 988 1
(0.2496093433 0.1038938975 0.2713014309 0.3751953283) 557 1065 2
(0.4917315256 0.2541342372 0.2401107198 0.01402351734) 507 989 1
(0.3195601494 0.3402199253 0.2311931206 0.1090268046) 458 893 2
(0.08474724689 0.2704125214 0.1872138552 0.4576263766) 537 1027 2
(0.3465519625 0.2346809513 0.3267240188 0.09204306741) 488 950 1
(0.7191353608 0.08890695425 0.05152536534 0.1404323196) 455 889 1
(0.0865528589 0.4567235705 0.4094067506 0.04731681996) 445 868 2
(0.2071388552 0.3964305724 0.294345362 0.1020852104) 517 1007 2
(0.5648841289 0.1271441957 0.09041373987 0.2175579356) 469 2618 1
(0.08488108885 0.4575594556 0.3088035164 0.1487559392) 505 982 2
(0.219346834 0.1886686672 0.390326583 0.2016579158) 459 897 2
(0.2564787506 0.3717606247 0.3092085981 0.06255202658) 499 2621 2
(0.2337053299 0.06185621077 0.3212911243 0.383147335) 457 893 1
(0.05776598857 0.4711170057 0.3944981051 0.07661890057) 488 952 2
(0.194802533 0.3180441442 0.08455458932 0.4025987335) 485 946 1
(0.4091514523 0.2954242739 0.003723533823 0.29170074) 456 873 1
(0.5509564558 0.2245217721 0.04241356061 0.1821082115) 446 1304 2
(0.3199618484 0.1805600305 0.1594590454 0.3400190758) 475 927 1
(0.371063429 0.3144682855 0.2519099745 0.06255831095) 464 907 1
(0.4821064789 0.2589467605 0.1627604958 0.09618626479) 448 874 2
(0.325505305 0.3372473475 0.2813150993 0.05593224823) 499 954 1
(0.1308588801 0.4345705599 0.2152038884 0.2193666715) 608 1181 1
(0.3528660927 0.1062302223 0.2173367314 0.3235669536) 539 2625 1
(0.04192836117 0.4790358194 0.203312297 0.2757235225) 447 874 2
(0.2102988748 0.3948505626 0.0001706643626 0.3946798982) 117 234 2
(0.5256707826 0.1489607471 0.0882038616 0.2371646087) 473 905 2
(0.5816970126 0.2091514937 0.02336396423 0.1857875295) 469 916 1
(0.03250098468 0.4612863458 0.02246316184 0.4837495077) 456 873 2
(0.2583564726 0.3708217637 0.2597615925 0.1110601712) 478 915 1
(0.1512125172 0.2035760981 0.2208176433 0.4243937414) 447 874 1
(0.70585391 0.1369653985 0.147073045 0.01010764644) 528 1026 1
(0.2895029463 0.3552485269 0.171286653 0.1839618739) 539 1049 1
(0.3989459557 0.2084040038 0.0921230183 0.3005270221) 449 2616 1
(0.2851813886 0.3574093057 0.333379403 0.02402990268) 509 2622 2
(0.37728958 0.2299123228 0.31135521 0.08144288722) 446 870 1
(0.2761626204 0.3619186898 0.1700876676 0.1918310223) 467 894 1
(0.3700300737 0.3149849631 0.2439067894 0.07107817371) 559 1087 1
(0.5933449527 0.2029220634 0.2033275237 0.0004054603113) 458 896 2
(0.634170478 0.182914761 0.1825496325 0.0003651285474) 454 888 1
(0.6780663303 0.06501489827 0.09595193658 0.1609668348) 445 1303 1
(0.1777765301 0.411111735 0.4043515325 0.00676020241) 134 268 2
(0.390680721 0.1403802755 0.164279364 0.3046596395) 499 954 2
(0.1036899874 0.4481550063 0.3139294764 0.1342255299) 488 953 1
(0.4883487337 0.2558256331 0.1612593248 0.09456630839) 487 948 2
(0.1816889191 0.4091555404 0.01807727283 0.3910782676) 455 890 1
(0.1211235257 0.4394382372 0.3044612057 0.1349770315) 458 895 2
(0.4110568504 0.2944715748 0.2100991204 0.08437245445) 457 894 1
(0.121972811 0.4390135945 0.4338910479 0.005122546616) 458 877 1
(0.7370579428 0.06324531823 0.1314710286 0.06822571038) 637 1233 1
(0.5005939829 0.1003165603 0.1493864482 0.2497030086) 506 986 1
(0.1408072181 0.3374348496 0.09216154137 0.4295963909) 459 878 2
(0.6763601858 0.05978278277 0.1618199071 0.1020371243) 508 991 2
(0.3938833222 0.2211130948 0.08194524405 0.3030583389) 544 1040 2
(0.1230776812 0.2212778612 0.4384611594 0.2171832982) 447 875 2
(0.4949028264 0.2525485868 0.03366981469 0.2188787721) 474 907 1
(0.8313588642 0.08432056791 0.01468453615 0.06963603176) 467 894 1
(0.05941149915 0.4702942504 0.319848889 0.1504453614) 508 988 2
(0.4388339231 0.01552663683 0.2650564016 0.2805830385) 479 916 2
(0.1428092464 0.4285953768 0.2956901337 0.1329052432) 449 876 2
(0.8861928269 0.05690358655 0.04906858759 0.007834998959) 455 889 2
(0.37662698 0.31168651 0.09387739201 0.217809118) 446 872 2
(0.2667952719 0.363950544 0.366602364 0.00265182002) 469 914 1
(0.1640636267 0.0793973147 0.338570872 0.4179681867) 454 869 2
(0.1558075046 0.1576964379 0.2643998098 0.4220962477) 507 970 2
(0.4504218581 0.07144374397 0.203345327 0.274789071) 464 906 1
(0.2248821919 0.3875589041 0.2733114977 0.1142474063) 446 870 2
(0.1235137309 0.1864883546 0.25175478 0.4382431346) 525 1004 2
(0.635166703 0.1824166485 0.05260214169 0.1298145068) 528 1028 2
(0.7187005698 0.1406497151 0.05326273627 0.08738697884) 459 897 1
(0.312732715 0.3436336425 0.176378732 0.1672549105) 488 953 1
(0.6469089235 0.1765455382 0.1685260193 0.008019518946) 466 910 2
(0.2224562257 0.3887718871 0.2897436005 0.09902828658) 502 979 1
(0.003180855449 0.3004931011 0.4984095723 0.1979164711) 529 1030 2
(0.2780278342 0.2057448126 0.1552412703 0.3609860829) 464 906 1
(0.5496928459 0.2043840696 0.2251535771 0.02076950744) 508 988 1
(0.6365178227 0.1735458958 0.1817410887 0.008195192883) 509 992 2
(0.26024771 0.369876145 0.2307583233 0.1391178217) 546 1044 1
(0.631493202 0.1291307556 0.184253399 0.05512264338) 446 870 1
(0.1185675229 0.4407162385 0.2796622803 0.1610539582) 469 914 2
(0.6048612252 0.1761709288 0.02139845863 0.1975693874) 448 876 1
(0.53422849 0.232885755 0.1839006255 0.04898512951) 465 906 2
(0.005466359981 0.49726682 0.4770936823 0.02017313766) 549 1068 1
(0.2644969107 0.0969777864 0.3677515446 0.2707737582) 497 967 1
(0.3378133928 0.3310933036 0.004183602924 0.3269097007) 545 1061 1
(0.3987802329 0.3006098836 0.1805628646 0.1200470189) 457 891 2
(0.04951465954 0.1082374568 0.4752426702 0.3670052135) 443 867 2
(0.4380487812 0.2809756094 0.2805225781 0.0004530312827) 445 1303 2
(0.1958952238 0.4020523881 0.1805658426 0.2214865456) 509 992 1
(0.08458891746 0.02413659484 0.4335689464 0.4577055413) 497 969 1
(0.399582266 0.300208867 0.207009625 0.09319924196) 504 982 2
(0.5326356694 0.2336821653 0.1614148029 0.07226736236) 453 886 1
(0.133907278 0.1691705721 0.433046361 0.2638757889) 467 913 2
(0.2721496019 0.3249509293 0.3639251991 0.03897426979) 459 897 2
(0.3796674219 0.310166289 0.04227562619 0.2678906628) 447 872 2
(0.5814808526 0.2092595737 0.0122444504 0.1970151233) 445 1303 2
(0.7727881925 0.1136059038 0.109860989 0.003744914775) 458 895 2
(0.3763782191 0.3118108904 0.3030633556 0.008747534806) 527 1024 2
(0.3356330036 0.3321834982 0.2767026161 0.05548088208) 558 1086 1
(0.4040331991 0.2833349777 0.01464842274 0.2979834005) 459 878 2
(0.2594920496 0.01938868759 0.3508652876 0.3702539752) 499 954 2
(0.1757719935 0.2738545203 0.138259483 0.4121140033) 459 878 2
(0.4732161093 0.2633919454 0.08259184853 0.1808000968) 459 897 1
(0.2289430499 0.385528475 0.3644440537 0.02108442132) 456 892 1
(0.5901656257 0.2049171872 0.1831325325 0.02178465466) 472 921 2
(0.4508096706 0.04428457269 0.2745951647 0.230310592) 469 914 1
(0.4712354069 0.03391611341 0.2304661831 0.2643822965) 449 2616 1
(0.3774972754 0.03525915489 0.3112513623 0.2759922074) 457 894 2
(0.542043586 0.1353013995 0.228978207 0.0936768075) 569 1104 1
(0.4255679847 0.2112022693 0.2872160077 0.07601373834) 453 883 1
(0.1391641293 0.1979755755 0.2324423599 0.4304179354) 447 874 1
(0.3945291707 0.07489224117 0.2278431735 0.3027354146) 446 1304 1
(0.08404086511 0.4579795674 0.1327215477 0.3252580197) 465 890 1
(0.08761338785 0.04679643468 0.4093968714 0.4561933061) 469 2618 1
(0.2031345637 0.3984327182 0.2641906242 0.1342420939) 535 1042 1
(0.2532093719 0.3184524665 0.05494284754 0.373395314) 506 986 1
(0.1016184262 0.2900503962 0.4491907869 0.1591403907) 579 1125 2
(0.2979552712 0.2024072985 0.3510223644 0.1486150659) 463 905 2
(0.26335562 0.36832219 0.3073541529 0.06096803705) 466 892 1
(0.3709197264 0.3145401368 0.1148802733 0.1996598635) 484 945 1
(0.3281221408 0.2990673793 0.3359389296 0.03687155032) 477 929 1
(0.4367700935 0.006987074827 0.2816149532 0.2746278784) 447 875 2
(0.3522658763 0.3238670618 0.0380119118 0.28585515) 584 1134 2
(0.01889433009 0.4304029779 0.06014985708 0.490552835) 448 1306 1
(0.1269994575 0.4365002713 0.05079145087 0.3857088204) 459 895 2
(0.4013697404 0.2993151298 0.2672252481 0.03208988169) 464 904 2
(0.2735268908 0.3632365546 0.03412745758 0.329109097) 619 1199 2
(0.6222538284 0.1888730858 0.1864441199 0.002428965916) 498 953 1
(0.2274996664 0.1361136164 0.2501365504 0.3862501668) 458 877 2
(0.4451721084 0.1481977998 0.129216146 0.2774139458) 448 876 1
(0.5345151425 0.02190565222 0.2108367766 0.2327424288) 447 1305 1
(0.4924100905 0.2537949547 0.08847066725 0.1653242875) 500 974 2
(0.7993358417 0.06509694659 0.03523513254 0.1003320791) 465 890 2
(0.1367548472 0.4316225764 0.3365976359 0.09502494053) 519 992 1
(0.4091589967 0.2954205017 0.1124634285 0.1829570731) 489 2620 2
(0.06809555149 0.4659522243 0.2653566084 0.2005956158) 455 890 1
(0.03671775042 0.3636116093 0.1180295155 0.4816411248) 449 2616 1
(0.4899562248 0.1635563288 0.09146555874 0.2550218876) 464 888 2
(0.2050339565 0.3974830217 0.258024023 0.1394589987) 444 869 1
(0.3289360061 0.3355319969 0.1616874613 0.1738445357) 445 870 2
(0.2865989334 0.3567005333 0.2131196005 0.1435809328) 447 1305 2
(0.5740019212 0.2129990394 0.04934508465 0.1636539547) 481 938 2
(0.1473940383 0.1101945193 0.4263029809 0.3161084615) 458 893 1
(0.09534582405 0.452327088 0.3831850958 0.06914199215) 452 865 1
(0.5712340147 0.1868504398 0.02753255283 0.2143829927) 476 929 1
(0.5070262423 0.1059718191 0.1405150598 0.2464868789) 526 1006 2
(0.1171984173 0.4396807066 0.001720084755 0.4414007914) 506 986 1
(0.4396960523 0.2801519738 0.2292727393 0.05087923452) 466 908 2
(0.6118446052 0.1653511558 0.02872654166 0.1940776974) 458 877 2
(0.4438980453 0.254661386 0.02338959139 0.2780509773) 458 877 2
(0.3434184903 0.02812441931 0.3282907548 0.3001663355) 459 897 2
(0.4981048388 0.105187888 0.2509475806 0.1457596926) 445 868 1
(0.04498005158 0.4775099742 0.2158094072 0.261700567) 479 933 2
(0.5037853796 0.2481073102 0.006785964829 0.2413213453) 487 948 2
(0.6741906348 0.07400633038 0.1629046826 0.08889835224) 549 1066 1
(0.253273611 0.1755549436 0.3733631945 0.1978082509) 455 887 1
(0.3382018717 0.3308990642 0.03709605996 0.2938030042) 477 913 1
(0.04843878687 0.1271554668 0.3486251398 0.4757806066) 478 915 2
(0.3923806419 0.303809679 0.06268452167 0.2411251574) 479 2619 2
(0.05403064618 0.1959737022 0.4729846769 0.2770109747) 477 932 2
(0.384737053 0.005542191536 0.302089282 0.3076314735) 444 1302 1
(0.7638977324 0.1180511338 0.1073477387 0.01070339513) 448 1306 2
(0.04268336974 0.4786583151 0.163398956 0.3152593591) 567 1084 1
(0.2844307029 0.01378769809 0.3439969504 0.3577846485) 529 1011 2
(0.3226094212 0.2102223947 0.1284728947 0.3386952894) 508 972 2
(0.3137655748 0.3431172126 0.03740442657 0.305712786) 617 1195 2
(0.4653181905 0.1913061669 0.07603473784 0.2673409047) 629 2634 1
(0.3087658616 0.09895712637 0.3456170692 0.2466599428) 498 969 1
(0.06140587797 0.0774224524 0.3918746086 0.469297061) 482 922 2
(0.005376917767 0.4973115411 0.2792987651 0.218012776) 474 907 1
(0.1318847693 0.3816000502 0.4340576154 0.05245756516) 477 932 2
(0.2122990007 0.1601416091 0.3938504997 0.2337088906) 442 865 2
(0.6236808272 0.1881595864 0.1507089731 0.03745061329) 465 906 2
(0.3771483157 0.001876247192 0.3114258422 0.309549595) 466 908 1
(0.1421117147 0.3675107526 0.4289441427 0.06143339006) 467 913 2
(0.6174879676 0.1912560162 0.1499814488 0.04127456741) 549 2626 2
(0.1457408698 0.1828281156 0.2443014495 0.4271295651) 448 1306 1
(0.2246577522 0.04182642804 0.3458446959 0.3876711239) 508 990 1
(0.218041194 0.0517627707 0.3392166323 0.390979403) 467 912 1
(0.2533106204 0.2617052149 0.1116394749 0.3733446898) 527 1026 1
(0.4273708781 0.2863145609 0.07918777087 0.2071267901) 489 935 1
(0.4263802888 0.1146797899 0.1721300657 0.2868098556) 458 877 2
(0.04011394121 0.4799430294 0.1108136897 0.3691293397) 448 877 1
(0.302911815 0.3485440925 0.06918118253 0.27936291) 469 2618 2
(0.6420009186 0.01102001088 0.1789995407 0.1679795298) 447 875 2
(0.3447390565 0.3276304718 0.1500957658 0.177534706) 444 868 2
(0.3010103888 0.3494948056 0.1652321301 0.1842626755) 469 916 1
(0.3766266547 0.3116866727 0.235380251 0.07630642163) 468 915 1
(0.478599937 0.1966508058 0.06404922573 0.2607000315) 447 874 1
(0.2697787686 0.3651106157 0.2259220243 0.1391885914) 469 2618 2
(0.3603462088 0.3198268956 0.3011648876 0.01866200803) 519 1009 2
(0.7158441073 0.07756827978 0.1420779463 0.06450966655) 544 1056 1
(0.341547289 0.05095573759 0.3292263555 0.2782706179) 449 876 1
(0.3853623027 0.3073188486 0.2202404483 0.08707840028) 554 1077 2
(0.1728901677 0.4135549162 0.01356034328 0.3999945729) 526 1024 2
(0.7870882163 0.1064558919 0.02229012933 0.08416576252) 599 1163 1
(0.2968260779 0.3320392079 0.351586961 0.01954775311) 629 1218 1
(0.6254958898 0.112241506 0.07501054906 0.1872520551) 456 891 1
(0.1901269582 0.4049365209 0.1237501132 0.2811864077) 447 1305 2
(0.7975287726 0.06296072767 0.03827488603 0.1012356137) 448 876 1
(0.2651467685 0.3547582742 0.3674266158 0.01266834159) 448 874 1
(0.3345874681 0.332706266 0.1298675766 0.2028386893) 445 868 2
(0.0653719696 0.4673140152 0.0389559553 0.4283580599) 446 873 1
(0.1068143897 0.4465928051 0.1216936285 0.3248991766) 514 1001 2
(0.0001509040599 0.499924548 0.4536473765 0.0462771715) 479 935 1
(0.646764498 0.1532115229 0.176617751 0.02340622808) 498 969 1
(0.03801159014 0.4525001411 0.02849406383 0.4809942049) 497 951 2
(0.600479018 0.02688188158 0.1728786094 0.199760491) 455 871 2
(0.2712257228 0.3366885312 0.3643871386 0.02769860737) 509 992 2
(0.7798404196 0.1100797902 0.007408187885 0.1026716023) 529 1028 2
(0.06048249855 0.251082026 0.2186767247 0.4697587507) 459 878 2
(0.05815415888 0.4709229206 0.2219367798 0.2489861408) 458 896 1
(0.3911245756 0.1211724124 0.1832652998 0.3044377122) 498 971 1
(0.0005671170635 0.4997164415 0.2826875451 0.2170288964) 477 931 2
(0.3348337762 0.2474116569 0.3325831119 0.08517145494) 459 897 2
(0.769708249 0.05323613954 0.06190973598 0.1151458755) 465 890 2
(0.1990350274 0.4004824863 0.2805303508 0.1199521355) 456 892 1
(0.2425720183 0.08393044488 0.294783546 0.3787139908) 539 2625 1
(0.4679207957 0.2660396021 0.1421923015 0.1238473006) 478 931 2
(0.02342557442 0.4690470842 0.4882872128 0.01924012855) 538 1048 2
(0.294788148 0.352605926 0.0297943163 0.3228116097) 459 897 1
(0.3098350974 0.3450824513 0.08799341812 0.2570890332) 642 1226 1
(0.6368104318 0.112348926 0.1815947841 0.06924585815) 459 897 2
(0.3732304516 0.1714614786 0.3133847742 0.1419232956) 449 878 2
(0.4368039187 0.2815980406 0.1298487415 0.1517492992) 531 1034 1
(0.5061697289 0.2264720314 0.2469151355 0.02044310414) 488 953 2
(0.2550499139 0.1981462318 0.372475043 0.1743288113) 478 934 2
(0.3869602491 0.2266926393 0.3065198754 0.07982723614) 478 931 1
(0.1442608532 0.1182682957 0.4278695734 0.3096012777) 457 894 2
(0.13850145 0.430749275 0.04355958631 0.3871896887) 496 967 2
(0.5297705818 0.2351147091 0.1896624285 0.04545228062) 498 969 2
(0.2395217937 0.03923816208 0.3410009411 0.3802391031) 466 892 2
(0.8153204257 0.09233978714 0.07531165654 0.0170281306) 456 889 2
(0.4634227104 0.2682886448 0.08786100732 0.1804276375) 579 1106 1
(0.04681454731 0.4765927263 0.3343832598 0.1422094665) 567 1103 1
(0.1692247086 0.4153876457 0.0452676885 0.3701199572) 478 934 1
(0.5232634031 0.08555672272 0.2383682984 0.1528115757) 459 895 1
(0.2602990982 0.1314198036 0.2384306473 0.3698504509) 577 1121 1
(0.1382545342 0.1677229771 0.2631497558 0.4308727329) 619 2633 1
(0.7383642114 0.1308178943 0.02955365825 0.1012642361) 487 932 1
(0.4231034897 0.2205906987 0.06785755646 0.2884482552) 477 913 2
(0.2606659792 0.3195335693 0.05013344115 0.3696670104) 465 890 2
(0.7807791597 0.01177349327 0.1096104202 0.0978369269) 456 892 2
(0.3065569949 0.2721892043 0.0745322982 0.3467215025) 453 867 2
(0.702853638 0.1074570969 0.04111608412 0.148573181) 459 2617 1
(0.7038768136 0.1480615932 0.03062339229 0.1174382009) 456 892 1
(0.05313542421 0.4734322879 0.0555650737 0.4178672142) 449 878 1
(0.5666675081 0.08258363324 0.216666246 0.1340826127) 457 891 1
(0.1016502797 0.4429790823 0.006195777871 0.4491748601) 445 870 1
(0.3084815352 0.1813757717 0.1643834607 0.3457592324) 467 912 1
(0.0002002005657 0.4998998997 0.145649432 0.3542504677) 489 2620 2
(0.4327629091 0.05305172147 0.2836185455 0.230566824) 499 971 1
(0.4421680899 0.1466166868 0.1322992683 0.2789159551) 489 935 2
(0.5004390186 0.1888996336 0.2497804907 0.06088085711) 537 1046 2
(0.06225336787 0.006383341463 0.4624899746 0.4688733161) 444 1302 1
(0.2560448718 0.01791274929 0.3719775641 0.3540648148) 567 1103 2
(0.5244526985 0.06950584895 0.2377736508 0.1682678018) 507 989 2
(0.1224490917 0.1082732839 0.4387754541 0.3305021702) 569 1104 1
(0.02330503456 0.4883474827 0.1545930266 0.3337544561) 567 1103 1
(0.7523367727 0.1238316136 0.1086478498 0.0151837638) 488 934 1
(0.06892926922 0.4655353654 0.00393402382 0.4616013416) 467 912 2
(0.3923126227 0.176442494 0.1274011946 0.3038436887) 498 971 1
(0.006164399065 0.04818612781 0.4969178005 0.4487316727) 469 916 2
(0.7586150545 0.1123085501 0.1206924727 0.008383922603) 498 972 2
(0.3944984162 0.1150019855 0.1877488064 0.3027507919) 469 897 2
(0.6120986166 0.1939506917 0.0702987051 0.1236519866) 516 987 1
(0.7121545737 0.1439227131 0.02172500274 0.1221977104) 484 944 2
(0.6098222684 0.1187522078 0.1950888658 0.07633665797) 479 935 2
(0.490471623 0.1976662217 0.05709796676 0.2547641885) 519 2623 1
(0.2496702368 0.2397448759 0.3751648816 0.1354200057) 448 874 1
(0.4646689716 0.05127986296 0.2163856512 0.2676655142) 448 876 1
(0.06017583402 0.469912083 0.2201047813 0.2498073017) 517 1007 2
(0.5947755591 0.1226001833 0.08001203715 0.2026122205) 459 878 2
(0.5301214522 0.2349392739 0.1711760606 0.06376321326) 518 1009 2
(0.2660043602 0.3669978199 0.2827132414 0.08428457851) 487 948 2
(0.1528009807 0.4235995097 0.1511903857 0.272409124) 449 878 1
(0.7696237513 0.1151881243 0.07568394795 0.03950417639) 509 990 2
(0.4290136013 0.1722326447 0.1132605546 0.2854931994) 457 893 1
(0.6876310559 0.09072001589 0.1561844721 0.06546445617) 497 970 2
(0.5346208022 0.1095697812 0.1231198177 0.2326895989) 547 1046 2
(0.392997536 0.303501232 0.2560837541 0.04741747795) 447 1305 2
(0.6617664302 0.1691167849 0.04405937703 0.1250574078) 589 1125 1
(0.2323574035 0.08970759622 0.294113702 0.3838212982) 519 992 2
(0.1525463546 0.2013948377 0.4237268227 0.222331985) 548 1064 1
(0.5223516042 0.0385529737 0.2002712242 0.2388241979) 554 1077 1
(0.03120455135 0.4843977243 0.095955383 0.3884423413) 476 930 1
(0.9020141631 0.02321845844 0.04899291844 0.02577446) 469 916 2
(0.0866921311 0.1325675756 0.3240863588 0.4566539344) 445 870 1
(0.5512346593 0.2243826704 0.05658021489 0.1678024555) 539 2625 2
(0.6970646511 0.1514676744 0.04566192611 0.1058057483) 477 913 1
(0.4403383137 0.2798308432 0.1749099028 0.1049209403) 447 872 2
(0.3255797212 0.2423532577 0.09485688166 0.3372101394) 442 864 1
(0.2628511676 0.3685744162 0.09178119426 0.2767932219) 519 1009 2
(0.5302518832 0.01957610955 0.2152979489 0.2348740584) 469 2618 1
(0.0264991184 0.4867504408 0.2120413503 0.2747090905) 479 2619 2
(0.03949696288 0.4802515186 0.455337551 0.02491396758) 443 866 2
(0.03712405997 0.2270649301 0.48143797 0.25437304) 467 913 2
(0.2205145 0.38974275 0.1036264672 0.2861162829) 467 913 1
(0.05047417009 0.01419986496 0.46056305 0.474762915) 559 2627 1
(0.645884094 0.177057953 0.1435208151 0.03353713793) 489 954 1
(0.3493342686 0.1336106605 0.3253328657 0.1917222052) 529 1028 1
(0.2614997368 0.05979368044 0.3094564512 0.3692501316) 567 1084 2
(0.03593067887 0.4820346606 0.258759061 0.2232755996) 547 1046 1
(0.3907536022 0.3046231989 0.2547763522 0.04984684671) 534 1039 2
(0.1790875449 0.07622232159 0.4104562276 0.334233906) 554 1078 2
(0.3939602179 0.26813348 0.03488641099 0.303019891) 446 1304 1
(0.7443720754 0.09681066147 0.1278139623 0.03100330084) 496 968 2
(0.107592854 0.14875323 0.297450343 0.446203573) 519 2623 1
(0.2642668003 0.3678665998 0.2499448234 0.1179217765) 508 972 1
(0.2095978192 0.1158926006 0.2793084899 0.3952010904) 498 953 2
(0.3339734769 0.1597087364 0.1733045251 0.3330132616) 469 2618 1
(0.03368998986 0.1576959653 0.4831550051 0.3254590398) 446 873 2
(0.2540017277 0.07729201797 0.2957071182 0.3729991362) 459 878 2
(0.5655921278 0.09859237389 0.1186115622 0.2172039361) 469 2618 1
(0.03880238091 0.4805988095 0.3299328525 0.150665957) 518 1010 1
(0.7958906622 0.09721418397 0.1020546689 0.004840484943) 449 876 1
(0.6098268215 0.1893194495 0.005767139788 0.1950865893) 487 950 1
(0.01152996723 0.4942350164 0.4060403025 0.08819471388) 466 911 1
(0.6777864076 0.1611067962 0.04432455945 0.1167822367) 526 1024 2
(0.229119726 0.06140805197 0.385440137 0.3240320851) 466 908 1
(0.5242313508 0.2378843246 0.01986176458 0.21802256) 489 954 1
(0.2005177752 0.1762949374 0.3997411124 0.223446175) 517 1008 2
(0.4345147279 0.1498302238 0.282742636 0.1329124122) 489 954 2
(0.3678092802 0.1369264771 0.1791688828 0.3160953599) 444 1302 1
(0.5532504252 0.2233747874 0.0889446614 0.134430126) 650 2663 1
(0.1562236935 0.1141637312 0.4218881532 0.307724422) 499 973 2
(0.5783982722 0.2108008639 0.0314607993 0.1793400646) 507 988 2
(0.1379870647 0.4310064677 0.1344293954 0.2965770723) 176 313 1
(0.5020010618 0.2489994691 0.2357111107 0.01328835839) 584 1135 1
(0.2015878622 0.0580181597 0.3992060689 0.3411879092) 519 1011 2
(0.3774576694 0.3112711653 0.04374518332 0.267525982) 548 1067 1
(0.6760789397 0.0730736539 0.08888687625 0.1619605301) 578 1105 2
(0.33112342 0.33443829 0.159041029 0.1753972611) 547 1065 1
(0.4571496295 0.1095439349 0.1618812504 0.2714251853) 567 1084 2
(0.05410746179 0.0524401523 0.4729462691 0.4205061168) 626 1215 2
(0.415552033 0.1958752925 0.09634869098 0.2922239835) 457 875 2
(0.7671255979 0.03793520866 0.07850199237 0.116437201) 456 891 1
(0.3750003504 0.005358183706 0.3071416411 0.3124998248) 440 860 1
(0.1099039027 0.4450480487 0.3882158552 0.05683219348) 463 902 2
(0.7387770532 0.1306114734 0.09581746222 0.03479401116) 448 1306 2
(0.04451564097 0.4777421795 0.4513879086 0.02635427088) 509 990 2
(0.2992219076 0.3503890462 0.2100281826 0.1403608636) 499 971 2
(0.03786296023 0.3037250212 0.1773434987 0.4810685199) 509 973 2
(0.6465863183 0.03115013846 0.1455567024 0.1767068408) 469 2618 1
(0.7953117907 0.1023441047 0.09390090196 0.008443202689) 448 874 2
(0.1441092185 0.4279453908 0.08354757547 0.3443978153) 447 872 2
(0.8572805225 0.04786706391 0.02349267486 0.07135973877) 443 1301 1
(0.4387777495 0.07659212656 0.2806111253 0.2040189987) 569 1104 1
(0.04058516774 0.2882255893 0.4797074161 0.1914818268) 531 1034 2
(0.2730831098 0.3634584451 0.02464678686 0.3388116582) 535 1042 1
(0.7747638838 0.07211919753 0.04049886055 0.1126180581) 448 876 1
(0.6362348989 0.1818825506 0.1279232956 0.05395925497) 499 973 1
(0.07414599185 0.1827291019 0.2801979022 0.4629270041) 583 1114 2
(0.3233613592 0.2323990736 0.1059202468 0.3383193204) 485 928 2
(0.187628302 0.406185849 0.1759025507 0.2302832983) 537 1027 1
(0.00886938241 0.4955653088 0.2765841595 0.2189811493) 558 1067 1
(0.114368844 0.1300611615 0.442815578 0.3127544165) 578 1124 2
(0.214917288 0.1095515737 0.392541356 0.2829897823) 578 1121 1
(0.4440874805 0.2779562598 0.1808720219 0.09708423785) 618 1199 2
(0.8183249493 0.06023648063 0.03060104473 0.09083752535) 619 1182 2
(0.6059506139 0.197024693 0.07973723405 0.117287459) 618 1199 2
(0.5093456078 0.2417052434 0.2453271961 0.003621952665) 568 1102 1
(0.3358457053 0.3320771473 0.2177581003 0.114319047) 587 1138 2
(0.769535041 0.04530266684 0.1152324795 0.06992981265) 599 1161 1
(0.3113469003 0.1652767403 0.1790498095 0.3443265498) 485 928 2
(0.2130344113 0.3934827943 0.3306168223 0.06286597201) 474 923 2
(0.09008882112 0.1280037891 0.3269518003 0.4549555894) 461 900 1
(0.4050082856 0.2974958572 0.1317862958 0.1657095613) 448 1306 2
(0.5809924956 0.07363618622 0.135867566 0.2095037522) 446 1304 1
(0.004382226382 0.2540604892 0.2437483976 0.4978088868) 444 1302 1
(0.3564267881 0.1872367819 0.1345498241 0.3217866059) 509 973 2
(0.058702743 0.03543995971 0.4352086688 0.4706486285) 468 896 2
(0.4579700651 0.2710149675 0.02512704511 0.2458879224) 445 870 2
(0.1319785397 0.3218377029 0.1121730272 0.4340107301) 508 972 2
(0.4630704872 0.04119236459 0.2272723918 0.2684647564) 458 877 2
(0.3580055001 0.158888115 0.162109135 0.32099725) 457 875 2
(0.1687668697 0.4156165652 0.3013785434 0.1142380217) 489 952 2
(0.5500500995 0.2249749503 0.1763198303 0.04865512) 456 889 2
(0.7533495593 0.1212117128 0.1233252203 0.002113507593) 467 910 1
(0.2007384606 0.1974773782 0.2021533915 0.3996307697) 468 896 2
(0.2285213332 0.3857393334 0.2885634234 0.09717590999) 499 973 1
(0.1453623111 0.4273188444 0.3868772598 0.04044158459) 526 1022 2
(0.3957973395 0.1252893921 0.3021013302 0.1768119381) 496 968 2
(0.01819943252 0.1864341487 0.304466135 0.4909002837) 517 989 2
(0.5725376328 0.2137311836 0.1104617284 0.1032694553) 529 1030 1
(0.4181339631 0.2909330184 0.06014462205 0.2307883964) 567 1084 1
(0.1810751895 0.226165702 0.4094624052 0.1832967032) 518 1007 1
(0.1135560693 0.05352835992 0.3896936054 0.4432219654) 508 972 2
(0.2930379884 0.3534810058 0.0465853987 0.3068956071) 577 1103 1
(0.3921595809 0.2586680026 0.3039202095 0.04525220691) 557 1081 1
(0.5807159535 0.2096420233 0.07055063167 0.1390913916) 577 1122 1
(0.4001692165 0.2999153917 0.03292809244 0.2669872993) 619 1201 1
(0.2071254352 0.02270378568 0.3964372824 0.3737334967) 599 1163 2
(0.3088170203 0.3455914899 0.06258235004 0.2830091398) 443 866 2
(0.4848754754 0.1525593404 0.2575622623 0.1050029219) 442 862 1
(0.612152924 0.1130537554 0.193923538 0.08086978257) 487 948 1
(0.3066250576 0.3466874712 0.30148476 0.04520271114) 507 988 2
(0.4477454201 0.2048237546 0.27612729 0.07130353537) 446 870 1
(0.04281945435 0.2326102293 0.2459800436 0.4785902728) 519 992 2
(0.8235312407 0.08823437964 0.01800106237 0.07023331727) 468 912 2
(0.4362771876 0.09793209324 0.1839293129 0.2818614062) 443 1301 1
(0.2602097771 0.3698951115 0.104743595 0.2651515165) 443 864 2
(0.2599350699 0.3700324651 0.06474647671 0.3052859884) 515 1004 1