/*--------------------------------*- C++ -*----------------------------------*\
  =========                 |
  \\      /  F ield         | OpenFOAM: The Open Source CFD Toolbox
   \\    /   O peration     | Website:  https://openfoam.org
    \\  /    A nd           | Version:  7
     \\/     M anipulation  |
\*---------------------------------------------------------------------------*/
FoamFile
{
    version     2.0;
    format      ascii;
    class       volScalarField;
    location    "0.005";
    object      dsmcRhoNMean;
}
// * * * * * * * * * * * * * * * * * * * * * * * * * * * * * * * * * * * * * //

dimensions      [0 -3 0 0 0 0 0];

internalField   nonuniform List<scalar> 
546
(
8.2576
8.3644
8.3648
7.9184
8.234
7.9608
7.8568
7.7204
7.9008
7.6352
7.4368
7.3932
7.7052
7.3552
7.7576
7.1704
7.1524
7.414
7.4792
7.2492
8.3896
8.294
8.6408
8.36
8.1068
8.1308
8.1592
8.54
7.9076
7.6056
7.7268
7.6912
7.7356
7.5248
7.7488
7.3108
7.2432
7.2868
7.3204
7.1632
8.5136
8.7208
8.1176
7.9544
7.958
8.1252
8.3456
8.082
8.1584
7.5916
7.7068
7.7952
7.6772
7.378
7.7108
7.2792
7.368
7.5016
7.384
7.0468
8.78
8.458
7.7724
7.808
7.8908
8.1392
8.1436
7.5404
7.6504
7.9556
7.808
7.5032
7.726
7.6344
7.434
7.6592
7.4948
7.5252
7.3152
7.42
8.6408
8.286
8.0684
8.054
8.0096
8.0792
8.536
8.092
8.186
7.6032
7.8664
7.4632
7.4112
7.6876
7.4352
7.3656
7.4484
7.5204
7.5832
7.604
8.3116
8.5204
8.4388
8.2408
8.2492
8.0828
8.288
7.9588
8.0968
7.7876
7.7868
8.0248
7.6536
7.6928
7.518
7.558
7.3532
7.5552
7.528
7.6788
8.2416
8.818
8.762
8.5428
8.168
8.5196
8.3476
8.2264
8.1424
8.31
7.7812
7.8428
7.4864
7.588
7.8152
7.9348
7.7784
7.4596
7.6308
7.3352
8.5244
8.5552
8.3752
8.2344
8.2248
8.16
8.4148
8.36
8.0504
8.2776
8.0708
7.7972
7.6064
8.0456
8.198
7.9844
7.6652
7.6044
7.2888
7.5592
8.2536
8.3632
8.43
8.2492
8.4624
8.3776
8.2556
7.84
7.8204
7.9892
8.4132
8.3036
8.1116
7.9272
8.2948
8.0732
7.7812
7.6392
7.3888
7.942
8.4508
9.002
9.0488
8.4116
8.2372
8.4844
8.4552
8.1216
7.8896
8.036
8.1884
7.8704
7.9196
7.8964
8.3244
7.874
7.7844
7.5352
7.554
7.5812
8.5524
9.1672
8.6696
8.6124
8.4312
8.224
8.274
8.1424
8.1404
8.0472
7.722
8.038
8.132
7.8908
8.16
7.8928
8.0416
7.9992
7.6196
7.6396
8.3328
8.8692
8.9932
8.5108
8.2232
8.7088
8.5512
7.9496
8.2648
8.1596
8.2536
8.2392
7.9812
8.0504
7.5772
8.0376
8.1584
8.0144
7.5124
8.0144
8.462
8.8556
8.5668
8.4116
8.438
8.7064
8.7344
8.5864
8.1652
8.51
8.3032
8.2176
8.148
8.394
7.9868
7.9328
7.926
7.9696
7.7264
7.898
9.0184
8.9816
8.9712
8.8168
8.6416
8.5084
8.3132
8.3636
8.4196
8.764
8.382
7.9428
8.384
8.5316
7.9916
8.118
8.294
8.0776
7.9484
8.0348
8.5812
9.0772
9.0364
8.7924
9.284
8.5976
8.6288
8.4964
8.3508
8.7976
8.9764
8.3656
8.302
8.8012
8.17
7.9748
8.0752
8.3104
8.1624
8.4276
8.7652
9.0116
8.7992
8.1452
9.0096
8.588
8.6404
8.7796
8.5724
8.678
8.7524
8.5672
8.6012
8.4068
8.7156
8.3452
8.356
8.4184
8.204
8.366
8.9048
9.3364
9.0492
8.5488
8.8812
8.7948
8.7304
8.5996
8.3932
8.59
8.9096
8.7288
8.8216
8.2148
8.2664
8.3768
7.9088
8.3248
8.574
8.4348
9.1128
9.5528
9.1604
8.8512
8.8888
8.6132
8.65
8.88
8.8392
8.972
9.2308
8.9396
8.7332
8.4376
8.4216
8.508
8.0316
8.1852
8.532
8.5088
6.69
6.5344
6.3824
6.6788
6.384
6.3948
7.1416
7.2
6.6672
7.1808
6.7712
6.776
6.428
6.2948
6.2716
6.3812
7.0292
7.056
6.6732
6.9752
7.102
6.8876
6.652
6.7364
6.6196
6.5968
7.058
6.9304
6.814
7.1616
7.022
7.202
6.8892
6.9784
6.6916
6.3812
7.1676
7.3812
7.2048
7.0872
6.8944
6.8164
6.7612
6.7872
6.5588
6.7088
6.946
6.8732
6.6544
7.0724
7.0148
7.084
6.6908
6.626
6.778
6.7572
7.08
6.86
6.9516
7.0624
7.3336
7.2268
6.6536
6.7092
6.7968
6.7732
7.312
7.2476
7.2968
7.13
7.2584
7.3032
7.0448
6.9748
7.0776
7.0296
7.4604
7.464
7.0204
7.2008
6.9056
7.1588
7.16
7.1684
7.2136
7.1776
7.438
7.2656
7.3504
7.5712
7.2708
6.9904
7.0992
7.3324
7.1308
7.2872
7.2024
7.3992
7.6836
7.5396
7.1424
7.3812
6.9616
7.2536
7.3508
7.2696
7.5236
7.4
7.76
7.4404
7.3096
6.9484
7.0388
7.2816
7.3788
7.532
7.6584
7.606
7.3788
7.3348
7.1996
7.2088
7.378
7.2416
7.4192
7.6168
7.6144
7.7324
7.7868
7.5152
7.3576
7.5896
7.668
7.3068
7.4404
7.5896
7.8472
7.5436
8.03
7.4148
7.3956
7.5392
7.6008
7.8144
7.6376
7.7516
8.0104
8.0192
7.8828
7.8696
7.5208
7.6236
7.9008
8.036
7.7532
7.9324
8.1316
7.9128
7.8552
8.0072
7.9908
7.9536
8.0932
8.116
8.04
7.9136
8.1504
8.5356
8.2516
8.3212
7.9732
8.1616
8.0404
7.9824
8.0284
8.0096
8.6596
8.5596
8.1204
8.0872
8.3684
8.1404
7.9412
8.3028
7.7932
7.942
)
;

boundaryField
{
    flow
    {
        type            calculated;
        value           nonuniform List<scalar> 
48
(
8.2576
8.3896
8.5136
8.78
8.6408
8.3116
8.2416
8.5244
8.2536
8.4508
8.5524
8.3328
8.462
9.0184
8.5812
8.7652
8.9048
9.1128
9.1128
9.5528
9.1604
8.8512
8.8888
8.6132
8.65
8.88
8.8392
8.972
9.2308
8.9396
8.7332
8.4376
8.4216
8.508
8.0316
8.1852
8.532
8.5088
8.6596
8.5596
8.1204
8.0872
8.3684
8.1404
7.9412
8.3028
7.7932
7.942
)
;
    }
    obstacle
    {
        type            calculated;
        value           nonuniform 0();
    }
    frontAndBack
    {
        type            empty;
    }
    procBoundary2to0
    {
        type            processor;
        value           nonuniform List<scalar> 
31
(
8.6448
8.5004
8.3272
7.9788
8.1788
7.9892
7.9084
7.8428
7.8156
7.6296
7.3156
7.3036
7.5764
7.5508
7.4384
7.1292
7.2856
7.2024
7.3256
7.2928
6.6392
6.5036
6.3972
6.954
6.5612
6.4324
7.0772
6.9356
6.9192
6.9828
6.9828
)
;
    }
    procBoundary2to3
    {
        type            processor;
        value           nonuniform List<scalar> 
19
(
6.176
6.2324
6.4168
6.2008
6.4428
6.7256
6.8548
6.7132
6.9644
6.8864
7.1452
7.1872
7.498
7.5152
7.664
7.9844
7.8832
7.7304
8.0544
)
;
    }
}


// ************************************************************************* //
