/*--------------------------------*- C++ -*----------------------------------*\
  =========                 |
  \\      /  F ield         | OpenFOAM: The Open Source CFD Toolbox
   \\    /   O peration     | Website:  https://openfoam.org
    \\  /    A nd           | Version:  7
     \\/     M anipulation  |
\*---------------------------------------------------------------------------*/
FoamFile
{
    version     2.0;
    format      ascii;
    class       volScalarField;
    location    "0.005";
    object      iDof;
}
// * * * * * * * * * * * * * * * * * * * * * * * * * * * * * * * * * * * * * //

dimensions      [0 -3 0 0 0 0 0];

internalField   nonuniform List<scalar> 
546
(
1.24967977e+20
2.082799616e+20
2.082799616e+20
6.248398848e+19
1.24967977e+20
1.041399808e+20
2.291079578e+20
1.874519654e+20
1.041399808e+20
2.499359539e+20
1.041399808e+20
1.666239693e+20
1.666239693e+20
2.291079578e+20
2.082799616e+20
1.874519654e+20
1.457959731e+20
1.666239693e+20
1.24967977e+20
2.291079578e+20
2.707639501e+20
2.082799616e+20
1.457959731e+20
2.707639501e+20
1.666239693e+20
2.082799616e+20
1.874519654e+20
2.082799616e+20
1.874519654e+20
1.24967977e+20
2.707639501e+20
1.24967977e+20
2.082799616e+20
1.666239693e+20
1.457959731e+20
1.666239693e+20
8.331198464e+19
2.291079578e+20
1.041399808e+20
2.082799616e+20
2.082799616e+20
2.707639501e+20
1.666239693e+20
2.291079578e+20
1.874519654e+20
2.291079578e+20
1.24967977e+20
1.874519654e+20
1.874519654e+20
1.874519654e+20
2.707639501e+20
1.874519654e+20
1.666239693e+20
2.499359539e+20
2.707639501e+20
1.24967977e+20
1.457959731e+20
2.707639501e+20
2.291079578e+20
2.707639501e+20
1.457959731e+20
3.124199424e+20
2.499359539e+20
2.499359539e+20
2.291079578e+20
2.291079578e+20
1.666239693e+20
1.457959731e+20
1.24967977e+20
1.041399808e+20
2.082799616e+20
1.24967977e+20
1.24967977e+20
1.457959731e+20
1.457959731e+20
2.499359539e+20
2.707639501e+20
1.457959731e+20
1.874519654e+20
1.457959731e+20
1.457959731e+20
1.874519654e+20
3.540759347e+20
2.291079578e+20
2.707639501e+20
1.874519654e+20
2.291079578e+20
1.874519654e+20
2.291079578e+20
1.041399808e+20
2.082799616e+20
1.666239693e+20
1.24967977e+20
8.331198464e+19
1.041399808e+20
1.666239693e+20
2.291079578e+20
2.082799616e+20
1.457959731e+20
2.291079578e+20
1.874519654e+20
2.082799616e+20
2.499359539e+20
1.874519654e+20
2.915919462e+20
2.291079578e+20
2.915919462e+20
2.915919462e+20
1.457959731e+20
1.457959731e+20
2.499359539e+20
2.291079578e+20
1.24967977e+20
2.915919462e+20
1.666239693e+20
2.291079578e+20
1.666239693e+20
1.874519654e+20
2.082799616e+20
1.666239693e+20
1.874519654e+20
2.291079578e+20
2.915919462e+20
4.165599232e+19
1.457959731e+20
1.874519654e+20
2.291079578e+20
1.041399808e+20
2.291079578e+20
1.457959731e+20
2.082799616e+20
3.749039309e+20
2.082799616e+20
1.457959731e+20
1.874519654e+20
2.499359539e+20
2.291079578e+20
1.874519654e+20
1.24967977e+20
2.707639501e+20
1.874519654e+20
1.041399808e+20
1.457959731e+20
2.915919462e+20
1.24967977e+20
1.874519654e+20
2.291079578e+20
1.666239693e+20
1.666239693e+20
2.291079578e+20
2.291079578e+20
2.707639501e+20
2.082799616e+20
8.331198464e+19
2.291079578e+20
6.248398848e+19
3.749039309e+20
1.874519654e+20
1.24967977e+20
1.874519654e+20
3.124199424e+20
2.707639501e+20
2.082799616e+20
1.666239693e+20
2.707639501e+20
1.666239693e+20
1.457959731e+20
1.457959731e+20
1.457959731e+20
2.082799616e+20
2.915919462e+20
1.874519654e+20
6.248398848e+19
2.082799616e+20
1.457959731e+20
2.082799616e+20
8.331198464e+19
1.874519654e+20
1.24967977e+20
1.874519654e+20
1.874519654e+20
2.915919462e+20
1.24967977e+20
2.082799616e+20
1.666239693e+20
2.291079578e+20
1.24967977e+20
1.457959731e+20
2.082799616e+20
1.666239693e+20
2.707639501e+20
1.24967977e+20
2.082799616e+20
2.499359539e+20
2.707639501e+20
1.457959731e+20
1.457959731e+20
1.457959731e+20
1.874519654e+20
1.874519654e+20
2.082799616e+20
1.24967977e+20
1.041399808e+20
1.457959731e+20
1.874519654e+20
1.666239693e+20
8.331198464e+19
2.915919462e+20
1.874519654e+20
3.124199424e+20
3.95731927e+20
3.332479385e+20
1.874519654e+20
1.666239693e+20
2.291079578e+20
1.666239693e+20
2.499359539e+20
1.874519654e+20
2.499359539e+20
2.291079578e+20
2.291079578e+20
2.499359539e+20
2.499359539e+20
2.082799616e+20
6.248398848e+19
1.874519654e+20
2.707639501e+20
2.499359539e+20
2.082799616e+20
2.499359539e+20
2.499359539e+20
1.041399808e+20
1.457959731e+20
1.24967977e+20
1.457959731e+20
2.082799616e+20
1.874519654e+20
1.666239693e+20
3.124199424e+20
2.707639501e+20
2.707639501e+20
1.666239693e+20
6.248398848e+19
3.124199424e+20
2.707639501e+20
6.248398848e+19
2.499359539e+20
2.082799616e+20
1.041399808e+20
1.874519654e+20
2.499359539e+20
2.915919462e+20
8.331198464e+19
2.915919462e+20
2.499359539e+20
2.082799616e+20
1.457959731e+20
6.248398848e+19
3.540759347e+20
1.041399808e+20
1.666239693e+20
1.041399808e+20
3.749039309e+20
2.707639501e+20
1.874519654e+20
2.707639501e+20
2.082799616e+20
1.666239693e+20
1.874519654e+20
2.915919462e+20
1.666239693e+20
1.874519654e+20
1.666239693e+20
1.24967977e+20
2.291079578e+20
1.041399808e+20
1.666239693e+20
2.082799616e+20
1.874519654e+20
2.291079578e+20
2.291079578e+20
2.291079578e+20
2.707639501e+20
1.457959731e+20
1.041399808e+20
1.457959731e+20
1.041399808e+20
2.499359539e+20
1.874519654e+20
1.457959731e+20
2.082799616e+20
2.082799616e+20
1.666239693e+20
2.291079578e+20
1.666239693e+20
2.082799616e+20
2.291079578e+20
1.874519654e+20
3.332479385e+20
2.707639501e+20
1.874519654e+20
2.915919462e+20
1.874519654e+20
2.499359539e+20
1.666239693e+20
1.666239693e+20
1.666239693e+20
1.666239693e+20
1.874519654e+20
3.749039309e+20
2.499359539e+20
2.915919462e+20
2.707639501e+20
1.874519654e+20
1.041399808e+20
2.082799616e+20
2.499359539e+20
1.24967977e+20
1.874519654e+20
8.331198464e+19
1.666239693e+20
2.082799616e+20
3.124199424e+20
1.457959731e+20
2.082799616e+20
1.666239693e+20
1.874519654e+20
1.24967977e+20
1.666239693e+20
1.24967977e+20
2.499359539e+20
2.499359539e+20
2.082799616e+20
1.24967977e+20
1.24967977e+20
2.291079578e+20
2.499359539e+20
1.666239693e+20
1.666239693e+20
1.666239693e+20
2.499359539e+20
1.041399808e+20
1.24967977e+20
1.874519654e+20
2.915919462e+20
1.24967977e+20
1.457959731e+20
2.082799616e+20
2.915919462e+20
2.915919462e+20
1.666239693e+20
2.915919462e+20
3.540759347e+20
1.874519654e+20
2.499359539e+20
3.124199424e+20
2.291079578e+20
2.082799616e+20
1.24967977e+20
2.082799616e+20
1.933997406e+20
1.082039934e+20
1.08974506e+20
1.097560715e+20
1.547685003e+20
1.336239882e+20
1.672148603e+20
1.473190672e+20
1.907216511e+20
1.066951997e+20
1.289331604e+20
1.082039934e+20
1.089745067e+20
1.097560715e+20
1.989880704e+20
1.55894653e+20
8.360743071e+19
1.262734861e+20
2.542955348e+20
1.707123195e+20
2.363774592e+20
1.082039942e+20
8.717960539e+19
1.536585001e+20
8.843914303e+19
1.113533235e+20
2.508222905e+20
4.209116205e+19
1.271477674e+20
1.920513594e+20
1.719108806e+20
1.947671882e+20
3.051286189e+20
1.097560723e+20
2.21097856e+20
1.558946518e+20
1.254111452e+20
2.315013897e+20
1.695303565e+20
8.535616032e+19
1.074443004e+20
1.514855908e+20
8.717960478e+19
1.097560707e+20
1.547684992e+20
8.908265883e+19
1.045092877e+20
2.525469706e+20
1.48339062e+20
2.133904008e+20
2.793551809e+20
2.164079869e+20
1.089745067e+20
1.975609301e+20
1.105489288e+20
2.449773118e+20
1.463130028e+20
1.894102292e+20
1.271477674e+20
1.493732795e+20
1.289331604e+20
3.029711837e+20
1.525643094e+20
6.58536429e+19
1.768782861e+20
2.449773135e+20
2.508222921e+20
1.262734861e+20
2.542955348e+20
1.493732806e+20
4.297772014e+19
8.656319476e+19
8.717960539e+19
1.097560715e+20
1.547684992e+20
2.004359824e+20
1.254111452e+20
2.315013913e+20
6.357388413e+19
1.493732806e+20
1.719108806e+20
1.731263895e+20
2.179490119e+20
1.097560715e+20
3.537565721e+20
1.781653177e+20
1.672148603e+20
1.473190662e+20
1.059564721e+20
3.627636764e+20
1.504220195e+20
1.731263907e+20
1.961541135e+20
2.195121445e+20
1.768782861e+20
1.336239882e+20
2.926260055e+20
6.313674307e+19
1.695303577e+20
1.707123206e+20
2.363774624e+20
2.380487872e+20
2.179490119e+20
2.414633556e+20
3.095369984e+20
2.672479765e+20
1.254111461e+20
4.209116205e+19
2.119129457e+20
2.133904008e+20
1.289331604e+20
1.298447921e+20
2.833337175e+20
2.195121445e+20
2.210978576e+20
2.227066471e+20
2.090185754e+20
1.262734853e+20
1.271477665e+20
2.133903993e+20
1.289331604e+20
1.514855908e+20
2.179490119e+20
1.536585001e+20
1.326587145e+20
2.004359824e+20
1.045092877e+20
2.525469723e+20
1.695303577e+20
8.535616032e+19
3.00844041e+20
1.082039942e+20
1.74359212e+20
1.317072867e+20
1.547684992e+20
1.336239873e+20
1.881167178e+20
1.473190662e+20
8.476517769e+19
2.133903993e+20
1.933997406e+20
8.656319476e+19
2.833337155e+20
2.195121415e+20
1.10548928e+20
8.908265946e+19
8.360743015e+19
1.683646482e+20
2.119129471e+20
1.707123195e+20
2.363774592e+20
1.514855908e+20
1.307694081e+20
1.756097156e+20
8.843914303e+19
1.336239882e+20
1.463130037e+20
8.418232409e+19
2.331042402e+20
1.493732806e+20
1.933997406e+20
2.81330383e+20
3.051286167e+20
1.536585001e+20
2.210978576e+20
2.672479765e+20
3.553315781e+20
1.683646482e+20
2.542955348e+20
1.920513594e+20
2.793551809e+20
1.514855919e+20
2.17949015e+20
1.756097144e+20
6.63293568e+19
2.004359824e+20
2.508222905e+20
3.156837132e+20
1.695303565e+20
1.707123206e+20
2.578663208e+20
1.947671882e+20
1.525643084e+20
1.536585001e+20
3.316467864e+20
8.908265883e+19
)
;

boundaryField
{
    flow
    {
        type            zeroGradient;
    }
    obstacle
    {
        type            calculated;
        value           nonuniform 0();
    }
    frontAndBack
    {
        type            empty;
    }
    procBoundary2to0
    {
        type            processor;
        value           nonuniform List<scalar> 
31
(
1.666239693e+20
1.24967977e+20
1.666239693e+20
2.082799616e+20
1.666239693e+20
8.331198464e+19
1.874519654e+20
1.874519654e+20
2.082799616e+20
3.124199424e+20
1.874519654e+20
1.041399808e+20
1.666239693e+20
1.666239693e+20
1.874519654e+20
2.915919462e+20
1.666239693e+20
2.499359539e+20
1.457959731e+20
3.124199424e+20
1.504220205e+20
6.492239607e+19
1.961541121e+20
8.780485781e+19
1.768782861e+20
1.781653177e+20
1.254111452e+20
1.68364647e+20
1.059564728e+20
1.066952004e+20
1.066952004e+20
)
;
    }
    procBoundary2to3
    {
        type            processor;
        value           nonuniform List<scalar> 
19
(
8.973560819e+19
2.692068246e+20
3.365085331e+20
1.570373143e+20
2.019051184e+20
1.12169511e+20
1.346034132e+20
1.121695102e+20
2.243390221e+20
1.570373143e+20
8.973560819e+19
2.019051199e+20
2.916407266e+20
2.916407266e+20
1.570373166e+20
2.019051184e+20
2.916407266e+20
1.570373155e+20
1.570373143e+20
)
;
    }
}


// ************************************************************************* //
