/*--------------------------------*- C++ -*----------------------------------*\
  =========                 |
  \\      /  F ield         | OpenFOAM: The Open Source CFD Toolbox
   \\    /   O peration     | Website:  https://openfoam.org
    \\  /    A nd           | Version:  7
     \\/     M anipulation  |
\*---------------------------------------------------------------------------*/
FoamFile
{
    version     2.0;
    format      ascii;
    class       volScalarField;
    location    "0.005";
    object      internalE;
}
// * * * * * * * * * * * * * * * * * * * * * * * * * * * * * * * * * * * * * //

dimensions      [1 -1 -2 0 0 0 0];

internalField   nonuniform List<scalar> 
546
(
0.1948423293
0.4069074938
0.3096736545
0.06466105109
0.1457531991
0.3187141549
0.449170116
0.562697851
0.102394851
0.433999742
0.4128738735
0.1968625715
0.6280843568
0.5655200449
0.5654302329
0.3892442949
0.3272224723
0.5452943486
0.3635452429
0.709091974
0.4658355745
0.5904445696
0.3649979317
1.393403461
0.1497211062
0.5155112987
0.5009403117
0.2410323466
0.4158971102
0.1727445603
0.5168165602
0.1355541158
0.2127361237
0.3529756735
0.4412486275
0.3440272365
0.2124211968
0.6167173938
0.3424943702
0.6168266091
0.4093605594
0.5043236127
0.2794529494
0.8220633109
0.4962947202
1.045686933
0.4747903784
0.2842048807
0.2107626388
0.3696544678
0.5123997306
0.3356184683
0.6373405493
0.7192277201
0.7669270475
0.1971690563
0.4584878306
0.6041609676
0.487181316
0.666714703
0.2932333418
0.4779442202
0.6466573785
0.8036153735
0.9622115667
0.6282071262
0.5116807524
0.3927910563
0.3390776042
0.2925998875
0.5387895632
0.2136729146
0.4222171626
0.3033973785
0.2995756157
0.466714909
0.4645789248
0.3691943974
0.3494323621
0.2272729398
0.2406198318
0.3745910339
0.7325996426
0.5190628446
0.8284990791
0.3165774721
0.3658191809
0.5467718323
0.5316067368
0.4048839933
0.4306098641
0.4320553927
0.08339491227
0.1921687087
0.2483488126
0.2874478809
0.5111837493
0.7011968488
0.1844247013
0.5296047942
0.3492357404
0.4318076128
0.3715507342
0.5624123963
0.5637192825
0.4259151182
0.8033230243
0.7188778689
0.4890607553
0.1767402848
0.5665218323
0.5063370853
0.4291191347
0.8443916017
0.2717903946
0.3145009513
0.4606705944
0.7904953606
0.3990601824
0.4296797018
0.4777488116
0.5706818863
0.6085527926
0.1381592388
0.1794207561
0.5237749265
0.3144710433
0.3617842605
0.4787822715
0.1796582316
0.3650225866
1.394846143
0.5084935798
0.4146200002
0.2654439909
0.3614842249
0.5348425815
0.3353006956
0.2441166823
0.8305416373
0.4788972079
0.1854754658
0.6170730188
0.6440200803
0.08420243409
0.5511948848
0.6547300588
0.3531212474
0.3172865297
0.535616226
0.4225328995
0.6510806078
0.479623849
0.09345101064
0.4550287287
0.02005841156
0.8188581579
0.4353087882
0.1806845485
0.3638383806
0.7745577
0.3997573762
0.4887399345
0.5453792633
0.7844944463
0.3579350348
0.180110234
0.1241188095
0.407128889
0.5693732277
0.478251072
0.5462724195
0.09073419131
0.2921995274
0.3514479585
0.4694229183
0.321308256
0.3773140226
0.422315538
0.3018705011
0.2337908252
0.8440639568
0.2584646616
0.3571415478
0.4766432452
0.303157643
0.2425000413
0.4121412556
0.5641820236
0.2652777265
0.7431515173
0.183449098
0.3375561685
0.5979755518
0.4328059185
0.4049176892
0.5876845973
0.1418671136
0.51208428
0.4883714067
0.6913966721
0.07309099986
0.3274026369
0.3650960699
0.4165653877
0.3282445002
0.0958003308
0.6259749073
0.4908487201
0.6166832474
0.7976791472
0.8511972505
0.4769769265
0.4115078352
0.2961478393
0.4983215558
0.624632631
0.5264019217
0.4717649786
0.6588959527
0.5139045062
0.4762095751
0.3744825944
0.6088130532
0.1834032111
0.5930293989
0.575103644
0.7952040053
0.3877434791
0.6179523055
0.5645686185
0.4735272925
0.1200060046
0.3714508845
0.5094174829
0.6356921507
0.5019125226
0.3613781875
0.5280159366
0.4630283145
0.5546738632
0.1887702341
0.2675150242
0.6012166193
0.4544442043
0.1172202958
0.7271582996
0.4108312603
0.3768386888
0.3004585218
0.7390886822
0.572720471
0.3903633104
0.8389592858
0.365574174
0.6962865601
0.3422713076
0.01317881954
0.5697370183
0.2915346758
0.2349207511
0.160733085
0.8256412469
0.5996654036
0.5289449163
0.7426225744
0.4674154939
0.6450425522
0.6197549538
0.3711713762
0.4031373901
0.2457397354
0.3277875351
0.2225783154
0.3650847295
0.1352017164
0.2288831207
0.5335725627
0.5159480031
0.4842065225
0.4696829124
0.535357045
0.3442568268
0.4838545286
0.297711052
0.3806015425
0.1870896155
0.5417763909
0.4808825328
0.2417521121
0.8619937275
0.5478693035
0.3348506131
0.726049215
0.3446297339
0.4900820417
0.5279923928
0.2608745769
0.714066692
0.6996167659
0.4700215936
0.7559187095
0.3442250936
0.3119734086
0.2871246668
0.1832959231
0.3229890066
0.4619044151
0.5048400475
0.8059923107
0.7156772351
0.7474537565
0.4105063439
0.2207727841
0.2675956173
0.6197548858
0.6034499251
0.3537477083
0.3989039799
0.1473178096
0.3580219658
0.3281609178
0.5092682844
0.2729308059
0.1834056938
0.4166723995
0.4444807161
0.31393641
0.1863843547
0.5425592421
0.6226537271
0.4423408858
0.4433381602
0.2167828537
0.3810220986
0.427495308
0.3367508881
0.1983750155
0.3126920087
0.1607937421
0.4457184069
0.2197093685
0.5860969372
0.6545332747
0.7160822281
0.4386992064
0.268975371
0.2800954515
0.6554056015
0.6605813592
0.3183723837
0.7611968471
0.6537870609
0.4826582566
0.5145929952
0.644581963
0.5516086908
0.2991765371
0.2089650643
0.5296658756
0.5133272499
0.5194024543
0.4074328522
0.3171191337
0.3194881595
0.5455255035
0.3582828394
0.241371357
0.4466970584
0.1007713896
0.1780446696
0.3307660042
0.2274033375
0.2158987847
0.6606990256
0.3827665815
0.09072262899
0.2142684967
0.9265173303
0.8721488166
0.5681223965
0.2554937803
0.1850333524
0.5188116216
0.2215889906
0.2362578022
0.9029869281
0.08312074379
0.1758268592
0.4940801934
0.7430411488
0.3214216038
0.6898590762
0.2235976938
0.2813558669
0.4001457206
0.3181503479
0.7357032376
0.6957217675
0.2709373671
0.4609152868
0.2783859228
0.176098226
0.2143927549
0.3563558763
0.2429107041
0.1418478701
0.6028817997
0.3431960788
0.4967566773
0.5875988439
0.6576958076
0.4739959266
0.4551359868
0.3709096772
0.6762983486
0.2895562288
0.5155320434
0.307302732
0.2066441808
0.2222080248
0.5211469438
0.4873080023
0.1051531592
0.5255202617
0.6907106694
0.4689156152
0.1361443359
0.5012130363
0.1489613729
0.031808442
0.103120335
0.1915483069
0.1385278882
0.4623665202
0.5216622018
0.1251133193
0.3315292687
0.2335657166
0.1354498535
0.3265233662
0.3352230947
0.4322352169
0.4643499817
0.8771614604
0.232578932
0.7020706696
0.4356456017
0.2193621202
0.5876880698
0.6625157252
0.6402385246
0.186400876
0.2760757347
0.6516340416
0.2801460588
0.5017832966
0.2648164331
0.3026001562
0.4898499786
0.519841265
0.5778722728
0.4737014572
0.692070841
0.8385617103
0.7224582165
0.254212514
0.2141900027
0.497477492
0.451181331
0.16330777
0.2054721569
0.5700621816
0.2427465022
0.6468380151
0.5658684574
0.4809943961
0.1743252807
0.3758278664
0.2456481603
0.279062312
0.2058303427
0.5385890043
0.1258181253
0.2457356535
0.3712706938
0.1231538105
0.5820943965
0.4878023977
0.1493355768
0.8124771091
0.1883074721
0.4710869087
0.2497490539
0.6082297784
0.3222543293
0.2780906121
0.2146578889
0.1520845927
0.4129185944
0.3436568883
0.1057434332
0.840881301
0.6941163797
0.2784503248
0.2422491042
0.1092436908
0.2365004817
0.617928038
0.4274658306
0.5203236684
0.4488342463
0.1066830379
0.5476058379
0.1361254175
0.1438725615
0.3088077882
0.1745275762
0.6142352788
0.4378332322
0.5782557587
0.5985001412
0.928468289
0.5847294141
0.7328180571
0.4442924641
1.08604196
0.6476309943
0.5558591596
0.567176431
0.5973339296
0.5582788874
0.519947816
0.4980249952
0.2116971839
0.5247990606
0.5659319337
0.7395166534
0.2140379626
0.2719241703
0.5188904465
0.3396444592
0.1371225872
0.2278676437
0.5338191675
0.1956891441
)
;

boundaryField
{
    flow
    {
        type            zeroGradient;
    }
    obstacle
    {
        type            calculated;
        value           nonuniform 0();
    }
    frontAndBack
    {
        type            empty;
    }
    procBoundary2to0
    {
        type            processor;
        value           nonuniform List<scalar> 
31
(
0.2080684211
0.4447548347
0.4415842121
0.4769134917
0.3931826037
0.08282570284
0.4953264932
0.3966705413
0.3413083739
0.5425006419
0.4583844156
0.1540232052
0.2962810948
0.3830090887
0.3709457598
0.8607489369
0.4436509978
0.8748782274
0.2673473116
1.054930029
0.4031549087
0.1816430742
0.5740633881
0.1044227636
0.5957044873
0.6947255192
0.3562934082
0.5547031864
0.474686329
0.2605143317
0.2605143317
)
;
    }
    procBoundary2to3
    {
        type            processor;
        value           nonuniform List<scalar> 
19
(
0.08084498342
0.4404449653
0.9084782296
0.3969751714
0.4091881107
0.1237466021
0.3594369869
0.3087849134
0.4942045275
0.7730436936
0.1338915743
0.431546897
0.5350148336
0.6622436153
0.511271569
0.3765439119
0.7395982423
0.3772752037
0.4315935409
)
;
    }
}


// ************************************************************************* //
