/*--------------------------------*- C++ -*----------------------------------*\
  =========                 |
  \\      /  F ield         | OpenFOAM: The Open Source CFD Toolbox
   \\    /   O peration     | Website:  https://openfoam.org
    \\  /    A nd           | Version:  7
     \\/     M anipulation  |
\*---------------------------------------------------------------------------*/
FoamFile
{
    version     2.0;
    format      ascii;
    class       volVectorField;
    location    "0.005";
    object      momentum;
}
// * * * * * * * * * * * * * * * * * * * * * * * * * * * * * * * * * * * * * //

dimensions      [1 -2 -1 0 0 0 0];

internalField   nonuniform List<vector> 
546
(
(0.005080706324 0.000212493005 0.000157554092)
(0.009940133893 5.594435309e-05 0.0004559090093)
(0.005244104303 8.781555189e-05 0.0009011288027)
(0.005684596256 -0.000134203795 -9.74996219e-05)
(0.00447141186 0.0001096450993 -0.0003861615488)
(0.005338873572 -0.0001142124045 0.0006720840488)
(0.008627076346 0.0002773922303 0.0001897326486)
(0.006008140886 1.318322717e-05 0.0004841530162)
(0.006254436043 0.000565903419 0.0007361881382)
(0.0131410897 0.0005576260009 -7.525187511e-05)
(0.008402919099 0.0001600755941 0.000195159125)
(0.006945684544 0.0004236213265 -0.0007275660781)
(0.01041017047 -0.0002929247139 -0.0007982145885)
(0.007569964746 8.001352303e-05 -0.001047317298)
(0.00477815806 -0.0004482188274 1.430315073e-05)
(0.003736571147 0.0001510797467 0.0002545354832)
(0.00705277785 -0.0005356381182 0.0004673218615)
(0.00677558515 0.0001080414878 -0.0002668274106)
(0.007499454199 0.0001284142424 -0.0002162575988)
(0.005333881909 -0.0001199339059 -7.231191113e-05)
(0.007921129872 -0.0007080578963 4.349437054e-05)
(0.005556547714 0.0004396601542 -0.0001081610357)
(0.009890598768 4.76164269e-05 0.0003576683999)
(0.004050043234 -0.0002470857854 6.448293897e-07)
(0.01969532897 -0.00048052301 0.0003032128877)
(0.01145921214 8.187320031e-05 -1.506882138e-06)
(0.01047780673 0.000549940193 -0.0003477987259)
(0.00648254588 -0.000904778753 -2.973753992e-05)
(0.007554073106 0.0004281074607 0.0004976045622)
(0.01029483091 0.0002265935049 8.123335416e-05)
(0.01187261748 0.0005732921475 -4.150499125e-05)
(0.01128009608 -0.0005594597174 -0.0003485449424)
(0.007332935042 0.0002560035409 6.276445348e-05)
(0.01588014295 -0.0007240901621 -0.000412997898)
(0.007619193228 -0.0003518362062 2.157991543e-05)
(0.007822217017 -0.0001510455038 -0.0001992986933)
(0.01228705346 0.0001653182617 -0.0008818776408)
(0.009634668442 0.0005264904002 0.0006106749993)
(0.007763060551 -2.262054023e-05 -0.000255368181)
(0.00498019596 0.000280600809 2.412767475e-06)
(0.006442607819 -0.0003208740556 0.0005317752066)
(0.01039072007 0.000378926065 0.0006279667745)
(0.007919293203 -0.0001994496019 0.0003748800446)
(0.01298859008 -0.0002937727502 -0.0001552646689)
(0.005415530405 0.0006546615692 6.644507478e-05)
(0.01205641059 -0.0001742955372 -0.001385036715)
(0.004747954677 0.0004415702575 0.0002470469504)
(0.01287622337 -0.0004812026442 -0.0006738580872)
(0.00817128885 0.0006122936352 -0.0003616846146)
(0.01112634334 -5.947917228e-05 -0.000985531344)
(0.007449983383 0.0005679290546 0.001139481539)
(0.005438810658 -0.0001820959984 0.0002210264488)
(0.01077891433 -1.543494028e-05 -0.0009759818818)
(0.01066475413 0.0006176542921 -1.388406479e-05)
(0.006313588125 -5.955816322e-05 0.000168771972)
(0.007339342382 -0.0006567110392 -0.0002581507598)
(0.009536957243 -0.000325095442 9.724737039e-05)
(0.006331671474 -0.0005204208246 -0.0004987217556)
(0.006210631317 -0.0005202565335 -9.343244907e-05)
(0.008042162376 0.0005045157746 -0.0002841956165)
(0.006268355439 0.0001288740819 -0.00054850861)
(0.008934826143 0.000292433461 0.0002998646107)
(0.01040960863 0.0002228623044 0.0007401525484)
(0.008276757486 -0.0001093359337 -0.0005925414956)
(0.009254859532 0.0001047152804 4.373212164e-05)
(0.008902304369 -0.0001386073849 5.783573365e-05)
(0.006589319315 0.0007072706875 -0.0002634906635)
(0.01114024194 -0.0003720815058 -0.0002193136259)
(0.005185083424 -0.0001044145578 0.0005555085414)
(0.002017097686 0.0001175228128 1.204783062e-05)
(0.009396824479 -0.0003032661764 -0.00083565626)
(0.008037155191 -0.0007332338529 0.0002443855954)
(0.01193402063 0.0004237674687 -0.0001927553392)
(0.008862645035 -0.0004397364162 0.000286501072)
(0.005601536142 -0.0009953125957 -0.0006216436383)
(0.008017133497 -0.0001554683475 0.0002193076841)
(0.01523957094 0.0009065575857 0.0007939440736)
(0.004424421506 -0.00047106763 0.0001119992458)
(0.01123057803 -0.0006524618157 0.001068742318)
(0.01493416711 0.0006395988776 0.0001752532496)
(0.00533822433 -0.000925435017 0.0001097290539)
(0.008182747092 -0.0004426790663 0.0003197419457)
(0.008166314938 0.0002872260088 -0.0001415297681)
(0.006027488797 0.0001876281282 0.000351476811)
(0.004354993857 0.0001040292394 -0.0003818530054)
(0.01050129704 0.0001363154373 -0.0002778181344)
(0.005282378061 -0.0003749484356 -0.0005816274769)
(0.003423778834 4.398124126e-05 0.000158711148)
(0.004819496687 0.0005385053718 -3.78975654e-05)
(0.006955413283 6.761354427e-05 0.0007275505954)
(0.008259280637 0.000351678713 -0.0002027620537)
(0.01020055612 -0.0002443016889 -0.0003004276698)
(0.008639438218 -4.867571467e-05 0.0008746570221)
(0.004312690925 -0.0002574510101 -0.0002896344606)
(0.01030804894 -0.0007089763216 -0.0004210477758)
(0.008122790193 -0.000303270774 0.0005329013404)
(0.008751659918 -2.779253259e-05 0.0004384699792)
(0.01356251365 0.0007604094809 0.0005540997659)
(0.0098612719 -0.0001300760519 -1.87159649e-05)
(0.008918294001 -4.804635486e-05 -0.0001710878534)
(0.005947524738 -0.0001676753902 -0.0006948559191)
(0.003932526084 0.0002944006257 0.0002950153837)
(0.009199090399 -0.0004703721041 -5.675819287e-05)
(0.009082019071 0.0008677711949 0.0005012455232)
(0.007428113649 -0.0003986526007 -0.0001849728607)
(0.009424450609 0.001034577686 -7.956515195e-05)
(0.005788453993 -0.0006318423265 0.0001911132006)
(0.006354973992 0.0004013037561 -0.0004846392503)
(0.00509729874 0.0005879876211 0.0003198560779)
(0.004649684232 -0.0004645124582 -0.0003890474948)
(0.008396101621 0.0002190321659 -0.0001105531481)
(0.0075435907 -0.0001523664804 0.0004845360326)
(0.01046479475 -0.0008030173833 0.001109316885)
(0.01171048121 -0.0003112964834 -0.0005997562121)
(0.008156401568 -0.0006094400009 -0.0002011173986)
(0.008440673281 0.0001659044935 0.0004204454378)
(0.009054362051 0.001046140651 0.0001787897589)
(0.01080536778 -0.0008894505147 0.0001198884666)
(0.008957767413 0.0001911104212 -0.0005101505399)
(0.01164646478 5.921537112e-05 -0.0002974064603)
(0.005705388205 0.0002259730792 0.0006308991735)
(0.01256978732 7.134681932e-05 -0.0008471102437)
(0.006183286774 0.0006316679793 -0.0007417495615)
(0.0138203309 -0.0005217665064 -0.0009409802368)
(0.0100858144 0.000107371831 9.15939028e-05)
(0.008440910491 0.0003902717657 0.0007158415783)
(0.01175983112 -0.0001016041037 0.00108159646)
(0.005947126449 -2.86350935e-06 1.480453711e-05)
(0.006439996187 -0.0002946873678 0.0003383534542)
(0.01061105735 -0.0005700157347 -1.561314793e-05)
(0.006893374736 0.0003201192429 -0.0003245343475)
(0.008378307731 -0.0003679415995 0.0002862306041)
(0.007276487287 8.909258702e-05 0.0002080770998)
(0.007664368209 -9.967402808e-05 -0.0001900334869)
(0.006099799977 0.0001765952862 0.0003824769451)
(0.007988963657 0.0007855123414 -0.0005563445558)
(0.01116071591 0.0001847507395 0.0002063017002)
(0.008554552297 0.0001304575938 0.0007809237792)
(0.009835257031 0.0004857543835 -0.000163716343)
(0.003982013281 0.0007072701929 0.0005151749637)
(0.00481866464 2.885370507e-05 0.0002799379318)
(0.005351019868 -0.0001616635089 9.214243014e-05)
(0.01042062158 0.0001201519465 -0.0003014611441)
(0.005662233381 0.0005553868762 0.0004096894768)
(0.008440637185 0.0003810636693 0.0002452372875)
(0.006635476227 0.0004061270155 0.0002528172518)
(0.01209946051 -0.0003718024416 6.418497447e-05)
(0.01297374262 0.0007110518539 -0.0007194951874)
(0.009031782069 0.001121786847 -0.0002608425361)
(0.006244910066 -0.0002241682314 -0.0002186465309)
(0.008015486505 3.421241204e-05 -0.0001275491694)
(0.01007076225 0.0006643649375 -0.0003782610273)
(0.007712406093 0.0008696144319 0.0003509803596)
(0.005224252347 0.0001252657843 -0.0003519003927)
(0.006448400063 0.0002725496023 0.0002808337576)
(0.007997904313 0.0002720208058 0.0001373354133)
(0.007975789536 0.0002713820683 3.905636858e-06)
(0.004381256372 4.686615224e-05 8.829485841e-05)
(0.01046483637 -0.0003656427819 -7.57474231e-05)
(0.004768532493 -0.0003891783305 0.0004329073249)
(0.00875910042 0.000510290679 0.0005088624311)
(0.006860390657 0.0001350200875 0.0002972178993)
(0.008259910942 -0.0005078627675 -2.747595785e-05)
(0.009298251108 0.00052664945 0.0003476143724)
(0.009865503574 0.0007672686129 -0.0002365258807)
(0.007312323307 -0.0004015665145 8.416193636e-05)
(0.00594590838 -0.0003572367994 0.0003538545645)
(0.007021734338 -2.019086404e-06 0.0009087751047)
(0.01154184845 0.0002483927893 0.0001095014953)
(0.008373550914 -0.0006667175304 -1.955175187e-05)
(0.009492548203 0.0004597671013 0.0002703610522)
(0.01165134626 -0.0001505611181 0.0003046153843)
(0.003294103176 0.0002071608168 -0.0002990019046)
(0.008895147299 0.0006101700046 0.0003390172745)
(0.007179924704 -6.932089773e-06 0.0003502957112)
(0.009894644553 -0.0002178652046 -0.0001771949862)
(0.007280417892 -0.0002042847827 -0.0004536386419)
(0.008471312617 0.0005038727981 2.119468233e-06)
(0.005879183125 0.0001978075687 0.0004266720568)
(0.01065039314 0.0005994293309 -0.0003087180648)
(0.008475539265 -0.0007733459336 -0.000569182987)
(0.005341440499 -0.0002717098117 -0.001302534348)
(0.00680822166 0.0006438150082 -0.0004099487637)
(0.006560371691 0.0007036992867 0.0001010299431)
(0.008299119072 -0.000431994921 -0.0003134931022)
(0.007834594756 -1.660127413e-05 -0.0003381231051)
(0.01256011784 -0.0006571631275 -2.544172034e-05)
(0.007835906057 7.04986215e-05 0.0005943576639)
(0.01253887327 0.0005468367852 -0.0002945930201)
(0.007685715847 -0.0001587478025 0.000278672513)
(0.003615262584 0.0001228121333 -0.0001441604073)
(0.003502163358 0.000109425212 0.0002520600922)
(0.01285475703 -0.0001124657886 0.001029603507)
(0.003881436117 7.931181749e-05 -0.0003835488614)
(0.008818814735 -0.0006672522596 -0.000161033001)
(0.009781930523 -0.0003360276284 0.0004061433702)
(0.009821433369 0.0001851518614 -0.0004014797628)
(0.00723591922 -4.451146507e-05 -0.0003145536603)
(0.008612162656 -0.001463597327 0.0001110977625)
(0.009411770499 0.000242081004 -0.0001482388534)
(0.006263322782 0.0003169311415 0.0003674274199)
(0.007934930798 -0.0002579809658 0.0006117513309)
(0.01159861527 8.520801845e-05 -0.0002601624176)
(0.00643695361 -9.320957714e-05 0.001231437173)
(0.009351215841 0.0006261520007 -0.0004858350406)
(0.008092481066 -1.117223258e-05 -0.0006039532762)
(0.007181480306 4.421818872e-05 -0.0002523651692)
(0.008370517295 -3.991753966e-05 -0.001088482479)
(0.006094556062 0.0004836313432 -0.0006439269699)
(0.01046696785 8.317696515e-05 0.001042926709)
(0.00619932773 -0.0004995257128 0.0001061260731)
(0.009191528927 0.0001843805359 -0.0007648277493)
(0.01178781758 -0.0007199649985 0.0007122889921)
(0.004130001779 0.0005825516483 0.0003627150387)
(0.006752793876 -0.0003197442566 -0.0004958977801)
(0.01108463593 -0.0002025078568 0.0002797876277)
(0.006277589958 8.001414179e-05 0.00083302365)
(0.009665336335 -0.0006303554104 -0.0007050282566)
(0.009484381916 -0.0006480541973 0.0007900544374)
(0.007852675653 -0.0006240595825 8.611096994e-05)
(0.005760664727 -0.0003789797333 -0.0007111685435)
(0.01203100808 -0.0006131006866 -0.0002436758659)
(0.01065373719 0.0004674213965 -7.17242937e-05)
(0.00751778961 -6.552704683e-05 -2.593769209e-05)
(0.01138806634 0.0003661820111 0.000650243514)
(0.01214347038 0.001203994279 -0.000581499766)
(0.00363355738 7.26548124e-05 -0.0001028712078)
(0.01026485867 0.0003230402168 -0.0001097739456)
(0.006472929359 -0.0001737812614 0.000285646575)
(0.01193585069 -0.000172350138 0.0005241226876)
(0.006825277383 -6.502735401e-05 -9.404513941e-05)
(0.006461185166 0.0006206625483 -0.0006243159515)
(0.01573307805 5.316126982e-05 0.0004609418075)
(0.01040144115 0.0002675374218 -0.0003785978455)
(0.007955424603 2.330995957e-05 -5.814046898e-05)
(0.009056171093 -0.0001604512155 0.001232833408)
(0.004772242901 0.0002760255458 0.0001480290675)
(0.007021233418 0.0001235258717 -0.0005731023586)
(0.0113995047 -6.28063806e-06 -0.0005748213229)
(0.007631778384 0.0005051567419 0.0001845050111)
(0.006274837186 -0.0001539685151 -0.0006806790568)
(0.006454655898 -0.0009007286748 2.422970848e-05)
(0.007309747852 0.0001399726888 0.0003557792001)
(0.008256346512 0.0002359068713 -0.0005088684183)
(0.008513775391 -0.0001192630838 0.0003874208289)
(0.009770336965 -0.0006004357559 -0.001082529265)
(0.001555025524 0.0002180376319 -5.889347797e-05)
(0.01140022151 -0.0009882126705 -0.000516389452)
(0.007817610944 -0.0003062141017 -7.610343644e-05)
(0.006430201106 -0.0003690493723 -0.0004152495983)
(0.008313164689 0.0002359738616 -0.0007591801)
(0.009439325682 0.0001301335945 0.0005108023462)
(0.006587041079 0.0001311978802 0.0001868016851)
(0.006731669236 -0.0002735151269 0.0005659050759)
(0.01324120189 -0.001034994848 0.0004592618088)
(0.002932947742 0.00016527296 -0.0004348896096)
(0.007780006246 -9.976623371e-05 -5.867213904e-06)
(0.008317948013 -0.0004286703131 -0.0002216265726)
(0.006878857963 1.807905507e-05 0.0002276065547)
(0.007004617875 -0.0001724503629 -0.0003641087454)
(0.006355044955 0.0003759665914 -0.0001959035043)
(0.007802782176 -0.0002615205354 0.0003987186969)
(0.01205714532 0.0004450671889 3.999134471e-05)
(0.008255458984 -7.918703126e-05 -0.0003465277495)
(0.01006968246 -0.0005158041547 -0.0003263910981)
(0.00905090265 6.147512816e-05 -8.432404524e-05)
(0.008432504737 0.0001249501714 -0.0003472609582)
(0.01075574165 0.0004131520925 -0.0005976030135)
(0.009759914273 -6.967974971e-05 0.0003444264219)
(0.005358886919 -6.703682104e-05 0.0005853174655)
(0.007876983636 0.000171180976 0.0004808581068)
(0.004150688254 -4.032074298e-06 0.0001069959195)
(0.009348521352 -0.00018221783 -0.0001500750965)
(0.006783047343 -0.0001700654934 -0.0005110008807)
(0.007980930992 0.0003120581922 -0.0005529573663)
(0.004426182048 -8.974596795e-05 -0.000124536201)
(0.008877234805 -4.876003056e-05 0.001137442697)
(0.01267152902 -0.0003427077786 -0.0001723757223)
(0.01171628768 0.0004958131311 0.000302715348)
(0.009354639677 0.0004694310399 0.0003507333217)
(0.007052242077 -0.001083152027 -0.0004376542256)
(0.01198118819 -0.0005761799606 -2.522119402e-05)
(0.009429128614 -0.0004204143713 -8.694174109e-05)
(0.005571280575 0.0002703555212 0.0005021745305)
(0.005705904724 0.0001085699198 -7.224997001e-05)
(0.005975982173 0.0006391996818 0.000197302678)
(0.01088405669 -0.000435860298 -0.0008896232919)
(0.007354544451 0.0003955628878 7.594877125e-05)
(0.007887915065 -0.0001548311478 -5.393018268e-05)
(0.009836380478 -0.0002171028217 -0.0004010391013)
(0.008897884639 -0.0003281030395 -0.0006442757596)
(0.006994654501 -0.0002646615565 -0.0004392914899)
(0.009136299673 0.0008582607266 6.472213537e-05)
(0.006739187696 -0.0002974241652 -0.0007168189784)
(0.006733121107 9.709357125e-06 6.527008123e-05)
(0.008631711106 0.00052819251 4.160704239e-06)
(0.007933936571 0.0002699796945 -0.0007353928992)
(0.004027819453 7.750792452e-06 0.0003271218388)
(0.008106785052 -8.092789268e-05 0.000451753114)
(0.008913923809 0.0003740056468 -0.0002475779177)
(0.003106304113 3.613349307e-05 -0.000351944894)
(0.006734307579 -0.0004754785213 -0.0007892605769)
(0.005800552934 -0.0005668877608 3.502943843e-05)
(0.01064725924 0.0003901003856 0.0002876570556)
(0.009876032044 0.0006263582521 -0.0003901255169)
(0.01063624107 -0.0002980417565 0.0002278736482)
(0.007757121388 -0.0002456330112 -0.001034329066)
(0.006389423083 -0.0001478040915 -0.0006558260702)
(0.01170482092 -0.0005033027536 0.000366200096)
(0.01201027635 0.0001112775158 -0.0001103101426)
(0.005795077249 0.0005228778095 0.0006400538941)
(0.01009386887 0.0009449614434 -0.0002193147393)
(0.0103478563 0.0004101994571 2.828577504e-05)
(0.007831071448 0.0002230731289 0.0002429841102)
(0.004840738938 -0.0002292096077 0.0001873769782)
(0.00949041813 -6.678328765e-05 0.0003063839999)
(0.008163350142 0.0003495501736 -0.001426587995)
(0.01283114874 -0.0002403470323 0.0001031967804)
(0.005108674627 -0.0007181713921 -0.0007624684727)
(0.007814314856 -0.0005057762121 5.678375292e-05)
(0.006859115603 7.021674029e-05 -0.0001194161388)
(0.007881460676 -0.0003422484151 0.0002218498937)
(0.008731704135 -0.0001987270201 2.652996726e-05)
(0.003525332819 4.749702369e-05 -5.838338583e-05)
(0.01287745493 -0.000430760619 0.0001819876238)
(0.004836849415 -0.0003054164738 -0.0003688507979)
(0.008715413475 -0.0002984218575 -0.0004447671935)
(0.007141886161 0.0001532916982 -0.0002411351556)
(0.008094006811 0.0001122890591 0.0003200375285)
(0.009162848613 0.0009487466806 0.0002783342051)
(0.0142168223 -0.001080828423 -0.0001092141469)
(0.004070736862 8.342945395e-05 -0.0001001184484)
(0.01097418814 0.0009149053584 -0.0005755597171)
(0.007677261259 0.0006787917784 -0.0001149360365)
(0.005889919705 -7.351043316e-05 -0.000186306228)
(0.01116352783 -0.0001037169628 -3.953204072e-05)
(0.009022162378 -0.000211808975 0.0008115429873)
(0.006110590494 0.0001413749119 9.165737936e-06)
(0.009800985584 -0.0004721052034 8.319811838e-05)
(0.008284331229 0.0004209958956 -0.0004292301031)
(0.006466536741 -0.0002623181631 6.501962778e-06)
(0.007177422924 -0.0001850918472 0.0001577309506)
(0.0106767944 0.0003894547163 0.0002368599458)
(0.007320741158 0.0003923681091 0.0002846438367)
(0.01240531147 0.0009918598166 -1.096004106e-05)
(0.006193837108 -1.53181971e-05 -0.0001074757148)
(0.008987706237 0.0003527283222 -0.0005651060472)
(0.006052522641 -0.0003253049709 -0.0001718974126)
(0.01031217404 0.001273228707 -0.0002919685014)
(0.006228916762 -0.0002169651956 0.0009672836963)
(0.007027826212 -0.0001732777517 0.0003796741104)
(0.006542661097 -0.0004096546583 -0.0003678513749)
(0.007834554741 -0.0003575557832 0.0007828732154)
(0.006952584149 -0.0003269151697 -0.0006108642859)
(0.0044797529 -0.0003271425559 -3.940993197e-05)
(0.008927453335 0.0001426146594 0.0009320167817)
(0.01000866055 -0.0007238854644 -0.0001756742567)
(0.007302177104 -0.0003911622711 0.0001710502342)
(0.01034278409 0.0008642704813 0.0005349521014)
(0.01160682709 7.417857049e-06 -7.246680363e-05)
(0.006096059311 0.0003681421921 -6.483084135e-06)
(0.008328259763 -0.0002414750491 -5.018014549e-05)
(0.009059705867 -0.0003592462277 -0.0005394053954)
(0.005705833122 -1.832738536e-05 -0.0004034658151)
(0.01346824797 -0.000434615389 9.468004664e-06)
(0.006826511413 0.0003811109359 0.0001180560861)
(0.006212432491 0.001148107383 -0.0007162528809)
(0.006791797812 -0.0002374656579 0.0002839110064)
(0.009332426593 7.264721949e-05 -0.0008260480106)
(0.009599409776 -0.0002018041102 0.0004299391207)
(0.007332682767 0.0001179853705 0.0005746423056)
(0.009726168878 0.0003946776281 -0.0001976510065)
(0.009527201645 0.000598421546 -3.514966435e-05)
(0.007235871764 0.0004095975569 8.077792122e-05)
(0.006006658891 -0.000919503938 1.401285326e-05)
(0.0106634997 -0.0007003409798 -0.0001105534175)
(0.008410947187 -0.0002440520935 -0.0009963108859)
(0.01416689953 0.0005693593355 0.000136317155)
(0.009161546728 -0.00105972965 -4.598323968e-05)
(0.01134715184 -0.0004979684632 -0.000649960124)
(0.01510712963 -0.0002104736085 0.0003716241553)
(0.01163802465 9.335023438e-06 -0.0003699010583)
(0.01069271667 0.0008715190573 -0.0002161046064)
(0.008802298891 -0.0001608679156 -0.0004806211442)
(0.009337429553 -9.630665645e-05 -0.0004464802841)
(0.01246761125 -3.391052504e-05 -0.0001371861173)
(0.009037124621 -0.0003743712928 0.001027280642)
(0.003860689769 -5.544626179e-05 0.0003976240844)
(0.009979890581 0.0007760126423 0.0007051865625)
(0.009361656181 -8.549575606e-06 -8.958885243e-05)
(0.00869731044 0.0003131473657 2.712096261e-05)
(0.004624849105 -9.21729254e-05 -0.0006235871911)
(0.012478141 0.0001634676479 -5.440566573e-05)
(0.006558001951 9.283870453e-05 -0.0004608720119)
(0.008168492671 -0.001477365916 -0.001453907875)
(0.01566058246 0.0008065826493 0.0007275238976)
(0.008245667231 -0.0006936566134 0.0003298418549)
(0.009783048081 0.0002730107477 0.0001054327887)
(0.007425676361 5.197834855e-05 -0.0005624632305)
(0.004787274907 0.0002094060888 0.0001887851162)
(0.007618366033 -0.0005037745012 -0.0005766241133)
(0.006529631077 0.0007906885045 -0.0001394283338)
(0.002953937368 -0.0005201776801 -8.8071232e-05)
(0.006373248678 -0.000186011457 0.0006356442437)
(0.007727196995 -0.0006557649976 -0.0002902397525)
(0.009309870972 -0.0010858444 -0.0001178057958)
(0.01280877326 -0.0006966686301 -0.0005214851585)
(0.007518926562 0.0005274446881 0.0002522848604)
(0.0104818234 -0.0004677249991 -0.0003807134238)
(0.005388920569 0.0002978967795 0.0001130796297)
(0.01364797381 0.001666126599 0.0006431251717)
(0.0101614793 0.001065635657 -0.0002134861177)
(0.00785951492 -0.0003618118969 0.0002420498104)
(0.007983376578 -0.0006880575864 -9.288602405e-05)
(0.007598604937 0.0003240255304 0.0001976886169)
(0.00310592858 -0.0001128805362 -2.227461693e-05)
(0.01116412251 0.0003144127126 -0.0001285918447)
(0.007919133533 -0.0004774473016 0.0003139850382)
(0.01203909016 0.0007869154412 -0.0001051288286)
(0.003908013413 -7.902997633e-05 -2.142927031e-06)
(0.005394157011 -8.056364255e-05 -0.0004025816772)
(0.01160620631 0.0002781850606 -0.0006689561956)
(0.004104700257 -1.524313476e-05 -3.757494489e-05)
(0.006838989172 9.252901203e-05 -0.0009147898194)
(0.004560064753 0.0003891869741 0.0004885700315)
(0.00620781306 -4.711434378e-05 -4.977498007e-05)
(0.004154272474 -0.0006529114015 2.461460174e-05)
(0.00875845889 0.0006438926922 9.663624687e-05)
(0.009368351967 -0.0003933654622 0.0009945776338)
(0.008085298385 0.0003707392228 -0.0009893403878)
(0.01010920551 -0.0001447680955 2.946206067e-05)
(0.006208585593 0.0007440069589 -0.0001098360652)
(0.01360515674 0.0004234145658 0.0004278199999)
(0.006276310703 -0.0004326751935 0.0005594888447)
(0.01097003699 0.000215327907 -0.0002558345833)
(0.005853298311 0.0002458272865 0.0001458716718)
(0.003449123789 0.0003756695356 0.0002403709974)
(0.01013552449 -0.0001200159108 0.0001431547657)
(0.01055459563 -5.236762604e-05 -2.741576512e-05)
(0.008386197512 -7.089702685e-05 -0.0001081993781)
(0.01117887844 0.0005156038621 0.0005386296849)
(0.00436954449 -0.0003488015492 0.0006862796455)
(0.007197655891 9.816529114e-05 0.0003402223436)
(0.01296537721 -0.0003069111503 0.0001940035516)
(0.00680045121 0.0004666320328 1.348050613e-05)
(0.008661205088 0.0002068729132 -0.0005608936847)
(0.00909035088 0.0004012331162 0.00105039496)
(0.006545389315 -0.0002628438816 8.485185929e-05)
(0.006814929956 0.0006726572141 0.0004716057813)
(0.004909946834 -7.369582208e-05 0.0005274699375)
(0.01013581051 -0.0004850609075 -0.000273249164)
(0.01218072516 0.0003682828014 -0.000155148268)
(0.009254887366 -0.0002862832563 0.0001223428341)
(0.0040829985 -6.504565613e-05 8.279704298e-05)
(0.008018700421 -0.001130661387 -6.050851416e-05)
(0.013178317 0.0001325274273 6.099789492e-05)
(0.01151953632 -0.0005523275351 0.0005030579973)
(0.005725839156 0.0005875913185 4.379823627e-05)
(0.006041702593 -0.0001792800231 -0.0001655166934)
(0.005375983363 0.0001309137208 -3.125891474e-05)
(0.002765913453 0.0002918435322 1.215117323e-05)
(0.007174575879 -0.0003884622545 0.00105770059)
(0.0064429711 -0.0005649493069 0.0002047138912)
(0.005847938216 -5.576739396e-05 -0.0007007517695)
(0.0105232637 -0.0006668114733 -0.0001191112451)
(0.006298877152 0.0007723035776 4.628090207e-05)
(0.005865956981 -0.0002768677705 0.0004122192539)
(0.008303673096 -0.0003329808614 0.0002224914647)
(0.007825772923 0.001284844789 -5.330021064e-05)
(0.01237307518 -0.0002792892766 -0.0003641136878)
(0.006379773888 -0.0003273588063 0.0009153393582)
(0.00808741668 9.198892476e-05 -0.0003023357346)
(0.01115108655 0.0007188719509 -0.0004282206599)
(0.01604974979 -0.00116136564 -0.0001395387446)
(0.006570512341 0.0001633809466 0.0005084597776)
(0.008061539033 0.0004184429335 -0.0004876364901)
(0.007874076653 -2.438912184e-05 -0.0004320345995)
(0.009876671909 9.833754705e-05 -0.0003947637661)
(0.009365993445 -0.0002677495662 5.904879781e-05)
(0.01114486692 0.0004051265257 -0.0005658593249)
(0.005601394954 -0.0002438162832 -6.469194268e-05)
(0.006471241676 0.0006652027376 -0.0003319153864)
(0.004521045021 -0.0001892686582 1.931399041e-05)
(0.007929291181 0.0007065036718 -0.0005849511755)
(0.007984590021 -0.0001327938576 -4.97763922e-05)
(0.01387520692 0.0004177385134 -0.0003271751147)
(0.006911117287 0.0007769159869 0.0009036646431)
(0.01066448418 0.0001932056119 -0.0001923169466)
(0.006156654589 -0.0002474887938 -0.0001942969451)
(0.004766438449 1.316533363e-05 -3.328542579e-05)
(0.007540268984 2.950192026e-05 8.622359866e-06)
(0.004671962268 7.355663946e-06 5.318593659e-06)
(0.00726140059 2.159023579e-05 -0.0009650432857)
(0.01104776864 0.000802988077 -1.327053232e-05)
(0.00705318398 -5.725309375e-05 0.0005140316769)
(0.008156095107 -0.0001839815532 5.066734177e-06)
(0.008439625394 -0.0004113761253 -0.0001321360447)
(0.01062087429 0.0001795351999 0.0004053667377)
(0.007302446579 -0.0003184655381 -0.0007898643592)
(0.006702929074 0.0005975195986 -0.0007735597044)
(0.007948544025 0.0001453542906 -0.0002088039397)
(0.01311574643 -0.0004069232983 0.0004577435951)
(0.005930616804 -0.0006148618949 -0.0002752109145)
(0.009601027965 0.0004840629202 -2.610935313e-05)
(0.01100136895 -0.0003074907506 0.0002345412742)
(0.006903254046 0.0009019393013 0.0001744576079)
(0.01207126246 0.0009432778188 0.0001365756763)
(0.007070219202 0.000440419432 0.0005358346532)
(0.01048389289 -5.963449152e-05 -0.0001395702021)
(0.009636314481 0.0007393800548 -7.942308214e-05)
(0.005080182519 0.0008798094444 -0.0002426168355)
(0.010396266 0.0001967941809 0.0008808342205)
(0.007135757135 -0.000439141716 0.0004547799192)
(0.005269909462 -0.0002260516003 -0.0001102161309)
(0.005275867379 -0.0001390955741 -0.0007578172696)
(0.01135499508 0.0002783203735 0.0002808465125)
(0.01291819831 -1.923791554e-05 -0.0009991116415)
(0.007918898 0.0004275117769 -9.83887498e-05)
(0.006518598142 -1.132061774e-05 0.0003703880786)
(0.01225206485 0.0001336338311 0.0002471969749)
(0.008856469026 0.0003934825878 9.277748191e-06)
(0.006116225726 0.0005646751113 0.0002349637071)
(0.004555587319 0.0001358383644 0.0005793048135)
(0.01154358705 -0.000362683966 -0.001349338572)
(0.006284908234 -0.0005141178883 0.0001392885658)
(0.008767767689 0.0001591480663 0.0001050848288)
(0.007189089066 -6.428233192e-05 0.001106645154)
(0.004287634313 0.0005260435013 -0.0004539548664)
(0.007157639107 -0.0005422425665 -1.598627899e-05)
(0.007000849485 0.0001811817106 -0.0003703856308)
(0.01105212343 -0.0005905409919 0.001193691378)
(0.01329661896 -0.001441073276 -0.0003266790185)
(0.006149265723 -8.627775786e-05 -9.537813971e-05)
(0.005708560846 -1.990500945e-05 0.0005642328922)
(0.004872107155 6.219997489e-05 -5.736041202e-07)
(0.01440897146 0.0009306692848 -0.0007360695809)
(0.01005134483 -0.000258089909 3.047008566e-05)
(0.00489361866 -0.0001446196487 0.0001747248729)
(0.004350331005 -0.0003263833586 -0.0001248429029)
(0.01001559256 -7.989011627e-06 0.0004041215476)
(0.008202942511 0.0004975674799 -0.0002252944484)
(0.005540640664 -0.0001583707298 0.0002077692158)
(0.008841046762 0.0004247434873 0.000183803729)
(0.009410849161 -1.136421725e-05 -4.646459807e-05)
(0.009749383772 0.0007375106675 -2.570680113e-05)
(0.008647567386 0.000128553073 -0.0001119467594)
)
;

boundaryField
{
    flow
    {
        type            zeroGradient;
    }
    obstacle
    {
        type            calculated;
        value           nonuniform 0();
    }
    frontAndBack
    {
        type            empty;
    }
    procBoundary2to0
    {
        type            processor;
        value           nonuniform List<vector> 
31
(
(0.006325527093 -0.0006912978048 0.0002297030354)
(0.004553267433 -0.0005489387523 0.0002130464675)
(0.01170408662 0.0001079004046 0.0006842105853)
(0.007421960821 -0.0001795031658 -0.0002313192174)
(0.007112118118 0.0001960275384 0.0001607003518)
(0.008940113943 2.13237325e-05 0.0008465231703)
(0.007341732289 -8.570836615e-05 -0.0008532311177)
(0.005882885911 0.0007568741717 0.0001819619846)
(0.012240495 -0.001255452082 -0.0006370931094)
(0.01091516128 -0.0005821822354 0.0003939188786)
(0.008460879802 -0.0007404438592 -5.670532028e-05)
(0.01047846652 0.0006601830802 0.0005902974518)
(0.005392546062 0.0002543406547 0.0002213764847)
(0.008349834053 -0.0001241195089 9.621583068e-05)
(0.009350917102 -0.0006893187125 -0.0003582712151)
(0.009294299053 0.001005460506 0.0001699406187)
(0.009404882016 -0.0005872316901 -0.0001264088303)
(0.008870237634 -0.0006038487422 0.0001987458316)
(0.008151609091 0.000261697666 -7.84730635e-05)
(0.004903030033 0.0005608925559 -0.0002971087375)
(0.005483733781 -0.0002039933317 0.0003076826694)
(0.007264294093 -0.0001289987823 -0.0003630434599)
(0.005581015698 7.379457777e-05 0.0001446159887)
(0.005679601268 -0.0003621287585 -0.0007291953435)
(0.01179394053 0.000415661 -1.898755451e-05)
(0.01322476619 -0.0001943125658 0.0003548713325)
(0.01196973329 -0.0002423496976 -0.0003229662483)
(0.008659279028 -0.0004157457852 0.0004246079599)
(0.005606452597 0.0002196082866 -3.999697037e-05)
(0.01194005592 -0.0005440500813 -0.0002691039188)
(0.01194005592 -0.0005440500813 -0.0002691039188)
)
;
    }
    procBoundary2to3
    {
        type            processor;
        value           nonuniform List<vector> 
19
(
(0.006778099146 6.948471119e-05 0.0007788372568)
(0.007872251092 0.0005392143418 -0.0004706240792)
(0.009303961512 0.0001949165095 0.000626038571)
(0.009143274893 -0.000565897609 0.0007399021698)
(0.009940883739 0.000304364453 0.0003616909439)
(0.007063842946 4.288222772e-05 -0.0007444254576)