/*--------------------------------*- C++ -*----------------------------------*\
  =========                 |
  \\      /  F ield         | OpenFOAM: The Open Source CFD Toolbox
   \\    /   O peration     | Website:  https://openfoam.org
    \\  /    A nd           | Version:  7
     \\/     M anipulation  |
\*---------------------------------------------------------------------------*/
FoamFile
{
    version     2.0;
    format      ascii;
    class       volScalarField;
    location    "0.005";
    object      rhoNMean;
}
// * * * * * * * * * * * * * * * * * * * * * * * * * * * * * * * * * * * * * //

dimensions      [0 -3 0 0 0 0 0];

internalField   nonuniform List<scalar> 
546
(
8.599463054e+19
8.710684554e+19
8.711101114e+19
8.246220239e+19
8.574886019e+19
8.290375591e+19
8.182070011e+19
8.040023077e+19
8.227891603e+19
7.951295814e+19
7.744682092e+19
7.69927706e+19
8.0241938e+19
7.659703868e+19
8.07876315e+19
7.467253183e+19
7.448507986e+19
7.720938176e+19
7.788837444e+19
7.549315488e+19
8.736927829e+19
8.637370007e+19
8.998527461e+19
8.706102395e+19
8.442419963e+19
8.467413559e+19
8.496989313e+19
8.89355436e+19
8.234973121e+19
7.920470379e+19
8.046688036e+19
8.009614203e+19
8.055852355e+19
7.836325275e+19
8.069598832e+19
7.613465716e+19
7.543067089e+19
7.588472121e+19
7.623463154e+19
7.459755104e+19
8.866061405e+19
9.081839445e+19
8.453667081e+19
8.283710632e+19
8.287459672e+19
8.46158172e+19
8.691106237e+19
8.416593248e+19
8.496156193e+19
7.905890782e+19
8.02586004e+19
8.117919783e+19
7.995034606e+19
7.683447783e+19
8.030025639e+19
7.580557482e+19
7.673033785e+19
7.812164799e+19
7.689696182e+19
7.338536167e+19
9.143490314e+19
8.808159576e+19
8.094175867e+19
8.131249701e+19
8.217477605e+19
8.476161317e+19
8.480743476e+19
7.852571112e+19
7.967125091e+19
8.284960312e+19
8.131249701e+19
7.813831039e+19
8.045854916e+19
7.950462694e+19
7.741766172e+19
7.976289409e+19
7.805083281e+19
7.836741835e+19
7.618047875e+19
7.727186575e+19
8.998527461e+19
8.629038809e+19
8.402430211e+19
8.387434053e+19
8.341195902e+19
8.413677329e+19
8.889388761e+19
8.427007246e+19
8.524898828e+19
7.91797102e+19
8.192067449e+19
7.772175047e+19
7.718022257e+19
8.005865164e+19
7.743015852e+19
7.670534426e+19
7.75676233e+19
7.831743116e+19
7.897143024e+19
7.91880414e+19
8.655698644e+19
8.873142924e+19
8.788164699e+19
8.581967537e+19
8.590715296e+19
8.417426368e+19
8.631121608e+19
8.288292792e+19
8.432005965e+19
8.110005145e+19
8.109172025e+19
8.357025179e+19
7.97045757e+19
8.011280443e+19
7.829243756e+19
7.870899749e+19
7.657621068e+19
7.867983829e+19
7.839657754e+19
7.996700845e+19
8.582800657e+19
9.183063507e+19
9.124745117e+19
8.896470279e+19
8.506153631e+19
8.872309804e+19
8.693189037e+19
8.56697138e+19
8.479493796e+19
8.654032404e+19
8.103340186e+19
8.167490414e+19
7.796335522e+19
7.902141743e+19
8.138747779e+19
8.263299196e+19
8.100424266e+19
7.768426008e+19
7.946713655e+19
7.638875871e+19
8.877308523e+19
8.909383637e+19
8.721931672e+19
8.575302579e+19
8.565305141e+19
8.497822433e+19
8.763171104e+19
8.706102395e+19
8.383685014e+19
8.62029105e+19
8.40492957e+19
8.120002583e+19
7.921303499e+19
8.378686295e+19
8.537395626e+19
8.314952627e+19
7.982537808e+19
7.9192207e+19
7.59055492e+19
7.872149428e+19
8.595297455e+19
8.709434874e+19
8.779000381e+19
8.590715296e+19
8.812741735e+19
8.724431031e+19
8.597380255e+19
8.164574494e+19
8.144163058e+19
8.319951346e+19
8.761504864e+19
8.647367445e+19
8.447418682e+19
8.255384558e+19
8.638203127e+19
8.40742893e+19
8.103340186e+19
7.955461413e+19
7.694694901e+19
8.270797275e+19
8.800661497e+19
9.374681071e+19
9.423418582e+19
8.759838625e+19
8.578218498e+19
8.835652531e+19
8.805243656e+19
8.45783268e+19
8.216227925e+19
8.368688857e+19
8.527398188e+19
8.196233049e+19
8.247469919e+19
8.223309444e+19
8.669028561e+19
8.199982088e+19
8.106672665e+19
7.847155833e+19
7.866734149e+19
7.895060224e+19
8.906467718e+19
9.54672032e+19
9.028519775e+19
8.968951706e+19
8.780250061e+19
8.564472021e+19
8.616542011e+19
8.479493796e+19
8.477410997e+19
8.380352535e+19
8.041689317e+19
8.370771656e+19
8.468663238e+19
8.217477605e+19
8.497822433e+19
8.219560404e+19
8.374520696e+19
8.330365344e+19
7.935049977e+19
7.955877973e+19
8.67777632e+19
9.236383177e+19
9.365516753e+19
8.863145486e+19
8.563638901e+19
9.069342648e+19
8.905218038e+19
8.278711913e+19
8.606961133e+19
8.497405873e+19
8.595297455e+19
8.580301298e+19
8.311620147e+19
8.383685014e+19
7.890894625e+19
8.370355097e+19
8.496156193e+19
8.346194621e+19
7.823411917e+19
8.346194621e+19
8.812325175e+19
9.222220139e+19
8.921463875e+19
8.759838625e+19
8.78733158e+19
9.066843288e+19
9.096002483e+19
8.941875311e+19
8.503237712e+19
8.862312366e+19
8.646950886e+19
8.557807062e+19
8.485325635e+19
8.741509988e+19
8.317451986e+19
8.261216397e+19
8.254134878e+19
8.29953991e+19
8.046271476e+19
8.224975683e+19
9.391760028e+19
9.353436515e+19
9.342605957e+19
9.181813827e+19
8.999360581e+19
8.860646126e+19
8.657364884e+19
8.709851434e+19
8.768169823e+19
9.126827917e+19
8.72901319e+19
8.271630395e+19
8.73109599e+19
8.884806602e+19
8.322450705e+19
8.454083641e+19
8.637370007e+19
8.412011089e+19
8.277462234e+19
8.367439177e+19
8.936460032e+19
9.452994337e+19
9.410505225e+19
9.156403672e+19
9.668355817e+19
8.953538989e+19
8.986030663e+19
8.848149328e+19
8.696521516e+19
9.161818951e+19
9.348021236e+19
8.711934234e+19
8.645701206e+19
9.16556799e+19
8.508236431e+19
8.304955189e+19
8.409511729e+19
8.654448964e+19
8.500321793e+19
8.776501022e+19
9.128077597e+19
9.384678509e+19
9.16348519e+19
8.482409716e+19
9.38259571e+19
8.943541551e+19
8.998110901e+19
9.143073754e+19
8.927295714e+19
9.037267534e+19
9.114747679e+19
8.921880435e+19
8.957288028e+19
8.754839906e+19
9.076424166e+19
8.690689677e+19
8.701936795e+19
8.766920143e+19
8.543644025e+19
8.712350793e+19
9.27345701e+19
9.722925167e+19
9.423835142e+19
8.902718678e+19
9.248879975e+19
9.158903031e+19
9.091836883e+19
8.955621789e+19
8.740676868e+19
8.94562435e+19
9.278455729e+19
9.090170644e+19
9.186812546e+19
8.554891142e+19
8.608627373e+19
8.723597911e+19
8.236222801e+19
8.669445121e+19
8.928961953e+19
8.7839991e+19
9.49006817e+19
9.948284086e+19
9.539638801e+19
9.21763798e+19
9.256794613e+19
8.969784826e+19
9.008108339e+19
9.247630295e+19
9.205141183e+19
9.343439077e+19
9.612953347e+19
9.309697723e+19
9.094752803e+19
8.78691502e+19
8.770252623e+19
8.860229566e+19
8.364106698e+19
8.524065708e+19
8.885223162e+19
8.861062686e+19
7.188023694e+19
7.070481748e+19
6.955188869e+19
7.330388503e+19
7.057443614e+19
7.120822334e+19
7.46363529e+19
7.576409168e+19
7.064329956e+19
7.661568898e+19
7.275268466e+19
7.331902596e+19
7.004881293e+19
6.908925189e+19
6.933186569e+19
7.105678282e+19
7.346166899e+19
7.424880985e+19
7.070687345e+19
7.442203567e+19
7.630694159e+19
7.452658304e+19
7.248984188e+19
7.393608e+19
7.31789689e+19
7.345756047e+19
7.376265525e+19
7.292714736e+19
7.219874059e+19
7.64108342e+19
7.544738771e+19
7.792851608e+19
7.507471718e+19
7.659217747e+19
7.397492066e+19
7.105678231e+19
7.490807704e+19
7.76708208e+19
7.633951954e+19
7.561702243e+19
7.407639844e+19
7.375617009e+19
7.367984298e+19
7.449364032e+19
7.25068309e+19
7.470471769e+19
7.259215123e+19
7.232524326e+19
7.050767528e+19
7.545911353e+19
7.537002781e+19
7.665170896e+19
7.291266296e+19
7.272437348e+19
7.493006393e+19
7.524366778e+19
7.399257568e+19
7.218634291e+19
7.365670165e+19
7.535241781e+19
7.879535211e+19
7.819686252e+19
7.25072778e+19
7.363754349e+19
7.513789592e+19
7.542183364e+19
7.641719167e+19
7.626497651e+19
7.731431909e+19
7.607367788e+19
7.798737097e+19
7.902354049e+19
7.67703605e+19
7.655266475e+19
7.824210928e+19
7.827693231e+19
7.796810899e+19
7.854210838e+19
7.438568269e+19
7.68290799e+19
7.419673605e+19
7.746107483e+19
7.802574628e+19
7.867754229e+19
7.974557527e+19
7.99249615e+19
7.773400818e+19
7.645438622e+19
7.788224526e+19
8.078106902e+19
7.812060136e+19
7.56389201e+19
7.736318236e+19
8.047754243e+19
7.883023014e+19
8.114539393e+19
7.527176937e+19
7.786023155e+19
8.141271602e+19
8.044391329e+19
7.674101761e+19
7.98675322e+19
7.586369208e+19
7.961266346e+19
8.1262306e+19
8.094941208e+19
7.862860821e+19
7.786864978e+19
8.222222292e+19
7.93854969e+19
7.853748579e+19
7.518446281e+19
7.67049758e+19
7.991998158e+19
8.157184357e+19
8.387132329e+19
8.003739288e+19
8.003634409e+19
7.818316164e+19
7.825879505e+19
7.735559848e+19
7.800209479e+19
8.040139051e+19
7.948095673e+19
8.201846124e+19
8.481559947e+19
7.957755202e+19
8.136642535e+19
8.250618682e+19
8.0183577e+19
7.905321843e+19
8.212250343e+19
8.356165235e+19
8.019656688e+19
8.225282439e+19
8.451271783e+19
8.201052824e+19
7.937972197e+19
8.50830471e+19
7.911235665e+19
7.946150677e+19
8.157715474e+19
8.28293425e+19
8.576778391e+19
8.443284925e+19
8.631664289e+19
8.371611981e+19
8.438436167e+19
8.352336897e+19
8.396485433e+19
8.080670885e+19
8.249039644e+19
8.609857828e+19
8.819997967e+19
8.571079547e+19
8.832991036e+19
8.498277295e+19
8.326473676e+19
8.323092854e+19
8.543298086e+19
8.585659153e+19
8.606112823e+19
8.819524717e+19
8.907802763e+19
8.888133874e+19
8.812056611e+19
8.517924984e+19
8.981833069e+19
8.743104312e+19
8.878320955e+19
8.566748956e+19
8.83117719e+19
8.7619863e+19
8.761168651e+19
8.875310136e+19
8.918955802e+19
9.050086277e+19
9.007087705e+19
8.60408942e+19
8.628654247e+19
8.991368831e+19
8.808237882e+19
8.653883468e+19
9.112827104e+19
8.615299118e+19
8.843680955e+19
)
;

boundaryField
{
    flow
    {
        type            calculated;
        value           nonuniform List<scalar> 
48
(
8.599463054e+19
8.736927829e+19
8.866061405e+19
9.143490314e+19
8.998527461e+19
8.655698644e+19
8.582800657e+19
8.877308523e+19
8.595297455e+19
8.800661497e+19
8.906467718e+19
8.67777632e+19
8.812325175e+19
9.391760028e+19
8.936460032e+19
9.128077597e+19
9.27345701e+19
9.49006817e+19
9.49006817e+19
9.948284086e+19
9.539638801e+19
9.21763798e+19
9.256794613e+19
8.969784826e+19
9.008108339e+19
9.247630295e+19
9.205141183e+19
9.343439077e+19
9.612953347e+19
9.309697723e+19
9.094752803e+19
8.78691502e+19
8.770252623e+19
8.860229566e+19
8.364106698e+19
8.524065708e+19
8.885223162e+19
8.861062686e+19
9.050086277e+19
9.007087705e+19
8.60408942e+19
8.628654247e+19
8.991368831e+19
8.808237882e+19
8.653883468e+19
9.112827104e+19
8.615299118e+19
8.843680955e+19
)
;
    }
    obstacle
    {
        type            calculated;
        value           nonuniform 0();
    }
    frontAndBack
    {
        type            empty;
    }
    procBoundary2to0
    {
        type            processor;
        value           nonuniform List<scalar> 
31
(
9.00269306e+19
8.852314928e+19
8.671944481e+19
8.309120788e+19
8.517400749e+19
8.319951346e+19
8.235806241e+19
8.167490414e+19
8.139164339e+19
7.945463975e+19
7.618464435e+19
7.605967637e+19
7.890061505e+19
7.86340167e+19
7.746348332e+19
7.424347511e+19
7.587222441e+19
7.500577977e+19
7.628878433e+19
7.59472052e+19
7.133441989e+19
7.037154918e+19
6.971317145e+19
7.632437265e+19
7.253336315e+19
7.162691183e+19
7.396331308e+19
7.298186538e+19
7.331340268e+19
7.450312453e+19
7.450312453e+19
)
;
    }
    procBoundary2to3
    {
        type            processor;
        value           nonuniform List<scalar> 
19
(
6.927588952e+19
6.990852556e+19
7.197693184e+19
6.955406991e+19
7.226857205e+19
7.544072635e+19
7.688995643e+19
7.530163561e+19
7.811933427e+19
7.724441153e+19
8.014735845e+19
8.061847098e+19
8.410469877e+19
8.429763033e+19
8.596671388e+19
8.956062375e+19
8.842546831e+19
8.671151882e+19
9.034581032e+19
)
;
    }
}


// ************************************************************************* //
