/*--------------------------------*- C++ -*----------------------------------*\
  =========                 |
  \\      /  F ield         | OpenFOAM: The Open Source CFD Toolbox
   \\    /   O peration     | Website:  https://openfoam.org
    \\  /    A nd           | Version:  7
     \\/     M anipulation  |
\*---------------------------------------------------------------------------*/
FoamFile
{
    version     2.0;
    format      ascii;
    class       volScalarField;
    location    "0.005";
    object      rhoN;
}
// * * * * * * * * * * * * * * * * * * * * * * * * * * * * * * * * * * * * * //

dimensions      [0 -3 0 0 0 0 0];

internalField   nonuniform List<scalar> 
546
(
6.248398848e+19
1.041399808e+20
1.041399808e+20
3.124199424e+19
6.248398848e+19
5.20699904e+19
1.145539789e+20
9.372598272e+19
5.20699904e+19
1.24967977e+20
5.20699904e+19
8.331198464e+19
8.331198464e+19
1.145539789e+20
1.041399808e+20
9.372598272e+19
7.289798656e+19
8.331198464e+19
6.248398848e+19
1.145539789e+20
1.35381975e+20
1.041399808e+20
7.289798656e+19
1.35381975e+20
8.331198464e+19
1.041399808e+20
9.372598272e+19
1.041399808e+20
9.372598272e+19
6.248398848e+19
1.35381975e+20
6.248398848e+19
1.041399808e+20
8.331198464e+19
7.289798656e+19
8.331198464e+19
4.165599232e+19
1.145539789e+20
5.20699904e+19
1.041399808e+20
1.041399808e+20
1.35381975e+20
8.331198464e+19
1.145539789e+20
9.372598272e+19
1.145539789e+20
6.248398848e+19
9.372598272e+19
9.372598272e+19
9.372598272e+19
1.35381975e+20
9.372598272e+19
8.331198464e+19
1.24967977e+20
1.35381975e+20
6.248398848e+19
7.289798656e+19
1.35381975e+20
1.145539789e+20
1.35381975e+20
7.289798656e+19
1.562099712e+20
1.24967977e+20
1.24967977e+20
1.145539789e+20
1.145539789e+20
8.331198464e+19
7.289798656e+19
6.248398848e+19
5.20699904e+19
1.041399808e+20
6.248398848e+19
6.248398848e+19
7.289798656e+19
7.289798656e+19
1.24967977e+20
1.35381975e+20
7.289798656e+19
9.372598272e+19
7.289798656e+19
7.289798656e+19
9.372598272e+19
1.770379674e+20
1.145539789e+20
1.35381975e+20
9.372598272e+19
1.145539789e+20
9.372598272e+19
1.145539789e+20
5.20699904e+19
1.041399808e+20
8.331198464e+19
6.248398848e+19
4.165599232e+19
5.20699904e+19
8.331198464e+19
1.145539789e+20
1.041399808e+20
7.289798656e+19
1.145539789e+20
9.372598272e+19
1.041399808e+20
1.24967977e+20
9.372598272e+19
1.457959731e+20
1.145539789e+20
1.457959731e+20
1.457959731e+20
7.289798656e+19
7.289798656e+19
1.24967977e+20
1.145539789e+20
6.248398848e+19
1.457959731e+20
8.331198464e+19
1.145539789e+20
8.331198464e+19
9.372598272e+19
1.041399808e+20
8.331198464e+19
9.372598272e+19
1.145539789e+20
1.457959731e+20
2.082799616e+19
7.289798656e+19
9.372598272e+19
1.145539789e+20
5.20699904e+19
1.145539789e+20
7.289798656e+19
1.041399808e+20
1.874519654e+20
1.041399808e+20
7.289798656e+19
9.372598272e+19
1.24967977e+20
1.145539789e+20
9.372598272e+19
6.248398848e+19
1.35381975e+20
9.372598272e+19
5.20699904e+19
7.289798656e+19
1.457959731e+20
6.248398848e+19
9.372598272e+19
1.145539789e+20
8.331198464e+19
8.331198464e+19
1.145539789e+20
1.145539789e+20
1.35381975e+20
1.041399808e+20
4.165599232e+19
1.145539789e+20
3.124199424e+19
1.874519654e+20
9.372598272e+19
6.248398848e+19
9.372598272e+19
1.562099712e+20
1.35381975e+20
1.041399808e+20
8.331198464e+19
1.35381975e+20
8.331198464e+19
7.289798656e+19
7.289798656e+19
7.289798656e+19
1.041399808e+20
1.457959731e+20
9.372598272e+19
3.124199424e+19
1.041399808e+20
7.289798656e+19
1.041399808e+20
4.165599232e+19
9.372598272e+19
6.248398848e+19
9.372598272e+19
9.372598272e+19
1.457959731e+20
6.248398848e+19
1.041399808e+20
8.331198464e+19
1.145539789e+20
6.248398848e+19
7.289798656e+19
1.041399808e+20
8.331198464e+19
1.35381975e+20
6.248398848e+19
1.041399808e+20
1.24967977e+20
1.35381975e+20
7.289798656e+19
7.289798656e+19
7.289798656e+19
9.372598272e+19
9.372598272e+19
1.041399808e+20
6.248398848e+19
5.20699904e+19
7.289798656e+19
9.372598272e+19
8.331198464e+19
4.165599232e+19
1.457959731e+20
9.372598272e+19
1.562099712e+20
1.978659635e+20
1.666239693e+20
9.372598272e+19
8.331198464e+19
1.145539789e+20
8.331198464e+19
1.24967977e+20
9.372598272e+19
1.24967977e+20
1.145539789e+20
1.145539789e+20
1.24967977e+20
1.24967977e+20
1.041399808e+20
3.124199424e+19
9.372598272e+19
1.35381975e+20
1.24967977e+20
1.041399808e+20
1.24967977e+20
1.24967977e+20
5.20699904e+19
7.289798656e+19
6.248398848e+19
7.289798656e+19
1.041399808e+20
9.372598272e+19
8.331198464e+19
1.562099712e+20
1.35381975e+20
1.35381975e+20
8.331198464e+19
3.124199424e+19
1.562099712e+20
1.35381975e+20
3.124199424e+19
1.24967977e+20
1.041399808e+20
5.20699904e+19
9.372598272e+19
1.24967977e+20
1.457959731e+20
4.165599232e+19
1.457959731e+20
1.24967977e+20
1.041399808e+20
7.289798656e+19
3.124199424e+19
1.770379674e+20
5.20699904e+19
8.331198464e+19
5.20699904e+19
1.874519654e+20
1.35381975e+20
9.372598272e+19
1.35381975e+20
1.041399808e+20
8.331198464e+19
9.372598272e+19
1.457959731e+20
8.331198464e+19
9.372598272e+19
8.331198464e+19
6.248398848e+19
1.145539789e+20
5.20699904e+19
8.331198464e+19
1.041399808e+20
9.372598272e+19
1.145539789e+20
1.145539789e+20
1.145539789e+20
1.35381975e+20
7.289798656e+19
5.20699904e+19
7.289798656e+19
5.20699904e+19
1.24967977e+20
9.372598272e+19
7.289798656e+19
1.041399808e+20
1.041399808e+20
8.331198464e+19
1.145539789e+20
8.331198464e+19
1.041399808e+20
1.145539789e+20
9.372598272e+19
1.666239693e+20
1.35381975e+20
9.372598272e+19
1.457959731e+20
9.372598272e+19
1.24967977e+20
8.331198464e+19
8.331198464e+19
8.331198464e+19
8.331198464e+19
9.372598272e+19
1.874519654e+20
1.24967977e+20
1.457959731e+20
1.35381975e+20
9.372598272e+19
5.20699904e+19
1.041399808e+20
1.24967977e+20
6.248398848e+19
9.372598272e+19
4.165599232e+19
8.331198464e+19
1.041399808e+20
1.562099712e+20
7.289798656e+19
1.041399808e+20
8.331198464e+19
9.372598272e+19
6.248398848e+19
8.331198464e+19
6.248398848e+19
1.24967977e+20
1.24967977e+20
1.041399808e+20
6.248398848e+19
6.248398848e+19
1.145539789e+20
1.24967977e+20
8.331198464e+19
8.331198464e+19
8.331198464e+19
1.24967977e+20
5.20699904e+19
6.248398848e+19
9.372598272e+19
1.457959731e+20
6.248398848e+19
7.289798656e+19
1.041399808e+20
1.457959731e+20
1.457959731e+20
8.331198464e+19
1.457959731e+20
1.770379674e+20
9.372598272e+19
1.24967977e+20
1.562099712e+20
1.145539789e+20
1.041399808e+20
6.248398848e+19
1.041399808e+20
9.669987032e+19
5.410199672e+19
5.448725299e+19
5.487803575e+19
7.738425015e+19
6.681199412e+19
8.360743015e+19
7.365953358e+19
9.536082555e+19
5.334759983e+19
6.446658021e+19
5.410199672e+19
5.448725337e+19
5.487803575e+19
9.94940352e+19
7.794732648e+19
4.180371536e+19
6.313674307e+19
1.271477674e+20
8.535615974e+19
1.181887296e+20
5.41019971e+19
4.358980269e+19
7.682925005e+19
4.421957151e+19
5.567666177e+19
1.254111452e+20
2.104558102e+19
6.35738837e+19
9.60256797e+19
8.595544028e+19
9.73835941e+19
1.525643094e+20
5.487803613e+19
1.10548928e+20
7.794732592e+19
6.270557261e+19
1.157506948e+20
8.476517826e+19
4.267808016e+19
5.372215018e+19
7.574279541e+19
4.358980239e+19
5.487803536e+19
7.73842496e+19
4.454132941e+19
5.225464384e+19
1.262734853e+20
7.416953098e+19
1.066952004e+20
1.396775905e+20
1.082039934e+20
5.448725337e+19
9.878046504e+19
5.527446439e+19
1.224886559e+20
7.315650138e+19
9.47051146e+19
6.35738837e+19
7.468663977e+19
6.446658021e+19
1.514855919e+20
7.628215471e+19
3.292682145e+19
8.843914303e+19
1.224886568e+20
1.254111461e+20
6.313674307e+19
1.271477674e+20
7.468664028e+19
2.148886007e+19
4.328159738e+19
4.358980269e+19
5.487803575e+19
7.73842496e+19
1.002179912e+20
6.270557261e+19
1.157506956e+20
3.178694206e+19
7.468664028e+19
8.595544028e+19
8.656319476e+19
1.08974506e+20
5.487803575e+19
1.768782861e+20
8.908265883e+19
8.360743015e+19
7.365953308e+19
5.297823606e+19
1.813818382e+20
7.521100973e+19
8.656319536e+19
9.807705674e+19
1.097560723e+20
8.843914303e+19
6.681199412e+19
1.463130028e+20
3.156837153e+19
8.476517884e+19
8.535616032e+19
1.181887312e+20
1.190243936e+20
1.08974506e+20
1.207316778e+20
1.547684992e+20
1.336239882e+20
6.270557303e+19
2.104558102e+19
1.059564728e+20
1.066952004e+20
6.446658021e+19
6.492239607e+19
1.416668588e+20
1.097560723e+20
1.105489288e+20
1.113533235e+20
1.045092877e+20
6.313674264e+19
6.357388327e+19
1.066951997e+20
6.446658021e+19
7.574279541e+19
1.08974506e+20
7.682925005e+19
6.632935727e+19
1.002179912e+20
5.225464384e+19
1.262734861e+20
8.476517884e+19
4.267808016e+19
1.504220205e+20
5.41019971e+19
8.717960599e+19
6.585364336e+19
7.73842496e+19
6.681199365e+19
9.405835892e+19
7.365953308e+19
4.238258884e+19
1.066951997e+20
9.669987032e+19
4.328159738e+19
1.416668578e+20
1.097560707e+20
5.5274464e+19
4.454132973e+19
4.180371508e+19
8.418232409e+19
1.059564735e+20
8.535615974e+19
1.181887296e+20
7.574279541e+19
6.538470404e+19
8.780485781e+19
4.421957151e+19
6.681199412e+19
7.315650187e+19
4.209116205e+19
1.165521201e+20
7.468664028e+19
9.669987032e+19
1.406651915e+20
1.525643084e+20
7.682925005e+19
1.105489288e+20
1.336239882e+20
1.776657891e+20
8.418232409e+19
1.271477674e+20
9.60256797e+19
1.396775905e+20
7.574279594e+19
1.089745075e+20
8.78048572e+19
3.31646784e+19
1.002179912e+20
1.254111452e+20
1.578418566e+20
8.476517826e+19
8.535616032e+19
1.289331604e+20
9.73835941e+19
7.628215418e+19
7.682925005e+19
1.658233932e+20
4.454132941e+19
)
;

boundaryField
{
    flow
    {
        type            zeroGradient;
    }
    obstacle
    {
        type            calculated;
        value           nonuniform 0();
    }
    frontAndBack
    {
        type            empty;
    }
    procBoundary2to0
    {
        type            processor;
        value           nonuniform List<scalar> 
31
(
8.331198464e+19
6.248398848e+19
8.331198464e+19
1.041399808e+20
8.331198464e+19
4.165599232e+19
9.372598272e+19
9.372598272e+19
1.041399808e+20
1.562099712e+20
9.372598272e+19
5.20699904e+19
8.331198464e+19
8.331198464e+19
9.372598272e+19
1.457959731e+20
8.331198464e+19
1.24967977e+20
7.289798656e+19
1.562099712e+20
7.521101025e+19
3.246119803e+19
9.807705606e+19
4.390242891e+19
8.843914303e+19
8.908265883e+19
6.270557261e+19
8.418232352e+19
5.297823641e+19
5.33476002e+19
5.33476002e+19
)
;
    }
    procBoundary2to3
    {
        type            processor;
        value           nonuniform List<scalar> 
19
(
4.486780409e+19
1.346034123e+20
1.682542666e+20
7.851865717e+19
1.009525592e+20
5.608475552e+19
6.730170662e+19
5.608475512e+19
1.12169511e+20
7.851865717e+19
4.486780409e+19
1.009525599e+20
1.458203633e+20
1.458203633e+20
7.851865829e+19
1.009525592e+20
1.458203633e+20
7.851865773e+19
7.851865717e+19
)
;
    }
}


// ************************************************************************* //
