/*--------------------------------*- C++ -*----------------------------------*\
  =========                 |
  \\      /  F ield         | OpenFOAM: The Open Source CFD Toolbox
   \\    /   O peration     | Website:  https://openfoam.org
    \\  /    A nd           | Version:  7
     \\/     M anipulation  |
\*---------------------------------------------------------------------------*/
FoamFile
{
    version     2.0;
    format      ascii;
    class       volScalarField;
    location    "0.005";
    object      rhoN;
}
// * * * * * * * * * * * * * * * * * * * * * * * * * * * * * * * * * * * * * //

dimensions      [0 -3 0 0 0 0 0];

internalField   nonuniform List<scalar> 
546
(
6.248398848e+19
1.145539789e+20
6.248398848e+19
6.248398848e+19
5.20699904e+19
6.248398848e+19
1.041399808e+20
8.331198464e+19
6.248398848e+19
1.562099712e+20
1.041399808e+20
8.331198464e+19
1.24967977e+20
9.372598272e+19
5.20699904e+19
4.165599232e+19
9.372598272e+19
8.331198464e+19
9.372598272e+19
6.248398848e+19
9.372598272e+19
7.289798656e+19
1.145539789e+20
5.20699904e+19
2.291079578e+20
1.457959731e+20
1.24967977e+20
8.331198464e+19
8.331198464e+19
1.145539789e+20
1.457959731e+20
1.24967977e+20
9.372598272e+19
1.874519654e+20
9.372598272e+19
8.331198464e+19
1.457959731e+20
1.145539789e+20
9.372598272e+19
6.248398848e+19
8.331198464e+19
1.24967977e+20
9.372598272e+19
1.562099712e+20
6.248398848e+19
1.562099712e+20
6.248398848e+19
1.562099712e+20
1.041399808e+20
1.35381975e+20
8.331198464e+19
6.248398848e+19
1.24967977e+20
1.24967977e+20
7.289798656e+19
8.331198464e+19
1.145539789e+20
8.331198464e+19
8.331198464e+19
1.041399808e+20
7.289798656e+19
9.372598272e+19
1.24967977e+20
9.372598272e+19
1.041399808e+20
1.041399808e+20
8.331198464e+19
1.457959731e+20
7.289798656e+19
2.082799616e+19
1.145539789e+20
9.372598272e+19
1.457959731e+20
1.041399808e+20
7.289798656e+19
9.372598272e+19
1.770379674e+20
5.20699904e+19
1.35381975e+20
1.874519654e+20
6.248398848e+19
9.372598272e+19
1.041399808e+20
7.289798656e+19
6.248398848e+19
1.24967977e+20
6.248398848e+19
4.165599232e+19
5.20699904e+19
8.331198464e+19
1.041399808e+20
1.145539789e+20
1.041399808e+20
6.248398848e+19
1.145539789e+20
9.372598272e+19
1.041399808e+20
1.666239693e+20
1.145539789e+20
1.145539789e+20
7.289798656e+19
4.165599232e+19
1.041399808e+20
1.145539789e+20
8.331198464e+19
1.145539789e+20
6.248398848e+19
7.289798656e+19
6.248398848e+19
5.20699904e+19
9.372598272e+19
8.331198464e+19
1.35381975e+20
1.24967977e+20
1.041399808e+20
1.041399808e+20
1.041399808e+20
1.24967977e+20
1.041399808e+20
1.35381975e+20
7.289798656e+19
1.457959731e+20
7.289798656e+19
1.562099712e+20
1.24967977e+20
1.041399808e+20
1.35381975e+20
7.289798656e+19
7.289798656e+19
1.24967977e+20
8.331198464e+19
1.041399808e+20
9.372598272e+19
1.041399808e+20
7.289798656e+19
9.372598272e+19
1.35381975e+20
1.041399808e+20
1.145539789e+20
4.165599232e+19
6.248398848e+19
6.248398848e+19
1.145539789e+20
6.248398848e+19
1.041399808e+20
8.331198464e+19
1.457959731e+20
1.562099712e+20
1.041399808e+20
7.289798656e+19
9.372598272e+19
1.24967977e+20
8.331198464e+19
6.248398848e+19
8.331198464e+19
9.372598272e+19
9.372598272e+19
5.20699904e+19
1.24967977e+20
6.248398848e+19
1.145539789e+20
8.331198464e+19
9.372598272e+19
1.145539789e+20
1.24967977e+20
9.372598272e+19
7.289798656e+19
8.331198464e+19
1.35381975e+20
9.372598272e+19
1.145539789e+20
1.35381975e+20
4.165599232e+19
1.041399808e+20
9.372598272e+19
1.24967977e+20
9.372598272e+19
1.041399808e+20
6.248398848e+19
1.35381975e+20
1.041399808e+20
7.289798656e+19
8.331198464e+19
8.331198464e+19
1.041399808e+20
1.041399808e+20
1.562099712e+20
9.372598272e+19
1.457959731e+20
9.372598272e+19
4.165599232e+19
4.165599232e+19
1.457959731e+20
5.20699904e+19
1.041399808e+20
1.145539789e+20
1.145539789e+20
8.331198464e+19
1.041399808e+20
1.145539789e+20
7.289798656e+19
9.372598272e+19
1.35381975e+20
8.331198464e+19
1.145539789e+20
9.372598272e+19
8.331198464e+19
1.145539789e+20
7.289798656e+19
1.24967977e+20
7.289798656e+19
1.145539789e+20
1.35381975e+20
4.165599232e+19
7.289798656e+19
1.24967977e+20
7.289798656e+19
1.041399808e+20
1.145539789e+20
9.372598272e+19
6.248398848e+19
1.35381975e+20
1.35381975e+20
9.372598272e+19
1.35381975e+20
1.457959731e+20
4.165599232e+19
1.24967977e+20
8.331198464e+19
1.457959731e+20
9.372598272e+19
8.331198464e+19
1.874519654e+20
1.35381975e+20
1.041399808e+20
9.372598272e+19
5.20699904e+19
8.331198464e+19
1.35381975e+20
9.372598272e+19
7.289798656e+19
8.331198464e+19
9.372598272e+19
9.372598272e+19
1.041399808e+20
1.145539789e+20
2.082799616e+19
1.35381975e+20
9.372598272e+19
8.331198464e+19
1.041399808e+20
1.041399808e+20
8.331198464e+19
8.331198464e+19
1.562099712e+20
3.124199424e+19
9.372598272e+19
1.041399808e+20
8.331198464e+19
8.331198464e+19
8.331198464e+19
9.372598272e+19
1.457959731e+20
9.372598272e+19
1.24967977e+20
1.041399808e+20
9.372598272e+19
1.24967977e+20
1.145539789e+20
6.248398848e+19
9.372598272e+19
5.20699904e+19
1.145539789e+20
8.331198464e+19
9.372598272e+19
5.20699904e+19
1.145539789e+20
1.457959731e+20
1.562099712e+20
1.145539789e+20
8.331198464e+19
1.35381975e+20
1.041399808e+20
7.289798656e+19
7.289798656e+19
6.248398848e+19
1.35381975e+20
8.331198464e+19
1.041399808e+20
1.24967977e+20
1.041399808e+20
9.372598272e+19
1.24967977e+20
8.331198464e+19
8.331198464e+19
1.041399808e+20
9.372598272e+19
5.20699904e+19
9.372598272e+19
1.041399808e+20
4.165599232e+19
8.331198464e+19
6.248398848e+19
1.24967977e+20
1.145539789e+20
1.35381975e+20
9.372598272e+19
8.331198464e+19
1.457959731e+20
1.457959731e+20
7.289798656e+19
1.24967977e+20
1.24967977e+20
9.372598272e+19
6.248398848e+19
1.145539789e+20
9.372598272e+19
1.562099712e+20
6.248398848e+19
9.372598272e+19
8.331198464e+19
9.372598272e+19
1.041399808e+20
5.20699904e+19
1.457959731e+20
6.248398848e+19
9.372598272e+19
8.331198464e+19
1.041399808e+20
1.145539789e+20
1.666239693e+20
5.20699904e+19
1.24967977e+20
9.372598272e+19
6.248398848e+19
1.35381975e+20
1.041399808e+20
8.331198464e+19
1.145539789e+20
1.041399808e+20
8.331198464e+19
8.331198464e+19
1.24967977e+20
9.372598272e+19
1.457959731e+20
7.289798656e+19
1.145539789e+20
7.289798656e+19
1.145539789e+20
7.289798656e+19
9.372598272e+19
8.331198464e+19
9.372598272e+19
8.331198464e+19
5.20699904e+19
1.041399808e+20
1.24967977e+20
8.331198464e+19
1.24967977e+20
1.457959731e+20
6.446658021e+19
1.082039934e+20
1.198719566e+20
7.682925005e+19
1.547685003e+20
7.794732648e+19
7.315650138e+19
7.365953358e+19
1.059564728e+20
1.066951997e+20
8.595544028e+19
1.082039934e+20
1.089745067e+20
8.78048572e+19
7.73842496e+19
1.224886559e+20
1.045092884e+20
1.683646482e+20
1.165521201e+20
1.387037596e+20
1.826553093e+20
1.514855919e+20
1.198719574e+20
1.097560715e+20
1.105489288e+20
1.670299853e+20
1.045092877e+20
5.261395256e+19
1.059564728e+20
1.066951997e+20
1.074443004e+20
5.410199672e+19
1.525643094e+20
7.682925059e+19
9.94940352e+19
1.781653164e+20
9.405835892e+19
1.157506948e+20
8.476517826e+19
5.33476002e+19
9.669987032e+19
7.574279541e+19
3.269235179e+19
7.682924951e+19
9.94940352e+19
1.224886559e+20
1.567639315e+20
9.470511396e+19
1.377434147e+20
6.401712024e+19
1.611664505e+20
1.298447921e+20
9.807705606e+19
9.878046504e+19
8.843914303e+19
3.340599706e+19
1.35862074e+20
9.47051146e+19
1.377434147e+20
5.334759983e+19
6.446658021e+19
1.406651925e+20
5.448725337e+19
8.78048572e+19
6.632935727e+19
7.794732703e+19
5.225464419e+19
1.052279051e+20
1.165521201e+20
9.602568036e+19
1.181887304e+20
7.574279541e+19
1.525643094e+20
7.682925005e+19
1.437136064e+20
6.681199412e+19
4.180371508e+19
1.157506956e+20
1.271477683e+20
1.066952004e+20
1.181887304e+20
5.410199672e+19
8.717960478e+19
1.536585001e+20
7.738425015e+19
1.113533235e+20
1.149602165e+20
7.365953308e+19
8.476517769e+19
6.401711936e+19
1.289331595e+20
1.406651925e+20
1.198719582e+20
5.487803613e+19
9.949403591e+19
1.447593206e+20
1.35862074e+20
7.365953358e+19
7.416953148e+19
6.401712024e+19
3.223329033e+19
8.656319536e+19
7.628215418e+19
6.585364244e+19
1.216038208e+20
7.794732648e+19
7.315650187e+19
1.052279051e+20
9.536082555e+19
1.493732806e+20
7.521101025e+19
9.73835941e+19
1.416668588e+20
1.975609301e+20
8.843914303e+19
1.002179912e+20
9.405835892e+19
1.157506948e+20
1.165521193e+20
1.493732795e+20
6.446658021e+19
7.574279541e+19
5.448725299e+19
9.878046435e+19
9.949403591e+19
1.670299853e+20
7.315650138e+19
1.262734861e+20
7.416953148e+19
5.33476002e+19
9.669987032e+19
5.41019971e+19
8.717960599e+19
1.317072867e+20
7.73842496e+19
1.002179905e+20
1.045092877e+20
1.262734853e+20
8.476517769e+19
8.535615974e+19
9.669987032e+19
1.514855908e+20
7.628215418e+19
1.207316778e+20
1.326587136e+20
8.908265946e+19
1.35862074e+20
8.418232409e+19
1.271477683e+20
1.173647196e+20
6.446657977e+19
1.298447921e+20
8.717960539e+19
6.585364336e+19
6.632935727e+19
1.336239882e+20
1.463130037e+20
8.418232409e+19
7.416953098e+19
1.387037605e+20
1.074443004e+20
6.492239607e+19
5.448725299e+19
1.317072858e+20
7.738425015e+19
1.113533235e+20
9.405835892e+19
5.261395256e+19
8.476517826e+19
8.535615974e+19
1.181887304e+20
1.623059913e+20
6.53847045e+19
7.682925005e+19
5.5274464e+19
1.781653177e+20
1.149602165e+20
5.26139522e+19
5.297823641e+19
1.173647204e+20
9.669987032e+19
6.492239607e+19
1.08974506e+20
1.097560715e+20
1.105489288e+20
1.002179912e+20
)
;

boundaryField
{
    flow
    {
        type            zeroGradient;
    }
    obstacle
    {
        type            calculated;
        value           nonuniform 0();
    }
    frontAndBack
    {
        type            empty;
    }
    procBoundary2to0
    {
        type            processor;
        value           nonuniform List<scalar> 
31
(
8.331198464e+19
5.20699904e+19
1.35381975e+20
8.331198464e+19
9.372598272e+19
1.041399808e+20
8.331198464e+19
7.289798656e+19
1.457959731e+20
1.35381975e+20
1.041399808e+20
1.24967977e+20
7.289798656e+19
1.041399808e+20
1.041399808e+20
1.145539789e+20
1.145539789e+20
1.041399808e+20
9.372598272e+19
6.248398848e+19
6.446658021e+19
7.574279541e+19
6.538470404e+19
7.682925059e+19
1.437136074e+20
1.55894653e+20
1.35862074e+20
1.052279044e+20
7.416953098e+19
1.493732806e+20
1.493732806e+20
)
;
    }
    procBoundary2to3
    {
        type            processor;
        value           nonuniform List<scalar> 
19
(
7.851865717e+19
1.009525592e+20
1.12169511e+20
1.121695102e+20
1.233864613e+20
8.973560883e+19
8.973560883e+19
1.009525592e+20
8.973560883e+19
1.458203633e+20
6.730170614e+19
6.730170662e+19
1.121695102e+20
1.009525592e+20
1.23386463e+20
7.851865717e+19
1.346034123e+20
1.233864621e+20
7.851865717e+19
)
;
    }
}


// ************************************************************************* //
