/*--------------------------------*- C++ -*----------------------------------*\
  =========                 |
  \\      /  F ield         | OpenFOAM: The Open Source CFD Toolbox
   \\    /   O peration     | Website:  https://openfoam.org
    \\  /    A nd           | Version:  7
     \\/     M anipulation  |
\*---------------------------------------------------------------------------*/
FoamFile
{
    version     2.0;
    format      ascii;
    class       volScalarField;
    location    "0.005";
    object      translationalT;
}
// * * * * * * * * * * * * * * * * * * * * * * * * * * * * * * * * * * * * * //

dimensions      [1 2 -2 0 0 0 0];

internalField   nonuniform List<scalar> 
546
(
291.1734196
304.3616008
297.1334389
298.2056149
299.9222028
301.1624941
301.5410931
302.1226582
305.1204944
303.7650889
304.7694386
303.0093907
302.9899069
302.998519
300.8567442
300.0369738
300.1590614
300.3375104
300.8058991
299.2202595
291.6912886
309.78092
300.9212648
301.5000998
300.8459808
301.9564908
301.6847398
299.0095285
298.64937
300.3345734
304.736305
302.6748745
302.5040649
302.1554752
301.0832256
302.3873811
304.000841
302.9530038
303.1578108
300.6421722
289.6427679
305.0855867
298.1808358
300.8117983
300.3687223
299.3002727
299.8232347
299.2461228
300.3612425
301.1170445
299.4755155
296.1420111
297.75385
300.814799
300.7674318
298.6533305
300.3795061
300.7806934
299.1360183
304.1913827
289.7621581
304.6630928
298.3524866
298.8128122
300.1865813
301.6062153
305.2668029
303.0671736
301.7014759
300.8253107
299.488953
300.281123
298.1782758
297.646211
298.9828689
299.9928824
301.4177596
301.3929044
305.0450345
302.9657691
293.3997643
306.3022156
299.0155971
300.9028848
301.594553
300.7363987
300.884417
302.2551932
302.3500842
301.6749572
300.3413431
302.6329574
304.2294063
303.9020934
303.2018085
306.6354048
309.7322182
309.3223833
307.8382175
307.1605242
290.1217725
309.2341119
301.1409981
299.7136421
301.8770283
302.0142778
299.6375767
299.6608091
298.8731702
301.3179168
303.8239564
298.5264685
298.6854025
300.7343199
302.9898457
302.2243935
301.2384493
300.0066882
297.3441917
297.1519228
293.3061233
306.3130128
299.9483715
300.6888734
300.2374301
299.3244067
302.1187575
304.6388552
304.4754199
302.7997552
300.6756112
302.9430251
302.4262123
299.7858035
296.4686239
297.5673741
297.692746
298.7768368
299.0409304
302.6035816
291.1199405
308.8539999
301.7722852
302.7077181
303.9179921
304.6965053
303.9521409
303.1290934
301.9366094
302.1168762
302.894257
300.1535093
300.9664929
303.7956684
303.5260617
301.1820132
302.1933367
301.4197527
300.080464
300.3345601
286.6079902
303.9230944
298.6880392
300.0381143
299.7657579
299.2205096
301.1050975
297.7631253
299.125482
299.960311
297.4106907
299.1586043
300.5279739
298.9287456
296.8654019
297.1850973
298.1309553
298.3804264
295.7656271
298.0025634
291.9089524
305.2822944
298.0315384
298.8684033
299.5032769
301.0618916
299.9885189
299.2334682
297.8413575
298.8208819
298.9983311
294.4974173
294.0818748
294.0413336
297.337847
299.4681401
299.111118
301.5117451
304.0505316
302.9500971
287.0962505
304.8415769
297.2796433
297.5156875
295.0072816
294.4850543
296.8275236
296.4612261
297.5118619
297.3166095
298.1903392
300.4239011
302.2988174
301.0140367
302.0976783
301.2191598
300.7243375
301.0794945
300.4898026
300.8077398
291.2163351
307.050662
297.9230343
297.997866
300.0208752
301.4139839
298.786596
295.2381237
296.2100026
298.2416056
300.2357422
299.772752
300.9476153
302.3403627
301.1869566
300.3567165
301.467449
301.7876366
302.5324355
302.9825941
287.2648073
301.8141151
296.7239683
299.1694581
299.6434432
297.0354806
299.7648819
301.5704545
301.2860428
299.1789079
298.7239223
300.8465338
298.5599927
297.5907094
301.8812421
300.9722008
299.7079173
298.7842225
298.660148
297.0516222
290.7678986
308.281741
299.9596581
299.7880852
301.068239
301.2614962
300.661602
300.1250967
300.1660114
300.8634768
299.878166
299.0549477
298.6538244
298.1537162
296.2491396
298.4169758
299.9758874
298.9847607
298.7885398
299.1343423
289.3006001
305.8908556
299.7839404
301.4658586
300.7224737
298.6165031
299.2552554
298.5803723
296.6317608
299.5888721
299.7119684
300.7527299
303.3803337
301.7804075
300.376321
300.5997662
298.6781477
298.1549223
298.0305914
296.4751108
287.9969213
304.6817172
296.2142644
297.2459798
297.8022246
298.2203681
299.703894
300.1297595
298.8734357
296.6187889
297.2317133
295.9063038
294.0889161
293.8279557
294.0654176
294.3637146
295.8571512
293.8081057
291.5356546
294.5912639
290.4355013
306.1654991
298.746954
298.7637347
298.9683096
298.4911963
297.5262542
298.7707915
299.3112125
299.4330678
298.3838648
295.774004
296.0718221
296.4675319
295.2695424
295.1614184
296.1882926
298.1692906
300.7516332
298.2843895
289.3896963
303.9912543
299.8104125
299.442882
300.6168946
298.0903317
297.4443167
296.0141607
297.9681597
294.6358105
295.4548608
295.2186816
296.6159338
296.9436812
299.5830687
301.4813678
301.4437558
301.2290525
300.541225
302.1519001
307.3796572
313.7146984
314.806353
317.3243575
321.3978395
322.7494794
299.826932
301.9547642
302.783867
307.141881
305.4326187
312.4071887
312.1871327
315.724608
319.0488161
318.0396925
299.9928431
302.4929451
304.6336507
306.4598492
304.0821388
306.2724499
303.1464495
307.7682629
307.1138004
310.9116549
300.8737325
302.9890868
301.7026045
302.9109774
303.9919699
304.4784602
303.801609
304.9262003
306.8312131
306.0206209
305.9620018
306.1963893
307.1978052
303.9149393
302.5017284
299.8227125
302.8748891
302.8487869
303.6740783
310.0728796
305.0643997
305.0508802
305.3164436
303.206348
302.6751835
306.6530476
305.523493
303.0914192
302.4667555
301.4948435
296.3696024
300.2803934
303.109154
303.8383658
300.9355925
301.5391724
304.9826348
305.126649
305.6579354
305.3331563
304.2326585
301.3284674
299.3328962
300.3947052
303.140523
301.8291494
303.0414124
301.8734212
302.6251892
305.2337043
298.1315331
300.3232019
299.858752
301.4998437
298.9705625
300.4668313
299.9388589
299.0696473
301.4524729
300.7775419
300.0578464
299.2627301
298.1331704
299.1471556
299.2054053
298.8081905
299.9561998
301.2606357
297.8904313
298.7781157
303.1859722
301.2563914
303.0463484
302.3502639
298.8655087
300.2214404
300.0608553
298.0046422
300.6452509
302.0930434
299.3943876
298.4516634
297.1258817
297.0957868
301.8683479
300.8286862
300.8049422
302.248682
299.8661124
300.2076414
300.5196685
302.9519722
304.6153766
303.1235286
298.5618445
300.7991294
301.623105
304.1607263
306.0873527
305.472549
298.8613562
298.9952167
300.0136259
299.3431021
300.1168911
300.396911
301.9853165
299.2893488
299.1821229
300.1790222
297.5252847
297.1724747
300.0658438
302.1535556
302.2409613
301.438572
300.0727056
298.673424
296.194962
295.1228774
297.1488447
295.7224709
295.9721204
295.479181
293.7950044
296.7569706
296.3149182
299.5849591
298.6087308
298.9809717
295.4324541
297.4275362
297.9891762
299.0537501
300.5887686
299.6469241
299.8371335
301.8613248
302.0062062
304.6220161
298.4124163
298.5856786
300.7844755
300.1764952
298.994192
298.7427661
300.5484662
300.4243357
300.8414495
301.034935
301.3681701
300.2153781
299.1558039
297.0382629
298.9907989
300.4999604
301.4570863
298.3543481
295.2086123
295.816571
)
;

boundaryField
{
    flow
    {
        type            calculated;
        value           nonuniform List<scalar> 
48
(
291.1734196
291.6912886
289.6427679
289.7621581
293.3997643
290.1217725
293.3061233
291.1199405
286.6079902
291.9089524
287.0962505
291.2163351
287.2648073
290.7678986
289.3006001
287.9969213
290.4355013
289.3896963
289.3896963
303.9912543
299.8104125
299.442882
300.6168946
298.0903317
297.4443167
296.0141607
297.9681597
294.6358105
295.4548608
295.2186816
296.6159338
296.9436812
299.5830687
301.4813678
301.4437558
301.2290525
300.541225
302.1519001
301.3681701
300.2153781
299.1558039
297.0382629
298.9907989
300.4999604
301.4570863
298.3543481
295.2086123
295.816571
)
;
    }
    obstacle
    {
        type            calculated;
        value           nonuniform 0();
    }
    frontAndBack
    {
        type            empty;
    }
    procBoundary2to0
    {
        type            processor;
        value           nonuniform List<scalar> 
31
(
292.4119944
307.5868457
302.5493546
301.8428595
302.283608
303.2328925
303.5984546
302.6580975
303.8852365
304.2945193
303.1181364
300.3016474
297.3819929
301.1261021
301.1922569
301.021109
303.7403387
301.8121856
304.0320697
301.3876402
315.5197234
319.433191
321.3790465
326.2017307
324.9840213
333.3250516
305.8751327
303.7972539
306.5942807
306.3333948
306.3333948
)
;
    }
    procBoundary2to3
    {
        type            processor;
        value           nonuniform List<scalar> 
19
(
326.7872006
326.3364075
313.4488737
309.9818944
314.1360872
306.7382426
303.3525193
307.9304212
298.3267511
298.4107431
299.7242051
303.2316175
302.1690186
300.4354964
292.9356235
299.0617966
302.3690716
303.6381639
296.0193457
)
;
    }
}


// ************************************************************************* //
