/*--------------------------------*- C++ -*----------------------------------*\
  =========                 |
  \\      /  F ield         | OpenFOAM: The Open Source CFD Toolbox
   \\    /   O peration     | Website:  https://openfoam.org
    \\  /    A nd           | Version:  7
     \\/     M anipulation  |
\*---------------------------------------------------------------------------*/
FoamFile
{
    version     2.0;
    format      ascii;
    class       volVectorField;
    location    "0.005";
    object      UMean;
}
// * * * * * * * * * * * * * * * * * * * * * * * * * * * * * * * * * * * * * //

dimensions      [0 1 -1 0 0 0 0];

internalField   nonuniform List<vector> 
546
(
(1707.988652 2.662115351 -0.8768903399)
(1744.274633 0.0546176935 0.6815674235)
(1738.593065 -0.4680424683 -1.065265293)
(1738.571074 1.534888556 -0.8983698721)
(1736.633972 0.8718962334 0.2972518754)
(1737.40745 -1.350956893 1.420674164)
(1738.97463 1.208036987 2.797518533)
(1736.199452 -1.190725326 2.275471319)
(1735.582249 -1.426131867 1.231347258)
(1735.589199 0.9614781482 2.198655099)
(1737.341078 2.073671794 1.918195949)
(1736.172073 -0.3452580803 -0.2908413029)
(1737.283288 -1.517835006 -0.6808010867)
(1739.687695 -0.3409772707 -1.669774167)
(1737.616514 -2.830671803 -1.645131551)
(1737.946963 0.1764800192 0.6973971491)
(1737.777135 1.948593723 -1.132612734)
(1735.025964 2.276361179 -0.8840247192)
(1733.849665 2.010657153 1.024101085)
(1733.560607 -0.1658559521 -0.1632373029)
(1709.382784 3.589501035 -1.885997878)
(1745.573441 4.128671132 -2.615498984)
(1733.409434 1.059330908 -2.969620829)
(1732.897925 -3.139885875 -1.913385127)
(1732.779339 -1.917694645 -1.224617746)
(1727.914628 -0.3903900832 -3.042665197)
(1729.411357 -1.719246676 -2.237506187)
(1733.586187 -1.455632301 -1.32466217)
(1733.43653 -2.11761114 -2.882815149)
(1731.206999 -0.1437343894 -1.850339545)
(1730.351227 2.854843183 -3.012998421)
(1733.264663 2.880526661 -2.946371864)
(1734.330045 4.64392395 -2.662970714)
(1733.168081 6.349803408 -2.512186094)
(1733.992457 6.843592919 -2.99637889)
(1733.258894 3.696967462 -1.627947737)
(1733.195752 0.5502460592 0.2773128811)
(1737.473132 2.625695863 0.01841767195)
(1738.494597 2.925017263 1.733756705)
(1737.714413 5.038624807 1.341456836)
(1708.055023 -3.210986572 -0.4067352687)
(1745.621201 -0.7202350989 -2.296091801)
(1738.003368 -0.3439351138 -2.98132597)
(1734.973872 3.513707715 -2.435601286)
(1737.061171 0.06092662029 -2.868892422)
(1736.720969 0.8383860188 -1.59223537)
(1738.931616 1.713493164 -3.121443991)
(1736.682775 2.187650497 -2.979867319)
(1737.312301 3.072046611 -0.0805184091)
(1737.489111 3.872667018 -1.821576988)
(1739.017617 1.877244559 -1.949015759)
(1736.593567 1.479669869 -1.380540024)
(1737.894946 1.153450423 -2.713662662)
(1735.930677 -0.5682035976 -2.880103539)
(1733.813381 1.37328783 -1.076014888)
(1735.677414 3.154897307 0.02704668985)
(1735.480118 2.769830903 -0.4026597108)
(1733.628096 5.564667337 -0.1741525622)
(1735.167264 3.506573634 -0.3086624817)
(1733.248808 0.7741273622 -0.5605423662)
(1713.174913 1.065751123 0.005518203674)
(1748.926426 1.253007275 -0.3856653194)
(1738.409673 2.549269271 0.8609260047)
(1741.996995 0.3252069828 0.4855583482)
(1739.687712 0.2637589247 -1.626809214)
(1738.457705 1.167898537 -0.8407350626)
(1736.229807 1.953563796 -0.9144037374)
(1735.35217 0.03039753068 -1.794545156)
(1736.589331 0.09164543353 0.3885884862)
(1739.392009 0.8598032202 1.628867909)
(1739.348972 0.108927303 0.3658624074)
(1738.924147 2.416531986 0.5562159001)
(1739.649459 0.9740075743 0.738204174)
(1737.348578 5.725354468 2.366497666)
(1740.269847 1.3415235 0.01790008036)
(1737.297854 2.176845337 -1.341208725)
(1738.533688 4.798342618 -1.095676537)
(1736.715589 -2.406088472 -0.2033677899)
(1736.252308 -3.209652974 -1.705640623)
(1735.164031 -3.756560095 -3.227422002)
(1710.114469 2.976964827 1.669225804)
(1749.124692 2.974208008 1.783701024)
(1741.208055 3.893195675 0.70998634)
(1739.690554 3.055189142 1.960235094)
(1738.77404 2.307560849 1.688939258)
(1738.054706 3.692573354 1.23868229)
(1737.505317 1.162536983 1.973944534)
(1738.182353 3.047719411 1.19675569)
(1738.284368 2.062418381 -2.34232416)
(1737.176568 2.518590005 0.4024060318)
(1736.871257 1.499752236 0.2067508477)
(1735.082485 2.510528533 -0.1389472209)
(1731.979407 0.7288554173 -1.816694207)
(1732.087887 -2.016521036 -1.939873058)
(1731.754731 -0.6123240741 1.164011814)
(1734.087057 -1.564286295 0.2623695226)
(1732.304637 -4.34434059 -1.939666666)
(1732.083654 -4.688511378 -1.482322051)
(1731.868267 -1.35823603 -0.05608829542)
(1731.653019 -0.3017632953 1.375703629)
(1710.931669 -0.02572758271 -0.6673681697)
(1744.688467 3.167335959 -1.800248224)
(1734.523824 2.333971322 -3.375061793)
(1734.348933 3.468089885 -0.100619072)
(1735.065011 4.295861796 -0.9832077672)
(1736.696109 4.736379597 1.049020637)
(1736.330282 7.221711187 0.5252489523)
(1738.19015 5.740884108 2.785691368)
(1736.3071 3.472074537 3.191136904)
(1734.57982 2.64922297 1.48495592)
(1735.142268 -0.7649070255 1.737457346)
(1736.589116 -4.692622783 4.431368838)
(1740.033366 -2.50172489 4.454322146)
(1738.799208 -6.173231566 4.818595165)
(1734.635432 -4.357867753 1.258480177)
(1736.334765 -4.981483014 1.436845268)
(1735.463938 -1.930016982 2.665386979)
(1734.829764 2.076477016 2.859237175)
(1737.601027 3.325692605 0.4167955956)
(1737.101413 5.677785702 1.052468587)
(1705.885824 4.633150104 2.285387542)
(1744.562869 0.7338866758 0.8175686346)
(1737.313019 1.901056305 1.406529361)
(1733.705963 1.876148387 0.511377097)
(1734.810794 3.934774979 2.332267464)
(1737.201182 2.889305158 0.942307314)
(1735.558279 -1.008899675 0.8802820483)
(1731.587802 -2.087022868 0.894791304)
(1732.812354 -1.490050507 1.329169899)
(1733.623515 -1.415758507 1.409091312)
(1733.721376 -1.39524522 1.028957841)
(1734.279652 0.4913642268 0.4591188791)
(1732.455662 0.9457722616 -1.3529403)
(1735.985141 0.8194225623 -2.372453568)
(1740.349102 1.228593842 -0.283803929)
(1737.649487 3.056609663 -0.436758694)
(1737.990213 3.318731708 -0.1598301873)
(1733.765952 2.391889146 -1.306550693)
(1734.634367 1.900748172 0.7446870808)
(1734.738242 0.8386988533 0.9249700929)
(1709.872963 -2.810252836 1.174179749)
(1745.240971 0.8494195625 2.152379048)
(1736.301859 0.3264200202 4.958337457)
(1734.621541 -1.644429176 4.98588282)
(1733.213047 -2.907431058 3.727470238)
(1732.209641 -5.051900913 4.547022668)
(1731.202331 -1.093578075 5.26161035)
(1734.562587 -1.336819042 2.680461411)
(1735.666841 -0.475632673 0.3722260582)
(1735.723756 1.611679746 1.40033618)
(1734.714901 3.742430217 -0.9231950098)
(1735.783215 3.959850688 -0.346610624)
(1734.694935 4.080471069 1.271855396)
(1734.732822 3.923702293 1.552121946)
(1735.423579 6.724825803 2.564835177)
(1736.851457 6.362661494 1.459313089)
(1735.808159 4.729890597 0.1692499288)
(1737.309438 6.479967498 0.9808214559)
(1737.106304 1.734579355 0.1305566276)
(1734.687281 -1.643417135 -1.811485346)
(1703.94135 -5.200849271 0.7110666307)
(1738.648806 -5.017923564 3.45739032)
(1731.14972 -3.512339587 0.5935116102)
(1731.355775 -1.416699841 -0.07809531422)
(1732.53415 -0.9956812239 -1.382512375)
(1732.399632 -0.6864015297 -4.066054634)
(1735.024612 -4.319739437 -6.179431933)
(1735.484831 1.603698262 -3.326441509)
(1732.172955 1.060021363 -2.449688329)
(1733.210534 1.864797455 -0.6033704254)
(1737.597773 0.3972121911 -0.05704183911)
(1735.494761 1.848081362 2.169981486)
(1737.994437 3.697645712 2.383115924)
(1735.645571 5.234480658 2.062211534)
(1735.708191 5.923086548 2.110547375)
(1734.123502 5.403499466 1.002097772)
(1733.641098 1.950282448 2.425000599)
(1733.835827 1.318787133 0.6558364928)
(1732.587075 3.131046878 0.8944564018)
(1734.251284 6.379603695 1.918434799)
(1706.001153 0.5068788646 -1.802344154)
(1743.675623 -0.0551593708 -3.953710062)
(1735.98154 1.115929513 -3.543239245)
(1735.594444 -0.4220689648 -4.105745128)
(1734.996919 -0.7800764669 -2.563272698)
(1732.973945 0.02875590805 -0.4311435993)
(1733.710048 2.859491331 1.622097096)
(1733.475464 -1.065459759 1.333393105)
(1735.869517 -0.4931204901 -0.1128078722)
(1734.0049 -2.556508002 -0.5458309511)
(1733.332102 -3.900578663 -2.831988466)
(1735.489556 -3.151109041 -2.610593989)
(1734.770479 -2.008342706 -3.318731564)
(1733.367268 -3.303237153 -3.438863378)
(1734.319562 -2.186055323 -0.5583468209)
(1729.330851 -2.358655912 -0.9329817538)
(1730.163195 -0.7240492767 1.321803468)
(1729.969355 -0.8654137746 2.701776943)
(1731.670664 -1.039019247 4.907035629)
(1729.891087 -1.316619723 2.441632596)
(1701.706588 1.875332668 -3.329217969)
(1736.192248 -1.575603851 -1.924001924)
(1729.326764 -3.64397839 -2.301922723)
(1725.479543 -2.384391417 -1.088360031)
(1728.652648 -1.21472072 -0.7085956949)
(1730.453083 -3.40328128 -0.3180934969)
(1730.16296 -3.491019076 -0.8765530129)
(1728.675589 -0.09933773593 -3.140346102)
(1731.941856 0.5153613084 -0.9890771395)
(1732.20633 -1.416331737 -1.819821942)
(1732.347189 0.02999263182 -0.548360608)
(1731.625069 1.221518175 -2.318199355)
(1730.297927 -0.2872665721 -3.66852981)
(1731.27187 -5.494259178 -5.548910521)
(1730.427109 -5.879361088 -6.515948278)
(1729.29642 -3.586969687 -5.795852953)
(1730.015753 -1.176393945 -8.978807972)
(1729.90157 -1.130251725 -5.849464497)
(1729.404286 1.696697045 -7.274956535)
(1729.99763 1.233403837 -5.954644434)
(1707.42768 -4.438856187 -1.206007083)
(1745.284856 -2.081353623 -1.092167022)
(1736.817261 -1.353927201 -3.819754885)
(1735.291404 0.3070051129 -2.940717807)
(1733.273644 -0.3439575856 -2.336181294)
(1731.325272 0.9900774274 -3.262589121)
(1731.935219 0.3484758133 -4.481325273)
(1734.006358 -0.8846054538 -0.9797407757)
(1731.402048 -4.164572137 -0.5980043563)
(1733.779856 -2.235484147 1.156896063)
(1733.704226 -2.466754949 -0.9320490137)
(1735.70338 -3.492145247 -1.369489406)
(1732.678837 -0.6366391857 -2.536180883)
(1731.470564 -0.8306099879 -2.159583291)
(1731.538535 0.5781356941 -2.216538397)
(1733.735199 -0.5626493559 -5.210250213)
(1735.211208 -2.256669323 -6.331639051)
(1732.111471 -3.837525017 -6.246923407)
(1732.331439 -3.573259234 -5.328270004)
(1733.745799 -1.680671589 -7.042575499)
(1708.73469 2.567623173 -1.457268336)
(1746.045783 4.376212869 0.2506854847)
(1739.330663 3.298108599 2.500735881)
(1735.335727 -1.124185055 -0.3457021188)
(1738.716569 -4.678185586 -0.9829787677)
(1738.600865 -6.56195603 -2.599995612)
(1739.369903 -3.904233842 -1.989253854)
(1737.410874 -2.024141778 -1.536853962)
(1737.262002 0.2819603635 -2.242581149)
(1735.408489 -0.7416291716 -1.378309355)
(1734.212175 -1.371898106 -0.8782034572)
(1734.326658 -2.756562116 2.404610638)
(1737.889823 -3.215364437 3.841910206)
(1739.138243 -1.459984836 3.814040031)
(1737.910209 -0.6621676438 6.174003053)
(1738.241236 -2.222153566 8.158744844)
(1738.678006 0.2537259143 8.180955322)
(1738.130592 0.8907334126 5.565676561)
(1739.984921 0.9344775668 6.791260965)
(1739.468233 3.45026507 5.165054446)
(1701.392246 1.055168649 2.782316536)
(1736.550206 -1.518827151 2.794737961)
(1726.901645 -3.856929048 1.594508924)
(1730.642058 -1.301945956 3.752315615)
(1728.896805 0.528900545 3.098617226)
(1731.981553 2.859564489 4.272763648)
(1730.659997 1.505991615 4.336914982)
(1730.284937 -1.798159547 2.108522909)
(1730.182652 -3.515561532 -1.368023986)
(1733.589947 -1.54670388 0.5485703462)
(1732.08695 0.3534027866 -1.284142343)
(1730.956827 -1.461272765 -2.899672745)
(1730.753318 -0.2749782492 -1.56922049)
(1731.069252 -0.1009763088 -3.451162699)
(1732.299844 -0.9520485779 -2.672846876)
(1732.833281 -0.1781427003 -3.159808865)
(1733.025104 -0.4507378993 -0.9984443932)
(1734.587329 1.702473399 -1.325149109)
(1736.356874 0.4290121078 0.2115092976)
(1734.994043 -1.343865935 -0.1974012736)
(1712.04441 -3.519971045 3.398293781)
(1745.631886 -0.1659369389 2.205277493)
(1737.166277 4.522466295 1.622022252)
(1736.77916 5.045616983 1.640733671)
(1736.069941 5.143794834 2.940432531)
(1737.330483 0.7453221517 3.791658703)
(1735.433991 -0.08171833123 5.214002989)
(1736.956244 3.302923794 5.518751461)
(1734.183814 3.989402337 6.436252201)
(1733.562901 -2.553807299 5.149552313)
(1733.417128 -4.305308663 5.596361396)
(1734.364335 -1.390568303 5.269687839)
(1733.809772 -0.8963876489 4.867524233)
(1735.523967 -3.051105225 3.748365493)
(1737.042658 -1.667917282 2.698920403)
(1737.25846 0.029121383 2.285118121)
(1737.662496 -3.522606144 1.781971265)
(1735.794418 0.2482408615 0.8710746757)
(1735.692873 -1.563082455 -0.2157687063)
(1734.983626 1.531185319 -0.7416546976)
(1708.448877 -2.006838915 0.06591558671)
(1745.742684 -2.85809196 -0.7172769305)
(1737.00261 -2.007642289 -1.202990322)
(1733.359611 -1.764205489 0.375557103)
(1731.826405 -2.275791856 -1.631712506)
(1730.184901 0.5616454528 -0.6479412309)
(1731.684496 0.7250336483 -2.028450384)
(1731.419378 -0.6659161564 -0.2375871428)
(1733.367839 0.7134218534 -0.9145963289)
(1736.467024 2.934752271 1.460760049)
(1735.193036 3.301506299 -0.6877576913)
(1735.046228 2.79892054 0.632579637)
(1735.767594 2.917970614 2.990226867)
(1734.542812 2.805470727 1.678111069)
(1734.122845 3.115080332 0.8471311939)
(1732.046345 3.10583894 -0.6872050598)
(1733.625479 1.778166779 0.2574959565)
(1735.534061 1.188507647 0.2143833077)
(1735.803907 1.769049604 0.4847344496)
(1736.835022 -0.2796734114 -0.4649926906)
(1710.562634 -0.2688440265 -4.956796437)
(1745.401993 0.04651149175 -4.018779627)
(1736.156263 -2.938333523 -2.68009507)
(1738.674811 -4.002585183 -1.997471212)
(1740.062154 -2.510282273 -0.4366425643)
(1741.234152 -0.4713592482 0.2014185195)
(1741.318529 0.2409906697 1.509058537)
(1739.541771 1.159870342 1.275705325)
(1737.794301 3.026491398 1.022433563)
(1735.092457 5.771980439 2.464746489)
(1737.778579 4.431969641 -2.16094949)
(1740.454786 5.21786804 -0.5216904023)
(1740.587321 6.357166685 -3.227984707)
(1739.30802 3.658028075 -4.25959082)
(1740.54626 0.5971100511 -3.354240029)
(1742.895459 1.167122622 -2.328651539)
(1740.417276 1.949651111 -5.645842635)
(1740.26036 -1.079592965 -3.014535221)
(1737.161423 -4.274609808 -4.302912894)
(1739.251706 -4.38299946 -3.580146821)
(1711.808349 3.511172011 -0.2710351392)
(1749.66274 1.675670334 1.379196979)
(1740.820156 6.32847342 -0.3734738785)
(1743.267874 6.647844914 0.2678305609)
(1743.977016 5.841757741 -1.603317265)
(1742.027068 4.914268163 -3.371044984)
(1740.91369 3.628271924 -4.901285426)
(1739.408771 7.366249441 -4.245424215)
(1740.605737 5.077919184 -4.710011121)
(1742.603248 3.128153566 -2.906952953)
(1743.033369 7.255092781 -2.108721389)
(1739.819722 6.487906747 -0.6613063826)
(1738.808989 6.330013819 -0.4202821781)
(1740.91677 7.776008329 0.2822866121)
(1740.585795 12.05807507 2.41920155)
(1736.782932 7.374439675 2.734667633)
(1738.040101 7.518753059 0.3973115311)
(1737.528419 5.828457966 -0.1138184934)
(1737.253671 6.97992002 -0.03763470911)
(1737.0345 8.304048878 1.177347642)
(1726.935317 6.36130001 1.857327936)
(1723.733584 7.576527739 -3.28577589)
(1726.314604 6.748493375 -5.007044466)
(1725.697348 5.282498112 -3.369559753)
(1724.653644 7.940681279 -2.896041382)
(1724.438191 6.961148602 -0.4181644127)
(1733.104795 0.7376460499 0.434029351)
(1729.171746 3.036947295 1.846283109)
(1729.864715 1.175981372 0.5322901759)
(1732.90643 0.7897376621 -0.01199749387)
(1734.563609 -1.033065778 -0.8542353579)
(1733.189581 -2.785385423 -1.003194572)
(1733.032679 -3.119119233 2.191736627)
(1734.673047 0.07760628642 -1.221192635)
(1730.677101 2.052858347 -0.8666633752)
(1733.393771 1.860369491 -0.05995041934)
(1739.173012 3.006781635 1.808117328)
(1738.081405 3.644375357 1.390592105)
(1738.121714 0.4184782253 2.554633401)
(1735.377347 0.08952635363 0.9566154245)
(1737.582623 -1.978208978 1.586832154)
(1739.018608 -1.165187147 1.149304018)
(1738.773598 -2.368725736 0.9152208377)
(1734.91175 1.05176855 1.015482485)
(1730.898024 4.317079862 2.477521715)
(1726.251016 7.332511917 4.866014829)
(1737.377955 -1.818862839 -0.6802059654)
(1740.695425 -4.173129061 -0.571677858)
(1740.692791 -4.209049315 0.3336655631)
(1738.053942 -3.179725346 -0.527399925)
(1733.900337 1.607652447 -0.803665518)
(1731.162825 4.931703939 2.462131352)
(1730.39327 7.054121066 2.253336583)
(1732.398965 6.975679853 3.899599)
(1732.520243 5.013623622 4.097391001)
(1730.745206 7.217414014 3.912907955)
(1731.998218 -2.121644684 -4.570982673)
(1730.271882 0.3773713592 -3.643044314)
(1730.179862 2.166135212 -4.027299879)
(1732.691945 2.140635347 -2.166768324)
(1732.451973 1.52680135 -2.842559436)
(1731.602908 2.009117915 1.628912707)
(1732.179092 4.63380303 -0.2510878931)
(1730.19377 2.779898473 -0.7937236955)
(1733.559854 4.267253195 -3.679521799)
(1735.918274 2.033043068 -5.577464433)
(1731.528608 -1.070714389 2.255092554)
(1730.447127 1.881489898 3.584667527)
(1728.069598 4.352887029 3.690133822)
(1729.351171 4.715368223 2.979989595)
(1733.208633 5.664037577 0.9935229009)
(1733.633411 3.344625646 -1.436559873)
(1734.820315 -2.423309636 -0.3063364778)
(1736.731005 -2.652148798 0.5498697071)
(1737.182879 -2.680713164 3.832303522)
(1734.868673 -0.9563033525 3.565152864)
(1737.837319 5.761529039 1.00438175)
(1738.464922 2.134745182 -0.589241182)
(1736.204834 2.818837387 1.686845549)
(1735.251625 1.115258656 0.6462165565)
(1736.097638 -0.1454090697 0.7259866004)
(1735.19557 0.6671910276 0.1877443723)
(1732.77503 4.280830507 -1.14655223)
(1730.292173 2.912584045 -2.249194511)
(1731.393821 2.375560579 -3.496408216)
(1732.399685 -1.233311481 -3.917341444)
(1735.921816 2.0292667 1.515283051)
(1734.722726 1.710143033 -0.7545890845)
(1738.262681 1.832761027 -4.403437791)
(1737.756074 1.0051624 -2.136962961)
(1735.580429 2.739074165 -1.545160237)
(1738.321636 0.9278680186 -0.730706922)
(1737.271426 0.9041095604 -0.4819173639)
(1734.669323 -1.904745823 2.157297831)
(1733.292435 -2.164960515 1.514639186)
(1732.274582 1.235632707 2.609835153)
(1733.914376 -1.51876263 0.9676735258)
(1734.495715 -0.499209308 0.1894878803)
(1731.535343 -2.111571436 0.4459982597)
(1732.904906 -2.493048041 3.472888147)
(1733.22429 -3.73516923 5.339989188)
(1730.219974 -4.899678227 8.188814462)
(1731.899531 -1.784595647 6.308491813)
(1734.29721 0.4652342216 2.47867543)
(1734.783008 0.4513691297 2.834095891)
(1736.03821 1.066718139 2.364473264)
(1733.314695 3.715059547 4.035780928)
(1729.873008 -1.32298504 8.054505372)
(1734.993375 -1.661033799 6.223350966)
(1733.734898 -2.64515421 3.29972187)
(1735.731878 -0.7647393157 1.263951784)
(1734.00126 -0.7509836429 -0.2735326051)
(1732.823522 0.1431560542 -0.8617367179)
(1730.922411 -4.230155963 2.886439485)
(1732.061462 -3.238532748 0.2113331851)
(1733.356268 1.206018944 0.7712265097)
(1732.328164 -0.676974914 2.346260993)
(1731.091877 2.616976085 0.6411110242)
(1732.008761 6.155567476 1.381184838)
(1731.633708 5.40631609 1.894653954)
(1733.013389 3.539095035 -0.7012074039)
(1735.137594 0.6878127926 -3.091854261)
(1735.882959 1.453085617 -4.021522258)
(1737.332873 6.216630454 -2.284481794)
(1738.380946 4.628550902 -2.743727865)
(1738.841734 4.034434335 -3.506695375)
(1730.775062 -0.12955883 -3.659870684)
(1732.936467 -2.481733375 -4.777055264)
(1731.574289 -1.25351757 -6.858949501)
(1731.782075 1.794664273 -5.125494654)
(1732.684709 3.210561045 -3.749814694)
(1732.919478 7.656869503 -4.819903768)
(1736.887799 7.052057097 -3.755937866)
(1738.607604 5.963978408 -3.39504572)
(1738.372744 4.055584868 -2.24890742)
(1735.827681 4.498032862 -0.8017622385)
(1734.782103 2.630421251 -6.641755878)
(1735.078185 5.846581778 -4.8803136)
(1734.893895 4.293171434 -4.505867637)
(1735.681026 1.429672066 -2.22575938)
(1738.932807 -0.7374605643 -1.312967283)
(1737.314681 1.889531587 1.31402467)
(1735.328202 2.081512739 2.858027386)
(1730.530853 1.473953099 -0.5026578945)
(1732.235209 3.577360877 -1.822091523)
(1733.00647 3.900023492 -0.3887933252)
(1736.932655 2.943267265 3.561188556)
(1737.93772 0.3872912911 3.760733027)
(1737.246009 1.840158468 2.135917967)
(1736.089338 3.63315182 0.1109566955)
(1734.380693 3.982671087 -0.2034189647)
(1736.040258 2.011666396 -2.004517749)
(1735.644425 -0.1096797636 -4.330080802)
(1738.535849 -2.428973116 0.471157283)
(1737.051885 -3.363396512 1.460870834)
(1735.732141 -1.068160116 -0.7260713491)
(1736.724469 -2.366245347 1.24659036)
(1732.464337 -0.8232445606 -0.345673256)
(1735.6338 2.258635785 -2.823686149)
(1735.472933 1.4242078 -0.9095148921)
(1735.537912 -0.4913416499 -1.382724146)
(1734.061376 1.513250662 -0.2962228332)
(1733.466692 3.596050064 -1.487559803)
(1735.050436 3.537099327 -2.659124406)
(1736.629693 1.020032686 -3.709046564)
(1735.461819 -2.428440016 -4.530140811)
(1738.012089 0.1861408544 -2.106295727)
(1738.017076 0.9745336395 -0.8808308874)
(1738.480707 -1.919949663 0.7804022513)
(1737.602884 -2.492731989 -2.531898143)
(1736.282285 -0.9400795359 0.229326292)
(1734.618854 -0.7633181926 -3.423408873)
(1732.638728 -0.8509717256 -3.793015848)
(1731.333907 0.780392934 -1.515155311)
(1729.24255 1.434836388 -1.88256919)
(1731.081151 1.07936448 -0.9088614447)
(1735.421889 -2.783270505 -2.35449523)
(1733.610802 -3.177690766 -1.851942618)
(1732.309343 -2.422508526 -2.196155617)
(1734.466653 -2.701262851 0.5728086668)
(1732.19969 -2.682109822 -1.135951016)
(1734.739578 -1.740377569 -0.4541837253)
(1735.08418 -2.561971699 1.44846203)
(1736.483652 -1.422601387 2.636539809)
(1734.705195 -0.01913331832 2.537546748)
(1736.547683 -0.04116980525 1.23669284)
(1736.996803 -2.013851956 -1.675561067)
(1736.257371 -3.089075059 0.1676104427)
(1735.625896 -1.235639189 -0.55845073)
(1733.084566 -1.529788663 0.0267107777)
(1735.187864 -1.711842067 1.344178069)
(1736.551137 -2.905573131 4.292188374)
(1734.544402 -2.21974019 2.784362642)
(1734.994312 -1.101564955 2.123366125)
(1735.14787 -2.368912198 2.45519074)
(1733.301641 -1.928115516 2.725376478)
(1738.090176 6.060850985 0.7116845546)
(1738.950563 5.333978531 0.6510309985)
(1738.89817 4.328522087 2.186606968)
(1741.063135 3.958605797 1.640313659)
(1737.411078 3.437701111 3.195503944)
(1737.816073 5.868366015 2.679065148)
(1738.289051 3.395186755 2.463551663)
(1736.65993 2.574515825 3.537093164)
(1736.292547 3.572703345 4.264919735)
(1737.797435 3.081964028 5.328810972)
)
;

boundaryField
{
    flow
    {
        type            calculated;
        value           nonuniform List<vector> 
48
(
(1707.988652 2.662115351 -0.8768903399)
(1709.382784 3.589501035 -1.885997878)
(1708.055023 -3.210986572 -0.4067352687)
(1713.174913 1.065751123 0.005518203674)
(1710.114469 2.976964827 1.669225804)
(1710.931669 -0.02572758271 -0.6673681697)
(1705.885824 4.633150104 2.285387542)
(1709.872963 -2.810252836 1.174179749)
(1703.94135 -5.200849271 0.7110666307)
(1706.001153 0.5068788646 -1.802344154)
(1701.706588 1.875332668 -3.329217969)
(1707.42768 -4.438856187 -1.206007083)
(1708.73469 2.567623173 -1.457268336)
(1701.392246 1.055168649 2.782316536)
(1712.04441 -3.519971045 3.398293781)
(1708.448877 -2.006838915 0.06591558671)
(1710.562634 -0.2688440265 -4.956796437)
(1711.808349 3.511172011 -0.2710351392)
(1711.808349 3.511172011 -0.2710351392)
(1749.66274 1.675670334 1.379196979)
(1740.820156 6.32847342 -0.3734738785)
(1743.267874 6.647844914 0.2678305609)
(1743.977016 5.841757741 -1.603317265)
(1742.027068 4.914268163 -3.371044984)
(1740.91369 3.628271924 -4.901285426)
(1739.408771 7.366249441 -4.245424215)
(1740.605737 5.077919184 -4.710011121)
(1742.603248 3.128153566 -2.906952953)
(1743.033369 7.255092781 -2.108721389)
(1739.819722 6.487906747 -0.6613063826)
(1738.808989 6.330013819 -0.4202821781)
(1740.91677 7.776008329 0.2822866121)
(1740.585795 12.05807507 2.41920155)
(1736.782932 7.374439675 2.734667633)
(1738.040101 7.518753059 0.3973115311)
(1737.528419 5.828457966 -0.1138184934)
(1737.253671 6.97992002 -0.03763470911)
(1737.0345 8.304048878 1.177347642)
(1738.090176 6.060850985 0.7116845546)
(1738.950563 5.333978531 0.6510309985)
(1738.89817 4.328522087 2.186606968)
(1741.063135 3.958605797 1.640313659)
(1737.411078 3.437701111 3.195503944)
(1737.816073 5.868366015 2.679065148)
(1738.289051 3.395186755 2.463551663)
(1736.65993 2.574515825 3.537093164)
(1736.292547 3.572703345 4.264919735)
(1737.797435 3.081964028 5.328810972)
)
;
    }
    obstacle
    {
        type            calculated;
        value           nonuniform 0();
    }
    frontAndBack
    {
        type            empty;
    }
    procBoundary2to0
    {
        type            processor;
        value           nonuniform List<vector> 
31
(
(1711.76809 0.5344105173 1.077496811)
(1749.967949 -0.2861794563 3.295672868)
(1739.592505 1.485818374 5.846795376)
(1740.189485 1.385862033 4.647968553)
(1740.060161 1.093809331 4.51701731)
(1739.218182 1.976046467 4.956251566)
(1736.775309 1.159501748 3.329160769)
(1736.086611 2.15282174 2.607057161)
(1738.643516 0.4222893293 -0.5478897838)
(1736.651601 -1.129847701 -0.07742325683)
(1736.455685 -3.021838959 -0.9347131837)
(1737.041628 -1.745228311 2.005978175)
(1734.560848 -4.177631247 3.634521232)
(1731.689868 -2.462673555 2.863498341)
(1733.128806 -2.947123582 1.268430123)
(1734.155353 -1.164181079 1.649689338)
(1731.685488 -2.222981754 2.480268825)
(1733.871043 -1.808052284 2.909218334)
(1733.686578 -2.031581732 1.934870736)
(1736.935943 1.08038205 2.219351761)
(1736.883815 4.417502395 -4.073941771)
(1731.494178 4.736183692 -3.069193646)
(1730.037214 4.368732179 -0.4614877253)
(1723.983677 6.238933737 -2.86750238)
(1724.772989 7.689319909 -2.611525535)
(1722.915791 10.19361026 -5.239528847)
(1735.721206 2.391804963 2.084375114)
(1734.80156 0.911680066 -0.4331261399)
(1734.333447 4.514229796 1.262568588)
(1732.152286 4.26315611 1.279802865)
(1732.152286 4.26315611 1.279802865)
)
;
    }
    procBoundary2to3
    {
        type            processor;
        value           nonuniform List<vector> 
19
(
(1724.189807 9.196128542 0.7608045343)
(1727.204576 9.287798001 -1.947784716)
(1727.51688 8.566011312 4.448877076)
(1728.964372 6.324329086 3.593267697)
(1734.245748 3.188394731 -4.556673432)
(1736.63078 0.2093277291 1.431102988)
(1730.29227 -0.1327936572 -2.328027621)
(1734.659066 -1.760785011 2.056823937)
(1735.332523 1.242841265 2.304476907)
(1732.687761 0.6204550182 1.29564454)
(1737.647199 3.092682202 -2.935900427)
(1736.064757 4.272391362 -1.948724071)
(1735.910099 1.654247934 0.7913937439)
(1733.373803 2.426562174 0.2028723734)
(1736.709901 -1.398921924 -6.780181045)
(1733.616599 -0.1145358538 0.7770227317)
(1736.859688 -1.082921316 -0.2353062551)
(1732.891751 -5.265750353 3.326847819)
(1735.673088 4.153004573 4.862739566)
)
;
    }
}


// ************************************************************************* //
