/*--------------------------------*- C++ -*----------------------------------*\
  =========                 |
  \\      /  F ield         | OpenFOAM: The Open Source CFD Toolbox
   \\    /   O peration     | Website:  https://openfoam.org
    \\  /    A nd           | Version:  7
     \\/     M anipulation  |
\*---------------------------------------------------------------------------*/
FoamFile
{
    version     2.0;
    format      ascii;
    class       volScalarField;
    location    "0.00216";
    object      internalE;
}
// * * * * * * * * * * * * * * * * * * * * * * * * * * * * * * * * * * * * * //

dimensions      [1 -1 -2 0 0 0 0];

internalField   nonuniform List<scalar> 
125
(
104.443
109.431
103.414
102.385
105.753
112.594
88.0757
139.002
108.001
110.334
92.2543
119.273
86.7768
110.974
84.574
110.897
112.548
113.792
105.518
123.924
130.4
125.068
91.0885
91.6948
98.6381
99.5301
124.624
126.57
92.4056
108.663
118.14
104.643
114.254
136.48
117.708
100.237
119.113
91.4554
114.077
103.303
105.327
118.116
88.6732
84.9819
133.158
136.011
87.4967
100.762
117.519
128.842
117.819
104.247
92.9384
88.5007
104.107
116.258
95.5453
120.448
142.62
99.5353
96.7492
99.5622
82.0462
89.9593
92.108
105.489
116.475
138.943
123.735
110.158
100.829
114.059
88.316
101.137
92.7259
134.219
109.646
97.752
114.745
107.094
100.136
112.251
106.827
108.985
114.01
132.028
123.808
131.738
102.697
129.161
103.272
126.154
115.218
141.565
141.923
133.048
130.084
84.5907
98.6401
102.332
112.914
121.619
114.761
103.524
115.103
144.594
132.353
97.3986
81.93
112.909
109.491
123.208
94.1809
146.886
136.238
107.411
90.8228
84.1941
118.851
143.746
115.668
100.676
101.756
80.5402
79.9907
)
;

boundaryField
{
    sides
    {
        type            symmetry;
    }
    empty
    {
        type            empty;
    }
    procBoundary3to2
    {
        type            processor;
        value           uniform 78.4911;
    }
}


// ************************************************************************* //
