/*--------------------------------*- C++ -*----------------------------------*\
  =========                 |
  \\      /  F ield         | OpenFOAM: The Open Source CFD Toolbox
   \\    /   O peration     | Website:  https://openfoam.org
    \\  /    A nd           | Version:  7
     \\/     M anipulation  |
\*---------------------------------------------------------------------------*/
FoamFile
{
    version     2.0;
    format      ascii;
    class       volVectorField;
    location    "0.00216";
    object      momentum;
}
// * * * * * * * * * * * * * * * * * * * * * * * * * * * * * * * * * * * * * //

dimensions      [1 -2 -1 0 0 0 0];

internalField   nonuniform List<vector> 
125
(
(0.0737641 -0.00924226 -0.0416367)
(0.0546798 -0.0174876 0.0321952)
(-0.00761493 -0.0297012 0.00746701)
(0.00317475 -0.00496627 -0.00388982)
(-0.00859111 0.0616878 0.064669)
(0.0116296 -0.0390183 -0.0643114)
(0.00926488 0.0472896 -0.0260396)
(0.0227696 0.0127783 0.00750166)
(-0.0163801 -0.134019 -0.0799925)
(-0.029131 0.0914578 -0.0319274)
(0.00417767 -0.0556568 -0.0614529)
(-0.0193998 0.0452492 0.0200183)
(-0.0149993 -0.00375533 -0.0524914)
(-0.0119716 0.0497109 0.0218528)
(0.0266529 -0.0360448 0.00481093)
(-0.0391221 -0.0238142 -0.0297818)
(0.00808975 0.0173501 -0.0264919)
(0.0230816 -0.0124 -0.0186589)
(-0.0294484 0.0730835 0.091793)
(0.0428482 0.0531982 -0.0551289)
(0.0259536 -0.00818972 0.0562507)
(-0.0288216 0.0104978 0.000821282)
(0.0185503 -0.0012646 0.00796892)
(0.0456464 0.0679963 0.0275487)
(0.0269161 -0.0449933 -0.0317726)
(0.0151096 -0.0495253 -0.0662311)
(-0.00447701 0.0774187 -0.0490469)
(0.00699005 0.0240629 0.0728748)
(0.00715682 -0.0781512 -0.0124356)
(-0.0162145 -0.0252203 0.0370065)
(0.0310019 -0.0463479 0.0976096)
(-0.0514028 -0.0735594 0.0442598)
(-0.0227628 0.0184382 0.0170123)
(0.070437 -0.0256732 -0.0224551)
(0.0205229 0.0392154 -0.0975845)
(0.0438275 -0.0417543 0.0628435)
(0.00251557 0.0151162 0.0327424)
(0.0505714 0.0309503 -0.0271937)
(0.0669174 0.032734 -0.0210665)
(0.00710977 -0.00115598 0.03943)
(0.0300227 -0.000691776 -0.0411345)
(-0.0563424 -0.00699245 0.027206)
(-0.0635989 0.00836197 0.0416482)
(-0.00927684 -0.00674789 -0.0400642)
(0.033033 0.0388816 0.0484168)
(-0.0157896 0.000972616 -0.0107845)
(0.0303669 -0.0426108 0.042077)
(-0.0111015 0.0890164 0.0559688)
(-0.0093381 0.0277096 0.0820724)
(-0.0173074 0.00699015 -0.00530241)
(-0.0459681 -0.00175039 0.0567996)
(-0.00744153 -0.0258661 -0.013645)
(-0.00619995 -0.00128035 -0.00329841)
(-0.00199658 0.0122982 0.0369537)
(0.0026304 -0.0563628 -0.00632587)
(-0.000976979 -0.0290385 -0.0614361)
(-0.00539617 0.0466035 0.051073)
(0.0767661 0.0579946 0.00947653)
(-0.00751803 -0.0187103 -0.052928)
(0.0223176 0.0756148 0.0107112)
(0.0252292 -0.0113091 0.0269594)
(-0.0027115 -0.0434255 0.0169191)
(-0.0324013 0.00204026 0.0115837)
(0.0464994 -0.00336549 0.0125164)
(0.0790633 -0.0194604 -0.0415791)
(-0.0319166 -0.0104049 0.0486338)
(0.00466556 -0.00758673 -0.0560437)
(-0.0471 -0.0429018 0.0239329)
(-0.0812496 -0.044558 -0.0692588)
(-0.0203278 -0.0644756 -0.0122414)
(-0.0076643 -0.138358 -0.058709)
(-0.0359452 0.0188679 -0.0239625)
(0.00351662 0.0619513 -0.0533972)
(-0.00834872 -0.0121405 -0.0637762)
(0.0215873 0.0382308 -0.0366582)
(0.0195748 0.128145 0.0315328)
(-0.0125879 -0.0466044 0.0138394)
(0.0209277 0.0446948 -0.0301622)
(-0.0321136 -0.0208525 0.00754709)
(-0.00856796 0.0495405 0.0893761)
(-0.010858 0.0111218 0.0383866)
(-0.0412994 0.00214198 -0.0367743)
(-0.0312591 -0.0666256 -0.0237778)
(0.00952938 -0.0235008 -0.0137741)
(0.032007 0.0311078 -0.00440236)
(-0.00373044 -0.0607325 -0.046905)
(-0.012895 -0.0279501 -0.0132825)
(0.0719216 0.0235226 -0.0274927)
(-0.0739313 0.0168747 0.0150283)
(-0.0230669 -0.0634921 0.0229499)
(0.00546983 0.0523854 0.0775326)
(0.0274923 -0.0165098 0.00541661)
(0.0309036 0.0435352 0.0160699)
(0.054482 0.0121553 0.0189549)
(-0.0579784 -0.114432 -0.0278111)
(0.0467792 0.0492248 0.0100919)
(0.0245282 0.0687003 -0.0173102)
(0.0430969 0.0392116 -0.020304)
(0.0141852 0.0617892 0.0299984)
(-0.0333186 0.0331719 0.0087262)
(-0.047025 -0.00954665 -0.0058968)
(-0.0260952 -0.0112352 0.00432953)
(-0.00626141 0.0249896 0.0550975)
(0.0767916 -0.0134688 0.00786796)
(0.0102248 0.00245414 0.0499783)
(-0.00419271 -0.00810702 0.0714581)
(0.0240004 -0.0453624 0.00502199)
(-0.0109121 0.0983788 0.0493222)
(0.0572199 0.0339018 -0.0253204)
(-0.0454731 -0.0292527 0.0511366)
(-0.00261087 0.0331367 0.00457598)
(0.00183136 -0.0145696 -0.0194409)
(0.00804717 -0.0306614 0.00929451)
(-0.00384135 0.021097 0.0427235)
(0.0542216 -0.0239288 -0.0645951)
(0.0265911 0.012256 0.0419035)
(-0.0080632 -0.00353115 -0.0182375)
(0.00880322 -0.00113529 -0.0518043)
(0.0232185 0.00586143 0.00529882)
(0.0980129 0.0162049 -0.0132039)
(-0.0332181 0.0621683 -0.057062)
(0.100697 0.020313 -0.0490055)
(0.0255383 0.0257571 -0.0772989)
(-0.0197509 -0.000226428 0.0272477)
(-0.0125607 0.055445 -0.0420218)
)
;

boundaryField
{
    sides
    {
        type            symmetry;
    }
    empty
    {
        type            empty;
    }
    procBoundary3to2
    {
        type            processor;
        value           uniform (-0.0194581 0.0192229 -0.0193538);
    }
}


// ************************************************************************* //
