/*--------------------------------*- C++ -*----------------------------------*\
  =========                 |
  \\      /  F ield         | OpenFOAM: The Open Source CFD Toolbox
   \\    /   O peration     | Website:  https://openfoam.org
    \\  /    A nd           | Version:  7
     \\/     M anipulation  |
\*---------------------------------------------------------------------------*/
FoamFile
{
    version     2.0;
    format      ascii;
    class       volScalarField;
    location    "0.005";
    object      dsmcRhoNMean;
}
// * * * * * * * * * * * * * * * * * * * * * * * * * * * * * * * * * * * * * //

dimensions      [0 -3 0 0 0 0 0];

internalField   nonuniform List<scalar> 
654
(
8.818
8.6932
8.808
8.468
8.3456
8.6352
8.5896
8.7064
8.6012
8.3756
8.4552
8.3444
8.2628
7.966
7.8116
7.6376
8.0148
8.1948
7.7116
7.0716
9.028
8.6844
8.6024
8.4888
8.3764
8.4912
8.378
8.3972
8.2468
8.3076
8.2304
8.2156
8.3648
8.0128
7.9736
7.6964
7.752
7.4384
7.2372
6.8628
8.7648
8.8792
8.4896
8.6156
8.2928
8.506
8.1436
8.3884
8.1288
8.3952
8.1292
8.1536
8.1616
7.7808
7.6456
7.234
7.3404
7.026
6.6956
6.572
8.9716
8.684
8.3704
8.7088
8.0216
8.1148
8.2628
8.0884
8.1436
7.8408
8.0476
7.9516
8.2484
7.822
7.458
7.5572
7.3328
7.3352
7.0204
6.7084
8.6676
8.6428
8.4156
8.042
8.4352
8.3688
8.3408
8.2792
8.0788
7.91
7.8752
7.686
8.106
8.2484
7.53
7.316
7.4376
7.2576
6.8692
6.5072
8.656
8.3932
8.3856
8.336
8.4204
8.168
8.0644
7.96
8.066
8.1572
8.0752
7.99
7.8124
7.9288
7.2152
7.4892
7.2296
7.1
6.7716
6.6312
8.8264
8.7464
8.6016
8.6144
8.1528
8.1952
8.2284
8.0332
8.2012
7.8956
8.1492
7.898
7.8076
7.7048
7.5016
7.1304
7.3128
6.956
6.66
6.782
8.914
8.6392
8.3724
8.4128
8.2104
8.3472
7.8304
7.9816
8.4044
8.0552
7.91
7.892
7.7464
7.3976
7.3792
7.21
7.234
7.1104
7.036
6.7196
8.488
8.6212
8.6404
8.4396
8.2032
8.4296
7.868
7.618
7.9156
8.144
7.8488
7.7736
7.8916
7.2852
7.3016
7.222
6.9408
6.9648
6.6376
6.6196
8.282
8.574
8.1616
8.3416
8.1508
8.144
8.0672
8.1164
8.1716
7.8788
8.0104
7.9516
7.6976
7.31
7.2472
7.0452
6.8976
6.778
6.8172
6.82
8.5436
8.3024
8.1768
8.234
8.3752
8.2292
8.0028
8.1412
7.7708
7.5356
7.682
7.518
7.5512
7.0336
7.3772
6.994
6.9392
7.04
6.888
6.6504
8.5004
8.1892
8.3916
8.5836
8.1328
8.1772
8.3992
7.9604
7.8408
7.7332
7.7516
7.5952
7.5068
7.384
6.9984
7.2748
6.5016
6.7544
6.8396
6.7324
8.2356
8.1856
8.4736
8.0396
7.8704
8.098
7.9412
7.6992
7.9836
7.5984
7.92
7.4044
7.2044
7.086
7.1168
7.0868
7.0648
6.6836
6.8468
6.8336
8.4204
8.4356
7.9432
7.9904
7.932
8.2964
8.0872
8.0368
7.6
7.862
7.7472
7.7844
7.3852
6.8776
7.2348
7.3988
7.066
6.7368
6.9212
7.0788
8.3048
8.2112
8.376
7.9476
7.9824
8.1124
7.9068
8.0112
7.6684
7.5852
7.7656
7.416
7.176
7.0468
7.1304
7.138
7.2384
7.0352
7.1064
6.7212
8.5844
8.6144
8.1564
7.9856
8.3816
7.8852
8.0004
8.0184
7.76
7.7244
7.3584
7.6264
7.3228
7.2912
6.8008
6.9436
7.3008
7.2256
7.1932
7.0296
8.3312
8.2076
8.3196
8.0304
7.9232
7.6784
7.7072
7.7636
7.6484
7.3712
7.3148
7.8236
7.3644
7.5732
7.1164
7.1912
7.2472
7.3776
6.9064
6.882
8.296
8.262
8.1512
8.1308
8.096
7.9888
7.6472
7.9312
7.9132
7.6448
7.5524
7.6292
7.4804
7.5788
7.5676
7.3408
7.378
7.2744
6.984
6.9244
8.332
8.474
8.0768
8.3884
8.32
8.012
7.7856
7.8608
7.7076
7.7492
7.5668
7.5612
7.4764
7.4672
7.4796
7.4808
7.1476
6.8824
6.9768
6.9432
8.37
8.494
7.9436
8.0012
8.1732
8.2116
8.0508
8.1148
7.7752
7.6404
7.4964
7.4432
7.2224
6.8984
7.1636
7.0656
7.368
7.3124
6.7896
7.0244
8.3956
8.456
8.3672
8.5268
8.2092
8.0868
8.4196
7.9652
7.7408
7.4352
7.2856
7.5404
7.7712
7.1412
7.1828
7.0936
7.3452
7.2488
6.7612
7.008
8.6448
8.5004
8.3272
7.9788
8.1788
7.9892
7.9084
7.8428
7.8156
7.6296
7.3156
7.3036
7.5764
7.5508
7.4384
7.1292
7.2856
7.2024
7.3256
7.2928
6.3516
6.1512
6.0036
5.8372
5.7532
5.6096
5.3964
5.3188
5.3584
5.4828
6.3728
5.9612
6.176
6.0224
5.8432
5.7224
5.3996
5.2224
5.3488
5.354
6.3476
6.1528
6.0424
5.9168
5.984
6.0956
5.5832
5.5672
5.4632
5.6064
6.4564
6.2584
6.014
5.9504
5.8964
5.8288
5.6
5.6428
5.8288
5.5736
6.3752
6.446
6.246
6.1352
5.7636
5.856
5.9432
5.8924
5.7896
5.7268
6.64
6.6688
6.3652
6.2172
6.0096
5.8052
6.106
5.9856
5.5412
5.5936
6.6596
6.1864
6.0056
6.0736
6.1988
5.934
5.7728
5.7376
5.6372
5.422
6.8352
6.6368
6.498
6.0968
6.0428
5.8428
5.9204
5.9396
5.622
5.29
6.7384
6.7244
6.3316
6.2104
6.0992
5.8516
5.8496
5.6892
5.752
5.822
7.0556
6.5452
6.1556
6.28
6.0072
5.9232
5.8416
5.692
5.7012
5.8736
6.8016
6.3432
6.1116
6.4148
6.3608
6.1336
5.9712
5.5588
5.6708
5.518
6.5916
6.3708
6.4876
6.1392
6.0888
6.1836
6.0104
5.582
6.0376
5.7092
6.5292
6.4908
6.56
6.3932
6.3164
6.2016
6.0168
6.0332
5.8584
5.71
6.8524
6.4156
6.3544
6.2304
6.3484
6.1176
6.2348
6.2392
5.8456
5.8384
6.5784
6.382
6.3448
6.5016
6.2068
6.1092
6.2564
6.4024
5.8972
5.7128
6.716
6.5728
6.3688
6.6152
6.5056
6.1548
6.3952
6.3648
6.0068
5.8452
6.858
6.83
6.7336
6.4464
6.4108
6.0964
6.4728
6.5364
6.3788
6.1572
6.738
6.8364
6.4324
6.594
6.4036
6.3844
6.3184
6.3532
6.384
6.3268
6.99
6.7572
6.7532
6.7928
6.77
6.5988
6.6268
6.2672
6.2776
6.1288
7.1836
6.9408
6.6848
6.7368
6.8028
6.846
6.4068
6.4572
6.4524
6.2212
7
6.544
6.776
6.6432
6.6392
6.5036
6.3972
6.954
6.5612
6.4324
7.0772
6.9356
6.9192
6.9828
)
;

boundaryField
{
    flow
    {
        type            calculated;
        value           nonuniform List<scalar> 
42
(
8.818
9.028
8.7648
8.9716
8.6676
8.656
8.8264
8.914
8.488
8.282
8.5436
8.5004
8.2356
8.4204
8.3048
8.5844
8.3312
8.296
8.332
8.37
8.3956
8.6448
8.818
8.6932
8.808
8.468
8.3456
8.6352
8.5896
8.7064
8.6012
8.3756
8.4552
8.3444
8.2628
7.966
7.8116
7.6376
8.0148
8.1948
7.7116
7.0716
)
;
    }
    obstacle
    {
        type            calculated;
        value           nonuniform List<scalar> 10(6.3516 6.1512 6.0036 5.8372 5.7532 5.6096 5.3964 5.3188 5.3584 5.4828);
    }
    frontAndBack
    {
        type            empty;
    }
    procBoundary0to1
    {
        type            processor;
        value           nonuniform List<scalar> 
21
(
5.2816
5.2468
5.6776
5.8956
5.9816
5.7628
5.6384
5.3952
5.5452
5.6144
5.7096
5.8388
5.7168
6.1476
5.868
5.876
6.0136
6.1676
6.1472
6.514
6.2428
)
;
    }
    procBoundary0to2
    {
        type            processor;
        value           nonuniform List<scalar> 
31
(
8.2576
8.3644
8.3648
7.9184
8.234
7.9608
7.8568
7.7204
7.9008
7.6352
7.4368
7.3932
7.7052
7.3552
7.7576
7.1704
7.1524
7.414
7.4792
7.2492
6.69
6.5344
6.3824
6.6788
6.384
6.3948
7.1416
7.2
6.6672
6.69
7.1808
)
;
    }
}


// ************************************************************************* //
