/*--------------------------------*- C++ -*----------------------------------*\
  =========                 |
  \\      /  F ield         | OpenFOAM: The Open Source CFD Toolbox
   \\    /   O peration     | Website:  https://openfoam.org
    \\  /    A nd           | Version:  7
     \\/     M anipulation  |
\*---------------------------------------------------------------------------*/
FoamFile
{
    version     2.0;
    format      ascii;
    class       volScalarField;
    location    "0.005";
    object      dsmcRhoNMean;
}
// * * * * * * * * * * * * * * * * * * * * * * * * * * * * * * * * * * * * * //

dimensions      [0 -3 0 0 0 0 0];

internalField   nonuniform List<scalar> 
654
(
7.3392
9.5028
9.5668
9.4944
9.5464
9.4736
9.4716
9.4268
9.3668
9.3888
9.4168
9.4188
9.4416
9.35
9.4352
9.4096
9.444
9.6668
10.2348
12.86
7.4044
9.4884
9.522
9.5368
9.6084
9.628
9.6532
9.6664
9.7336
9.6908
9.6248
9.5596
9.5156
9.5976
9.5448
9.6644
9.6832
9.8264
10.5284
12.384
7.4644
9.5936
9.666
9.6072
9.5852
9.5276
9.4668
9.4196
9.3752
9.4532
9.5248
9.5172
9.5872
9.58
9.6956
9.7064
9.7636
10.0284
10.5396
11.534
7.466
9.5456
9.602
9.6736
9.6292
9.6152
9.668
9.724
9.7256
9.6844
9.6256
9.6316
9.6652
9.6168
9.5736
9.6252
9.7096
9.8948
10.3092
10.956
7.4424
9.5776
9.5828
9.578
9.6152
9.6336
9.6088
9.6152
9.6328
9.6368
9.6864
9.7556
9.706
9.7448
9.6504
9.66
9.718
9.8308
10.0792
10.4136
7.4684
9.5952
9.6944
9.5844
9.57
9.5472
9.484
9.4676
9.4512
9.452
9.4
9.4472
9.5308
9.6244
9.6456
9.7104
9.682
9.7476
9.932
10.152
7.4736
9.5124
9.6388
9.6244
9.7072
9.6028
9.668
9.7464
9.7004
9.6132
9.6116
9.5756
9.5768
9.506
9.5468
9.5504
9.6512
9.6916
9.8092
10.0536
7.4236
9.5524
9.5504
9.4568
9.52
9.5152
9.5108
9.4584
9.5444
9.6316
9.618
9.6424
9.6456
9.5808
9.6276
9.688
9.6648
9.6692
9.7688
9.8604
7.4528
9.6684
9.6648
9.6516
9.6096
9.6864
9.7476
9.7376
9.7228
9.7356
9.678
9.6784
9.666
9.656
9.642
9.5632
9.6096
9.7716
9.8012
9.8804
7.4668
9.6008
9.6896
9.8008
9.7936
9.718
9.662
9.6644
9.614
9.538
9.5608
9.6784
9.6888
9.6992
9.6772
9.7676
9.7428
9.7128
9.8308
9.8532
7.438
9.5092
9.5292
9.53
9.4716
9.5828
9.524
9.608
9.5928
9.6212
9.6528
9.5932
9.5848
9.6732
9.7116
9.5716
9.6836
9.7492
9.7372
9.818
7.43
9.634
9.6592
9.6096
9.688
9.6576
9.5816
9.5924
9.544
9.5708
9.5648
9.5808
9.5896
9.6188
9.672
9.6856
9.586
9.5712
9.5856
9.6628
7.3912
9.536
9.5824
9.5076
9.5224
9.5464
9.6152
9.7128
9.8032
9.718
9.7568
9.7228
9.722
9.6908
9.5896
9.6224
9.6304
9.6672
9.7032
9.786
7.5304
9.6312
9.6684
9.7436
9.7216
9.7148
9.71
9.6652
9.5836
9.628
9.568
9.6032
9.5032
9.52
9.552
9.6208
9.5724
9.59
9.6248
9.6376
7.4
9.5388
9.596
9.5448
9.5672
9.4988
9.4932
9.4508
9.4616
9.384
9.414
9.5296
9.5124
9.5552
9.6108
9.5896
9.6748
9.5976
9.606
9.5972
7.4464
9.5196
9.57
9.5592
9.506
9.5868
9.6324
9.6552
9.6552
9.68
9.6688
9.6324
9.6956
9.7532
9.6392
9.6432
9.5668
9.58
9.6944
9.66
7.3748
9.4844
9.52
9.4952
9.5628
9.5632
9.58
9.5924
9.7212
9.6688
9.6016
9.5824
9.4968
9.5476
9.5516
9.5904
9.6788
9.6032
9.5792
9.6204
7.5096
9.574
9.6144
9.6264
9.6016
9.5528
9.5116
9.4876
9.3484
9.4508
9.5392
9.6692
9.698
9.6892
9.6944
9.6888
9.598
9.734
9.724
9.7568
7.4108
9.5532
9.6092
9.666
9.6076
9.6332
9.626
9.6668
9.6656
9.6892
9.6704
9.5848
9.5708
9.5568
9.6216
9.6588
9.706
9.6076
9.5656
9.5052
7.484
9.6924
9.7124
9.6816
9.6248
9.6112
9.5952
9.6724
9.6272
9.6484
9.6132
9.6224
9.6312
9.5844
9.598
9.5464
9.546
9.6052
9.6476
9.6228
7.448
9.496
9.584
9.5784
9.618
9.6388
9.5516
9.5732
9.5752
9.506
9.6212
9.6036
9.5888
9.6196
9.6428
9.5516
9.5912
9.564
9.6076
9.6188
7.4408
9.5312
9.5692
9.5076
9.5004
9.578
9.5764
9.5848
9.5652
9.5328
9.556
9.56
9.574
9.608
9.69
9.6928
9.7728
9.7128
9.6208
9.5488
23.2612
26.72
28.3008
28.3836
27.8268
28.1392
28.0188
28.3636
28.2132
28.2256
15.8036
18.6432
20.7572
22.3836
23.0188
24.0016
24.2912
24.4256
24.6308
24.6952
13.2336
15.2476
16.8928
18.6544
20.038
20.8948
21.6632
22.0984
22.466
22.8692
11.9288
12.84
14.2496
15.528
16.8308
18.0576
19.356
20.2328
20.442
21.1216
11.1336
11.7692
12.6224
13.4836
14.658
15.7648
16.9676
18.0784
18.836
19.2392
10.424
10.9184
11.4748
12.36
12.9904
13.772
15.0864
15.8264
16.8496
17.7416
10.3
10.7144
10.9704
11.4516
11.9084
12.4832
13.3504
14.144
15.1584
15.86
10.0352
10.2052
10.44
10.78
11.166
11.6036
12.2104
12.9556
13.706
14.5836
9.9604
10.0544
10.166
10.4508
10.8272
11.1988
11.6456
11.9184
12.4272
12.8916
9.9148
10.0684
10.148
10.2824
10.4908
10.6036
10.7396
11.1476
11.632
12.094
9.836
9.9472
10.0068
9.982
9.9128
10.1376
10.284
10.6672
10.9752
11.318
9.6508
9.532
9.5756
9.6264
9.7012
9.8012
9.9
10.0528
10.1984
10.446
9.7432
9.7332
9.6396
9.602
9.682
9.8264
9.9404
9.9708
10.1812
10.2408
9.5772
9.5516
9.6212
9.698
9.678
9.6072
9.6872
9.7752
9.8268
9.8124
9.6644
9.6308
9.6036
9.4768
9.5808
9.5304
9.5216
9.554
9.5076
9.6
9.626
9.552
9.5304
9.494
9.4264
9.4388
9.3532
9.3432
9.5192
9.538
9.5784
9.5548
9.5004
9.4768
9.4184
9.3556
9.4172
9.386
9.3312
9.2848
9.6956
9.5652
9.5712
9.5172
9.4584
9.4056
9.3644
9.28
9.208
9.2032
9.6084
9.5724
9.4564
9.4284
9.3492
9.3152
9.2784
9.2756
9.1612
9.2168
9.628
9.5788
9.4848
9.4404
9.3464
9.3104
9.2908
9.2952
9.2732
9.2028
9.5356
9.4916
9.4428
9.4084
9.318
9.2208
9.1148
9.068
8.98
8.9568
9.5196
9.4212
9.3732
9.3228
)
;

boundaryField
{
    flow
    {
        type            calculated;
        value           nonuniform List<scalar> 
42
(
7.3392
7.4044
7.4644
7.466
7.4424
7.4684
7.4736
7.4236
7.4528
7.4668
7.438
7.43
7.3912
7.5304
7.4
7.4464
7.3748
7.5096
7.4108
7.484
7.448
7.4408
7.3392
9.5028
9.5668
9.4944
9.5464
9.4736
9.4716
9.4268
9.3668
9.3888
9.4168
9.4188
9.4416
9.35
9.4352
9.4096
9.444
9.6668
10.2348
12.86
)
;
    }
    obstacle
    {
        type            calculated;
        value           nonuniform List<scalar> 10(23.2612 26.72 28.3008 28.3836 27.8268 28.1392 28.0188 28.3636 28.2132 28.2256);
    }
    frontAndBack
    {
        type            empty;
    }
    procBoundary0to1
    {
        type            processor;
        value           nonuniform List<scalar> 
21
(
27.1944
24.2012
22.8912
21.6948
19.8816
18.2596
16.7048
15.2288
13.6784
12.592
11.7372
10.8048
10.4948
9.8768
9.8444
9.5964
9.2824
9.1876
9.1916
9.1012
9.0136
)
;
    }
    procBoundary0to2
    {
        type            processor;
        value           nonuniform List<scalar> 
31
(
7.4444
9.5664
9.6428
9.5932
9.6364
9.6136
9.5896
9.6504
9.714
9.6592
9.6776
9.6864
9.616
9.53
9.4984
9.3872
9.3676
9.4336
9.5048
9.4852
9.2772
9.2444
9.242
9.1116
9.0468
9.0108
9.4608
9.4552
9.248
9.2772
9.1468
)
;
    }
}


// ************************************************************************* //
