/*--------------------------------*- C++ -*----------------------------------*\
  =========                 |
  \\      /  F ield         | OpenFOAM: The Open Source CFD Toolbox
   \\    /   O peration     | Website:  https://openfoam.org
    \\  /    A nd           | Version:  7
     \\/     M anipulation  |
\*---------------------------------------------------------------------------*/
FoamFile
{
    version     2.0;
    format      ascii;
    class       volScalarField;
    location    "0.005";
    object      iDofMean;
}
// * * * * * * * * * * * * * * * * * * * * * * * * * * * * * * * * * * * * * //

dimensions      [0 -3 0 0 0 0 0];

internalField   nonuniform List<scalar> 
654
(
1.836612701e+20
1.810619362e+20
1.834529902e+20
1.763714715e+20
1.738221247e+20
1.798539124e+20
1.789041558e+20
1.813368658e+20
1.791457606e+20
1.744469646e+20
1.761048731e+20
1.737971312e+20
1.720975667e+20
1.659158174e+20
1.626999748e+20
1.590759035e+20
1.669322236e+20
1.706812629e+20
1.606171752e+20
1.472872576e+20
1.880351493e+20
1.808786498e+20
1.791707542e+20
1.768046938e+20
1.74463627e+20
1.76854681e+20
1.744969518e+20
1.748968493e+20
1.717643187e+20
1.730306609e+20
1.714227396e+20
1.711144852e+20
1.742220223e+20
1.668905676e+20
1.660741102e+20
1.603005896e+20
1.614586262e+20
1.549269666e+20
1.507363738e+20
1.42938372e+20
1.825532207e+20
1.849359435e+20
1.768213562e+20
1.794456837e+20
1.727224065e+20
1.771629353e+20
1.696148695e+20
1.74713563e+20
1.693066152e+20
1.748551934e+20
1.693149464e+20
1.698231495e+20
1.699897735e+20
1.620584725e+20
1.592425274e+20
1.506697242e+20
1.52885823e+20
1.46337501e+20
1.394559311e+20
1.368815908e+20
1.868604503e+20
1.808703186e+20
1.743386591e+20
1.81386853e+20
1.67073854e+20
1.690150232e+20
1.720975667e+20
1.684651641e+20
1.696148695e+20
1.633081523e+20
1.676153819e+20
1.656158943e+20
1.717976435e+20
1.62916586e+20
1.553351954e+20
1.574013326e+20
1.527275302e+20
1.527775174e+20
1.462208642e+20
1.397225294e+20
1.805287395e+20
1.800122052e+20
1.752800845e+20
1.674987451e+20
1.756883132e+20
1.743053343e+20
1.737221504e+20
1.724391458e+20
1.682652154e+20
1.647494496e+20
1.640246354e+20
1.600839785e+20
1.688317369e+20
1.717976435e+20
1.568348111e+20
1.523776199e+20
1.549103042e+20
1.511612649e+20
1.430716712e+20
1.355319366e+20
1.802871348e+20
1.748135374e+20
1.746552446e+20
1.73622176e+20
1.753800589e+20
1.701230726e+20
1.679652922e+20
1.657908494e+20
1.67998617e+20
1.698981303e+20
1.681902346e+20
1.664156893e+20
1.627166372e+20
1.651410159e+20
1.502781579e+20
1.559850288e+20
1.50578081e+20
1.478787727e+20
1.410388588e+20
1.381146081e+20
1.838362253e+20
1.821699856e+20
1.791540918e+20
1.794206901e+20
1.698064871e+20
1.706895941e+20
1.713810836e+20
1.673154587e+20
1.708145621e+20
1.644495265e+20
1.697315063e+20
1.644995137e+20
1.626166628e+20
1.604755448e+20
1.56243296e+20
1.485119438e+20
1.523109703e+20
1.448795413e+20
1.387144544e+20
1.4125547e+20
1.856607578e+20
1.799372244e+20
1.74380315e+20
1.752217661e+20
1.710061797e+20
1.738554495e+20
1.630915411e+20
1.662407341e+20
1.750468109e+20
1.677736747e+20
1.647494496e+20
1.643745457e+20
1.613419894e+20
1.540771844e+20
1.536939493e+20
1.501698523e+20
1.506697242e+20
1.480953839e+20
1.46545781e+20
1.39955803e+20
1.767880314e+20
1.795623205e+20
1.79962218e+20
1.757799564e+20
1.708562181e+20
1.755716764e+20
1.638746738e+20
1.586676747e+20
1.648660864e+20
1.696232007e+20
1.634747763e+20
1.619085109e+20
1.643662145e+20
1.517361176e+20
1.520776968e+20
1.504197883e+20
1.445629557e+20
1.450628277e+20
1.382479073e+20
1.378730034e+20
1.724974642e+20
1.785792391e+20
1.699897735e+20
1.737388128e+20
1.697648311e+20
1.696232007e+20
1.680236106e+20
1.69048348e+20
1.701980534e+20
1.640996161e+20
1.668405804e+20
1.656158943e+20
1.603255832e+20
1.522526519e+20
1.509446538e+20
1.467373985e+20
1.436631863e+20
1.41172158e+20
1.419886154e+20
1.420469338e+20
1.77946068e+20
1.729223553e+20
1.70306359e+20
1.714977204e+20
1.744386334e+20
1.71397746e+20
1.666822877e+20
1.695648823e+20
1.618501926e+20
1.569514479e+20
1.600006665e+20
1.565848751e+20
1.572763646e+20
1.464957938e+20
1.536522933e+20
1.456710051e+20
1.445296309e+20
1.46629093e+20
1.434632375e+20
1.385145057e+20
1.770462986e+20
1.705646261e+20
1.747802126e+20
1.787791878e+20
1.693899272e+20
1.703146902e+20
1.749385053e+20
1.657991806e+20
1.633081523e+20
1.610670599e+20
1.61450295e+20
1.581927964e+20
1.563516016e+20
1.537939236e+20
1.457626483e+20
1.515195065e+20
1.354152998e+20
1.406806173e+20
1.424551625e+20
1.402224013e+20
1.715310452e+20
1.704896454e+20
1.764881083e+20
1.674487579e+20
1.63924661e+20
1.686651129e+20
1.653992831e+20
1.60358908e+20
1.662823901e+20
1.58259446e+20
1.649577296e+20
1.542188148e+20
1.500532155e+20
1.475871808e+20
1.482286831e+20
1.476038432e+20
1.471456273e+20
1.392059951e+20
1.426051241e+20
1.423301946e+20
1.753800589e+20
1.756966444e+20
1.654409391e+20
1.664240205e+20
1.652076655e+20
1.727973873e+20
1.684401705e+20
1.673904395e+20
1.582927708e+20
1.637497058e+20
1.613586518e+20
1.621334533e+20
1.538189172e+20
1.432466264e+20
1.506863866e+20
1.54102178e+20
1.471706209e+20
1.403140445e+20
1.44154727e+20
1.474372192e+20
1.729723425e+20
1.710228421e+20
1.744552958e+20
1.655325823e+20
1.662573965e+20
1.68965036e+20
1.646828e+20
1.668572428e+20
1.597174057e+20
1.579845165e+20
1.61741887e+20
1.544604195e+20
1.494617004e+20
1.467707233e+20
1.485119438e+20
1.486702366e+20
1.507613674e+20
1.465291186e+20
1.480120719e+20
1.399891278e+20
1.787958502e+20
1.794206901e+20
1.698814679e+20
1.663240461e+20
1.745719326e+20
1.642329153e+20
1.666323005e+20
1.670072044e+20
1.616252502e+20
1.608837735e+20
1.532607269e+20
1.588426299e+20
1.525192503e+20
1.518610856e+20
1.416470363e+20
1.446212741e+20
1.520610344e+20
1.50494769e+20
1.49819942e+20
1.464124818e+20
1.735222016e+20
1.709478613e+20
1.732805968e+20
1.672571404e+20
1.650243792e+20
1.599256857e+20
1.60525532e+20
1.61700231e+20
1.593008458e+20
1.535273253e+20
1.523526263e+20
1.629499108e+20
1.533856949e+20
1.577345805e+20
1.482203519e+20
1.49778286e+20
1.509446538e+20
1.536606245e+20
1.438464727e+20
1.433382696e+20
1.727890561e+20
1.720809043e+20
1.697731623e+20
1.693482712e+20
1.686234569e+20
1.663906957e+20
1.592758522e+20
1.651910031e+20
1.648160992e+20
1.59225865e+20
1.573013582e+20
1.589009483e+20
1.558017425e+20
1.578512173e+20
1.576179437e+20
1.528941542e+20
1.536689557e+20
1.515111753e+20
1.454627252e+20
1.442213766e+20
1.73538864e+20
1.764964395e+20
1.682235594e+20
1.74713563e+20
1.73288928e+20
1.668739052e+20
1.621584469e+20
1.637247122e+20
1.605338632e+20
1.614003078e+20
1.576012813e+20
1.574846446e+20
1.557184305e+20
1.555268129e+20
1.557850801e+20
1.558100737e+20
1.488701853e+20
1.433466008e+20
1.453127636e+20
1.446129429e+20
1.743303279e+20
1.769129994e+20
1.654492703e+20
1.666489629e+20
1.702313782e+20
1.710311733e+20
1.676820315e+20
1.690150232e+20
1.619418357e+20
1.591342219e+20
1.561349904e+20
1.55026941e+20
1.504281195e+20
1.436798487e+20
1.492034333e+20
1.471622897e+20
1.534606757e+20
1.523026391e+20
1.414137627e+20
1.463041762e+20
1.748635246e+20
1.761215355e+20
1.742720095e+20
1.775961577e+20
1.709811861e+20
1.684318393e+20
1.753633965e+20
1.65899155e+20
1.612253527e+20
1.54860317e+20
1.517444488e+20
1.570514222e+20
1.618585238e+20
1.487368862e+20
1.496033308e+20
1.477454736e+20
1.529857974e+20
1.509779786e+20
1.408222476e+20
1.459625971e+20
1.800538612e+20
1.770462986e+20
1.734388896e+20
1.661824158e+20
1.70348015e+20
1.663990269e+20
1.647161248e+20
1.633498083e+20
1.627832868e+20
1.589092795e+20
1.523692887e+20
1.521193527e+20
1.578012301e+20
1.572680334e+20
1.549269666e+20
1.484869502e+20
1.517444488e+20
1.500115595e+20
1.525775687e+20
1.518944104e+20
1.327602385e+20
1.294555777e+20
1.272240561e+20
1.245602443e+20
1.236297096e+20
1.213962246e+20
1.176140054e+20
1.167541187e+20
1.184730757e+20
1.221056005e+20
1.332033579e+20
1.254569173e+20
1.308774353e+20
1.285122345e+20
1.255637071e+20
1.238373068e+20
1.176837491e+20
1.146380217e+20
1.182608217e+20
1.192371388e+20
1.326766311e+20
1.294892506e+20
1.280462783e+20
1.262588319e+20
1.285893387e+20
1.319136528e+20
1.216852929e+20
1.222068004e+20
1.207901812e+20
1.248582546e+20
1.349507532e+20
1.31711664e+20
1.274444456e+20
1.269758236e+20
1.267069143e+20
1.261398877e+20
1.220514474e+20
1.238663122e+20
1.288735189e+20
1.241277768e+20
1.332535224e+20
1.356598149e+20
1.323608259e+20
1.309192783e+20
1.238531939e+20
1.267285175e+20
1.295314575e+20
1.293453353e+20
1.280068153e+20
1.275396427e+20
1.387883342e+20
1.403487703e+20
1.348868282e+20
1.326690794e+20
1.291394533e+20
1.256291647e+20
1.330796673e+20
1.313911883e+20
1.225147444e+20
1.245731902e+20
1.391980106e+20
1.301963821e+20
1.272664387e+20
1.296047935e+20
1.332051458e+20
1.284164998e+20
1.258176063e+20
1.259472873e+20
1.246372839e+20
1.20751544e+20
1.428683768e+20
1.396753118e+20
1.377010322e+20
1.30099859e+20
1.298528835e+20
1.264428588e+20
1.290345338e+20
1.303814326e+20
1.243012152e+20
1.178118163e+20
1.40845077e+20
1.415189046e+20
1.341748007e+20
1.325239741e+20
1.310648553e+20
1.266332979e+20
1.274914546e+20
1.248848486e+20
1.271754873e+20
1.296598099e+20
1.474751463e+20
1.377475366e+20
1.304451329e+20
1.340091712e+20
1.290878801e+20
1.281827792e+20
1.273170955e+20
1.24946312e+20
1.260523102e+20
1.308089762e+20
1.421660744e+20
1.334963292e+20
1.295127159e+20
1.368856738e+20
1.36686341e+20
1.327360031e+20
1.301417146e+20
1.220224101e+20
1.253801727e+20
1.228895279e+20
1.377766843e+20
1.340771873e+20
1.374806427e+20
1.310046343e+20
1.308413711e+20
1.338180431e+20
1.309960753e+20
1.225316792e+20
1.334900428e+20
1.271476795e+20
1.364724084e+20
1.366026573e+20
1.390148929e+20
1.364247506e+20
1.357322351e+20
1.342075772e+20
1.31135562e+20
1.324360652e+20
1.29527968e+20
1.271654955e+20
1.432278883e+20
1.350200284e+20
1.346579613e+20
1.329507544e+20
1.364198793e+20
1.323897501e+20
1.3588685e+20
1.369580163e+20
1.292449627e+20
1.300250479e+20
1.375007805e+20
1.343128981e+20
1.344545258e+20
1.38737903e+20
1.333770576e+20
1.322079683e+20
1.363576208e+20
1.405404554e+20
1.303858286e+20
1.272278533e+20
1.403768752e+20
1.383283949e+20
1.349631177e+20
1.411620179e+20
1.397979281e+20
1.331947887e+20
1.393827531e+20
1.397150878e+20
1.328090601e+20
1.301764893e+20
1.43344939e+20
1.437413174e+20
1.426937001e+20
1.37559987e+20
1.377607841e+20
1.319309651e+20
1.410740374e+20
1.434819182e+20
1.410339014e+20
1.371249367e+20
1.408367161e+20
1.438760101e+20
1.363108841e+20
1.407096293e+20
1.376060634e+20
1.381635152e+20
1.377089037e+20
1.394604547e+20
1.411488723e+20
1.409020415e+20
1.461039852e+20
1.422092001e+20
1.431090505e+20
1.449518315e+20
1.454795827e+20
1.428033024e+20
1.444304522e+20
1.375726503e+20
1.387963901e+20
1.364924508e+20
1.501505838e+20
1.460731688e+20
1.416595659e+20
1.437568442e+20
1.461844173e+20
1.481529089e+20
1.396355739e+20
1.41743381e+20
1.426611816e+20
1.385502593e+20
1.463130028e+20
1.377222813e+20
1.43592212e+20
1.417595111e+20
1.426688398e+20
1.407430984e+20
1.394263429e+20
1.526487453e+20
1.450667263e+20
1.432538237e+20
1.479266262e+20
1.459637308e+20
1.466268054e+20
1.490062491e+20
)
;

boundaryField
{
    flow
    {
        type            calculated;
        value           nonuniform List<scalar> 
42
(
1.836612701e+20
1.880351493e+20
1.825532207e+20
1.868604503e+20
1.805287395e+20
1.802871348e+20
1.838362253e+20
1.856607578e+20
1.767880314e+20
1.724974642e+20
1.77946068e+20
1.770462986e+20
1.715310452e+20
1.753800589e+20
1.729723425e+20
1.787958502e+20
1.735222016e+20
1.727890561e+20
1.73538864e+20
1.743303279e+20
1.748635246e+20
1.800538612e+20
1.836612701e+20
1.810619362e+20
1.834529902e+20
1.763714715e+20
1.738221247e+20
1.798539124e+20
1.789041558e+20
1.813368658e+20
1.791457606e+20
1.744469646e+20
1.761048731e+20
1.737971312e+20
1.720975667e+20
1.659158174e+20
1.626999748e+20
1.590759035e+20
1.669322236e+20
1.706812629e+20
1.606171752e+20
1.472872576e+20
)
;
    }
    obstacle
    {
        type            calculated;
        value           nonuniform List<scalar> 10(52.23432839 50.8493041 53.33476145 52.92404616 47.27719522 51.14709182 43.49922351 45.19360165 47.10215625 46.03649506);
    }
    frontAndBack
    {
        type            empty;
    }
    procBoundary0to1
    {
        type            processor;
        value           nonuniform List<scalar> 
21
(
1.184868974e+20
1.177061977e+20
1.273707226e+20
1.322613133e+20
1.341906289e+20
1.292820913e+20
1.264913137e+20
1.210353887e+20
1.244004741e+20
1.259529e+20
1.280886075e+20
1.309870681e+20
1.282501312e+20
1.379146562e+20
1.316421382e+20
1.318216084e+20
1.349085134e+20
1.383633353e+20
1.379056837e+20
1.461344379e+20
1.400503647e+20
)
;
    }
    procBoundary0to2
    {
        type            processor;
        value           nonuniform List<scalar> 
31
(
1.719892611e+20
1.742136911e+20
1.742220223e+20
1.649244048e+20
1.714977204e+20
1.658075118e+20
1.636414002e+20
1.608004615e+20
1.645578321e+20
1.590259163e+20
1.548936418e+20
1.539855412e+20
1.60483876e+20
1.531940774e+20
1.61575263e+20
1.493450637e+20
1.489701597e+20
1.544187635e+20
1.557767489e+20
1.509863098e+20
1.437604739e+20
1.41409635e+20
1.391037774e+20
1.466077701e+20
1.411488723e+20
1.424164467e+20
1.492727058e+20
1.515281834e+20
1.412865991e+20
1.437604739e+20
1.53231378e+20
)
;
    }
}


// ************************************************************************* //
