/*--------------------------------*- C++ -*----------------------------------*\
  =========                 |
  \\      /  F ield         | OpenFOAM: The Open Source CFD Toolbox
   \\    /   O peration     | Website:  https://openfoam.org
    \\  /    A nd           | Version:  7
     \\/     M anipulation  |
\*---------------------------------------------------------------------------*/
FoamFile
{
    version     2.0;
    format      ascii;
    class       volScalarField;
    location    "0.005";
    object      internalT;
}
// * * * * * * * * * * * * * * * * * * * * * * * * * * * * * * * * * * * * * //

dimensions      [1 2 -2 0 0 0 0];

internalField   nonuniform List<scalar> 
654
(
292.4297983
297.6133415
306.0463726
300.8177968
305.4953794
318.0933186
315.1891194
309.9242682
321.4945739
321.4566581
323.8422007
317.3794045
306.5640437
319.980942
339.3777364
335.026644
317.5199721
325.5319563
351.87996
381.2717449
305.947159
317.1841694
305.6202138
302.766693
314.1254896
310.3525684
310.2137121
311.491523
309.2316937
339.2741663
318.5794015
315.6645006
316.6598021
321.0693929
344.1492555
350.7672014
338.9678249
332.6390906
354.8003009
379.2537437
308.2733496
321.3584626
321.0412133
316.0822482
310.3872101
313.026854
313.2239704
314.189142
322.5751322
325.5807354
306.9178416
313.8202198
318.2929117
349.1141697
342.5660674
344.8753195
344.8153174
371.053899
362.2310629
373.7814154
297.5233432
315.251652
308.2800013
311.3609081
315.9652099
309.946518
312.3797369
318.4653655
324.023261
328.3711919
328.4472124
320.9790784
326.228747
336.6717478
340.4609157
343.971305
348.0566688
368.7031899
375.3858055
375.0699296
307.2706214
301.9736206
319.2927253
306.21495
329.700647
315.971051
320.1045176
322.1452011
315.5230924
314.5853968
324.2103033
344.5723044
332.4964062
349.0953481
343.0906415
343.6209939
352.7262593
367.3743785
370.7096218
381.5941312
299.0873198
314.3278938
302.5176985
304.920378
317.0465349
318.8405577
310.2753141
317.0564651
324.6743236
318.1120503
330.0251928
349.9781314
345.3670649
326.9507889
336.4362733
349.1625207
361.7675746
368.4524453
360.4325508
384.3967495
316.1566098
304.1374049
306.2503289
310.1371269
317.4789361
321.3997137
320.2900314
322.5320234
328.6201129
335.297783
330.0874263
331.8471575
330.1321745
338.7314062
341.9006913
345.7742826
368.5470551
365.2422381
366.3670117
408.8284674
296.2896468
309.2259266
306.107703
318.3030652
312.387688
302.2104354
323.9739912
317.2525091
331.2651453
331.6095633
340.0499494
320.6987668
338.3799618
337.2157409
344.2957751
337.093883
339.8990302
348.0663798
378.2813661
389.268604
297.2658206
309.3807547
306.2235749
316.9152038
301.9278961
306.1828724
319.7949226
321.7491268
337.9451791
325.6394519
328.2867862
334.4100202
329.1295112
348.2413669
349.5337278
353.2470904
340.3105869
345.0256483
374.263
388.7456063
310.2531013
304.727414
303.3368763
325.0970507
311.6663783
315.8462716
307.6838789
313.5413301
317.840079
329.6710819
344.6314661
349.5864287
332.1765303
350.1825095
355.0075955
339.8541266
354.6623637
367.4537398
389.6883611
382.6276227
302.5718816
318.8991461
315.0592575
320.5556349
306.2507326
308.1468769
300.7589515
302.7366216
309.6811045
335.2113236
351.6134536
354.2881335
347.076261
355.7721277
349.8050111
348.08257
353.8802144
360.7616022
372.6331883
372.5801566
305.2914059
312.8134273
316.7913885
317.0799207
301.6991051
310.1832484
303.0665666
322.4406165
327.8415571
327.4198063
336.0493923
337.6106186
351.0318892
353.9163746
358.916101
348.5655236
362.3290906
375.2707219
378.2276858
380.0387652
308.3401868
303.4247443
310.0416267
310.9154772
304.0875072
314.3823238
327.8253478
331.6547259
320.5113239
330.8008049
338.1015709
328.7383339
349.0253257
342.250725
349.1210435
354.7796263
371.5704408
355.0521451
360.041353
368.8719243
302.7818917
327.5168894
321.8154926
311.3279358
317.0183486
322.4217449
314.2324252
331.102572
323.4739664
324.9435564
334.0423678
342.9177023
357.8715084
341.501464
354.5945695
368.3661107
363.2453011
365.829319
364.3555326
374.4221015
308.327676
323.1249352
293.6458073
309.3604838
319.6097669
313.5931443
320.5990092
325.2184483
315.2311845
321.794942
337.840513
329.7799325
343.1395251
345.2838115
352.4557353
367.0219862
353.5306195
352.5190545
359.5550076
356.9993884
312.0850803
307.7505058
290.2425705
305.9730094
318.7293361
309.6044461
317.8871652
325.6840103
334.7516572
332.7838155
343.9328421
333.8881897
341.2424948
350.8541811
360.055351
367.060288
340.9451025
348.6418107
349.8679701
357.940034
304.0456947
307.331124
302.0957027
308.4282054
309.8159446
317.2902385
330.1753125
334.9177017
321.3537014
316.5424395
347.2939888
346.2157929
345.078426
344.3074736
348.8405051
364.731942
357.7064869
356.5304587
364.5426812
373.9106987
299.176231
310.3124663
303.5762639
310.8720767
316.5494382
314.2666586
328.7713687
341.017022
332.2255431
334.1871854
338.8907034
335.8938409
333.9255038
346.6244652
368.8699565
350.8101107
354.4283714
351.1828091
361.3204417
378.714902
303.2031864
307.0007049
306.3784083
314.5273813
320.2880529
322.3552503
320.0059044
344.9314758
330.1588971
322.4981319
324.0490765
335.7537389
355.7506024
341.939602
349.9437053
348.9425235
345.3684637
350.8122615
357.177524
350.6124836
317.0344009
310.4258679
321.3921613
322.0042959
312.252627
320.5017768
325.2181553
338.0178977
316.8492335
321.2394229
323.7391213
324.8816197
327.3648448
336.4122412
328.0504422
337.129986
345.5075117
355.2236549
352.171137
356.9442385
304.4329229
310.7169232
317.8513047
325.7654586
335.1472163
324.9756496
333.6786883
334.2502596
334.8635177
326.6164958
319.0980921
335.0006557
339.0769119
349.3979464
347.4195253
342.1048751
344.7427008
354.8186109
355.2223042
358.2380928
299.1994759
315.0342562
324.8160698
326.3990011
329.1014254
326.2573077
330.0632742
330.7658563
330.6168585
332.3440042
331.1099449
339.9454649
327.0350312
342.622605
356.1554437
355.5362577
358.1624467
349.9159668
367.0205592
373.0070969
456.744191
452.3323688
481.3567409
480.5007178
499.9979529
469.1316901
480.9678276
497.0233531
500.0150143
495.704128
414.0455929
437.0876208
433.0971435
459.6360981
444.5685894
463.134633
484.666274
512.8627039
499.6616642
502.2943298
391.5053831
401.0218027
431.5131655
440.7046354
463.9636635
453.7993935
465.1762128
486.4951977
462.7546542
481.5383833
388.8170384
403.8059844
415.5466993
434.0953068
448.4306134
447.574989
459.3090208
448.0843356
473.9891028
482.703859
405.9544393
399.7085618
420.1285069
433.4783787
443.3919775
438.7951781
451.0881797
452.6703491
472.2127016
456.6810818
406.5479527
411.7200246
438.3513059
431.7344719
425.9179476
425.7245789
445.4927099
457.2809399
448.1310164
432.7753929
405.9735957
423.1737417
417.7830817
440.6893514
407.6024683
418.3340788
432.6890408
444.1601017
442.9402773
442.3267908
414.8597518
404.9324
407.9712038
422.4967282
418.5107441
419.2059044
444.7747077
437.1409341
437.4719844
449.9206087
386.4563687
400.9532349
392.8857372
423.0153167
422.7971793
418.7595899
453.9521198
438.6715832
437.3825682
446.9814842
371.1523912
394.61155
401.5685357
407.2802782
427.3329278
407.2997487
428.9986728
455.7985082
421.4893447
442.0536459
380.6179546
402.9242431
389.4168899
401.6104591
419.3621406
412.694235
414.8569245
430.4392893
414.5575447
432.3315735
375.0682615
384.1577628
399.5190787
402.9274288
430.5979221
414.0801838
421.6454599
432.0010867
422.0404748
427.0690198
393.4485284
369.4299678
379.0657818
396.093608
425.9356143
403.0552901
397.3804681
426.7302603
411.9513963
415.8012957
384.0688125
391.0273059
385.6666548
400.6965495
415.8967397
393.605028
404.365206
424.2476048
408.1375009
422.7886922
372.5629865
359.7349752
385.049797
388.3086315
396.6897377
390.2005496
394.0351814
398.8779027
403.6829579
421.5154359
378.9151218
376.7072305
401.3634175
384.2970895
391.2675701
409.0492206
390.9893251
393.919522
400.9845971
428.7146202
359.2545619
377.3451858
384.4708446
397.5303727
390.9459471
392.3145448
390.2869144
397.6489205
392.3698048
411.0381571
372.9043586
381.9062559
408.761455
387.9703713
396.9295821
379.8069153
370.3446316
397.9064969
387.8064757
399.9656013
359.6553716
380.7300479
408.6552767
390.2126509
413.9888017
391.073897
382.3396456
356.0454655
359.5764216
387.9379458
353.2634314
365.2788547
397.0533448
391.8345433
379.1669229
383.8593841
382.6318235
380.9210416
375.7433684
381.582109
376.2357793
367.8459394
363.4696864
377.018251
394.1824011
376.1096053
364.8448101
368.3013586
389.9321822
378.3806337
363.7476746
371.6930814
373.0261539
369.3202011
)
;

boundaryField
{
    flow
    {
        type            calculated;
        value           nonuniform List<scalar> 
42
(
292.4297983
305.947159
308.2733496
297.5233432
307.2706214
299.0873198
316.1566098
296.2896468
297.2658206
310.2531013
302.5718816
305.2914059
308.3401868
302.7818917
308.327676
312.0850803
304.0456947
299.176231
303.2031864
317.0344009
304.4329229
299.1994759
292.4297983
297.6133415
306.0463726
300.8177968
305.4953794
318.0933186
315.1891194
309.9242682
321.4945739
321.4566581
323.8422007
317.3794045
306.5640437
319.980942
339.3777364
335.026644
317.5199721
325.5319563
351.87996
381.2717449
)
;
    }
    obstacle
    {
        type            calculated;
        value           nonuniform List<scalar> 10(505.0486941 469.8959271 460.7015298 524.9828115 521.8821437 482.6011968 462.6296585 517.3342899 458.212268 546.8608205);
    }
    frontAndBack
    {
        type            empty;
    }
    procBoundary0to1
    {
        type            processor;
        value           nonuniform List<scalar> 
21
(
497.5486386
488.705285
485.2814536
480.1505368
472.9107801
449.7878542
439.7461932
442.4202325
443.9364176
441.072087
427.650771
408.2373165
412.3918528
421.4032175
411.2126953
405.3594532
402.7244505
391.2064589
399.9182633
374.6432715
397.143175
)
;
    }
    procBoundary0to2
    {
        type            processor;
        value           nonuniform List<scalar> 
31
(
305.1291344
310.6134604
314.0991518
309.8413431
323.2738976
323.8602164
321.8240518
330.8173519
332.3726859
332.1492731
333.6811259
341.6150036
349.8447874
360.2158662
355.3622325
354.6717635
347.470646
336.3654241
356.9806205
352.1173329
374.2919226
371.2141846
373.3730462
379.5511426
382.0098994
397.0556328
346.4219581
353.7742402
373.4777001
374.2919226
376.6971276
)
;
    }
}


// ************************************************************************* //
