/*--------------------------------*- C++ -*----------------------------------*\
  =========                 |
  \\      /  F ield         | OpenFOAM: The Open Source CFD Toolbox
   \\    /   O peration     | Website:  https://openfoam.org
    \\  /    A nd           | Version:  7
     \\/     M anipulation  |
\*---------------------------------------------------------------------------*/
FoamFile
{
    version     2.0;
    format      ascii;
    class       volScalarField;
    location    "0.005";
    object      internalE;
}
// * * * * * * * * * * * * * * * * * * * * * * * * * * * * * * * * * * * * * //

dimensions      [1 -1 -2 0 0 0 0];

internalField   nonuniform List<scalar> 
654
(
0.1364756964
0.5038895002
0.3301366579
0.2504452052
0.5972049333
0.2030197076
0.2394767063
0.5949125437
0.5902186948
0.5613148651
0.2224703865
0.5290032517
0.3774382916
0.4969172759
0.367295743
0.3356892901
0.4205280353
0.4351345321
0.1777184985
0.491821637
0.2490780732
0.5032867113
0.5374173557
0.28036057
0.6499641032
0.5591415947
0.4377215555
0.2562783876
0.3461203532
0.1542471207
0.1769841148
0.2368156338
0.2006026994
0.2746676977
0.1385920763
0.07931343413
0.4737381942
0.197285574
0.6805771871
0.6226846685
0.4113197632
0.3997715057
0.1751050951
0.2407491391
0.2419911097
0.5182718249
0.3608440289
0.6688421403
0.5213720598
0.5525867747
0.3677798348
0.3444369175
0.1995695706
0.8855527151
0.3833428398
0.5229477394
0.2191145424
0.3904126109
0.8081575662
0.3422427192
0.3737770257
0.352076367
0.275112194
0.7670793432
0.3737506329
0.06812320764
0.3137551341
0.5015206883
0.3909216003
0.2326572851
0.6697361279
0.4365776451
0.561777573
0.5039454516
0.5415913891
0.3454846589
0.4566835304
0.6066076474
0.6525180827
0.2982057835
0.2234137712
0.282551847
0.2671824079
0.7952973769
0.2595730264
0.3898249491
0.2135356027
0.3136165566
0.3256415343
0.3746835298
0.5429188346
0.3728301268
0.447847869
0.6407951763
0.465183238
0.6170273251
0.4750006784
0.449113329
0.7508189663
0.2845737116
0.30423668
0.5120839614
0.2771182963
0.6226736772
0.2516992532
0.4000930089
0.4364290878
0.3423390711
0.3812726801
0.5585760607
0.2608077915
0.259255399
0.5408464498
0.7394497045
0.6046254677
0.4098175065
0.2349401729
0.3755147385
0.5051680452
0.3905147063
0.3524329625
0.4224407353
0.2047086534
0.3105475066
0.7104177174
0.6638095751
0.09415348898
0.6587123765
0.6076277255
0.181836039
0.2358817687
0.6622363779
0.1908000964
0.6563729393
0.7858752972
0.1260232954
0.2301074476
0.5914832756
0.2994239081
0.7171912048
0.2984491611
0.5438312175
0.2008671186
0.679840379
0.73591856
0.3914994986
0.5316842619
0.2879139012
0.5442465287
0.582383303
0.08387541222
0.5744964281
0.2730149464
0.2906137107
0.485128127
0.3969185489
0.6151369255
0.3342513922
0.2135262219
0.2158145092
0.250296051
0.1973841387
0.4269603887
0.6142843012
0.2138389561
0.2600330506
0.3170494573
0.1881285012
0.3533103937
0.2431370745
0.351685459
0.2122653501
0.4113522598
0.2822477913
0.5386609591
0.4205376478
0.299542427
0.5250194861
0.3208115125
0.5124080127
0.2343020374
0.3003438419
0.3285724734
0.6513230657
0.4449673104
0.5518364325
0.3395708306
0.2750241699
0.3342954625
0.7967542977
0.8008552764
0.2583414832
0.480037065
0.4114812254
0.2177526967
1.071886697
0.266823543
0.3008528114
0.3932733498
0.4374455761
0.4918716528
0.5440705049
0.2520084737
0.8379632981
0.3378523626
0.2400930959
0.4499712405
0.243104526
0.7598736755
0.4256030714
0.1835056024
0.2454472021
0.4746356684
0.5027338769
0.8235172365
0.3743094161
0.6092090893
0.2189297843
0.7027796827
0.3533013665
0.4907907801
0.3218166437
0.2342823283
0.2526726395
0.4632511815
0.4157850324
0.2648759945
0.5620630593
0.4719675531
0.2885103537
0.2221322445
0.1688653543
0.2912828743
0.5171418202
0.08152556003
0.6200317951
0.2404117779
0.5421263547
0.611543342
0.4119245692
0.2686214703
0.466564797
0.4050941344
0.5569122695
0.260204782
0.6345663588
0.5508349515
0.7444260692
0.4020405968
0.5184321834
0.2407367152
0.4587198994
0.7289076141
0.7563866363
0.3897803469
0.585087587
0.2779173961
0.3986691904
0.4350023293
0.7699374643
0.2353223957
0.1247843965
0.4844046732
0.3375776178
0.1518642235
0.2777775584
0.242154999
0.7326624816
0.3264337393
0.4609378267
0.1829789233
0.09393098102
0.3175986289
0.1223158784
0.3074290395
0.4179667032
0.2949396858
0.9587109636
0.3033305522
0.6599469767
0.2420722729
0.412740876
0.3933422666
0.2959433865
0.3506517982
0.4940563303
0.7764427518
0.5712139664
0.1490013177
0.2855748724
0.2886751522
0.7695392285
0.5007825898
0.6920998804
0.5361599056
0.4237955892
0.3738383147
0.3103911622
0.5251068666
0.4138858991
0.2755174018
0.4345279753
0.245407213
0.3196037386
0.2281145292
0.4365570946
0.2783536459
0.3434382052
0.4409960484
0.8053555175
0.7484033053
0.3114914653
0.3563032568
0.08753372573
0.8735834804
0.5212481468
0.03542588495
0.2712824892
0.3026099937
0.4685181106
0.4841662495
0.3155138416
0.4129289849
0.2012331745
0.5132968902
0.7491660852
0.2876284237
0.128762245
0.3815132464
0.2984699368
0.2283144827
0.7751176999
0.5242870255
0.3438835221
0.6425920648
0.6657874359
0.3708638077
0.2063185685
0.6602701117
0.4956153882
0.333777729
0.5525393761
0.1486583566
0.394762298
0.280130188
0.4724302565
0.7100116063
0.6618262745
0.3023423926
0.429948856
0.1264890949
0.3779290569
0.7243619331
0.5642565976
0.3404274207
0.4856142181
0.3782449434
0.3048928441
0.7886665838
0.601081889
0.3456171104
0.2666338035
0.8194130814
0.3937825397
0.4110396892
0.2621222927
0.1616375272
0.2965969731
0.203488706
0.5838690495
0.3941578983
0.3246853672
0.5346647241
0.654033363
0.3195247848
0.353582943
0.5555620501
0.7410013259
0.4122456287
0.446716502
0.2210369048
0.1714748153
0.4180973849
0.3555290943
0.3896515359
0.5871844086
0.6109857627
0.5687910806
0.1292082055
0.3823167955
0.4158406208
0.5107561043
0.3307856832
0.1917235054
0.2685420603
0.7181868023
0.4003416981
0.3812800716
0.3491399832
0.2748378902
0.2596314525
0.558117043
0.3701407726
0.4316000274
0.3409620135
0.6385338085
0.2283450784
0.4938351172
0.1266277055
0.135984177
0.3726312505
0.6311821832
0.2813681256
0.6305495572
0.3822279901
0.381264141
0.1818527404
0.2791669886
0.7817360087
0.4852672444
0.1633012855
0.2205976853
0.8456045978
0.3676042117
0.6478479233
0.4776929955
0.2778637607
0.2858494172
0.7637960416
0.7578435529
0.4258740102
0.470617272
0.3273231051
0.4238250103
0.4217665169
0.3021953581
0.4382814787
0.5158282587
0.4274504841
0.1773072731
2.247830258
2.325931786
3.375801912
2.698332058
2.498549712
4.067593318
3.163086958
4.755453082
2.880856012
3.01486211
1.370905469
1.920140062
1.165898393
2.524692061
2.48694697
2.091833617
2.33371569
2.957358432
2.935929831
3.243280663
1.233866532
1.002083988
1.447175017
1.947096534
1.335893651
1.768444215
2.054499838
4.31006542
4.622149561
1.651930681
0.7804036178
1.807178649
1.00249471
0.3846885231
1.129780497
1.814317393
2.537372465
1.927246937
2.960070336
3.77579469
0.2221135156
0.4509748777
0.6896129552
1.123065075
1.331865095
2.453509261
1.74999079
0.8144633845
1.820048549
1.260721773
0.382361655
1.254319466
0.2306076926
1.995627267
0.7976896511
0.3599366832
1.007997456
1.331940653
1.714442142
1.92940862
0.2813146664
0.437481969
0.5385252032
0.6162962762
0.7708923581
0.2600284795
0.9698212389
1.309786664
0.8452557581
1.40415594
0.3103763694
0.4953668462
0.9646959509
0.3761343989
0.8320019166
0.6660665138
1.079071547
1.016347303
0.4857366365
1.504608961
0.1872838745
0.2820332901
0.2476982341
1.06425296
0.6336517898
1.122927955
0.7941699541
0.4137809683
0.7589092477
0.7081770646
0.41836243
0.5542383886
0.7152104584
0.5559823006
0.6080373151
0.4687177673
0.4164143164
0.7317379231
1.053418265
0.9788830125
0.4423395541
0.3405811464
0.3103529964
0.1884713748
0.6473372434
0.7332397046
0.3466586315
0.5441526215
0.8311682138
0.289717889
0.8871414699
0.5530613147
0.5302697503
0.5387692049
0.267621627
0.1790068359
0.6495771128
1.216140277
0.4159535253
0.5940807492
0.2276042256
0.3382365146
0.2907373416
0.3566916916
0.3954570375
0.7205155067
0.2327727913
0.4580542936
0.1885144836
0.4491241392
0.2227902389
0.06171116636
0.3224905613
0.4919693897
0.4138636265
0.2404270729
0.3206115278
0.963822076
0.5815362219
0.2849910577
0.68272838
0.4150763144
0.4964551077
0.6335616512
0.7841908859
0.8135551506
0.2575812401
0.4435499123
0.3448879151
0.4560760322
0.4821425107
0.6751228828
0.5011086565
0.4752907843
0.5568752314
0.4059962854
0.5835029682
0.6214728708
0.3641629018
0.1677743192
0.3301695389
0.371429358
0.3498075006
0.4196920506
0.3390959721
0.8361647221
0.1800183584
0.4659809505
0.3824412816
0.6473265577
0.1330140755
0.581140588
0.2418122872
0.3898676052
1.128965357
0.08640608264
0.4973779484
0.461927737
0.4845445557
0.5816556759
0.4784171212
0.3625463158
0.7072251331
0.46203363
0.03155573618
0.3184063345
0.3521923962
0.5895072572
0.236113286
0.487781486
0.7443708208
0.2187112407
0.3257093723
0.2127453178
0.2105221464
0.5421511561
0.7107996354
0.3487059889
0.5540592325
0.3208742895
0.4680925058
0.2040470138
0.5194690654
0.5943748283
0.2935439058
0.3564303196
0.2742578975
0.2854414981
0.4896850139
0.9238261804
0.4757067468
0.366197194
0.4972456692
0.4228423053
)
;

boundaryField
{
    flow
    {
        type            zeroGradient;
    }
    obstacle
    {
        type            calculated;
        value           nonuniform List<scalar> 10(7.007019855e-19 0 1.132966119e-19 2.222143891e-19 5.953253289e-20 1.928107691e-18 2.368232366e-19 5.461508524e-19 1.528632464e-19 4.022326245e-19);
    }
    frontAndBack
    {
        type            empty;
    }
    procBoundary0to1
    {
        type            processor;
        value           nonuniform List<scalar> 
21
(
2.877254656
2.959818622
2.165431453
1.742360094
1.917106266
1.732090743
2.160155485
1.066519362
1.123153032
0.5278519762
0.8663131631
0.3991432694
0.01412439094
0.8241540328
0.7372025871
0.5036099396
0.8350299889
1.323515747
0.8848594577
0.6003848385
0.3450052184
)
;
    }
    procBoundary0to2
    {
        type            processor;
        value           nonuniform List<scalar> 
31
(
0.1273995464
0.2458281063
0.0927340871
0.2567568161
0.3658992133
0.2980922634
0.3328964329
0.1881870211
0.5165184049
0.5768293947
0.3770863556
0.3321961182
0.6056361186
0.3271292318
0.2353764561
0.1021909211
0.2401207046
0.2779626832
0.4870644523
0.3238142381
0.3425656541
0.250941041
0.330099694
0.3949644624
0.5371464889
0.3082052671
0.2797418941
0.2031791668
0.281503364
0.3425656541
0.3701726906
)
;
    }
}


// ************************************************************************* //
