/*--------------------------------*- C++ -*----------------------------------*\
  =========                 |
  \\      /  F ield         | OpenFOAM: The Open Source CFD Toolbox
   \\    /   O peration     | Website:  https://openfoam.org
    \\  /    A nd           | Version:  7
     \\/     M anipulation  |
\*---------------------------------------------------------------------------*/
FoamFile
{
    version     2.0;
    format      ascii;
    class       volScalarField;
    location    "0.005";
    object      linearKE;
}
// * * * * * * * * * * * * * * * * * * * * * * * * * * * * * * * * * * * * * //

dimensions      [1 -1 -2 0 0 0 0];

internalField   nonuniform List<scalar> 
654
(
0.5475454831
0.3782852661
0.7428863153
0.5963585732
0.3216358195
0.6151660873
0.7922822102
1.127627022
0.4048786199
1.332289803
0.3185590517
0.5941179862
0.8503925123
0.5239584966
1.08740125
0.6215465709
0.9089814779
0.5193820071
0.5393157221
0.4453326873
0.7821472598
0.7285683416
0.866340272
0.540051573
0.3216162694
1.008426099
0.918154747
0.7520643249
0.515241183
0.7783826978
0.6023566385
0.3757759366
1.101795582
0.9208018789
0.927490249
0.6022867884
0.6270512458
0.6553030402
0.3564777662
0.6023448832
0.7221374664
0.6414141484
0.5064118691
1.003389912
0.4642545933
0.8838883066
0.3213972482
0.7923720017
0.6139577443
0.693096442
0.6208524745
0.5043686177
0.6123883712
0.619806997
0.3468192612
0.5992165648
0.6418198914
1.358904861
0.6395171176
0.1691754299
1.025609295
0.3459343821
0.6926705537
0.5382081326
0.713858685
0.9581464432
0.8413036217
0.5082373236
0.5138268396
0.5617709885
0.9521242464
0.4962864544
0.1094347596
0.3864837844
0.4413364737
0.8040502997
0.2783868403
0.9048724203
0.6987605668
0.1321423318
0.7975925649
0.1941296143
0.178991834
0.8298869373
0.2768622665
0.3236683278
0.5721555264
0.7177292293
1.392832128
0.7739733337
1.140071364
0.4635931699
0.2963083879
0.3861169522
0.4828030879
0.4343144073
0.8045781756
0.3209857119
0.6031565683
0.169793398
0.4812001811
0.8125685314
0.5136609805
0.6279483296
0.8551564574
0.5084628806
0.3885805109
0.2952850012
0.6682053161
0.5938428109
0.803244372
1.019567418
0.3371866369
0.3367215194
0.508663776
0.6674219609
0.591440937
0.7911957338
0.8781172052
0.6546536872
0.424698984
0.4639827548
0.1107227605
1.034058994
0.6423763865
0.5516172836
0.4343180767
1.228980088
0.5255772113
0.3391329746
0.3345364704
0.3853314503
0.7817292155
1.102064219
0.9106831727
0.4097765575
0.7949530356
0.47704096
0.7345959605
0.5849089091
0.5610912296
0.8493417814
0.4567343859
0.5880376765
1.236833509
0.1671778941
0.5343387185
0.7599281479
0.616657504
0.1532412436
0.7458228978
0.9638854823
1.000538967
0.9788616318
0.5797333992
0.5846525378
0.5145734507
2.172906351
0.7948755865
0.3666539592
0.7051763261
1.029459413
0.7169635392
0.9034790689
0.6621405794
0.1749475616
0.4791680439
0.5369740465
0.3515012856
0.6657044864
0.3952089821
1.115026412
0.5751167496
1.237292815
0.8713833821
0.7723963837
0.4531303875
0.6554082966
0.2615891165
0.5824592701
0.308559189
0.7526961103
0.5463198216
0.5069442233
0.2209632614
0.4062303021
0.6768755
0.773366784
0.5041592804
0.4455236391
1.019503682
0.4522945859
0.5060244716
0.4222142355
0.516100701
0.6582512494
1.143462408
0.7803314656
0.3025043976
0.2074012991
0.2310948759
0.3056672506
0.1282749829
0.952856787
0.8200925284
0.6174475596
0.5394305311
0.7731062171
0.4570372413
0.8242571986
0.3854509455
0.4406775484
0.4286363342
0.276671343
0.2397106409
0.6385843028
1.081575218
0.4451363732
0.887079456
0.6272178716
0.4692930648
0.9357481272
0.3602886742
0.4622941039
0.5657284747
1.16343849
1.194125736
0.6091876573
1.233519182
0.897804864
0.7610364293
0.533021701
0.3690777426
0.551093535
0.2463946283
0.8707330807
0.3296136659
0.3103667206
0.1974150413
0.7579057745
0.6180714581
0.3609563009
0.3625559917
1.452098991
0.8304052448
0.6722228833
0.8649757643
0.8910279478
0.6231067869
0.733991796
0.494877545
0.820001635
0.2420806969
0.4666345353
0.04769614218
0.5725556626
0.6355527157
0.5265981769
0.7948401735
0.638199727
0.6675756442
1.294238734
0.2983633908
0.6082235525
0.3974446262
0.9312292627
0.8646929617
1.059067269
0.5190966716
0.521045944
0.6264740636
0.3862039701
0.8287478171
0.5941799093
0.5213600266
0.5603836585
0.9581011753
1.019045905
0.4028762012
0.674284596
0.5175997883
0.2156439569
0.6347531348
0.7255900591
0.5208446964
0.5163644435
0.4642819724
0.603038589
1.725295619
0.1946420836
1.516600139
0.6112732028
0.4881102441
0.5918212427
0.7358028166
0.4878120682
0.6097891054
0.3636694401
0.6101269278
0.3698301524
0.6646727535
0.3287591841
0.4413755178
0.493518226
1.075453637
0.8352875668
0.3100755356
1.104449656
0.2957369626
0.5223682058
0.1745827038
0.8066199158
0.9615738495
0.7399722024
0.4780952846
0.8623070842
0.3905460665
0.9924965506
0.72317097
0.5646259403
0.7373104424
0.7750506239
0.2981265071
0.5085057651
1.140007131
0.4075915559
0.2356469546
0.8578761583
0.4600269296
0.6361072548
0.3092660548
1.27527252
1.074355213
0.8723651405
0.5750238524
0.7688619355
0.4526127613
0.562193289
0.424124268
0.5923398824
0.6622710535
0.8833552064
0.7383300039
0.8643944215
0.6365978769
0.2998910841
0.7108842921
0.9410614855
0.9098599253
0.3996973603
0.7110262729
0.7095564011
0.6283207242
0.5058866132
0.4325861037
0.1684266328
0.6377126087
0.9027698985
0.658161984
0.5734201932
0.9397967601
0.8624039025
0.753087413
0.6539255498
0.9810816688
0.2543332352
0.7053496993
1.317295169
0.2940003674
0.5365939428
0.6064582929
0.4830646913
0.968932045
0.479091083
1.059549669
0.3304777819
0.6300199102
0.9185998185
0.7142054705
0.6145549717
0.3199462135
0.7104586236
0.7019106766
0.6398305448
0.339988895
0.499563941
0.5687763681
0.2568220664
0.3584636986
0.3790710504
0.6063156133
0.4638678805
0.4545539901
1.013648417
0.3301459682
0.4210591078
0.3292982314
0.6765466941
0.4376509674
0.6673493618
0.5944632159
0.3682222102
0.9611991526
0.5322818279
0.7902718711
0.9844596726
0.4426330605
0.8225323879
1.078096866
0.5263748555
0.5531072722
0.542845769
0.2451116556
0.4638187132
1.194927601
0.6443695906
0.3275195398
1.379360205
0.5712226393
0.2946540415
0.5569144874
0.6422533468
0.7520669674
0.6578996448
0.420530848
0.2751466626
0.5312927417
0.6932122906
0.3799459604
1.293707192
0.5290395662
0.536458823
0.6278439208
0.8610853659
1.216770477
0.9488642119
0.4977745671
1.48119251
0.7053219315
1.104235109
1.199403762
1.560016122
0.5244740013
1.536386765
1.923438556
0.3768742483
0.1681872018
1.113987625
0.8879362037
0.5186543975
0.6370107432
0.5636128507
1.661843759
0.4094460601
1.181559477
1.050576759
0.7142289256
0.9652454677
0
0.6187088389
0.6921924685
0.569076125
0.4478452379
0.3378576897
0.8787124295
0.8108986145
0.5628507925
0.4023173583
1.02678611
0.5483015817
0.5039178687
0.2607880622
0.5509195462
0.4170695557
0.9185040319
0.2801222613
0.4648783098
0.1925305474
0.197270272
0.5555879114
0.7092708674
1.105536985
0.6297081139
0.6952425788
1.464428593
0.5296511024
0.9566613745
0.3102617992
0.1859751028
0.3069823502
0.2136826279
0.8055294984
0.6484381607
1.142472543
0.7007295104
0.3442115187
0.7068801495
0.6584112733
0.6136977346
0.1694223502
0.9666915806
0.6386109901
0.8471057272
0.7498587698
0.9493392331
1.129488195
0.4947217613
0.5775074566
0.7078792234
0.127802004
0.6010805045
0.6177522165
1.065365502
0.492029016
0.488957583
0.2859821801
0.7341099744
0.2850010677
0.4201209098
0.3114363071
0.1145104398
1.689086629
0.7041469421
0.6244039444
1.014909049
0.3342513505
1.166007089
0.4296038294
0.5705547067
1.138763908
0.2401678908
0.4851147496
0.6045515825
1.123426584
1.134830273
0.1517825376
0.415042398
0.7424482047
0.7446488314
0.7970017489
0.6676299302
0.1190743427
0.6375463655
0.6108130724
0.5825251298
1.461781386
0.1298248512
0.6008457865
0.7395169541
0.651437659
0.9035351906
0.5887174336
1.315832391
0.6275121411
0.4071257475
0.6695895714
1.158054024
0.08496657841
0.7443491904
0.2982089999
0.4045711757
0.5082133538
0.8287328758
0.5605164233
0.3635643257
0.2110975937
0.6920263386
0.4307397987
0.4148553723
0.1010017872
0.4031812445
0.4123095735
1.220329486
0.4251263792
0.8559105704
0.7042814898
0.1771029468
0.3482803093
0.5083515519
0.2484989779
0.3773435552
0.9369927288
0.873342006
0.3853538543
0.9310782885
0.7418171763
0.3889115182
0.9836313733
0.2749258696
0.6229447824
0.8823190771
0.793054927
0.3678460506
0.6762192416
0.4748680982
0.7855132236
0.5477508076
0.7563285023
0.8124638081
0.1837721273
0.1584376277
0.790207935
0.6042633566
0.7470831613
0.3588363502
0.7782269115
0.5442373844
0.3130544198
0.5534796021
0.2241296696
0.945914556
0.3988311958
0.9502892154
0.6576935
0.621849126
0.4184129241
0.7463173209
0.3774907372
0.6297221702
0.3424186986
1.070140338
0.3658290915
1.043364637
0.7067336469
0.706149136
0.3231160447
0.3166787375
0.7923736062
1.21913773
0.5498476382
0.4731217656
0.5525141085
0.7321443414
0.5137861806
0.7573444141
0.2558417375
0.4426271182
0.8213091371
0.1404314534
0.5448729258
0.4124431777
0.937981588
0.3123634102
0.5678833843
0.7934287764
0.2808059431
0.5550063411
0.2438179094
0.6352371868
0.8027761618
0.599667299
0.8691879904
0.5558474437
0.6128088092
)
;

boundaryField
{
    flow
    {
        type            zeroGradient;
    }
    obstacle
    {
        type            calculated;
        value           nonuniform List<scalar> 10(0 0 5.655071633e-19 1.143448739e-18 0 0 0 0 0 0);
    }
    frontAndBack
    {
        type            empty;
    }
    procBoundary0to1
    {
        type            processor;
        value           nonuniform List<scalar> 
21
(
0
0.744744672
0.7113898996
0.6659916821
0.6274161403
0.4183413209
1.208895048
0.7487372346
0.518458111
0.5923443879
1.193258689
0.7742056557
0.4540887681
0.4866614759
0.4020030545
0.1016947988
0.4673730474
0.4352648609
1.314071007
1.006138692
0.8154380061
)
;
    }
    procBoundary0to2
    {
        type            processor;
        value           nonuniform List<scalar> 
31
(
0.5874956273
0.8033705968
0.6173531352
0.1460641602
0.5946653976
0.2778190735
0.8223852503
0.4989217353
0.683563475
0.8866890907
0.2866953745
0.6037256679
0.5108885233
0.83498576
0.8528196922
0.6369308549
0.429115194
0.4093788267
0.6999108811
0.8584599788
0.8139165033
0.3554487688
0.4098620867
0.3582209988
0.3222830488
0.6775183856
0.5267536171
0.3273936662
1.101674659
0.8139165033
0.4625644584
)
;
    }
}


// ************************************************************************* //
