/*--------------------------------*- C++ -*----------------------------------*\
  =========                 |
  \\      /  F ield         | OpenFOAM: The Open Source CFD Toolbox
   \\    /   O peration     | Website:  https://openfoam.org
    \\  /    A nd           | Version:  7
     \\/     M anipulation  |
\*---------------------------------------------------------------------------*/
FoamFile
{
    version     2.0;
    format      ascii;
    class       volVectorField;
    location    "0.005";
    object      momentum;
}
// * * * * * * * * * * * * * * * * * * * * * * * * * * * * * * * * * * * * * //

dimensions      [1 -2 -1 0 0 0 0];

internalField   nonuniform List<vector> 
654
(
(0.0004475130188 0.0008340952682 -0.0001392013427)
(-5.81322698e-05 0.000232258687 -0.0004714460231)
(-0.0003560174986 -0.000832699934 0.0001072034457)
(-3.902056139e-05 -0.000578848641 0.0005674149182)
(0.0005414089074 -0.0002303230748 -5.666844236e-05)
(-0.0002072036072 -0.0001814532234 0.0002967273115)
(-0.0001796860052 -0.0006710928593 -0.001158191418)
(-7.307030597e-05 -0.0001846929651 0.0005487258011)
(0.0004960199654 -0.0007691898235 -0.0001142664023)
(-0.0003350964082 7.638635433e-05 7.86955637e-05)
(-0.0004499119786 -5.581868769e-05 -0.0002026435463)
(0.00104391203 -0.0006179441611 -0.0003654389006)
(0.0003937310288 4.958884155e-05 -0.000338557188)
(0.0003474093699 7.678059065e-05 8.435837109e-05)
(-0.0002388415271 4.127050113e-06 -0.0003848700957)
(-0.0002819283312 0.0001059198012 -9.072645899e-05)
(6.346235806e-05 -0.0002405300469 -0.0001489028938)
(-3.241712029e-05 -0.0002330038015 -3.11611042e-06)
(-5.524109255e-06 9.211370925e-05 5.468877036e-05)
(0.0003679465639 0.0004580523243 0.0005258757006)
(0.0005068872651 0.0004825723808 -0.0002176812607)
(0.000131543464 -0.0006952425099 5.214207169e-05)
(-0.0005092134178 9.440825312e-05 -0.001021677506)
(-0.0001345732566 -0.0004115947623 0.0004671589805)
(7.814305335e-05 0.0001802393622 0.0003654736447)
(-4.115434643e-05 0.0003104905677 0.0009746486435)
(-0.000288999807 -9.379980287e-05 0.0009761214152)
(0.0009229591337 -0.0005800290498 0.000438257147)
(0.000269360795 0.000556588409 -1.881872461e-05)
(-5.581539164e-05 6.710794847e-05 -0.0002995435656)
(0.0008640186214 0.0004228951969 -0.0003658663299)
(0.0001385691992 0.0001169950246 5.518527437e-05)
(0.0001449153617 0.0001649276277 -0.001068935154)
(-8.422155044e-05 -0.0003913689415 0.0004245124012)
(-0.0003255307859 0.0001693602554 0.0002117961937)
(-0.0003987518799 -2.409113814e-05 -0.0003363081738)
(-0.0006034727488 -0.00012985308 -0.0001228486953)
(0.000210904835 -0.0005381577963 0.0001633340362)
(0.0002365365652 0.0004182745835 -0.0004297525264)
(0.000605119164 -0.0008779992743 -0.0007469221363)
(-0.0002723511338 -0.0007629167941 -0.0003317309915)
(-0.0005286532719 -0.0002976168775 -5.312817572e-05)
(0.0001768314478 -5.776984493e-05 0.000206016253)
(-0.0005022434748 0.0004662559692 -0.001004003299)
(-0.000183729556 -0.0003695452862 -0.0005863355967)
(0.0006861973326 0.0001013061408 0.001342417646)
(0.0003373952155 -0.0002334459131 0.0003934796083)
(0.0003392214567 2.249349699e-05 0.0001949865858)
(-0.0006108870947 -0.0002583324824 0.0001741571503)
(0.0006886596778 -8.2222869e-05 0.0007060417284)
(0.0002773430445 -0.0002049246442 -0.0006575334557)
(-1.916623796e-05 0.0005319452719 -0.0003386571943)
(0.0007998570905 0.0001131400354 -0.0003579475743)
(4.013019968e-05 -0.0005967560645 3.782625094e-05)
(-0.0005137702683 -0.0001502892431 -0.0003638248901)
(0.0002951005532 0.0002219272044 0.0001137136609)
(-0.0001793368425 -0.0003733437607 0.000748840552)
(-0.001048869946 -0.0004617573708 8.405782067e-05)
(0.0003517391732 -0.0002007267887 -0.0006339899137)
(0.0001874181069 -0.0004315659749 5.527736232e-05)
(-0.000266268909 0.0002109759291 0.0005475847569)
(0.0001990923966 0.0005358045128 -0.0002066254319)
(-0.0002385063664 0.0003020653436 0.0003619911813)
(7.511863044e-05 -0.0003225676136 -4.64587794e-05)
(0.001233120707 0.0004393157347 -0.0007121852621)
(-0.0001766545129 -0.0003975804528 0.0003453006347)
(0.0003272620017 -0.0003972359986 -0.000489251421)
(0.0001083487325 -0.0008698694751 2.238418618e-05)
(0.0003557814433 0.000362628632 0.0003292967763)
(0.001043041339 0.0003182270886 0.0001089363557)
(0.0003078545875 0.0002275632511 -0.000420284292)
(0.0004778316571 -0.0006037788264 -0.0002967438232)
(-0.0001788883384 -0.0001303985774 0.0001805010982)
(-0.0003486349842 -0.0002456355369 -0.0002849570059)
(0.0004033222306 0.000319819129 -0.000358236358)
(-0.000304133403 -0.0001843329317 -0.0009829032763)
(7.949183405e-05 0.0003764688959 -0.000362519672)
(0.001041111753 0.0006166670173 -9.233971259e-05)
(0.0003126610085 -5.108727665e-06 0.0003361002707)
(0.0001072861825 -0.0002530302058 -0.0002951340369)
(0.0005734244694 -8.019513332e-05 -0.0006143212516)
(-7.763727262e-05 0.0002379686513 2.553713156e-05)
(0.0003562337989 8.732756815e-05 0.0003189245755)
(-0.0005273021628 0.0007144466866 -0.000126858908)
(-0.00055717483 -9.459924809e-05 0.0003967584107)
(-4.326742265e-05 7.057714537e-05 -0.0005551044427)
(-1.439977787e-05 -0.0003255275892 -1.265176274e-05)
(-1.940846717e-05 0.0006013157504 0.0003890345397)
(-0.0009146214876 -0.0009528601363 -0.0004125770763)
(0.0003338709738 -0.0007689913486 -0.0001381422562)
(-6.739235989e-07 -0.0005897665769 -0.001300096951)
(0.0006519761315 0.0001218220684 0.000553698471)
(-0.0002169678753 -0.0003627976195 5.647061524e-06)
(0.0003990692225 -0.0004077733121 -1.044100578e-05)
(0.0001733831831 -4.206422222e-05 -0.0004445777623)
(-0.0001914169376 0.0006139564011 -0.0004420591206)
(-0.000294486562 0.0001371036486 0.0004154982853)
(-0.0001518304111 0.0004551959601 -5.557743373e-05)
(-0.0002294999426 -4.275308574e-05 0.000107617127)
(0.0001111939669 5.111554322e-05 -0.0001217185118)
(0.0002997416224 -0.0001041599739 -0.000324483518)
(0.0002732664016 0.0002552810928 0.0009428328058)
(0.0005432584246 -0.0008147115283 0.0006128306502)
(0.000308264912 7.058792571e-05 -0.000120572484)
(0.0001057264924 -0.0001467437089 0.001272008285)
(-0.0003578498533 -0.000272165698 0.0003018912458)
(1.164940267e-05 -0.000204714631 -0.0004903214054)
(-0.0001094818254 -0.0002732472003 -1.159540747e-05)
(-0.0004853516353 -0.0004869352914 0.0005322247167)
(-0.0001188563916 -0.0005781489078 -0.0002457379975)
(-3.263043868e-05 0.0005204585126 -0.0006322073117)
(0.000434017622 -0.0001841584119 -0.0008871045902)
(-0.0001881889309 -0.0003833033867 0.0001360803671)
(0.0005508548739 -0.0003047868275 -0.0005318552212)
(-0.001015699332 0.0002406483835 -0.0001529904999)
(-0.0004312937349 0.0002746092185 -0.0004437911274)
(-0.0003763687717 0.0004651054345 0.0006900607073)
(-0.0003620361062 5.195962488e-05 0.0007092439194)
(0.0007995365899 -0.0003075372396 0.0001544361488)
(0.0002125582423 -7.820027445e-05 -7.288831147e-05)
(0.0003431870583 0.0003932988996 0.0005296688978)
(0.0005314470467 -0.0004754632415 -8.203100839e-05)
(9.365268038e-05 -0.0002382889768 -1.092066604e-05)
(-0.0001721127234 -0.0004008313031 0.0004614840398)
(-0.0003992319363 0.000192227324 0.0002602368383)
(3.974836418e-05 5.081917144e-05 0.0002650345157)
(8.719285907e-05 -0.0002773483318 0.0002464913445)
(-0.0009694324818 -0.001538756779 -0.0007256584027)
(1.655578587e-05 6.779732977e-05 -0.0001765983959)
(0.000220927495 5.316552067e-05 -0.0004405406394)
(9.014658888e-05 0.000193449311 -0.0002129767331)
(-0.0003844078826 4.53174707e-05 8.334328299e-05)
(-0.0003752546273 -7.297954731e-05 1.294584629e-05)
(-0.0002597701215 -0.000338448249 -9.55237601e-05)
(4.305350761e-05 -0.0003239667317 -0.0008442858218)
(-0.0007388131972 0.0004484642266 -0.0001302212454)
(-0.000236185404 0.0006800874761 -0.0001513124266)
(0.0002030701668 -0.0005832503204 0.0005049839078)
(0.0002368656542 -0.0008661565789 -4.510536473e-05)
(3.474210597e-06 0.0007629201837 3.424474739e-05)
(-6.075252099e-06 -0.0005692507307 0.0004023534878)
(-1.943830787e-05 -0.0004535516981 -2.324076315e-05)
(0.0001733039245 -0.0005037354582 -0.0004482819603)
(-0.0001996740439 -0.0006115847734 -0.0004885913102)
(-0.0004861342123 -0.0005837359557 0.0007049093343)
(6.883236764e-05 -0.0001620440074 0.0002815098816)
(0.0006757441172 0.0004357619961 -0.0005334011147)
(-0.0005167387041 0.0004047805861 -0.0001570537068)
(-0.0002594427309 -0.0007231304085 -0.0001047126198)
(0.0001360521785 -0.0002177057783 -0.0003339431452)
(0.0005886300765 -0.0002422141169 6.699584451e-05)
(-0.0005217924509 0.0004913832884 -0.0006599709032)
(-0.001273176514 9.956827313e-05 -0.0004683041957)
(-0.001773915833 0.0004728446789 -3.020949433e-05)
(0.0009104294685 0.0008775296895 0.0001359390825)
(3.247905294e-05 0.0002052711142 -0.0004225918149)
(0.0009107826535 -0.0002798869276 -0.0003874104014)
(-0.001197920396 0.002349899188 0.001205234329)
(0.0001266001059 0.000759088409 0.0002749878485)
(0.0003257634748 0.0001680766097 0.0007759410834)
(-0.00052083528 -6.05867726e-05 0.0008006038249)
(-0.0003471184397 -0.0004535327684 0.00104952997)
(-0.0005515596146 0.0002480327533 -0.0001420855337)
(0.0003722844087 0.0003493829958 9.157536627e-05)
(4.001542186e-05 -0.0002146101172 3.473227567e-05)
(-0.0002060747707 -5.44763252e-05 -0.000317724596)
(-0.0001853365062 0.0004027541717 -0.0004639755611)
(-0.0002486149334 0.0001022176065 -0.0006726746438)
(-0.0002949341567 0.0001626980199 0.0006087344013)
(-0.0003604538185 -0.0001784521073 0.0001768904868)
(0.0001056794766 -0.0002777440806 -0.000559745019)
(-0.0005443605873 0.000838006686 -1.599013701e-05)
(7.840821966e-05 0.0002371549473 0.0004241617053)
(0.0006922846956 0.0002708832024 -0.001095884473)
(-0.001306814521 -0.0004363499034 6.841892751e-05)
(-5.038791538e-05 0.0006417815175 -0.0002470731964)
(-0.0004080358843 -0.0002358166601 -6.277129134e-05)
(0.0002641278086 -1.350328277e-05 1.992949003e-05)
(0.0001137805263 -0.0002357367628 0.000580212079)
(-0.0007418291748 0.0004297121793 -0.0001956070691)
(-0.0001220781133 0.0002335556338 -0.0003390535896)
(0.0002430320092 -0.0002869321264 0.0002736631135)
(-0.0002925587134 -0.0004616325123 -0.0005009824457)
(-7.948870381e-05 -0.0006554527959 0.0009451740919)
(-9.631003546e-05 -6.231075212e-05 -0.0001243083734)
(0.0002002869261 0.0007544345988 9.54274208e-05)
(0.0002665019806 0.0003942477358 0.0002782700986)
(0.0007020404599 -0.0001575635975 3.486996739e-05)
(0.0004972015518 -0.0001003262872 4.835823396e-05)
(0.0005727890786 -0.0001201866609 6.605867155e-05)
(0.0005263671085 9.419403573e-05 0.001936180889)
(5.939183329e-05 0.0003388188259 -0.0002795945802)
(0.0005915158972 0.0005080487853 0.0002352660345)
(-0.0001721420856 -0.0003714554796 0.0001456043772)
(-7.185764637e-05 -0.0003138940261 -0.0008457183282)
(8.45113008e-06 9.512294184e-06 -0.0002815377591)
(-0.0005697542454 -0.000492760949 -0.0002189135484)
(-0.0005675955343 -0.0001203218528 -0.0003127336743)
(-0.000118678612 -0.0001931574282 -0.0003661669577)
(-0.000124423725 0.0004991244151 -1.386825475e-05)
(9.221897658e-05 0.0002901427163 -0.0004379217927)
(0.0006067068088 -0.0001149651455 -0.000386081952)
(-6.966754043e-06 0.0003618842621 0.0002186143355)
(-0.0002459094308 -0.0002941832374 -0.0006361258959)
(-0.0008425411228 6.778792969e-05 -0.0001440209292)
(-0.0001596201493 0.0003347188516 -0.0008707504361)
(-0.001228600235 0.0005667211869 -0.000150091421)
(0.0007141709395 -0.0001208549412 0.0003811235362)
(0.0004395387677 -0.0004033861659 -0.0001003171325)
(6.267059149e-05 0.0009273253107 -0.00017696184)
(5.194101513e-05 -0.0006033306625 0.0003975326082)
(0.0004937754024 0.0002356356044 -0.0005399821235)
(-9.396479835e-05 0.0001093186329 -0.000548723136)
(-0.0007106902954 0.0002763893945 2.742473244e-06)
(0.0004867189248 0.0002231984721 -5.130438903e-05)
(5.981522563e-05 2.458876775e-05 -0.0001348757249)
(-0.0003623997929 0.0001957679292 0.0004157685754)
(0.0005203223463 -0.0002429925008 0.0003991299875)
(0.0005092251116 -0.0001546947356 0.001465826863)
(0.0003471789644 -0.0003696274574 2.411233173e-05)
(0.0003609373013 0.0005006533203 -0.0003458479188)
(-0.0006137185941 -3.149465203e-05 -0.0005387713989)
(-0.0003781531137 -8.063652353e-05 0.0002069545572)
(0.0001020162649 -9.368108013e-05 9.336185151e-05)
(-3.419146058e-05 -2.480237301e-05 0.0002797057918)
(-1.721075333e-05 0.0001018584532 0.0004046726219)
(0.0006109685171 -0.0006998733862 0.0001723431897)
(-0.0005458725651 -0.0002937939612 -0.0006228189347)
(-0.0008174725031 0.0008494615242 0.0006270479622)
(-9.77455066e-05 0.000127988677 0.0009781814784)
(0.001603592143 -8.365640786e-05 0.000299133695)
(-0.0001398811995 -0.0005518118578 0.0006430895633)
(0.0001911072806 0.0002194516181 -9.292703136e-06)
(-0.000548708971 -0.0001686051407 0.0003522537879)
(-9.249204108e-05 0.0004849235823 -0.0004928152075)
(-0.0001202608635 -2.32199697e-05 -0.0005253016928)
(0.000195015223 6.067903285e-05 0.000114197526)
(-0.0005521389514 0.0006957170585 -0.0001024434587)
(0.0001541401301 0.0003450764238 -0.0003156405515)
(0.0001104422351 0.0009497879428 -0.0001487947718)
(0.0001850586945 0.0001717319257 0.001132686819)
(-0.0004803427873 0.0005663929431 -9.014614555e-05)
(-0.0002425911998 0.0001478591468 -6.284727571e-05)
(-0.0003995454848 -5.95227622e-05 -0.0009635294861)
(0.0003038369291 -8.352442979e-05 0.0002146316455)
(0.0001345892625 -0.001300080917 7.458947175e-05)
(-0.0008466730765 0.0001342339605 -0.001040564401)
(-0.0001278008962 0.000741079594 -5.843235849e-05)
(-0.0006148467242 0.0009521959574 0.000923196227)
(-9.197483289e-05 0.0009479138104 0.0002322121929)
(0.0002699713467 -0.0003785381164 -0.0004932411647)
(0.0001589888532 0.0001522971165 0.0003764590692)
(0.0006039931876 0.0002029072382 -0.0001835020417)
(-0.0001377959464 0.000311817007 -8.651679355e-05)
(-1.550139679e-05 -0.0001146339582 -0.000181142383)
(0.0003158654883 -1.470443495e-05 0.0007013167258)
(0.0005127545819 -0.0003880750884 0.0003764426142)
(-0.0001156228046 5.117493671e-05 0.0002255305692)
(-0.0003076352895 -0.0003027012866 -6.457225622e-05)
(-0.0001673465041 4.685629674e-05 -7.890635402e-05)
(-0.0005864494692 -0.0002347729258 -0.0003907749474)
(0.0009254374636 -0.0007160487778 0.001281216128)
(-0.000388146206 -0.0005151902183 0.000145987972)
(2.417364045e-05 -7.292760536e-05 -0.0007183350887)
(0.0005190690578 4.952979546e-05 -0.0003014646688)
(9.281158748e-05 -0.0004798699144 -0.0006620384099)
(0.0006404965272 -0.0008604762168 -0.0003864338715)
(0.000592560517 0.0006671657193 0.0009143465214)
(-0.0004232811893 -0.0002028497005 -0.0001776704759)
(-0.0002826780668 0.0009625874931 -0.0002116209435)
(0.0008238514049 -0.0001395972982 0.00059698077)
(-0.000476783158 4.852258709e-05 0.0002088411981)
(0.0003527158432 -0.0004681484519 -0.0004024252896)
(-0.000348494767 0.0002740119159 0.0002677180879)
(0.0004111065848 4.981025499e-05 0.0002010822595)
(-0.0004904103283 8.798061232e-05 0.000666666567)
(0.0006203872985 -0.0009559736705 -0.0001807566903)
(-0.001454092602 -0.001189334732 0.0004239817661)
(0.0008559050116 -0.0003271990006 7.162580585e-05)
(0.0002936646459 -0.0005037454872 0.0004578617603)
(0.0002212519884 0.0002403503263 -0.0004357469824)
(-0.0004280269394 -0.0004553811519 4.257153003e-05)
(0.0008535968058 0.0007783035697 -0.0001686906919)
(-0.0002993240045 -0.0003467342569 0.0009191245171)
(0.0002375920438 -0.0004104182448 -3.54535862e-05)
(0.0004783084986 0.000359419156 0.000267672041)
(0.0005317998434 4.545884559e-06 0.000140935808)
(-0.000510261411 0.0002267977632 0.0002213153788)
(0.0003028602044 0.0006566673637 0.001542527726)
(0.0003325517344 0.0006029678124 -9.371050581e-05)
(-0.0004943097638 -0.0001502231586 -0.000444046486)
(-0.0003861464971 0.0001078303357 -0.0002417800339)
(0.0005448821359 -0.000383712622 -1.958866219e-05)
(-0.0005595395239 0.0003447438483 0.0002565022853)
(0.0008470328244 -2.676970826e-06 -4.368594771e-06)
(0.0006135939521 -9.434714458e-05 -0.0006677827518)
(0.0001573665564 0.0005821878172 -7.815113019e-06)
(0.0005123556945 -6.254301369e-05 0.0003601042454)
(0.0001150801887 0.000105032317 -0.0002164281204)
(0.0002658224486 0.0002296949792 -0.0001421397598)
(-0.0001892648251 0.0008062979921 -0.0004302998355)
(-0.0004353741857 0.0002869528146 -8.897744582e-05)
(-0.0003442283692 9.219705291e-05 0.001241749958)
(-0.0002910369234 0.0002051008864 -0.0004971830026)
(-0.0001281842671 1.376228859e-05 -0.0007022379779)
(0.0003267166125 -0.0002397037777 -0.0006684133187)
(0.0004650850569 -0.0003571426432 -0.0002207294651)
(0.0003895606609 0.0001528557638 -0.0004329907781)
(-0.0001769004233 0.0001917371625 0.0003072446248)
(0.0002514404339 0.0003697978768 -5.312056923e-05)
(-0.0002602241612 -1.594522759e-05 8.894379956e-05)
(-0.001098123606 -0.0002364067864 0.0003908733305)
(0.0006951888608 5.456097758e-05 0.0008259000202)
(-0.0005525341886 0.0002060900856 -0.0004380392954)
(-0.0002625164258 -0.0005098950081 -0.0001869822623)
(0.00110832728 -7.83821054e-05 0.0003731222275)
(-0.0003149737776 4.086813387e-06 0.0001494817219)
(-0.0005894694766 0.000557494624 -0.000981052661)
(-0.0004597373671 -0.0007527633243 0.0004908879064)
(8.5484001e-05 -0.001147169875 0.0002857731829)
(0.0002824861818 0.0002945587072 -0.0005524136557)
(-0.0001279684354 -0.0003354906607 0.000483553378)
(0.0002786365791 0.0001913856303 -7.311251587e-05)
(0.000348676484 0.0005791005362 -7.876457254e-05)
(0.0004338102289 0.0002677538685 0.001416403885)
(0.0003145568142 0.0007450897964 0.0006534299905)
(-0.0002509108512 -0.0002665766764 -0.0002476990067)
(0.0001435393713 0.0006451201863 -0.0002853826163)
(-1.897519814e-05 -0.0006577151968 0.0003395213673)
(-0.0004191514206 2.846291176e-05 -0.000192387862)
(0.0001401611101 -0.0005407251431 -0.0002594294412)
(-0.0002116755211 0.0007703519318 -0.0006424981867)
(0.000683537264 -0.001092425166 -3.778323061e-05)
(-0.0005628773499 9.588367919e-05 0.0001920946908)
(-0.0002406203229 0.000112607503 -0.0004209386209)
(-0.0003057105889 0.0002614519963 1.943170478e-05)
(0.0003531963607 -0.0005831284072 0.0001402833939)
(0.0002793813033 -0.0004761994204 -0.0002399473201)
(0.0001741323192 0.000263414445 0.0006205934714)
(0.0007611416161 0.0001164053189 -0.0004226119888)
(-0.000639576126 -0.000127642066 -3.508843752e-05)
(-0.0002417796993 0.001410199913 0.0002392824367)
(2.067620107e-05 0.000287477761 0.000648885398)
(0.0002734108431 2.734397488e-05 -0.0007461609303)
(0.0001100129533 -9.037809637e-05 -0.0001752328984)
(-9.543919223e-05 0.000501175517 1.617001931e-05)
(7.060601144e-06 -0.0004815048683 9.50728539e-05)
(-0.0004475956002 0.0004738343513 0.0003693830807)
(-0.0004158124973 0.001467003544 0.0005572479321)
(-0.0001208261364 -0.0001567993214 -0.0006877348216)
(-0.0002679785282 0.0001574376754 -0.0004452810393)
(0.0003081807152 0.0001538419001 0.0007183891874)
(-0.0004032425517 0.000303649104 2.969320272e-05)
(0.000235244732 0.000101390441 -0.0003794434693)
(0.0005814762773 0.0003065585581 -5.549042384e-06)
(0.000280615305 9.416029551e-05 -0.0002203535548)
(-3.230750718e-05 0.0003535384192 -0.0003783553275)
(-0.000554580712 0.0002351868081 -0.001005189601)
(0.000431444562 -0.001074727659 0.0001366995556)
(-7.675211821e-05 -0.0001615163801 -5.452232585e-05)
(-0.0002356788453 -0.0003907265325 0.0006343743178)
(0.0001311210319 0.0001471436593 -0.0003378139174)
(-0.0007915413147 -0.0006154530059 0.0004551695602)
(-0.0006776004388 -0.0001362762384 0.0002299348658)
(0.00062900669 0.0003979787085 0.0009057645364)
(4.22822457e-05 9.466403452e-05 -0.0002753609669)
(0.000362048508 0.000252622843 -0.001051183878)
(0.0009465310543 -0.0002136461192 -0.001553960511)
(0.0005432795123 0.0001312856331 0.000538882654)
(0.0003701316246 -6.297189601e-05 0.0005925437436)
(-0.0005026918243 -0.0004112321026 0.0004147591676)
(-0.0002540116625 0.0001091212519 -0.0004683442966)
(0.0003194879089 -9.847100288e-05 0.0001208353713)
(0.0006773285964 -0.0001488373324 -9.796859942e-05)
(-0.0003265216051 -0.0007495069822 -0.0008128136409)
(0.0005732745506 0.0003606240763 0.0001646867209)
(0.0005295497709 0.0006682879544 -0.0003410269149)
(-0.0005180620923 -0.0002045264162 0.0005989381179)
(-0.0003885310839 5.380980441e-05 0.0003003397043)
(-0.0001700320048 0.0001370055628 -0.0007328657583)
(6.528369546e-05 -0.0007256131682 0.0003858900009)
(0.0001908808952 -0.0007364813176 8.925928297e-05)
(-7.179171057e-05 -0.0008815458031 -0.0005683798707)
(-0.0002326339836 -0.0003593858644 9.136284156e-05)
(-0.00055864773 0.000106056784 -0.000122837324)
(-0.0003074669926 0.0002754441643 -1.85991174e-05)
(-9.626153135e-05 0.0003781498343 0.0004054265524)
(-5.153589327e-05 0.0002095062431 0.0005494870879)
(-2.627833912e-05 0.0001035249887 0.0002483433234)
(8.8055525e-05 -0.0002286507144 0.0003562280018)
(0.0001360936173 0.0006275536763 0.0007891880003)
(-0.0002763559844 0.0005627264116 0.0004285609573)
(0.0007677966775 0.0003235392555 0.0001408720154)
(0.0005292446388 0.001107203425 -0.0002629575976)
(0.000233301286 -0.0002148945481 -0.0005288875201)
(0.0005586574952 0.000303681194 -0.000404509796)
(3.708884317e-05 -0.0004361706266 -7.737368842e-05)
(6.042107279e-05 0.0005116302235 0.0002140728834)
(0.001188509029 0.0002791230126 0.0002053312328)
(-0.0001871034928 7.896374509e-05 -0.0005597239287)
(-5.773138609e-05 -0.0003257559732 -0.0001868833682)
(0.0003244870582 0.0004546848519 0.0002207032191)
(-0.0007252680439 0.0002922657171 -6.307602845e-05)
(-5.058359197e-05 -0.0003486118701 -0.0007522425879)
(0.0009840009065 6.448754727e-06 -0.0005818629592)
(0.000184147498 -2.698358903e-05 0.0008382378151)
(0.0004221904361 -0.0005714188589 0.0003833596472)
(-0.0003954485816 -0.001011193244 -0.0005242572796)
(-0.0003675759478 0.0004319808122 0.0006415433243)
(4.667706738e-05 0.0003455389492 0.0003800456911)
(-8.679572268e-05 0.0002352859297 -0.0002172437228)
(-0.0005470066675 0.0002090789186 0.0001867856414)
(-0.0002764838638 1.588803851e-05 -0.0002913734229)
(-0.0007964854466 0.000355041104 2.230243769e-05)
(-0.000601601322 0.000195000144 0.0005782548589)
(-3.507986423e-05 -0.0003342195159 -0.0003524901105)
(0.0003135054768 -0.0005619690173 3.423880965e-05)
(-0.0004867293593 0.0001032730107 0.0001328477746)
(0.0002599535577 0.0001137312097 -0.0008359831401)
(0.0001525739235 -2.796544979e-05 -0.0003188868647)
(3.856528653e-05 0.0002445916471 -3.895125779e-05)
(-0.0003425150749 0.0004425135697 -9.342796494e-05)
(-0.0004928477272 0.00033201084 -0.0002625070969)
(-0.0004064604689 -8.282956867e-05 0.0004200101553)
(5.254080772e-05 1.109064835e-05 -0.0005704872984)
(-0.0004742542246 0.0002202108798 -0.0001818164137)
(-4.851406414e-06 -0.0001461244438 -0.000182449947)
(0.0005381407275 0.0002132891187 9.478015381e-05)
(0.0001304744664 -7.220348728e-08 -5.592715902e-05)
(-0.0002006286777 0.0006644616683 0.0006580864876)
(0.0004838687366 -0.0001810737139 -6.272918509e-05)
(-0.0006206730979 0.0003758805516 -0.0004788192819)
(0.0001502260608 -0.0001116580365 -2.274951374e-05)
(0.0006660022753 0.0009022162296 -0.0004014786129)
(0.0006092742825 8.54909209e-06 0.001199897897)
(-0.0004599752012 -0.0005167028921 -0.0002389243276)
(-0.000482591479 0.0009120531699 -0.0006502269649)
(-0.0006866346088 0.0005736149209 0.0007534072998)
(-0.0003695333228 0.0004436766077 0.0004906091573)
(0.0009775134055 -8.727696196e-05 -0.0005066387504)
(-0.0003891881748 0.0004327890576 1.792552889e-05)
(-0.001598623392 -0.0008670294669 0.0006435183363)
(0.0005881063819 0.0003872780737 0.0001955284614)
(-0.0003731107643 0.0007596829593 0.002375088617)
(-0.0009370170019 0.00104510826 -0.0007218289166)
(0.0003809677316 -9.472821887e-05 0.0003916622808)
(-0.0003237406209 -0.0002168893679 -0.0004323582591)
(-0.0007589921005 0.0001537131856 -0.0005383408358)
(-5.634982892e-05 -0.000788812667 -0.0005775363076)
(0.000226309981 -7.047799863e-05 0.0006345788538)
(-0.0004557021222 0.0006320303309 0.0005163469359)
(0.0003437445244 0.0004381802073 -0.0001767446832)
(0.0006386608101 0.001858692735 4.449651828e-05)
(-0.0006515179841 0.0005238082503 -0.0005833724098)
(-0.0005669091119 0.000303951815 0.0004575249135)
(-0.0005785162734 -0.0005478093412 0.0006236886479)
(-0.001114002768 -0.0001372781542 -0.0003715171838)
(0.0007730578338 0.001029370111 -0.0002371377306)
(0 0 0)
(-0.0004609913548 0.0001484923652 0.0001255577046)
(0.0003742589233 -0.000196762645 -0.0001788413255)
(8.956063658e-05 -0.0003795603509 -0.0002165970079)
(-0.0004490282713 -0.0001013341014 -0.0004714136854)
(4.446764649e-05 9.901499957e-05 -0.0002595675378)
(-0.0005529648715 0.0003976746168 0.0001005027457)
(-5.17873867e-05 0.0004056313126 -7.918755217e-05)
(-0.0001768281953 4.878585798e-05 -0.0002664110572)
(1.009051963e-05 -0.0003134427953 -4.729352819e-05)
(0.0001144324199 -0.0006562183956 -0.0002327781764)
(-0.0001117563792 0.0005739402229 -0.0007614268826)
(0.0003086898534 0.0001962376802 -0.0004566935887)
(0.0007694389317 0.0002219182877 0.0002715900781)
(0.0001448626527 -7.315044227e-05 0.0002703644372)
(-0.0003160322644 7.464884588e-05 0.0001462769608)
(-0.0004660393008 0.0002048747651 0.0003244141031)
(-0.0001417729334 -0.0002529794218 0.0004587953106)
(-0.0004810515788 -0.0003051249885 0.0004991510939)
(-0.0001347423086 9.703271162e-05 -0.0004326377518)
(0.0003589473391 -0.0002920521568 0.0001209937953)
(-0.0001684299988 0.0003988927499 0.0008708839063)
(1.536956892e-05 0.0001301042245 0.0003847444359)
(-0.001103807005 7.104644417e-05 -0.0004389236333)
(0.000418564426 -0.0002664374388 0.0005683683628)
(0.0004119417522 -9.83221743e-06 0.0002495008532)
(0.0002959867878 -0.0002562916216 -0.0006561134851)
(-1.157969524e-06 0.0004405172126 -0.0005310814496)
(-2.717021705e-05 0.00121349868 -0.0003869264435)
(5.359334324e-06 -0.0001211604154 -0.0005090657026)
(0.0002529357673 0.0001178043062 -0.000147908647)
(0.0005386058023 -5.115814579e-05 -0.0006692558946)
(-0.000430835684 -0.0005101822593 -1.803499473e-05)
(-0.0001626488775 6.34943414e-05 -0.001602467984)
(-0.0004434671424 -0.0007539061173 -0.0005949272885)
(-6.421486999e-05 -0.0003873633255 -0.0009131851327)
(0.000266519744 -0.0001016203892 0.0008548622734)
(0.000427273175 -0.0003430018463 0.0004007133925)
(0.0004463461295 -0.000879109224 -9.093763347e-05)
(-0.0008752574909 0.0009222227209 0.0001853550675)
(8.689570939e-05 0.0007718621309 0.0006601771691)
(-3.967565369e-05 -0.0001975426909 0.0002500576988)
(0.0008380453463 -0.00019709379 -0.0001610678212)
(6.276264709e-05 0.0004959833169 -0.0008684201499)
(0.0001045442659 5.805903048e-06 9.846078775e-05)
(0.001032685105 0.0007473402322 -0.0004749142875)
(-0.000478250575 0.001159890234 -0.0006779872714)
(-0.0005284450944 -0.0008029780001 -1.632090214e-05)
(-5.218392751e-05 -0.0001879078843 0.000487126492)
(-0.0001086267925 -0.0003719559014 -0.0002291679237)
(-0.0001621832846 -0.0001817499589 0.0007136808132)
(0.0003509290766 8.118208664e-07 0.0001460182752)
(0.0005230557802 -0.0004894310088 0.0007497248712)
(7.134157585e-05 -9.897847719e-05 3.971714018e-05)
(0.0004684722576 -0.0001296138947 -7.948064964e-05)
(0.000958194239 0.000242480877 -0.0001045815531)
(0.0004780779815 0.0001403891622 0.0002489387492)
(-0.0005134188491 -0.0002713521138 0.0001249326059)
(-0.000344452618 0.0009179206673 -5.287923847e-05)
(0.0004876281889 0.0004628045505 0.0005729055053)
(0.0006958917547 -0.0005063609687 -0.0002929563661)
(0.0005928630022 0.0001804276706 0.0004421408224)
(-4.792357553e-05 -0.0001852672506 -9.726393885e-05)
(0.00042239319 0.002034968553 0.0008757007266)
(-0.0004429699167 0.0003367401397 7.562963524e-05)
(-0.0002326818016 0.0003682028278 -0.0002621211728)
(-4.018070673e-05 0.0002887699505 -0.0002885913828)
(-0.0001760060324 5.699560542e-05 -0.0001996426009)
(0.0001558668362 0.0008748569525 0.0002983843659)
(0.0001215531155 -0.0006009188633 0.0003137915717)
(0.0001624452987 -0.0001056639712 6.090850426e-05)
(0.001641694838 -0.0003300756125 -0.0003533051188)
(9.306322485e-05 9.554508089e-05 -0.0001929998228)
(-0.0005382812662 0.0001604829777 -0.0003323555098)
(-0.0001586189608 -0.000236112874 -5.519576283e-05)
(9.203528328e-05 0.0007839638532 -0.0007717577484)
(7.095011087e-05 0.0005630077991 -0.0009003404109)
(0.0004794752639 7.011963005e-05 5.806318365e-05)
(-1.313466304e-05 4.375265133e-05 -0.0006965734082)
(-0.0005440179867 0.0004195696619 5.834437144e-05)
(0.000545290636 0.0004138465765 0.0004671831157)
(0.0002944236429 0.001300816937 -0.0009648991901)
(0.0009270865821 -3.14452405e-05 0.0003655482333)
(-0.0003588873422 -0.0001463290674 -2.793621189e-05)
(0.0003002280916 0.0003245655488 0.0002331283849)
(-0.0004893537486 -5.288568397e-06 0.000227618325)
(8.222051596e-05 0.000717421827 0.0002747846643)
(-0.0003591845716 -0.0005779936737 -0.0007268571912)
(-0.0001924378615 0.0001994007411 0.0001986123241)
(0.0002692941412 4.2055516e-05 3.32004554e-05)
(0.0007300427014 0.0006643955865 0.0001799924882)
(-0.0004269916914 -0.000596038147 0.0002345770849)
(-0.0008722399644 -0.0003576164275 -3.772947116e-05)
(0.0005747631885 0.0001571971971 0.0005977338901)
(9.584445046e-05 0.0009949263654 -0.0007596197211)
(-0.000427320662 0.0007620316877 9.283744478e-05)
(-2.646616113e-05 0.0003605635643 0.000228891587)
(0.0004567892716 0.0001522285727 -0.0001133410819)
(-0.0002454409975 -0.0001148696117 -0.0001129001409)
(0.0001196882557 -0.0003388789048 0.0001174727797)
(-0.0003297253508 0.0008729440921 0.001052622375)
(-1.29791766e-05 -0.0003523115163 0.0001358115305)
(0.0003336118405 0.0003145019592 -0.000169360378)
(-0.0001633557101 0.0003593414928 -0.0005599303507)
(-0.0003643917666 -0.0006786475609 -0.0003811961794)
(8.427079216e-05 -0.0009848938547 9.143272245e-05)
(0.0002194121967 0.0005856301478 0.0002218593335)
(-8.462990054e-05 -0.0002298381803 0.0003739074161)
(-0.0003428085916 5.092864459e-06 0.0001562686022)
(-0.0004909331925 -0.0004900111432 0.0001364888165)
(0.0005852736333 0.0001865392271 0.0006957441543)
(-0.0002188219081 -0.0001893055219 0.0001529821012)
(-0.0001103941278 0.000346721941 0.0002927145727)
(-0.0005415160909 -0.0001420930251 0.0002190113489)
(-0.0001781534255 -0.001320233748 0.0003074236609)
(0.0001467455394 -0.0004415962911 8.187108979e-05)