/*--------------------------------*- C++ -*----------------------------------*\
  =========                 |
  \\      /  F ield         | OpenFOAM: The Open Source CFD Toolbox
   \\    /   O peration     | Website:  https://openfoam.org
    \\  /    A nd           | Version:  7
     \\/     M anipulation  |
\*---------------------------------------------------------------------------*/
FoamFile
{
    version     2.0;
    format      ascii;
    class       volScalarField;
    location    "0.005";
    object      rhoM;
}
// * * * * * * * * * * * * * * * * * * * * * * * * * * * * * * * * * * * * * //

dimensions      [1 -3 0 0 0 0 0];

internalField   nonuniform List<scalar> 
654
(
5.049331109e-06
4.427198864e-06
5.811010928e-06
6.433143174e-06
4.01188862e-06
4.080829287e-06
5.464641352e-06
5.948892263e-06
4.080829287e-06
6.086773598e-06
4.427198864e-06
5.948892263e-06
6.086773598e-06
5.395700685e-06
6.917394084e-06
6.433143174e-06
4.01188862e-06
2.490195221e-06
3.389756375e-06
2.974446132e-06
3.52763771e-06
5.049331109e-06
4.634020865e-06
2.559135888e-06
3.52763771e-06
6.224654932e-06
5.948892263e-06
4.634020865e-06
4.911449774e-06
5.395700685e-06
4.980390442e-06
3.043386799e-06
6.433143174e-06
7.401644995e-06
5.464641352e-06
4.358258196e-06
6.01783293e-06
3.596578377e-06
2.074884977e-06
4.980390442e-06
2.905505464e-06
6.086773598e-06
3.458697042e-06
8.576968818e-06
3.389756375e-06
5.879951596e-06
3.458697042e-06
6.571024508e-06
4.427198864e-06
4.634020865e-06
4.911449774e-06
3.942947953e-06
4.496139531e-06
4.01188862e-06
2.490195221e-06
4.01188862e-06
4.427198864e-06
6.571024508e-06
4.634020865e-06
9.685018214e-07
5.602522687e-06
4.080829287e-06
6.01783293e-06
3.874007286e-06
5.879951596e-06
6.571024508e-06
5.879951596e-06
2.974446132e-06
4.01188862e-06
4.911449774e-06
5.464641352e-06
4.496139531e-06
2.143825645e-06
4.427198864e-06
2.559135888e-06
3.458697042e-06
2.905505464e-06
4.980390442e-06
2.974446132e-06
9.685018214e-07
5.049331109e-06
2.421254554e-06
1.937003643e-06
4.149769955e-06
4.01188862e-06
2.905505464e-06
4.565080198e-06
5.464641352e-06
8.854397727e-06
4.980390442e-06
7.470585662e-06
2.974446132e-06
3.181268133e-06
2.974446132e-06
4.080829287e-06
3.52763771e-06
4.565080198e-06
2.490195221e-06
3.874007286e-06
1.937003643e-06
3.942947953e-06
6.917394084e-06
3.942947953e-06
4.980390442e-06
5.326760018e-06
5.118271776e-06
3.458697042e-06
4.080829287e-06
3.389756375e-06
4.01188862e-06
4.980390442e-06
6.502083841e-06
3.458697042e-06
3.043386799e-06
3.043386799e-06
4.427198864e-06
4.01188862e-06
3.596578377e-06
5.740404021e-06
3.389756375e-06
4.496139531e-06
4.01188862e-06
9.685018214e-07
6.986334752e-06
3.942947953e-06
4.496139531e-06
2.00594431e-06
5.395700685e-06
3.596578377e-06
4.565080198e-06
2.905505464e-06
2.00594431e-06
4.496139531e-06
5.879951596e-06
5.395700685e-06
3.942947953e-06
4.842509107e-06
2.421254554e-06
4.980390442e-06
3.874007286e-06
3.942947953e-06
4.565080198e-06
4.634020865e-06
2.974446132e-06
5.671463354e-06
3.458697042e-06
3.043386799e-06
4.980390442e-06
4.980390442e-06
1.521693399e-06
4.427198864e-06
5.948892263e-06
5.53358202e-06
4.980390442e-06
4.496139531e-06
3.043386799e-06
6.571024508e-06
7.53952633e-06
4.911449774e-06
2.421254554e-06
4.01188862e-06
5.464641352e-06
6.639965176e-06
4.496139531e-06
6.433143174e-06
4.358258196e-06
4.01188862e-06
3.596578377e-06
3.942947953e-06
4.427198864e-06
3.942947953e-06
6.502083841e-06
2.974446132e-06
6.086773598e-06
4.980390442e-06
4.980390442e-06
4.01188862e-06
1.937003643e-06
1.590634067e-06
2.974446132e-06
1.937003643e-06
6.848453417e-06
1.937003643e-06
5.464641352e-06
2.421254554e-06
4.980390442e-06
4.911449774e-06
5.118271776e-06
4.080829287e-06
3.112327466e-06
5.879951596e-06
2.490195221e-06
4.149769955e-06
3.596578377e-06
2.974446132e-06
4.01188862e-06
5.948892263e-06
4.01188862e-06
2.559135888e-06
2.00594431e-06
3.52763771e-06
2.421254554e-06
2.00594431e-06
6.77951275e-06
6.571024508e-06
2.559135888e-06
3.043386799e-06
3.52763771e-06
3.596578377e-06
4.427198864e-06
3.52763771e-06
2.490195221e-06
3.596578377e-06
2.00594431e-06
3.043386799e-06
2.490195221e-06
4.496139531e-06
3.043386799e-06
4.427198864e-06
2.905505464e-06
4.565080198e-06
6.77784651e-06
1.452752732e-06
2.974446132e-06
4.080829287e-06
6.502083841e-06
4.980390442e-06
3.942947953e-06
9.614411307e-06
4.980390442e-06
4.080829287e-06
5.049331109e-06
2.421254554e-06
4.01188862e-06
2.559135888e-06
4.911449774e-06
4.01188862e-06
1.937003643e-06
2.421254554e-06
5.811010928e-06
6.986334752e-06
3.389756375e-06
3.043386799e-06
7.470585662e-06
4.496139531e-06
3.874007286e-06
4.427198864e-06
5.187212443e-06
5.464641352e-06
5.049331109e-06
4.080829287e-06
4.358258196e-06
1.037442489e-06
3.389756375e-06
4.842509107e-07
3.942947953e-06
3.52763771e-06
4.01188862e-06
4.01188862e-06
4.980390442e-06
5.879951596e-06
7.53952633e-06
2.559135888e-06
4.911449774e-06
4.634020865e-06
4.980390442e-06
6.502083841e-06
5.811010928e-06
4.01188862e-06
3.874007286e-06
4.911449774e-06
3.112327466e-06
6.01783293e-06
2.490195221e-06
3.458697042e-06
3.52763771e-06
7.055275419e-06
4.980390442e-06
2.00594431e-06
5.464641352e-06
5.049331109e-06
2.905505464e-06
4.080829287e-06
5.395700685e-06
4.01188862e-06
4.911449774e-06
3.043386799e-06
6.433143174e-06
7.124216086e-06
1.937003643e-06
5.326760018e-06
3.112327466e-06
5.118271776e-06
3.458697042e-06
3.52763771e-06
3.942947953e-06
4.980390442e-06
1.037442489e-06
4.634020865e-06
4.01188862e-06
4.01188862e-06
3.389756375e-06
4.427198864e-06
4.565080198e-06
7.470585662e-06
5.464641352e-06
3.181268133e-06
4.911449774e-06
2.074884977e-06
4.358258196e-06
2.490195221e-06
3.112327466e-06
5.118271776e-06
6.01783293e-06
2.490195221e-06
4.634020865e-06
3.874007286e-06
3.874007286e-06
5.671463354e-06
2.559135888e-06
4.565080198e-06
5.464641352e-06
4.149769955e-06
4.842509107e-06
6.155714265e-06
3.52763771e-06
2.697017223e-06
5.879951596e-06
3.596578377e-06
5.049331109e-06
1.452752732e-06
7.608466997e-06
4.080829287e-06
4.702961533e-06
2.559135888e-06
3.874007286e-06
2.421254554e-06
4.634020865e-06
3.112327466e-06
3.52763771e-06
6.639965176e-06
3.942947953e-06
4.427198864e-06
6.224654932e-06
4.496139531e-06
2.421254554e-06
4.427198864e-06
5.049331109e-06
6.433143174e-06
2.559135888e-06
3.942947953e-06
4.080829287e-06
3.112327466e-06
4.911449774e-06
1.590634067e-06
1.037442489e-06
4.911449774e-06
5.879951596e-06
3.458697042e-06
4.702961533e-06
7.677407664e-06
4.565080198e-06
6.917394084e-06
3.942947953e-06
6.502083841e-06
2.490195221e-06
5.118271776e-06
6.708905843e-06
2.905505464e-06
5.464641352e-06
3.52763771e-06
5.53358202e-06
4.358258196e-06
4.911449774e-06
5.602522687e-06
3.112327466e-06
2.559135888e-06
7.124216086e-06
5.118271776e-06
2.421254554e-06
4.01188862e-06
6.986334752e-06
4.427198864e-06
4.01188862e-06
3.389756375e-06
3.458697042e-06
4.427198864e-06
9.685018214e-07
2.974446132e-06
4.149769955e-06
3.52763771e-06
4.080829287e-06
2.559135888e-06
6.433143174e-06
3.874007286e-06
2.559135888e-06
4.496139531e-06
3.942947953e-06
2.905505464e-06
3.52763771e-06
4.496139531e-06
3.458697042e-06
5.879951596e-06
5.464641352e-06
5.395700685e-06
5.53358202e-06
2.00594431e-06
4.427198864e-06
7.263763661e-06
4.565080198e-06
3.389756375e-06
5.53358202e-06
1.452752732e-06
3.942947953e-06
6.639965176e-06
5.53358202e-06
2.490195221e-06
5.53358202e-06
3.043386799e-06
2.490195221e-06
4.01188862e-06
2.974446132e-06
3.942947953e-06
4.980390442e-06
4.080829287e-06
1.937003643e-06
4.427198864e-06
4.496139531e-06
4.911449774e-06
7.401644995e-06
4.565080198e-06
2.628076555e-06
4.01188862e-06
3.942947953e-06
4.427198864e-06
7.124216086e-06
4.01188862e-06
5.948892263e-06
3.52763771e-06
7.470585662e-06
4.164486102e-06
5.452068207e-06
4.22215353e-06
4.606458564e-06
5.138416215e-06
1.509445712e-06
1.085604034e-06
3.645218649e-06
3.303865276e-06
4.216059536e-06
4.373713697e-06
2.516209661e-06
4.011723977e-06
2.055162943e-06
6.279904463e-06
3.665302084e-06
3.112529857e-06
2.624487185e-06
2.459795308e-289
3.180473627e-06
3.054179428e-06
3.494829175e-06
3.096471962e-06
1.984530721e-06
3.568440103e-06
3.233784555e-06
3.547120187e-06
3.062194399e-06
3.598367622e-06
2.736396573e-06
2.984994279e-06
2.026899904e-06
3.729455933e-06
2.125795164e-06
3.639568225e-06
2.65900494e-06
2.026925822e-06
1.5310972e-06
1.028105035e-06
2.662680672e-06
3.054179428e-06
5.452068205e-06
3.941580792e-06
4.039693666e-06
4.996159966e-06
3.522039996e-06
2.243349192e-06
1.020731466e-06
1.615340944e-06
1.553378864e-06
2.013057902e-06
4.962758448e-06
2.463487993e-06
5.102591243e-06
3.211080356e-06
3.090522465e-06
3.691402431e-06
3.790535685e-06
3.084315102e-06
1.627094765e-06
6.108358855e-06
3.494829175e-06
2.463487995e-06
4.180958111e-06
5.209544347e-06
5.246378841e-06
4.125992768e-06
3.645218652e-06
3.157498495e-06
1.109301809e-06
2.429840942e-06
4.123460681e-06
3.096471964e-06
2.621927844e-06
2.71146436e-06
2.65900494e-06
4.198133892e-06
2.697145705e-06
2.570262587e-06
3.845698382e-06
1.943872754e-06
3.425168302e-06
4.011723974e-06
3.614193206e-06
3.996927973e-06
3.162153511e-06
3.040388731e-06
3.280169957e-06
3.744734403e-06
4.289775436e-06
2.568211241e-06
3.00551942e-06
3.941580792e-06
5.598723927e-06
6.566136079e-06
1.14955923e-06
2.026925822e-06
3.280169957e-06
3.817917794e-06
2.662680672e-06
3.956930656e-06
1.467929272e-06
3.589169561e-06
3.047428303e-06
3.211080358e-06
5.103116749e-06
1.664476612e-06
4.155584382e-06
4.331970311e-06
3.106757727e-06
4.65045429e-06
4.123460681e-06
6.475211972e-06
5.243855688e-06
2.498079982e-06
3.59367104e-06
5.790469402e-06
1.603755729e-06
4.11242016e-06
2.292319528e-06
3.609332764e-06
3.005519426e-06
6.122800764e-06
2.055162943e-06
3.710696339e-06
1.581076753e-06
3.691402428e-06
2.041462915e-06
2.056210061e-06
1.627094764e-06
4.095300939e-06
3.494829154e-06
5.630103102e-06
3.188692737e-06
3.568440103e-06
6.684193491e-06
5.067314528e-07
2.624487182e-06
2.716629357e-06
2.736396553e-06
2.568211253e-06
4.053799817e-06
4.574564758e-06
2.125795173e-06
5.28067251e-06
5.246378863e-06
3.691402441e-06
4.665950144e-06
1.542157557e-06
3.106757727e-06
5.067237323e-06
3.494829185e-06
1.478092806e-06
2.551295632e-06
4.0680561e-06
4.168450672e-06
3.619261318e-06
4.228242869e-06
5.800944448e-06
1.627094764e-06
2.499026087e-06
6.080699684e-06
3.026328756e-06
4.606458551e-06
3.068824107e-06
4.168450643e-06
2.750080652e-06
2.6244872e-06
3.671551023e-06
1.553378863e-06
7.983046449e-06
3.005519426e-06
4.504421603e-06
5.243855673e-06
2.640336219e-06
2.730635979e-06
4.198133868e-06
2.624487182e-06
3.671551023e-06
2.588964772e-06
5.622390697e-06
2.026899908e-06
4.714851128e-06
3.684825441e-06
6.137648213e-06
3.665302074e-06
2.026925825e-06
5.176315844e-06
6.241813573e-06
3.698266608e-06
2.429840939e-06
4.12346069e-06
5.419673585e-06
3.614193194e-06
5.209544347e-06
2.515742865e-06
3.691402441e-06
7.363095812e-06
1.542157557e-06
3.327905427e-06
3.678517908e-06
6.150360557e-06
2.04093358e-06
3.047428314e-06
3.63956823e-06
1.72433884e-06
4.704865354e-06
2.114121464e-06
4.185603542e-06
4.289775436e-06
2.984994275e-06
4.053799789e-06
2.463487993e-06
2.551295632e-06
)
;

boundaryField
{
    flow
    {
        type            zeroGradient;
    }
    obstacle
    {
        type            calculated;
        value           nonuniform List<scalar> 10(2.225073859e-308 2.225073859e-308 4.65414122e-24 2.915988544e-24 2.225073859e-308 2.225073859e-308 2.225073859e-308 2.225073859e-308 2.225073859e-308 2.225073859e-308);
    }
    frontAndBack
    {
        type            empty;
    }
    procBoundary0to1
    {
        type            processor;
        value           nonuniform List<scalar> 
21
(
2.495854457e-289
2.160609114e-06
3.278041777e-06
3.725373785e-06
2.682197336e-06
2.68219734e-06
5.364394673e-06
4.172705793e-06
3.651117571e-06
2.60794112e-06
2.756453552e-06
3.352298005e-06
4.321218212e-06
2.607941113e-06
3.799630017e-06
1.117432661e-06
4.246961997e-06
3.799630017e-06
6.630339798e-06
5.364394658e-06
5.960239139e-06
)
;
    }
    procBoundary0to2
    {
        type            processor;
        value           nonuniform List<scalar> 
31
(
2.974446132e-06
4.980390442e-06
5.049331109e-06
1.521693399e-06
2.974446132e-06
2.559135888e-06
5.602522687e-06
4.565080198e-06
2.559135888e-06
6.01783293e-06
2.490195221e-06
3.942947953e-06
3.942947953e-06
5.53358202e-06
4.911449774e-06
4.496139531e-06
3.52763771e-06
4.149769955e-06
3.043386799e-06
5.53358202e-06
4.70992835e-06
2.515742848e-06
2.605798387e-06
2.624487182e-06
3.744734414e-06
3.327905427e-06
3.887745502e-06
3.494829185e-06
4.644707943e-06
4.70992835e-06
2.551295614e-06
)
;
    }
}


// ************************************************************************* //
