/*--------------------------------*- C++ -*----------------------------------*\
  =========                 |
  \\      /  F ield         | OpenFOAM: The Open Source CFD Toolbox
   \\    /   O peration     | Website:  https://openfoam.org
    \\  /    A nd           | Version:  7
     \\/     M anipulation  |
\*---------------------------------------------------------------------------*/
FoamFile
{
    version     2.0;
    format      ascii;
    class       volScalarField;
    location    "0.005";
    object      rhoN;
}
// * * * * * * * * * * * * * * * * * * * * * * * * * * * * * * * * * * * * * //

dimensions      [0 -3 0 0 0 0 0];

internalField   nonuniform List<scalar> 
654
(
7.289798656e+19
1.457959731e+20
9.372598272e+19
7.289798656e+19
1.041399808e+20
6.248398848e+19
6.248398848e+19
1.35381975e+20
1.24967977e+20
1.666239693e+20
5.20699904e+19
1.24967977e+20
8.331198464e+19
1.24967977e+20
6.248398848e+19
8.331198464e+19
1.24967977e+20
1.35381975e+20
8.331198464e+19
1.770379674e+20
6.248398848e+19
1.041399808e+20
1.457959731e+20
9.372598272e+19
1.24967977e+20
1.24967977e+20
9.372598272e+19
9.372598272e+19
1.145539789e+20
6.248398848e+19
9.372598272e+19
7.289798656e+19
7.289798656e+19
7.289798656e+19
7.289798656e+19
3.124199424e+19
1.041399808e+20
6.248398848e+19
1.24967977e+20
8.331198464e+19
8.331198464e+19
9.372598272e+19
8.331198464e+19
6.248398848e+19
5.20699904e+19
9.372598272e+19
1.145539789e+20
1.145539789e+20
1.145539789e+20
1.041399808e+20
1.145539789e+20
1.145539789e+20
7.289798656e+19
9.372598272e+19
8.331198464e+19
7.289798656e+19
5.20699904e+19
1.041399808e+20
1.35381975e+20
9.372598272e+19
8.331198464e+19
7.289798656e+19
8.331198464e+19
1.562099712e+20
9.372598272e+19
4.165599232e+19
9.372598272e+19
1.770379674e+20
1.35381975e+20
4.165599232e+19
1.457959731e+20
9.372598272e+19
1.041399808e+20
9.372598272e+19
1.041399808e+20
9.372598272e+19
8.331198464e+19
1.35381975e+20
1.770379674e+20
8.331198464e+19
9.372598272e+19
8.331198464e+19
9.372598272e+19
1.24967977e+20
8.331198464e+19
9.372598272e+19
7.289798656e+19
7.289798656e+19
8.331198464e+19
1.35381975e+20
1.145539789e+20
8.331198464e+19
9.372598272e+19
1.666239693e+20
1.145539789e+20
1.562099712e+20
1.666239693e+20
1.145539789e+20
1.24967977e+20
7.289798656e+19
8.331198464e+19
8.331198464e+19
9.372598272e+19
9.372598272e+19
6.248398848e+19
1.457959731e+20
1.145539789e+20
1.041399808e+20
9.372598272e+19
9.372598272e+19
7.289798656e+19
5.20699904e+19
1.041399808e+20
1.666239693e+20
1.24967977e+20
9.372598272e+19
1.24967977e+20
1.145539789e+20
9.372598272e+19
1.041399808e+20
8.331198464e+19
1.041399808e+20
9.372598272e+19
8.331198464e+19
1.35381975e+20
1.562099712e+20
6.248398848e+19
1.041399808e+20
1.145539789e+20
8.331198464e+19
9.372598272e+19
1.562099712e+20
6.248398848e+19
1.24967977e+20
1.24967977e+20
6.248398848e+19
9.372598272e+19
1.35381975e+20
1.145539789e+20
1.35381975e+20
9.372598272e+19
1.35381975e+20
6.248398848e+19
1.666239693e+20
1.562099712e+20
1.041399808e+20
1.35381975e+20
1.041399808e+20
8.331198464e+19
1.562099712e+20
7.289798656e+19
1.457959731e+20
7.289798656e+19
8.331198464e+19
7.289798656e+19
9.372598272e+19
1.24967977e+20
1.145539789e+20
6.248398848e+19
9.372598272e+19
4.165599232e+19
9.372598272e+19
1.145539789e+20
1.145539789e+20
3.124199424e+19
6.248398848e+19
9.372598272e+19
8.331198464e+19
1.145539789e+20
7.289798656e+19
1.145539789e+20
7.289798656e+19
8.331198464e+19
8.331198464e+19
1.145539789e+20
5.20699904e+19
1.041399808e+20
1.457959731e+20
5.20699904e+19
1.24967977e+20
7.289798656e+19
1.145539789e+20
7.289798656e+19
1.145539789e+20
9.372598272e+19
9.372598272e+19
7.289798656e+19
8.331198464e+19
8.331198464e+19
1.24967977e+20
1.35381975e+20
1.24967977e+20
9.372598272e+19
1.145539789e+20
8.331198464e+19
1.145539789e+20
6.248398848e+19
8.331198464e+19
6.248398848e+19
1.145539789e+20
9.372598272e+19
9.372598272e+19
1.145539789e+20
1.145539789e+20
1.145539789e+20
8.331198464e+19
1.041399808e+20
9.372598272e+19
1.24967977e+20
5.20699904e+19
7.289798656e+19
7.289798656e+19
1.145539789e+20
1.145539789e+20
1.041399808e+20
1.041399808e+20
1.145539789e+20
6.248398848e+19
1.041399808e+20
1.35381975e+20
8.331198464e+19
1.041399808e+20
7.289798656e+19
9.372598272e+19
7.289798656e+19
1.24967977e+20
8.331198464e+19
1.041399808e+20
1.041399808e+20
1.041399808e+20
5.20699904e+19
6.248398848e+19
9.372598272e+19
1.457959731e+20
5.20699904e+19
8.331198464e+19
7.289798656e+19
9.372598272e+19
1.145539789e+20
1.145539789e+20
6.248398848e+19
1.145539789e+20
1.041399808e+20
1.24967977e+20
7.289798656e+19
1.24967977e+20
9.372598272e+19
1.457959731e+20
1.041399808e+20
1.457959731e+20
1.145539789e+20
9.372598272e+19
1.35381975e+20
1.041399808e+20
1.041399808e+20
1.562099712e+20
7.289798656e+19
1.145539789e+20
1.041399808e+20
1.35381975e+20
6.248398848e+19
9.372598272e+19
1.145539789e+20
8.331198464e+19
5.20699904e+19
9.372598272e+19
5.20699904e+19
1.145539789e+20
7.289798656e+19
9.372598272e+19
6.248398848e+19
5.20699904e+19
9.372598272e+19
4.165599232e+19
1.145539789e+20
1.145539789e+20
7.289798656e+19
1.145539789e+20
1.041399808e+20
9.372598272e+19
8.331198464e+19
1.24967977e+20
9.372598272e+19
1.145539789e+20
1.24967977e+20
8.331198464e+19
1.041399808e+20
1.457959731e+20
8.331198464e+19
8.331198464e+19
9.372598272e+19
1.041399808e+20
1.35381975e+20
9.372598272e+19
1.145539789e+20
7.289798656e+19
9.372598272e+19
8.331198464e+19
1.770379674e+20
1.35381975e+20
9.372598272e+19
1.041399808e+20
6.248398848e+19
9.372598272e+19
9.372598272e+19
1.666239693e+20
6.248398848e+19
1.041399808e+20
1.041399808e+20
1.24967977e+20
9.372598272e+19
1.041399808e+20
1.041399808e+20
4.165599232e+19
1.24967977e+20
1.35381975e+20
2.082799616e+19
8.331198464e+19
6.248398848e+19
1.24967977e+20
6.248398848e+19
1.24967977e+20
1.24967977e+20
5.20699904e+19
1.35381975e+20
1.35381975e+20
9.372598272e+19
6.248398848e+19
1.041399808e+20
6.248398848e+19
6.248398848e+19
1.145539789e+20
1.24967977e+20
1.24967977e+20
1.35381975e+20
1.041399808e+20
7.289798656e+19
8.331198464e+19
6.248398848e+19
1.041399808e+20
7.289798656e+19
1.041399808e+20
9.372598272e+19
1.041399808e+20
1.145539789e+20
1.041399808e+20
9.372598272e+19
1.35381975e+20
8.331198464e+19
1.35381975e+20
4.165599232e+19
1.24967977e+20
1.457959731e+20
9.372598272e+19
1.041399808e+20
1.24967977e+20
1.145539789e+20
1.041399808e+20
2.186939597e+20
9.372598272e+19
9.372598272e+19
7.289798656e+19
1.457959731e+20
7.289798656e+19
1.24967977e+20
1.041399808e+20
5.20699904e+19
1.145539789e+20
7.289798656e+19
1.041399808e+20
1.24967977e+20
5.20699904e+19
1.145539789e+20
1.35381975e+20
1.24967977e+20
1.041399808e+20
1.35381975e+20
1.457959731e+20
1.145539789e+20
1.562099712e+20
6.248398848e+19
9.372598272e+19
9.372598272e+19
7.289798656e+19
7.289798656e+19
1.35381975e+20
8.331198464e+19
1.24967977e+20
6.248398848e+19
8.331198464e+19
9.372598272e+19
1.145539789e+20
8.331198464e+19
6.248398848e+19
4.165599232e+19
1.041399808e+20
1.24967977e+20
5.20699904e+19
7.289798656e+19
8.331198464e+19
8.331198464e+19
1.041399808e+20
1.041399808e+20
9.372598272e+19
1.24967977e+20
9.372598272e+19
8.331198464e+19
9.372598272e+19
9.372598272e+19
4.165599232e+19
7.289798656e+19
1.35381975e+20
9.372598272e+19
1.24967977e+20
1.35381975e+20
8.331198464e+19
7.289798656e+19
7.289798656e+19
1.874519654e+20
1.24967977e+20
8.331198464e+19
5.20699904e+19
1.35381975e+20
8.331198464e+19
9.372598272e+19
1.041399808e+20
8.331198464e+19
7.289798656e+19
1.457959731e+20
1.35381975e+20
1.041399808e+20
1.24967977e+20
7.289798656e+19
1.041399808e+20
1.041399808e+20
1.145539789e+20
1.145539789e+20
1.041399808e+20
9.372598272e+19
6.248398848e+19
2.508222908e+20
3.156837146e+20
4.238258914e+20
3.5209416e+20
3.223329007e+20
3.24611981e+20
3.487184208e+20
4.280486791e+20
3.758663568e+20
3.006539735e+20
1.881167182e+20
1.788874383e+20
2.119129458e+20
1.920513601e+20
2.148886006e+20
2.921507831e+20
2.288464638e+20
2.304877505e+20
2.763723212e+20
3.229246383e+20
1.776657893e+20
1.788874382e+20
1.907216511e+20
2.347294401e+20
2.256330307e+20
2.380487861e+20
2.288464637e+20
3.512194293e+20
3.537565711e+20
2.227066471e+20
1.46313003e+20
1.683646478e+20
1.271477675e+20
1.493732799e+20
1.611664503e+20
1.19024393e+20
2.179490132e+20
2.414633576e+20
2.542625355e+20
3.117893059e+20
9.405835905e+19
8.418232386e+19
1.483390621e+20
1.173647201e+20
1.289331604e+20
2.380487862e+20
1.416668586e+20
1.756097146e+20
1.768782857e+20
1.781653178e+20
1.045092878e+20
9.470511435e+19
9.536082555e+19
1.600427999e+20
1.719108803e+20
8.656319488e+19
1.416668584e+20
1.646341072e+20
2.100429639e+20
2.004359825e+20
7.315650148e+19
9.470511435e+19
1.271477675e+20
9.60256801e+19
1.504220205e+20
1.190243931e+20
9.807705592e+19
8.780485732e+19
1.326587142e+20
1.113533235e+20
9.405835905e+19
1.262734859e+20
1.695303566e+20
1.2803424e+20
1.933997404e+20
9.73835943e+19
1.961541118e+20
1.646341075e+20
9.949403563e+19
1.55894653e+20
7.315650148e+19
7.365953338e+19
6.35738837e+19
1.4937328e+20
9.669987032e+19
2.380487861e+20
1.307694078e+20
1.097560717e+20
1.658233927e+20
6.681199412e+19
1.254111455e+20
1.473190669e+20
7.416953103e+19
9.602568003e+19
1.074443003e+20
1.406651919e+20
8.717960526e+19
1.756097146e+20
1.989880713e+20
1.447593206e+20
8.360743026e+19
6.31367429e+19
1.059564728e+20
8.535616003e+19
7.52110102e+19
1.298447924e+20
7.628215455e+19
8.780485726e+19
1.43713607e+20
5.567666177e+19
1.358620742e+20
1.262734859e+20
1.165521202e+20
1.066952e+20
1.396775904e+20
9.738359437e+19
1.307694084e+20
1.536585013e+20
5.527446451e+19
1.224886564e+20
6.27055727e+19
8.418232409e+19
1.059564733e+20
1.1736472e+20
8.595543987e+19
1.298447922e+20
5.448725318e+19
1.097560707e+20
1.10548928e+20
1.224886559e+20
7.315650124e+19
2.104558084e+19
1.059564721e+20
1.173647196e+20
7.521101025e+19
1.082039934e+20
6.538470358e+19
1.646341072e+20
1.547684992e+20
5.567666137e+19
1.045092884e+20
9.47051146e+19
6.35738837e+19
1.173647204e+20
1.289331613e+20
1.623059913e+20
7.628215471e+19
9.878046504e+19
9.949403591e+19
1.113533235e+20
1.149602165e+20
1.052279051e+20
1.271477683e+20
1.600428006e+20
1.181887304e+20
1.082039942e+20
1.198719574e+20
6.585364244e+19
1.216038208e+20
8.908265883e+19
5.225464384e+19
1.367962757e+20
9.53608249e+19
9.60256797e+19
8.595544028e+19
1.514855908e+20
4.358980269e+19
1.317072867e+20
1.326587145e+20
8.908265883e+19
6.270557261e+19
1.052279051e+20
7.416953148e+19
1.387037596e+20
8.595543969e+19
5.410199672e+19
1.416668578e+20
3.292682145e+19
1.105489288e+20
1.55894653e+20
1.045092884e+20
6.313674307e+19
1.165521201e+20
1.280342405e+20
1.074443004e+19
8.656319476e+19
9.807705606e+19
1.646341072e+20
7.73842496e+19
1.113533243e+20
1.463130028e+20
1.157506956e+20
7.416953098e+19
6.40171198e+19
9.669987032e+19
9.738359478e+19
1.307694081e+20
1.207316786e+20
1.768782861e+20
1.224886559e+20
7.315650138e+19
7.365953308e+19
6.35738837e+19
9.602568036e+19
6.446658021e+19
7.574279541e+19
6.538470404e+19
7.682925059e+19
1.437136074e+20
1.55894653e+20
1.35862074e+20
1.052279044e+20
7.416953098e+19
1.493732806e+20
)
;

boundaryField
{
    flow
    {
        type            zeroGradient;
    }
    obstacle
    {
        type            calculated;
        value           nonuniform List<scalar> 10(131.2309794 2.225073859e-308 38.27822423 77.49305789 46.02737639 237.6404857 67.39120076 46.94379699 81.42581196 97.20071825);
    }
    frontAndBack
    {
        type            empty;
    }
    procBoundary0to1
    {
        type            processor;
        value           nonuniform List<scalar> 
21
(
3.365085317e+20
2.916407277e+20
2.131220701e+20
2.243390211e+20
1.794712169e+20
2.243390214e+20
2.01905119e+20
1.570373148e+20
2.131220702e+20
1.233864616e+20
1.346034127e+20
5.608475548e+19
1.121695102e+19
1.009525592e+20
1.346034132e+20
7.851865717e+19
1.121695102e+20
1.682542666e+20
1.570373155e+20
1.458203633e+20
7.851865773e+19
)
;
    }
    procBoundary0to2
    {
        type            processor;
        value           nonuniform List<scalar> 
31
(
6.248398848e+19
1.145539789e+20
6.248398848e+19
6.248398848e+19
5.20699904e+19
6.248398848e+19
1.041399808e+20
8.331198464e+19
6.248398848e+19
1.562099712e+20
1.041399808e+20
8.331198464e+19
1.24967977e+20
9.372598272e+19
5.20699904e+19
4.165599232e+19
9.372598272e+19
8.331198464e+19
9.372598272e+19
6.248398848e+19
6.446658021e+19
1.082039934e+20
1.198719566e+20
7.682925005e+19
1.547685003e+20
7.794732648e+19
7.315650138e+19
7.365953358e+19
1.059564728e+20
6.446658021e+19
1.066951997e+20
)
;
    }
}


// ************************************************************************* //
