/*--------------------------------*- C++ -*----------------------------------*\
  =========                 |
  \\      /  F ield         | OpenFOAM: The Open Source CFD Toolbox
   \\    /   O peration     | Website:  https://openfoam.org
    \\  /    A nd           | Version:  7
     \\/     M anipulation  |
\*---------------------------------------------------------------------------*/
FoamFile
{
    version     2.0;
    format      ascii;
    class       volScalarField;
    location    "0.25";
    object      nut;
}
// * * * * * * * * * * * * * * * * * * * * * * * * * * * * * * * * * * * * * //

dimensions      [0 2 -1 0 0 0 0];

internalField   nonuniform List<scalar> 
2268
(
7.5156e-05
7.36413e-05
9.14133e-05
0.000103839
0.000113524
0.00012211
0.000130217
0.000138076
0.000145704
0.000152986
0.000159728
0.000165691
0.000170609
0.000174211
0.000176221
0.000176294
0.000174472
0.000171331
0.000166404
0.0001596
0.000151099
0.000134203
0.000117551
0.000145461
0.000488839
0.000713256
0.000879797
0.00101577
0.00113494
0.00124449
0.0013469
0.0014416
0.00152646
0.00159862
0.00165509
0.0016931
0.0017105
0.00170629
0.00167989
0.00160511
0.00146794
0.00129996
0.00113534
0.000998431
0.000867086
0.000357401
0.000161616
0.000732167
0.00117031
0.00153712
0.00186234
0.00216294
0.00244725
0.00271649
0.00296708
0.00319284
0.00338671
0.00354168
0.00365157
0.00371179
0.00372011
0.00367432
0.0035476
0.00330114
0.00293614
0.0024815
0.00200963
0.00156964
0.00043816
0.00017381
0.000863649
0.00145113
0.00197955
0.00247468
0.00294951
0.00340825
0.00384771
0.00425972
0.00463366
0.00495852
0.00522398
0.00542129
0.00554425
0.00558971
0.00555418
0.00541327
0.00511704
0.00463306
0.0039527
0.00313783
0.00226794
0.000495729
0.000182568
0.000945503
0.00163448
0.00228711
0.00292403
0.00355143
0.00416671
0.00476055
0.00531952
0.00582886
0.00627438
0.00664362
0.00692653
0.00711633
0.00720967
0.00720216
0.0070704
0.00675283
0.00619763
0.00536399
0.00427006
0.00293712
0.000541038
0.000188717
0.0010014
0.00176395
0.00251445
0.00326956
0.00402815
0.00477976
0.00550815
0.00619456
0.00682048
0.00736953
0.0078282
0.00818633
0.00843755
0.00857896
0.00860546
0.00849249
0.00816973
0.00757059
0.00662968
0.00531624
0.00355436
0.000583579
0.000193097
0.00104067
0.00186191
0.0026942
0.00355035
0.00442219
0.00529131
0.00613457
0.00692815
0.00765052
0.00828394
0.00881493
0.00923423
0.00953678
0.00972064
0.00978027
0.0096885
0.00937074
0.00874575
0.00772665
0.00623995
0.00412064
0.00062685
0.000196343
0.00106816
0.00194021
0.0028455
0.00379115
0.00476196
0.00573198
0.00667168
0.0075529
0.00835184
0.00905041
0.00963613
0.0101015
0.0104435
0.0106617
0.0107504
0.0106795
0.0103738
0.00973858
0.00866609
0.00705416
0.00467702
0.000676175
6.79619e-05
8.65006e-05
9.7433e-05
0.00010299
0.000105695
0.000106573
0.00010529
0.000102801
9.97339e-05
9.65102e-05
9.34543e-05
9.06983e-05
8.81618e-05
8.56094e-05
8.27161e-05
7.89981e-05
7.36477e-05
0.000299883
0.00018721
0.000220726
0.000601103
0.000757426
0.000888839
0.000983972
0.00101837
0.00102644
0.00101334
0.000983567
0.000943275
0.000899585
0.000857201
0.000816879
0.000775974
0.000729236
0.000668785
0.0005813
0.000446761
0.000164954
0.000268235
0.00111222
0.00148811
0.00175642
0.00194429
0.00204795
0.00209734
0.00209385
0.00204167
0.00195349
0.00184749
0.00173834
0.00163139
0.00152247
0.00140023
0.00124712
0.00103549
0.000713752
0.000181898
0.000307446
0.00150859
0.00205719
0.00240807
0.00266124
0.00284044
0.0029599
0.00300506
0.00296849
0.00286143
0.00270976
0.00253956
0.00236468
0.00218319
0.00198011
0.00173031
0.0013957
0.000911726
0.000194374
0.000344649
0.00180721
0.00246678
0.00285797
0.00314992
0.00339646
0.0035998
0.00372457
0.00374219
0.00365204
0.00348075
0.00326417
0.00302727
0.00277441
0.00249056
0.00214578
0.00169513
0.00106823
0.000203781
0.000382875
0.00203982
0.00275764
0.00315928
0.00346584
0.00376362
0.00404963
0.00427027
0.00437132
0.00433092
0.00416759
0.00392257
0.0036326
0.00331179
0.00294876
0.00251189
0.00195226
0.00119731
0.000211172
0.000426233
0.00222385
0.00295902
0.00335408
0.00365811
0.00398984
0.00434712
0.00466601
0.00486797
0.00490365
0.00477436
0.00452019
0.00418812
0.00380433
0.00336468
0.00283902
0.00217706
0.00130631
0.000217171
0.000493346
0.00235277
0.00307568
0.00346319
0.00375993
0.00411321
0.00452656
0.0049359
0.00524509
0.00537533
0.0053029
0.00505898
0.00469719
0.00425673
0.00374382
0.00313304
0.00237515
0.00139941
0.000222173
0.000199225
0.00109157
0.00202372
0.00302334
0.00408667
0.00518696
0.00628677
0.00734735
0.00833477
0.009223
0.00999485
0.010641
0.0111585
0.0115489
0.0118161
0.0119563
0.0119375
0.0116714
0.0110474
0.0099388
0.00824489
0.00583162
0.0019378
0.00020236
0.00110705
0.00212084
0.00324634
0.00445322
0.00569516
0.00692073
0.00808297
0.00914505
0.0100827
0.0108842
0.0115479
0.0120786
0.0124848
0.0127749
0.012949
0.0129771
0.0127693
0.012193
0.0111122
0.00942979
0.00707741
0.00383961
0.000205424
0.00111916
0.00221751
0.00346944
0.00480887
0.0061662
0.00747718
0.00869034
0.0097707
0.0107003
0.0114767
0.0121086
0.01261
0.012995
0.0132755
0.0134549
0.013511
0.0133696
0.0128904
0.0119357
0.0104059
0.00828722
0.00566407
0.000209132
0.00113528
0.00231929
0.00369367
0.00515249
0.00660082
0.00796289
0.00918634
0.0102423
0.0111227
0.0118369
0.0124053
0.0128512
0.0131933
0.0134443
0.0136095
0.0136743
0.0135826
0.0132191
0.012444
0.011162
0.00937665
0.0072642
0.00021393
0.00115029
0.00241247
0.00390308
0.00547086
0.0069917
0.00837961
0.00958539
0.0105903
0.0113987
0.0120325
0.0125235
0.0129032
0.0131946
0.0134118
0.0135597
0.0136264
0.0135688
0.0133025
0.0127033
0.0116862
0.0102586
0.00859411
0.00022061
0.00113755
0.00246376
0.00407505
0.00575291
0.00733745
0.0087365
0.00990995
0.0108533
0.0115855
0.0121401
0.0125574
0.0128753
0.0131238
0.0133227
0.0134768
0.0135669
0.0135494
0.0133552
0.0128923
0.0120806
0.0109356
0.00961278
0.000231981
0.00105858
0.00244538
0.00420749
0.00600993
0.00765685
0.00906083
0.0101987
0.0110839
0.0117512
0.0122457
0.0126097
0.0128833
0.0131098
0.0133224
0.0135296
0.0136937
0.0137578
0.0136465
0.0132803
0.0125918
0.011595
0.01043
0.000254336
0.000932489
0.00239681
0.00435367
0.0062926
0.00799978
0.00940694
0.0105133
0.0113519
0.0119746
0.012441
0.0127767
0.0130178
0.0132368
0.0134886
0.0137634
0.0139655
0.0140538
0.013963
0.0136402
0.013035
0.0121473
0.0110868
0.000288682
0.000893526
0.00247154
0.00462271
0.00667957
0.00843302
0.00983679
0.0109117
0.0117075
0.0122906
0.0127164
0.0130202
0.0132401
0.0134133
0.0136052
0.0137967
0.0139364
0.0139726
0.0138498
0.0135267
0.0129747
0.0121921
0.0112567
0.000315893
0.00122441
0.00296882
0.00510231
0.00714346
0.00888282
0.0102496
0.0112773
0.0120251
0.0125524
0.0129056
0.0131502
0.0133318
0.0134719
0.0135834
0.0136764
0.0137227
0.0136791
0.0134866
0.0130963
0.012497
0.0117284
0.0108747
0.000333619
0.00190605
0.00378503
0.00573623
0.00766649
0.00932601
0.0106224
0.0115893
0.0122883
0.0127759
0.0131028
0.0133177
0.0134631
0.0135611
0.0136151
0.0136213
0.0135586
0.0133853
0.0130384
0.0124655
0.0116745
0.0107489
0.00982506
0.000325794
0.00222202
0.00432932
0.00636642
0.00827264
0.00985663
0.0110743
0.0119727
0.0126162
0.0130612
0.0133546
0.0135382
0.0136469
0.0136998
0.0136976
0.0136256
0.0134526
0.0131246
0.0125694
0.0117421
0.0106828
0.00952375
0.00846079
0.000318603
0.00236312
0.00477107
0.00698051
0.00887013
0.0103701
0.0115038
0.0123351
0.0129282
0.0133358
0.0135999
0.0137557
0.0138304
0.013839
0.0137792
0.0136292
0.0133442
0.0128516
0.0120699
0.0109709
0.00963919
0.00826036
0.00709485
0.000320445
0.0024897
0.00519293
0.00752264
0.00938301
0.0108066
0.011867
0.0126407
0.0131907
0.0135657
0.0138029
0.0139319
0.0139739
0.0139396
0.0138231
0.0135962
0.0132003
0.0125468
0.0115517
0.0102153
0.00867373
0.00716313
0.00599523
0.000324989
0.00265135
0.00556596
0.00796066
0.0097876
0.011149
0.0121509
0.012878
0.0133928
0.0137402
0.0139539
0.0140586
0.0140716
0.0139995
0.0138325
0.0135359
0.0130402
0.0122475
0.0110835
0.00958498
0.00793856
0.00641736
0.00533934
0.000329924
0.00280836
0.00586353
0.00829181
0.0100898
0.011404
0.0123612
0.0130522
0.0135392
0.013865
0.0140601
0.0141462
0.0141372
0.0140367
0.0138312
0.0134804
0.0129096
0.0120216
0.0107572
0.00918613
0.0075327
0.00608008
0.00510605
0.000334186
0.00292505
0.00607702
0.0085257
0.0103024
0.0115828
0.0125074
0.0131715
0.013638
0.0139488
0.0141323
0.0142079
0.0141873
0.0140718
0.0138469
0.0134722
0.0128757
0.0119676
0.0106985
0.00914519
0.00753391
0.00613695
0.00518097
0.000336303
0.00301426
0.00622575
0.00868063
0.01044
0.0116964
0.0125982
0.013244
0.0136972
0.0139993
0.0141775
0.0142499
0.0142272
0.0141107
0.0138878
0.0135237
0.0129564
0.0121073
0.0109278
0.00947312
0.00793371
0.00655587
0.00553333
0.000335978
0.00307179
0.0063122
0.00876323
0.0105087
0.0117495
0.012637
0.0132712
0.0137166
0.0140147
0.0141922
0.014267
0.0142497
0.0141434
0.0139399
0.0136137
0.0131169
0.0123846
0.0113651
0.0100757
0.00864552
0.00727953
0.00616115
0.000333301
0.00309615
0.00633647
0.00877442
0.0105085
0.0117402
0.01262
0.0132485
0.0136905
0.013988
0.0141682
0.0142489
0.0142417
0.0141522
0.0139777
0.0137032
0.0132967
0.012709
0.0118887
0.0108184
0.00955753
0.00824767
0.00705577
0.000328501
0.00308704
0.00629886
0.00871424
0.0104378
0.0116652
0.0125429
0.0131702
0.0136123
0.0139119
0.0140966
0.0141851
0.01419
0.0141194
0.0139761
0.0137546
0.013438
0.012994
0.0123793
0.0115576
0.0105314
0.00936646
0.00818053
0.000321913
0.00304548
0.00620132
0.00858428
0.0102968
0.0115231
0.0124028
0.0130326
0.0134776
0.013781
0.0139716
0.0140686
0.0140858
0.0140334
0.0139184
0.0137432
0.0135028
0.0131813
0.012749
0.0121689
0.0114127
0.0104827
0.00942361
0.000313959
0.00297415
0.00604827
0.0083888
0.0100885
0.0113155
0.0122001
0.0128351
0.0132852
0.0135941
0.0137913
0.0138969
0.0139258
0.0138895
0.013798
0.0136589
0.0134761
0.0132463
0.012955
0.0125754
0.0120737
0.0114188
0.0105942
0.000305116
0.00287745
0.00584699
0.00813516
0.00981904
0.0110472
0.0119384
0.0125808
0.0130377
0.0133532
0.0135576
0.013672
0.0137118
0.0136896
0.0136169
0.0135042
0.013361
0.0131923
0.012996
0.0127586
0.0124543
0.0120468
0.0114916
0.000295877
0.00276153
0.00560758
0.00783378
0.00949779
0.0107262
0.0116248
0.0122758
0.0127407
0.0130638
0.0132761
0.0133993
0.0134495
0.0134397
0.0133821
0.0132886
0.013171
0.0130392
0.0128986
0.0127465
0.0125684
0.0123362
0.0120052
0.000286702
0.00263389
0.00534265
0.0074979
0.00913686
0.0103631
0.0112687
0.0119288
0.0124025
0.0127338
0.0129543
0.0130865
0.0131467
0.0131484
0.0131037
0.0130246
0.0129235
0.0128122
0.0126998
0.0125899
0.0124769
0.0123425
0.0121524
0.000277981
0.00250272
0.00506651
0.00714297
0.00875073
0.00997109
0.0108817
0.0115505
0.012033
0.0123728
0.0126017
0.0127427
0.0128128
0.0128253
0.0127922
0.0127249
0.0126354
0.0125354
0.0124353
0.0123414
0.0122531
0.0121594
0.0120355
0.000270003
0.00237583
0.00479382
0.00678566
0.00835563
0.00956493
0.0104774
0.0111529
0.0116435
0.0119913
0.0122282
0.0123778
0.0124573
0.0124802
0.0124579
0.0124013
0.0123213
0.0122288
0.0121338
0.0120435
0.0119596
0.0118753
0.0117725
0.000262952
0.00225965
0.00453799
0.00644256
0.00796862
0.00916079
0.0100704
0.0107495
0.0112461
0.0116005
0.0118445
0.0120019
0.0120902
0.0121228
0.0121109
0.0120645
0.0119935
0.0119078
0.0118163
0.0117262
0.0116402
0.0115539
0.0114534
0.000256927
0.00215853
0.00430961
0.00612852
0.00760634
0.00877527
0.00967632
0.0103545
0.0108536
0.0112123
0.0114617
0.0116256
0.0117215
0.0117631
0.011761
0.0117246
0.011663
0.0115849
0.0114982
0.0114097
0.0113223
0.0112335
0.0111322
0.000251987
0.00207467
0.00411567
0.00585527
0.00728355
0.00842421
0.00931068
0.00998237
0.0104797
0.0108392
0.0110913
0.0112596
0.0113618
0.0114112
0.0114182
0.0113919
0.0113402
0.011271
0.0111913
0.0111073
0.0110222
0.0109344
0.0108353
0.000248208
0.00200856
0.00395967
0.00563082
0.00701188
0.00812129
0.00898772
0.00964703
0.0101371
0.0104932
0.0107448
0.0109151
0.0110216
0.0110776
0.011093
0.0110763
0.011035
0.0109759
0.0109053
0.0108288
0.0107495
0.0106667
0.0105736
0.000245754
0.0019597
0.00384272
0.00545991
0.00679956
0.00787695
0.00871886
0.00935997
0.00983721
0.010185
0.0104322
0.0106017
0.0107105
0.0107715
0.0107945
0.0107871
0.0107562
0.0107079
0.0106477
0.0105805
0.0105095
0.0104344
0.0103499
0.000244941
0.00192724
0.00376512
0.00534562
0.00665214
0.00769828
0.00851185
0.00912897
0.00958744
0.00992175
0.0101605
0.0103261
0.0104351
0.0104997
0.0105291
0.0105304
0.0105096
0.0104722
0.0104229
0.0103659
0.0103042
0.0102379
0.0101628
0.000246298
0.00191076
0.00372826
0.0052916
0.00657433
0.00758994
0.00837079
0.00895757
0.00939088
0.00970627
0.00993235
0.0100908
0.0101976
0.0102642
0.0102989
0.0103081
0.010297
0.0102701
0.0102315
0.0101847
0.0101325
0.0100751
0.0100091
0.000250584
0.0019113
0.00373701
0.0053048
0.00657218
0.0075556
0.008297
0.00884537
0.00924612
0.00953658
0.00974538
0.00989344
0.00999563
0.0100624
0.0101011
0.0101172
0.010115
0.0100983
0.0100701
0.0100335
0.00999052
0.00994161
0.00988403
0.000258775
0.00193324
0.00380301
0.00539853
0.00665509
0.00759907
0.00828971
0.00878875
0.00914803
0.00940686
0.00959349
0.00972757
0.00982253
0.00988747
0.00992865
0.00995053
0.00995653
0.00994949
0.00993187
0.00990572
0.00987247
0.00983218
0.00978236
0.000272128
0.00198719
0.00394957
0.00559588
0.00683669
0.00772401
0.00834588
0.00878121
0.0090887
0.00930871
0.00946812
0.00958454
0.00966944
0.0097303
0.00977207
0.0097982
0.0098113
0.00981359
0.00980689
0.00979251
0.00977082
0.00974075
0.00969913
0.000292406
0.00209483
0.00422006
0.00593322
0.00713345
0.00793126
0.00845846
0.008813
0.00905803
0.00923243
0.00935994
0.00945511
0.00952696
0.00958106
0.00962101
0.00964926
0.00966777
0.00967839
0.00968279
0.00968198
0.00967541
0.00966006
0.00962999
0.000322155
0.00230249
0.00469681
0.00646309
0.00755831
0.00821283
0.00861341
0.00887049
0.00904449
0.00916836
0.00926044
0.00933125
0.00938694
0.00943115
0.00946611
0.00949337
0.00951434
0.00953071
0.00954446
0.0095573
0.00956928
0.00957669
0.00956921
0.000364957
0.00273808
0.00555371
0.00724971
0.00810347
0.00854203
0.00878655
0.00893627
0.00903631
0.00910834
0.00916343
0.00920752
0.0092439
0.00927442
0.00930018
0.00932194
0.00934058
0.00935748
0.0093748
0.00939545
0.0094225
0.00945796
0.00949609
0.000426947
0.00401386
0.00721004
0.00832262
0.0087047
0.00886347
0.00894362
0.00899112
0.00902307
0.00904677
0.00906568
0.00908158
0.00909539
0.00910763
0.00911859
0.00912846
0.00913758
0.00914657
0.0091567
0.00917036
0.00919247
0.00923404
0.00931571
0.000761446
0.000701869
0.000619911
0.000570865
0.00233725
0.00187516
0.00169441
0.00161638
0.00426621
0.00343015
0.0028863
0.0025436
0.00604155
0.00512368
0.00435799
0.00374475
0.00754211
0.00668561
0.00587104
0.00510727
0.00872978
0.00799462
0.00724403
0.00646303
0.00962822
0.00898091
0.00832515
0.00762592
0.010309
0.00967032
0.00906721
0.00846286
0.0105481
0.00990332
0.00927799
0.00874455
0.0102462
0.00966342
0.00910137
0.00866213
0.00928516
0.00882747
0.00843472
0.00817736
0.00794754
0.00762065
0.0074501
0.00742891
0.00663727
0.00644608
0.00648966
0.0066832
0.00563293
0.0055958
0.00580116
0.00617701
0.00508343
0.00518085
0.00549612
0.00595102
0.0048754
0.00501053
0.00534229
0.0057933
0.00485027
0.00491169
0.00516563
0.00555189
0.0050104
0.00492194
0.00501537
0.00526917
0.00543178
0.00517392
0.00505992
0.0050977
0.00615392
0.00575339
0.00545616
0.00527222
0.00717136
0.00666657
0.00623867
0.00589163
0.00841251
0.00785032
0.00733856
0.00688804
0.00971512
0.0091713
0.00864056
0.00814444
0.010841
0.0103976
0.00993442
0.00947354
0.01159
0.011285
0.0109494
0.0105983
0.0119083
0.0117214
0.0115112
0.0112869
0.0118835
0.0117672
0.011639
0.0115059
0.0116571
0.0115717
0.0114816
0.011394
0.0113488
0.0112737
0.0111969
0.0111248
0.0110314
0.0109603
0.0108881
0.0108201
0.0107393
0.0106722
0.0106038
0.0105384
0.010485
0.0104232
0.0103599
0.0102985
0.0102702
0.0102147
0.0101574
0.0101013
0.0100923
0.0100431
0.00999205
0.0099415
0.009947
0.0099035
0.00985809
0.00981273
0.00982917
0.0097905
0.00974985
0.0097089
0.00973363
0.00969891
0.00966206
0.0096246
0.00965568
0.0096241
0.0095901
0.00955518
0.00959162
0.00956244
0.00953023
0.00949675
0.00953827
0.0095114
0.00947993
0.00944662
0.00948777
0.00946761
0.00943758
0.00940382
0.00941365
0.00942389
0.00940318
0.00937146
0.00145189
0.00259093
0.00316614
0.00354934
0.00384715
0.00422003
0.00468705
0.00520064
0.00565828
0.00594467
0.00598984
0.00579569
0.0054143
0.00490187
0.00428373
0.00354668
0.00264794
0.00152338
0.000228045
0.00187532
0.00253531
0.00329396
0.00354488
0.003782
0.00415155
0.00465569
0.0052568
0.00587346
0.00636937
0.00661305
0.00654455
0.00618918
0.00561574
0.00488032
0.00399648
0.00293762
0.00165118
0.000233921
0.00233211
0.00271308
0.00343216
0.00386582
0.00384083
0.00402409
0.00449855
0.00513729
0.00585251
0.00651759
0.00696362
0.00706215
0.00678661
0.00619635
0.00537326
0.00436541
0.00317102
0.00175197
0.000238349
0.00299829
0.00296251
0.003481
0.00412822
0.00427601
0.00405057
0.00429881
0.00490295
0.00566311
0.00644503
0.0070735
0.00736356
0.00721605
0.00665551
0.00577837
0.00467049
0.00336257
0.00183391
0.000241896
0.00392123
0.0034049
0.0035642
0.0041473
0.00463524
0.00445734
0.00420963
0.00458884
0.00532978
0.00619306
0.0069806
0.00746941
0.00748773
0.00700319
0.00610852
0.00492546
0.00352291
0.00190178
0.000244997
0.0050652
0.00408835
0.00383276
0.00417487
0.00473828
0.00490891
0.00447203
0.00441099
0.00496612
0.00583384
0.00673474
0.00740763
0.00761455
0.00724825
0.00637424
0.00514148
0.00366073
0.00195969
0.000247925
0.00626436
0.00496711
0.00429024
0.00432022
0.00478992
0.00515326
0.00488553
0.0044951
0.00471231
0.00545922
0.00639783
0.00721537
0.00761431
0.00739998
0.006584
0.00532682
0.0037833
0.00201234
0.000250652
0.00722827
0.00581757
0.00483135
0.00455697
0.00486088
0.00527738
0.00521635
0.00475963
0.00463744
0.00515544
0.00603829
0.00693915
0.00751202
0.0074699
0.00674388
0.00548661
0.0038943
0.00206152
0.000253227
0.00781079
0.00642741
0.00529821
0.00480781
0.00495135
0.00535214
0.00544867
0.00505769
0.00471634
0.00496662
0.00571419
0.00662789
0.0073392
0.00747362
0.00686065
0.00562369
0.0039949
0.00210751
0.000255664
0.00798916
0.00673086
0.00560346
0.00500786
0.00503884
0.0054067
0.00560876
0.0053217
0.00487164
0.00489185
0.00546185
0.00632821
0.0071328
0.00743127
0.00694217
0.00573977
0.00408464
0.00214961
0.000257987
0.00779878
0.0067618
0.00574055
0.00513115
0.00510108
0.00544201
0.00571441
0.00553194
0.00504778
0.00489747
0.0052914
0.00607184
0.00692485
0.00736387
0.00699716
0.00583592
0.00416187
0.0021864
0.000260156
0.00738322
0.00660058
0.00574441
0.00518325
0.00512885
0.00544807
0.0057647
0.00568692
0.00522263
0.00495371
0.00519048
0.0058704
0.00673861
0.00729098
0.00703464
0.00591266
0.004224
0.00221589
0.00026213
0.00694434
0.00635943
0.00567107
0.00518977
0.00513036
0.00541835
0.00575967
0.00579663
0.00539558
0.00505163
0.00515371
0.00573064
0.00659205
0.00723052
0.0070631
0.00596985
0.00426792
0.00223573
0.000263902
0.00666152
0.00615508
0.00558602
0.00517961
0.00511926
0.00537299
0.00573135
0.00588709
0.00558104
0.00519516
0.00518064
0.00565779
0.00650005
0.00719815
0.00708916
0.00600602
0.00429039
0.00224437
0.000265323
0.00659504
0.00610044
0.00555879
0.0051919
0.00512282
0.0053472
0.00572148
0.00599185
0.00579597
0.00539101
0.00527332
0.005657
0.00647525
0.00720599
0.00711545
0.00601766
0.00428806
0.00224061
0.000266259
0.0065358
0.00623544
0.00564718
0.00527665
0.00518687
0.00537815
0.00576164
0.00612723
0.00604669
0.00563264
0.00542167
0.00572633
0.00652602
0.00726082
0.00713927
0.00599928
0.00425813
0.00222371
0.000266637
0.00629902
0.00645931
0.00590631
0.00548542
0.0053583
0.00550939
0.00587943
0.00630686
0.00632647
0.00590421
0.00561315
0.00586602
0.00666115
0.00736347
0.00715185
0.00594481
0.00419952
0.00219387
0.000266427
0.00583651
0.00649138
0.00631798
0.00584819
0.00566921
0.00576848
0.00609944
0.00654473
0.00662769
0.00617966
0.0058337
0.00608502
0.00689201
0.00750539
0.00713818
0.00584972
0.00411406
0.00215266
0.000265648
0.005396
0.00614289
0.00657728
0.00637146
0.00613893
0.00616596
0.0064266
0.00683036
0.00690222
0.00642239
0.00608224
0.00640549
0.00722099
0.00765866
0.00707861
0.00571404
0.00400708
0.00210286
0.000264366
0.00526468
0.00567203
0.00633851
0.00676004
0.00669544
0.00667791
0.00683663
0.00712312
0.00709486
0.00659959
0.00638045
0.00685525
0.00761966
0.00777225
0.00695704
0.00554518
0.00388689
0.00204806
0.00026268
0.00563089
0.00551374
0.00587467
0.00647718
0.00687841
0.00703762
0.0071843
0.00730328
0.00712893
0.00673976
0.00679396
0.00742781
0.008003
0.00778811
0.00677349
0.00535811
0.00376306
0.00199194
0.000260704
0.00646781
0.0059436
0.00577419
0.00602376
0.00647223
0.00685072
0.00711178
0.00716758
0.00704099
0.00697413
0.00737413
0.00803164
0.00825333
0.00768005
0.00654985
0.00517098
0.00364409
0.0019376
0.000258558
0.00763062
0.00686704
0.00628893
0.00606066
0.00617231
0.00645523
0.00671614
0.00686692
0.00703303
0.00743305
0.00806314
0.00850418
0.00829935
0.00747596
0.00631942
0.00499887
0.00353585
0.00188725
0.000256348
0.008943
0.00807449
0.00725404
0.00666949
0.0063989
0.00640085
0.00656284
0.00685114
0.00736838
0.008085
0.00866722
0.0087169
0.00816753
0.00723519
0.00610996
0.00485019
0.00344127
0.00184216
0.000254164
0.0101534
0.0093584
0.00850493
0.00774631
0.00721638
0.0069776
0.00703826
0.00742545
0.00809961
0.00875585
0.00899468
0.00867517
0.00794948
0.00700969
0.00593557
0.00472723
0.00336107
0.00180294
0.000252075
0.0109825
0.0104209
0.00974243
0.00904293
0.008461
0.00812072
0.00810529
0.0084314
0.0089151
0.00918768
0.00902812
0.00849086
0.00772751
0.0068266
0.00579987
0.00462938
0.00329469
0.00176958
0.000250134
0.0113237
0.0110036
0.0105802
0.0100915
0.00963209
0.00931282
0.00921269
0.00930761
0.00940478
0.00928016
0.00887961
0.00827655
0.00753898
0.00668314
0.00569374
0.00455136
0.00324047
0.00173976
0.000248744
0.0112768
0.0111015
0.010865
0.0105699
0.0102599
0.00999385
0.00980914
0.00967408
0.00948363
0.00915364
0.0086803
0.00809094
0.00739392
0.00657473
0.00561194
0.00448941
0.00319596
0.00171451
0.000247665
0.0110282
0.010906
0.0107539
0.0105612
0.0103399
0.0101103
0.00988284
0.00964004
0.00934353
0.00896677
0.00850395
0.00794976
0.00728763
0.00649442
0.00554971
0.00444102
0.00316048
0.00169424
0.0002468
0.010726
0.0106131
0.0104859
0.0103318
0.0101506
0.00994641
0.00971981
0.00946302
0.00916182
0.00880242
0.00837103
0.0078488
0.00721174
0.00643591
0.00550327
0.00440423
0.00313319
0.00167878
0.000246092
0.0104449
0.010331
0.0102098
0.0100708
0.009911
0.00972926
0.00952321
0.00928704
0.00901076
0.00868048
0.0082776
0.00777879
0.00715864
0.00639428
0.00546972
0.00437737
0.00311325
0.00166775
0.000245505
0.0102084
0.0100957
0.009979
0.00985036
0.00970667
0.00954541
0.00936266
0.00915161
0.00890127
0.0085957
0.00821395
0.00773134
0.00712257
0.0063659
0.00544682
0.00435907
0.00309984
0.0016607
0.000245012
0.0100171
0.00990942
0.00979921
0.00968075
0.00955126
0.00940768
0.00924502
0.00905506
0.00882527
0.00853812
0.00817147
0.00770021
0.00709939
0.0063481
0.00543279
0.00434815
0.00309216
0.00165713
0.000244597
0.00986423
0.00976364
0.00966128
0.00955291
0.00943603
0.00930721
0.00916068
0.00898714
0.0087729
0.00849941
0.00814386
0.007681
0.00708611
0.00633879
0.00542615
0.00434351
0.0030894
0.00165652
0.000244252
0.0097422
0.00964903
0.00955459
0.0094556
0.00934968
0.0092331
0.00909949
0.00893881
0.0087366
0.00847367
0.0081268
0.00767059
0.00708046
0.00633631
0.00542563
0.00434415
0.00309078
0.00165835
0.000243973
0.0096442
0.00955776
0.00947051
0.00937983
0.00928333
0.00917697
0.00905394
0.00890368
0.0087112
0.00845689
0.00811724
0.00766669
0.00708068
0.00633922
0.00543004
0.00434908
0.00309553
0.00166213
0.000243756
0.00956452
0.00948366
0.00940259
0.0093191
0.0092307
0.00913303
0.00901892
0.00887742
0.00869319
0.00844629
0.00811297
0.00766751
0.00708526
0.00634625
0.00543824
0.00435735
0.00310288
0.00166738
0.000243597
0.00949836
0.00942185
0.00934597
0.00926872
0.00918739
0.00909729
0.00899092
0.00885706
0.00868007
0.0084398
0.00811226
0.00767155
0.00709288
0.00635616
0.00544913
0.00436795
0.00311199
0.00167357
0.00024349
0.00944169
0.00936835
0.0092969
0.00922521
0.00915019
0.00906685
0.0089674
0.00884038
0.00866996
0.00843577
0.00811364
0.00767746
0.00710224
0.00636772
0.00546152
0.00437979
0.00312195
0.00168008
0.000243422
0.00939155
0.00932031
0.00925275
0.00918611
0.00911684
0.00903963
0.00894644
0.00882563
0.00866122
0.00843268
0.00811565
0.00768383
0.00711196
0.00637958
0.00547413
0.00439166
0.00313166
0.00168612
0.000243376
0.00934747
0.00927754
0.00921339
0.00915119
0.0090869
0.00901496
0.00892718
0.00881179
0.00865268
0.00842919
0.00811681
0.00768901
0.00712034
0.00639006
0.00548538
0.00440219
0.00313989
0.00169055
0.000243329
0.00931521
0.00924681
0.00918519
0.00912594
0.00906488
0.00899639
0.0089122
0.0088005
0.00864507
0.00842518
0.00811618
0.00769141
0.00712525
0.00639678
0.005493
0.00440958
0.00314572
0.00169344
0.000243222
)
;

boundaryField
{
    leftWall
    {
        type            nutkWallFunction;
        Cmu             0.09;
        kappa           0.41;
        E               9.8;
        value           nonuniform List<scalar> 
50
(
1.39021e-05
1.7045e-05
1.88272e-05
2.01131e-05
2.102e-05
2.16491e-05
2.21019e-05
2.24383e-05
2.2735e-05
2.30602e-05
2.33698e-05
2.37327e-05
2.41903e-05
2.48002e-05
2.57606e-05
2.75811e-05
3.20181e-05
3.46272e-05
3.72512e-05
3.73606e-05
3.62922e-05
3.62214e-05
3.6694e-05
3.73364e-05
3.79502e-05
3.82955e-05
3.83187e-05
3.80223e-05
3.74326e-05
3.65923e-05
3.55569e-05
3.43908e-05
3.31612e-05
3.19316e-05
3.07561e-05
2.96746e-05
2.87126e-05
2.78837e-05
2.71955e-05
2.66576e-05
2.62907e-05
2.61365e-05
2.62666e-05
2.67864e-05
2.78331e-05
2.95752e-05
3.22385e-05
3.61678e-05
4.19132e-05
5.04354e-05
)
;
    }
    rightWall
    {
        type            nutkWallFunction;
        Cmu             0.09;
        kappa           0.41;
        E               9.8;
        value           nonuniform List<scalar> 
50
(
1.27699e-05
1.51372e-05
1.76469e-05
1.94512e-05
2.07959e-05
2.18438e-05
2.26897e-05
2.33926e-05
2.41908e-05
2.49807e-05
2.55603e-05
2.60125e-05
2.64014e-05
2.67677e-05
2.71018e-05
2.74109e-05
2.76974e-05
2.79657e-05
2.82119e-05
2.84323e-05
2.86299e-05
2.87824e-05
2.88724e-05
2.88928e-05
2.88433e-05
2.87288e-05
2.8559e-05
2.83464e-05
2.81044e-05
2.78462e-05
2.75837e-05
2.73266e-05
2.70824e-05
2.68564e-05
2.66858e-05
2.65561e-05
2.64536e-05
2.63712e-05
2.63038e-05
2.62477e-05
2.62008e-05
2.61622e-05
2.61314e-05
2.61081e-05
2.60917e-05
2.60813e-05
2.60752e-05
2.60711e-05
2.60659e-05
2.60518e-05
)
;
    }
    lowerWall
    {
        type            nutkWallFunction;
        Cmu             0.09;
        kappa           0.41;
        E               9.8;
        value           nonuniform List<scalar> 
62
(
6.77587e-06
8.92597e-06
1.09588e-05
1.23383e-05
1.34095e-05
1.4352e-05
1.52354e-05
1.60867e-05
1.6909e-05
1.76912e-05
1.84135e-05
1.90511e-05
1.95763e-05
1.9961e-05
2.01769e-05
2.01899e-05
1.99982e-05
1.96693e-05
1.91495e-05
1.84218e-05
1.75003e-05
1.56707e-05
1.38396e-05
1.38396e-05
3.87711e-05
4.67112e-05
5.21254e-05
5.64376e-05
6.04886e-05
6.45989e-05
6.92395e-05
7.70795e-05
7.12885e-05
6.31414e-05
6.99166e-05
0
2.2947e-05
2.94484e-05
3.48121e-05
3.98753e-05
4.50135e-05
5.07131e-05
5.97517e-05
0
2.77212e-06
4.49474e-06
5.36341e-06
5.75625e-06
5.87706e-06
5.66931e-06
5.28291e-06
4.81638e-06
4.33297e-06
3.8778e-06
3.46655e-06
3.08398e-06
2.69182e-06
2.23817e-06
1.64346e-06
7.68881e-07
4.01564e-08
0
)
;
    }
    atmosphere
    {
        type            calculated;
        value           nonuniform List<scalar> 
46
(
0.009
0.009
0.009
0.009
0.009
0.009
0.009
0.009
0.009
0.009
0.009
0.009
0.009
0.009
0.009
0.009
0.009
0.009
0.009
0.009
0.009
0.009
0.009
0.00941365
0.00942389
0.00940318
0.00937146
0.00931521
0.00924681
0.00918519
0.00912594
0.00906488
0.00899639
0.0089122
0.0088005
0.00864507
0.00842518
0.00811618
0.00769141
0.00712525
0.00639678
0.005493
0.00440958
0.00314572
0.00169344
0.000243222
)
;
    }
    defaultFaces
    {
        type            empty;
    }
}


// ************************************************************************* //
