/*--------------------------------*- C++ -*----------------------------------*\
  =========                 |
  \\      /  F ield         | OpenFOAM: The Open Source CFD Toolbox
   \\    /   O peration     | Website:  https://openfoam.org
    \\  /    A nd           | Version:  7
     \\/     M anipulation  |
\*---------------------------------------------------------------------------*/
FoamFile
{
    version     2.0;
    format      ascii;
    class       surfaceScalarField;
    location    "0.25";
    object      phi;
}
// * * * * * * * * * * * * * * * * * * * * * * * * * * * * * * * * * * * * * //

dimensions      [0 3 -1 0 0 0 0];

internalField   nonuniform List<scalar> 
4432
(
-3.86465e-06
3.86465e-06
-2.09787e-06
-1.76678e-06
2.32788e-06
-4.42575e-06
7.621e-06
-5.29312e-06
1.31011e-05
-5.48009e-06
1.85849e-05
-5.48377e-06
2.40901e-05
-5.50519e-06
2.96703e-05
-5.58022e-06
3.53577e-05
-5.68746e-06
4.11432e-05
-5.78547e-06
4.69644e-05
-5.82121e-06
5.2694e-05
-5.72957e-06
5.8121e-05
-5.42703e-06
6.29219e-05
-4.80095e-06
6.66034e-05
-3.68147e-06
6.83381e-05
-1.73468e-06
6.66449e-05
1.69316e-06
5.97194e-05
6.92555e-06
4.63785e-05
1.33409e-05
2.68171e-05
1.95614e-05
3.74985e-06
2.30672e-05
-1.39112e-05
1.76611e-05
-1.39112e-05
-1.00956e-06
4.87422e-06
1.73629e-06
-4.51263e-06
6.26941e-06
-8.95887e-06
1.14799e-05
-1.05036e-05
1.68994e-05
-1.08996e-05
2.23937e-05
-1.09781e-05
2.79531e-05
-1.10645e-05
3.36012e-05
-1.12284e-05
3.93477e-05
-1.14339e-05
4.51669e-05
-1.16046e-05
5.09877e-05
-1.16421e-05
5.66825e-05
-1.14244e-05
6.20501e-05
-1.07946e-05
6.67943e-05
-9.5451e-06
7.05037e-05
-7.39084e-06
7.27064e-05
-3.93739e-06
7.2945e-05
1.45452e-06
7.03224e-05
9.54814e-06
6.29931e-05
2.06702e-05
4.88767e-05
3.36778e-05
2.77341e-05
4.42099e-05
6.98908e-06
3.84061e-05
-6.92217e-06
1.03946e-06
3.83476e-06
4.35123e-06
-7.82439e-06
8.95905e-06
-1.35667e-05
1.4085e-05
-1.56296e-05
1.94044e-05
-1.62189e-05
2.48218e-05
-1.63955e-05
3.03273e-05
-1.657e-05
3.59294e-05
-1.68306e-05
4.16229e-05
-1.71274e-05
4.73728e-05
-1.73545e-05
5.31051e-05
-1.73744e-05
5.86962e-05
-1.70154e-05
6.39575e-05
-1.60559e-05
6.86181e-05
-1.42057e-05
7.2311e-05
-1.10838e-05
7.45775e-05
-6.2038e-06
7.49418e-05
1.09016e-06
7.28781e-05
1.16119e-05
6.75694e-05
2.59789e-05
5.77213e-05
4.3526e-05
4.1701e-05
6.02301e-05
2.08016e-05
5.93055e-05
1.38794e-05
2.27923e-06
1.55554e-06
6.22802e-06
-1.17732e-05
1.10149e-05
-1.83536e-05
1.61281e-05
-2.07427e-05
2.13749e-05
-2.14657e-05
2.67141e-05
-2.17348e-05
3.21487e-05
-2.20045e-05
3.76825e-05
-2.23644e-05
4.33026e-05
-2.27475e-05
4.897e-05
-2.30218e-05
5.46118e-05
-2.30163e-05
6.01115e-05
-2.25151e-05
6.52941e-05
-2.12386e-05
6.99109e-05
-1.88224e-05
7.36296e-05
-1.48026e-05
7.60382e-05
-8.61233e-06
7.66883e-05
4.39996e-07
7.51331e-05
1.31671e-05
7.08611e-05
3.02509e-05
6.30527e-05
5.13343e-05
5.00254e-05
7.32574e-05
2.97496e-05
7.95813e-05
4.36291e-05
2.98706e-06
-1.43152e-06
7.53391e-06
-1.632e-05
1.25653e-05
-2.3385e-05
1.77236e-05
-2.5901e-05
2.2933e-05
-2.66751e-05
2.82097e-05
-2.70115e-05
3.3576e-05
-2.73708e-05
3.9038e-05
-2.78264e-05
4.45809e-05
-2.82904e-05
5.01661e-05
-2.8607e-05
5.57258e-05
-2.8576e-05
6.11534e-05
-2.79426e-05
6.62892e-05
-2.63744e-05
7.09061e-05
-2.34393e-05
7.47029e-05
-1.85994e-05
7.73115e-05
-1.1221e-05
7.83312e-05
-5.79716e-07
7.73692e-05
1.41291e-05
7.39989e-05
3.36213e-05
6.75064e-05
5.78269e-05
5.62426e-05
8.45212e-05
3.63728e-05
9.94511e-05
8.00019e-05
3.41654e-06
-4.84806e-06
8.4292e-06
-2.13327e-05
1.36922e-05
-2.8648e-05
1.89143e-05
-3.11231e-05
2.41067e-05
-3.18675e-05
2.93343e-05
-3.22391e-05
3.4638e-05
-3.26745e-05
4.00289e-05
-3.32173e-05
4.54941e-05
-3.37557e-05
5.09993e-05
-3.41122e-05
5.64847e-05
-3.40614e-05
6.18567e-05
-3.33147e-05
6.69732e-05
-3.14909e-05
7.16289e-05
-2.8095e-05
7.55511e-05
-2.25215e-05
7.8412e-05
-1.40819e-05
7.98631e-05
-2.03089e-06
7.95648e-05
1.44274e-05
7.7143e-05
3.6043e-05
7.19113e-05
6.30586e-05
6.22007e-05
9.42317e-05
4.28915e-05
0.00011876
0.000122893
3.70914e-06
-8.5572e-06
9.04221e-06
-2.66658e-05
1.44756e-05
-3.40814e-05
1.97451e-05
-3.63926e-05
2.49214e-05
-3.70438e-05
3.01038e-05
-3.74215e-05
3.53465e-05
-3.79172e-05
4.0665e-05
-3.85358e-05
4.60503e-05
-3.9141e-05
5.14746e-05
-3.95364e-05
5.68892e-05
-3.9476e-05
6.2216e-05
-3.86415e-05
6.73326e-05
-3.66075e-05
7.20565e-05
-3.28189e-05
7.61422e-05
-2.66072e-05
7.92995e-05
-1.72392e-05
8.12334e-05
-3.96476e-06
8.16696e-05
1.39913e-05
8.03164e-05
3.73962e-05
7.65847e-05
6.67903e-05
6.89681e-05
0.000101848
5.11083e-05
0.00013662
0.000174002
3.92679e-06
-1.2484e-05
9.46124e-06
-3.22002e-05
1.49859e-05
-3.9606e-05
2.02659e-05
-4.16727e-05
2.5413e-05
-4.21908e-05
3.05458e-05
-4.25543e-05
3.57241e-05
-4.30955e-05
4.09659e-05
-4.37776e-05
4.62664e-05
-4.44415e-05
5.1606e-05
-4.4876e-05
5.69487e-05
-4.48187e-05
6.22344e-05
-4.39271e-05
6.73625e-05
-4.17356e-05
7.21741e-05
-3.76305e-05
7.64491e-05
-3.08822e-05
7.99325e-05
-2.07226e-05
8.23825e-05
-6.41473e-06
8.36068e-05
1.27669e-05
8.34489e-05
3.75541e-05
8.15783e-05
6.86609e-05
7.69581e-05
0.000106469
6.15199e-05
0.000152058
0.000235521
-1.49275e-06
1.49275e-06
-8.64564e-06
7.15282e-06
-1.41927e-05
5.54703e-06
-1.64259e-05
2.23337e-06
-1.60296e-05
-3.96183e-07
-1.41649e-05
-1.86478e-06
-1.17579e-05
-2.40712e-06
-9.29084e-06
-2.46698e-06
-7.01519e-06
-2.27559e-06
-5.0874e-06
-1.92782e-06
-3.55355e-06
-1.53399e-06
-2.38757e-06
-1.16599e-06
-1.54954e-06
-8.37994e-07
-1.00565e-06
-5.43999e-07
-7.0392e-07
-3.01695e-07
-5.56591e-07
-1.47241e-07
-4.36406e-07
-1.20368e-07
-2.37286e-07
-1.99044e-07
-2.3736e-07
-5.92445e-06
7.41724e-06
-1.31493e-05
1.43778e-05
-1.73266e-05
9.72436e-06
-1.83454e-05
3.2522e-06
-1.7427e-05
-1.31453e-06
-1.54501e-05
-3.84168e-06
-1.29677e-05
-4.88964e-06
-1.0397e-05
-5.03774e-06
-7.99292e-06
-4.67969e-06
-5.90672e-06
-4.01406e-06
-4.20316e-06
-3.23755e-06
-2.88592e-06
-2.48333e-06
-1.92284e-06
-1.80121e-06
-1.26022e-06
-1.20663e-06
-8.35571e-07
-7.26434e-07
-5.77312e-07
-4.05719e-07
-4.04299e-07
-2.93464e-07
-2.36306e-07
-3.66937e-07
-4.73653e-07
-8.97992e-06
1.63972e-05
-1.54405e-05
2.08385e-05
-1.86359e-05
1.29199e-05
-1.9216e-05
3.83223e-06
-1.80724e-05
-2.45836e-06
-1.59792e-05
-5.93482e-06
-1.34512e-05
-7.41756e-06
-1.08567e-05
-7.63233e-06
-8.42542e-06
-7.11112e-06
-6.2899e-06
-6.14954e-06
-4.51797e-06
-5.0096e-06
-3.12783e-06
-3.87363e-06
-2.09571e-06
-2.83346e-06
-1.36882e-06
-1.93368e-06
-8.8203e-07
-1.21325e-06
-5.69203e-07
-7.18459e-07
-3.68998e-07
-4.93669e-07
-2.0118e-07
-5.34656e-07
-6.74867e-07
-1.13466e-05
2.77438e-05
-1.74078e-05
2.68996e-05
-1.99333e-05
1.54454e-05
-2.00427e-05
3.9416e-06
-1.85749e-05
-3.92625e-06
-1.62797e-05
-8.23013e-06
-1.36576e-05
-1.00396e-05
-1.10334e-05
-1.02565e-05
-8.59815e-06
-9.54652e-06
-6.45635e-06
-8.29138e-06
-4.66416e-06
-6.80178e-06
-3.24158e-06
-5.29628e-06
-2.17186e-06
-3.90302e-06
-1.40726e-06
-2.69823e-06
-8.84414e-07
-1.73621e-06
-5.40574e-07
-1.06229e-06
-3.20773e-07
-7.13527e-07
-1.53524e-07
-7.02032e-07
-8.28421e-07
-1.39173e-05
4.16611e-05
-1.95606e-05
3.25428e-05
-2.14453e-05
1.73301e-05
-2.09648e-05
3.46114e-06
-1.90492e-05
-5.84185e-06
-1.6455e-05
-1.08244e-05
-1.36761e-05
-1.28184e-05
-1.09966e-05
-1.29359e-05
-8.56176e-06
-1.19813e-05
-6.43849e-06
-1.04145e-05
-4.66013e-06
-8.58003e-06
-3.23819e-06
-6.71828e-06
-2.15875e-06
-4.98253e-06
-1.38006e-06
-3.47699e-06
-8.42773e-07
-2.27335e-06
-4.87038e-07
-1.418e-06
-2.61466e-07
-9.393e-07
-1.05332e-07
-8.58352e-07
-9.33768e-07
-1.72988e-05
5.896e-05
-2.20653e-05
3.73093e-05
-2.31822e-05
1.8447e-05
-2.19789e-05
2.25778e-06
-1.95034e-05
-8.31716e-06
-1.65187e-05
-1.38091e-05
-1.35219e-05
-1.58152e-05
-1.0758e-05
-1.56998e-05
-8.32131e-06
-1.4418e-05
-6.23367e-06
-1.25021e-05
-4.4972e-06
-1.03166e-05
-3.10682e-06
-8.10864e-06
-2.0463e-06
-6.0429e-06
-1.27868e-06
-4.24462e-06
-7.49609e-07
-2.8026e-06
-4.0245e-07
-1.76528e-06
-1.89711e-07
-1.15216e-06
-5.97573e-08
-9.88229e-07
-9.93614e-07
-2.15931e-05
8.05532e-05
-2.47243e-05
4.04405e-05
-2.49704e-05
1.86932e-05
-2.29757e-05
2.6316e-07
-1.98875e-05
-1.14052e-05
-1.64492e-05
-1.72474e-05
-1.31866e-05
-1.90777e-05
-1.03142e-05
-1.85722e-05
-7.87285e-06
-1.68593e-05
-5.83443e-06
-1.45404e-05
-4.16399e-06
-1.19871e-05
-2.83416e-06
-9.43846e-06
-1.82151e-06
-7.05551e-06
-1.09164e-06
-4.97465e-06
-5.94833e-07
-3.2997e-06
-2.78194e-07
-2.08183e-06
-9.95277e-08
-1.33085e-06
-1.34794e-08
-1.0743e-06
-1.0071e-06
-2.89025e-05
0.000109456
-2.67486e-05
3.82867e-05
-2.6366e-05
1.83107e-05
-2.37241e-05
-2.37874e-06
-2.00805e-05
-1.50487e-05
-1.6179e-05
-2.1149e-05
-1.26366e-05
-2.26201e-05
-9.65225e-06
-2.15566e-05
-7.2134e-06
-1.92982e-05
-5.24026e-06
-1.65137e-05
-3.65894e-06
-1.35685e-05
-2.41726e-06
-1.06802e-05
-1.48017e-06
-7.99274e-06
-8.13021e-07
-5.64183e-06
-3.71106e-07
-3.74152e-06
-1.06605e-07
-2.34614e-06
1.79288e-08
-1.45542e-06
3.59414e-08
-1.0922e-06
-9.71238e-07
8.79717e-06
-2.12812e-05
2.10206e-05
-4.44237e-05
3.27828e-05
-5.13682e-05
4.38857e-05
-5.27757e-05
5.46827e-05
-5.29878e-05
6.54215e-05
-5.32931e-05
7.62183e-05
-5.38924e-05
8.71117e-05
-5.4671e-05
9.81054e-05
-5.54352e-05
0.000109186
-5.59565e-05
0.000120322
-5.59549e-05
0.000131452
-5.50565e-05
0.00014244
-5.27241e-05
0.000153025
-4.82159e-05
0.000162811
-4.06678e-05
0.000171352
-2.92633e-05
0.000178301
-1.3364e-05
0.000183544
7.52381e-06
0.000187319
3.37794e-05
0.000190281
6.56991e-05
0.000193328
0.000103421
0.000199293
0.000146094
0.000201682
0.000233132
9.51206e-06
-3.07932e-05
2.16191e-05
-5.65307e-05
3.29227e-05
-6.26718e-05
4.35576e-05
-6.34105e-05
5.39613e-05
-6.33915e-05
6.43488e-05
-6.36806e-05
7.47938e-05
-6.43374e-05
8.53186e-05
-6.51958e-05
9.59361e-05
-6.60527e-05
0.000106662
-6.66828e-05
0.000117521
-6.68138e-05
0.000128542
-6.60774e-05
0.000139708
-6.38903e-05
0.00015085
-5.93577e-05
0.000161618
-5.14354e-05
0.000171617
-3.92625e-05
0.000180647
-2.2394e-05
0.000188842
-6.70982e-07
0.000196855
2.57662e-05
0.000206186
5.6368e-05
0.000219429
9.01778e-05
0.000239708
0.000125815
0.000169369
0.000272022
1.02307e-05
-4.10239e-05
2.18317e-05
-6.81316e-05
3.23654e-05
-7.32056e-05
4.23665e-05
-7.34115e-05
5.22671e-05
-7.32922e-05
6.22113e-05
-7.36249e-05
7.22247e-05
-7.43507e-05
8.23094e-05
-7.52805e-05
9.24762e-05
-7.62195e-05
0.00010275
-7.69563e-05
0.000113182
-7.72465e-05
0.00012389
-7.67854e-05
0.000134999
-7.49987e-05
0.000146429
-7.07875e-05
0.000157813
-6.28196e-05
0.000168701
-5.01508e-05
0.000178939
-3.2632e-05
0.000188693
-1.04247e-05
0.000198567
1.58918e-05
0.000209848
4.50871e-05
0.000223965
7.60605e-05
0.000241816
0.000107964
0.000142333
0.000268852
1.07113e-05
-5.17352e-05
2.16289e-05
-7.90493e-05
3.14124e-05
-8.2989e-05
4.08108e-05
-8.281e-05
5.01917e-05
-8.26731e-05
5.96396e-05
-8.30728e-05
6.9151e-05
-8.3862e-05
7.87126e-05
-8.48421e-05
8.83208e-05
-8.58276e-05
9.79729e-05
-8.66084e-05
0.000107689
-8.69628e-05
0.000117641
-8.67377e-05
0.000128136
-8.5493e-05
0.000139195
-8.1847e-05
0.000150375
-7.39988e-05
0.000161075
-6.08515e-05
0.000171223
-4.27799e-05
0.000181004
-2.02056e-05
0.000190889
6.00727e-06
0.000202129
3.38467e-05
0.000215888
6.23017e-05
0.000233063
9.0789e-05
0.000119624
0.000255772
1.05686e-05
-6.23038e-05
2.11552e-05
-8.96359e-05
3.05267e-05
-9.23605e-05
3.94408e-05
-9.17241e-05
4.83023e-05
-9.15346e-05
5.72103e-05
-9.19808e-05
6.61591e-05
-9.28108e-05
7.5124e-05
-9.38071e-05
8.40802e-05
-9.47838e-05
9.29631e-05
-9.54913e-05
0.000101657
-9.56567e-05
0.000110293
-9.53741e-05
0.000119378
-9.45772e-05
0.00012902
-9.14892e-05
0.00013867
-8.36491e-05
0.000147552
-6.97332e-05
0.000156005
-5.1233e-05
0.000164515
-2.87162e-05
0.000173254
-2.73158e-06
0.000184123
2.2978e-05
0.000197769
4.86557e-05
0.000214889
7.36684e-05
9.86317e-05
0.000235882
1.00921e-05
-7.23958e-05
2.12636e-05
-0.000100808
3.03257e-05
-0.000101423
3.86306e-05
-0.000100029
4.68678e-05
-9.97717e-05
5.516e-05
-0.000100273
6.34765e-05
-0.000101127
7.17683e-05
-0.000102099
7.99976e-05
-0.000103013
8.80713e-05
-0.000103565
9.56866e-05
-0.000103272
0.00010275
-0.000102437
0.000109755
-0.000101583
0.000116721
-9.84546e-05
0.00012317
-9.00985e-05
0.000128295
-7.48583e-05
0.000133651
-5.65887e-05
0.000140039
-3.5104e-05
0.000148788
-1.14804e-05
0.000161299
1.04665e-05
0.000176606
3.33487e-05
0.000194813
5.54617e-05
7.7015e-05
0.00021643
1.27595e-05
-8.51553e-05
2.37533e-05
-0.000111801
3.08553e-05
-0.000108524
3.80192e-05
-0.000107193
4.55356e-05
-0.000107288
5.32144e-05
-0.000107952
6.09061e-05
-0.000108819
6.85123e-05
-0.000109705
7.59535e-05
-0.000110454
8.31676e-05
-0.000110779
9.00188e-05
-0.000110123
9.63217e-05
-0.00010874
0.000101368
-0.000106629
0.000104887
-0.000101974
0.000107794
-9.30055e-05
0.000108017
-7.50808e-05
0.000110236
-5.8808e-05
0.000115055
-3.99234e-05
0.00012478
-2.12053e-05
0.00013797
-2.72367e-06
0.000153983
1.7336e-05
0.000173344
3.61008e-05
5.38012e-05
0.000196558
2.69833e-05
-0.000112139
3.02711e-05
-0.000115089
3.1319e-05
-0.000109572
3.71359e-05
-0.00011301
4.4213e-05
-0.000114365
5.15922e-05
-0.000115331
5.904e-05
-0.000116267
6.64528e-05
-0.000117118
7.3678e-05
-0.000117679
8.07384e-05
-0.00011784
8.80932e-05
-0.000117478
9.46239e-05
-0.000115271
9.72653e-05
-0.000109271
9.68171e-05
-0.000101526
0.000103933
-0.000100122
0.000122364
-9.35115e-05
0.000141162
-7.76057e-05
0.000158408
-5.71702e-05
0.000173282
-3.60794e-05
0.000186554
-1.5995e-05
0.000199669
4.22044e-06
0.000207905
2.78654e-05
4.91187e-05
0.000212587
6.11747e-05
-0.000173313
4.47423e-05
-9.86567e-05
3.2455e-05
-9.72851e-05
3.70689e-05
-0.000117624
4.46054e-05
-0.000121902
5.22519e-05
-0.000122978
5.98116e-05
-0.000123826
6.72319e-05
-0.000124538
7.45976e-05
-0.000125045
8.31279e-05
-0.00012637
9.60178e-05
-0.000130368
0.000108847
-0.0001281
0.000120668
-0.000121091
0.000132961
-0.000113819
0.00014176
-0.00010892
0.000150792
-0.000102543
0.000163325
-9.01392e-05
0.00017889
-7.27352e-05
0.000196407
-5.35961e-05
0.000214658
-3.4246e-05
0.000232975
-1.40974e-05
0.000253502
7.3389e-06
2.90604e-05
0.00027356
1.80699e-05
-0.000191383
2.48935e-05
-0.00010548
3.46842e-05
-0.000107076
4.14245e-05
-0.000124364
5.07537e-05
-0.000131231
6.09764e-05
-0.0001332
7.15798e-05
-0.00013443
8.24162e-05
-0.000135375
9.35395e-05
-0.000136168
0.000104301
-0.000137131
0.000112013
-0.00013808
0.000119542
-0.000135629
0.000128212
-0.000129761
0.00013742
-0.000123028
0.000145525
-0.000117025
0.000152683
-0.000109701
0.000161545
-9.90014e-05
0.000173839
-8.50293e-05
0.00018975
-6.95074e-05
0.000209175
-5.36703e-05
0.000232627
-3.75498e-05
0.000260598
-2.06312e-05
-1.32623e-06
0.000290984
-1.88008e-05
-0.000172582
8.25325e-06
-0.000132534
3.06687e-05
-0.000129491
4.34976e-05
-0.000137193
5.3979e-05
-0.000141712
6.41046e-05
-0.000143326
7.39375e-05
-0.000144263
8.35254e-05
-0.000144963
9.27293e-05
-0.000145372
0.000100988
-0.000145389
0.000107315
-0.000144407
0.000112871
-0.000141184
0.000118815
-0.000135705
0.000124922
-0.000129136
0.000130237
-0.000122339
0.000135145
-0.00011461
0.000141322
-0.000105179
0.000150518
-9.4225e-05
0.000163819
-8.28085e-05
0.000182002
-7.18529e-05
0.000205865
-6.14131e-05
0.000235453
-5.02192e-05
-3.4468e-05
0.000268595
-9.06243e-06
-0.00016352
1.05569e-05
-0.000152154
2.86102e-05
-0.000147544
4.05745e-05
-0.000149157
4.98084e-05
-0.000150946
5.83405e-05
-0.000151858
6.64549e-05
-0.000152377
7.40864e-05
-0.000152594
8.10327e-05
-0.000152318
8.69163e-05
-0.000151273
9.14905e-05
-0.000148982
9.5216e-05
-0.00014491
9.86333e-05
-0.000139122
0.000101779
-0.000132281
0.000104389
-0.000124949
0.000106941
-0.000117162
0.000110672
-0.000108909
0.000117085
-0.000100638
0.000127525
-9.32486e-05
0.000143242
-8.75693e-05
0.00016548
-8.36511e-05
0.00019475
-7.94896e-05
-6.83844e-05
0.000228666
2.18673e-06
-0.000165707
1.24985e-05
-0.000162466
2.38265e-05
-0.000158872
3.29123e-05
-0.000158243
4.03912e-05
-0.000158425
4.71222e-05
-0.000158589
5.33066e-05
-0.000158561
5.88643e-05
-0.000158152
6.36172e-05
-0.000157071
6.73443e-05
-0.000155
6.99672e-05
-0.000151605
7.17074e-05
-0.00014665
7.28612e-05
-0.000140276
7.35598e-05
-0.00013298
7.39099e-05
-0.000125299
7.44047e-05
-0.000117657
7.60012e-05
-0.000110506
7.99099e-05
-0.000104547
8.74126e-05
-0.000100751
9.99289e-05
-0.000100086
0.000119053
-0.000102775
0.000145829
-0.000106266
-0.00010116
0.000178605
3.51536e-06
-0.000169222
1.00148e-05
-0.000168965
1.70039e-05
-0.000165862
2.32286e-05
-0.000164468
2.8626e-05
-0.000163822
3.34045e-05
-0.000163367
3.75984e-05
-0.000162755
4.11099e-05
-0.000161663
4.37962e-05
-0.000159758
4.5529e-05
-0.000156733
4.62822e-05
-0.000152358
4.61943e-05
-0.000146562
4.54708e-05
-0.000139553
4.42953e-05
-0.000131805
4.29096e-05
-0.000123914
4.17693e-05
-0.000116517
4.15877e-05
-0.000110324
4.32552e-05
-0.000106215
4.77724e-05
-0.000105269
5.63197e-05
-0.000108633
7.03375e-05
-0.000116793
9.06771e-05
-0.000126606
-0.000126237
0.000115754
2.3346e-06
-0.000171557
5.63011e-06
-0.00017226
9.55882e-06
-0.00016979
1.32485e-05
-0.000168157
1.64996e-05
-0.000167073
1.92692e-05
-0.000166137
2.14865e-05
-0.000164973
2.30421e-05
-0.000163219
2.38255e-05
-0.000160541
2.37636e-05
-0.000156671
2.28654e-05
-0.00015146
2.12426e-05
-0.000144939
1.90709e-05
-0.000137381
1.65506e-05
-0.000129284
1.39391e-05
-0.000121302
1.16034e-05
-0.000114181
1.00253e-05
-0.000108746
9.74752e-06
-0.000105937
1.13522e-05
-0.000106873
1.54614e-05
-0.000112742
2.25217e-05
-0.000123854
3.30981e-05
-0.000137182
-0.000140285
4.71457e-05
2.22621e-07
-0.000171779
1.07624e-06
-0.000173114
2.48469e-06
-0.000171199
3.90022e-06
-0.000169573
5.08968e-06
-0.000168263
5.91606e-06
-0.000166963
6.26279e-06
-0.000165319
6.02358e-06
-0.00016298
5.11834e-06
-0.000159636
3.51505e-06
-0.000155068
1.25008e-06
-0.000149195
-1.56706e-06
-0.000142122
-4.77538e-06
-0.000134173
-8.18555e-06
-0.000125874
-1.15795e-05
-0.000117908
-1.47068e-05
-0.000111054
-1.73067e-05
-0.000106146
-1.91646e-05
-0.000104079
-2.02077e-05
-0.00010583
-2.05912e-05
-0.000112359
-2.05377e-05
-0.000123907
-1.99872e-05
-0.000137733
-0.000143052
-1.72197e-05
-1.8401e-06
-0.000169939
-3.05477e-06
-0.000171899
-3.77433e-06
-0.000170479
-4.3587e-06
-0.000168988
-5.04258e-06
-0.000167579
-5.99058e-06
-0.000166015
-7.32694e-06
-0.000163983
-9.14165e-06
-0.000161165
-1.14835e-05
-0.000157294
-1.43503e-05
-0.000152201
-1.76816e-05
-0.000145863
-2.13638e-05
-0.00013844
-2.52486e-05
-0.000130288
-2.91766e-05
-0.000121946
-3.29929e-05
-0.000114092
-3.65665e-05
-0.00010748
-3.98283e-05
-0.000102884
-4.28434e-05
-0.000101064
-4.59343e-05
-0.000102739
-4.98059e-05
-0.000108487
-5.54241e-05
-0.000118289
-6.3069e-05
-0.000130088
-0.000136706
-6.94161e-05
-3.58989e-06
-0.000166349
-6.54642e-06
-0.000168943
-9.02959e-06
-0.000167996
-1.1315e-05
-0.000166703
-1.36223e-05
-0.000165271
-1.61108e-05
-0.000163527
-1.88906e-05
-0.000161203
-2.20264e-05
-0.000158029
-2.55358e-05
-0.000153784
-2.9387e-05
-0.00014835
-3.35014e-05
-0.000141749
-3.77644e-05
-0.000134177
-4.20461e-05
-0.000126006
-4.62265e-05
-0.000117766
-5.02207e-05
-0.000110098
-5.4007e-05
-0.000103694
-5.76689e-05
-9.92225e-05
-6.14657e-05
-9.72671e-05
-6.59476e-05
-9.82574e-05
-7.20708e-05
-0.000102364
-8.11061e-05
-0.000109254
-9.37389e-05
-0.000117455
-0.000123299
-0.000107146
-4.95451e-06
-0.000161394
-9.31235e-06
-0.000164585
-1.3213e-05
-0.000164095
-1.68933e-05
-0.000163023
-2.05464e-05
-0.000161618
-2.431e-05
-0.000159763
-2.82699e-05
-0.000157243
-3.24625e-05
-0.000153837
-3.68772e-05
-0.00014937
-4.14595e-05
-0.000143767
-4.61195e-05
-0.000137089
-5.07477e-05
-0.000129549
-5.52378e-05
-0.000121516
-5.95129e-05
-0.000113491
-6.35541e-05
-0.000106057
-6.74294e-05
-9.98183e-05
-7.13301e-05
-9.53218e-05
-7.5625e-05
-9.29721e-05
-8.09393e-05
-9.29432e-05
-8.82287e-05
-9.50748e-05
-9.87301e-05
-9.87526e-05
-0.000113411
-0.000102774
-0.000105551
-0.000131159
-5.92923e-06
-0.000155465
-1.1346e-05
-0.000159168
-1.63406e-05
-0.0001591
-2.11147e-05
-0.000158248
-2.58305e-05
-0.000156902
-3.05977e-05
-0.000154996
-3.54742e-05
-0.000152367
-4.04703e-05
-0.00014884
-4.55522e-05
-0.000144288
-5.06501e-05
-0.00013867
-5.56705e-05
-0.000132069
-6.05144e-05
-0.000124705
-6.51015e-05
-0.000116929
-6.93962e-05
-0.000109196
-7.34342e-05
-0.000102019
-7.73485e-05
-9.59041e-05
-8.13945e-05
-9.12759e-05
-8.5981e-05
-8.83856e-05
-9.17085e-05
-8.72157e-05
-9.93984e-05
-8.73848e-05
-0.000110065
-8.80864e-05
-0.000124672
-8.8167e-05
-8.68121e-05
-0.000143411
-6.5422e-06
-0.000148923
-1.26942e-05
-0.000153016
-1.84818e-05
-0.000153313
-2.4065e-05
-0.000152665
-2.95717e-05
-0.000151396
-3.50817e-05
-0.000149486
-4.06269e-05
-0.000146821
-4.61952e-05
-0.000143272
-5.17367e-05
-0.000138746
-5.71732e-05
-0.000133233
-6.24139e-05
-0.000126828
-6.73741e-05
-0.000119745
-7.19987e-05
-0.000112304
-7.62866e-05
-0.000104908
-8.03134e-05
-9.79919e-05
-8.42509e-05
-9.19666e-05
-8.83809e-05
-8.71459e-05
-9.31049e-05
-8.36617e-05
-9.89488e-05
-8.13718e-05
-0.000106558
-7.97754e-05
-0.000116671
-7.7974e-05
-0.000130044
-7.4794e-05
-6.95135e-05
-0.000147343
-6.83749e-06
-0.000142085
-1.34341e-05
-0.000146419
-1.97423e-05
-0.000147005
-2.58738e-05
-0.000146534
-3.19206e-05
-0.000145349
-3.79341e-05
-0.000143472
-4.39235e-05
-0.000140832
-4.98601e-05
-0.000137335
-5.56838e-05
-0.000132923
-6.13147e-05
-0.000127602
-6.66685e-05
-0.000121474
-7.16762e-05
-0.000114737
-7.63048e-05
-0.000107676
-8.05787e-05
-0.000100634
-8.4598e-05
-9.39727e-05
-8.85503e-05
-8.80144e-05
-9.27147e-05
-8.29814e-05
-9.74568e-05
-7.89198e-05
-0.00010321
-7.56187e-05
-0.000110449
-7.2537e-05
-0.000119652
-6.87704e-05
-0.000131293
-6.31538e-05
-5.48829e-05
-0.000145923
-6.87165e-06
-0.000135214
-1.36616e-05
-0.000139629
-2.02497e-05
-0.000140416
-2.66972e-05
-0.000140086
-3.30605e-05
-0.000138986
-3.9365e-05
-0.000137168
-4.56018e-05
-0.000134595
-5.17306e-05
-0.000131207
-5.76867e-05
-0.000126967
-6.33928e-05
-0.000121896
-6.8774e-05
-0.000116093
-7.37758e-05
-0.000109735
-7.83828e-05
-0.000103069
-8.26359e-05
-9.63812e-05
-8.66454e-05
-8.99633e-05
-9.05974e-05
-8.40628e-05
-9.47495e-05
-7.88293e-05
-9.94165e-05
-7.42527e-05
-0.00010494
-7.00951e-05
-0.000111648
-6.58288e-05
-0.000119813
-6.06061e-05
-0.00012964
-5.33264e-05
-4.31373e-05
-0.000141386
-6.70566e-06
-0.000128508
-1.34796e-05
-0.000132855
-2.01417e-05
-0.000133754
-2.67043e-05
-0.000133524
-3.31905e-05
-0.000132499
-3.9603e-05
-0.000130755
-4.59188e-05
-0.000128279
-5.20907e-05
-0.000125035
-5.80535e-05
-0.000121004
-6.37354e-05
-0.000116214
-6.90715e-05
-0.000110757
-7.40202e-05
-0.000104787
-7.85783e-05
-9.85107e-05
-8.2795e-05
-9.21644e-05
-8.67801e-05
-8.5978e-05
-9.07062e-05
-8.01368e-05
-9.4799e-05
-7.47365e-05
-9.93183e-05
-6.97334e-05
-0.000104523
-6.48904e-05
-0.000110626
-5.9726e-05
-0.000117747
-5.34854e-05
-0.000125895
-4.51779e-05
-3.39693e-05
-0.000135063
-6.39726e-06
-0.000122111
-1.29887e-05
-0.000126263
-1.95547e-05
-0.000127188
-2.60648e-05
-0.000127013
-3.25118e-05
-0.000126052
-3.88795e-05
-0.000124388
-4.51344e-05
-0.000122024
-5.12257e-05
-0.000118943
-5.7091e-05
-0.000115138
-6.2665e-05
-0.00011064
-6.78929e-05
-0.000105529
-7.2743e-05
-9.99365e-05
-7.72202e-05
-9.40336e-05
-8.13751e-05
-8.80095e-05
-8.531e-05
-8.20431e-05
-8.91763e-05
-7.62705e-05
-9.3164e-05
-7.07487e-05
-9.748e-05
-6.54174e-05
-0.000102313
-6.00571e-05
-0.000107791
-5.42488e-05
-0.000113929
-4.73469e-05
-0.000120614
-3.84935e-05
-2.69208e-05
-0.000127662
-5.99644e-06
-0.000116114
-1.22808e-05
-0.000119979
-1.86169e-05
-0.000120852
-2.49398e-05
-0.00012069
-3.12172e-05
-0.000119775
-3.7417e-05
-0.000118188
-4.34982e-05
-0.000115943
-4.94093e-05
-0.000113032
-5.50919e-05
-0.000109456
-6.04885e-05
-0.000105243
-6.55528e-05
-0.000100464
-7.0261e-05
-9.52282e-05
-7.46216e-05
-8.96729e-05
-7.86826e-05
-8.39484e-05
-8.25337e-05
-7.81919e-05
-8.63027e-05
-7.25016e-05
-9.01432e-05
-6.69081e-05
-9.42147e-05
-6.13459e-05
-9.86497e-05
-5.5622e-05
-0.000103514
-4.93845e-05
-0.000108762
-4.20986e-05
-0.000114211
-3.30445e-05
-2.15452e-05
-0.000119587
-5.54394e-06
-0.00011057
-1.14359e-05
-0.000114087
-1.74427e-05
-0.000114845
-2.34761e-05
-0.000114657
-2.94832e-05
-0.000113768
-3.54198e-05
-0.000112251
-4.12401e-05
-0.000110123
-4.68931e-05
-0.000107379
-5.23258e-05
-0.000104023
-5.74881e-05
-0.000100081
-6.23414e-05
-9.56111e-05
-6.68674e-05
-9.07022e-05
-7.10755e-05
-8.54648e-05
-7.50077e-05
-8.00161e-05
-7.87395e-05
-7.44603e-05
-8.2374e-05
-6.8867e-05
-8.60315e-05
-6.32504e-05
-8.98304e-05
-5.7547e-05
-9.38594e-05
-5.15931e-05
-9.81424e-05
-4.51015e-05
-0.000102601
-3.764e-05
-0.000107026
-2.86196e-05
-1.74601e-05
-0.000111111
-5.07115e-06
-0.000105499
-1.05201e-05
-0.000108638
-1.61305e-05
-0.000109235
-2.1801e-05
-0.000108987
-2.74644e-05
-0.000108104
-3.30679e-05
-0.000106648
-3.85624e-05
-0.000104629
-4.38993e-05
-0.000102042
-4.90309e-05
-9.88915e-05
-5.39143e-05
-9.51977e-05
-5.85174e-05
-9.1008e-05
-6.28256e-05
-8.63939e-05
-6.68474e-05
-8.14429e-05
-7.06176e-05
-7.62459e-05
-7.41961e-05
-7.08817e-05
-7.76637e-05
-6.53995e-05
-8.11108e-05
-5.98033e-05
-8.46217e-05
-5.40361e-05
-8.82515e-05
-4.79633e-05
-9.19972e-05
-4.13557e-05
-9.57663e-05
-3.38709e-05
-9.93506e-05
-2.50351e-05
-1.43604e-05
-0.00010245
-4.60017e-06
-0.000100899
-9.58458e-06
-0.000103654
-1.47597e-05
-0.00010406
-2.002e-05
-0.000103726
-2.52902e-05
-0.000102834
-3.05122e-05
-0.000101426
-3.56357e-05
-9.95051e-05
-4.06152e-05
-9.70628e-05
-4.54088e-05
-9.4098e-05
-4.99799e-05
-9.06267e-05
-5.43018e-05
-8.66861e-05
-5.83626e-05
-8.23331e-05
-6.21689e-05
-7.76367e-05
-6.57473e-05
-7.26676e-05
-6.91437e-05
-6.74852e-05
-7.24183e-05
-6.21249e-05
-7.56363e-05
-5.65853e-05
-7.88545e-05
-5.08178e-05
-8.21031e-05
-4.47147e-05
-8.53626e-05
-3.80962e-05
-8.8538e-05
-3.06954e-05
-9.14375e-05
-2.21356e-05
-1.201e-05
-9.37879e-05
-4.14373e-06
-9.67552e-05
-8.66468e-06
-9.91326e-05
-1.33894e-05
-9.9335e-05
-1.82145e-05
-9.89012e-05
-2.30622e-05
-9.79866e-05
-2.78722e-05
-9.66163e-05
-3.25956e-05
-9.47817e-05
-3.71909e-05
-9.24676e-05
-4.16215e-05
-8.96675e-05
-4.58569e-05
-8.63913e-05
-4.9875e-05
-8.2668e-05
-5.36652e-05
-7.85427e-05
-5.72319e-05
-7.40701e-05
-6.0594e-05
-6.93055e-05
-6.37847e-05
-6.42945e-05
-6.68467e-05
-5.90628e-05
-6.98245e-05
-5.36074e-05
-7.27537e-05
-4.78887e-05
-7.56462e-05
-4.18223e-05
-7.8473e-05
-3.52694e-05
-8.11443e-05
-2.80241e-05
-8.34906e-05
-1.97893e-05
-1.02277e-05
-8.5273e-05
-3.70559e-06
-9.30496e-05
-7.77994e-06
-9.50583e-05
-1.20583e-05
-9.50567e-05
-1.64417e-05
-9.45178e-05
-2.08537e-05
-9.35747e-05
-2.52359e-05
-9.22342e-05
-2.9543e-05
-9.04745e-05
-3.37385e-05
-8.82721e-05
-3.77915e-05
-8.56145e-05
-4.16766e-05
-8.25062e-05
-4.53754e-05
-7.89691e-05
-4.88785e-05
-7.50395e-05
-5.21873e-05
-7.07613e-05
-5.53143e-05
-6.61787e-05
-5.82815e-05
-6.13273e-05
-6.11173e-05
-5.6227e-05
-6.38497e-05
-5.0875e-05
-6.64981e-05
-4.52404e-05
-6.9062e-05
-3.92583e-05
-7.15081e-05
-3.28232e-05
-7.37549e-05
-2.57773e-05
-7.56574e-05
-1.78868e-05
-8.87219e-06
-7.7013e-05
-3.28205e-06
-8.97674e-05
-6.93733e-06
-9.14031e-05
-1.07873e-05
-9.12067e-05
-1.47359e-05
-9.05691e-05
-1.87114e-05
-8.95992e-05
-2.26611e-05
-8.82845e-05
-2.65457e-05
-8.65897e-05
-3.03351e-05
-8.44828e-05
-3.40039e-05
-8.19458e-05
-3.75315e-05
-7.89786e-05
-4.09025e-05
-7.55981e-05
-4.41079e-05
-7.1834e-05
-4.71466e-05
-6.77227e-05
-5.00251e-05
-6.33002e-05
-5.27566e-05
-5.85958e-05
-5.53577e-05
-5.36258e-05
-5.78439e-05
-4.83888e-05
-6.02227e-05
-4.28617e-05
-6.24853e-05
-3.69957e-05
-6.45974e-05
-3.07111e-05
-6.64874e-05
-2.38873e-05
-6.80345e-05
-1.63397e-05
-7.83595e-06
-6.90708e-05
-2.86678e-06
-8.69007e-05
-6.13834e-06
-8.81316e-05
-9.58602e-06
-8.7759e-05
-1.31143e-05
-8.70408e-05
-1.66597e-05
-8.60539e-05
-2.01791e-05
-8.47651e-05
-2.36422e-05
-8.31265e-05
-2.7026e-05
-8.10991e-05
-3.03108e-05
-7.8661e-05
-3.348e-05
-7.58093e-05
-3.65205e-05
-7.25577e-05
-3.94233e-05
-6.89312e-05
-4.2185e-05
-6.49611e-05
-4.48072e-05
-6.0678e-05
-4.7296e-05
-5.6107e-05
-4.9659e-05
-5.12628e-05
-5.19019e-05
-4.61459e-05
-5.40237e-05
-4.07399e-05
-5.60105e-05
-3.50089e-05
-5.7829e-05
-2.88926e-05
-5.94178e-05
-2.22985e-05
-6.06781e-05
-1.50794e-05
-7.03942e-06
-6.14747e-05
-2.46096e-06
-8.44398e-05
-5.38934e-06
-8.52033e-05
-8.46162e-06
-8.46866e-05
-1.15837e-05
-8.39188e-05
-1.47063e-05
-8.29313e-05
-1.78006e-05
-8.16708e-05
-2.08472e-05
-8.00798e-05
-2.38309e-05
-7.81154e-05
-2.6737e-05
-7.57548e-05
-2.95521e-05
-7.29942e-05
-3.22643e-05
-6.98455e-05
-3.48644e-05
-6.63311e-05
-3.7347e-05
-6.24785e-05
-3.971e-05
-5.8315e-05
-4.19538e-05
-5.38632e-05
-4.40794e-05
-4.91371e-05
-4.60854e-05
-4.41399e-05
-4.79645e-05
-3.88608e-05
-4.96995e-05
-3.32738e-05
-5.12591e-05
-2.7333e-05
-5.25915e-05
-2.0966e-05
-5.36175e-05
-1.40534e-05
-6.42619e-06
-5.42307e-05
-2.08514e-06
-8.23547e-05
-4.71064e-06
-8.25778e-05
-7.42539e-06
-8.19718e-05
-1.01463e-05
-8.11978e-05
-1.28484e-05
-8.02291e-05
-1.55215e-05
-7.89977e-05
-1.81584e-05
-7.74429e-05
-2.07505e-05
-7.55233e-05
-2.3287e-05
-7.32183e-05
-2.57559e-05
-7.05253e-05
-2.81457e-05
-6.74557e-05
-3.04467e-05
-6.40302e-05
-3.26518e-05
-6.02735e-05
-3.47564e-05
-5.62105e-05
-3.6757e-05
-5.18625e-05
-3.86499e-05
-4.72442e-05
-4.04286e-05
-4.23612e-05
-4.20812e-05
-3.72081e-05
-4.35884e-05
-3.17665e-05
-4.49201e-05
-2.60012e-05
-4.60328e-05
-1.98533e-05
-4.68643e-05
-1.32219e-05
-5.9564e-06
-4.73341e-05
-1.78025e-06
-8.05744e-05
-4.13705e-06
-8.02209e-05
-6.49286e-06
-7.96158e-05
-8.80153e-06
-7.8889e-05
-1.10763e-05
-7.79542e-05
-1.3329e-05
-7.67449e-05
-1.55631e-05
-7.52088e-05
-1.77739e-05
-7.33124e-05
-1.99518e-05
-7.10404e-05
-2.20845e-05
-6.83926e-05
-2.41599e-05
-6.53804e-05
-2.61673e-05
-6.20227e-05
-2.80987e-05
-5.8342e-05
-2.9948e-05
-5.43611e-05
-3.17099e-05
-5.01006e-05
-3.33779e-05
-4.55762e-05
-3.49422e-05
-4.07968e-05
-3.63877e-05
-3.57625e-05
-3.76927e-05
-3.04615e-05
-3.88271e-05
-2.48667e-05
-3.97524e-05
-1.89281e-05
-4.042e-05
-1.25543e-05
-5.60258e-06
-4.07738e-05
-1.59661e-06
-7.89778e-05
-3.7081e-06
-7.81095e-05
-5.67343e-06
-7.76503e-05
-7.53959e-06
-7.70228e-05
-9.37283e-06
-7.6121e-05
-1.12049e-05
-7.49128e-05
-1.3044e-05