/*--------------------------------*- C++ -*----------------------------------*\
  =========                 |
  \\      /  F ield         | OpenFOAM: The Open Source CFD Toolbox
   \\    /   O peration     | Website:  https://openfoam.org
    \\  /    A nd           | Version:  7
     \\/     M anipulation  |
\*---------------------------------------------------------------------------*/
FoamFile
{
    version     2.0;
    format      ascii;
    class       volVectorField;
    location    "0.25";
    object      U;
}
// * * * * * * * * * * * * * * * * * * * * * * * * * * * * * * * * * * * * * //

dimensions      [0 1 -1 0 0 0 0];

internalField   nonuniform List<vector> 
2268
(
(-0.0404687 0.0128012 0)
(-0.0445056 -0.00750021 0)
(-3.6384e-05 -0.0177439 0)
(0.0565605 -0.0207242 0)
(0.118157 -0.0210095 0)
(0.180778 -0.0206229 0)
(0.243484 -0.0203786 0)
(0.306663 -0.0204058 0)
(0.370902 -0.0206123 0)
(0.436392 -0.0208416 0)
(0.502747 -0.0209008 0)
(0.568913 -0.0205575 0)
(0.633006 -0.019519 0)
(0.692037 -0.0174019 0)
(0.741504 -0.0136183 0)
(0.774975 -0.00688444 0)
(0.781433 0.00539394 0)
(0.738209 0.0245407 0)
(0.630124 0.0494461 0)
(0.443758 0.073719 0)
(0.200802 0.0847003 0)
(-0.136771 0.039855 0)
(-0.144042 -0.0968921 0)
(-0.0205688 0.0272679 0)
(-0.0019242 -0.0153322 0)
(0.0441506 -0.0364315 0)
(0.100742 -0.0437978 0)
(0.161722 -0.0456752 0)
(0.224109 -0.0459987 0)
(0.28716 -0.046344 0)
(0.35107 -0.0470512 0)
(0.416107 -0.047971 0)
(0.482217 -0.0487687 0)
(0.548869 -0.0490106 0)
(0.614957 -0.048163 0)
(0.678652 -0.0455444 0)
(0.73717 -0.0402476 0)
(0.786579 -0.030982 0)
(0.821278 -0.0156399 0)
(0.836498 0.0092077 0)
(0.827717 0.0465118 0)
(0.779901 0.0965129 0)
(0.665734 0.151827 0)
(0.471667 0.191613 0)
(0.13472 0.158211 0)
(0.0510296 -0.0752486 0)
(5.60785e-05 0.0256114 0)
(0.025907 -0.0318548 0)
(0.0744754 -0.0601173 0)
(0.130959 -0.0703221 0)
(0.190854 -0.0732241 0)
(0.252206 -0.0740439 0)
(0.314522 -0.0748324 0)
(0.377896 -0.0760479 0)
(0.442407 -0.0774692 0)
(0.507851 -0.0786026 0)
(0.573627 -0.0788041 0)
(0.63864 -0.0772715 0)
(0.701151 -0.0729727 0)
(0.758585 -0.0645493 0)
(0.807358 -0.0501827 0)
(0.842632 -0.0274789 0)
(0.858923 0.00697559 0)
(0.851341 0.0575055 0)
(0.813538 0.126999 0)
(0.732865 0.210549 0)
(0.597708 0.284972 0)
(0.33795 0.266814 0)
(0.170147 0.0154361 0)
(0.0109692 0.0157295 0)
(0.0450632 -0.0517426 0)
(0.0973681 -0.0854594 0)
(0.154569 -0.0977626 0)
(0.213812 -0.101452 0)
(0.274235 -0.102728 0)
(0.335697 -0.103967 0)
(0.398298 -0.105672 0)
(0.462021 -0.107536 0)
(0.526585 -0.108916 0)
(0.591373 -0.108977 0)
(0.655337 -0.106669 0)
(0.716855 -0.100633 0)
(0.773551 -0.0890988 0)
(0.822139 -0.0697754 0)
(0.858322 -0.0398061 0)
(0.877035 0.00445815 0)
(0.873396 0.0673797 0)
(0.842551 0.152554 0)
(0.777225 0.257373 0)
(0.668835 0.362423 0)
(0.463678 0.37605 0)
(0.253484 0.156507 0)
(0.0157632 0.00102961 0)
(0.0576084 -0.0750199 0)
(0.114251 -0.112141 0)
(0.172836 -0.1256 0)
(0.231922 -0.129754 0)
(0.291688 -0.131438 0)
(0.352386 -0.133158 0)
(0.414193 -0.135373 0)
(0.477071 -0.137672 0)
(0.540722 -0.139276 0)
(0.604557 -0.139179 0)
(0.667614 -0.136108 0)
(0.728416 -0.128407 0)
(0.784793 -0.113923 0)
(0.833743 -0.0899447 0)
(0.871408 -0.0532201 0)
(0.893252 9.24182e-05 0)
(0.894857 0.0743465 0)
(0.871891 0.173333 0)
(0.818748 0.29594 0)
(0.725007 0.427639 0)
(0.553584 0.484115 0)
(0.316118 0.334835 0)
(0.0181385 -0.0165293 0)
(0.0657732 -0.101048 0)
(0.126292 -0.140058 0)
(0.18637 -0.153699 0)
(0.245547 -0.157889 0)
(0.304854 -0.159843 0)
(0.364891 -0.16201 0)
(0.425931 -0.16472 0)
(0.487954 -0.167436 0)
(0.55069 -0.169256 0)
(0.613619 -0.169028 0)
(0.675898 -0.16528 0)
(0.736226 -0.156082 0)
(0.792656 -0.138931 0)
(0.842461 -0.110734 0)
(0.882166 -0.0679109 0)
(0.907763 -0.00648086 0)
(0.915424 0.0778864 0)
(0.901319 0.189157 0)
(0.860825 0.327821 0)
(0.780761 0.484488 0)
(0.637815 0.590785 0)
(0.375164 0.549415 0)
(0.0197909 -0.0358984 0)
(0.0712701 -0.129077 0)
(0.134616 -0.169014 0)
(0.195821 -0.182067 0)
(0.25505 -0.185903 0)
(0.313948 -0.187964 0)
(0.373363 -0.190503 0)
(0.433633 -0.193659 0)
(0.494774 -0.19676 0)
(0.556571 -0.198795 0)
(0.618599 -0.198486 0)
(0.680169 -0.194188 0)
(0.740185 -0.183721 0)
(0.796945 -0.164248 0)
(0.847994 -0.132327 0)
(0.890207 -0.084109 0)
(0.920089 -0.0155382 0)
(0.934471 0.0776511 0)
(0.930309 0.199599 0)
(0.904308 0.352529 0)
(0.842073 0.532336 0)
(0.736609 0.695347 0)
(0.447311 0.795123 0)
(0.0213952 -0.0565011 0)
(0.075164 -0.158517 0)
(0.140123 -0.198655 0)
(0.201858 -0.210559 0)
(0.260907 -0.213746 0)
(0.319321 -0.215764 0)
(0.378077 -0.218582 0)
(0.437534 -0.222112 0)
(0.497737 -0.225551 0)
(0.558537 -0.227792 0)
(0.61963 -0.227458 0)
(0.680498 -0.222759 0)
(0.740283 -0.211287 0)
(0.797544 -0.189889 0)
(0.850099 -0.154794 0)
(0.895141 -0.101946 0)
(0.929663 -0.0273139 0)
(0.951221 0.0731982 0)
(0.957931 0.203705 0)
(0.948553 0.367711 0)
(0.911487 0.565598 0)
(0.855967 0.783364 0)
(0.538916 1.11467 0)
(0.0105952 0.00149822 0)
(-0.0473406 0.0230641 0)
(-0.145228 0.0195195 0)
(-0.183735 0.0081077 0)
(-0.189689 -0.000645311 0)
(-0.173574 -0.00581963 0)
(-0.148131 -0.00744048 0)
(-0.119766 -0.00757367 0)
(-0.0923947 -0.00697514 0)
(-0.0683554 -0.00591321 0)
(-0.0485696 -0.00474536 0)
(-0.033165 -0.00368498 0)
(-0.0218158 -0.00273353 0)
(-0.0140695 -0.00181928 0)
(-0.0093573 -0.00103776 0)
(-0.00700718 -0.000565644 0)
(-0.00582677 -0.000660336 0)
(-0.00416627 -0.00135057 0)
(-0.00249553 -0.00188511 0)
(-0.0320417 0.0162204 0)
(-0.108441 0.0540363 0)
(-0.188651 0.0395045 0)
(-0.210726 0.0144016 0)
(-0.207331 -0.00388024 0)
(-0.189408 -0.0141603 0)
(-0.162789 -0.0182583 0)
(-0.133231 -0.0187831 0)
(-0.104372 -0.0173729 0)
(-0.0785787 -0.0147839 0)
(-0.0568353 -0.0118175 0)
(-0.0395996 -0.00899927 0)
(-0.0266877 -0.00647892 0)
(-0.0175655 -0.00427103 0)
(-0.0115269 -0.00247436 0)
(-0.00780619 -0.00129857 0)
(-0.00550601 -0.00095272 0)
(-0.00397971 -0.00120545 0)
(-0.00246783 -0.00108226 0)
(-0.0637213 0.0567579 0)
(-0.144121 0.0857536 0)
(-0.206458 0.0556375 0)
(-0.22207 0.0176597 0)
(-0.216061 -0.00888808 0)
(-0.196001 -0.0236368 0)
(-0.168502 -0.0299317 0)
(-0.138566 -0.03089 0)
(-0.109426 -0.0287619 0)
(-0.0831892 -0.0247733 0)
(-0.0607636 -0.0200727 0)
(-0.0427034 -0.0154423 0)
(-0.0289794 -0.0112335 0)
(-0.019119 -0.00759383 0)
(-0.0123853 -0.00467958 0)
(-0.0079873 -0.00270951 0)
(-0.00514518 -0.00189898 0)
(-0.00356523 -0.0021939 0)
(-0.00191529 -0.00294722 0)
(-0.0846379 0.107002 0)
(-0.17306 0.115893 0)
(-0.223963 0.0692714 0)
(-0.233606 0.0193985 0)
(-0.22348 -0.0150332 0)
(-0.200284 -0.0340475 0)
(-0.171179 -0.042187 0)
(-0.140622 -0.0433481 0)
(-0.111365 -0.0404226 0)
(-0.0851052 -0.0350589 0)
(-0.062547 -0.0286653 0)
(-0.0441722 -0.0222332 0)
(-0.0300303 -0.0163128 0)
(-0.0197427 -0.0112052 0)
(-0.0125992 -0.00713266 0)
(-0.00781103 -0.00430749 0)
(-0.0046519 -0.00292253 0)
(-0.00294666 -0.00301419 0)
(-0.00134079 -0.00377521 0)
(-0.104318 0.168132 0)
(-0.204371 0.144724 0)
(-0.244637 0.0802195 0)
(-0.24699 0.018667 0)
(-0.231141 -0.023128 0)
(-0.20357 -0.045828 0)
(-0.171949 -0.0552382 0)
(-0.140302 -0.0561934 0)
(-0.110844 -0.0522412 0)
(-0.084761 -0.0454304 0)
(-0.0624369 -0.0373684 0)
(-0.044148 -0.0291836 0)
(-0.029933 -0.0215738 0)
(-0.0194992 -0.0149865 0)
(-0.012195 -0.0097298 0)
(-0.00725143 -0.00602184 0)
(-0.00397867 -0.00401873 0)
(-0.00224708 -0.00381038 0)
(-0.00085747 -0.00436769 0)
(-0.1301 0.243507 0)
(-0.242559 0.171655 0)
(-0.268782 0.088065 0)
(-0.262097 0.0148911 0)
(-0.239142 -0.0336189 0)
(-0.20601 -0.0592796 0)
(-0.170993 -0.0692106 0)
(-0.137764 -0.0693911 0)
(-0.107952 -0.0640784 0)
(-0.0821541 -0.0556824 0)
(-0.0603461 -0.0459442 0)
(-0.0425 -0.0360625 0)
(-0.0285572 -0.0268213 0)
(-0.0182777 -0.0187875 0)
(-0.0110794 -0.0123568 0)
(-0.00622718 -0.0077601 0)
(-0.0030697 -0.0051118 0)
(-0.00149808 -0.00452942 0)
(-0.000480544 -0.00475257 0)
(-0.165113 0.342961 0)
(-0.286231 0.191427 0)
(-0.29404 0.0919106 0)
(-0.277265 0.00758727 0)
(-0.246697 -0.0468323 0)
(-0.207267 -0.0747126 0)
(-0.16817 -0.0843271 0)
(-0.132956 -0.0830491 0)
(-0.102655 -0.0759318 0)
(-0.077218 -0.0657318 0)
(-0.0561566 -0.0542618 0)
(-0.0390751 -0.0427248 0)
(-0.0257456 -0.0319187 0)
(-0.0159365 -0.0224874 0)
(-0.00912872 -0.0149091 0)
(-0.00462966 -0.00943155 0)
(-0.00183641 -0.00612585 0)
(-0.000653705 -0.0051235 0)
(-0.000155344 -0.00497125 0)
(-0.254479 0.337814 0)
(-0.329777 0.187324 0)
(-0.314002 0.0884792 0)
(-0.288892 -0.00435568 0)
(-0.251952 -0.0634467 0)
(-0.206351 -0.0926404 0)
(-0.162958 -0.100938 0)
(-0.125656 -0.0973453 0)
(-0.0949028 -0.0878463 0)
(-0.0699633 -0.0755357 0)
(-0.0498703 -0.0622067 0)
(-0.0338528 -0.0489998 0)
(-0.021464 -0.0366748 0)
(-0.0124276 -0.0258997 0)
(-0.00627511 -0.0172055 0)
(-0.0023773 -0.0108513 0)
(-0.000191007 -0.00686701 0)
(0.000392814 -0.00537688 0)
(0.000234099 -0.00496007 0)
(0.0238466 -0.0908253 0)
(0.0794285 -0.206669 0)
(0.144929 -0.24571 0)
(0.206424 -0.25513 0)
(0.264756 -0.257036 0)
(0.322271 -0.258805 0)
(0.379957 -0.261893 0)
(0.438126 -0.265859 0)
(0.496853 -0.269721 0)
(0.556104 -0.272261 0)
(0.615766 -0.271989 0)
(0.67562 -0.266937 0)
(0.735208 -0.254383 0)
(0.793526 -0.230682 0)
(0.84878 -0.191558 0)
(0.898573 -0.132708 0)
(0.940596 -0.0503159 0)
(0.973529 0.0590411 0)
(0.997695 0.198613 0)
(1.01619 0.371814 0)
(1.03227 0.581566 0)
(1.08149 0.8335 0)
(1.12031 1.28595 0)
(0.027134 -0.140174 0)
(0.0836731 -0.27318 0)
(0.146984 -0.30885 0)
(0.205805 -0.314431 0)
(0.261857 -0.314719 0)
(0.317438 -0.316196 0)
(0.373274 -0.319539 0)
(0.429514 -0.323944 0)
(0.486219 -0.328306 0)
(0.543461 -0.331372 0)
(0.60134 -0.331618 0)
(0.660029 -0.326989 0)
(0.719669 -0.314426 0)
(0.779872 -0.289561 0)
(0.839206 -0.247332 0)
(0.895443 -0.183241 0)
(0.946734 -0.0942853 0)
(0.992731 0.0213654 0)
(1.03545 0.164439 0)
(1.08062 0.334521 0)
(1.13747 0.529961 0)
(1.21883 0.749504 0)
(1.3549 1.03313 0)
(0.0310951 -0.193536 0)
(0.0867897 -0.337566 0)
(0.145976 -0.367986 0)
(0.200911 -0.370227 0)
(0.253991 -0.369631 0)
(0.307117 -0.371207 0)
(0.360648 -0.374898 0)
(0.414562 -0.37971 0)
(0.468875 -0.384551 0)
(0.523677 -0.388237 0)
(0.579133 -0.389351 0)
(0.635697 -0.386004 0)
(0.694191 -0.375004 0)
(0.754959 -0.351034 0)
(0.816762 -0.30784 0)
(0.877029 -0.240619 0)
(0.933831 -0.147631 0)
(0.987095 -0.0289107 0)
(1.03875 0.113494 0)
(1.09389 0.274819 0)
(1.16008 0.449322 0)
(1.24046 0.630205 0)
(1.35944 0.821264 0)
(0.0342953 -0.250596 0)
(0.0877093 -0.398227 0)
(0.142741 -0.422474 0)
(0.194045 -0.422335 0)
(0.24419 -0.42151 0)
(0.294643 -0.423414 0)
(0.345519 -0.427462 0)
(0.396701 -0.432601 0)
(0.44814 -0.437814 0)
(0.499819 -0.441993 0)
(0.551679 -0.44391 0)
(0.60416 -0.442266 0)
(0.65881 -0.43418 0)
(0.716908 -0.413029 0)
(0.777265 -0.370586 0)
(0.836486 -0.30148 0)
(0.892401 -0.206045 0)
(0.945381 -0.0856715 0)
(0.997085 0.0555973 0)
(1.05243 0.208825 0)
(1.11831 0.368468 0)
(1.19869 0.529486 0)
(1.30478 0.694552 0)
(0.0324611 -0.30856 0)
(0.0862292 -0.455186 0)
(0.139375 -0.47328 0)
(0.188058 -0.471214 0)
(0.23547 -0.470383 0)
(0.283081 -0.472722 0)
(0.33101 -0.47719 0)
(0.379103 -0.482696 0)
(0.427247 -0.488273 0)
(0.475211 -0.492749 0)
(0.522326 -0.494914 0)
(0.568539 -0.494424 0)
(0.615829 -0.489518 0)
(0.666319 -0.471904 0)
(0.718715 -0.430409 0)
(0.768803 -0.358606 0)
(0.81491 -0.260892 0)
(0.859345 -0.139926 0)
(0.904596 0.000507901 0)
(0.956612 0.147578 0)
(1.02107 0.295849 0)
(1.10246 0.442414 0)
(1.20526 0.588457 0)
(0.02372 -0.365424 0)
(0.087516 -0.513338 0)
(0.139945 -0.523691 0)
(0.185338 -0.518858 0)
(0.229412 -0.517997 0)
(0.273734 -0.520913 0)
(0.318338 -0.525865 0)
(0.362959 -0.531621 0)
(0.407419 -0.537184 0)
(0.451283 -0.541108 0)
(0.49331 -0.541592 0)
(0.532932 -0.539524 0)
(0.570949 -0.535379 0)
(0.6085 -0.518677 0)
(0.644084 -0.474827 0)
(0.675172 -0.395889 0)
(0.703207 -0.2911 0)
(0.731667 -0.164054 0)
(0.7689 -0.0199292 0)
(0.829868 0.120983 0)
(0.903237 0.253904 0)
(0.993236 0.379485 0)
(1.10076 0.502806 0)
(0.0307585 -0.424348 0)
(0.107193 -0.577451 0)
(0.146772 -0.573816 0)
(0.184208 -0.564919 0)
(0.223961 -0.563692 0)
(0.264891 -0.566412 0)
(0.306201 -0.570695 0)
(0.347359 -0.575196 0)
(0.387991 -0.578914 0)
(0.427221 -0.579964 0)
(0.46452 -0.57522 0)
(0.50131 -0.567152 0)
(0.53368 -0.56007 0)
(0.556154 -0.540375 0)
(0.569195 -0.490845 0)
(0.579428 -0.398994 0)
(0.586398 -0.291534 0)
(0.597364 -0.172502 0)
(0.636775 -0.047414 0)
(0.702504 0.0731769 0)
(0.779747 0.205101 0)
(0.87462 0.333414 0)
(0.989808 0.449797 0)
(0.120322 -0.497213 0)
(0.167262 -0.635004 0)
(0.155976 -0.605659 0)
(0.181134 -0.596753 0)
(0.217701 -0.595593 0)
(0.256931 -0.597239 0)
(0.296765 -0.599761 0)
(0.336775 -0.602202 0)
(0.376479 -0.603392 0)
(0.413894 -0.601021 0)
(0.451775 -0.587068 0)
(0.494859 -0.571538 0)
(0.521533 -0.561869 0)
(0.525128 -0.540455 0)
(0.506963 -0.498366 0)
(0.610988 -0.43801 0)
(0.713372 -0.368228 0)
(0.804851 -0.283372 0)
(0.889131 -0.206447 0)
(0.968733 -0.128771 0)
(1.04055 -0.0387595 0)
(1.10724 0.0461861 0)
(1.1405 0.150629 0)
(0.362911 -0.71328 0)
(0.311067 -0.66274 0)
(0.15698 -0.577734 0)
(0.182743 -0.594147 0)
(0.219246 -0.598475 0)
(0.260048 -0.603186 0)
(0.300804 -0.608903 0)
(0.341197 -0.615212 0)
(0.380935 -0.621866 0)
(0.416513 -0.632231 0)
(0.481528 -0.67978 0)
(0.552826 -0.684253 0)
(0.617499 -0.63721 0)
(0.681336 -0.580705 0)
(0.733862 -0.580854 0)
(0.783146 -0.53958 0)
(0.841873 -0.461634 0)
(0.915491 -0.356301 0)
(1.00426 -0.24257 0)
(1.10108 -0.124607 0)
(1.20024 -0.00175692 0)
(1.30595 0.113985 0)
(1.41486 0.215128 0)
(0.231705 -1.05604 0)
(0.0684541 -0.443998 0)
(0.1414 -0.501655 0)
(0.205252 -0.673181 0)
(0.247871 -0.721743 0)
(0.299262 -0.734699 0)
(0.35557 -0.743134 0)
(0.413397 -0.748741 0)
(0.472775 -0.75157 0)
(0.531146 -0.756725 0)
(0.581319 -0.747892 0)
(0.622555 -0.722419 0)
(0.664519 -0.68206 0)
(0.712898 -0.641966 0)
(0.759955 -0.615122 0)
(0.79988 -0.577775 0)
(0.840618 -0.514826 0)
(0.895565 -0.429613 0)
(0.970663 -0.33391 0)
(1.06561 -0.235282 0)
(1.18033 -0.133313 0)
(1.31932 -0.0243974 0)
(1.48061 0.0909752 0)
(-0.166048 -1.0816 0)
(-0.0152206 -0.587491 0)
(0.112427 -0.621295 0)
(0.203805 -0.710196 0)
(0.263275 -0.744716 0)
(0.317149 -0.753411 0)
(0.370663 -0.756825 0)
(0.422979 -0.759463 0)
(0.473847 -0.761789 0)
(0.521256 -0.764381 0)
(0.560455 -0.763185 0)
(0.591607 -0.747582 0)
(0.621861 -0.718597 0)
(0.654409 -0.684051 0)
(0.685337 -0.64957 0)
(0.711784 -0.608793 0)
(0.739407 -0.554567 0)
(0.778588 -0.487561 0)
(0.837699 -0.414768 0)
(0.921425 -0.341784 0)
(1.03338 -0.268695 0)
(1.17764 -0.190458 0)
(1.35256 -0.0951761 0)
(-0.077152 -0.875547 0)
(0.00124808 -0.77713 0)
(0.113112 -0.757093 0)
(0.189805 -0.776055 0)
(0.244052 -0.790197 0)
(0.290813 -0.796846 0)
(0.335447 -0.800973 0)
(0.377927 -0.803774 0)
(0.417362 -0.80452 0)
(0.452124 -0.802077 0)
(0.48014 -0.793622 0)
(0.501949 -0.77444 0)
(0.52078 -0.744619 0)
(0.538384 -0.70889 0)
(0.553672 -0.67051 0)
(0.566544 -0.628312 0)
(0.581645 -0.580559 0)
(0.606992 -0.529034 0)
(0.650677 -0.478701 0)
(0.719538 -0.433862 0)
(0.819992 -0.394501 0)
(0.958249 -0.351787 0)
(1.13434 -0.277985 0)
(-0.00307942 -0.890119 0)
(0.0329239 -0.856158 0)
(0.100358 -0.834115 0)
(0.154428 -0.833759 0)
(0.197858 -0.837489 0)
(0.235583 -0.840076 0)
(0.27026 -0.841465 0)
(0.301969 -0.84107 0)
(0.329875 -0.837505 0)
(0.352789 -0.829058 0)
(0.369764 -0.813644 0)
(0.381202 -0.789273 0)
(0.388733 -0.756542 0)
(0.393531 -0.718387 0)
(0.395988 -0.677674 0)
(0.397343 -0.635816 0)
(0.401577 -0.594303 0)
(0.414837 -0.55635 0)
(0.444008 -0.526886 0)
(0.49629 -0.510557 0)
(0.579609 -0.508039 0)
(0.701887 -0.507129 0)
(0.865655 -0.464761 0)
(0.00789544 -0.90658 0)
(0.0346659 -0.90019 0)
(0.0731857 -0.881009 0)
(0.10888 -0.874366 0)
(0.139941 -0.87238 0)
(0.167195 -0.871348 0)
(0.191371 -0.869591 0)
(0.212222 -0.865544 0)
(0.22902 -0.857451 0)
(0.240955 -0.843588 0)
(0.247549 -0.82244 0)
(0.249139 -0.793276 0)
(0.246751 -0.757034 0)
(0.24141 -0.716283 0)
(0.234115 -0.674075 0)
(0.226599 -0.63339 0)
(0.222066 -0.597567 0)
(0.224996 -0.57101 0)
(0.24059 -0.559335 0)
(0.274736 -0.568372 0)
(0.334354 -0.600196 0)
(0.425012 -0.639587 0)
(0.546377 -0.628174 0)
(0.00419509 -0.922532 0)
(0.0210569 -0.924508 0)
(0.0407988 -0.909189 0)
(0.0615668 -0.900552 0)
(0.0803642 -0.895532 0)
(0.0966487 -0.891597 0)
(0.110178 -0.886711 0)
(0.120454 -0.878946 0)
(0.126839 -0.86645 0)
(0.128795 -0.847663 0)
(0.126128 -0.821571 0)
(0.11919 -0.788104 0)
(0.108798 -0.748571 0)
(0.0959515 -0.705602 0)
(0.0818051 -0.662598 0)
(0.0680097 -0.623399 0)
(0.0568985 -0.592301 0)
(0.0513781 -0.574365 0)
(0.0545831 -0.575734 0)
(0.0696655 -0.60301 0)
(0.100094 -0.658571 0)
(0.145796 -0.725169 0)
(0.204594 -0.734087 0)
(-0.00198511 -0.930048 0)
(0.00327812 -0.934188 0)
(0.00931091 -0.922802 0)
(0.0172539 -0.913855 0)
(0.0244928 -0.907207 0)
(0.0300953 -0.901034 0)
(0.0334034 -0.893337 0)
(0.0338132 -0.882155 0)
(0.0308004 -0.865726 0)
(0.0240427 -0.842728 0)
(0.0135516 -0.812556 0)
(-0.000254788 -0.775604 0)
(-0.0166229 -0.733492 0)
(-0.0346103 -0.689019 0)
(-0.0531422 -0.645833 0)
(-0.0709413 -0.608133 0)
(-0.0865523 -0.580516 0)
(-0.0985564 -0.56807 0)
(-0.10594 -0.576671 0)
(-0.108485 -0.612396 0)
(-0.107935 -0.676912 0)
(-0.110141 -0.753403 0)
(-0.113214 -0.774665 0)
(-0.00842573 -0.924085 0)
(-0.0138973 -0.933092 0)
(-0.0187123 -0.924151 0)
(-0.0218103 -0.915662 0)
(-0.0249716 -0.908214 0)
(-0.0291556 -0.900374 0)
(-0.0351417 -0.890325 0)
(-0.0435139 -0.876246 0)
(-0.0546567 -0.85657 0)
(-0.0687 -0.830252 0)
(-0.0854628 -0.797024 0)
(-0.104449 -0.757623 0)
(-0.12493 -0.713908 0)
(-0.146066 -0.668793 0)
(-0.167005 -0.625989 0)
(-0.186938 -0.589697 0)
(-0.205231 -0.564334 0)
(-0.221722 -0.554436 0)
(-0.237179 -0.564682 0)
(-0.25397 -0.599319 0)
(-0.277616 -0.658919 0)
(-0.316661 -0.73006 0)
(-0.366112 -0.762995 0)
(-0.0136232 -0.908823 0)
(-0.0283556 -0.921308 0)
(-0.0422918 -0.915008 0)
(-0.0546257 -0.907485 0)
(-0.0667422 -0.899757 0)
(-0.0794451 -0.890735 0)
(-0.0934714 -0.878852 0)
(-0.109304 -0.862516 0)
(-0.127168 -0.840406 0)
(-0.147019 -0.811754 0)
(-0.168539 -0.776578 0)
(-0.191176 -0.735853 0)
(-0.214245 -0.691574 0)
(-0.237056 -0.646657 0)
(-0.259039 -0.604697 0)
(-0.279859 -0.569636 0)
(-0.299587 -0.545405 0)
(-0.319005 -0.535633 0)
(-0.340073 -0.543393 0)
(-0.366614 -0.570608 0)
(-0.405402 -0.616241 0)
(-0.465214 -0.67114 0)
(-0.543413 -0.708151 0)
(-0.017582 -0.885171 0)
(-0.039726 -0.901088 0)
(-0.0609865 -0.897335 0)
(-0.0808373 -0.890976 0)
(-0.100354 -0.883289 0)
(-0.120132 -0.873495 0)
(-0.140786 -0.860306 0)
(-0.162661 -0.84239 0)
(-0.185826 -0.81869 0)
(-0.210092 -0.78869 0)
(-0.235043 -0.752631 0)
(-0.260108 -0.711638 0)
(-0.284675 -0.667733 0)
(-0.308232 -0.623719 0)
(-0.3305 -0.582928 0)
(-0.351565 -0.548873 0)
(-0.372045 -0.52484 0)
(-0.393343 -0.513463 0)
(-0.418005 -0.516274 0)
(-0.450207 -0.533131 0)
(-0.496232 -0.561355 0)
(-0.563695 -0.594197 0)
(-0.654326 -0.619876 0)
(-0.0202821 -0.855341 0)
(-0.0479648 -0.874284 0)
(-0.0748455 -0.872927 0)
(-0.100558 -0.867779 0)
(-0.125912 -0.86034 0)
(-0.151278 -0.850125 0)
(-0.177123 -0.836126 0)
(-0.203648 -0.81728 0)
(-0.230786 -0.792778 0)
(-0.25824 -0.762322 0)
(-0.28554 -0.726312 0)
(-0.312129 -0.685938 0)
(-0.337495 -0.643159 0)
(-0.361305 -0.600565 0)
(-0.383542 -0.561126 0)
(-0.404626 -0.527843 0)
(-0.425544 -0.503316 0)
(-0.448022 -0.489268 0)
(-0.474728 -0.486016 0)
(-0.509498 -0.491938 0)
(-0.557416 -0.503062 0)
(-0.624334 -0.513244 0)
(-0.714169 -0.517314 0)
(-0.021812 -0.821311 0)
(-0.053276 -0.842693 0)
(-0.084191 -0.843469 0)
(-0.114215 -0.839481 0)
(-0.14391 -0.832419 0)
(-0.173432 -0.822071 0)
(-0.203097 -0.807702 0)
(-0.232978 -0.788497 0)
(-0.262901 -0.763872 0)
(-0.292501 -0.7337 0)
(-0.321291 -0.69848 0)
(-0.348761 -0.659395 0)
(-0.374504 -0.618268 0)
(-0.398352 -0.577414 0)
(-0.420492 -0.539393 0)
(-0.44157 -0.506671 0)
(-0.46277 -0.48121 0)
(-0.485908 -0.463995 0)
(-0.513487 -0.454505 0)
(-0.548706 -0.450239 0)
(-0.595374 -0.446479 0)
(-0.657553 -0.436971 0)
(-0.738868 -0.417972 0)
(-0.0223235 -0.784908 0)
(-0.0559986 -0.807969 0)
(-0.089521 -0.810509 0)
(-0.122443 -0.807558 0)
(-0.155099 -0.800942 0)
(-0.187456 -0.790692 0)
(-0.21969 -0.776313 0)
(-0.251768 -0.757218 0)
(-0.283443 -0.733006 0)
(-0.314318 -0.703681 0)
(-0.34392 -0.669785 0)
(-0.3718 -0.632438 0)
(-0.397655 -0.593281 0)
(-0.421447 -0.554323 0)
(-0.443506 -0.517703 0)
(-0.464596 -0.485386 0)
(-0.485958 -0.458789 0)
(-0.50933 -0.438345 0)
(-0.536899 -0.423037 0)
(-0.571164 -0.409971 0)
(-0.6148 -0.394199 0)
(-0.670334 -0.369368 0)
(-0.739845 -0.331369 0)
(-0.0220274 -0.747691 0)
(-0.0565625 -0.771578 0)
(-0.0914402 -0.775436 0)
(-0.126005 -0.773346 0)
(-0.160391 -0.767196 0)
(-0.194405 -0.75721 0)
(-0.228103 -0.7431 0)
(-0.261368 -0.724467 0)
(-0.293913 -0.70106 0)
(-0.325336 -0.672968 0)
(-0.355199 -0.640736 0)
(-0.383119 -0.605383 0)
(-0.408883 -0.568344 0)
(-0.432548 -0.531316 0)
(-0.454521 -0.496044 0)
(-0.475599 -0.464049 0)
(-0.496977 -0.436307 0)
(-0.520214 -0.412879 0)
(-0.547126 -0.392511 0)
(-0.579565 -0.372266 0)
(-0.619282 -0.347366 0)
(-0.667635 -0.311656 0)
(-0.725039 -0.260607 0)
(-0.021155 -0.710901 0)
(-0.0554338 -0.734768 0)
(-0.0905975 -0.739459 0)
(-0.125724 -0.738018 0)
(-0.160775 -0.732309 0)
(-0.195429 -0.722694 0)
(-0.22964 -0.709047 0)
(-0.263236 -0.691119 0)
(-0.295908 -0.668771 0)
(-0.327271 -0.642144 0)
(-0.356932 -0.611752 0)
(-0.384575 -0.578496 0)
(-0.410057 -0.543596 0)
(-0.433492 -0.508454 0)
(-0.455312 -0.474463 0)
(-0.476285 -0.442772 0)
(-0.497493 -0.414021 0)
(-0.520269 -0.38804 0)
(-0.54606 -0.36352 0)
(-0.576174 -0.33771 0)
(-0.611652 -0.306261 0)
(-0.653041 -0.263502 0)
(-0.699538 -0.204839 0)
(-0.0199177 -0.675457 0)
(-0.0530653 -0.69855 0)
(-0.0876324 -0.703594 0)
(-0.12242 -0.702569 0)
(-0.157245 -0.697241 0)
(-0.191689 -0.68805 0)
(-0.225623 -0.674984 0)
(-0.258837 -0.657906 0)
(-0.291022 -0.636755 0)
(-0.32182 -0.611696 0)
(-0.350886 -0.583195 0)
(-0.377964 -0.552023 0)
(-0.402962 -0.519195 0)
(-0.426023 -0.485849 0)
(-0.447562 -0.453075 0)
(-0.468276 -0.421724 0)
(-0.4891 -0.392189 0)
(-0.511131 -0.364174 0)
(-0.535483 -0.336435 0)
(-0.56303 -0.306533 0)
(-0.594299 -0.270684 0)
(-0.629319 -0.223892 0)
(-0.666586 -0.161801 0)
(-0.0184837 -0.641979 0)
(-0.0498636 -0.663706 0)
(-0.0831385 -0.668656 0)
(-0.116871 -0.66781 0)
(-0.150753 -0.662778 0)
(-0.184301 -0.654017 0)
(-0.217322 -0.641588 0)
(-0.249583 -0.625425 0)
(-0.280783 -0.605518 0)
(-0.310599 -0.582034 0)
(-0.338737 -0.555379 0)
(-0.364988 -0.5262 0)
(-0.389295 -0.495324 0)
(-0.411804 -0.463659 0)
(-0.432893 -0.432046 0)
(-0.453159 -0.401101 0)
(-0.47338 -0.371047 0)
(-0.494428 -0.341536 0)
(-0.517133 -0.31145 0)
(-0.542038 -0.278716 0)
(-0.569323 -0.240159 0)
(-0.598718 -0.191529 0)
(-0.62841 -0.128908 0)
(-0.0169743 -0.610842 0)
(-0.0461739 -0.630795 0)
(-0.0776428 -0.635268 0)
(-0.109776 -0.634375 0)
(-0.142167 -0.629536 0)
(-0.174289 -0.621179 0)
(-0.205906 -0.609392 0)
(-0.236768 -0.59415 0)
(-0.266594 -0.575467 0)
(-0.295097 -0.553496 0)
(-0.322027 -0.528582 0)
(-0.347217 -0.501254 0)
(-0.370631 -0.472178 0)
(-0.392403 -0.442068 0)
(-0.412854 -0.411563 0)
(-0.432477 -0.381106 0)
(-0.451892 -0.350806 0)
(-0.471772 -0.320309 0)
(-0.492711 -0.288654 0)
(-0.515012 -0.254128 0)
(-0.538634 -0.214144 0)
(-0.563167 -0.165189 0)
(-0.586743 -0.103864 0)
(-0.0154692 -0.582224 0)
(-0.042272 -0.600174 0)
(-0.0715923 -0.603873 0)
(-0.101741 -0.602734 0)
(-0.132245 -0.59798 0)
(-0.162555 -0.589977 0)
(-0.192403 -0.578803 0)
(-0.221537 -0.564444 0)
(-0.249696 -0.546918 0)
(-0.276631 -0.526355 0)
(-0.302131 -0.503038 0)
(-0.32606 -0.477393 0)
(-0.348395 -0.44995 0)
(-0.369249 -0.421263 0)
(-0.388881 -0.391818 0)
(-0.407681 -0.361928 0)
(-0.426124 -0.331634 0)
(-0.444708 -0.300607 0)
(-0.46384 -0.268046 0)
(-0.483654 -0.23257 0)
(-0.503977 -0.192113 0)
(-0.524366 -0.143832 0)
(-0.543054 -0.0848445 0)
(-0.0140128 -0.556162 0)
(-0.0383603 -0.572028 0)
(-0.0653437 -0.574751 0)
(-0.0932674 -0.573206 0)
(-0.12162 -0.568438 0)
(-0.149851 -0.560726 0)
(-0.177678 -0.550114 0)
(-0.204852 -0.536572 0)
(-0.231136 -0.520106 0)
(-0.256316 -0.500818 0)
(-0.280215 -0.478934 0)
(-0.302723 -0.454792 0)
(-0.32382 -0.428811 0)
(-0.343595 -0.401419 0)
(-0.362248 -0.372983 0)
(-0.380072 -0.343727 0)
(-0.397417 -0.313653 0)
(-0.414634 -0.282477 0)
(-0.431982 -0.249548 0)
(-0.44948 -0.213774 0)
(-0.466888 -0.173533 0)
(-0.483783 -0.126556 0)
(-0.498593 -0.0704295 0)
(-0.0126179 -0.532604 0)
(-0.0345651 -0.546403 0)
(-0.059155 -0.548044 0)
(-0.0847338 -0.545983 0)
(-0.110784 -0.541119 0)
(-0.136775 -0.533637 0)
(-0.162419 -0.523522 0)
(-0.187481 -0.510716 0)
(-0.211753 -0.495198 0)
(-0.23505 -0.477038 0)
(-0.257227 -0.456414 0)
(-0.278192 -0.433593 0)
(-0.297924 -0.408905 0)
(-0.316487 -0.382683 0)
(-0.334027 -0.355203 0)
(-0.350755 -0.326628 0)
(-0.366914 -0.296945 0)
(-0.382736 -0.265917 0)
(-0.398369 -0.233032 0)
(-0.413754 -0.197442 0)
(-0.428624 -0.157889 0)
(-0.442608 -0.112578 0)
(-0.454359 -0.0595008 0)
(-0.0112676 -0.511452 0)
(-0.0309411 -0.523247 0)
(-0.0531851 -0.523775 0)
(-0.0764007 -0.521146 0)
(-0.100092 -0.516135 0)
(-0.12376 -0.50883 0)
(-0.147133 -0.499148 0)
(-0.169999 -0.486988 0)
(-0.192178 -0.472298 0)
(-0.213516 -0.455117 0)
(-0.233893 -0.43558 0)
(-0.253229 -0.413902 0)
(-0.271503 -0.390344 0)
(-0.288753 -0.365167 0)
(-0.305077 -0.338586 0)
(-0.320617 -0.31072 0)
(-0.335531 -0.281554 0)
(-0.349961 -0.2509 0)
(-0.36397 -0.218361 0)
(-0.377452 -0.183291 0)
(-0.390138 -0.144723 0)
(-0.401716 -0.101245 0)
(-0.411071 -0.0511911 0)
(-0.00991803 -0.492607 0)
(-0.0274883 -0.502434 0)
(-0.0475108 -0.501878 0)
(-0.0684199 -0.498687 0)
(-0.0897639 -0.493518 0)
(-0.11109 -0.486357 0)
(-0.13216 -0.47705 0)
(-0.152795 -0.465447 0)
(-0.172846 -0.451465 0)
(-0.192189 -0.435114 0)
(-0.210725 -0.416498 0)
(-0.228384 -0.395792 0)
(-0.245139 -0.373207 0)
(-0.261005 -0.348955 0)
(-0.276041 -0.323207 0)
(-0.290333 -0.296057 0)
(-0.303972 -0.267492 0)
(-0.31703 -0.237368 0)
(-0.329513 -0.205388 0)
(-0.341289 -0.171059 0)
(-0.3521 -0.133645 0)
(-0.361696 -0.0920354 0)
(-0.36918 -0.0448464 0)
(-0.00851456 -0.476007 0)
(-0.0241912 -0.483794 0)
(-0.042165 -0.482229 0)
(-0.0608642 -0.478541 0)
(-0.0799105 -0.473245 0)
(-0.0989146 -0.466219 0)
(-0.117688 -0.457238 0)
(-0.136094 -0.446106 0)
(-0.15402 -0.432714 0)
(-0.171368 -0.417052 0)
(-0.188054 -0.399201 0)
(-0.204016 -0.379307 0)
(-0.21922 -0.357549 0)
(-0.233662 -0.334104 0)
(-0.247368 -0.309115 0)
(-0.26038 -0.282663 0)
(-0.272737 -0.254743 0)
(-0.284461 -0.225251 0)
(-0.295517 -0.193962 0)
(-0.305762 -0.160508 0)
(-0.314958 -0.124325 0)
(-0.322914 -0.0845339 0)
(-0.328925 -0.0399773 0)
(-0.00704643 -0.461644 0)
(-0.021075 -0.467113 0)
(-0.0371892 -0.464671 0)
(-0.053769 -0.460618 0)
(-0.0705684 -0.455269 0)
(-0.0872804 -0.44839 0)
(-0.103783 -0.43969 0)
(-0.11999 -0.428944 0)
(-0.135821 -0.416027 0)
(-0.1512 -0.40092 0)
(-0.166054 -0.383689 0)
(-0.180325 -0.364462 0)
(-0.193972 -0.343396 0)
(-0.206975 -0.320646 0)
(-0.219336 -0.296338 0)
(-0.231061 -0.270547 0)
(-0.242152 -0.243282 0)
(-0.252593 -0.214471 0)
(-0.262323 -0.183946 0)
(-0.271194 -0.151431 0)
(-0.278992 -0.116489 0)
(-0.285575 -0.0784142 0)
(-0.290406 -0.0362229 0)
(-0.00565526 -0.449512 0)
(-0.018245 -0.452168 0)
(-0.0326756 -0.449069 0)
(-0.047166 -0.444855 0)
(-0.06173 -0.439557 0)
(-0.0761656 -0.432839 0)
(-0.090428 -0.424372 0)
(-0.104478 -0.413921 0)
(-0.118263 -0.401365 0)
(-0.131718 -0.386684 0)
(-0.144778 -0.36994 0)
(-0.157383 -0.35125 0)
(-0.169486 -0.330754 0)
(-0.181056 -0.308592 0)
(-0.192076 -0.284883 0)
(-0.20253 -0.259703 0)
(-0.212393 -0.233073 0)
(-0.22162 -0.204951 0)
(-0.23013 -0.175216 0)
(-0.237775 -0.143655 0)
(-0.244361 -0.109921 0)
(-0.249779 -0.0734304 0)
(-0.253644 -0.0333259 0)
(-0.00474241 -0.439368 0)
(-0.0158601 -0.438778 0)
(-0.0287606 -0.435378 0)
(-0.0410843 -0.431268 0)
(-0.0533577 -0.426125 0)
(-0.0655037 -0.419559 0)
(-0.0775508 -0.41125 0)
(-0.0894944 -0.400988 0)
(-0.101293 -0.388672 0)
(-0.112883 -0.374295 0)
(-0.124197 -0.357916 0)
(-0.135171 -0.339645 0)
(-0.145753 -0.319608 0)
(-0.155907 -0.297936 0)
(-0.165605 -0.27474 0)
(-0.174818 -0.250104 0)
(-0.183506 -0.224066 0)
(-0.191606 -0.196608 0)
(-0.199019 -0.167651 0)
(-0.205592 -0.137026 0)
(-0.211137 -0.104446 0)
(-0.215566 -0.0694023 0)
(-0.218615 -0.0311136 0)
(-0.00496756 -0.430305 0)
(-0.014062 -0.426779 0)
(-0.0255473 -0.423694 0)
(-0.035504 -0.419978 0)
(-0.0453692 -0.415037 0)
(-0.0551958 -0.408553 0)
(-0.065056 -0.400286 0)
(-0.0749505 -0.390085 0)
(-0.0848277 -0.377886 0)
(-0.0946127 -0.363695 0)
(-0.104228 -0.347571 0)
(-0.113604 -0.329613 0)
(-0.122688 -0.309934 0)
(-0.131442 -0.288654 0)
(-0.139838 -0.265881 0)
(-0.147847 -0.241706 0)
(-0.155424 -0.216186 0)
(-0.162498 -0.189336 0)
(-0.168961 -0.161111 0)
(-0.174643 -0.131384 0)
(-0.179338 -0.0999015 0)
(-0.18294 -0.0661883 0)
(-0.185284 -0.0294724 0)
(-0.00724507 -0.421074 0)
(-0.0130431 -0.415853 0)
(-0.0230025 -0.414151 0)
(-0.0302781 -0.411111 0)
(-0.0376106 -0.406317 0)
(-0.0451152 -0.399763 0)
(-0.0528436 -0.391379 0)
(-0.0607606 -0.381101 0)
(-0.0687829 -0.368899 0)
(-0.0768137 -0.354791 0)
(-0.0847637 -0.338828 0)
(-0.0925608 -0.321092 0)
(-0.100153 -0.30168 0)
(-0.107509 -0.280697 0)
(-0.114609 -0.258249 0)
(-0.121434 -0.23443 0)
(-0.127953 -0.209323 0)
(-0.134107 -0.18298 0)
(-0.139786 -0.155401 0)
(-0.144805 -0.126509 0)
(-0.148907 -0.0960867 0)
(-0.151894 -0.06365 0)
(-0.153637 -0.0283329 0)
(-0.0131086 -0.412555 0)
(-0.0130664 -0.406053 0)
(-0.0209204 -0.407068 0)
(-0.0251361 -0.404852 0)
(-0.0298784 -0.399976 0)
(-0.0351366 -0.393108 0)
(-0.0408365 -0.384421 0)
(-0.0468634 -0.373928 0)
(-0.0530897 -0.361622 0)
(-0.0593974 -0.347512 0)
(-0.0656907 -0.331631 0)
(-0.0718994 -0.314039 0)
(-0.0779786 -0.294811 0)
(-0.0839062 -0.274032 0)
(-0.0896781 -0.251799 0)
(-0.0952985 -0.228211 0)
(-0.100767 -0.203368 0)
(-0.106062 -0.177366 0)
(-0.11111 -0.150274 0)
(-0.115741 -0.122101 0)
(-0.11963 -0.0927123 0)
(-0.122373 -0.0616193 0)
(-0.123701 -0.0276921 0)