/*--------------------------------*- C++ -*----------------------------------*\
  =========                 |
  \\      /  F ield         | OpenFOAM: The Open Source CFD Toolbox
   \\    /   O peration     | Website:  https://openfoam.org
    \\  /    A nd           | Version:  7
     \\/     M anipulation  |
\*---------------------------------------------------------------------------*/
FoamFile
{
    version     2.0;
    format      ascii;
    class       volScalarField;
    location    "0.35";
    object      p;
}
// * * * * * * * * * * * * * * * * * * * * * * * * * * * * * * * * * * * * * //

dimensions      [1 -1 -2 0 0 0 0];

internalField   nonuniform List<scalar> 
7700
(
1110.11
1109.91
1113.72
1120.34
1127.68
1134.73
1141.16
1146.93
1152.14
1156.95
1161.46
1165.76
1169.9
1173.93
1177.88
1181.79
1185.68
1189.58
1193.53
1197.56
1201.74
1206.13
1210.82
1215.91
1221.54
1227.9
1235.18
1243.68
1253.74
1265.81
1280.5
1298.65
1321.04
1348.26
1380.87
1419.28
1463.34
1511.76
1561.81
1609.4
1649.93
1680.27
1695.86
1700.76
1721.44
1755.45
1061.53
1060.46
1063.5
1069.41
1075.77
1082.17
1088.21
1093.78
1098.9
1103.63
1108.05
1112.23
1116.21
1120.05
1123.78
1127.44
1131.08
1134.73
1138.44
1142.26
1146.25
1150.5
1155.1
1160.17
1165.87
1172.39
1179.95
1188.86
1199.47
1212.25
1227.73
1246.5
1269.52
1297.65
1331.64
1371.97
1418.65
1470.62
1525.13
1577.43
1621.28
1651.73
1662.24
1653
1651.38
1696
1012.3
1012.33
1015.05
1019.53
1024.71
1030.11
1035.39
1040.38
1045.04
1049.37
1053.4
1057.17
1060.73
1064.12
1067.39
1070.59
1073.76
1076.97
1080.26
1083.7
1087.37
1091.37
1095.81
1100.82
1106.57
1113.27
1121.18
1130.6
1141.91
1155.57
1172.12
1192.16
1216.47
1245.9
1281.16
1322.67
1370.37
1423.26
1478.89
1532.85
1578.89
1610.91
1623.37
1615.99
1608.71
1657.62
962.865
964.088
966.719
970.365
974.62
979.108
983.569
987.856
991.895
995.656
999.144
1002.38
1005.4
1008.24
1010.96
1013.62
1016.25
1018.94
1021.74
1024.74
1028.02
1031.69
1035.89
1040.75
1046.46
1053.24
1061.35
1071.12
1082.93
1097.23
1114.54
1135.41
1160.51
1190.57
1226.22
1267.79
1315.1
1367.14
1421.72
1475.14
1522.24
1557.69
1577.24
1582.1
1589.81
1642.16
912.962
915.179
917.855
921.023
924.613
928.378
932.133
935.762
939.189
942.375
945.311
948.008
950.494
952.81
955.002
957.128
959.25
961.435
963.758
966.307
969.179
972.492
976.382
981.009
986.565
993.276
1001.41
1011.3
1023.31
1037.88
1055.49
1076.67
1101.96
1131.97
1167.23
1207.95
1253.9
1304.18
1356.96
1409.35
1457.44
1497.03
1524.9
1544.26
1575
1641.84
862.469
865.369
868.171
871.029
874.11
877.287
880.437
883.475
886.338
888.984
891.399
893.591
895.582
897.408
899.116
900.762
902.41
904.131
906.004
908.122
910.589
913.528
917.082
921.419
926.733
933.255
941.257
951.053
963.009
977.534
995.075
1016.1
1041.07
1070.47
1104.73
1143.98
1187.96
1235.91
1286.41
1337.29
1385.75
1428.73
1464.16
1497.53
1553.96
1644.76
811.416
814.768
817.662
820.255
822.901
825.567
828.179
830.68
833.019
835.161
837.089
838.811
840.344
841.722
842.987
844.195
845.408
846.701
848.154
849.862
851.933
854.494
857.691
861.693
866.697
872.933
880.669
890.21
901.903
916.128
933.29
953.795
978.028
1006.37
1039.15
1076.44
1117.98
1163.11
1210.72
1259.23
1306.66
1350.98
1391.43
1435.55
1513.44
1623.8
759.818
763.475
766.371
768.692
770.931
773.123
775.235
777.232
779.079
780.746
782.219
783.502
784.611
785.575
786.434
787.239
788.052
788.946
790.004
791.32
793.003
795.18
797.999
801.629
806.264
812.132
819.493
828.64
839.9
853.621
870.16
889.862
913.034
939.958
970.875
1005.81
1044.49
1086.32
1130.36
1175.36
1219.83
1262.37
1303.16
1351.07
1443.13
1565.46
707.697
711.548
714.35
716.377
718.214
719.943
721.568
723.081
724.455
725.669
726.71
727.579
728.291
728.87
729.35
729.779
730.217
730.735
731.415
732.349
733.646
735.432
737.852
741.072
745.285
750.711
757.602
766.241
776.932
789.988
805.719
824.405
846.278
871.522
900.294
932.572
968.042
1006.11
1045.87
1086.12
1125.4
1162.25
1196.51
1236.27
1328.21
1431.93
655.082
659.038
661.675
663.382
664.803
666.064
667.204
668.235
669.147
669.921
670.545
671.017
671.349
671.561
671.681
671.753
671.833
671.988
672.299
672.854
673.761
675.141
677.137
679.911
683.65
688.567
694.908
702.943
712.957
725.231
740.022
757.547
777.961
801.35
827.786
857.193
889.196
923.135
958.009
992.392
1024.36
1051.45
1071.34
1086.67
1145.93
1153.71
3.63959
3.63498
3.63042
3.62605
3.62059
3.61565
3.61236
3.60948
3.60766
3.60671
3.60638
3.60633
3.60627
3.60596
3.60521
3.6039
3.60195
3.59935
3.59612
3.59231
3.58795
3.58328
3.5784
3.57318
3.56785
3.56261
3.5576
3.55289
3.5485
3.54427
3.5404
3.53719
3.53441
3.53206
3.53017
3.52875
3.52777
3.52717
3.52697
3.52684
3.59366
3.59012
3.58733
3.58243
3.57685
3.57105
3.56571
3.56193
3.55936
3.5578
3.55692
3.55644
3.55608
3.55561
3.55483
3.5536
3.55181
3.54942
3.54646
3.54296
3.53897
3.53462
3.52987
3.52495
3.52001
3.51517
3.51034
3.50562
3.50115
3.49719
3.49365
3.4904
3.48767
3.48539
3.48353
3.48206
3.48097
3.48023
3.4798
3.47964
3.549
3.54403
3.54086
3.53639
3.5304
3.52433
3.5186
3.5141
3.51079
3.5085
3.50699
3.506
3.50529
3.50463
3.5038
3.50265
3.50106
3.49896
3.49634
3.49321
3.48957
3.48554
3.48119
3.47655
3.47187
3.46723
3.46263
3.45811
3.45383
3.44992
3.4464
3.44325
3.44057
3.43833
3.43647
3.43495
3.43377
3.43293
3.43243
3.43238
3.50446
3.49738
3.49276
3.48809
3.48224
3.47613
3.47038
3.46559
3.46187
3.45913
3.45721
3.45588
3.45494
3.45414
3.45329
3.45222
3.4508
3.44895
3.44661
3.44377
3.44042
3.43665
3.43255
3.42818
3.42372
3.41925
3.41482
3.41047
3.40631
3.40246
3.39896
3.39587
3.39322
3.39099
3.38911
3.38754
3.38626
3.38533
3.38482
3.38488
3.45896
3.44961
3.44308
3.43811
3.43254
3.4267
3.42117
3.41642
3.41261
3.40972
3.40766
3.40623
3.40522
3.40441
3.40358
3.40259
3.40129
3.39962
3.39749
3.39487
3.39175
3.38817
3.38423
3.38002
3.37569
3.37133
3.367
3.36275
3.35867
3.35484
3.35135
3.34828
3.34564
3.34341
3.3415
3.33985
3.33849
3.33749
3.33701
3.33715
3.41103
3.39957
3.39131
3.3865
3.38153
3.37625
3.37114
3.36664
3.36296
3.36016
3.35817
3.35683
3.35592
3.35522
3.35449
3.35359
3.3524
3.35085
3.34888
3.34644
3.34349
3.34007
3.33623
3.33209
3.32779
3.32345
3.31916
3.31496
3.31093
3.30713
3.30364
3.30055
3.29788
3.2956
3.29363
3.2919
3.29046
3.28941
3.28899
3.28925
3.35847
3.34591
3.33668
3.33312
3.32934
3.32494
3.32043
3.31631
3.31291
3.31033
3.30858
3.3075
3.30686
3.30639
3.30586
3.3051
3.30402
3.30257
3.30072
3.2984
3.29558
3.29225
3.28847
3.28434
3.28001
3.27563
3.27132
3.26713
3.26313
3.25934
3.25584
3.25269
3.24994
3.24756
3.24549
3.24367
3.24215
3.2411
3.24076
3.24112
3.29713
3.28684
3.27834
3.27788
3.27613
3.27295
3.26914
3.26547
3.26239
3.26015
3.25876
3.25809
3.25787
3.25779
3.25758
3.25706
3.25614
3.25478
3.25299
3.25073
3.24796
3.24467
3.24091
3.23675
3.23235
3.22789
3.2235
3.21928
3.21527
3.21149
3.20795
3.20471
3.20182
3.19929
3.19707
3.19514
3.19356
3.19252
3.19229
3.19276
3.21649
3.21965
3.2158
3.2211
3.22234
3.22059
3.21745
3.21414
3.21139
3.20953
3.20863
3.20851
3.20886
3.20933
3.20959
3.20943
3.20873
3.20748
3.2057
3.20341
3.20061
3.1973
3.1935
3.1893
3.18482
3.18024
3.17573
3.17143
3.16737
3.16354
3.15993
3.15656
3.15349
3.15076
3.14836
3.14631
3.14468
3.14368
3.14356
3.14413
3.09582
3.13864
3.15062
3.16435
3.16897
3.16843
3.16562
3.1624
3.15983
3.15837
3.15806
3.15865
3.15975
3.16092
3.16181
3.16213
3.16176
3.16066
3.15889
3.1565
3.15357
3.15015
3.14626
3.14197
3.13739
3.13268
3.12803
3.12357
3.11938
3.11545
3.11173
3.1082
3.10491
3.10193
3.09933
3.09715
3.0955
3.09456
3.09457
3.09524
601.552
605.542
607.962
609.318
610.298
611.071
611.712
612.256
612.701
613.035
613.244
613.323
613.281
613.131
612.898
612.619
612.346
612.142
612.082
612.253
612.756
613.71
615.252
617.539
620.75
625.093
630.804
638.149
647.398
658.8
672.56
688.827
707.675
729.097
753.068
779.455
807.818
837.388
866.975
894.774
918.068
932.691
932.488
908.077
861.548
578.211
546.914
550.885
553.05
554.02
554.524
554.78
554.899
554.935
554.898
554.779
554.562
554.242
553.819
553.304
552.714
552.082
551.451
550.881
550.441
550.213
550.293
550.794
551.848
553.604
556.233
559.933
564.938
571.512
579.923
590.393
603.073
618.037
635.271
654.676
676.129
699.437
724.114
749.284
773.575
794.845
809.761
813.051
796.216
743.427
637.499
415.686
491.485
495.396
497.279
497.824
497.809
497.513
497.078
496.577
496.03
495.433
494.772
494.034
493.217
492.325
491.367
490.37
489.37
488.42
487.585
486.94
486.574
486.595
487.126
488.308
490.302
493.293
497.514
503.245
510.768
520.285
531.894
545.581
561.231
578.653
597.632
617.928
639.047
660.06
679.498
695.091
703.376
699.166
674.893
619.2
521.744
399.454
435.389
439.213
440.784
440.859
440.275
439.377
438.34
437.255
436.156
435.044
433.904
432.721
431.487
430.196
428.852
427.47
426.083
424.735
423.484
422.399
421.562
421.071
421.044
421.613
422.919
425.131
428.482
433.291
439.891
448.474
459.079
471.589
485.761
501.303
517.926
535.372
553.19
570.48
585.791
596.923
600.658
592.508
566.754
516.8
436.631
343.884
378.792
382.504
383.733
383.284
382.063
380.489
378.779
377.045
375.335
373.655
371.991
370.325
368.641
366.926
365.17
363.381
361.583
359.814
358.125
356.578
355.243
354.211
353.595
353.515
354.089
355.451
357.832
361.626
367.275
374.978
384.712
396.226
409.101
422.922
437.358
452.173
467.026
481.139
493.179
501.139
502.204
492.63
468.035
424.104
356.868
275.348
321.904
325.483
326.344
325.3
323.339
320.981
318.5
316.034
313.643
311.335
309.097
306.904
304.738
302.571
300.378
298.156
295.925
293.714
291.57
289.542
287.689
286.094
284.866
284.119
283.931
284.369
285.643
288.281
292.949
299.868
308.943
319.748
331.588
343.886
356.314
368.726
380.962
392.472
402.119
408.152
408.204
399.175
377.636
340.651
286.361
220.512
265
268.448
268.917
267.168
264.313
261.021
257.644
254.348
251.195
248.194
245.326
242.561
239.879
237.231
234.573
231.89
229.196
226.515
223.889
221.352
218.947
216.744
214.862
213.421
212.434
211.821
211.71
212.883
216.51
222.843
231.684
242.328
253.592
264.651
275.254
285.461
295.4
304.839
312.903
318.117
318.586
311.706
294.735
265.71
224.084
173.975
208.519
211.752
211.79
209.166
205.162
200.686
196.199
191.892
187.825
184.002
180.388
176.947
173.667
170.465
167.258
164.019
160.758
157.498
154.279
151.118
148.023
145.056
142.382
140.187
138.368
136.5
134.457
133.529
136.011
142.138
151.572
163.17
174.794
185.153
194.199
202.432
210.443
218.396
225.687
231.048
233.115
229.595
218.126
197.321
167.041
130.085
152.732
155.596
155.143
151.256
145.57
139.432
133.465
127.851
122.62
117.752
113.189
108.884
104.862
100.977
97.08
93.1375
89.1682
85.2025
81.2968
77.44
73.5951
69.8511
66.4911
63.8769
61.7376
58.9909
54.9851
51.7802
53.1105
58.9918
69.1074
82.1437
94.7123
104.593
111.94
118.085
124.464
131.737
139.475
146.233
151.275
152.233
146.809
134.117
113.988
88.2626
97.5815
100.774
99.1729
92.9288
84.8588
76.9776
69.8535
63.412
57.5283
52.1262
47.0922
42.3754
38.0929
34.0252
29.9718
25.9429
22.0067
18.2225
14.684
11.3498
8.13055
5.16036
2.81829
1.53478
0.909679
-0.532241
-3.73705
-6.39049
-5.8383
-2.42707
4.17874
14.0789
23.7619
29.8321
32.3395
33.4878
36.1075
41.791
50.4617
59.9962
70.5478
78.1569
79.7566
75.2896
64.5021
48.7365
46.5738
49.2923
45.0068
36.6796
28.5334
22.247
17.3957
13.3139
9.69681
6.43535
3.40535
0.592064
-1.86517
-4.0919
-6.1741
-8.00468
-9.48255
-10.5288
-11.0837
-11.1708
-10.8909
-10.4945
-9.88321
-9.01534
-8.1059
-7.58764
-7.68737
-7.44162
-7.3185
-7.06805
-6.94904
-6.82645
-7.13124
-9.74543
-15.7049
-23.9877
-31.968
-36.4522
-35.7708
-29.2935
-13.4891
3.25801
13.9697
19.2335
17.9276
11.4257
13.5162
10.8693
7.83996
4.31032
1.74523
0.252963
-0.672734
-1.35619
-1.91591
-2.39688
-2.8381
-3.23288
-3.57546
-3.86813
-4.10046
-4.23496
-4.25405
-4.13927
-3.90353
-3.54411
-2.92677
-2.64668
-2.62637
-2.62684
-2.62855
-2.65518
-2.73345
-2.83101
-2.88145
-2.9084
-2.9273
-3.03395
-3.94269
-5.84958
-9.44804
-15.5897
-25.5786
-41.5617
-60.8912
-79.3042
-81.1817
-68.5561
-53.4261
-37.7354
-28.2429
-24.6483
-2.37901
-1.79567
-2.00599
-2.1958
-2.16359
-2.13995
-2.1324
-2.13689
-2.14991
-2.16888
-2.19348
-2.22151
-2.25075
-2.28293
-2.31969
-2.35823
-2.39732
-2.43588
-2.47324
-2.50907
-2.49022
-2.45115
-2.43977
-2.45264
-2.47863
-2.51449
-2.56046
-2.61079
-2.655
-2.68803
-2.69783
-2.70925
-2.82772
-3.13406
-3.35336
-3.54799
-3.77922
-6.85131
-14.9243
-29.8489
-56.9255
-81.3191
-94.7583
-88.5033
-75.1789
-62.1135
-2.29492
-2.18585
-2.17241
-2.17795
-2.15181
-2.12625
-2.10867
-2.09813
-2.09369
-2.09485
-2.10146
-2.11306
-2.12907
-2.14978
-2.17569
-2.20686
-2.24366
-2.28684
-2.33774
-2.40007
-2.47311
-2.52713
-2.55248
-2.57823
-2.61099
-2.64976
-2.69411
-2.74079
-2.78378
-2.81854
-2.83958
-2.85775
-2.91323
-3.01373
-3.09187
-3.13726
-3.14402
-3.38038
-4.15404
-4.63232
-9.28941
-22.7081
-48.4415
-77.2933
-94.0583
-92.8096
-2.32236
-2.28905
-2.25274
-2.23988
-2.22319
-2.20641
-2.19447
-2.18833
-2.18792
-2.19298
-2.20327
-2.21829
-2.23755
-2.26134
-2.29009
-2.32392
-2.36279
-2.40673
-2.45565
-2.50957
-2.56696
-2.61535
-2.6513
-2.68602
-2.72282
-2.76362
-2.80848
-2.85492
-2.89896
-2.93846
-2.97373
-3.01206
-3.06945
-3.14687
-3.22095
-3.27767
-3.30123
-3.32561
-3.45357
-3.52818
-3.8565
-4.9109
-7.08712
-18.6834
-41.0895
-69.0435
-2.35696
-2.33611
-2.31548
-2.30098
-2.28816
-2.27646
-2.26856
-2.26568
-2.26813
-2.27577
-2.28842
-2.30567
-2.32719
-2.3531
-2.38362
-2.41872
-2.45818
-2.50167
-2.54861
-2.59786
-2.64708
-2.69232
-2.73321
-2.77305
-2.81389
-2.85707
-2.90265
-2.94928
-2.99504
-3.03938
-3.08333
-3.13205
-3.19369
-3.26769
-3.34326
-3.41372
-3.47558
-3.54308
-3.64364
-3.67941
-3.68079
-3.8626
-4.16761
-4.94233
-6.55036
-16.3073
-2.40199
-2.39021
-2.37571
-2.36211
-2.35082
-2.34168
-2.33614
-2.33518
-2.33916
-2.34805
-2.36176
-2.38006
-2.4027
-2.42967
-2.46101
-2.49664
-2.53632
-2.57965
-2.62602
-2.67443
-2.72317
-2.7702
-2.815
-2.85899
-2.90337
-2.94904
-2.99604
-3.0438
-3.09171
-3.13972
-3.18906
-3.24278
-3.30486
-3.37497
-3.44803
-3.52118
-3.59554
-3.6798
-3.78012
-3.85675
-3.91085
-3.99451
-4.04738
-4.17842
-4.46042
-5.09032
-2.46279
-2.45082
-2.43787
-2.42547
-2.41562
-2.40851
-2.40498
-2.40577
-2.41119
-2.4213
-2.43606
-2.45531
-2.47892
-2.5068
-2.5389
-2.5751
-2.61513
-2.65859
-2.70491
-2.75326
-2.80248
-2.85129
-2.89917
-2.94656
-2.99409
-3.04223
-3.09112
-3.1407
-3.19087
-3.24195
-3.29491
-3.35169
-3.41426
-3.48236
-3.55394
-3.62776
-3.70464
-3.78866
-3.88172
-3.97133
-4.06141
-4.16644
-4.2499
-4.33235
-4.40939
-4.51356
-2.52737
-2.5148
-2.5026
-2.49149
-2.48321
-2.47803
-2.47642
-2.47891
-2.4858
-2.49718
-2.51304
-2.53331
-2.55786
-2.58661
-2.61946
-2.65626
-2.69674
-2.7405
-2.78703
-2.83561
-2.88538
-2.93551
-2.98552
-3.03542
-3.08543
-3.1358
-3.18671
-3.23827
-3.2907
-3.34442
-3.40023
-3.45935
-3.52286
-3.59076
-3.66216
-3.73651
-3.81424
-3.897
-3.98541
-4.07557
-4.17056
-4.27711
-4.38291
-4.49176
-4.58989
-4.67232
-2.5942
-2.58115
-2.5698
-2.56017
-2.55354
-2.55015
-2.5503
-2.55438
-2.56264
-2.57521
-2.59212
-2.61331
-2.63871
-2.66823
-2.70175
-2.7391
-2.78004
-2.82417
-2.87101
-2.91998
-2.97038
-3.02156
-3.0731
-3.12484
-3.1768
-3.22911
-3.28191
-3.33541
-3.38994
-3.44595
-3.50408
-3.56513
-3.62977
-3.69811
-3.76983
-3.84468
-3.92292
-4.00529
-4.09204
-4.18186
-4.27624
-4.37848
-4.48517
-4.59779
-4.71185
-4.82381
-2.66235
-2.64964
-2.63949
-2.63146
-2.62644
-2.62469
-2.62642
-2.63193
-2.64143
-2.65507
-2.67288
-2.69488
-2.72099
-2.75115
-2.78524
-2.82308
-2.86442
-2.90892
-2.95611
-3.00549
-3.05648
-3.10852
-3.1612
-3.21432
-3.26781
-3.32172
-3.37618
-3.43141
-3.48777
-3.54569
-3.6057
-3.66833
-3.73404
-3.80299
-3.87512
-3.95038
-4.02894
-4.11124
-4.19748
-4.2874
-4.38178
-4.48204
-4.58712
-4.69735
-4.81122
-4.92822
-2.73164
-2.72016
-2.71155
-2.70513
-2.70161
-2.70132
-2.70444
-2.7112
-2.7218
-2.73637
-2.75498
-2.77765
-2.80435
-2.83503
-2.86956
-2.9078
-2.94948
-2.99429
-3.0418
-3.09156
-3.14304
-3.19574
-3.24928
-3.30341
-3.35804
-3.4132
-3.469
-3.52567
-3.58353
-3.64298
-3.70444
-3.76832
-3.83493
-3.90447
-3.977
-4.05258
-4.13142
-4.21381
-4.30003
-4.39024
-4.48499
-4.58494
-4.68962
-4.79873
-4.91127
-5.02673
-2.80215
-2.79256
-2.78563
-2.78074
-2.77859
-2.77957
-2.78388
-2.79173
-2.80328
-2.81865
-2.83793
-2.86116
-2.88834
-2.91941
-2.95429
-2.99282
-3.03476
-3.0798
-3.12756
-3.1776
-3.22944
-3.28262
-3.33674
-3.39158
-3.44702
-3.50309
-3.5599
-3.61766
-3.67666
-3.73725
-3.79977
-3.86455
-3.93184
-4.00185
-4.07473
-4.15063
-4.22977
-4.31245
-4.39898
-4.48967
-4.58497
-4.68526
-4.79024
-4.89939
-5.01186
-5.12679
-2.87395
-2.8666
-2.86125
-2.85776
-2.85682
-2.8589
-2.86423
-2.873
-2.88535
-2.90141
-2.92125
-2.94494
-2.97249
-3.00387
-3.039
-3.07773
-3.11984
-3.16502
-3.21291
-3.2631
-3.31514
-3.36859
-3.42308
-3.47834
-3.53429
-3.59095
-3.64844
-3.70694
-3.76671
-3.82805
-3.89126
-3.95662
-4.02437
-4.09472
-4.1679
-4.24412
-4.32364
-4.40678
-4.49387
-4.58526
-4.68136
-4.78242
-4.88822
-4.99816
-5.11145
-5.22705
-2.94693
-2.94187
-2.93789
-2.93561
-2.93575
-2.93879
-2.94501
-2.95456
-2.96759
-2.98422
-3.00452
-3.02858
-3.05641
-3.088
-3.12329
-3.16213
-3.2043
-3.24952
-3.29743
-3.34764
-3.39972
-3.45326
-3.50788
-3.56334
-3.61952
-3.67647
-3.73428
-3.79316
-3.85333
-3.91505
-3.97862
-4.04428
-4.11228
-4.18288
-4.25633
-4.33289
-4.41288
-4.49661
-4.58444
-4.67676
-4.77395
-4.87627
-4.98353
-5.09509
-5.21008
-5.32724
-3.02077
-3.01782
-3.01496
-3.01376
-3.01486
-3.01877
-3.02576
-3.03599
-3.0496
-3.06669
-3.08736
-3.11169
-3.13971
-3.17142
-3.20676
-3.24561
-3.28775
-3.33291
-3.38074
-3.43085
-3.48283
-3.53628
-3.59085
-3.64627
-3.70244
-3.75937
-3.81719
-3.87608
-3.93628
-3.99806
-4.06168
-4.12742
-4.19555
-4.26633
-4.34004
-4.41699
-4.49749
-4.5819
-4.67063
-4.76412
-4.86279
-4.96694
-5.07642
-5.19055
-5.30822
-5.42785
-3.09497
-3.09384
-3.0919
-3.09166
-3.09366
-3.09835
-3.10603
-3.11685
-3.13095
-3.14843
-3.16939
-3.19391
-3.22202
-3.25375
-3.28905
-3.32781
-3.36982
-3.41482
-3.46246
-3.51237
-3.56413
-3.61735
-3.67169
-3.72687
-3.78277
-3.83942
-3.89694
-3.95553
-4.01546
-4.07699
-4.14045
-4.20612
-4.27429
-4.34524
-4.41925
-4.49661
-4.57767
-4.66285
-4.75263
-4.84757
-4.94821
-5.05487
-5.16742
-5.28509
-5.4065
-5.52955
-3.16897
-3.16932
-3.16818
-3.16884
-3.17166
-3.17707
-3.18538
-3.19674
-3.21126
-3.22906
-3.25023
-3.27485
-3.30299
-3.33465
-3.36981
-3.40837
-3.45016
-3.49491
-3.54228
-3.59188
-3.64332
-3.69618
-3.75012
-3.80487
-3.8603
-3.91642
-3.97337
-4.0314
-4.09079
-4.15189
-4.21504
-4.28056
-4.34876
-4.4199
-4.49423
-4.57204
-4.65371
-4.73975
-4.8308
-4.92757
-5.03074
-5.14069
-5.25723
-5.37948
-5.50569
-5.63321
-3.24222
-3.24378
-3.24337
-3.24487
-3.24846
-3.25456
-3.26345
-3.27528
-3.29016
-3.30821
-3.32952
-3.35418
-3.38226
-3.41377
-3.44872
-3.48701
-3.52848
-3.57289
-3.6199
-3.66912
-3.72013
-3.77252
-3.82593
-3.88008
-3.93483
-3.9902
-4.04636
-4.1036
-4.16228
-4.22281
-4.28558
-4.35096
-4.41923
-4.49061
-4.5653
-4.6436
-4.72595
-4.813
-4.90559
-5.00466
-5.11101
-5.22505
-5.34656
-5.47443
-5.60655
-5.73962
-3.31425
-3.31676
-3.31709
-3.31942
-3.32376
-3.3305
-3.33992
-3.35216
-3.36735
-3.38558
-3.40696
-3.43159
-3.45953
-3.49083
-3.52548
-3.56343
-3.60451
-3.64851
-3.69509
-3.74385
-3.79436
-3.84619
-3.89895
-3.95235
-4.00626
-4.06069
-4.11586
-4.17213
-4.22996
-4.28985
-4.35226
-4.41755
-4.48597
-4.55767
-4.63278
-4.71161
-4.7947
-4.88293
-4.97739
-5.07926
-5.18947
-5.30845
-5.43584
-5.57034
-5.7094
-5.84909
-3.38467
-3.38796
-3.38906
-3.3922
-3.39727
-3.40464
-3.41455
-3.42716
-3.44258
-3.46092
-3.4823
-3.50681
-3.53454
-3.56555
-3.59984
-3.63737
-3.678
-3.72153
-3.76762
-3.81587
-3.86585
-3.91706
-3.9691
-4.02164
-4.07455
-4.12787
-4.18187
-4.23702
-4.2939
-4.35312
-4.41521
-4.48054
-4.54925
-4.62136
-4.69695
-4.77632
-4.86018
-4.94971
-5.04634
-5.15152
-5.26628
-5.39097
-5.52508
-5.66703
-5.81388
-5.96102
-3.45327
-3.45714
-3.45908
-3.46302
-3.46882
-3.47679
-3.48716
-3.50008
-3.51567
-3.53405
-3.55535
-3.57966
-3.60709
-3.63771
-3.67156
-3.70861
-3.74874
-3.79174
-3.83731
-3.88504
-3.93443
-3.98497
-4.03622
-4.08783
-4.13964
-4.19173
-4.24445
-4.29838
-4.35425
-4.41282
-4.47467
-4.54013
-4.60923
-4.68185
-4.75795
-4.83784
-4.92248
-5.01339
-5.11243
-5.22131
-5.34114
-5.47212
-5.61348
-5.76338
-5.91859
-6.074
-3.51999
-3.5242
-3.52703
-3.53176
-3.53828
-3.54684
-3.55763
-3.57082
-3.58653
-3.60489
-3.62603
-3.65006
-3.67711
-3.70727
-3.74059
-3.77707
-3.81662
-3.85904
-3.90403
-3.95113
-3.99977
-4.04949
-4.09983
-4.15044
-4.20114
-4.25203
-4.30355
-4.35638
-4.41137
-4.46936
-4.53097
-4.59652
-4.66592
-4.73896
-4.81552
-4.89601
-4.98158
-5.07409
-5.17572
-5.28839
-5.41329
-5.55053
-5.69919
-5.8572
-6.02131
-6.1858
-3.58485
-3.58912
-3.59288
-3.59842
-3.60566
-3.61478
-3.62598
-3.63941
-3.65521
-3.67351
-3.69445
-3.71817
-3.74478
-3.77441
-3.80712
-3.84294
-3.88179
-3.92348
-3.96768
-4.01388
-4.06156
-4.11023
-4.15948
-4.20899
-4.25861
-4.3085
-4.3591
-4.41115
-4.46554
-4.52311
-4.58446
-4.64987
-4.71925
-4.79239
-4.86927
-4.95044
-5.03722
-5.13161
-5.2359
-5.3521
-5.48146
-5.62428
-5.77976
-5.94603
-6.11947
-6.29318
-3.64775
-3.65195
-3.65667
-3.66305
-3.671
-3.68067
-3.69225
-3.7059
-3.72178
-3.74002
-3.76076
-3.78416
-3.81033
-3.83939
-3.87144
-3.9065
-3.94448
-3.98521
-4.02834
-4.07339
-4.11985
-4.16727
-4.21529
-4.26363
-4.31221
-4.36122
-4.41115
-4.46272
-4.51676
-4.57403
-4.63507
-4.70012
-4.76915
-4.84208
-4.91908
-5.0009
-5.08897
-5.18524
-5.29193
-5.411
-5.54391
-5.69133
-5.85292
-6.02703
-6.20984
-6.39345
-3.70865
-3.71272
-3.71844
-3.72569
-3.73432
-3.7445
-3.75643
-3.77028
-3.78621
-3.80438
-3.82493
-3.84799
-3.87371
-3.9022
-3.93353
-3.96773
-4.00472
-4.04431
-4.08618
-4.12991
-4.17503
-4.22113
-4.26785
-4.31498
-4.3625
-4.41065
-4.45994
-4.51105
-4.56475
-4.6217
-4.68236
-4.74694
-4.81546
-4.88803
-4.96492
-5.0472
-5.13624
-5.23395
-5.34234
-5.46339
-5.59874
-5.74958
-5.91614
-6.09703
-6.28825
-6.48194
-3.76743
-3.77183
-3.77837
-3.78639
-3.79563
-3.80626
-3.81848
-3.83248
-3.84842
-3.86647
-3.88677
-3.90947
-3.93469
-3.96255
-3.99311
-4.02639
-4.06232
-4.1007
-4.14127
-4.18363
-4.22738
-4.27212
-4.31753
-4.36343
-4.40985
-4.45707
-4.50561
-4.55612
-4.60931
-4.66577
-4.7259
-4.78987
-4.85779
-4.92984
-5.00653
-5.08888
-5.17835
-5.27675
-5.38577
-5.50771
-5.64422
-5.79692
-5.96659
-6.1522
-6.34986
-6.55161
-3.82442
-3.82925
-3.8365
-3.8452
-3.85497
-3.86596
-3.8784
-3.89248
-3.90837
-3.92624
-3.94623
-3.96849
-3.99315
-4.02031
-4.05004
-4.08235
-4.11717
-4.15434
-4.1936
-4.23461
-4.27699
-4.32038
-4.36447
-4.40911
-4.45438
-4.50057
-4.5482
-4.59792
-4.65038
-4.70613
-4.76551
-4.8287
-4.8958
-4.9671
-5.04319
-5.12512
-5.2143
-5.31241
-5.42121
-5.54268
-5.67879
-5.83142
-6.00176
-6.18928
-6.39043
-6.59733
-3.87983
-3.88506
-3.89294
-3.90222
-3.91242
-3.9237
-3.93629
-3.95037
-3.96614
-3.98375
-4.00336
-4.02512
-4.04914
-4.07554
-4.10437
-4.13566
-4.16935
-4.20528
-4.24324
-4.2829
-4.32392
-4.36595
-4.40871
-4.45207
-4.49612
-4.54117
-4.58775
-4.63647
-4.68798
-4.74277
-4.80115
-4.86327
-4.92926
-4.99943
-5.07443
-5.1553
-5.24338
-5.34023
-5.44751
-5.56708
-5.70101
-5.8514
-6.01973
-6.20596
-6.40713
-6.616
-3.93385
-3.93942
-3.94782
-3.95758
-3.96812
-3.9796
-3.99225
-4.00628
-4.02185
-4.03915
-4.05831
-4.0795
-4.10282
-4.12839
-4.15628
-4.1865
-4.21902
-4.2537
-4.29034
-4.32865
-4.36829
-4.40895
-4.45035
-4.49238
-4.53513
-4.57893
-4.62427
-4.6718
-4.72211
-4.77566
-4.83274
-4.89347
-4.95796
-5.02656
-5.0999
-5.179
-5.26512
-5.35965
-5.4641
-5.58023
-5.71009
-5.85585
-6.0192
-6.20054
-6.3978
-6.60478
-3.98668
-3.99251
-4.00132
-4.01145
-4.02223
-4.03383
-4.04647
-4.06036
-4.07568
-4.09259
-4.11125
-4.13181
-4.15437
-4.17906
-4.20595
-4.23507
-4.26638
-4.29977
-4.33507
-4.372
-4.41025
-4.4495
-4.48951
-4.53015
-4.57151
-4.61392
-4.65786
-4.70397
-4.75281
-4.80483
-4.86027
-4.91923
-4.98181
-5.04833
-5.11941
-5.196
-5.27925
-5.37039
-5.47074
-5.5819
-5.70583
-5.84464
-6.00014
-6.17315
-6.36237
-6.56273
-4.03849
-4.04451
-4.05362
-4.06401
-4.07493
-4.08656
-4.09911
-4.1128
-4.1278
-4.14428
-4.16238
-4.18225
-4.20401
-4.22777
-4.25362
-4.28158
-4.31164
-4.34371
-4.37763
-4.41315
-4.44996
-4.48777
-4.52633
-4.5655
-4.60538
-4.64626
-4.68863
-4.73307
-4.78017
-4.83033
-4.88377
-4.94057
-5.00079
-5.06471
-5.1329
-5.20625
-5.28575
-5.37246
-5.46751
-5.57229
-5.68856
-5.81833
-5.96343
-6.12507
-6.30283
-6.49307
-4.08946
-4.09559
-4.10489
-4.11542
-4.1264
-4.13796
-4.15036
-4.16378
-4.1784
-4.19439
-4.21188
-4.23103
-4.25194
-4.27473
-4.29948
-4.32624
-4.35501
-4.38571
-4.4182
-4.45226
-4.48759
-4.5239
-4.56094
-4.59858
-4.63687
-4.67609
-4.7167
-4.75927
-4.80434
-4.85231
-4.90338
-4.9576
-5.015
-5.07581
-5.14053
-5.20993
-5.28487
-5.36621
-5.45488
-5.55202
-5.65917
-5.77809
-5.91061
-6.05826
-6.22149
-6.39845
-4.13972
-4.14589
-4.15528
-4.16585
-4.17678
-4.18821
-4.20037
-4.21347
-4.22766
-4.2431
-4.25994
-4.27831
-4.29833
-4.3201
-4.34372
-4.36924
-4.39666
-4.42595
-4.45695
-4.48948
-4.52327
-4.55801
-4.59347
-4.62949
-4.6661
-4.70354
-4.74223
-4.78271
-4.82549
-4.87096
-4.9193
-4.97054
-5.02469
-5.08191
-5.14261
-5.20744
-5.2771
-5.35227
-5.43365
-5.52214
-5.61896
-5.7256
-5.84375
-5.97502
-6.12045
-6.27978
-4.18939
-4.19553
-4.2049
-4.21541
-4.2262
-4.23742
-4.24929
-4.262
-4.27571
-4.29057
-4.30671
-4.32427
-4.34335
-4.36407
-4.38651
-4.41073
-4.43677
-4.46457
-4.49403
-4.52497
-4.55713
-4.59024
-4.62404
-4.65836
-4.6932
-4.72875
-4.76539
-4.8036
-4.84386
-4.88654
-4.93182
-4.97971
-5.03021
-5.08341
-5.13963
-5.19937
-5.26317
-5.33152
-5.40492
-5.484
-5.56965
-5.663
-5.76547
-5.87848
-6.00317
-6.14013
-4.23857
-4.24462
-4.25387
-4.26421
-4.27479
-4.28573
-4.29725
-4.30951
-4.32269
-4.33692
-4.35233
-4.36903
-4.38715
-4.40677
-4.42799
-4.45089
-4.47547
-4.50174
-4.52959
-4.55886
-4.58933
-4.62072
-4.65278
-4.68533
-4.71832
-4.75189
-4.78636
-4.82216
-4.85972
-4.89938
-4.94131
-4.98555
-5.03205
-5.08087
-5.13223
-5.18648
-5.24399
-5.30508
-5.37005
-5.43926
-5.51327
-5.59281
-5.67891
-5.77257
-5.87467
-5.98589
-4.28734
-4.29324
-4.30228
-4.31237
-4.32266
-4.33325
-4.34436
-4.35614
-4.36875
-4.38231
-4.39694
-4.41276
-4.42987
-4.44837
-4.46834
-4.48986
-4.51296
-4.53763
-4.5638
-4.59134
-4.62003
-4.64962
-4.67986
-4.71055
-4.74161
-4.77314
-4.80536
-4.83865
-4.87338
-4.90985
-4.94824
-4.98857
-5.0308
-5.07496
-5.12117
-5.16964
-5.2206
-5.2742
-5.33054
-5.38977
-5.45207
-5.51783
-5.58759
-5.66187
-5.74103
-5.82528
-4.33579
-4.34148
-4.35023
-4.36
-4.36992
-4.38011
-4.39076
-4.40201
-4.41401
-4.42687
-4.4407
-4.45561
-4.47169
-4.48903
-4.50773
-4.52783
-4.5494
-4.57244
-4.59688
-4.62261
-4.64944
-4.67715
-4.70548
-4.73424
-4.76331
-4.79272
-4.82264
-4.85336
-4.88518
-4.91838
-4.95309
-4.98936
-5.02715
-5.06646
-5.10733
-5.14987
-5.19415
-5.24021
-5.28797
-5.33737
-5.38833
-5.44084
-5.49503
-5.55092
-5.60832
-5.66684
-4.38399
-4.38944
-4.39783
-4.4072
-4.41671
-4.42644
-4.43659
-4.44728
-4.45863
-4.47077
-4.48377
-4.49775
-4.51278
-4.52895
-4.54635
-4.56503
-4.58504
-4.60639
-4.62905
-4.65292
-4.67783
-4.70357
-4.72992
-4.75666
-4.78367
-4.81091
-4.8385
-4.86663
-4.89553
-4.92542
-4.95642
-4.98857
-5.02184
-5.0562
-5.09167
-5.12823
-5.16588
-5.20449
-5.24391
-5.28389
-5.32414
-5.36437
-5.40431
-5.44361
-5.48163
-5.51749
-4.43204
-4.43721
-4.44519
-4.4541
-4.46315
-4.4724
-4.482
-4.4921
-4.50279
-4.51417
-4.52634
-4.53937
-4.55334
-4.56833
-4.58442
-4.60166
-4.6201
-4.63975
-4.6606
-4.68255
-4.70548
-4.7292
-4.75348
-4.77814
-4.80302
-4.82806
-4.85328
-4.87882
-4.90482
-4.93145
-4.95878
-4.98685
-5.01563
-5.04509
-5.07519
-5.10588
-5.13703
-5.16848
-5.19994
-5.23108
-5.26147
-5.29061
-5.31798
-5.34294
-5.36456
-5.38165
-4.48001
-4.4849
-4.49243
-4.50084
-4.50939
-4.51811
-4.52716
-4.53664
-4.54665
-4.55727
-4.56858
-4.58066
-4.59357
-4.60738
-4.62216
-4.63796
-4.65483
-4.67278
-4.6918
-4.71182
-4.73273
-4.75436
-4.77653
-4.79904
-4.82174
-4.84452
-4.86737
-4.89034
-4.91351
-4.93696
-4.96074
-4.98485
-5.00927
-5.03396
-5.05887
-5.08389
-5.10887
-5.13354
-5.15758
-5.1806
-5.20209
-5.22147
-5.23806
-5.25105
-5.25938
-5.26167
-4.528
-4.5326
-4.53965
-4.54755
-4.55557
-4.56375
-4.57222
-4.58107
-4.59038
-4.60023
-4.61068
-4.62181
-4.63366
-4.6463
-4.65979
-4.67417
-4.68949
-4.70575
-4.72295
-4.74103
-4.7599
-4.77943
-4.79944
-4.81975
-4.84022
-4.86072
-4.8812
-4.90163
-4.92204
-4.94245
-4.96284
-4.9832
-5.00348
-5.02364
-5.04362
-5.0633
-5.08249
-5.1009
-5.11818
-5.13389
-5.14753
-5.15848
-5.16602
-5.16931
-5.16726
-5.1585
-4.57609
-4.58039
-4.58696
-4.59433
-4.60181
-4.60944
-4.61732
-4.62553
-4.63414
-4.64321
-4.65281
-4.66299
-4.6738
-4.68529
-4.69751
-4.7105
-4.72429
-4.7389
-4.7543
-4.77047
-4.78732
-4.80473
-4.82257
-4.84066
-4.85888
-4.87708
-4.89518
-4.91312
-4.93087
-4.94839
-4.9656
-4.98246
-4.99889
-5.01485
-5.03025
-5.045
-5.05889
-5.07163
-5.08285
-5.09213
-5.09897
-5.10278
-5.10288
-5.09848
-5.08859
-5.07196
-4.62434
-4.62835
-4.63445
-4.64129
-4.64823
-4.6553
-4.66258
-4.67015
-4.67806
-4.68637
-4.69512
-4.70437
-4.71415
-4.72452
-4.7355
-4.74714
-4.75945
-4.77244
-4.78611
-4.80041
-4.81527
-4.8306
-4.84628
-4.86216
-4.87811
-4.89402
-4.90976
-4.92527
-4.94045
-4.95523
-4.96949
-4.98314
-4.99607
-5.00821
-5.01949
-5.02978
-5.0389
-5.0466
-5.05251
-5.05624
-5.0573
-5.05519
-5.0493
-5.03892
-5.02324
-5.00116
-4.67282
-4.67656
-4.6822
-4.68851
-4.69492
-4.70143
-4.70812
-4.71506
-4.72227
-4.72982
-4.73774
-4.74608
-4.75486
-4.76413
-4.77392
-4.78425
-4.79514
-4.80658
-4.81857
-4.83107
-4.84402
-4.85733
-4.8709
-4.8846
-4.89832
-4.91195
-4.92537
-4.9385
-4.95121
-4.96341
-4.97494
-4.98567
-4.99547
-5.00423
-5.01186
-5.01824
-5.02321
-5.02652
-5.02788
-5.0269
-5.02318
-5.01626
-5.00564
-4.99073
-4.97084
-4.9451
-4.72158
-4.72506
-4.73027
-4.73607
-4.74195
-4.74792
-4.75403
-4.76034
-4.76687
-4.77368
-4.78078
-4.78823
-4.79604
-4.80426
-4.81289
-4.82197
-4.8315
-4.84147
-4.85187
-4.86266
-4.87378
-4.88516
-4.8967
-4.9083
-4.91985
-4.93126
-4.94242
-4.95323
-4.96358
-4.97334
-4.98234
-4.99043
-4.99744
-5.00326
-5.00774
-5.01079
-5.01222
-5.01185
-5.00939
-5.00454
-4.99694
-4.98622
-4.97194
-4.95366
-4.93085
-4.90285
-4.77067
-4.77392
-4.77871
-4.78402
-4.78939
-4.79483
-4.80038
-4.80607
-4.81194
-4.81802
-4.82434