/*--------------------------------*- C++ -*----------------------------------*\
  =========                 |
  \\      /  F ield         | OpenFOAM: The Open Source CFD Toolbox
   \\    /   O peration     | Website:  https://openfoam.org
    \\  /    A nd           | Version:  7
     \\/     M anipulation  |
\*---------------------------------------------------------------------------*/
FoamFile
{
    version     2.0;
    format      ascii;
    class       volVectorField;
    location    "0.35";
    object      U;
}
// * * * * * * * * * * * * * * * * * * * * * * * * * * * * * * * * * * * * * //

dimensions      [0 1 -1 0 0 0 0];

internalField   nonuniform List<vector> 
7700
(
(-0.0392405 0.019746 0)
(-0.0616162 0.00490237 0)
(-0.0523713 -0.0111014 0)
(-0.0290236 -0.0172204 0)
(0.00205184 -0.0188402 0)
(0.035194 -0.0186342 0)
(0.0677823 -0.0174925 0)
(0.0988465 -0.016096 0)
(0.128038 -0.0147718 0)
(0.15545 -0.0136405 0)
(0.181388 -0.0127356 0)
(0.206202 -0.0120498 0)
(0.23021 -0.0115559 0)
(0.25368 -0.0112189 0)
(0.276822 -0.0110038 0)
(0.299794 -0.0108785 0)
(0.322699 -0.0108147 0)
(0.345601 -0.010788 0)
(0.368521 -0.0107773 0)
(0.391449 -0.010764 0)
(0.41434 -0.0107309 0)
(0.437121 -0.0106612 0)
(0.459683 -0.0105375 0)
(0.481881 -0.0103408 0)
(0.50353 -0.010049 0)
(0.524393 -0.00963549 0)
(0.544171 -0.00906749 0)
(0.562485 -0.00830284 0)
(0.578854 -0.00728491 0)
(0.59266 -0.00592957 0)
(0.603039 -0.00409599 0)
(0.609086 -0.00140852 0)
(0.608557 0.00250773 0)
(0.598544 0.00785961 0)
(0.576995 0.0146841 0)
(0.541685 0.0229285 0)
(0.490339 0.0323497 0)
(0.421185 0.0422795 0)
(0.333787 0.0514058 0)
(0.230086 0.0578196 0)
(0.114359 0.0597702 0)
(-0.000639094 0.0595191 0)
(-0.133518 0.0503852 0)
(-0.243146 0.00172262 0)
(-0.227026 -0.0706531 0)
(-0.087149 -0.104345 0)
(-0.028946 0.0484997 0)
(-0.0235983 0.00921936 0)
(-0.0101646 -0.0177921 0)
(0.0120788 -0.0311752 0)
(0.039555 -0.0364419 0)
(0.0688603 -0.0374372 0)
(0.0983476 -0.0363852 0)
(0.127167 -0.0345815 0)
(0.154996 -0.0326906 0)
(0.181818 -0.0310167 0)
(0.207772 -0.0296736 0)
(0.233043 -0.0286743 0)
(0.257818 -0.0279827 0)
(0.282256 -0.0275428 0)
(0.306487 -0.0272947 0)
(0.330602 -0.0271817 0)
(0.354663 -0.0271526 0)
(0.378697 -0.0271622 0)
(0.402705 -0.0271702 0)
(0.42666 -0.0271398 0)
(0.45051 -0.0270353 0)
(0.474174 -0.0268204 0)
(0.49754 -0.0264556 0)
(0.520465 -0.0258962 0)
(0.542764 -0.0250893 0)
(0.564206 -0.0239704 0)
(0.5845 -0.02246 0)
(0.603289 -0.0204567 0)
(0.620124 -0.0178284 0)
(0.63446 -0.0143925 0)
(0.645647 -0.00988846 0)
(0.652858 -0.00388021 0)
(0.655841 0.00414372 0)
(0.653987 0.0145918 0)
(0.645594 0.0277228 0)
(0.628538 0.0437343 0)
(0.600236 0.0625846 0)
(0.557601 0.083628 0)
(0.497215 0.105179 0)
(0.416165 0.12426 0)
(0.313385 0.136875 0)
(0.196336 0.140856 0)
(0.0722485 0.130754 0)
(-0.0374371 0.0775865 0)
(-0.0990807 -0.0449243 0)
(-0.0443566 -0.197077 0)
(-0.00732915 0.058617 0)
(0.00263512 0.000586812 0)
(0.0179204 -0.0323504 0)
(0.0395809 -0.0489932 0)
(0.064793 -0.0560596 0)
(0.0915414 -0.0577012 0)
(0.1187 -0.0566331 0)
(0.145666 -0.0544797 0)
(0.172179 -0.0521232 0)
(0.198177 -0.0499915 0)
(0.223705 -0.0482562 0)
(0.248849 -0.0469503 0)
(0.273707 -0.0460365 0)
(0.298368 -0.0454478 0)
(0.322903 -0.0451081 0)
(0.347365 -0.0449427 0)
(0.371783 -0.0448826 0)
(0.396167 -0.0448652 0)
(0.420502 -0.0448327 0)
(0.444752 -0.0447307 0)
(0.468861 -0.0445053 0)
(0.492743 -0.0441001 0)
(0.516289 -0.0434531 0)
(0.539356 -0.0424933 0)
(0.561764 -0.0411371 0)
(0.58329 -0.0392833 0)
(0.603657 -0.0368074 0)
(0.622527 -0.0335547 0)
(0.639488 -0.0293308 0)
(0.654042 -0.0238886 0)
(0.665609 -0.0169147 0)
(0.673492 -0.00803044 0)
(0.677038 0.0032791 0)
(0.675602 0.0176307 0)
(0.668309 0.0356163 0)
(0.654103 0.0577181 0)
(0.631745 0.0841688 0)
(0.599766 0.114602 0)
(0.556335 0.147489 0)
(0.49919 0.179507 0)
(0.4259 0.205093 0)
(0.337077 0.217498 0)
(0.238725 0.205576 0)
(0.13914 0.14484 0)
(0.0373489 0.00944914 0)
(0.0292324 -0.211822 0)
(0.00605171 0.052187 0)
(0.0185493 -0.00897326 0)
(0.0370042 -0.0471622 0)
(0.0594269 -0.0667825 0)
(0.0837462 -0.0752399 0)
(0.108961 -0.0774126 0)
(0.134503 -0.0764104 0)
(0.160064 -0.074092 0)
(0.185492 -0.0714808 0)
(0.210735 -0.0690851 0)
(0.235793 -0.0671166 0)
(0.260694 -0.0656236 0)
(0.285475 -0.0645715 0)
(0.310173 -0.0638872 0)
(0.33482 -0.063485 0)
(0.359436 -0.0632781 0)
(0.384027 -0.0631844 0)
(0.408584 -0.0631272 0)
(0.433082 -0.0630343 0)
(0.45748 -0.0628359 0)
(0.481714 -0.0624611 0)
(0.505699 -0.0618348 0)
(0.529327 -0.0608735 0)
(0.552458 -0.0594815 0)
(0.574918 -0.0575458 0)
(0.596495 -0.0549307 0)
(0.616927 -0.0514709 0)
(0.635899 -0.0469635 0)
(0.65303 -0.0411591 0)
(0.667869 -0.0337516 0)
(0.679891 -0.0243693 0)
(0.68849 -0.0125741 0)
(0.693022 0.00217454 0)
(0.692853 0.0205043 0)
(0.687305 0.0430528 0)
(0.675683 0.0703636 0)
(0.657283 0.102745 0)
(0.631374 0.139975 0)
(0.597087 0.1808 0)
(0.553194 0.222194 0)
(0.497804 0.258436 0)
(0.429139 0.280542 0)
(0.347174 0.273941 0)
(0.253012 0.215541 0)
(0.142624 0.0789456 0)
(0.0860867 -0.152839 0)
(0.00990781 0.0398039 0)
(0.0269496 -0.0232902 0)
(0.0494207 -0.0638536 0)
(0.0733739 -0.0848378 0)
(0.0976438 -0.0938976 0)
(0.12206 -0.0963141 0)
(0.146567 -0.0953882 0)
(0.171137 -0.0930617 0)
(0.195749 -0.0904015 0)
(0.220388 -0.0879426 0)
(0.245041 -0.0859128 0)
(0.269706 -0.0843694 0)
(0.294383 -0.0832807 0)
(0.319073 -0.0825727 0)
(0.343777 -0.0821551 0)
(0.36849 -0.0819343 0)
(0.393199 -0.0818196 0)
(0.41788 -0.0817244 0)
(0.4425 -0.0815651 0)
(0.46701 -0.0812589 0)
(0.491343 -0.0807202 0)
(0.515416 -0.079857 0)
(0.53912 -0.0785663 0)
(0.562322 -0.0767295 0)
(0.584858 -0.0742068 0)
(0.606526 -0.070831 0)
(0.627083 -0.0663999 0)
(0.646239 -0.0606685 0)
(0.663645 -0.0533396 0)
(0.678893 -0.0440564 0)
(0.691515 -0.0323975 0)
(0.700976 -0.0178781 0)
(0.7067 6.17461e-05 0)
(0.708121 0.0220503 0)
(0.704672 0.0487178 0)
(0.695826 0.0805909 0)
(0.681105 0.117957 0)
(0.660046 0.160616 0)
(0.632101 0.207464 0)
(0.59639 0.255834 0)
(0.551294 0.300502 0)
(0.494249 0.332434 0)
(0.421783 0.336602 0)
(0.329683 0.290401 0)
(0.214639 0.167719 0)
(0.122478 -0.0630829 0)
(0.0104485 0.0258085 0)
(0.0316681 -0.0410645 0)
(0.0574624 -0.0824809 0)
(0.0828841 -0.103447 0)
(0.107362 -0.112315 0)
(0.131351 -0.114623 0)
(0.155195 -0.113693 0)
(0.179086 -0.11142 0)
(0.203114 -0.108833 0)
(0.227303 -0.106446 0)
(0.251647 -0.10448 0)
(0.276126 -0.102991 0)
(0.300718 -0.101947 0)
(0.325402 -0.101275 0)
(0.350154 -0.100883 0)
(0.374951 -0.100674 0)
(0.399764 -0.100552 0)
(0.424559 -0.100424 0)
(0.449293 -0.100197 0)
(0.473912 -0.0997789 0)
(0.498349 -0.0990708 0)
(0.522519 -0.0979661 0)
(0.546319 -0.0963444 0)
(0.569623 -0.0940667 0)
(0.592275 -0.0909693 0)
(0.61409 -0.0868571 0)
(0.634845 -0.0814958 0)
(0.654274 -0.0746033 0)
(0.672066 -0.0658419 0)
(0.687854 -0.0548117 0)
(0.701222 -0.0410497 0)
(0.711702 -0.0240348 0)
(0.718786 -0.00319111 0)
(0.721983 0.0221011 0)
(0.720809 0.0524455 0)
(0.714831 0.0883329 0)
(0.703667 0.130023 0)
(0.686943 0.177338 0)
(0.664169 0.229329 0)
(0.634495 0.283726 0)
(0.596267 0.336029 0)
(0.546453 0.37813 0)
(0.479726 0.396209 0)
(0.387985 0.369319 0)
(0.267018 0.271237 0)
(0.145168 0.0627299 0)
(0.011155 0.0104408 0)
(0.0351241 -0.0613285 0)
(0.0629727 -0.102582 0)
(0.0892492 -0.122534 0)
(0.11377 -0.130631 0)
(0.13741 -0.132567 0)
(0.160766 -0.131554 0)
(0.184168 -0.129359 0)
(0.207773 -0.126915 0)
(0.231635 -0.124688 0)
(0.255752 -0.122871 0)
(0.280097 -0.121511 0)
(0.304634 -0.120574 0)
(0.329325 -0.119984 0)
(0.35413 -0.11965 0)
(0.379011 -0.119474 0)
(0.403926 -0.119356 0)
(0.428833 -0.1192 0)
(0.453682 -0.118906 0)
(0.478416 -0.118374 0)
(0.502965 -0.117495 0)
(0.527249 -0.116149 0)
(0.551168 -0.114202 0)
(0.574604 -0.111495 0)
(0.597414 -0.107846 0)
(0.619429 -0.103033 0)
(0.640447 -0.0967965 0)
(0.660233 -0.0888218 0)
(0.678509 -0.0787365 0)
(0.694955 -0.0661039 0)
(0.709203 -0.0504257 0)
(0.720844 -0.031152 0)
(0.729437 -0.00769416 0)
(0.734553 0.0205569 0)
(0.735779 0.0541768 0)
(0.732741 0.093623 0)
(0.725111 0.13914 0)
(0.712543 0.190602 0)
(0.694542 0.247252 0)
(0.670211 0.307273 0)
(0.637797 0.367029 0)
(0.593924 0.419812 0)
(0.532183 0.45397 0)
(0.441666 0.45137 0)
(0.316722 0.387089 0)
(0.170326 0.219706 0)
(0.0123381 -0.00637612 0)
(0.0381306 -0.0831642 0)
(0.0669542 -0.123431 0)
(0.0933698 -0.141741 0)
(0.117608 -0.148752 0)
(0.14082 -0.150193 0)
(0.163731 -0.149078 0)
(0.186729 -0.146992 0)
(0.210001 -0.144749 0)
(0.233609 -0.142746 0)
(0.257553 -0.141142 0)
(0.2818 -0.139969 0)
(0.306302 -0.139185 0)
(0.331009 -0.138715 0)
(0.355868 -0.138466 0)
(0.38083 -0.138339 0)
(0.405844 -0.138237 0)
(0.430859 -0.138058 0)
(0.455821 -0.137699 0)
(0.480671 -0.137054 0)
(0.505339 -0.136006 0)
(0.529746 -0.134424 0)
(0.553801 -0.132161 0)
(0.577392 -0.129044 0)
(0.600391 -0.124871 0)
(0.622644 -0.119403 0)
(0.643976 -0.112355 0)
(0.66418 -0.103388 0)
(0.683018 -0.0920994 0)
(0.700215 -0.0780207 0)
(0.715452 -0.0606226 0)
(0.728375 -0.0393305 0)
(0.738601 -0.0135461 0)
(0.745754 0.0173299 0)
(0.749483 0.0538477 0)
(0.749467 0.0964381 0)
(0.74542 0.145343 0)
(0.737031 0.200505 0)
(0.723833 0.261386 0)
(0.704949 0.326653 0)
(0.678641 0.393615 0)
(0.641449 0.457263 0)
(0.586494 0.508821 0)
(0.500676 0.534308 0)
(0.376876 0.512564 0)
(0.203747 0.407251 0)
(0.0138355 -0.0246994 0)
(0.0408803 -0.105874 0)
(0.069851 -0.144385 0)
(0.0958025 -0.160689 0)
(0.119448 -0.166509 0)
(0.14211 -0.167458 0)
(0.164551 -0.166283 0)
(0.187164 -0.16436 0)
(0.210133 -0.162377 0)
(0.233518 -0.160657 0)
(0.257311 -0.159321 0)
(0.281469 -0.158382 0)
(0.305938 -0.157791 0)
(0.330655 -0.157471 0)
(0.355559 -0.157329 0)
(0.380589 -0.15727 0)
(0.405689 -0.157192 0)
(0.4308 -0.156997 0)
(0.455865 -0.156577 0)
(0.480822 -0.155823 0)
(0.505604 -0.15461 0)
(0.530136 -0.1528 0)
(0.554329 -0.150235 0)
(0.578085 -0.14673 0)
(0.601285 -0.142069 0)
(0.623797 -0.135995 0)
(0.645468 -0.128208 0)
(0.666126 -0.118347 0)
(0.685574 -0.105987 0)
(0.703582 -0.090629 0)
(0.719885 -0.0717167 0)
(0.734177 -0.0486523 0)
(0.746126 -0.0208281 0)
(0.755406 0.012345 0)
(0.761722 0.0513929 0)
(0.764801 0.0967217 0)
(0.764419 0.148572 0)
(0.760335 0.206951 0)
(0.752183 0.271527 0)
(0.739246 0.341431 0)
(0.72005 0.414906 0)
(0.691524 0.488743 0)
(0.647252 0.557497 0)
(0.573042 0.61302 0)
(0.464639 0.644354 0)
(0.260609 0.634134 0)
(0.0155251 -0.0445652 0)
(0.0433429 -0.12895 0)
(0.0718341 -0.164964 0)
(0.0968947 -0.179084 0)
(0.11973 -0.183755 0)
(0.141741 -0.184302 0)
(0.163669 -0.183151 0)
(0.185882 -0.181466 0)
(0.208543 -0.179807 0)
(0.231698 -0.178426 0)
(0.255329 -0.177407 0)
(0.279385 -0.176744 0)
(0.303801 -0.176382 0)
(0.328506 -0.17624 0)
(0.353429 -0.176228 0)
(0.378502 -0.17625 0)
(0.403662 -0.176209 0)
(0.428844 -0.176003 0)
(0.45399 -0.175529 0)
(0.479035 -0.17467 0)
(0.503914 -0.1733 0)
(0.528555 -0.171273 0)
(0.552877 -0.168423 0)
(0.576787 -0.164556 0)
(0.600183 -0.159442 0)
(0.622948 -0.152818 0)
(0.644955 -0.144367 0)
(0.666068 -0.133717 0)
(0.686133 -0.120424 0)
(0.704973 -0.103966 0)
(0.722375 -0.0837551 0)
(0.738082 -0.059171 0)
(0.75181 -0.0295955 0)
(0.763269 0.0055494 0)
(0.772218 0.0467621 0)
(0.77844 0.0944184 0)
(0.781785 0.148742 0)
(0.782128 0.209777 0)
(0.779287 0.277342 0)
(0.772859 0.350929 0)
(0.76193 0.429553 0)
(0.744427 0.51157 0)
(0.715787 0.594709 0)
(0.663598 0.677594 0)
(0.592893 0.768172 0)
(0.348628 0.948835 0)
(0.0132136 -0.00684736 0)
(0.00496778 0.0117451 0)
(-0.029671 0.0192916 0)
(-0.0681784 0.019439 0)
(-0.102338 0.0178131 0)
(-0.128161 0.0120737 0)
(-0.14508 0.00571355 0)
(-0.152879 0.00206911 0)
(-0.153827 -0.00101929 0)
(-0.149041 -0.00336971 0)
(-0.140238 -0.00504753 0)
(-0.128355 -0.0062478 0)
(-0.114287 -0.00706094 0)
(-0.0987901 -0.0075425 0)
(-0.0825215 -0.00773581 0)
(-0.0660577 -0.00768046 0)
(-0.0498766 -0.00742467 0)
(-0.0343239 -0.00706168 0)
(-0.0198368 -0.00652379 0)
(-0.00688888 -0.00574929 0)
(0.00455029 -0.00487556 0)
(0.0144955 -0.00397136 0)
(0.0226279 -0.00333201 0)
(0.0292803 -0.00255898 0)
(0.034375 -0.00170295 0)
(0.0378757 -0.000951908 0)
(0.0399402 -0.00030678 0)
(0.0406709 0.000271434 0)
(0.0401596 0.000650729 0)
(0.0385228 0.00118668 0)
(0.0358408 0.00177946 0)
(0.0322853 0.00214564 0)
(0.0279804 0.00249967 0)
(0.0230301 0.00279597 0)
(0.0175753 0.00299042 0)
(0.0119694 0.00296411 0)
(0.00651686 0.00265197 0)
(0.0016689 0.00195357 0)
(-0.00137808 0.000546456 0)
(-0.00193008 -0.00128092 0)
(-0.00437426 -0.00811743 0)
(-0.0220772 0.0258726 0)
(-0.060446 0.0384594 0)
(-0.0981435 0.0382348 0)
(-0.127395 0.0310912 0)
(-0.147851 0.0219861 0)
(-0.159655 0.0125958 0)
(-0.164455 0.00441186 0)
(-0.163648 -0.00229245 0)
(-0.158402 -0.0075483 0)
(-0.149382 -0.0115133 0)
(-0.137497 -0.0144225 0)
(-0.123533 -0.0164358 0)
(-0.108179 -0.017675 0)
(-0.0920426 -0.01824 0)
(-0.0756483 -0.0182191 0)
(-0.0594523 -0.0176921 0)
(-0.0438392 -0.0167238 0)
(-0.0291223 -0.0153566 0)
(-0.0155234 -0.0136632 0)
(-0.00331994 -0.012007 0)
(0.00742721 -0.0102443 0)
(0.0166072 -0.00836801 0)
(0.0241191 -0.00666045 0)
(0.0300743 -0.00495799 0)
(0.0344852 -0.00332882 0)
(0.0374264 -0.00178465 0)
(0.0389626 -0.000342224 0)
(0.039211 0.000986305 0)
(0.0382594 0.00216708 0)
(0.0362403 0.003175 0)
(0.0332591 0.00407321 0)
(0.0294278 0.00482885 0)
(0.0248994 0.0054318 0)
(0.0198428 0.00579542 0)
(0.0145947 0.00584453 0)
(0.00943574 0.00542066 0)
(0.0046964 0.00425857 0)
(0.00101442 0.00200875 0)
(-0.00079488 -0.00121453 0)
(-0.0200423 0.0098552 0)
(-0.045488 0.0504621 0)
(-0.0821537 0.0641959 0)
(-0.1143 0.0600973 0)
(-0.138704 0.0474767 0)
(-0.155456 0.0322735 0)
(-0.165248 0.0177285 0)
(-0.168945 0.00539276 0)
(-0.167407 -0.00466702 0)
(-0.161571 -0.0126211 0)
(-0.152262 -0.018743 0)
(-0.140307 -0.0232748 0)
(-0.126435 -0.0264295 0)
(-0.111288 -0.0283871 0)
(-0.0954266 -0.0293025 0)
(-0.079334 -0.0293147 0)
(-0.0634273 -0.028553 0)
(-0.0480606 -0.0271358 0)
(-0.0335196 -0.0251695 0)
(-0.0200029 -0.0227702 0)
(-0.00771463 -0.0201311 0)
(0.00318135 -0.0173347 0)
(0.0126037 -0.0144614 0)
(0.0204889 -0.011603 0)
(0.0268342 -0.00878979 0)
(0.0316765 -0.00609509 0)
(0.0350744 -0.0035408 0)
(0.0370952 -0.00115342 0)
(0.0378304 0.00103498 0)
(0.0373828 0.00302989 0)
(0.0358687 0.00481733 0)
(0.0334008 0.00637432 0)
(0.0301066 0.00769664 0)
(0.026141 0.00873289 0)
(0.0216642 0.00936666 0)
(0.0169022 0.00947708 0)
(0.0120972 0.00892801 0)
(0.00748619 0.00739416 0)
(0.00326303 0.0043148 0)
(0.000463208 -0.000664364 0)
(-0.0288661 0.0366531 0)
(-0.0621928 0.0772168 0)
(-0.0985407 0.0877865 0)
(-0.12817 0.0790785 0)
(-0.149688 0.0612213 0)
(-0.163906 0.0410053 0)
(-0.171673 0.0219987 0)
(-0.173774 0.00574047 0)
(-0.171008 -0.0075918 0)
(-0.164237 -0.0181989 0)
(-0.154281 -0.0263897 0)
(-0.141914 -0.032462 0)
(-0.12782 -0.0366882 0)
(-0.112604 -0.0393074 0)
(-0.0967906 -0.0405299 0)
(-0.0808273 -0.0405455 0)
(-0.065096 -0.0395286 0)
(-0.0499154 -0.0376399 0)
(-0.0355423 -0.0350309 0)
(-0.0221673 -0.0318598 0)
(-0.00996548 -0.0283158 0)
(0.00091203 -0.0245326 0)
(0.0103802 -0.0206229 0)
(0.0183824 -0.016701 0)
(0.0249035 -0.0128369 0)
(0.0299686 -0.00910971 0)
(0.0336238 -0.00556731 0)
(0.0359369 -0.00225271 0)
(0.0369938 0.00080287 0)
(0.0368926 0.0035876 0)
(0.0357446 0.00608103 0)
(0.0336668 0.00826279 0)
(0.0307909 0.0101098 0)
(0.0272662 0.0115635 0)
(0.0232419 0.0125077 0)
(0.0188764 0.0127939 0)
(0.0143451 0.0122631 0)
(0.00981912 0.0106031 0)
(0.00534266 0.00720273 0)
(0.00194489 0.00100432 0)
(-0.0355612 0.070429 0)
(-0.0765966 0.106596 0)
(-0.114138 0.111272 0)
(-0.142989 0.0966012 0)
(-0.162453 0.0732629 0)
(-0.174321 0.0481678 0)
(-0.17985 0.0249077 0)
(-0.179989 0.00495391 0)
(-0.175596 -0.0114578 0)
(-0.167507 -0.0245454 0)
(-0.15652 -0.0346525 0)
(-0.143368 -0.0421305 0)
(-0.128706 -0.0473105 0)
(-0.113111 -0.0504901 0)
(-0.0970769 -0.0519362 0)
(-0.0810224 -0.0518896 0)
(-0.0652977 -0.050571 0)
(-0.0501892 -0.048184 0)
(-0.0359255 -0.0449213 0)
(-0.022682 -0.0409761 0)
(-0.0106074 -0.0365475 0)
(0.000175374 -0.0318011 0)
(0.00958752 -0.0268812 0)
(0.0175813 -0.0219212 0)
(0.0241438 -0.0170245 0)
(0.0292936 -0.0122848 0)
(0.0330721 -0.00777011 0)
(0.0355446 -0.00353665 0)
(0.0367923 0.000374922 0)
(0.0369098 0.00393849 0)
(0.0360058 0.00712829 0)
(0.0341966 0.00991921 0)
(0.0316102 0.012277 0)
(0.0283852 0.0141375 0)
(0.0246561 0.0153894 0)
(0.0205474 0.0158878 0)
(0.01618 0.0154649 0)
(0.0116653 0.0138368 0)
(0.00708562 0.0104616 0)
(0.00309554 0.00401784 0)
(-0.0435476 0.112038 0)
(-0.0933014 0.139587 0)
(-0.132336 0.135601 0)
(-0.160658 0.113232 0)
(-0.177884 0.0836937 0)
(-0.187069 0.0535706 0)
(-0.189989 0.0261614 0)
(-0.187801 0.00273782 0)
(-0.181418 -0.01652 0)
(-0.171653 -0.0318719 0)
(-0.159272 -0.0437023 0)
(-0.144983 -0.052414 0)
(-0.12942 -0.0583939 0)
(-0.113139 -0.0619978 0)
(-0.0966164 -0.063549 0)
(-0.0802461 -0.0633417 0)
(-0.0643506 -0.0616444 0)
(-0.0491868 -0.0587043 0)
(-0.0349542 -0.0547528 0)
(-0.0218046 -0.0500128 0)
(-0.00985783 -0.0446998 0)
(0.00079273 -0.0390041 0)
(0.0100853 -0.0330952 0)
(0.0179864 -0.0271256 0)
(0.0244912 -0.0212236 0)
(0.0296196 -0.0154992 0)
(0.0334132 -0.0100381 0)
(0.0359342 -0.00490864 0)
(0.0372612 -0.000162743 0)
(0.0374858 0.00416226 0)
(0.0367134 0.00803384 0)
(0.0350562 0.0114203 0)
(0.0326353 0.0142808 0)
(0.0295762 0.0165504 0)
(0.025998 0.0181262 0)
(0.0220026 0.0188744 0)
(0.0176719 0.0186325 0)
(0.0130653 0.0171492 0)
(0.00827826 0.0139678 0)
(0.00372584 0.00795698 0)
(-0.0563361 0.164226 0)
(-0.116953 0.176552 0)
(-0.155721 0.160452 0)
(-0.182296 0.128514 0)
(-0.196185 0.0920867 0)
(-0.201969 0.0568634 0)
(-0.201825 0.0254797 0)
(-0.196992 -0.00115745 0)
(-0.188345 -0.0230155 0)
(-0.176626 -0.0404134 0)
(-0.162558 -0.0537721 0)
(-0.146826 -0.0635381 0)
(-0.130059 -0.0701489 0)
(-0.112808 -0.0740182 0)
(-0.0955415 -0.0755284 0)
(-0.0786382 -0.0750304 0)
(-0.0623977 -0.0728446 0)
(-0.0470492 -0.0692632 0)
(-0.032762 -0.0645556 0)
(-0.0196583 -0.0589737 0)
(-0.00782622 -0.0527515 0)
(0.00267212 -0.0461002 0)
(0.0117995 -0.0392089 0)
(0.0195425 -0.032247 0)
(0.0259092 -0.0253612 0)
(0.0309269 -0.0186761 0)
(0.0346405 -0.0122923 0)
(0.037112 -0.00628984 0)
(0.0384178 -0.000730839 0)
(0.0386472 0.00433768 0)
(0.0379008 0.0088764 0)
(0.0362858 0.0128478 0)
(0.0339149 0.0162083 0)
(0.0309008 0.0188945 0)
(0.0273475 0.020815 0)
(0.0233397 0.021851 0)
(0.0189318 0.0218551 0)
(0.0141493 0.020611 0)
(0.009088 0.0177351 0)
(0.00407885 0.0121413 0)
(-0.0780965 0.235528 0)
(-0.15258 0.217035 0)
(-0.185987 0.184079 0)
(-0.20793 0.141049 0)
(-0.216603 0.0975828 0)
(-0.218082 0.0575786 0)
(-0.214518 0.0226135 0)
(-0.206919 -0.00689749 0)
(-0.195928 -0.0310972 0)
(-0.182139 -0.0503397 0)
(-0.166211 -0.0650532 0)
(-0.148816 -0.075706 0)
(-0.130598 -0.0827787 0)
(-0.112129 -0.0867427 0)
(-0.0938863 -0.0880449 0)
(-0.0762477 -0.0870996 0)
(-0.0594974 -0.0842851 0)
(-0.0438394 -0.0799432 0)
(-0.0294126 -0.074383 0)
(-0.0163057 -0.0678855 0)
(-0.00457139 -0.0607057 0)
(0.00576221 -0.0530718 0)
(0.014688 -0.0451886 0)
(0.0222172 -0.0372386 0)
(0.0283756 -0.0293813 0)
(0.0332023 -0.0217532 0)
(0.0367491 -0.0144663 0)
(0.0390801 -0.00761109 0)
(0.0402712 -0.00125833 0)
(0.0404088 0.00453715 0)
(0.0395894 0.00973028 0)
(0.0379142 0.0142796 0)
(0.0354872 0.0181402 0)
(0.0324095 0.0212533 0)
(0.0287723 0.0235394 0)
(0.0246462 0.0248968 0)
(0.0200683 0.0251984 0)
(0.0150478 0.0242625 0)
(0.00968917 0.0217674 0)
(0.00429059 0.0166965 0)
(-0.119217 0.330377 0)
(-0.20702 0.258601 0)
(-0.223304 0.202621 0)
(-0.235762 0.148475 0)
(-0.236903 0.0990591 0)
(-0.233397 0.0553154 0)
(-0.226478 0.0174993 0)
(-0.216416 -0.0144471 0)
(-0.203358 -0.0407455 0)
(-0.187658 -0.0616876 0)
(-0.16989 -0.0776406 0)
(-0.150743 -0.0890555 0)
(-0.130913 -0.0964423 0)
(-0.111032 -0.100333 0)
(-0.0916162 -0.101248 0)
(-0.0730631 -0.0996782 0)
(-0.0556535 -0.0960692 0)
(-0.0395718 -0.09082 0)
(-0.024927 -0.084284 0)
(-0.0117717 -0.0767737 0)
(-0.000120675 -0.0685655 0)
(0.0100366 -0.0599032 0)
(0.0187278 -0.0510036 0)
(0.0259922 -0.0420577 0)
(0.0318771 -0.0332331 0)
(0.0364377 -0.0246735 0)
(0.0397355 -0.0164992 0)
(0.0418393 -0.00880827 0)
(0.0428265 -0.00167852 0)
(0.0427812 0.00482924 0)
(0.0417953 0.0106656 0)
(0.0399641 0.0157874 0)
(0.0373834 0.0201501 0)
(0.0341446 0.0237003 0)
(0.0303281 0.026371 0)
(0.0259942 0.0280773 0)
(0.02117 0.0287134 0)
(0.0158604 0.0281276 0)
(0.0101834 0.0260452 0)
(0.00443669 0.0214979 0)
(-0.163402 0.494057 0)
(-0.277312 0.288967 0)
(-0.264343 0.209744 0)
(-0.260688 0.147876 0)
(-0.252583 0.0955521 0)
(-0.244393 0.0500678 0)
(-0.23511 0.0104929 0)
(-0.223654 -0.0234063 0)
(-0.209391 -0.0516594 0)
(-0.192356 -0.0742923 0)
(-0.173059 -0.0914905 0)
(-0.152259 -0.103631 0)
(-0.130781 -0.111237 0)
(-0.109371 -0.114909 0)
(-0.0886365 -0.11526 0)
(-0.0690223 -0.112876 0)
(-0.0508261 -0.108287 0)
(-0.0342227 -0.10196 0)
(-0.0192934 -0.0943011 0)
(-0.0060539 -0.0856584 0)
(0.00552233 -0.0763311 0)
(0.0154885 -0.0665783 0)
(0.0239109 -0.056624 0)
(0.0308595 -0.0466636 0)
(0.0364075 -0.0368671 0)
(0.0406289 -0.0273815 0)
(0.0435981 -0.0183314 0)
(0.0453912 -0.00981942 0)
(0.0460882 -0.00192778 0)
(0.0457719 0.00527902 0)
(0.0445305 0.0117491 0)
(0.0424537 0.0174386 0)
(0.0396296 0.022305 0)
(0.0361413 0.0263014 0)
(0.0320611 0.0293722 0)
(0.0274418 0.0314486 0)
(0.0223052 0.0324435 0)
(0.0166602 0.0322291 0)
(0.0106417 0.0305644 0)
(0.00456126 0.026503 0)
(0.0172951 -0.0661452 0)
(0.0454382 -0.152195 0)
(0.0729856 -0.185012 0)
(0.0969027 -0.196902 0)
(0.118813 -0.20055 0)
(0.140114 -0.200826 0)
(0.161491 -0.199807 0)
(0.183271 -0.198443 0)
(0.205592 -0.197178 0)
(0.228485 -0.196194 0)
(0.251918 -0.195543 0)
(0.275834 -0.195199 0)
(0.300157 -0.195101 0)
(0.324809 -0.195166 0)
(0.349711 -0.195305 0)
(0.374788 -0.195425 0)
(0.399969 -0.195431 0)
(0.425188 -0.195224 0)
(0.450379 -0.194701 0)
(0.475481 -0.193744 0)
(0.500427 -0.192224 0)
(0.525149 -0.189991 0)
(0.549572 -0.186872 0)
(0.573611 -0.182664 0)
(0.597176 -0.177132 0)
(0.620165 -0.170004 0)
(0.642475 -0.160961 0)
(0.664008 -0.149624 0)
(0.684659 -0.135538 0)
(0.704312 -0.118157 0)
(0.722808 -0.0968645 0)
(0.739943 -0.0710101 0)
(0.75547 -0.0399619 0)
(0.769135 -0.00315439 0)
(0.780738 0.0398761 0)
(0.790122 0.0894597 0)
(0.797224 0.145774 0)
(0.802063 0.208853 0)
(0.804697 0.278566 0)
(0.805141 0.354596 0)
(0.803244 0.436389 0)
(0.798432 0.523209 0)
(0.78944 0.614699 0)
(0.772191 0.713705 0)
(0.769222 0.838675 0)
(0.721832 1.13456 0)
(0.0190196 -0.0894458 0)
(0.0470631 -0.175362 0)
(0.0733664 -0.204396 0)
(0.0960531 -0.214121 0)
(0.117023 -0.21692 0)
(0.137599 -0.217072 0)
(0.158398 -0.216293 0)
(0.179706 -0.215337 0)
(0.201639 -0.214534 0)
(0.224216 -0.214008 0)
(0.247396 -0.213776 0)
(0.271114 -0.213796 0)
(0.295288 -0.214 0)
(0.319831 -0.214303 0)
(0.344659 -0.214617 0)
(0.369687 -0.214853 0)
(0.39484 -0.21492 0)
(0.420046 -0.214723 0)
(0.445238 -0.214159 0)
(0.470352 -0.213112 0)
(0.495324 -0.211451 0)
(0.520086 -0.209022 0)
(0.544568 -0.205648 0)
(0.568694 -0.201122 0)
(0.592381 -0.195202 0)
(0.615541 -0.187614 0)
(0.638091 -0.178043 0)
(0.659969 -0.166119 0)
(0.681131 -0.151382 0)
(0.701526 -0.133269 0)
(0.721063 -0.111125 0)
(0.739588 -0.0842621 0)
(0.756893 -0.0520266 0)
(0.772746 -0.0138645 0)
(0.786972 0.0306421 0)
(0.799472 0.0817544 0)
(0.810271 0.139569 0)
(0.819535 0.204043 0)
(0.827563 0.274997 0)
(0.834774 0.352099 0)
(0.84171 0.434836 0)
(0.849079 0.522552 0)
(0.858121 0.614887 0)
(0.870474 0.713647 0)
(0.900165 0.831316 0)
(0.966037 1.03579 0)
(0.0205673 -0.114188 0)
(0.0481328 -0.198067 0)
(0.0731026 -0.222943 0)
(0.0946454 -0.230666 0)
(0.114752 -0.232799 0)
(0.134628 -0.232957 0)
(0.154831 -0.232511 0)
(0.175621 -0.232032 0)
(0.197106 -0.231753 0)
(0.219297 -0.23174 0)
(0.242152 -0.231976 0)
(0.265599 -0.232404 0)
(0.289552 -0.232948 0)
(0.313917 -0.233521 0)
(0.338603 -0.234037 0)
(0.363518 -0.23441 0)
(0.388581 -0.234554 0)
(0.413714 -0.234378 0)
(0.438848 -0.233783 0)
(0.463918 -0.232655 0)
(0.488858 -0.230862 0)
(0.513604 -0.228249 0)
(0.538088 -0.224636 0)
(0.562241 -0.219811 0)
(0.585983 -0.213529 0)
(0.609234 -0.205518 0)
(0.631925 -0.195477 0)
(0.654028 -0.18306 0)
(0.675562 -0.167821 0)
(0.696562 -0.149178 0)
(0.717016 -0.126435 0)
(0.736828 -0.0988484 0)
(0.755818 -0.0657274 0)
(0.773764 -0.0265256 0)
(0.790495 0.0191174 0)
(0.80596 0.0713669 0)
(0.820253 0.130201 0)
(0.833667 0.195447 0)
(0.846695 0.266787 0)
(0.860043 0.343736 0)
(0.874676 0.425575 0)
(0.891909 0.511282 0)
(0.913694 0.599597 0)
(0.942772 0.689529 0)
(0.983707 0.784088 0)
(1.06964 0.897469 0)
(0.0218071 -0.140088 0)
(0.04864 -0.220155 0)
(0.0724397 -0.240722 0)
(0.0930788 -0.246633 0)
(0.11246 -0.248238 0)
(0.131675 -0.248482 0)
(0.151255 -0.248425 0)
(0.171467 -0.248478 0)
(0.192425 -0.248775 0)
(0.214145 -0.249325 0)
(0.236586 -0.250078 0)
(0.259675 -0.25096 0)
(0.28332 -0.251884 0)
(0.307425 -0.252762 0)
(0.331889 -0.253508 0)
(0.356615 -0.25404 0)
(0.381512 -0.254278 0)
(0.4065 -0.254138 0)
(0.431505 -0.253524 0)
(0.456459 -0.252325 0)
(0.481297 -0.25041 0)
(0.505954 -0.247625 0)
(0.530367 -0.243786 0)
(0.554468 -0.238678 0)
(0.578183 -0.232053 0)
(0.601426 -0.223641 0)
(0.624128 -0.213167 0)
(0.646287 -0.200332 0)
(0.667998 -0.184731 0)
(0.689397 -0.165771 0)
(0.710571 -0.142698 0)
(0.731492 -0.114689 0)
(0.752002 -0.0809936 0)
(0.771873 -0.0410609 0)
(0.790913 0.00540002 0)
(0.809093 0.0584317 0)
(0.826553 0.117861 0)
(0.843678 0.183343 0)
(0.86109 0.254376 0)
(0.879654 0.33027 0)
(0.900501 0.410047 0)
(0.925063 0.492326 0)
(0.955146 0.575209 0)
(0.993038 0.656326 0)
(1.04039 0.734246 0)
(1.11696 0.810432 0)
(0.0225681 -0.166799 0)
(0.0486914 -0.241664 0)
(0.071779 -0.257969 0)
(0.0918778 -0.262196 0)
(0.110691 -0.263306 0)
(0.129262 -0.263641 0)
(0.148165 -0.263991 0)
(0.167712 -0.264607 0)
(0.188044 -0.265524 0)
(0.209192 -0.266687 0)
(0.231118 -0.268007 0)
(0.253748 -0.269389 0)
(0.27699 -0.270738 0)
(0.300742 -0.271959 0)
(0.324894 -0.272967 0)
(0.349342 -0.273683 0)
(0.373988 -0.274034 0)
(0.398744 -0.273944 0)
(0.423534 -0.273323 0)
(0.448287 -0.272063 0)
(0.472937 -0.270036 0)
(0.497418 -0.267087 0)
(0.521668 -0.263034 0)
(0.545626 -0.257658 0)
(0.569218 -0.250698 0)
(0.592341 -0.241886 0)
(0.614905 -0.230984 0)
(0.636917 -0.217775 0)
(0.658552 -0.201934 0)
(0.680074 -0.182868 0)
(0.701692 -0.159749 0)
(0.723464 -0.131643 0)
(0.745254 -0.0976943 0)
(0.766803 -0.0573301 0)
(0.787873 -0.0103382 0)
(0.808417 0.0431729 0)
(0.82861 0.102848 0)
(0.848888 0.168144 0)
(0.86994 0.238366 0)
(0.892688 0.31262 0)
(0.918281 0.389723 0)
(0.948048 0.468092 0)
(0.983454 0.545613 0)
(1.02611 0.619634 0)
(1.0769 0.687457 0)
(1.14368 0.748101 0)
(0.022614 -0.193968 0)
(0.0485569 -0.262925 0)
(0.0717075 -0.275091 0)
(0.0916918 -0.277576 0)
(0.110051 -0.278058 0)
(0.127931 -0.278397 0)
(0.146052 -0.279129 0)
(0.164816 -0.280328 0)
(0.184407 -0.281906 0)
(0.204872 -0.28373 0)
(0.226176 -0.285668 0)
(0.248243 -0.2876 0)
(0.270978 -0.28942 0)
(0.294275 -0.291027 0)
(0.318018 -0.292329 0)
(0.34209 -0.293254 0)
(0.366386 -0.293738 0)
(0.390811 -0.293712 0)
(0.415288 -0.293095 0)
(0.439741 -0.291783 0)
(0.464101 -0.28965 0)
(0.4883 -0.286543 0)
(0.512279 -0.282285 0)
(0.535986 -0.276651 0)
(0.559348 -0.26936 0)
(0.58224 -0.260127 0)
(0.604515 -0.248754 0)
(0.626157 -0.23516 0)
(0.647424 -0.219168 0)
(0.668734 -0.200199 0)
(0.690444 -0.177336 0)
(0.712723 -0.149482 0)
(0.735466 -0.115618 0)
(0.758359 -0.0751143 0)
(0.781093 -0.0278438 0)
(0.803568 0.0259009 0)
(0.825975 0.0855501 0)
(0.84877 0.150354 0)
(0.872665 0.219425 0)
(0.898571 0.291707 0)
(0.927568 0.365874 0)
(0.960812 0.440285 0)
(0.999385 0.512854 0)
(1.04422 0.581025 0)
(1.09557 0.641992 0)
(1.15548 0.694006 0)
(0.0216985 -0.221311 0)
(0.0487411 -0.28462 0)
(0.0730085 -0.29263 0)
(0.0932483 -0.292961 0)
(0.111132 -0.292461 0)
(0.128169 -0.292626 0)
(0.145345 -0.293692 0)
(0.163187 -0.295495 0)
(0.181919 -0.297781 0)
(0.201596 -0.300323 0)
(0.222178 -0.302933 0)
(0.24358 -0.305465 0)
(0.265705 -0.307805 0)
(0.288446 -0.309839 0)
(0.311676 -0.311469 0)
(0.335266 -0.312628 0)
(0.359103 -0.313261 0)
(0.383088 -0.313313 0)
(0.407137 -0.31271 0)
(0.431177 -0.311354 0)
(0.455131 -0.309118 0)
(0.478924 -0.305855 0)
(0.5025 -0.301401 0)
(0.525823 -0.295528 0)
(0.548837 -0.287918 0)
(0.571389 -0.278234 0)
(0.593243 -0.266308 0)
(0.614312 -0.252256 0)
(0.634922 -0.236152 0)
(0.655659 -0.21745 0)
(0.677045 -0.19513 0)
(0.699397 -0.167889 0)
(0.722665 -0.134457 0)
(0.74647 -0.0940925 0)
(0.770404 -0.0467619 0)
(0.794301 0.00702225 0)
(0.818347 0.0664413 0)
(0.843002 0.130534 0)
(0.868959 0.198245 0)
(0.897068 0.268394 0)
(0.928309 0.339573 0)
(0.963654 0.410196 0)
(1.00384 0.478363 0)
(1.04924 0.541801 0)
(1.0996 0.598109 0)
(1.15473 0.645698 0)
(0.0196152 -0.248407 0)
(0.0500965 -0.307881 0)
(0.0766105 -0.311177 0)
(0.0971987 -0.308375 0)
(0.114341 -0.306314 0)
(0.130258 -0.306106 0)
(0.146296 -0.30751 0)
(0.163095 -0.309987 0)
(0.180888 -0.313066 0)
(0.199708 -0.316401 0)
(0.219498 -0.319747 0)
(0.240156 -0.322935 0)
(0.261582 -0.325849 0)
(0.283669 -0.328358 0)
(0.306281 -0.330354 0)
(0.329277 -0.331775 0)
(0.352538 -0.332584 0)
(0.375959 -0.332736 0)
(0.399455 -0.332172 0)
(0.422952 -0.330793 0)
(0.446364 -0.328471 0)
(0.469607 -0.325069 0)
(0.492616 -0.320443 0)
(0.515382 -0.314378 0)
(0.537889 -0.306502 0)
(0.559975 -0.296376 0)
(0.581304 -0.283826 0)
(0.601677 -0.269213 0)
(0.621458 -0.252975 0)
(0.641342 -0.234602 0)
(0.661981 -0.212997 0)
(0.683874 -0.186643 0)
(0.70709 -0.153927 0)
(0.731227 -0.113925 0)
(0.755783 -0.0666944 0)
(0.780522 -0.0130051 0)
(0.805611 0.0460427 0)
(0.831502 0.10928 0)
(0.858833 0.175512 0)
(0.888335 0.243484 0)
(0.92088 0.311721 0)
(0.957297 0.378807 0)
(0.998033 0.443148 0)
(1.0431 0.502834 0)
(1.09195 0.556008 0)
(1.14366 0.601519 0)
(0.0162184 -0.275348 0)
(0.0539502 -0.334712 0)
(0.0833174 -0.331299 0)
(0.103678 -0.323652 0)
(0.119484 -0.319415 0)
(0.133955 -0.318823 0)
(0.148748 -0.320743 0)
(0.164506 -0.324082 0)
(0.18139 -0.328099 0)
(0.199379 -0.332337 0)
(0.218379 -0.336501 0)
(0.238266 -0.340407 0)