/*--------------------------------*- C++ -*----------------------------------*\
  =========                 |
  \\      /  F ield         | OpenFOAM: The Open Source CFD Toolbox
   \\    /   O peration     | Website:  https://openfoam.org
    \\  /    A nd           | Version:  7
     \\/     M anipulation  |
\*---------------------------------------------------------------------------*/
FoamFile
{
    version     2.0;
    format      ascii;
    class       volScalarField;
    location    "0.025";
    object      iDof;
}
// * * * * * * * * * * * * * * * * * * * * * * * * * * * * * * * * * * * * * //

dimensions      [0 -3 0 0 0 0 0];

internalField   nonuniform List<scalar> 
250
(
2.934e+20
3.069e+20
2.91e+20
2.958e+20
2.736e+20
2.97e+20
2.898e+20
3.069e+20
2.895e+20
2.742e+20
2.748e+20
2.883e+20
2.898e+20
2.679e+20
2.871e+20
2.928e+20
2.994e+20
2.796e+20
2.925e+20
2.754e+20
2.847e+20
2.85e+20
2.748e+20
2.925e+20
2.877e+20
2.769e+20
2.739e+20
2.877e+20
2.802e+20
2.898e+20
2.904e+20
2.805e+20
2.937e+20
2.811e+20
3.003e+20
2.733e+20
2.829e+20
2.748e+20
2.832e+20
2.799e+20
2.997e+20
2.766e+20
2.805e+20
2.748e+20
2.976e+20
2.778e+20
2.802e+20
2.88e+20
2.994e+20
2.943e+20
2.676e+20
2.76e+20
2.781e+20
2.787e+20
2.913e+20
2.688e+20
2.727e+20
2.814e+20
2.835e+20
2.664e+20
2.682e+20
2.883e+20
2.964e+20
2.7e+20
2.811e+20
2.901e+20
2.802e+20
2.772e+20
2.664e+20
2.787e+20
2.868e+20
3.024e+20
2.862e+20
2.952e+20
2.85e+20
2.733e+20
2.931e+20
2.847e+20
2.562e+20
2.766e+20
2.784e+20
2.811e+20
2.712e+20
2.724e+20
2.85e+20
2.868e+20
2.862e+20
2.799e+20
2.742e+20
2.811e+20
2.796e+20
2.868e+20
2.964e+20
2.784e+20
2.649e+20
2.835e+20
2.724e+20
2.88e+20
2.742e+20
2.829e+20
2.688e+20
2.748e+20
2.796e+20
2.67e+20
2.808e+20
2.772e+20
2.709e+20
2.646e+20
2.697e+20
2.694e+20
2.649e+20
2.805e+20
2.733e+20
2.874e+20
2.718e+20
3.069e+20
2.757e+20
2.751e+20
2.841e+20
2.781e+20
2.517e+20
2.625e+20
2.982e+20
2.892e+20
2.703e+20
2.778e+20
2.916e+20
2.712e+20
2.715e+20
2.685e+20
2.664e+20
2.799e+20
2.781e+20
2.778e+20
2.808e+20
2.79e+20
2.688e+20
2.865e+20
2.874e+20
2.799e+20
2.814e+20
2.703e+20
2.874e+20
2.685e+20
2.955e+20
2.778e+20
2.805e+20
2.757e+20
2.628e+20
2.427e+20
2.649e+20
2.793e+20
2.73e+20
2.775e+20
2.652e+20
2.814e+20
2.703e+20
2.721e+20
2.829e+20
2.622e+20
2.691e+20
2.808e+20
2.769e+20
2.769e+20
2.787e+20
2.733e+20
2.826e+20
2.679e+20
2.709e+20
2.793e+20
2.622e+20
2.838e+20
2.931e+20
2.811e+20
2.595e+20
2.748e+20
2.556e+20
2.556e+20
2.88e+20
2.643e+20
2.709e+20
2.679e+20
2.634e+20
2.61e+20
2.487e+20
2.706e+20
2.706e+20
2.634e+20
2.655e+20
2.784e+20
2.688e+20
2.499e+20
2.778e+20
2.73e+20
2.676e+20
2.793e+20
2.685e+20
2.535e+20
2.628e+20
2.772e+20
2.664e+20
2.658e+20
2.685e+20
2.58e+20
2.643e+20
2.67e+20
2.898e+20
2.616e+20
2.7e+20
2.616e+20
2.67e+20
2.676e+20
2.658e+20
2.751e+20
2.706e+20
2.541e+20
2.85e+20
2.616e+20
2.697e+20
2.697e+20
2.622e+20
2.901e+20
2.706e+20
2.571e+20
2.655e+20
2.601e+20
2.517e+20
2.739e+20
2.679e+20
2.694e+20
2.601e+20
2.694e+20
2.652e+20
2.76e+20
2.667e+20
2.517e+20
2.808e+20
2.586e+20
2.685e+20
2.529e+20
2.697e+20
2.472e+20
2.628e+20
2.718e+20
2.73e+20
2.739e+20
2.58e+20
2.52e+20
2.76e+20
2.682e+20
)
;

boundaryField
{
    sides
    {
        type            symmetry;
    }
    empty
    {
        type            empty;
    }
    procBoundary2to1
    {
        type            processor;
        value           uniform 3.054e+20;
    }
    procBoundary2to3
    {
        type            processor;
        value           uniform 2.601e+20;
    }
}


// ************************************************************************* //
