/*--------------------------------*- C++ -*----------------------------------*\
  =========                 |
  \\      /  F ield         | OpenFOAM: The Open Source CFD Toolbox
   \\    /   O peration     | Website:  https://openfoam.org
    \\  /    A nd           | Version:  7
     \\/     M anipulation  |
\*---------------------------------------------------------------------------*/
FoamFile
{
    version     2.0;
    format      ascii;
    class       volScalarField;
    location    "0.025";
    object      linearKE;
}
// * * * * * * * * * * * * * * * * * * * * * * * * * * * * * * * * * * * * * //

dimensions      [1 -1 -2 0 0 0 0];

internalField   nonuniform List<scalar> 
250
(
0.379558
0.394776
0.373214
0.400193
0.332314
0.383584
0.367555
0.403196
0.391939
0.346401
0.342632
0.364286
0.38535
0.334048
0.374945
0.386906
0.407574
0.370167
0.374207
0.357524
0.385227
0.386382
0.356052
0.384366
0.373801
0.363264
0.363891
0.38649
0.375298
0.372841
0.38718
0.370841
0.381844
0.366123
0.398943
0.357699
0.365776
0.371712
0.375936
0.37131
0.396269
0.33874
0.369232
0.367225
0.383201
0.3588
0.361837
0.374841
0.392883
0.38222
0.352146
0.349531
0.363357
0.356518
0.398643
0.368576
0.37843
0.364507
0.37366
0.356734
0.364515
0.380752
0.396177
0.359437
0.370283
0.407556
0.374441
0.369128
0.358228
0.37461
0.379887
0.399794
0.36885
0.390283
0.38085
0.363155
0.415965
0.384873
0.347311
0.37225
0.374708
0.378339
0.372927
0.369705
0.375122
0.397119
0.38955
0.385888
0.36538
0.358843
0.39124
0.364611
0.383992
0.37629
0.35734
0.384436
0.378899
0.400949
0.366325
0.384633
0.365444
0.361971
0.379888
0.363576
0.366012
0.37464
0.359018
0.366291
0.372032
0.359959
0.343188
0.385372
0.372557
0.374378
0.374059
0.406972
0.370298
0.385773
0.365379
0.389654
0.333669
0.370457
0.412882
0.388147
0.368683
0.382519
0.419196
0.367241
0.379925
0.37157
0.356696
0.396605
0.388879
0.395381
0.392441
0.379086
0.377557
0.399654
0.390246
0.382546
0.387544
0.361404
0.384312
0.349363
0.409341
0.372919
0.378486
0.383693
0.372016
0.324974
0.358717
0.386468
0.366668
0.395495
0.355655
0.390322
0.37317
0.377758
0.383649
0.369236
0.363296
0.359001
0.388129
0.374052
0.382972
0.377555
0.385031
0.37526
0.367341
0.386801
0.366137
0.396472
0.390361
0.396989
0.353758
0.374768
0.34987
0.361876
0.396107
0.36025
0.378825
0.386594
0.357612
0.364804
0.347377
0.36425
0.386005
0.364901
0.369678
0.404085
0.370988
0.352953
0.385796
0.383825
0.371336
0.400667
0.378661
0.36715
0.35435
0.400395
0.372184
0.367976
0.385078
0.355944
0.371964
0.376765
0.395836
0.368893
0.372758
0.367803
0.373145
0.374651
0.378257
0.382779
0.365124
0.344436
0.397021
0.38754
0.392942
0.379891
0.370456
0.408293
0.394693
0.356464
0.367935
0.382641
0.358087
0.409535
0.376348
0.387308
0.375832
0.374217
0.383542
0.392711
0.384522
0.360813
0.392491
0.380635
0.375212
0.356298
0.379067
0.355056
0.394456
0.384607
0.386517
0.383052
0.362406
0.338411
0.386646
0.389146
)
;

boundaryField
{
    sides
    {
        type            symmetry;
    }
    empty
    {
        type            empty;
    }
    procBoundary2to1
    {
        type            processor;
        value           uniform 0.389603;
    }
    procBoundary2to3
    {
        type            processor;
        value           uniform 0.382354;
    }
}


// ************************************************************************* //
