/*--------------------------------*- C++ -*----------------------------------*\
  =========                 |
  \\      /  F ield         | OpenFOAM: The Open Source CFD Toolbox
   \\    /   O peration     | Website:  https://openfoam.org
    \\  /    A nd           | Version:  7
     \\/     M anipulation  |
\*---------------------------------------------------------------------------*/
FoamFile
{
    version     2.0;
    format      ascii;
    class       volScalarField;
    location    "0.025";
    object      rhoM;
}
// * * * * * * * * * * * * * * * * * * * * * * * * * * * * * * * * * * * * * //

dimensions      [1 -3 0 0 0 0 0];

internalField   nonuniform List<scalar> 
250
(
6.82155e-06
7.13543e-06
6.76575e-06
6.87735e-06
6.3612e-06
6.90525e-06
6.73785e-06
7.13543e-06
6.73088e-06
6.37515e-06
6.3891e-06
6.70298e-06
6.73785e-06
6.22868e-06
6.67508e-06
6.8076e-06
6.96105e-06
6.5007e-06
6.80063e-06
6.40305e-06
6.61928e-06
6.62625e-06
6.3891e-06
6.80063e-06
6.68903e-06
6.43793e-06
6.36818e-06
6.68903e-06
6.51465e-06
6.73785e-06
6.7518e-06
6.52163e-06
6.82853e-06
6.53558e-06
6.98198e-06
6.35423e-06
6.57743e-06
6.3891e-06
6.5844e-06
6.50768e-06
6.96803e-06
6.43095e-06
6.52163e-06
6.3891e-06
6.9192e-06
6.45885e-06
6.51465e-06
6.696e-06
6.96105e-06
6.84248e-06
6.2217e-06
6.417e-06
6.46583e-06
6.47978e-06
6.77273e-06
6.2496e-06
6.34028e-06
6.54255e-06
6.59138e-06
6.1938e-06
6.23565e-06
6.70298e-06
6.8913e-06
6.2775e-06
6.53558e-06
6.74483e-06
6.51465e-06
6.4449e-06
6.1938e-06
6.47978e-06
6.6681e-06
7.0308e-06
6.65415e-06
6.8634e-06
6.62625e-06
6.35423e-06
6.81458e-06
6.61928e-06
5.95665e-06
6.43095e-06
6.4728e-06
6.53558e-06
6.3054e-06
6.3333e-06
6.62625e-06
6.6681e-06
6.65415e-06
6.50768e-06
6.37515e-06
6.53558e-06
6.5007e-06
6.6681e-06
6.8913e-06
6.4728e-06
6.15893e-06
6.59138e-06
6.3333e-06
6.696e-06
6.37515e-06
6.57743e-06
6.2496e-06
6.3891e-06
6.5007e-06
6.20775e-06
6.5286e-06
6.4449e-06
6.29843e-06
6.15195e-06
6.27053e-06
6.26355e-06
6.15893e-06
6.52163e-06
6.35423e-06
6.68205e-06
6.31935e-06
7.13543e-06
6.41003e-06
6.39608e-06
6.60533e-06
6.46583e-06
5.85203e-06
6.10313e-06
6.93315e-06
6.7239e-06
6.28448e-06
6.45885e-06
6.7797e-06
6.3054e-06
6.31238e-06
6.24263e-06
6.1938e-06
6.50768e-06
6.46583e-06
6.45885e-06
6.5286e-06
6.48675e-06
6.2496e-06
6.66113e-06
6.68205e-06
6.50768e-06
6.54255e-06
6.28448e-06
6.68205e-06
6.24263e-06
6.87038e-06
6.45885e-06
6.52163e-06
6.41003e-06
6.1101e-06
5.64278e-06
6.15893e-06
6.49373e-06
6.34725e-06
6.45188e-06
6.1659e-06
6.54255e-06
6.28448e-06
6.32633e-06
6.57743e-06
6.09615e-06
6.25658e-06
6.5286e-06
6.43793e-06
6.43793e-06
6.47978e-06
6.35423e-06
6.57045e-06
6.22868e-06
6.29843e-06
6.49373e-06
6.09615e-06
6.59835e-06
6.81458e-06
6.53558e-06
6.03338e-06
6.3891e-06
5.9427e-06
5.9427e-06
6.696e-06
6.14498e-06
6.29843e-06
6.22868e-06
6.12405e-06
6.06825e-06
5.78228e-06
6.29145e-06
6.29145e-06
6.12405e-06
6.17288e-06
6.4728e-06
6.2496e-06
5.81018e-06
6.45885e-06
6.34725e-06
6.2217e-06
6.49373e-06
6.24263e-06
5.89388e-06
6.1101e-06
6.4449e-06
6.1938e-06
6.17985e-06
6.24263e-06
5.9985e-06
6.14498e-06
6.20775e-06
6.73785e-06
6.0822e-06
6.2775e-06
6.0822e-06
6.20775e-06
6.2217e-06
6.17985e-06
6.39608e-06
6.29145e-06
5.90783e-06
6.62625e-06
6.0822e-06
6.27053e-06
6.27053e-06
6.09615e-06
6.74483e-06
6.29145e-06
5.97758e-06
6.17288e-06
6.04733e-06
5.85203e-06
6.36818e-06
6.22868e-06
6.26355e-06
6.04733e-06
6.26355e-06
6.1659e-06
6.417e-06
6.20078e-06
5.85203e-06
6.5286e-06
6.01245e-06
6.24263e-06
5.87993e-06
6.27053e-06
5.7474e-06
6.1101e-06
6.31935e-06
6.34725e-06
6.36818e-06
5.9985e-06
5.859e-06
6.417e-06
6.23565e-06
)
;

boundaryField
{
    sides
    {
        type            symmetry;
    }
    empty
    {
        type            empty;
    }
    procBoundary2to1
    {
        type            processor;
        value           uniform 7.10055e-06;
    }
    procBoundary2to3
    {
        type            processor;
        value           uniform 6.04733e-06;
    }
}


// ************************************************************************* //
