/*--------------------------------*- C++ -*----------------------------------*\
  =========                 |
  \\      /  F ield         | OpenFOAM: The Open Source CFD Toolbox
   \\    /   O peration     | Website:  https://openfoam.org
    \\  /    A nd           | Version:  7
     \\/     M anipulation  |
\*---------------------------------------------------------------------------*/
FoamFile
{
    version     2.0;
    format      ascii;
    class       volScalarField;
    location    "0.00072";
    object      mag(U);
}
// * * * * * * * * * * * * * * * * * * * * * * * * * * * * * * * * * * * * * //

dimensions      [0 1 -1 0 0 0 0];

internalField   nonuniform List<scalar> 
500
(
4.08756e-13
6.05087e-13
7.50018e-13
6.55103e-13
6.77728e-13
5.68314e-13
4.55125e-13
3.01751e-13
1.25681e-13
2.63111e-13
4.44988e-13
3.74368e-13
1.60432e-13
8.21277e-14
3.55879e-14
8.0359e-14
8.64126e-16
1.19756e-14
6.22294e-14
3.47249e-14
1.05971e-13
2.68879e-14
1.05778e-13
1.84518e-13
1.22734e-13
8.136e-14
2.5726e-13
2.22084e-13
2.78364e-13
2.17778e-13
8.45844e-14
1.5192e-13
4.4861e-14
1.79347e-13
9.97507e-14
1.55905e-13
5.03749e-14
8.63084e-15
1.8894e-14
9.09568e-14
2.97042e-13
1.61185e-13
1.34568e-13
7.29624e-14
9.48467e-14
1.42762e-13
4.23021e-15
1.11668e-13
2.85096e-13
3.80899e-13
3.31822e-13
1.59274e-13
2.74161e-14
4.35077e-14
5.09119e-14
1.03682e-13
3.91514e-14
9.07096e-14
1.1289e-14
2.73743e-14
3.93552e-14
4.06573e-14
2.3643e-14
3.97444e-14
9.74369e-14
1.42742e-13
1.84413e-13
1.05846e-13
4.85558e-14
2.71935e-14
2.25587e-14
1.38567e-15
1.10449e-13
7.79395e-14
1.98666e-13
3.01629e-13
2.36136e-13
4.39172e-13
3.12983e-13
2.02609e-13
1.11138e-13
4.94799e-14
1.30538e-13
7.79339e-14
1.75548e-14
4.55462e-14
9.77073e-15
4.53101e-14
3.73012e-15
5.14128e-14
1.14727e-13
8.75795e-14
1.94926e-13
2.61288e-13
1.47239e-13
8.32701e-14
4.25813e-14
3.80366e-15
1.15925e-13
1.16759e-13
9.16486e-14
3.42573e-13
1.54012e-13
1.56297e-13
4.37722e-14
1.70254e-13
4.47334e-15
1.69399e-13
4.05948e-13
3.40495e-13
2.68651e-13
2.07077e-13
7.3729e-14
3.69282e-14
2.92768e-14
3.42495e-14
4.44452e-14
1.91257e-13
3.02607e-13
4.77288e-13
4.32349e-13
2.90475e-13
1.25135e-13
7.27744e-14
1.77882e-13
7.57436e-14
2.38815e-14
3.64621e-14
1.76025e-13
2.16055e-13
1.32685e-13
3.45062e-13
3.65841e-13
2.00058e-13
5.71991e-14
2.50339e-13
2.50411e-13
3.86021e-13
2.41041e-13
3.85795e-14
1.93036e-14
8.42269e-14
4.66277e-14
3.00692e-14
1.23585e-13
1.54467e-13
1.46694e-13
2.29579e-13
1.38721e-13
2.54779e-13
1.10096e-13
7.38361e-14
1.20286e-14
8.9146e-14
1.12373e-13
9.6149e-14
1.9458e-13
1.45938e-13
1.37446e-13
2.4505e-13
1.3387e-13
1.72724e-13
3.64287e-13
4.9976e-13
4.27374e-13
2.20894e-13
1.16266e-13
1.76856e-13
3.73531e-14
7.03521e-14
1.74886e-13
1.81405e-13
1.90495e-13
4.18781e-13
3.29456e-13
1.04866e-13
2.97183e-14
3.13969e-14
2.12214e-14
2.24995e-15
1.87135e-14
1.06928e-13
1.08418e-13
9.31526e-14
2.60648e-14
8.50566e-14
2.23177e-13
1.33177e-13
8.43434e-14
2.63805e-13
3.51003e-13
1.90916e-13
1.02726e-13
7.72511e-14
3.33235e-14
7.64323e-14
5.62447e-14
2.49114e-13
1.1457e-12
4.65944e-12
2.54592e-11
1.37565e-10
7.16222e-10
3.61048e-09
1.76179e-08
8.32212e-08
3.80315e-07
1.68064e-06
7.17729e-06
2.96006e-05
0.0001178
0.000451941
0.00166968
0.00593241
0.0202397
0.0661838
0.206984
0.617643
1.75516
4.75355
12.4013
30.2338
55.5623
77.7333
96.138
112.713
128.524
144.019
159.367
174.629
189.835
205.002
220.142
235.263
250.368
265.456
280.522
295.552
310.516
325.356
339.935
353.926
366.82
377.365
384.661
389.078
390.189
390.097
388.957
388.498
388.495
388.435
388.212
387.86
387.708
387.681
387.834
387.948
388.01
387.945
387.917
388.021
388.235
388.422
388.423
388.367
388.404
388.426
388.534
389.038
389.558
386.599
389.365
390.682
390.788
390.739
390.609
389.497
385.882
384.975
384.82
384.054
374.205
285.831
52.5106
3.2913
0.188274
0.0106277
0.000597137
3.33975e-05
1.86076e-06
1.03356e-07
5.72788e-09
3.16584e-10
1.70378e-11
5.70297e-13
2.68612e-13
2.19436e-13
1.09452e-13
8.19435e-14
1.4384e-13
1.91547e-13
7.09792e-15
9.4759e-14
4.03734e-15
2.79634e-14
2.98055e-14
8.8964e-14
7.41621e-14
2.03405e-14
5.2904e-14
6.12256e-15
6.86049e-14
1.12941e-13
1.39855e-13
2.25794e-13
2.72941e-13
3.61733e-13
3.92979e-13
2.71063e-13
2.64233e-13
2.44888e-13
2.64548e-13
3.23267e-13
3.74325e-13
3.09748e-13
2.65853e-13
2.0786e-13
2.59802e-13
2.73133e-13
2.29599e-13
1.46222e-13
1.5985e-13
6.94336e-14
2.08435e-14
1.62113e-14
1.63418e-14
8.38188e-15
1.79373e-14
7.15479e-14
7.18216e-14
3.27603e-14
1.00494e-13
2.47723e-14
9.17485e-14
6.12621e-14
4.5473e-14
2.93676e-14
7.74533e-14
1.3467e-14
4.81916e-14
3.69309e-14
5.51578e-14
3.78889e-14
3.14547e-14
2.98801e-14
1.93928e-14
2.48391e-14
7.65553e-14
1.29651e-13
6.75894e-14
2.73321e-14
4.7015e-15
8.407e-14
4.11997e-14
1.37389e-14
2.14539e-14
4.20741e-14
4.13602e-14
9.37025e-15
1.32376e-14
4.05191e-14
4.77243e-14
5.24647e-14
5.37809e-14
5.40185e-14
1.08033e-14
9.90056e-15
1.54788e-13
2.03742e-13
2.33282e-13
1.81399e-13
1.24948e-13
2.70236e-13
3.21893e-13
3.74928e-13
3.61224e-13
4.01693e-13
4.38032e-13
3.96494e-13
4.19563e-13
4.67787e-13
3.80991e-13
3.03408e-13
3.03887e-13
2.37325e-13
9.63292e-14
9.76613e-14
1.82829e-13
1.80822e-13
1.53498e-13
1.6311e-13
1.79261e-13
1.80893e-13
9.44628e-14
4.55078e-14
7.69756e-14
2.71874e-14
1.20288e-13
1.12548e-13
1.06074e-13
4.27297e-14
9.51086e-14
1.3462e-13
1.05155e-14
8.62982e-14
1.4667e-13
1.97701e-13
1.4736e-13
1.50642e-14
1.1201e-13
4.0124e-14
3.32974e-14
5.40153e-14
2.195e-14
3.11948e-14
1.21941e-13
2.1128e-13
2.053e-13
1.26406e-13
6.63723e-15
1.35883e-13
9.87951e-14
7.28125e-14
9.75009e-15
3.41693e-14
3.84278e-14
1.43769e-13
1.57017e-13
1.2775e-13
3.34653e-14
1.60061e-13
1.33584e-13
6.74627e-14
7.56398e-14
7.2809e-14
6.24891e-14
3.93384e-14
1.46985e-13
1.5318e-13
6.00711e-14
2.4503e-14
8.46529e-14
2.14874e-13
1.02537e-13
1.75545e-16
1.14237e-13
1.83806e-13
1.44316e-13
1.76606e-13
1.3398e-13
3.01783e-14
7.83486e-14
5.73922e-14
1.08503e-13
1.06295e-13
6.35014e-14
3.68016e-14
4.51985e-14
4.88692e-14
1.17812e-13
3.23867e-14
7.86177e-14
1.27945e-13
1.01171e-13
1.8177e-13
2.60823e-13
2.83492e-13
1.99343e-13
1.53781e-14
2.68525e-14
8.0747e-14
1.25182e-13
1.23488e-13
1.31344e-13
3.24306e-14
3.1288e-15
7.03926e-14
1.16644e-13
3.42417e-14
7.1155e-14
9.2651e-14
1.22392e-13
4.94173e-14
7.09365e-15
3.83506e-14
9.94452e-14
1.00137e-13
1.32207e-13
8.99315e-14
)
;

boundaryField
{
    sides
    {
        type            calculated;
        value           nonuniform List<scalar> 2(8.99315e-14 4.08756e-13);
    }
    empty
    {
        type            empty;
    }
}


// ************************************************************************* //
