/*--------------------------------*- C++ -*----------------------------------*\
  =========                 |
  \\      /  F ield         | OpenFOAM: The Open Source CFD Toolbox
   \\    /   O peration     | Website:  https://openfoam.org
    \\  /    A nd           | Version:  7
     \\/     M anipulation  |
\*---------------------------------------------------------------------------*/
FoamFile
{
    version     2.0;
    format      ascii;
    class       volScalarField;
    location    "0.003";
    object      dsmcRhoNMean;
}
// * * * * * * * * * * * * * * * * * * * * * * * * * * * * * * * * * * * * * //

dimensions      [0 -3 0 0 0 0 0];

internalField   nonuniform List<scalar> 
546
(
7.502666667
7.582
7.699333333
7.386
7.606666667
7.196666667
7.179333333
7.13
7.355333333
6.944666667
6.998666667
6.892666667
7.008
6.793333333
6.900666667
6.478666667
6.182666667
6.478666667
6.676666667
6.372666667
7.626666667
7.284666667
7.900666667
7.428
7.046
7.249333333
7.502
7.677333333
7.332
7.035333333
6.969333333
7.001333333
7.152666667
6.745333333
6.796666667
6.819333333
6.668
6.726666667
6.718666667
6.48
7.925333333
8.008666667
7.245333333
7.110666667
7.148
7.525333333
7.989333333
7.334666667
7.437333333
7.045333333
6.878666667
7.163333333
7.012666667
6.564
6.741333333
6.3
6.594
6.955333333
7.07
6.320666667
8.185333333
7.8
7.222
6.744666667
6.484
7.081333333
7.54
6.708666667
6.948666667
7.226
6.822666667
6.812666667
7.337333333
6.800666667
6.473333333
6.810666667
6.697333333
7.010666667
6.850666667
6.988
8.131333333
7.479333333
7.284666667
7.227333333
7.164666667
7.219333333
7.566
7.396666667
7.276
6.796666667
7.320666667
6.726666667
6.819333333
6.853333333
6.813333333
6.832
6.912666667
6.99
6.932666667
7.358666667
7.633333333
7.809333333
7.567333333
7.499333333
7.528
7.542666667
7.654666667
7.341333333
7.495333333
7.192666667
7.022
7.43
7.002666667
6.826666667
6.85
6.939333333
6.703333333
6.612666667
6.824666667
7.181333333
7.592
8.082
7.898666667
7.702
7.301333333
7.811333333
7.588
7.438
7.366666667
7.538
7.248
7.409333333
6.777333333
7.126666667
7.198666667
7.429333333
7.081333333
6.71
7.046666667
6.768
8.001333333
7.823333333
7.524666667
7.434666667
7.628
7.47
7.586666667
7.747333333
7.380666667
7.434
7.521333333
7.46
6.979333333
7.324
7.72
7.416
6.987333333
6.992
6.625333333
7.089333333
7.804
7.411333333
7.692
7.488
8.084666667
7.726
7.719333333
7.186
7.207333333
7.109333333
7.615333333
7.533333333
7.536666667
7.374
7.621333333
7.208666667
7.075333333
6.957333333
6.802
7.066
7.980666667
8.43
8.46
7.771333333
7.657333333
7.538
7.816666667
7.600666667
7.043333333
7.443333333
7.844
7.044666667
7.340666667
7.370666667
7.732
7.422666667
7.037333333
7.044
7.142666667
7.064
7.968666667
8.246
8.047333333
7.975333333
7.658
7.207333333
7.625333333
7.685333333
7.176
7.423333333
7.036
7.410666667
7.315333333
7.145333333
7.772
7.040666667
7.113333333
7.305333333
6.944
6.814666667
7.657333333
8.130666667
8.270666667
7.891333333
7.594666667
8.119333333
8.074
7.417333333
7.418
7.215333333
7.586666667
7.377333333
7.578666667
7.452
6.904
7.384666667
7.087333333
7.154666667
6.746
7.284
8.100666667
8.197333333
7.862
7.518
7.98
8.08
7.979333333
8.002666667
7.684
7.654666667
7.502
7.369333333
7.226666667
7.582666667
7.372
7.227333333
6.993333333
7.344666667
6.964666667
7.075333333
8.51
8.581333333
8.416666667
8.229333333
7.785333333
7.965333333
7.756
7.834666667
7.733333333
8.008666667
7.489333333
7.224666667
7.546666667
7.61
7.045333333
7.379333333
7.637333333
7.427333333
6.882
7.278666667
8.191333333
8.534
8.592666667
8.129333333
8.313333333
7.805333333
7.931333333
7.901333333
7.578
7.882666667
8.233333333
7.523333333
7.458666667
7.962666667
7.112666667
7.044666667
7.442666667
7.673333333
7.716666667
7.672
8.194
8.916
8.159333333
7.568
8.387333333
7.963333333
7.741333333
7.989333333
7.904
8.004
7.798
7.442666667
7.466
7.544
7.857333333
7.501333333
7.359333333
7.954666667
7.691333333
7.982666667
8.592666667
9.004
8.319333333
7.691333333
8.205333333
8.517333333
8.214666667
8.108666667
7.948
8.253333333
8.444
8.07
8.002
7.502
7.622666667
7.721333333
7.177333333
7.816
8.04
8.102
8.662666667
9.207333333
8.684666667
8.276
8.247333333
8.056
8.206666667
8.393333333
8.436
8.368
8.562
8.219333333
8.108
7.84
7.881333333
7.673333333
7.433333333
7.949333333
7.862
7.926
6.153333333
5.674
5.842666667
5.983333333
5.632666667
5.839333333
6.469333333
6.609333333
5.952666667
6.453333333
6.405333333
6.094
5.760666667
5.823333333
5.798666667
5.75
6.168666667
6.402
5.843333333
6.244
6.462
6.252666667
5.947333333
6.185333333
5.909333333
5.776666667
6.385333333
6.024
6.223333333
6.656666667
6.418
6.416
6.345333333
6.367333333
6.100666667
5.831333333
6.759333333
6.607333333
6.297333333
6.308666667
6.464666667
6.398666667
6.333333333
5.911333333
5.862666667
5.908666667
6.280666667
6.213333333
6.042
6.306
6.592
6.527333333
6.139333333
5.962
6.064666667
6.013333333
6.521333333
6.161333333
6.332666667
6.627333333
6.746666667
6.604666667
6.040666667
6.224
6.394666667
6.132666667
6.496666667
6.67
6.742666667
6.654666667
6.604
6.576
6.25
6.307333333
6.438
6.586
6.905333333
6.899333333
6.378666667
6.549333333
6.469333333
6.479333333
6.394666667
6.408666667
6.621333333
6.532666667
6.503333333
6.547333333
6.985333333
6.860666667
6.328
6.578
6.412
6.61
6.518
6.931333333
6.248666667
6.850666667
7.268
6.776666667
6.324
6.668
6.448
6.643333333
6.781333333
6.728666667
6.871333333
6.826666667
6.902
6.545333333
6.506
6.378666667
6.547333333
6.582666667
6.969333333
6.952666667
6.83
6.932
6.648666667
6.334666667
6.514666667
6.513333333
6.644
6.676666667
6.880666667
7.008666667
6.721333333
6.678666667
6.96
6.826
6.819333333
7.013333333
6.666
6.605333333
6.855333333
6.922
6.96
6.732
7.162
6.787333333
6.902666667
7.010666667
7.053333333
7.181333333
7.125333333
7.055333333
7.208666667
7.26
7.005333333
7.396
6.89
6.978666667
7.382666667
7.44
7.341333333
7.395333333
7.484
7.314666667
7.278
7.52
7.526
6.946
7.197333333
7.274666667
7.446
7.284
7.554666667
7.846666667
7.571333333
7.891333333
7.555333333
7.51
7.392
7.449333333
7.734666667
7.677333333
8.050666667
8.007333333
7.762
7.644666667
7.928666667
7.488
7.502666667
7.728666667
7.213333333
7.187333333
)
;

boundaryField
{
    flow
    {
        type            calculated;
        value           nonuniform List<scalar> 
48
(
7.502666667
7.626666667
7.925333333
8.185333333
8.131333333
7.633333333
7.592
8.001333333
7.804
7.980666667
7.968666667
7.657333333
8.100666667
8.51
8.191333333
8.194
8.592666667
8.662666667
8.662666667
9.207333333
8.684666667
8.276
8.247333333
8.056
8.206666667
8.393333333
8.436
8.368
8.562
8.219333333
8.108
7.84
7.881333333
7.673333333
7.433333333
7.949333333
7.862
7.926
8.050666667
8.007333333
7.762
7.644666667
7.928666667
7.488
7.502666667
7.728666667
7.213333333
7.187333333
)
;
    }
    obstacle
    {
        type            calculated;
        value           nonuniform 0();
    }
    frontAndBack
    {
        type            empty;
    }
    procBoundary2to0
    {
        type            processor;
        value           nonuniform List<scalar> 
31
(
7.846
7.658666667
7.701333333
7.352
7.674
7.27
7.028
7.165333333
7.095333333
6.589333333
6.791333333
6.718
6.744
6.696666667
6.724666667
6.492
6.436666667
6.167333333
6.394
6.368
6.029333333
5.912
5.865333333
6.188
5.941333333
5.752
6.446666667
6.134
6.248666667
6.251333333
6.251333333
)
;
    }
    procBoundary2to3
    {
        type            processor;
        value           nonuniform List<scalar> 
19
(
5.723333333
5.526666667
5.898666667
5.658666667
5.657333333
6.248
6.167333333
6.092666667
6.222
6.288
6.602
6.596
6.704666667
6.938666667
6.972
7.506666667
7.374
6.931333333
7.634666667
)
;
    }
}


// ************************************************************************* //
