/*--------------------------------*- C++ -*----------------------------------*\
  =========                 |
  \\      /  F ield         | OpenFOAM: The Open Source CFD Toolbox
   \\    /   O peration     | Website:  https://openfoam.org
    \\  /    A nd           | Version:  7
     \\/     M anipulation  |
\*---------------------------------------------------------------------------*/
FoamFile
{
    version     2.0;
    format      ascii;
    class       volScalarField;
    location    "0.003";
    object      dsmcSigmaTcRMax;
}
// * * * * * * * * * * * * * * * * * * * * * * * * * * * * * * * * * * * * * //

dimensions      [0 3 -1 0 0 0 0];

internalField   nonuniform List<scalar> 
546
(
6.036739118e-16
6.690923585e-16
5.614706463e-16
6.197883827e-16
5.635433005e-16
6.089535106e-16
5.632304499e-16
6.852089164e-16
5.957260994e-16
6.278512914e-16
5.861217235e-16
5.563549306e-16
6.124127744e-16
6.543175546e-16
6.354268439e-16
5.900361933e-16
5.96001374e-16
6.172601161e-16
5.762978263e-16
5.937248413e-16
5.70196841e-16
5.63619625e-16
5.762439321e-16
5.736111238e-16
5.653414548e-16
5.554443591e-16
5.871997614e-16
5.70519712e-16
5.568613997e-16
6.096112844e-16
6.348907438e-16
5.913525116e-16
5.680092141e-16
5.707855842e-16
5.928312163e-16
6.345038383e-16
6.093571743e-16
6.315093822e-16
5.669300865e-16
6.799591974e-16
6.02146771e-16
5.771894145e-16
6.025747488e-16
5.742412552e-16
5.891690239e-16
6.762975854e-16
5.479036245e-16
6.104796126e-16
5.799033049e-16
5.963201929e-16
6.31391006e-16
6.173524465e-16
6.202677397e-16
6.609886708e-16
6.06311308e-16
5.720949162e-16
5.916690977e-16
5.800366978e-16
6.112422791e-16
6.05329842e-16
5.726842621e-16
5.710794162e-16
6.293634209e-16
6.076566758e-16
5.522517973e-16
5.851658148e-16
5.714355886e-16
6.102376395e-16
5.748598186e-16
5.829805965e-16
6.103770624e-16
6.132160849e-16
5.832985599e-16
5.926666682e-16
6.148648249e-16
5.635172364e-16
6.203601958e-16
5.908384528e-16
5.834299157e-16
5.877416564e-16
5.866247459e-16
5.459811403e-16
5.844395663e-16
6.103374435e-16
6.332508535e-16
5.829748374e-16
6.254177351e-16
6.393139315e-16
5.599983651e-16
5.745936537e-16
5.793802849e-16
6.015419711e-16
6.584303784e-16
5.583312718e-16
5.93634993e-16
5.936956523e-16
6.098989538e-16
6.624945018e-16
5.822180474e-16
5.938898146e-16
6.094597997e-16
5.738094113e-16
5.718797745e-16
6.090357863e-16
5.651003003e-16
6.666723796e-16
5.880407497e-16
5.42728303e-16
6.051039522e-16
5.776288912e-16
5.814741128e-16
6.419226302e-16
5.767854599e-16
6.232616872e-16
5.94865625e-16
5.80618805e-16
6.00102338e-16
5.812958529e-16
6.3979535e-16
6.579070927e-16
5.736358561e-16
5.812408341e-16
5.60502885e-16
5.763453928e-16
5.676415326e-16
5.797495756e-16
6.058688897e-16
6.119119473e-16
6.073086685e-16
6.031733635e-16
6.369516964e-16
6.039390532e-16
6.074074122e-16
5.855106083e-16
6.340097808e-16
6.316710227e-16
5.95141158e-16
5.904931625e-16
6.02351677e-16
6.145079987e-16
6.036163615e-16
6.049104274e-16
5.831643761e-16
5.712788027e-16
5.795396975e-16
6.024663331e-16
5.765573395e-16
6.217491859e-16
5.968220206e-16
5.586268213e-16
5.883123616e-16
5.9777974e-16
5.70935491e-16
6.681613514e-16
5.817225959e-16
6.320507722e-16
5.697746489e-16
5.732371113e-16
5.645690328e-16
5.858910091e-16
5.655541554e-16
5.720725286e-16
5.599700799e-16
5.862602869e-16
6.125478284e-16
6.084490172e-16
5.783535557e-16
6.421160327e-16
5.736273806e-16
5.603824863e-16
6.20239979e-16
6.125879232e-16
6.548698886e-16
6.358962087e-16
6.381109389e-16
6.361832086e-16
5.568520903e-16
6.188741535e-16
6.07741606e-16
6.039508782e-16
6.094356766e-16
5.477217462e-16
5.584114681e-16
5.998473367e-16
5.960085338e-16
5.598603025e-16
5.848211616e-16
5.950626531e-16
5.661100485e-16
5.955003552e-16
5.879806796e-16
5.684982471e-16
6.366004601e-16
5.946584399e-16
6.166472887e-16
5.745743521e-16
5.571899541e-16
5.911540177e-16
6.773051528e-16
6.17790272e-16
6.363987511e-16
5.768528145e-16
5.634829838e-16
5.935024481e-16
6.130309262e-16
5.877172668e-16
5.754776862e-16
5.912410628e-16
5.913123341e-16
6.101652639e-16
5.688654723e-16
6.015998966e-16
5.966623047e-16
6.771652078e-16
6.011924172e-16
5.624795389e-16
6.329240491e-16
6.106373194e-16
5.915240598e-16
5.954532084e-16
6.388082541e-16
5.837959828e-16
5.734985677e-16
5.774226308e-16
5.667486333e-16
5.719997691e-16
6.017855541e-16
6.021782172e-16
5.711506968e-16
6.407934481e-16
5.644396261e-16
5.722468281e-16
5.940383648e-16
6.011783617e-16
5.91975894e-16
6.184940162e-16
6.214669562e-16
6.423833597e-16
5.945937427e-16
5.702933867e-16
5.61446684e-16
5.430480345e-16
5.71757814e-16
6.046933742e-16
5.811029606e-16
5.801488052e-16
5.82346436e-16
6.027147749e-16
5.749949932e-16
5.982231641e-16
6.772594214e-16
5.782113508e-16
6.253497139e-16
5.836106177e-16
6.310424471e-16
5.555554241e-16
5.871789939e-16
6.021550357e-16
6.577727482e-16
6.272651516e-16
6.098874559e-16
5.840647285e-16
5.968799346e-16
5.840507153e-16
6.268489513e-16
6.092019469e-16
6.033546205e-16
5.646930038e-16
6.134149816e-16
6.247634423e-16
6.289926864e-16
5.879367654e-16
5.582643724e-16
6.280246652e-16
5.950051604e-16
5.979881017e-16
6.587097367e-16
5.997396414e-16
5.374847493e-16
5.86091775e-16
5.710071085e-16
5.469756372e-16
5.603130915e-16
5.510686909e-16
5.942010495e-16
6.200688667e-16
5.687344088e-16
5.353543684e-16
5.85829605e-16
5.889056662e-16
5.730484599e-16
6.297375018e-16
5.834900495e-16
5.775194622e-16
6.455472317e-16
6.075451044e-16
6.657804257e-16
6.945480233e-16
5.603316983e-16
5.625259125e-16
5.572084755e-16
5.572713554e-16
6.170443019e-16
5.706555393e-16
6.090512032e-16
5.909991703e-16
5.727600316e-16
6.074562382e-16
6.059319757e-16
5.861545064e-16
6.15006981e-16
7.379224157e-16
6.087202519e-16
6.413983465e-16
5.615093447e-16
6.823249826e-16
5.544661754e-16
5.84618127e-16
6.108452765e-16
6.068955299e-16
5.8244516e-16
6.212905752e-16
6.027098278e-16
5.712282644e-16
5.926031752e-16
5.754732873e-16
6.380302507e-16
5.745250161e-16
5.986023792e-16
6.352448139e-16
6.700887164e-16
6.932409583e-16
6.788330792e-16
6.082567569e-16
6.838630155e-16
6.028877364e-16
6.84191269e-16
6.24567722e-16
6.25481647e-16
6.014225542e-16
6.027919444e-16
5.538861674e-16
6.285637298e-16
6.738809893e-16
6.16592582e-16
5.77799744e-16
6.666887802e-16
6.468014665e-16
6.613034332e-16
7.061908935e-16
6.850023143e-16
6.79927522e-16
6.835144989e-16
7.899107091e-16
6.880342745e-16
6.651740926e-16
6.42248658e-16
6.57866739e-16
6.739954547e-16
6.359502931e-16
6.224078656e-16
5.930882288e-16
6.054545128e-16
6.310098011e-16
6.509011732e-16
6.07680018e-16
5.98465171e-16
6.28702694e-16
6.241392055e-16
6.460161777e-16
6.512753445e-16
5.953950189e-16
6.950441004e-16
5.987436847e-16
6.243208532e-16
6.291079378e-16
6.357170012e-16
6.149533527e-16
6.298845512e-16
6.189983748e-16
5.971441847e-16
5.940786065e-16
5.927488796e-16
6.074722396e-16
6.044077527e-16
6.238582458e-16
6.011363777e-16
6.092209063e-16
5.732650205e-16
5.980821798e-16
6.069027645e-16
6.664624735e-16
6.155634982e-16
6.029205874e-16
6.212773771e-16
6.357923647e-16
5.942953971e-16
5.933653272e-16
6.188908008e-16
5.906133064e-16
6.378940596e-16
5.917016563e-16
6.478003881e-16
6.451227259e-16
6.039546722e-16
6.222089706e-16
6.348585888e-16
6.233883881e-16
5.674193714e-16
6.538808476e-16
6.78567696e-16
5.950133142e-16
6.108450134e-16
5.981868058e-16
5.690243247e-16
6.0455293e-16
6.08314291e-16
6.311086205e-16
6.189761835e-16
6.19201366e-16
5.90923121e-16
5.901561708e-16
5.958354489e-16
6.407862404e-16
6.001747922e-16
6.249386134e-16
6.105598265e-16
6.179131e-16
6.043453993e-16
5.939448808e-16
6.092885995e-16
6.022856701e-16
6.032417005e-16
6.432192024e-16
6.082568571e-16
5.935668754e-16
6.14296254e-16
5.792147825e-16
5.927951768e-16
6.081376292e-16
6.312440662e-16
5.759645077e-16
6.232885819e-16
5.833487259e-16
5.774241643e-16
6.268158771e-16
6.377300608e-16
5.848665513e-16
6.129833503e-16
5.737340904e-16
6.142672392e-16
6.000167779e-16
6.26131931e-16
6.689539536e-16
5.88114125e-16
6.991047665e-16
5.947971824e-16
5.788092739e-16
6.422869509e-16
5.889007118e-16
6.114538378e-16
6.199068205e-16
5.997847846e-16
6.185198445e-16
6.331429209e-16
5.831454036e-16
6.462709279e-16
5.889645592e-16
5.533667512e-16
6.278904995e-16
6.156888966e-16
5.921841758e-16
6.305409172e-16
7.1755473e-16
6.82769226e-16
5.891759419e-16
5.780093959e-16
6.157443309e-16
5.884852165e-16
6.027980453e-16
5.899132236e-16
5.48711256e-16
5.595912188e-16
6.040911777e-16
5.805541842e-16
6.175761935e-16
6.617960033e-16
5.961323479e-16
5.79300092e-16
6.018611698e-16
6.158821326e-16
5.930173713e-16
5.879096918e-16
5.790863464e-16
6.10572014e-16
6.251607314e-16
5.593623122e-16
6.846683941e-16
5.419943129e-16
6.298688272e-16
6.014685217e-16
6.514344547e-16
6.148830725e-16
6.065000893e-16
6.82880172e-16
6.677198761e-16
5.771711887e-16
5.668302865e-16
5.697150305e-16
5.957564508e-16
6.589777988e-16
7.063985603e-16
6.519189584e-16
5.658208854e-16
5.824713023e-16
6.303129142e-16
5.877822723e-16
6.839699766e-16
5.891588103e-16
6.224501463e-16
6.043321131e-16
6.692594908e-16
6.940663991e-16
6.673114128e-16
5.921126551e-16
6.447355694e-16
5.863492542e-16
6.865704085e-16
6.989769054e-16
6.068697373e-16
6.135054687e-16
6.699215785e-16
6.533393908e-16
6.758153944e-16
7.342253121e-16
6.864812867e-16
7.199771722e-16
6.648187636e-16
7.088626168e-16
7.377249016e-16
7.245184275e-16
6.293823516e-16
6.958704388e-16
7.007564064e-16
7.238735721e-16
6.495535293e-16
)
;

boundaryField
{
    flow
    {
        type            zeroGradient;
    }
    obstacle
    {
        type            zeroGradient;
    }
    frontAndBack
    {
        type            empty;
    }
    procBoundary2to0
    {
        type            processor;
        value           nonuniform List<scalar> 
31
(
5.902102965e-16
6.360463615e-16
5.749254631e-16
5.500334619e-16
6.545732699e-16
5.905819822e-16
6.278571628e-16
5.824795446e-16
6.532417654e-16
6.766122769e-16
5.997272745e-16
5.855194371e-16
5.994122741e-16
5.951192074e-16
6.243281546e-16
5.880817046e-16
6.310876626e-16
6.719741401e-16
6.502460015e-16
5.971805228e-16
5.775298996e-16
6.115685743e-16
6.282697428e-16
6.317614249e-16
6.028362364e-16
6.156991917e-16
5.789877519e-16
6.590384399e-16
5.96776303e-16
6.331837168e-16
6.331837168e-16
)
;
    }
    procBoundary2to3
    {
        type            processor;
        value           nonuniform List<scalar> 
19
(
6.45698153e-16
5.659159196e-16
6.670172882e-16
6.570561995e-16
6.129058677e-16
6.164741689e-16
6.439020107e-16
6.152800144e-16
6.178775546e-16
5.755458609e-16
7.136289562e-16
5.811520786e-16
6.020716988e-16
6.1974844e-16
5.67836115e-16
6.608851726e-16
7.468569037e-16
6.791470087e-16
6.656365195e-16
)
;
    }
}


// ************************************************************************* //
