/*--------------------------------*- C++ -*----------------------------------*\
  =========                 |
  \\      /  F ield         | OpenFOAM: The Open Source CFD Toolbox
   \\    /   O peration     | Website:  https://openfoam.org
    \\  /    A nd           | Version:  7
     \\/     M anipulation  |
\*---------------------------------------------------------------------------*/
FoamFile
{
    version     2.0;
    format      ascii;
    class       volScalarField;
    location    "0.003";
    object      iDof;
}
// * * * * * * * * * * * * * * * * * * * * * * * * * * * * * * * * * * * * * //

dimensions      [0 -3 0 0 0 0 0];

internalField   nonuniform List<scalar> 
546
(
1.666239693e+20
2.082799616e+20
2.291079578e+20
1.666239693e+20
3.124199424e+20
2.082799616e+20
2.499359539e+20
1.666239693e+20
1.874519654e+20
2.499359539e+20
8.331198464e+19
2.707639501e+20
1.457959731e+20
1.874519654e+20
2.082799616e+20
8.331198464e+19
1.874519654e+20
1.24967977e+20
2.291079578e+20
1.457959731e+20
1.24967977e+20
2.499359539e+20
2.082799616e+20
2.291079578e+20
2.291079578e+20
2.291079578e+20
1.874519654e+20
2.707639501e+20
2.082799616e+20
6.248398848e+19
1.666239693e+20
2.707639501e+20
1.24967977e+20
8.331198464e+19
2.915919462e+20
2.082799616e+20
1.666239693e+20
2.082799616e+20
1.666239693e+20
1.041399808e+20
2.291079578e+20
1.24967977e+20
1.24967977e+20
2.291079578e+20
1.041399808e+20
2.082799616e+20
1.666239693e+20
8.331198464e+19
2.291079578e+20
1.874519654e+20
2.291079578e+20
2.707639501e+20
3.540759347e+20
2.082799616e+20
1.457959731e+20
1.666239693e+20
2.499359539e+20
2.291079578e+20
1.874519654e+20
2.707639501e+20
8.331198464e+19
1.666239693e+20
2.707639501e+20
1.457959731e+20
2.082799616e+20
2.291079578e+20
2.082799616e+20
1.874519654e+20
1.874519654e+20
1.457959731e+20
2.499359539e+20
1.666239693e+20
1.666239693e+20
2.499359539e+20
2.707639501e+20
1.874519654e+20
2.915919462e+20
1.24967977e+20
2.082799616e+20
1.24967977e+20
1.874519654e+20
2.082799616e+20
1.874519654e+20
2.499359539e+20
6.248398848e+19
3.124199424e+20
1.874519654e+20
1.457959731e+20
1.874519654e+20
2.499359539e+20
2.499359539e+20
2.291079578e+20
1.457959731e+20
3.540759347e+20
1.24967977e+20
2.082799616e+20
2.082799616e+20
1.24967977e+20
1.874519654e+20
1.457959731e+20
1.041399808e+20
2.915919462e+20
1.874519654e+20
2.499359539e+20
2.915919462e+20
2.915919462e+20
8.331198464e+19
3.749039309e+20
2.291079578e+20
1.874519654e+20
2.499359539e+20
1.874519654e+20
3.124199424e+20
1.457959731e+20
1.666239693e+20
1.457959731e+20
2.707639501e+20
1.457959731e+20
2.499359539e+20
1.874519654e+20
2.499359539e+20
1.666239693e+20
2.499359539e+20
2.707639501e+20
4.165599232e+19
1.457959731e+20
1.874519654e+20
2.291079578e+20
1.457959731e+20
1.457959731e+20
1.457959731e+20
2.082799616e+20
2.707639501e+20
1.457959731e+20
2.499359539e+20
1.24967977e+20
1.666239693e+20
2.291079578e+20
2.915919462e+20
1.041399808e+20
1.666239693e+20
1.457959731e+20
2.291079578e+20
2.082799616e+20
2.291079578e+20
1.874519654e+20
1.874519654e+20
1.666239693e+20
1.874519654e+20
1.666239693e+20
2.082799616e+20
1.666239693e+20
1.24967977e+20
1.874519654e+20
1.874519654e+20
2.707639501e+20
2.707639501e+20
2.291079578e+20
2.291079578e+20
2.291079578e+20
1.666239693e+20
1.874519654e+20
1.24967977e+20
1.24967977e+20
2.291079578e+20
2.291079578e+20
2.707639501e+20
1.874519654e+20
2.707639501e+20
2.707639501e+20
2.291079578e+20
1.041399808e+20
2.291079578e+20
2.082799616e+20
2.707639501e+20
2.291079578e+20
2.082799616e+20
1.041399808e+20
2.082799616e+20
1.874519654e+20
2.082799616e+20
2.499359539e+20
1.041399808e+20
2.291079578e+20
2.915919462e+20
6.248398848e+19
1.874519654e+20
2.499359539e+20
2.082799616e+20
2.915919462e+20
1.666239693e+20
1.666239693e+20
1.874519654e+20
2.082799616e+20
1.041399808e+20
3.332479385e+20
2.707639501e+20
1.24967977e+20
3.124199424e+20
1.041399808e+20
1.24967977e+20
1.24967977e+20
2.291079578e+20
1.874519654e+20
1.24967977e+20
2.291079578e+20
3.124199424e+20
3.124199424e+20
1.457959731e+20
2.499359539e+20
1.666239693e+20
1.666239693e+20
1.666239693e+20
2.291079578e+20
1.874519654e+20
1.874519654e+20
3.124199424e+20
1.24967977e+20
1.874519654e+20
3.124199424e+20
1.24967977e+20
2.499359539e+20
2.291079578e+20
2.915919462e+20
1.457959731e+20
2.707639501e+20
8.331198464e+19
1.666239693e+20
2.082799616e+20
1.666239693e+20
1.874519654e+20
2.915919462e+20
1.874519654e+20
1.874519654e+20
1.874519654e+20
1.874519654e+20
1.457959731e+20
2.499359539e+20
1.874519654e+20
2.291079578e+20
1.24967977e+20
2.082799616e+20
1.874519654e+20
2.082799616e+20
1.457959731e+20
1.874519654e+20
2.082799616e+20
1.874519654e+20
2.082799616e+20
1.666239693e+20
1.457959731e+20
2.291079578e+20
1.457959731e+20
1.457959731e+20
1.666239693e+20
1.24967977e+20
2.082799616e+20
3.332479385e+20
2.707639501e+20
2.291079578e+20
1.457959731e+20
1.666239693e+20
2.707639501e+20
1.24967977e+20
1.666239693e+20
2.499359539e+20
1.666239693e+20
1.24967977e+20
1.457959731e+20
2.499359539e+20
2.082799616e+20
2.499359539e+20
2.082799616e+20
1.457959731e+20
1.874519654e+20
1.874519654e+20
1.874519654e+20
1.874519654e+20
2.499359539e+20
1.874519654e+20
1.041399808e+20
2.082799616e+20
2.915919462e+20
2.082799616e+20
2.291079578e+20
2.082799616e+20
1.457959731e+20
1.457959731e+20
2.291079578e+20
2.707639501e+20
1.666239693e+20
1.666239693e+20
1.874519654e+20
1.041399808e+20
1.874519654e+20
2.291079578e+20
2.082799616e+20
2.082799616e+20
2.291079578e+20
1.666239693e+20
1.666239693e+20
2.291079578e+20
1.874519654e+20
1.874519654e+20
2.915919462e+20
1.874519654e+20
1.666239693e+20
1.457959731e+20
1.457959731e+20
1.041399808e+20
2.291079578e+20
2.082799616e+20
1.24967977e+20
2.291079578e+20
1.24967977e+20
2.082799616e+20
1.666239693e+20
1.874519654e+20
3.332479385e+20
2.499359539e+20
1.666239693e+20
1.457959731e+20
2.707639501e+20
1.457959731e+20
2.291079578e+20
1.24967977e+20
2.915919462e+20
2.291079578e+20
1.041399808e+20
3.124199424e+20
2.499359539e+20
2.291079578e+20
1.874519654e+20
2.499359539e+20
2.291079578e+20
1.874519654e+20
3.124199424e+20
2.291079578e+20
1.874519654e+20
1.666239693e+20
6.248398848e+19
1.24967977e+20
2.499359539e+20
2.291079578e+20
2.707639501e+20
2.082799616e+20
1.457959731e+20
2.915919462e+20
2.082799616e+20
1.457959731e+20
1.666239693e+20
2.707639501e+20
2.082799616e+20
1.666239693e+20
1.457959731e+20
1.874519654e+20
1.041399808e+20
2.082799616e+20
1.666239693e+20
1.874519654e+20
1.933997406e+20
2.380487856e+20
2.179490119e+20
1.756097144e+20
2.210978576e+20
2.004359824e+20
1.045092877e+20
3.156837153e+20
1.907216511e+20
2.347294393e+20
1.504220205e+20
2.81330383e+20
1.743592108e+20
1.097560715e+20
1.768782848e+20
2.227066471e+20
1.463130037e+20
2.946381343e+20
2.542955348e+20
2.560684792e+20
3.438217588e+20
2.164079884e+20
1.525643094e+20
1.536585001e+20
3.095370006e+20
8.908265883e+19
1.672148603e+20
8.418232409e+19
2.331042402e+20
1.493732795e+20
1.289331604e+20
1.731263895e+20
2.397439148e+20
1.097560723e+20
1.989880704e+20
1.781653164e+20
1.045092877e+20
2.315013897e+20
2.542955348e+20
2.347294409e+20
1.933997406e+20
1.731263895e+20
1.743592096e+20
1.756097132e+20
1.989880704e+20
2.895186412e+20
2.926260055e+20
2.525469706e+20
1.48339062e+20
1.707123206e+20
2.793551809e+20
1.731263895e+20
1.961541121e+20
2.41463359e+20
2.432076433e+20
1.113533235e+20
1.045092877e+20
1.683646482e+20
8.476517826e+19
2.347294393e+20
1.719108806e+20
2.813303849e+20
3.051286189e+20
2.19512143e+20
2.653174291e+20
1.558946541e+20
2.299204345e+20
3.156837153e+20
1.271477674e+20
1.493732806e+20
1.933997406e+20
1.947671882e+20
2.179490135e+20
2.634145716e+20
1.547684992e+20
1.781653177e+20
2.508222905e+20
2.315013913e+20
3.602520101e+20
2.133904008e+20
2.578663208e+20
2.164079869e+20
2.833337155e+20
1.097560715e+20
1.105489288e+20
2.004359824e+20
2.508222905e+20
2.104558088e+20
2.754868275e+20
1.280342387e+20
2.79355179e+20
1.082039942e+20
1.525643105e+20
2.195121445e+20
2.874272148e+20
3.117893059e+20
1.463130028e+20
1.262734861e+20
2.966781259e+20
3.414246413e+20
3.223329033e+20
1.731263907e+20
1.307694072e+20
1.975609273e+20
1.547684992e+20
1.55894653e+20
2.090185768e+20
8.418232409e+19
1.695303565e+20
1.920513607e+20
1.074443004e+20
2.596895843e+20
1.743592108e+20
1.536585012e+20
3.316467864e+20
2.895186412e+20
1.881167178e+20
2.315013897e+20
2.331042386e+20
1.920513594e+20
1.504220205e+20
1.514855908e+20
2.179490119e+20
2.634145716e+20
1.547685003e+20
1.55894653e+20
2.090185754e+20
1.894102292e+20
1.059564735e+20
2.133904008e+20
1.289331604e+20
1.514855919e+20
2.397439165e+20
1.536585012e+20
1.989880704e+20
1.781653164e+20
2.299204329e+20
1.68364647e+20
2.331042386e+20
1.493732795e+20
1.719108806e+20
8.656319476e+19
1.961541108e+20
1.756097132e+20
2.21097856e+20
2.895186433e+20
2.299204329e+20
1.473190672e+20
4.238258942e+19
3.20085599e+20
8.595543969e+19
1.947671882e+20
1.743592108e+20
1.097560723e+20
1.547685003e+20
2.672479765e+20
1.254111461e+20
8.418232409e+19
1.695303565e+20
1.280342405e+20
1.933997406e+20
2.81330383e+20
1.743592096e+20
2.414633573e+20
2.432076433e+20
1.55894653e+20
2.71724148e+20
1.052279051e+20
2.119129457e+20
3.20085599e+20
1.719108806e+20
8.656319536e+19
2.397439165e+20
1.975609287e+20
1.10548928e+20
2.449773118e+20
2.299204329e+20
2.315013897e+20
1.907216511e+20
2.77407521e+20
1.719108806e+20
1.731263895e+20
2.179490119e+20
1.756097144e+20
1.547685003e+20
2.672479765e+20
)
;

boundaryField
{
    flow
    {
        type            zeroGradient;
    }
    obstacle
    {
        type            calculated;
        value           nonuniform 0();
    }
    frontAndBack
    {
        type            empty;
    }
    procBoundary2to0
    {
        type            processor;
        value           nonuniform List<scalar> 
31
(
1.457959731e+20
3.124199424e+20
1.457959731e+20
1.24967977e+20
1.457959731e+20
1.874519654e+20
1.666239693e+20
2.082799616e+20
3.540759347e+20
2.082799616e+20
2.291079578e+20
1.874519654e+20
1.666239693e+20
2.499359539e+20
1.874519654e+20
1.24967977e+20
2.082799616e+20
2.915919462e+20
1.24967977e+20
2.915919462e+20
1.504220205e+20
2.380487856e+20
2.833337175e+20
1.536585012e+20
1.326587145e+20
6.681199412e+19
2.299204329e+20
2.735925515e+20
1.907216511e+20
2.133904008e+20
2.133904008e+20
)
;
    }
    procBoundary2to3
    {
        type            processor;
        value           nonuniform List<scalar> 
19
(
2.243390205e+20
1.570373143e+20
2.243390221e+20
2.692068246e+20
1.346034123e+20
2.467729243e+20
1.346034132e+20
1.570373143e+20
2.692068265e+20
2.467729225e+20
3.140746287e+20
1.794712177e+20
1.121695102e+20
1.794712164e+20
2.019051213e+20
2.019051184e+20
1.570373143e+20
1.794712177e+20
2.019051184e+20
)
;
    }
}


// ************************************************************************* //
