/*--------------------------------*- C++ -*----------------------------------*\
  =========                 |
  \\      /  F ield         | OpenFOAM: The Open Source CFD Toolbox
   \\    /   O peration     | Website:  https://openfoam.org
    \\  /    A nd           | Version:  7
     \\/     M anipulation  |
\*---------------------------------------------------------------------------*/
FoamFile
{
    version     2.0;
    format      ascii;
    class       volScalarField;
    location    "0.003";
    object      iDofMean;
}
// * * * * * * * * * * * * * * * * * * * * * * * * * * * * * * * * * * * * * //

dimensions      [0 -3 0 0 0 0 0];

internalField   nonuniform List<scalar> 
546
(
1.562655125e+20
1.579178669e+20
1.603616851e+20
1.538355796e+20
1.584316241e+20
1.498921457e+20
1.495311271e+20
1.485036126e+20
1.531968544e+20
1.446434907e+20
1.457682025e+20
1.435604349e+20
1.459625971e+20
1.414915206e+20
1.437270588e+20
1.349376445e+20
1.287725576e+20
1.349376445e+20
1.390615877e+20
1.327298769e+20
1.58848184e+20
1.517250094e+20
1.64555055e+20
1.547103555e+20
1.467540609e+20
1.509890868e+20
1.562516272e+20
1.599034692e+20
1.527108678e+20
1.465318956e+20
1.451572479e+20
1.458237438e+20
1.489757139e+20
1.404917768e+20
1.415609472e+20
1.420330485e+20
1.388810784e+20
1.401029875e+20
1.399363635e+20
1.349654151e+20
1.650688122e+20
1.668044786e+20
1.509057748e+20
1.48100938e+20
1.488785165e+20
1.567376138e+20
1.66401804e+20
1.527664092e+20
1.549047501e+20
1.467401756e+20
1.432688429e+20
1.491978792e+20
1.460597944e+20
1.367149668e+20
1.404084648e+20
1.312163758e+20
1.373398067e+20
1.44865656e+20
1.472539328e+20
1.316468211e+20
1.704840912e+20
1.6245837e+20
1.504197883e+20
1.404778914e+20
1.350487271e+20
1.474899835e+20
1.57043091e+20
1.397280836e+20
1.447268026e+20
1.505031002e+20
1.421024751e+20
1.418941952e+20
1.528219505e+20
1.416442592e+20
1.348265618e+20
1.418525392e+20
1.394920329e+20
1.460181384e+20
1.42685659e+20
1.455460372e+20
1.693593794e+20
1.557795259e+20
1.517250094e+20
1.505308709e+20
1.492256498e+20
1.503642469e+20
1.575846189e+20
1.540577449e+20
1.515445001e+20
1.415609472e+20
1.524748172e+20
1.401029875e+20
1.420330485e+20
1.427412003e+20
1.419080805e+20
1.422968698e+20
1.439769948e+20
1.455876932e+20
1.443935547e+20
1.532662811e+20
1.589870373e+20
1.626527647e+20
1.576123896e+20
1.561960859e+20
1.567931551e+20
1.570986324e+20
1.594313679e+20
1.529052625e+20
1.561127739e+20
1.498088337e+20
1.46254189e+20
1.547520115e+20
1.458515144e+20
1.421857871e+20
1.426717737e+20
1.44532408e+20
1.396170009e+20
1.377285959e+20
1.421441311e+20
1.495727831e+20
1.581261468e+20
1.68331865e+20
1.64513399e+20
1.604172264e+20
1.520721426e+20
1.626944207e+20
1.580428349e+20
1.549186354e+20
1.53432905e+20
1.57001435e+20
1.509613162e+20
1.543215662e+20
1.411582726e+20
1.48434186e+20
1.499338017e+20
1.547381261e+20
1.474899835e+20
1.397558542e+20
1.467679463e+20
1.40963878e+20
1.666517399e+20
1.629443566e+20
1.567237284e+20
1.548492088e+20
1.588759547e+20
1.555851313e+20
1.580150642e+20
1.613614289e+20
1.53724497e+20
1.548353234e+20
1.566543018e+20
1.553768513e+20
1.453655279e+20
1.525442439e+20
1.607921303e+20
1.544604195e+20
1.455321518e+20
1.456293491e+20
1.379924172e+20
1.476566074e+20
1.62541682e+20
1.543632222e+20
1.602089465e+20
1.559600352e+20
1.683874063e+20
1.609170983e+20
1.60778245e+20
1.496699804e+20
1.50114311e+20
1.480731674e+20
1.586121334e+20
1.569042377e+20
1.569736644e+20
1.535856437e+20
1.587371014e+20
1.501420816e+20
1.473650155e+20
1.449073119e+20
1.416720299e+20
1.471706209e+20
1.662212947e+20
1.755800076e+20
1.762048475e+20
1.618613008e+20
1.594869093e+20
1.57001435e+20
1.628055033e+20
1.583066561e+20
1.466985196e+20
1.550297181e+20
1.633748019e+20
1.467262903e+20
1.528913771e+20
1.53516217e+20
1.610420663e+20
1.545992728e+20
1.465735516e+20
1.467124049e+20
1.487674339e+20
1.471289649e+20
1.659713587e+20
1.717476563e+20
1.676098278e+20
1.66110212e+20
1.595007946e+20
1.50114311e+20
1.588204134e+20
1.600700931e+20
1.494617004e+20
1.546131582e+20
1.46545781e+20
1.543493369e+20
1.523637346e+20
1.488229752e+20
1.618751862e+20
1.466429783e+20
1.481564793e+20
1.521554546e+20
1.446296053e+20
1.419358512e+20
1.594869093e+20
1.693454941e+20
1.722614136e+20
1.643606604e+20
1.581816882e+20
1.691094435e+20
1.68165241e+20
1.544881902e+20
1.545020755e+20
1.50280935e+20
1.580150642e+20
1.536550703e+20
1.578484402e+20
1.552102274e+20
1.437964855e+20
1.53807809e+20
1.476149514e+20
1.490173699e+20
1.405056621e+20
1.51711124e+20
1.687206542e+20
1.707340272e+20
1.637497058e+20
1.565848751e+20
1.662074094e+20
1.68290209e+20
1.66193524e+20
1.666795106e+20
1.600423225e+20
1.594313679e+20
1.562516272e+20
1.534884464e+20
1.505169856e+20
1.579317522e+20
1.535439877e+20
1.505308709e+20
1.456571198e+20
1.529746891e+20
1.450600506e+20
1.473650155e+20
1.772462473e+20
1.787319777e+20
1.75302301e+20
1.714005231e+20
1.621528928e+20
1.659019321e+20
1.615419382e+20
1.631804072e+20
1.61069837e+20
1.668044786e+20
1.559878059e+20
1.504753296e+20
1.571819443e+20
1.585010508e+20
1.467401756e+20
1.536967263e+20
1.590703493e+20
1.546964701e+20
1.433382696e+20
1.516000414e+20
1.706090592e+20
1.777461192e+20
1.789680283e+20
1.693177234e+20
1.731500747e+20
1.625694527e+20
1.651937802e+20
1.645689403e+20
1.578345549e+20
1.641801511e+20
1.71483835e+20
1.566959578e+20
1.553490807e+20
1.658463908e+20
1.48142594e+20
1.467262903e+20
1.550158327e+20
1.598201572e+20
1.607227037e+20
1.597923865e+20
1.706646005e+20
1.857024138e+20
1.699425633e+20
1.576262749e+20
1.746913465e+20
1.658602761e+20
1.612364609e+20
1.66401804e+20
1.646244816e+20
1.667072813e+20
1.624167141e+20
1.550158327e+20
1.555018193e+20
1.57126403e+20
1.636525085e+20
1.562377419e+20
1.532801664e+20
1.656797668e+20
1.601950611e+20
1.662629507e+20
1.789680283e+20
1.875352774e+20
1.732750427e+20
1.601950611e+20
1.709006512e+20
1.77398986e+20
1.710950458e+20
1.688872782e+20
1.655409135e+20
1.71900395e+20
1.758715996e+20
1.68081929e+20
1.666656253e+20
1.562516272e+20
1.587648721e+20
1.60819901e+20
1.494894711e+20
1.62791618e+20
1.674570891e+20
1.687484249e+20
1.804259881e+20
1.917703033e+20
1.80884204e+20
1.723724962e+20
1.71775427e+20
1.677903371e+20
1.709284218e+20
1.748163144e+20
1.757049756e+20
1.742886719e+20
1.783293031e+20
1.711922431e+20
1.688733929e+20
1.632914899e+20
1.641523804e+20
1.598201572e+20
1.548214381e+20
1.655686841e+20
1.637497058e+20
1.650826976e+20
1.32228119e+20
1.227898918e+20
1.273403427e+20
1.313414322e+20
1.245370532e+20
1.300458348e+20
1.352210837e+20
1.390972602e+20
1.261447128e+20
1.377079377e+20
1.376433117e+20
1.318790272e+20
1.255531617e+20
1.278292379e+20
1.282072768e+20
1.280563221e+20
1.289365927e+20
1.347338097e+20
1.238277979e+20
1.332409653e+20
1.388610128e+20
1.353127015e+20
1.296215433e+20
1.357755775e+20
1.30654094e+20
1.286502065e+20
1.334653277e+20
1.267785801e+20
1.318804898e+20
1.420468758e+20
1.379155039e+20
1.388473644e+20
1.38295914e+20
1.397706995e+20
1.34884432e+20
1.298676685e+20
1.412826224e+20
1.390551681e+20
1.334486456e+20
1.346208908e+20
1.389183174e+20
1.384722572e+20
1.380343742e+20
1.297609439e+20
1.29622303e+20
1.315899342e+20
1.312775999e+20
1.307632092e+20
1.280378018e+20
1.345639867e+20
1.416545656e+20
1.412567066e+20
1.338061643e+20
1.308731406e+20
1.340884807e+20
1.339209304e+20
1.363079803e+20
1.296688399e+20
1.341974047e+20
1.414209307e+20
1.449781759e+20
1.429302627e+20
1.316557341e+20
1.366243578e+20
1.4138471e+20
1.365785641e+20
1.35792402e+20
1.403740254e+20
1.428858355e+20
1.420041987e+20
1.419124319e+20
1.423098922e+20
1.362181334e+20
1.384536257e+20
1.423427997e+20
1.466745978e+20
1.443342936e+20
1.452004787e+20
1.351722052e+20
1.397564865e+20
1.390185988e+20
1.402179483e+20
1.393711282e+20
1.406780154e+20
1.463962614e+20
1.45486829e+20
1.359317469e+20
1.377924332e+20
1.480282553e+20
1.46400039e+20
1.359815056e+20
1.423531748e+20
1.397489084e+20
1.450975275e+20
1.441115836e+20
1.543654006e+20
1.306087405e+20
1.441762604e+20
1.540183299e+20
1.446075616e+20
1.35895552e+20
1.443008467e+20
1.405335229e+20
1.458292326e+20
1.499338261e+20
1.498518793e+20
1.436236314e+20
1.436711664e+20
1.462623151e+20
1.396711303e+20
1.398065236e+20
1.380394412e+20
1.426984841e+20
1.444975277e+20
1.540904669e+20
1.548405082e+20
1.42759687e+20
1.458879667e+20
1.408938528e+20
1.35175705e+20
1.399927604e+20
1.409537355e+20
1.448053235e+20
1.465609408e+20
1.521300659e+20
1.560876654e+20
1.404883518e+20
1.405564205e+20
1.474914112e+20
1.456602876e+20
1.465396998e+20
1.517741359e+20
1.452848134e+20
1.449950885e+20
1.515699502e+20
1.5415754e+20
1.454769285e+20
1.416788505e+20
1.517720507e+20
1.44835177e+20
1.483304381e+20
1.51716426e+20
1.537267031e+20
1.576389858e+20
1.575395923e+20
1.571269642e+20
1.506745237e+20
1.527909182e+20
1.484520832e+20
1.578235394e+20
1.480582449e+20
1.510239205e+20
1.609044917e+20
1.633170355e+20
1.623153072e+20
1.646989891e+20
1.564295029e+20
1.5394141e+20
1.542302419e+20
1.604695814e+20
1.617251609e+20
1.503169877e+20
1.568651689e+20
1.59687767e+20
1.646294647e+20
1.622195217e+20
1.579065664e+20
1.651376591e+20
1.604463549e+20
1.683934771e+20
1.623555008e+20
1.625223993e+20
1.611079119e+20
1.635219124e+20
1.710118217e+20
1.709793165e+20
1.682738878e+20
1.685189813e+20
1.644868284e+20
1.631298484e+20
1.703780085e+20
1.620463006e+20
1.635198787e+20
1.696536182e+20
1.594852546e+20
1.600666908e+20
)
;

boundaryField
{
    flow
    {
        type            calculated;
        value           nonuniform List<scalar> 
48
(
1.562655125e+20
1.58848184e+20
1.650688122e+20
1.704840912e+20
1.693593794e+20
1.589870373e+20
1.581261468e+20
1.666517399e+20
1.62541682e+20
1.662212947e+20
1.659713587e+20
1.594869093e+20
1.687206542e+20
1.772462473e+20
1.706090592e+20
1.706646005e+20
1.789680283e+20
1.804259881e+20
1.804259881e+20
1.917703033e+20
1.80884204e+20
1.723724962e+20
1.71775427e+20
1.677903371e+20
1.709284218e+20
1.748163144e+20
1.757049756e+20
1.742886719e+20
1.783293031e+20
1.711922431e+20
1.688733929e+20
1.632914899e+20
1.641523804e+20
1.598201572e+20
1.548214381e+20
1.655686841e+20
1.637497058e+20
1.650826976e+20
1.682738878e+20
1.685189813e+20
1.644868284e+20
1.631298484e+20
1.703780085e+20
1.620463006e+20
1.635198787e+20
1.696536182e+20
1.594852546e+20
1.600666908e+20
)
;
    }
    obstacle
    {
        type            calculated;
        value           nonuniform 0();
    }
    frontAndBack
    {
        type            empty;
    }
    procBoundary2to0
    {
        type            processor;
        value           nonuniform List<scalar> 
31
(
1.634164579e+20
1.595146799e+20
1.604033411e+20
1.531274278e+20
1.598340425e+20
1.514195321e+20
1.46379157e+20
1.492395351e+20
1.477815754e+20
1.372426094e+20
1.414498646e+20
1.399224782e+20
1.404640061e+20
1.394781476e+20
1.400613315e+20
1.352153511e+20
1.340628686e+20
1.28453195e+20
1.331742074e+20
1.326326795e+20
1.295635003e+20
1.279404018e+20
1.278343614e+20
1.35834115e+20
1.313616071e+20
1.281008634e+20
1.347473083e+20
1.290935931e+20
1.32417336e+20
1.333974526e+20
1.333974526e+20
)
;
    }
    procBoundary2to3
    {
        type            processor;
        value           nonuniform List<scalar> 
19
(
1.283966994e+20
1.239846986e+20
1.323301112e+20
1.269459737e+20
1.269160618e+20
1.40167021e+20
1.383573529e+20
1.366822872e+20
1.395837395e+20
1.410643761e+20
1.481086213e+20
1.47974019e+20
1.504118353e+20
1.556613683e+20
1.564091673e+20
1.684038247e+20
1.654275937e+20
1.554968542e+20
1.712753642e+20
)
;
    }
}


// ************************************************************************* //
