/*--------------------------------*- C++ -*----------------------------------*\
  =========                 |
  \\      /  F ield         | OpenFOAM: The Open Source CFD Toolbox
   \\    /   O peration     | Website:  https://openfoam.org
    \\  /    A nd           | Version:  7
     \\/     M anipulation  |
\*---------------------------------------------------------------------------*/
FoamFile
{
    version     2.0;
    format      ascii;
    class       volScalarField;
    location    "0.003";
    object      linearKE;
}
// * * * * * * * * * * * * * * * * * * * * * * * * * * * * * * * * * * * * * //

dimensions      [1 -1 -2 0 0 0 0];

internalField   nonuniform List<scalar> 
546
(
7.311098434
8.665332442
9.091383713
6.159407926
13.06856819
8.668553681
9.06648881
5.45421286
7.930514854
10.41913093
2.798628262
11.42995732
5.192476614
7.574412422
9.478413771
3.581647784
7.992350033
4.817596893
9.018326267
4.647118514
4.002340822
10.99981424
8.083595534
8.014201963
8.465057309
10.09969242
7.476454271
9.015358753
8.36692941
3.584318858
5.80779217
12.57558527
5.928632892
2.534301526
12.05330445
7.970606926
7.142229686
8.683715034
5.184434568
3.924474606
7.31596323
4.297897948
3.597769418
9.712229771
3.674051524
7.88144986
6.515744615
4.049334564
9.175802326
8.099342896
9.55675039
10.86556911
12.69571938
7.611885715
5.487077666
6.448325212
9.051012798
8.022289141
8.604772152
11.32719347
3.491075664
6.734522029
11.36737267
5.705641177
6.11519786
8.790676376
9.964482465
5.958041154
7.449457036
6.395419175
10.59844504
6.02886717
8.976847397
10.17082208
10.92283052
6.369068734
11.81130628
4.462524963
9.122612131
5.109299731
8.061302901
7.473526949
8.782328385
9.696411117
2.36489449
12.29819819
7.948178774
4.97369315
8.393718417
9.105746878
9.097203692
8.252155748
6.084345516
12.23160986
3.907782688
8.48527191
7.388439941
5.418576481
5.619312987
5.338752374
4.361406656
10.72590679
6.723154448
8.560190984
12.50035875
11.2861739
3.116481412
13.37842548
9.062539623
7.343661946
9.963565719
6.720984038
12.40908253
6.695662165
5.967305868
6.313699044
9.265921573
5.611596446
9.543930575
7.81414519
10.17446238
6.81622215
8.968758887
12.03107366
1.484314716
6.265486838
7.360690914
8.262746426
4.877979808
6.307677668
4.898360817
9.196483935
11.66356787
5.662074664
8.161621652
4.252519966
7.521029273
7.816717264
10.68350733
4.133500612
5.137162525
3.97257285
9.347293683
7.999093758
8.751596061
6.596101502
6.665244001
7.613112391
7.267029668
7.901995921
7.366685886
6.166908069
5.255720051
7.084186844
7.357825646
9.611122896
11.8349041
8.222274957
9.765863339
9.321520265
6.237645275
6.076245417
4.72299383
4.579729751
10.22381328
9.131247904
12.31469939
8.169712061
11.13928242
9.764506182
8.993536945
3.777957778
8.447175472
7.858364501
10.19018368
9.605209479
7.838406312
3.561526143
8.730639156
7.386936024
4.753287717
9.513572011
3.817721864
8.766655931
10.5108538
2.320400299
6.02240582
9.156062171
8.776447079
9.885568688
7.049717186
5.673800026
7.829395576
9.512553744
4.683858991
13.22006636
10.21757386
5.051684553
11.35164943
3.369122331
5.056634025
4.600973289
8.352633269
7.211399435
5.146215755
9.067779537
14.51205774
13.98931267
5.631240274
9.29385907
6.472773198
6.190592805
6.787220575
9.839429155
6.830013127
8.275164169
14.30804942
5.636830258
7.107095433
11.4131749
4.749794229
9.82588776
7.81138596
11.61878226
6.158011514
9.784051207
3.061654126
5.87712052
8.713633769
5.794936882
6.773008888
11.82519091
8.817885792
6.335333531
7.882639909
6.870075455
5.422708966
8.070964833
6.909544731
9.745214851
4.868482681
7.580727074
8.188857979
8.536171338
4.686955204
6.233415372
7.218726252
6.601868382
7.426079015
6.940309607
6.489134123
8.869430145
6.53634214
6.523732981
6.496781478
5.699923324
8.986549302
12.06917947
12.01973661
9.761862452
5.465414291
8.402837439
9.996769369
5.870266781
5.800613717
11.09037684
5.512207972
5.323106039
5.076758729
10.47207326
7.036160547
10.55633652
8.731926668
6.118938495
5.98628011
6.588862107
7.216412561
7.055587102
10.41356599
7.881004516
4.364751939
10.54027565
12.97423131
9.4551299
11.53474961
8.262719397
5.37385558
5.990214427
8.704755505
10.08111825
7.167204787
5.973075764
8.217599534
4.532349399
5.722818934
9.507919442
9.19899016
6.885196676
8.108250647
6.736710626
6.424124426
9.906387923
6.652625873
6.019878708
10.20268068
8.51690968
5.004919234
5.682036593
5.549598658
4.985163987
9.706166164
6.982852511
5.080946927
9.178474322
5.13665542
6.994797034
6.795728795
5.714906978
11.36497203
8.911708372
6.66116487
6.424609372
10.40314761
5.105666265
8.791556506
5.295286759
11.65103713
7.80129276
4.843602932
12.11351499
9.611274802
9.337002835
7.56378394
8.761992479
10.50039824
7.372526854
10.63363411
9.916260587
6.217224035
6.751608387
1.626279807
5.273908986
10.76011605
8.784067251
10.75727351
6.813525016
6.661829135
12.14329054
8.232608165
4.694577857
6.940362013
8.22215264
7.933084144
7.639078405
5.442648126
7.323318574
3.644429758
7.430497114
6.220952592
7.685737627
8.071017147
8.032034883
7.89308503
7.527262298
8.617864867
6.122554369
5.592478725
10.87811123
7.592984755
9.07159671
6.390304884
10.46398947
6.258127675
4.12477834
6.208672866
8.480349623
7.182812918
10.26769193
10.71161881
10.21625592
15.21691671
10.31475379
6.139402456
5.265609998
12.60381592
3.428151401
5.028915375
4.281207028
9.545592059
5.440827112
3.821260958
5.599420064
8.261894392
3.906357541
6.332628219
7.177052824
3.787623128
8.597993111
11.68508817
10.00760484
7.896693773
7.047154558
8.015774466
7.709656987
8.101118644
11.80215086
11.21716743
9.997805003
6.319034703
4.898626312
9.755442665
6.796411703
9.842805309
8.865792718
9.666996631
4.33378123
4.159873259
6.472192728
2.726916451
9.122700503
6.133120552
12.65720316
11.90214607
8.325819638
10.03875615
6.195787508
9.032663106
12.21841444
5.093583156
6.313546828
9.341507694
7.729795344
7.602311085
11.36836562
6.854328539
7.382811175
10.20385224
7.970476435
13.69472917
9.209561015
9.873966728
9.631151369
7.702902617
4.842188894
4.366741361
9.365787237
10.46265592
8.74985127
11.34785605
5.756215054
8.840894097
4.466808837
6.020988868
7.925485704
11.8063093
11.79145223
5.252060051
5.809185673
11.55682299
14.2554976
12.26481823
6.810495501
5.13092452
7.2706489
5.667103568
5.158417224
8.046487734
4.459798091
6.082244216
7.912554251
4.599020967
9.815224725
7.367262945
5.305282925
13.17859523
12.42332203
6.579689861
9.708952289
8.434479933
6.388790546
5.734924907
6.698874528
8.01971738
12.83185679
6.377475171
6.43460549
8.500480251
8.47046361
3.966281468
9.176742718
4.872537724
7.085461374
9.043718945
5.325547178
7.45804986
8.250731332
7.446345777
6.737422879
10.33586756
5.50698342
6.306918949
3.410945785
6.247666472
6.509511703
7.916928507
11.2462496
8.492758263
7.349922463
1.617941878
10.92747728
3.774867752
7.356355388
6.464181051
4.812570007
5.868950183
10.92123976
4.148066367
3.621449181
6.04790147
5.078435626
7.689049791
14.08795163
7.081950489
10.2425416
9.254063908
4.314803373
9.384736819
4.394982543
7.714760106
12.10965155
7.308911032
3.181501921
8.278817264
7.964717338
4.324180544
10.44660949
9.335658037
9.939012687
7.220942499
10.58271032
7.391572193
6.132485864
8.898167029
8.114167897
6.2432499
9.279273096
)
;

boundaryField
{
    flow
    {
        type            zeroGradient;
    }
    obstacle
    {
        type            calculated;
        value           nonuniform 0();
    }
    frontAndBack
    {
        type            empty;
    }
    procBoundary2to0
    {
        type            processor;
        value           nonuniform List<scalar> 
31
(
5.25340088
11.4297803
5.39035603
4.107165385
5.753203206
7.796487114
6.293737059
7.333075431
16.31508509
7.472485183
8.180197393
7.613984824
6.431475395
10.63589185
6.824619506
4.747033904
8.127640158
10.4054074
5.681225912
12.60080255
6.283949899
9.025698387
11.27774933
5.359135131
6.044868723
2.490740045
9.769435753
11.32423568
5.473213475
8.714030703
8.714030703
)
;
    }
    procBoundary2to3
    {
        type            processor;
        value           nonuniform List<scalar> 
19
(
8.643719329
5.994117818
7.640021975
11.32104213
4.509109704
11.50687978
5.088807033
7.079628194
11.7684411
8.200787194
13.28738697
7.106076181
5.169112989
9.926710545
6.895210771
8.970303144
7.224815274
7.776479128
8.08420592
)
;
    }
}


// ************************************************************************* //
