/*--------------------------------*- C++ -*----------------------------------*\
  =========                 |
  \\      /  F ield         | OpenFOAM: The Open Source CFD Toolbox
   \\    /   O peration     | Website:  https://openfoam.org
    \\  /    A nd           | Version:  7
     \\/     M anipulation  |
\*---------------------------------------------------------------------------*/
FoamFile
{
    version     2.0;
    format      ascii;
    class       volScalarField;
    location    "0.003";
    object      linearKEMean;
}
// * * * * * * * * * * * * * * * * * * * * * * * * * * * * * * * * * * * * * //

dimensions      [1 -1 -2 0 0 0 0];

internalField   nonuniform List<scalar> 
546
(
5.922857952
7.905309099
7.946902306
7.941454968
7.960703062
7.936025773
8.011155659
8.036999309
8.052364799
7.972201134
8.026593045
7.986687435
7.8506261
7.756418854
7.760572951
7.643720418
7.620284645
7.692729552
7.761138823
7.751480763
5.930731521
8.04262046
7.893775583
7.943240668
7.968018315
7.926343686
7.868739154
7.805777262
7.786615434
7.801059972
7.876671296
7.792660129
7.809491365
7.90049702
7.876475347
7.88484072
7.910761207
7.92810591
7.858093813
7.774638694
5.876656607
7.818298943
7.804230966
7.799833686
7.819097536
7.813051646
7.755004678
7.881670142
7.861642736
7.871189341
7.798416155
7.759034163
7.780700734
7.776717605
7.747099701
7.732510467
7.721547909
7.708254318
7.781560328
7.847301402
5.887870958
7.864712045
7.753939266
7.739282549
7.728012031
7.824407088
7.877306142
7.743905682
7.775026901
7.830660795
7.81209781
7.844453336
7.799119035
7.731366346
7.802029883
7.711506531
7.743511645
7.774355388
7.8190408
7.792833186
5.895607055
7.899419161
7.885071205
7.850174581
7.816989885
7.760933234
7.667541937
7.686874578
7.644616853
7.624201946
7.612419256
7.612828336
7.666914017
7.750419669
7.751837078
7.930034861
7.952705903
7.934901094
7.846138152
7.932638793
5.948730135
8.068678453
8.04453719
7.910618882
7.953685855
7.917553879
7.890253502
7.871439474
7.907172933
8.03620499
8.075789756
7.953948823
8.017027462
7.989485209
8.027400476
8.022930416
8.000680642
7.905348184
7.876446602
7.917723314
5.883613367
7.812713775
7.788875011
7.82822304
7.856085349
7.968203332
8.004261238
8.037264167
7.987507787
7.852424824
7.850889956
7.940731222
7.888975808
7.865290583
7.754372639
7.693136368
7.742099523
7.857988918
7.855622169
7.845309294
5.854491704
7.933776203
7.973234476
7.92278334
7.933212691
7.990128468
7.96312618
7.981208131
8.027789096
8.104599741
8.078691327
7.97681813
7.941574593
7.982640991
7.992242413
8.046875679
7.981311814
7.862734738
7.795802413
7.83289953
5.868935081
7.835636986
7.795681621
7.809199957
7.841457727
7.744412463
7.808150422
7.79961984
7.759242685
7.756112958
7.730940186
7.867600008
7.904707467
7.868651005
7.911387125
7.906662434
7.932959059
7.962485352
8.003487643
8.025166149
5.922241276
7.966502868
7.918618929
7.761801467
7.794333012
7.870415004
7.873520828
7.789746572
7.863665163
7.860795927
7.924467632
7.823541034
7.870053518
7.904592703
7.964834798
7.853099487
7.879301945
7.949452281
7.98891145
7.973141195
5.873544131
7.855685296
7.81150062
7.812973272
7.858572322
7.811936492
7.836610604
7.873185669
7.799681734
7.718653831
7.784429941
7.776209307
7.769353246
7.776949421
7.805478295
7.882511854
7.819076979
7.779933836
7.771620268
7.791167832
5.91522076
7.859569982
7.876631823
7.852310179
7.864346282
7.820513713
7.722192132
7.665011667
7.666415497
7.823924535
7.818403376
7.782215812
7.812030865
7.834354466
7.759818199
7.763983665
7.862805745
7.82501306
7.723112322
7.714675045
5.911916002
7.8647606
7.806547589
7.840116642
7.782478043
7.818291086
7.948244322
8.037710828
8.040960806
8.031507716
8.001260752
7.925383349
7.897994546
7.838626967
7.81439551
7.809286883
7.881603904
7.87777217
7.825461885
7.880982096
5.884474897
7.99063787
7.940560844
7.865931143
7.830144589
7.833186591
7.729890849
7.785180578
7.681862837
7.65370911
7.76028874
7.763634466
7.870226582
7.878188456
7.860411997
7.876287553
7.849548644
7.821401523
7.84517866
7.769270847
5.902078651
7.887589557
7.87210088
7.885637418
7.913729991
7.849336841
7.831882569
7.874120833
7.873474138
7.933197847
7.857660845
7.837324902
7.804380146
7.736404054
7.706888619
7.758573393
7.758460721
7.769860146
7.79992754
7.820672536
5.874149169
7.903031621
7.771405628
7.847094659
7.832165579
7.880975
7.903567779
7.849239086
7.787679261
7.700748395
7.757641639
7.715331955
7.701456773
7.722517674
7.700067124
7.661083651
7.730963937
7.767190266
7.7308166
7.661649969
5.910687358
7.95941294
7.899231831
7.864811433
7.848599294
7.81267014
7.816387276
7.859165724
7.84878876
7.94539232
7.912001484
7.938933183
7.946530395
7.975089076
8.001010784
7.886219437
7.899199713
7.916330674
7.955061364
7.958293934
5.803317143
7.878053956
7.820616491
7.778444021
7.810283899
7.79220114
7.808266859
7.838825938
7.86933026
7.842480493
7.916580624
7.890781818
7.951031809
7.861547063
7.938480245
7.88874779
7.893308978
7.842480123
7.793258814
7.77065979
7.736706768
7.717218611
7.760621499
7.767879883
7.839989461
7.897467229
7.794709371
7.757884404
7.654229092
7.670269019
7.691347166
7.786484683
7.816245339
7.804828545
7.818407288
7.873353867
7.779291855
7.868508252
7.907592815
7.906187375
7.975460179
7.961960422
7.922458903
8.001856609
7.798892406
7.777602627
7.893361445
7.848621909
7.807249052
7.822960302
7.796489013
7.765974566
7.755016089
7.725079358
7.807931427
7.812363762
7.805733805
7.792319958
7.878850663
7.851009328
7.841588354
7.717195717
7.809163106
7.817269608
7.902459904
7.991789428
7.816435113
7.759075604
7.726090755
7.761286372
7.802262944
7.944979748
7.936399266
7.879384702
7.860327556
7.703786294
7.976847486
8.048129756
8.00364829
7.966091724
7.941022105
7.863788379
7.886720022
7.894305969
7.863102124
7.915940945
7.811834827
7.769368278
7.865295797
7.797659032
7.829191001
7.845988823
7.893237412
7.883490531
7.949813978
7.971932671
7.741482345
7.763713543
7.81597858
7.889208699
7.921385983
7.952736521
7.917986173
7.936738787
7.950325441
7.870725109
8.122787319
8.041806851
8.074789289
7.994552888
7.965254777
7.954876648
7.836167351
7.897525045
7.914217474
7.928632509
7.987310372
7.955809638
7.969950561
8.030002311
7.935940583
7.953921443
8.017171896
7.978283824
7.862464253
7.833222533
7.858751097
7.794895919
7.746708982
7.746786658
7.776848866
7.760458425
7.749059773
7.706938831
7.725783949
7.787248943
7.651907493
7.695466298
7.717034038
7.653687673
7.65692742
7.632601687
7.656726039
7.689050927
7.768547077
7.756632297
7.840563902
7.833865101
7.80442253
7.922099141
7.903323214
8.003952993
7.948543667
7.924736074
7.952171555
7.969368894
7.787783021
7.81148274
7.919692786
7.888385789
7.948756265
7.89706936
7.900814603
7.869359373
7.786840348
7.739219253
7.930707372
7.885636419
7.815425312
7.842548078
7.84311017
7.863217701
7.870439811
7.951105135
7.962717639
7.973809108
7.638692776
7.688594969
7.808401529
7.82687662
7.816811271
7.763728043
7.764763453
7.731972882
7.714782795
7.822634571
7.966343711
7.883208412
7.855151242
7.888373352
7.835800493
7.898933615
7.896198022
7.91589441
7.974735769
7.971941497
7.748571124
7.763766236
7.670013672
7.666738813
7.677887979
7.710553096
7.692507807
7.694728977
7.684603938
7.658173616
)
;

boundaryField
{
    flow
    {
        type            calculated;
        value           nonuniform List<scalar> 
48
(
5.922857952
5.930731521
5.876656607
5.887870958
5.895607055
5.948730135
5.883613367
5.854491704
5.868935081
5.922241276
5.873544131
5.91522076
5.911916002
5.884474897
5.902078651
5.874149169
5.910687358
5.803317143
5.803317143
7.878053956
7.820616491
7.778444021
7.810283899
7.79220114
7.808266859
7.838825938
7.86933026
7.842480493
7.916580624
7.890781818
7.951031809
7.861547063
7.938480245
7.88874779
7.893308978
7.842480123
7.793258814
7.77065979
7.748571124
7.763766236
7.670013672
7.666738813
7.677887979
7.710553096
7.692507807
7.694728977
7.684603938
7.658173616
)
;
    }
    obstacle
    {
        type            calculated;
        value           nonuniform 0();
    }
    frontAndBack
    {
        type            empty;
    }
    procBoundary2to0
    {
        type            processor;
        value           nonuniform List<scalar> 
31
(
5.913147514
7.95103708
7.851654795
7.778207962
7.770566181
7.868080476
7.842394401
7.840786551
7.836459275
7.855044825
7.831557017
7.859972429
7.871722607
7.880676954
7.932401492
7.935430387
8.015179916
7.962983014
7.862088245
7.808557196
7.896866559
7.771495154
7.765202739
7.674901834
7.638374226
7.683699617
7.795495674
7.758637734
7.789776862
7.748712378
7.748712378
)
;
    }
    procBoundary2to3
    {
        type            processor;
        value           nonuniform List<scalar> 
19
(
7.888630302
7.907929157
7.791161023
7.807746138
8.104862671
7.850201529
7.779042898
8.122503232
7.788197282
7.918609376
7.799433075
7.827421237
7.820179036
7.984355045
7.785115636
7.918458332
7.775842242
7.954434891
7.68502346
)
;
    }
}


// ************************************************************************* //
