/*--------------------------------*- C++ -*----------------------------------*\
  =========                 |
  \\      /  F ield         | OpenFOAM: The Open Source CFD Toolbox
   \\    /   O peration     | Website:  https://openfoam.org
    \\  /    A nd           | Version:  7
     \\/     M anipulation  |
\*---------------------------------------------------------------------------*/
FoamFile
{
    version     2.0;
    format      ascii;
    class       volVectorField;
    location    "0.003";
    object      momentum;
}
// * * * * * * * * * * * * * * * * * * * * * * * * * * * * * * * * * * * * * //

dimensions      [1 -2 -1 0 0 0 0];

internalField   nonuniform List<vector> 
546
(
(-3.273878922e-05 -0.0001308250177 -6.595988364e-05)
(0.0005851263228 -3.811971871e-05 0.001095838586)
(-0.0002868936017 -0.00115210528 -0.0007996809082)
(0.0001838905374 -0.0003282579363 -0.0001782865401)
(0.0003100057501 0.0001306284056 -0.0001682426054)
(-0.0008628743462 -0.0005602760105 0.0002159710819)
(0.0005945516043 0.0005010072521 -0.0003976536806)
(-6.816409709e-05 -0.0006585358074 0.0001131871654)
(0.0005697603653 -0.0002122025822 -0.00018178114)
(-0.0001323627175 -0.0008133035415 -0.0003054615722)
(-9.3582592e-05 5.127232762e-05 -0.0003091401935)
(-7.85559568e-05 -0.0002862154844 0.0004859119521)
(-0.0004100662255 0.0003015351769 0.0005766987612)
(-0.001067663749 0.0001246932347 -0.0007970162195)
(-0.0004015848095 8.350658763e-05 0.000287664033)
(-0.0003078447461 -0.0004334363474 -0.0003652111485)
(-0.0008150605658 -0.0009205801574 0.0001477319323)
(-0.0004509488302 -6.38186637e-05 -0.0001720398438)
(0.000910845547 -1.36528081e-05 -0.0005229138593)
(6.443839555e-05 0.0002094731881 0.00104519358)
(0.0001690290906 -0.0002122592277 -0.0003934653459)
(0.0001268572433 0.0004500140134 -7.036357971e-05)
(0.0001030349623 0.0007404818039 0.0004780398335)
(0.0005293259733 0.0004246356742 0.000383090771)
(0.0005105943998 -6.211168066e-05 -0.0002651030476)
(-0.0006489010759 0.0002940882195 0.0001101501068)
(0.0005897048503 0.0002765793836 -0.0005475282824)
(-0.0004970668566 -0.0005603930751 7.23942771e-05)
(-0.0003047651649 0.0004838062103 0.0003674011153)
(-0.000895157854 -0.00034907397 -0.0007375707942)
(-0.0006268074811 0.0002225272509 4.930701505e-05)
(-6.032085197e-05 -0.0007359843426 0.0005582802323)
(0.0007784468477 -0.0001129019299 -0.0001364533363)
(0.000494896254 -0.0002932967322 -0.0009218678778)
(-0.0001292759848 -0.0002614643238 -0.0006016250311)
(-0.000690469467 0.0004486421382 0.0003232223152)
(-0.000607945582 0.0001577695164 -0.0001654829915)
(-0.0003482026987 -0.0001419233219 2.970805689e-05)
(0.0001606363693 0.0006140870215 -0.0001831028127)
(-0.0004828798891 -0.0009967308731 -0.001179059082)
(0.0001240461149 1.366926017e-05 0.0008685220982)
(0.0007728572428 -1.202084916e-05 0.0002137747141)
(0.001382220944 -0.0005842437291 0.0001375583971)
(0.0001814227639 -9.696838608e-06 0.0002176066249)
(0.0001530442603 0.0002932637432 0.0004544673532)
(-2.348764873e-05 0.0002646494996 -0.0001604134289)
(-4.502093965e-05 0.0001851051139 -0.0001150929591)
(0.0001898867544 -0.0002520303246 -0.0002127426257)
(-2.234053827e-05 0.0001892769422 -0.0003451883666)
(-0.0007202496635 -0.0003858275528 -0.0008291693789)
(0.0004968771213 -4.845080306e-05 -0.0006508702284)
(-0.0003209971959 0.0004639113249 0.0002363598162)
(0.0001292703723 0.0002404896863 -0.0001800448347)
(0.0002318978568 1.269849725e-05 -2.093596318e-05)
(-3.221472165e-05 -0.0002680120524 -0.0007920852639)
(-4.976982324e-06 -0.0003071841965 0.0001062848807)
(-0.0002739041725 0.0001528684342 -0.0007720194335)
(-0.000258174182 0.0007158534512 0.0008165666542)
(-0.0001071794809 -0.0008133665866 0.0007765174443)
(0.0005328829355 0.0006865144481 0.000229972374)
(0.0001977870561 0.0001860886306 0.0002239316516)
(0.00020379793 0.0001568265913 -0.001043550679)
(-8.576034911e-05 0.0004692155552 0.0003408912145)
(-0.000459474038 9.30224258e-05 0.0005638742608)
(1.345237918e-05 0.0001064439109 5.184383195e-05)
(-0.0009172319981 -0.0001666997261 7.154505525e-05)
(0.0004726709582 -0.0002574592182 -0.0004096979371)
(-0.0004928165874 2.858704224e-05 0.0001843378884)
(0.000864054437 0.0005958144153 0.000220862916)
(0.0001951186386 0.0001745606679 1.371893066e-05)
(-0.001227022389 0.0006542344244 -0.0003775125427)
(-0.0005234568285 -0.001048276115 4.952232143e-05)
(-0.0008793512256 -0.0002495957578 0.0004463471892)
(0.0005048048432 -0.000474700862 3.932780631e-05)
(-0.0001428133789 0.001196141176 0.0001401972777)
(-0.0004527917735 0.0007843329945 0.001046576171)
(-1.626298771e-05 0.0003351097566 -0.0004472186899)
(0.0002545926102 -4.145533859e-05 0.0004490519256)
(-0.0009969553244 -0.0005396771173 6.044640782e-06)
(0.0003663952532 -0.0001871469108 -0.0009142395089)
(-3.268664774e-05 -0.0001403193324 -0.0003531669831)
(-0.000465750917 0.0001570656199 0.000423644328)
(4.167345892e-05 -0.0001112660729 0.0004349428336)
(-9.266290901e-05 6.348340942e-05 -4.831534471e-05)
(0.0003622334294 -0.000376023815 -0.0009633122793)
(0.0003135788016 -0.0003131184674 -0.0001888573182)
(8.66229608e-05 0.0002112540809 -2.062131523e-05)
(-0.0001329117839 -0.000234087666 -0.0004312218159)
(7.878684676e-05 0.0001988001295 -6.65941125e-05)
(-0.0004430092823 -0.0002703269949 0.0002839698543)
(-0.0001254682494 8.549656322e-05 0.0008107836267)
(0.001000673446 -0.0007122990226 0.0003135564583)
(-1.412230321e-05 -5.786786146e-05 0.0001811604488)
(-9.236657564e-05 0.0007911523866 0.0002635376309)
(0.000463474773 3.01104941e-05 0.0004114039136)
(-1.475070686e-05 -3.218951913e-05 -5.057760338e-05)
(-1.682773845e-05 -0.0009812206014 -0.001151549695)
(-0.0002630933822 -0.0003349597044 0.0002885256586)
(-0.0001891464375 -0.000303262451 -0.0001840084439)
(-0.000298424672 0.0004719587758 -0.0006025661308)
(0.0004158760033 -1.611251213e-05 3.899061898e-05)
(-0.0005109325968 9.861075334e-05 -0.0002986464599)
(-0.0006362550974 0.0002032699484 -0.0007883351721)
(-0.0001159910451 0.0007775332436 -0.0002948372103)
(-0.0002675482864 -0.0001188932122 -8.327900866e-05)
(0.0005404027084 2.749784202e-05 -0.000397696334)
(-0.0001957830756 -2.950860141e-05 -0.00102472792)
(8.607143343e-06 -0.0006693527568 -0.0007704449538)
(0.0007213939763 8.489856464e-05 -0.0006070552087)
(0.0006141958234 -9.490296531e-05 -3.158094904e-05)
(-4.580787763e-06 -0.0009131412889 -0.000382883305)
(0.0005473790631 -0.00109270291 -0.0006601280508)
(-0.0003980291865 0.0003124529739 -0.0001523996164)
(-3.747361028e-05 -0.0002892492466 -0.0001174919555)
(-0.0006255565918 -0.0003419637736 0.0005839514079)
(-0.0008492756147 -0.0002129226609 -0.0003409401163)
(0.0002119448424 -0.000244594982 0.0006645134445)
(0.0001677763999 -0.0003039107213 -0.000623615681)
(0.000472671452 -0.00038897893 0.0007160843678)
(0.0001317224367 -0.0001787211222 -0.0003771559885)
(-0.0001485107851 0.0004286142006 0.0006252306605)
(0.0005108580072 0.0003010908614 -0.0001824888218)
(0.0006606261196 0.0003508149038 0.0003084152846)
(-9.350989513e-05 0.0006763867918 0.0001686725676)
(-0.0002430477067 0.0004375980965 0.0004284424881)
(0.0001543272134 3.174138545e-05 0.0002014394412)
(-0.0007574493303 -0.000163823263 -3.367815261e-05)
(0.0006472402111 0.0008244738651 -0.0002366189115)
(0.001188747656 -0.0001986974055 0.0008326796885)
(-0.0003983189845 -9.707562532e-05 -0.0007255915015)
(7.213807678e-05 0.0007194547721 -0.000178055382)
(-0.000587622016 -7.573804195e-05 -0.0002297398874)
(0.0003286669319 -0.0004427443032 0.0002343527734)
(0.0003438131846 -0.0003854220921 0.0003535414553)
(4.380178563e-05 0.000194905674 -0.0006236923243)
(-0.0007544516835 0.0002613903292 0.0005882958049)
(0.0002535708408 -0.000236299851 -0.0001327810181)
(9.17408301e-06 -0.0002027028858 -0.0004289467211)
(0.0001827260319 -8.531577073e-05 0.0003266027498)
(-0.000409882531 -0.0002411113156 0.0001540981208)
(0.0001306522912 0.001013453913 0.0007631345271)
(-0.0001765028204 -0.0002403542386 0.0004089296055)
(-0.0001884809573 2.692154428e-05 -4.021132953e-05)
(0.0008417808024 -3.106409816e-05 0.0008447477637)
(0.0006869075731 -0.0001516956185 -0.0002947639048)
(7.084063587e-05 -0.0001005823523 0.0003284943959)
(0.0003643514197 -0.0002537341644 0.0001101284067)
(0.0003132232002 -0.0004941327532 -0.0001486225489)
(-0.0004375961309 0.000156529501 -0.0001540338464)
(-2.060988343e-05 0.0003181456865 0.0001146497718)
(0.0002159434784 0.0004640724684 0.0002221180057)
(0.0003394909429 0.0009043044053 7.251178655e-05)
(-0.0003510335716 0.0002747242879 -2.117080125e-05)
(-0.00025662165 -0.0003459536097 -0.0002056177623)
(-0.0005257596685 -2.95729222e-05 0.0004465072111)
(-0.0001846388909 -0.0003982160886 -0.0006264672876)
(-0.0001700027376 -0.000153211612 0.000440597711)
(0.0004215694156 -2.487186172e-06 0.0002399777125)
(0.0007951534938 0.000749660518 0.0002532341116)
(-0.0008546255233 -8.260267186e-05 -0.0006826413513)
(0.0004938255654 0.0003025416038 0.0004774192465)
(-0.0001859984786 -8.502188079e-05 -9.651673017e-05)
(0.000357092734 0.0003151162918 -0.0001087913249)
(0.0001540487652 1.719921231e-05 0.0007703919233)
(-0.0006252762449 2.17244207e-05 -0.0002227388029)
(-0.000748157232 -0.0001987594852 0.0001255519415)
(0.0003920134795 -0.0009160419149 0.0003483504382)
(-0.0008438063408 4.098803852e-05 -7.548711711e-05)
(0.000423056257 -2.976378619e-05 0.0005000032904)
(0.0008955955099 -1.942453972e-05 -0.0005806818061)
(0.0002272224436 0.0001103682414 -0.0002766082195)
(0.0008868039807 0.0003000796084 9.285205918e-05)
(0.0003988884747 0.0001878846375 0.0006715602896)
(0.0003886151063 -0.0001407899849 -0.0002185774223)
(0.0001810939826 0.0005941526688 0.0002565124487)
(-0.0004580333915 6.053225412e-05 0.0004377068115)
(-0.0004554910254 0.0004174462377 0.000807302138)
(-5.368546202e-05 0.000195008219 -0.0005109813938)
(-0.0001091134219 7.54176055e-05 -0.0006332572073)
(-0.0001843799622 -0.000268609288 7.236342079e-06)
(-0.0003705920177 0.0001321518124 0.0002105447721)
(-0.0005376302844 -0.0007929111657 0.0003243792782)
(-0.0006892602361 0.0005035200548 -9.025785637e-05)
(0.0001725219135 0.0002123313608 0.0001635204907)
(0.0003659134129 -4.694976805e-05 0.0001971582913)
(-0.0007990831959 4.803433781e-05 6.316143098e-05)
(-0.0004433066038 -0.0005622300295 -2.557278147e-05)
(-0.0006769214098 0.0002789068896 0.0005733748274)
(4.588400355e-05 0.0004365367233 0.0003622807309)
(-0.0005243353372 -0.000171951349 0.0002045488353)
(0.0004513023845 0.0003331263089 0.0003539301459)
(-1.644258434e-06 0.0003865637043 -5.369181324e-05)
(-6.168299877e-05 -0.0001358733089 -0.0001679025092)
(-0.001007716812 -0.0001884857868 -6.327495726e-05)
(-0.0007251461656 0.0002621784459 0.0006922847106)
(0.0003689401987 0.0001168174775 0.001651611895)
(0.0001989324261 0.0002066726748 -0.0001704918089)
(0.0003616486991 -0.0003066518063 5.755095822e-05)
(-0.0003593751139 0.001074811818 -7.681660013e-05)
(0.0003937174036 -7.719317784e-05 0.001189042487)
(0.0006494032235 0.001061394151 -0.0004298149253)
(-0.0004145223111 -3.109176921e-05 -0.0001908163211)
(0.0002331976523 0.0002265559062 0.0005555267114)
(0.000388943221 -1.157048462e-05 -0.0002080770484)
(5.000560529e-05 -0.0004649701474 -0.0005518273303)
(0.0002916500917 1.368714434e-05 -0.0003425088312)
(-0.0002390998414 0.0004127570846 0.0003637796923)
(0.0002464370312 0.0009672718576 0.0004531499742)
(0.0001210198101 -0.0001399076996 -4.953139402e-05)
(-4.264271316e-05 0.0002795462942 -0.0002759873361)
(0.0001061066713 0.00035712385 0.0006655478394)
(0.0001547155511 0.0003099697738 3.902772476e-05)
(-0.0004884376408 -0.0006247066332 -7.281232002e-05)
(6.650919372e-05 0.0001033260141 -0.0001463052906)
(-7.466765211e-06 -0.0003102304369 8.17704844e-05)
(4.987071415e-05 0.000967817528 -0.0002448008613)
(-3.396335457e-05 0.0006049196406 -2.574778387e-05)
(-0.00107359132 -0.0003359129703 -2.104023909e-05)
(9.786416829e-05 0.000198220473 -0.0003244108327)
(-0.0001696287199 7.577131639e-05 -0.0001305132202)
(0.0002828145312 0.0007760805985 0.0005660754259)
(-6.309974424e-05 0.0003759332842 0.0007354359669)
(-0.0005217689493 0.0002001451504 -0.0003334914565)
(0.0005436726815 -4.836693392e-06 0.0001758445872)
(-0.0004194912507 7.022084964e-05 -0.000857076796)
(0.0003037362384 -0.0008434681107 0.0004401016788)
(0.0001465433776 1.727360805e-05 -4.569673701e-05)
(-4.924239671e-05 -0.0001547037614 -0.0002173275729)
(0.0001903552407 -0.001154342145 -0.0004536822377)
(-0.0002457845336 -0.0004995489079 -0.0003087445312)
(-0.0001208252937 -0.0002072424218 -0.0002454060983)
(0.0005317115807 0.000598471651 0.0004610676479)
(-0.0001481636834 -0.0006001104306 -0.0001787801228)
(0.0002986910764 0.0001742549192 -0.0003550899638)
(0.001365632018 -0.0006208254987 -7.158432546e-05)
(-0.0001924896367 0.0002014029657 -0.0001666196701)
(-0.0004038819776 5.054035452e-05 -0.0009508023321)
(-0.0005557044965 3.792608169e-05 0.0005996228238)
(-0.0003765048785 0.0004005853875 -1.906691872e-05)
(-0.0001905099917 0.0002114246515 0.0001285234059)
(0.0004281660082 0.0002039203637 0.0002453694999)
(-0.0002796267123 0.0004684007707 -0.0008907969653)
(-0.0002567530974 0.0007484164493 -6.575882449e-05)
(0.0002489095341 -0.0003648646459 0.0002683173226)
(-0.0001832270967 -0.000810073133 0.0001893023745)
(-0.0003016681681 8.880115676e-05 0.0001239592621)
(0.0003957475982 1.790007365e-05 -0.0001599525033)
(0.0003045361713 1.914700024e-08 -0.0003331658565)
(-0.0005838274757 0.0001886104508 -0.0001504565834)
(-0.0003198198637 7.929593975e-05 1.831153156e-05)
(0.0009774142004 0.000118180502 0.0002891019307)
(0.0006360736337 -0.0006225260454 0.0004571381641)
(-0.0004558639182 -0.0001514638805 -0.0003387505388)
(-0.0004185335154 -0.000237252576 0.001157076036)
(-6.729349294e-05 2.738274393e-05 -0.0002002131762)
(-0.0001094232892 0.0001579486362 -8.529620993e-05)
(-2.482413856e-05 -0.000264211092 4.729631242e-05)
(-0.0007064744865 0.0007409641272 0.0004541719086)
(0.0004567100941 -0.0003250402473 -0.0005122733832)
(0.0002160353277 0.0004078531152 0.0003694246756)
(4.140531128e-05 -6.251573253e-05 -0.0001097653339)
(0.0002066619605 -4.623710812e-05 -0.0001565131498)
(1.689794126e-05 -0.0003591924388 -0.0004921584273)
(0.0004347596549 -8.785526656e-05 -0.000257501631)
(0.001065432403 -0.0005093858153 -6.419154693e-05)
(0.0004107035455 -0.0004088974271 -0.0001451423625)
(4.519119649e-05 1.850901726e-05 -0.0002492915038)
(0.0004597396452 0.0001037419364 0.0006320019324)
(-9.409685621e-05 3.218344378e-05 0.0001035549568)
(-0.0003993711443 -0.0004697640295 -6.590553226e-05)
(-0.0002773259896 -0.0001465595688 6.896629183e-05)
(0.0008193261133 0.0002182477931 -7.634718265e-05)
(0.001554493039 -0.0001219351504 -0.001325921393)
(0.0004214683353 4.993287892e-05 -0.0004654856794)
(-0.001218213543 -0.0004295602248 0.0005674004505)
(-0.000209730889 -0.0004474479673 0.0003951471269)
(0.0004778234215 0.0004523241911 0.0006061089843)
(0.0002275769885 -0.0001548493473 -0.0003320191454)
(4.819025413e-05 3.646159323e-06 1.409348825e-05)
(0.0003559102927 -0.0001954853064 2.428317001e-05)
(0.0004487947929 0.000313183489 -6.169524941e-05)
(0.0005976023694 -0.0008916596711 0.0002801928316)
(0.0005590505152 -8.123534795e-05 -0.0001071836529)
(-0.0003280081458 2.63911864e-05 -0.0001849048956)
(0.0002516211414 0.0005234274243 -0.0009883393126)
(1.350033714e-05 0.0002169498319 -0.0004707311686)
(5.119294347e-05 0.000879919084 -0.001150746433)
(-0.0008075912914 4.723439588e-05 -0.0006213305198)
(-9.423268221e-06 1.493735035e-05 0.0001971059268)
(-0.0006346991187 0.0004610630324 0.0001363724883)
(0.0003362154011 -3.5844885e-05 -0.0004867419591)
(0.0002898942528 0.0001290908682 0.0001534909512)
(0.000190367901 -8.851289555e-05 -0.0001433273489)
(-2.621905006e-05 -0.0003490711811 0.0007710849757)
(-0.0003239973007 0.000335300229 0.0002808282352)
(-0.0005572489305 -0.001125395589 -0.0002350846389)
(-0.0002140740564 7.048185981e-05 0.0001130758226)
(-0.0004916926785 0.0001023586612 -0.0006193483984)
(0.000400183004 0.000151122123 -0.0002444506228)
(-5.660580167e-05 7.930540402e-06 -0.0006342989183)
(0.0002250052747 -9.253249914e-05 -5.374553182e-05)
(-0.0004236389554 0.0001960390557 3.05599168e-05)
(3.446942016e-05 -0.0003244409795 -6.485030194e-05)
(-0.0001101192545 -0.0001021054449 -6.719003941e-06)
(-0.000355894536 -0.0002678257673 0.0002096215164)
(-7.872133007e-06 -0.0002671363091 -0.0002995413891)
(-8.695420081e-05 1.801506443e-06 0.0002751195941)
(-3.697822934e-05 -0.0001907256338 6.508714032e-06)
(1.437732189e-05 0.0004162722855 -0.0001256958404)
(0.0001603266305 4.857910107e-05 -0.0003596184337)
(0.0002646850302 0.0008460498214 -0.0007146733038)
(-0.0001900490204 0.000172284409 0.0002488333818)
(-0.0004159956551 -0.0004587371019 -0.0001820094688)
(-0.0001143134696 0.000229201781 -0.0004590392361)
(3.607314016e-05 -0.0006563764807 -0.0001537968842)
(-0.0002624860531 -5.363225236e-05 -0.0001194577953)
(0.0003340709981 -0.0003249384948 0.0007663621161)
(3.586186107e-05 0.0003941697616 -0.0001020567512)
(0.0002966838643 2.462445175e-05 -0.0004689959731)
(0.0002352813414 -0.0003022266869 0.0005387424015)
(-0.0002873658176 0.0001658597611 0.000729112466)
(0.0003751839421 0.0005083287844 -0.0001746439832)
(-1.262903224e-05 -3.092997239e-05 -0.000211947822)
(0.000430164809 3.788815218e-05 -0.0003394326233)
(-0.0005033209963 0.0008175512356 -7.816428514e-05)
(-0.0002755322271 -0.0002284760912 -0.0005313320094)
(-0.001023993839 -0.0006450181341 0.0006737576713)
(0.0003264641203 5.896705359e-05 -4.737813444e-05)
(-0.000341853317 -0.0002339419888 0.0003203025368)
(2.343476318e-05 0.0003890891397 4.835773478e-05)
(-0.0002519623996 0.0005163229414 0.0003228623918)
(-0.0007775571373 0.0001028771048 -0.0005011549053)
(-0.0002008088909 -9.153101666e-05 0.0009009852527)
(4.371987651e-05 -0.000123369915 2.417672957e-05)
(9.806049561e-05 -0.0001988194173 1.778436386e-05)
(-3.475855244e-05 -0.0001961656776 -0.0007463934612)
(0.0004356403848 0.0002873518924 -0.000264129307)
(0.0007145761131 -0.0005200655868 0.0003790204934)
(0.0005589738429 -0.000277564728 0.001434228351)
(7.241133926e-05 0.0001026208973 -0.0006021046467)
(0.0002087772786 -0.0004772591461 0.0004915305945)
(0.0002551000641 1.798473327e-06 -0.0003956117029)
(0.0001149442636 -0.0005184706022 -9.974502615e-06)
(0.0004731209796 -0.0001375704129 -0.0003376478218)
(0.0004368760622 0.0002867171136 -0.0009712601616)
(-4.046437804e-05 -0.0001573567965 0.0003730314104)
(0.0002761557148 0.0001026856139 -0.000102719192)
(0.0001485666325 0.0006632796911 7.412596664e-05)
(-4.904671035e-05 0.0005483929467 3.921024109e-05)
(0.0002423967782 -0.0003340680851 0.0003969451571)
(0.0006840323744 0.0001483694214 0.0001768327342)
(4.200375928e-05 -0.0005996859671 0.0003591709756)
(0.0002901342605 -0.0002268200742 -0.0001147917887)
(-0.0003874221922 -8.328887081e-05 -2.091015332e-05)
(-0.0008873933954 -2.487651485e-05 0.0001139777676)
(0.00023544015 3.441954907e-05 0.0008902901027)
(0.0004345262976 -0.0005354202519 0.0004078505957)
(-0.0008896957423 0.0003513734604 -0.0001551072925)
(0.0004391740504 0.0002607432317 -0.0002226132822)
(0.0002052180298 -3.584739885e-06 0.0001770460104)
(-2.765501342e-05 -0.0009162258142 0.0003797280056)
(-0.0004318850337 0.0006607923831 0.0001087367495)
(-0.0003467053162 0.0003585591583 0.0004545594306)
(0.0001548322191 -9.506641281e-05 0.0002301562174)
(-0.0006250813182 -0.0003430430905 0.001005464269)
(-0.0005296974709 -0.001373531755 1.483293516e-05)
(0.0004711681212 0.000478817917 -0.0005046843688)
(0.0001431528234 -0.0004113163485 0.0001821926642)
(0.001444430079 0.002062010193 0.001168237662)
(0.000676926792 -0.0002051296028 0.0001140482481)
(-0.0001990628806 0.0007144083212 0.0004258564027)
(6.466482254e-05 0.0002856111511 -0.000451528463)
(-7.705030578e-05 0.0005744642416 -0.0004386550872)
(-0.0004786751696 0.0002057691835 2.201071566e-05)
(-0.0003788090018 0.000718246966 -5.997645061e-05)
(-0.0004332789493 -0.0008034499776 -0.0001068310174)
(-0.0004742821607 -9.46733614e-05 0.0003349797761)
(0.0002677723899 6.169921438e-05 0.000324997086)
(0.0002049225778 -0.0001399407571 -0.000110677049)
(0.0004926337805 -2.203648292e-05 -0.0003792234778)
(-0.0001017460438 0.0002033939931 0.0001802918973)
(0.0001207015974 5.766993877e-05 2.183489362e-05)
(0.0006409682405 -0.0001888342503 0.0001840667021)
(0.0001278018434 0.0005214593206 -0.0002877168994)
(0.002100379386 -0.0005425330278 -0.0003074753145)
(-0.0005213513795 0.0004223170167 0.0002885799866)
(0.0003018451 0.0004733559676 0.0004431001103)
(-0.0001279466871 -0.0001423976224 -8.500762098e-05)
(-0.0001153720115 0.000432748667 -0.0001704151144)
(0.0002892278411 0.0005824575688 -0.0007749551565)
(-0.0003256120751 -0.0006889127352 1.208936431e-05)
(-0.000327823132 -4.524214677e-05 0.0006548258536)
(-0.000253490428 -0.0001980337671 -0.0003827780415)
(0.0001010612298 0.0005946935658 -0.0006147172995)
(-0.0002034214742 -0.0001627254956 0.0001619542977)
(0.0007457730476 -2.573167053e-05 0.0007626790107)
(0.000544217843 0.0005046085047 -0.0009801535167)
(-0.0004995566547 -0.0006106721706 -0.0001759613199)
(0.0005489941657 -0.0007231692474 -0.0001909280637)
(0.0005281828339 -8.845199225e-05 0.0005713729525)
(-0.0007892926858 -0.0003827977034 -0.0004416603622)
(0.000483457823 -0.0003012151967 -0.0007643443935)
(0.0003550181782 -7.631356338e-05 0.000352763491)
(-0.0006147700813 0.0003447936568 -0.0003406107223)
(-0.0001581231763 0.0001249591376 0.0001048051564)
(1.083706852e-05 -0.0001939878923 -0.0007118013603)
(0.0002629971471 -0.0002994193967 0.0006433239331)
(9.583304248e-05 -0.0002294448527 0.0005954691423)
(0.0002785034826 -0.0004551298698 -0.0006535483836)
(-0.0001956374087 0.0005069679884 -0.0008028514453)
(-0.0007558548046 -0.0005650475162 -0.0005133716552)
(-0.0006551305803 0.0001505524149 -0.0001755529669)
(-0.0001859756258 -7.297520893e-05 0.0005661889222)
(-9.503779643e-05 0.000435072177 0.0007595980908)
(0.0001636997494 1.20485257e-05 0.0007630610394)
(0.001231728383 7.422626691e-05 6.277950844e-05)
(0.0001086230208 0.0003643806138 0.0002684796196)
(0.0005717052768 -0.0002847851399 3.608031188e-05)
(0.0001453283504 3.785211081e-05 7.630059181e-05)
(0.0002851928195 -0.0003960362987 -0.0003928545472)
(0.0002021611922 0.0002423575066 -0.0001657137277)
(0.0002946596733 -0.0004515025529 8.266274685e-05)
(-3.322267269e-05 0.0002391980524 -0.0001153512154)
(0.0001603096506 -0.001454405947 -0.0001915918895)
(0.0002222617913 0.0007321450598 0.000896700432)
(-0.0001536982855 -0.0001393116648 -0.0008368365117)
(0.0006094841701 -0.0004806849616 -0.0003959770021)
(-0.0005018250858 3.966436495e-06 0.0002971483011)
(-0.0002598549546 -8.671330312e-05 -0.0003813188168)
(-0.0001088635461 -0.0002332086448 0.0002218019345)
(0.000534474671 -7.655807697e-05 -0.000762179705)
(-4.776475095e-05 -0.000112935238 -5.967324499e-05)
(0.0004794023595 0.0002847646868 0.0004658297279)
(0.0002691093341 -0.001081701036 -5.558197523e-05)
(-0.0005119423548 -0.0002790793937 0.0004135412255)
(0.0005852546123 -6.366214139e-05 5.629592136e-05)
(0.0005438696521 7.274727343e-05 -0.0005054428988)
(0.0003681175573 -7.342654249e-05 -5.852664201e-05)
(0.0001134526248 6.214051305e-05 8.66118925e-05)
(-0.0007817479028 -0.0004477093534 -0.0004513415868)
(-0.000876258452 0.0002055822755 0.001004421152)
(-0.0002159767046 4.334527069e-05 1.390650017e-05)
(-1.886978944e-05 -0.000390276537 0.0008261772005)
(0.0001702589537 0.0001039283828 0.0001180617229)
(0.0002376091811 0.001036041769 6.766292637e-05)
(0.0005883907539 7.10514979e-05 0.0008447012448)
(-0.0002841457026 0.0001769764069 -8.886107281e-05)
(6.175667255e-05 -1.533985234e-06 -0.000176510543)
(0.0001413585218 -0.0003232338128 -0.000378766861)
(0.0003765558943 -0.0009410063405 8.4405222e-06)
(-0.0004276224475 -0.0001436397537 -0.0002769877653)
(0.0001999421078 -0.0002092169673 0.0001950191127)
(0.0004665893384 0.0004785439913 -0.0003427851379)
(-0.0003573967489 0.0002282580621 0.000303406209)
(0.0001659276029 -0.0008349746251 -0.000743642179)
(-8.260418621e-05 -0.0003238754831 0.0002006127207)
(0.0001902598955 0.0007517232542 0.0001034947099)
(0.000133423474 -7.887159721e-05 -0.0001304005303)
(0.0005294645276 -0.0002035462218 0.0001119156785)
(3.595705884e-05 0.0004498810563 -7.549145078e-05)
(-9.52065346e-05 0.001217975303 0.0005784924423)
(-0.000750456343 0.000146521277 0.0005400414899)
(0.000255915102 -0.0005168477805 0.000535289191)
(-0.0006011442643 0.0005913398255 0.0002994688923)
(-0.0001319015542 0.0004407478996 0.0001494703767)
(0.000288814199 0.0002845991012 -0.0009024498727)
(-0.0008771715682 -0.0003854129532 -6.350686597e-05)
(0.0003070435053 -0.001098174661 -0.0005979784955)
(0.0003554100555 0.0001860402212 0.0001166875538)
(2.063037339e-05 -0.0004243032648 -0.0004608837476)
(0.0004805280413 -0.0002620531805 0.0002128465979)
(-0.0007055843092 9.063378991e-05 0.000125133973)
(-0.0003738307315 -0.0003392770665 -7.38967441e-05)
(7.686743765e-06 0.0002401359812 0.0007395841557)
(0.0007876527919 -0.0003970953846 0.001061204431)
(-0.0003162352616 -0.0009622037026 -0.0003779116107)
(-0.0002197423368 0.0005861245976 -0.000476216557)
(0.000166744972 3.76083362e-05 0.0005211377173)
(0.0003132006976 0.0002070565246 -0.0001154121129)
(0.0005191117433 0.0001137982956 0.0002024987529)
(-0.0009130252228 0.0005344824841 -0.0008741085981)
(0.0004693217447 -4.48842235e-05 -0.001258214786)
(-0.001285145285 -0.0008719108234 -0.0004524620465)
(0.0001470288055 0.000668005911 -0.0002950136522)
(0.0004313184909 -0.0001478105463 0.0004047167162)
(0.0002724670525 0.0004295840808 4.354958207e-05)
(-0.000181566871 -2.575274611e-06 0.0006519333419)
(-0.000298437791 0.0003197674028 -0.0001553414985)
(-0.0008322188539 0.000321371818 -7.63979412e-05)
(-4.843773303e-05 0.0001153595404 0.0001193508133)
(-4.988122956e-05 0.0005452997787 -0.001378585326)
(-0.0002651872622 -0.0005142659869 4.399676519e-05)
(-0.0003734914393 -0.0002759499863 0.0001712075268)
(0.0006234886093 -0.0002103940084 0.0005075687402)
(-7.942208546e-05 -0.0003318663304 -0.001141826227)
(-0.0004241845542 0.0001496385139 -0.0001214104523)
(-0.0007383263982 -0.0005129039945 0.0003056890802)
(-0.0002754859904 -0.0007992184694 -0.0007552626342)
(-1.054781686e-06 0.0003875784788 -0.0006267306217)
(-0.000107932121 -0.0006120949662 -0.0002250546369)
(-0.0009151548751 -0.0004996892783 -0.0007323305028)
(0.0003411145398 -0.0002936314896 0.0002925287398)
(0.0003198295377 0.000317060828 0.0004225489743)
(0.0009446133649 0.0001522393772 -0.0006920607451)
(-0.0008580320627 0.0001926212597 0.0006603993204)
(0.0003422414372 0.0002710021353 -0.0007584095605)
(-0.0002383269606 0.00035380144 -0.0005292824411)
(0.0001252846194 5.389030656e-05 -1.915900658e-06)
(6.483141232e-05 -0.0008982506559 0.0005262389606)
(0.0007386061023 0.0006801401235 5.029905931e-05)
(0.0002006405543 0.0006749930039 -0.0006037595081)
(0.0003134458697 -0.000342609941 -0.0003513375821)
(-0.0001650871241 0.0001614751469 -5.65025952e-05)
(9.818617245e-06 -0.0001954925716 -0.0003514026429)
(1.300820202e-05 -0.001156474279 -5.713211834e-05)
(8.957742529e-05 0.0004248164947 -0.0007670428537)
(0.000179245265 -0.0004951980238 -0.0002141296563)
(-0.0002085525307 0.0001737946959 -0.0006431244723)
(0.0001844604753 -0.0003831750209 0.0003088513377)
(-0.0004467123399 0.0001400885968 0.0001029812485)
(0.0001844877247 5.311437125e-05 0.0004937356996)
(-0.0003428990997 -3.066888589e-05 0.0003855444556)
(-0.0006495693098 8.943410684e-05 0.00019529855)
(0.0004341812257 -0.0007650078868 -0.0002359290748)
(-0.000518432033 0.0003415102521 7.536677645e-05)
(0.0001459939456 -0.0005302094165 -3.401903822e-05)
(0.0006569761093 -0.0002080789526 -0.0002244416871)
(-0.000761566419 5.238628075e-05 0.0004321114001)
(-0.0004573736222 -0.0002134889217 0.0006073292984)
(-0.0001244127783 -0.0001220600021 -0.0001387529264)
(0.0001076012062 7.369493922e-05 -0.001366944401)
(0.0003975568846 -0.0005148086726 -7.521372711e-05)
(-0.0007791400145 -6.103880081e-05 9.866985917e-05)
(-0.0004942899391 0.0008608019262 0.000552463824)
(0.0003715476435 0.0008550347085 0.0005183488156)
(-0.0003446175081 0.0001843867555 0.0001917251482)
(-1.022731498e-05 0.0001902819163 -0.0005581434554)
(-0.0001746509115 0.0001069241449 -0.0003776267391)
(0.0003418697998 0.0009890021991 -0.0003502379545)
(0.0001191221638 -0.0003977544877 0.0002574932167)
(-0.0005865875771 0.0007244171183 -0.0003210230294)
(-7.779872188e-05 -0.0002699804169 -0.000170251475)
(0.0003754679984 0.001391029341 -0.000439426696)
(-0.0005292604526 -0.0003610262702 0.0003850450052)
(-0.0001861125582 -3.337666693e-05 0.0003917156895)
(0.0007428924224 0.0009212786518 -0.000558610515)
)
;

boundaryField
{
    flow
    {
        type            zeroGradient;
    }
    obstacle
    {
        type            calculated;
        value           nonuniform 0();
    }
    frontAndBack
    {
        type            empty;
    }
    procBoundary2to0
    {
        type            processor;
        value           nonuniform List<vector> 
31
(
(-0.0007847276079 -2.487266714e-05 0.0001728825836)
(6.837262668e-05 -0.0005180568553 -7.570295271e-05)
(0.0002643100145 0.0004592338198 0.0002640145513)
(0.0004756600371 -0.0003561169411 -9.61555986e-05)
(-0.0005191809941 -0.0001199190707 9.521238982e-05)
(-0.0007648384195 0.0003371751354 -0.0002793837483)
(-0.0003587984367 -0.0003261205008 -0.0003227797287)
(0.000213591512 0.0001648958988 -5.935089457e-05)
(0.0001619417395 -0.000894999838 4.353299586e-05)
(-9.429179327e-05 1.2918388e-05 0.0001107972034)
(0.0001682953111 -0.000141772018 -0.0003355571795)
(0.0005626853579 -0.0003711667182 -0.0007916560654)
(-0.0003611923689 -0.0001385129086 -7.547574502e-05)
(-0.0009977752626 4.337784359e-05 -0.0001502189089)
(8.502077985e-06 -0.0004342433912 -0.0001501871285)
(0.0007937926197 0.0005341069337 -0.000282588268)
(0.000612881367 0.0005397616011 0.0003434004489)
(0.0001406689166 0.0009304556475 5.914034127e-05)
(-7.963003733e-05 0.0003413240129 -8.767402287e-05)
(-0.0001750677886 9.13433421e-05 0.0005123326536)