/*--------------------------------*- C++ -*----------------------------------*\
  =========                 |
  \\      /  F ield         | OpenFOAM: The Open Source CFD Toolbox
   \\    /   O peration     | Website:  https://openfoam.org
    \\  /    A nd           | Version:  7
     \\/     M anipulation  |
\*---------------------------------------------------------------------------*/
FoamFile
{
    version     2.0;
    format      ascii;
    class       volScalarField;
    location    "0.003";
    object      rhoNMean;
}
// * * * * * * * * * * * * * * * * * * * * * * * * * * * * * * * * * * * * * //

dimensions      [0 -3 0 0 0 0 0];

internalField   nonuniform List<scalar> 
546
(
7.813275626e+19
7.895893344e+19
8.018084255e+19
7.691778982e+19
7.921581206e+19
7.494607285e+19
7.476556355e+19
7.425180631e+19
7.659842721e+19
7.232174533e+19
7.288410123e+19
7.178021743e+19
7.298129854e+19
7.074576029e+19
7.186352942e+19
6.746882223e+19
6.438627879e+19
6.746882223e+19
6.953079385e+19
6.636493843e+19
7.942409202e+19
7.586250468e+19
8.227752749e+19
7.735517774e+19
7.337703047e+19
7.549454341e+19
7.812581359e+19
7.995173459e+19
7.635543392e+19
7.326594782e+19
7.257862395e+19
7.291187189e+19
7.448785693e+19
7.024588838e+19
7.078047361e+19
7.101652424e+19
6.94405392e+19
7.005149375e+19
6.996818176e+19
6.748270756e+19
8.253440611e+19
8.340223929e+19
7.545288742e+19
7.405046901e+19
7.443925827e+19
7.836880688e+19
8.320090199e+19
7.638320458e+19
7.745237505e+19
7.33700878e+19
7.163442146e+19
7.459893958e+19
7.30298972e+19
6.835748339e+19
7.020423239e+19
6.56081879e+19
6.866990334e+19
7.243282798e+19
7.362696642e+19
6.582341053e+19
8.524204561e+19
8.122918502e+19
7.520989413e+19
7.023894571e+19
6.752436355e+19
7.374499173e+19
7.852154552e+19
6.986404178e+19
7.236340132e+19
7.525155012e+19
7.105123756e+19
7.094709758e+19
7.641097524e+19
7.082212961e+19
6.74132809e+19
7.092626959e+19
6.974601647e+19
7.30090692e+19
7.134282951e+19
7.277301858e+19
8.467968972e+19
7.788976297e+19
7.586250468e+19
7.526543545e+19
7.461282491e+19
7.518212347e+19
7.879230947e+19
7.702887246e+19
7.577225003e+19
7.078047361e+19
7.623740861e+19
7.005149375e+19
7.101652424e+19
7.137060017e+19
7.095404025e+19
7.114843488e+19
7.198849739e+19
7.279384658e+19
7.219677735e+19
7.663314054e+19
7.949351867e+19
8.132638234e+19
7.88061948e+19
7.809804293e+19
7.839657754e+19
7.854931618e+19
7.971568397e+19
7.645263124e+19
7.805638694e+19
7.490441685e+19
7.312709452e+19
7.737600573e+19
7.292575722e+19
7.109289356e+19
7.133588685e+19
7.226620401e+19
6.980850046e+19
6.886429797e+19
7.107206556e+19
7.478639154e+19
7.906307342e+19
8.416593248e+19
8.22566995e+19
8.020861321e+19
7.603607131e+19
8.134721033e+19
7.902141743e+19
7.745931772e+19
7.671645252e+19
7.850071752e+19
7.548065808e+19
7.71607831e+19
7.057913632e+19
7.421709298e+19
7.496690084e+19
7.736906307e+19
7.374499173e+19
6.987792711e+19
7.338397313e+19
7.0481939e+19
8.332586997e+19
8.147217831e+19
7.836186422e+19
7.742460439e+19
7.943797735e+19
7.779256566e+19
7.90075321e+19
8.068071446e+19
7.686224849e+19
7.741766172e+19
7.832715089e+19
7.768842567e+19
7.268276393e+19
7.627212194e+19
8.039606517e+19
7.723020976e+19
7.276607592e+19
7.281467457e+19
6.899620861e+19
7.382830372e+19
8.127084101e+19
7.71816111e+19
8.010447323e+19
7.798001762e+19
8.419370314e+19
8.045854916e+19
8.038912251e+19
7.48349902e+19
7.505715549e+19
7.403658368e+19
7.930606671e+19
7.845211887e+19
7.848683219e+19
7.679282184e+19
7.93685507e+19
7.507104082e+19
7.368250775e+19
7.245365597e+19
7.083601494e+19
7.358531043e+19
8.311064734e+19
8.779000381e+19
8.810242375e+19
8.093065041e+19
7.974345463e+19
7.850071752e+19
8.140275166e+19
7.915332807e+19
7.334925981e+19
7.751485904e+19
8.168740094e+19
7.336314514e+19
7.644568857e+19
7.675810851e+19
8.052103315e+19
7.729963641e+19
7.328677582e+19
7.335620247e+19
7.438371695e+19
7.356448243e+19
8.298567936e+19
8.587382816e+19
8.380491388e+19
8.305510602e+19
7.975039729e+19
7.505715549e+19
7.941020669e+19
8.003504657e+19
7.473085022e+19
7.730657908e+19
7.327289049e+19
7.717466844e+19
7.618186729e+19
7.441148761e+19
8.093759308e+19
7.332148915e+19
7.407823967e+19
7.60777273e+19
7.231480267e+19
7.096792558e+19
7.974345463e+19
8.467274705e+19
8.613070678e+19
8.218033018e+19
7.909084408e+19
8.455472174e+19
8.40826205e+19
7.724409509e+19
7.725103775e+19
7.514046748e+19
7.90075321e+19
7.682753517e+19
7.892422011e+19
7.760511369e+19
7.189824274e+19
7.690390449e+19
7.380747572e+19
7.450868493e+19
7.025283105e+19
7.585556201e+19
8.436032711e+19
8.536701359e+19
8.18748529e+19
7.829243756e+19
8.310370468e+19
8.414510448e+19
8.309676201e+19
8.33397553e+19
8.002116124e+19
7.971568397e+19
7.812581359e+19
7.674422318e+19
7.525849279e+19
7.896587611e+19
7.677199384e+19
7.526543545e+19
7.28285599e+19
7.648734456e+19
7.253002529e+19
7.368250775e+19
8.862312366e+19
8.936598885e+19
8.76511505e+19
8.570026153e+19
8.107644638e+19
8.295096604e+19
8.077096911e+19
8.159020362e+19
8.053491848e+19
8.340223929e+19
7.799390295e+19
7.523766479e+19
7.859097217e+19
7.925052539e+19
7.33700878e+19
7.684836316e+19
7.953517467e+19
7.734823507e+19
7.166913478e+19
7.580002069e+19
8.53045296e+19
8.887305961e+19
8.948401417e+19
8.465886172e+19
8.657503737e+19
8.128472634e+19
8.25968901e+19
8.228447016e+19
7.891727745e+19
8.209007553e+19
8.574191752e+19
7.834797889e+19
7.767454034e+19
8.292319538e+19
7.407129701e+19
7.336314514e+19
7.750791637e+19
7.99100786e+19
8.036135185e+19
7.989619327e+19
8.533230026e+19
9.285120688e+19
8.497128166e+19
7.881313747e+19
8.734567323e+19
8.293013804e+19
8.061823047e+19
8.320090199e+19
8.231224082e+19
8.335364063e+19
8.120835703e+19
7.750791637e+19
7.775090966e+19
7.856320151e+19
8.182625424e+19
7.811887093e+19
7.66400832e+19
8.283988339e+19
8.009753056e+19
8.313147534e+19
8.948401417e+19
9.376763871e+19
8.663752136e+19
8.009753056e+19
8.545032558e+19
8.869949298e+19
8.554752289e+19
8.44436391e+19
8.277045674e+19
8.595019748e+19
8.793579978e+19
8.40409645e+19
8.333281263e+19
7.812581359e+19
7.938243603e+19
8.040995051e+19
7.474473555e+19
8.139580899e+19
8.372854456e+19
8.437421244e+19
9.021299403e+19
9.588515165e+19
9.044210199e+19
8.618624811e+19
8.58877135e+19
8.389516853e+19
8.546421091e+19
8.740815722e+19
8.78524878e+19
8.714433593e+19
8.916465156e+19
8.559612155e+19
8.443669643e+19
8.164574494e+19
8.20761902e+19
7.99100786e+19
7.741071906e+19
8.278434207e+19
8.18748529e+19
8.254134878e+19
6.611405948e+19
6.139494588e+19
6.367017136e+19
6.567071611e+19
6.226852662e+19
6.502291739e+19
6.761054185e+19
6.954863009e+19
6.307235639e+19
6.885396885e+19
6.882165585e+19
6.593951361e+19
6.277658084e+19
6.391461897e+19
6.410363838e+19
6.402816103e+19
6.446829636e+19
6.736690485e+19
6.191389896e+19
6.662048267e+19
6.943050641e+19
6.765635077e+19
6.481077164e+19
6.788778876e+19
6.532704698e+19
6.432510323e+19
6.673266383e+19
6.338929004e+19
6.594024492e+19
7.102343791e+19
6.895775197e+19
6.942368219e+19
6.914795701e+19
6.988534975e+19
6.744221601e+19
6.493383427e+19
7.064131119e+19
6.952758404e+19
6.672432282e+19
6.731044542e+19
6.94591587e+19
6.923612861e+19
6.901718712e+19
6.488047194e+19
6.481115152e+19
6.57949671e+19
6.563879995e+19
6.53816046e+19
6.401890088e+19
6.728199337e+19
7.082728279e+19
7.062835332e+19
6.690308217e+19
6.543657029e+19
6.704424034e+19
6.696046522e+19
6.815399015e+19
6.483441994e+19
6.709870236e+19
7.071046533e+19
7.248908797e+19
7.146513137e+19
6.582786703e+19
6.83121789e+19
7.069235499e+19
6.828928203e+19
6.789620102e+19
7.018701271e+19
7.144291775e+19
7.100209936e+19
7.095621595e+19
7.115494609e+19
6.810906671e+19
6.922681283e+19
7.117139985e+19
7.333729888e+19
7.216714679e+19
7.260023933e+19
6.758610259e+19
6.987824325e+19
6.950929938e+19
7.010897415e+19
6.968556409e+19
7.033900769e+19
7.319813071e+19
7.274341449e+19
6.796587343e+19
6.889621661e+19
7.401412765e+19
7.320001949e+19
6.79907528e+19
7.117658738e+19
6.98744542e+19
7.254876377e+19
7.205579178e+19
7.718270032e+19
6.530437023e+19
7.20881302e+19
7.700916497e+19
7.23037808e+19
6.794777601e+19
7.215042333e+19
7.026676145e+19
7.291461632e+19
7.496691304e+19
7.492593963e+19
7.181181569e+19
7.183558322e+19
7.313115755e+19
6.983556517e+19
6.990326181e+19
6.901972062e+19
7.134924204e+19
7.224876384e+19
7.704523344e+19
7.742025408e+19
7.137984349e+19
7.294398333e+19
7.044692642e+19
6.758785248e+19
6.99963802e+19
7.047686773e+19
7.240266177e+19
7.32804704e+19
7.606503293e+19
7.804383269e+19
7.02441759e+19
7.027821023e+19
7.374570559e+19
7.283014379e+19
7.326984989e+19
7.588706793e+19
7.264240669e+19
7.249754427e+19
7.578497511e+19
7.707877e+19
7.273846423e+19
7.083942525e+19
7.588602533e+19
7.241758852e+19
7.416521906e+19
7.5858213e+19
7.686335155e+19
7.881949292e+19
7.876979617e+19
7.856348209e+19
7.533726185e+19
7.639545911e+19
7.42260416e+19
7.891176968e+19
7.402912243e+19
7.551196023e+19
8.045224584e+19
8.165851777e+19
8.115765359e+19
8.234949453e+19
7.821475143e+19
7.697070499e+19
7.711512093e+19
8.02347907e+19
8.086258045e+19
7.515849385e+19
7.843258443e+19
7.984388348e+19
8.231473237e+19
8.110976086e+19
7.895328321e+19
8.256882955e+19
8.022317746e+19
8.419673857e+19
8.117775039e+19
8.126119964e+19
8.055395594e+19
8.176095619e+19
8.550591085e+19
8.548965826e+19
8.413694388e+19
8.425949065e+19
8.224341421e+19
8.15649242e+19
8.518900427e+19
8.102315029e+19
8.175993935e+19
8.482680912e+19
7.97426273e+19
8.00333454e+19
)
;

boundaryField
{
    flow
    {
        type            calculated;
        value           nonuniform List<scalar> 
48
(
7.813275626e+19
7.942409202e+19
8.253440611e+19
8.524204561e+19
8.467968972e+19
7.949351867e+19
7.906307342e+19
8.332586997e+19
8.127084101e+19
8.311064734e+19
8.298567936e+19
7.974345463e+19
8.436032711e+19
8.862312366e+19
8.53045296e+19
8.533230026e+19
8.948401417e+19
9.021299403e+19
9.021299403e+19
9.588515165e+19
9.044210199e+19
8.618624811e+19
8.58877135e+19
8.389516853e+19
8.546421091e+19
8.740815722e+19
8.78524878e+19
8.714433593e+19
8.916465156e+19
8.559612155e+19
8.443669643e+19
8.164574494e+19
8.20761902e+19
7.99100786e+19
7.741071906e+19
8.278434207e+19
8.18748529e+19
8.254134878e+19
8.413694388e+19
8.425949065e+19
8.224341421e+19
8.15649242e+19
8.518900427e+19
8.102315029e+19
8.175993935e+19
8.482680912e+19
7.97426273e+19
8.00333454e+19
)
;
    }
    obstacle
    {
        type            calculated;
        value           nonuniform 0();
    }
    frontAndBack
    {
        type            empty;
    }
    procBoundary2to0
    {
        type            processor;
        value           nonuniform List<scalar> 
31
(
8.170822893e+19
7.975733996e+19
8.020167054e+19
7.656371388e+19
7.991702126e+19
7.570976604e+19
7.31895785e+19
7.461976757e+19
7.389078771e+19
6.862130468e+19
7.072493229e+19
6.99612391e+19
7.023200305e+19
6.973907381e+19
7.003066575e+19
6.760767553e+19
6.703143431e+19
6.422659749e+19
6.658710372e+19
6.631633977e+19
6.478175016e+19
6.397020092e+19
6.391718068e+19
6.791705752e+19
6.568080356e+19
6.40504317e+19
6.737365413e+19
6.454679656e+19
6.620866799e+19
6.669872628e+19
6.669872628e+19
)
;
    }
    procBoundary2to3
    {
        type            processor;
        value           nonuniform List<scalar> 
19
(
6.419834969e+19
6.199234932e+19
6.616505558e+19
6.347298686e+19
6.345803092e+19
7.00835105e+19
6.917867644e+19
6.83411436e+19
6.979186977e+19
7.053218804e+19
7.405431066e+19
7.398700948e+19
7.520591763e+19
7.783068417e+19
7.820458366e+19
8.420191235e+19
8.271379685e+19
7.774842709e+19
8.563768208e+19
)
;
    }
}


// ************************************************************************* //
