/*--------------------------------*- C++ -*----------------------------------*\
  =========                 |
  \\      /  F ield         | OpenFOAM: The Open Source CFD Toolbox
   \\    /   O peration     | Website:  https://openfoam.org
    \\  /    A nd           | Version:  7
     \\/     M anipulation  |
\*---------------------------------------------------------------------------*/
FoamFile
{
    version     2.0;
    format      ascii;
    class       volScalarField;
    location    "0.003";
    object      rhoN;
}
// * * * * * * * * * * * * * * * * * * * * * * * * * * * * * * * * * * * * * //

dimensions      [0 -3 0 0 0 0 0];

internalField   nonuniform List<scalar> 
546
(
8.331198464e+19
1.041399808e+20
1.145539789e+20
8.331198464e+19
1.562099712e+20
1.041399808e+20
1.24967977e+20
8.331198464e+19
9.372598272e+19
1.24967977e+20
4.165599232e+19
1.35381975e+20
7.289798656e+19
9.372598272e+19
1.041399808e+20
4.165599232e+19
9.372598272e+19
6.248398848e+19
1.145539789e+20
7.289798656e+19
6.248398848e+19
1.24967977e+20
1.041399808e+20
1.145539789e+20
1.145539789e+20
1.145539789e+20
9.372598272e+19
1.35381975e+20
1.041399808e+20
3.124199424e+19
8.331198464e+19
1.35381975e+20
6.248398848e+19
4.165599232e+19
1.457959731e+20
1.041399808e+20
8.331198464e+19
1.041399808e+20
8.331198464e+19
5.20699904e+19
1.145539789e+20
6.248398848e+19
6.248398848e+19
1.145539789e+20
5.20699904e+19
1.041399808e+20
8.331198464e+19
4.165599232e+19
1.145539789e+20
9.372598272e+19
1.145539789e+20
1.35381975e+20
1.770379674e+20
1.041399808e+20
7.289798656e+19
8.331198464e+19
1.24967977e+20
1.145539789e+20
9.372598272e+19
1.35381975e+20
4.165599232e+19
8.331198464e+19
1.35381975e+20
7.289798656e+19
1.041399808e+20
1.145539789e+20
1.041399808e+20
9.372598272e+19
9.372598272e+19
7.289798656e+19
1.24967977e+20
8.331198464e+19
8.331198464e+19
1.24967977e+20
1.35381975e+20
9.372598272e+19
1.457959731e+20
6.248398848e+19
1.041399808e+20
6.248398848e+19
9.372598272e+19
1.041399808e+20
9.372598272e+19
1.24967977e+20
3.124199424e+19
1.562099712e+20
9.372598272e+19
7.289798656e+19
9.372598272e+19
1.24967977e+20
1.24967977e+20
1.145539789e+20
7.289798656e+19
1.770379674e+20
6.248398848e+19
1.041399808e+20
1.041399808e+20
6.248398848e+19
9.372598272e+19
7.289798656e+19
5.20699904e+19
1.457959731e+20
9.372598272e+19
1.24967977e+20
1.457959731e+20
1.457959731e+20
4.165599232e+19
1.874519654e+20
1.145539789e+20
9.372598272e+19
1.24967977e+20
9.372598272e+19
1.562099712e+20
7.289798656e+19
8.331198464e+19
7.289798656e+19
1.35381975e+20
7.289798656e+19
1.24967977e+20
9.372598272e+19
1.24967977e+20
8.331198464e+19
1.24967977e+20
1.35381975e+20
2.082799616e+19
7.289798656e+19
9.372598272e+19
1.145539789e+20
7.289798656e+19
7.289798656e+19
7.289798656e+19
1.041399808e+20
1.35381975e+20
7.289798656e+19
1.24967977e+20
6.248398848e+19
8.331198464e+19
1.145539789e+20
1.457959731e+20
5.20699904e+19
8.331198464e+19
7.289798656e+19
1.145539789e+20
1.041399808e+20
1.145539789e+20
9.372598272e+19
9.372598272e+19
8.331198464e+19
9.372598272e+19
8.331198464e+19
1.041399808e+20
8.331198464e+19
6.248398848e+19
9.372598272e+19
9.372598272e+19
1.35381975e+20
1.35381975e+20
1.145539789e+20
1.145539789e+20
1.145539789e+20
8.331198464e+19
9.372598272e+19
6.248398848e+19
6.248398848e+19
1.145539789e+20
1.145539789e+20
1.35381975e+20
9.372598272e+19
1.35381975e+20
1.35381975e+20
1.145539789e+20
5.20699904e+19
1.145539789e+20
1.041399808e+20
1.35381975e+20
1.145539789e+20
1.041399808e+20
5.20699904e+19
1.041399808e+20
9.372598272e+19
1.041399808e+20
1.24967977e+20
5.20699904e+19
1.145539789e+20
1.457959731e+20
3.124199424e+19
9.372598272e+19
1.24967977e+20
1.041399808e+20
1.457959731e+20
8.331198464e+19
8.331198464e+19
9.372598272e+19
1.041399808e+20
5.20699904e+19
1.666239693e+20
1.35381975e+20
6.248398848e+19
1.562099712e+20
5.20699904e+19
6.248398848e+19
6.248398848e+19
1.145539789e+20
9.372598272e+19
6.248398848e+19
1.145539789e+20
1.562099712e+20
1.562099712e+20
7.289798656e+19
1.24967977e+20
8.331198464e+19
8.331198464e+19
8.331198464e+19
1.145539789e+20
9.372598272e+19
9.372598272e+19
1.562099712e+20
6.248398848e+19
9.372598272e+19
1.562099712e+20
6.248398848e+19
1.24967977e+20
1.145539789e+20
1.457959731e+20
7.289798656e+19
1.35381975e+20
4.165599232e+19
8.331198464e+19
1.041399808e+20
8.331198464e+19
9.372598272e+19
1.457959731e+20
9.372598272e+19
9.372598272e+19
9.372598272e+19
9.372598272e+19
7.289798656e+19
1.24967977e+20
9.372598272e+19
1.145539789e+20
6.248398848e+19
1.041399808e+20
9.372598272e+19
1.041399808e+20
7.289798656e+19
9.372598272e+19
1.041399808e+20
9.372598272e+19
1.041399808e+20
8.331198464e+19
7.289798656e+19
1.145539789e+20
7.289798656e+19
7.289798656e+19
8.331198464e+19
6.248398848e+19
1.041399808e+20
1.666239693e+20
1.35381975e+20
1.145539789e+20
7.289798656e+19
8.331198464e+19
1.35381975e+20
6.248398848e+19
8.331198464e+19
1.24967977e+20
8.331198464e+19
6.248398848e+19
7.289798656e+19
1.24967977e+20
1.041399808e+20
1.24967977e+20
1.041399808e+20
7.289798656e+19
9.372598272e+19
9.372598272e+19
9.372598272e+19
9.372598272e+19
1.24967977e+20
9.372598272e+19
5.20699904e+19
1.041399808e+20
1.457959731e+20
1.041399808e+20
1.145539789e+20
1.041399808e+20
7.289798656e+19
7.289798656e+19
1.145539789e+20
1.35381975e+20
8.331198464e+19
8.331198464e+19
9.372598272e+19
5.20699904e+19
9.372598272e+19
1.145539789e+20
1.041399808e+20
1.041399808e+20
1.145539789e+20
8.331198464e+19
8.331198464e+19
1.145539789e+20
9.372598272e+19
9.372598272e+19
1.457959731e+20
9.372598272e+19
8.331198464e+19
7.289798656e+19
7.289798656e+19
5.20699904e+19
1.145539789e+20
1.041399808e+20
6.248398848e+19
1.145539789e+20
6.248398848e+19
1.041399808e+20
8.331198464e+19
9.372598272e+19
1.666239693e+20
1.24967977e+20
8.331198464e+19
7.289798656e+19
1.35381975e+20
7.289798656e+19
1.145539789e+20
6.248398848e+19
1.457959731e+20
1.145539789e+20
5.20699904e+19
1.562099712e+20
1.24967977e+20
1.145539789e+20
9.372598272e+19
1.24967977e+20
1.145539789e+20
9.372598272e+19
1.562099712e+20
1.145539789e+20
9.372598272e+19
8.331198464e+19
3.124199424e+19
6.248398848e+19
1.24967977e+20
1.145539789e+20
1.35381975e+20
1.041399808e+20
7.289798656e+19
1.457959731e+20
1.041399808e+20
7.289798656e+19
8.331198464e+19
1.35381975e+20
1.041399808e+20
8.331198464e+19
7.289798656e+19
9.372598272e+19
5.20699904e+19
1.041399808e+20
8.331198464e+19
9.372598272e+19
9.669987032e+19
1.190243928e+20
1.08974506e+20
8.78048572e+19
1.105489288e+20
1.002179912e+20
5.225464384e+19
1.578418577e+20
9.536082555e+19
1.173647196e+20
7.521101025e+19
1.406651915e+20
8.717960539e+19
5.487803575e+19
8.84391424e+19
1.113533235e+20
7.315650187e+19
1.473190672e+20
1.271477674e+20
1.280342396e+20
1.719108794e+20
1.082039942e+20
7.628215471e+19
7.682925005e+19
1.547685003e+20
4.454132941e+19
8.360743015e+19
4.209116205e+19
1.165521201e+20
7.468663977e+19
6.446658021e+19
8.656319476e+19
1.198719574e+20
5.487803613e+19
9.94940352e+19
8.908265819e+19
5.225464384e+19
1.157506948e+20
1.271477674e+20
1.173647204e+20
9.669987032e+19
8.656319476e+19
8.717960478e+19
8.780485658e+19
9.94940352e+19
1.447593206e+20
1.463130028e+20
1.262734853e+20
7.416953098e+19
8.535616032e+19
1.396775905e+20
8.656319476e+19
9.807705606e+19
1.207316795e+20
1.216038217e+20
5.567666177e+19
5.225464384e+19
8.418232409e+19
4.238258913e+19
1.173647196e+20
8.595544028e+19
1.406651925e+20
1.525643094e+20
1.097560715e+20
1.326587145e+20
7.794732703e+19
1.149602172e+20
1.578418577e+20
6.35738837e+19
7.468664028e+19
9.669987032e+19
9.73835941e+19
1.089745067e+20
1.317072858e+20
7.73842496e+19
8.908265883e+19
1.254111452e+20
1.157506956e+20
1.80126005e+20
1.066952004e+20
1.289331604e+20
1.082039934e+20
1.416668578e+20
5.487803575e+19
5.527446439e+19
1.002179912e+20
1.254111452e+20
1.052279044e+20
1.377434137e+20
6.401711936e+19
1.396775895e+20
5.41019971e+19
7.628215524e+19
1.097560723e+20
1.437136074e+20
1.55894653e+20
7.315650138e+19
6.313674307e+19
1.48339063e+20
1.707123206e+20
1.611664516e+20
8.656319536e+19
6.538470358e+19
9.878046365e+19
7.73842496e+19
7.794732648e+19
1.045092884e+20
4.209116205e+19
8.476517826e+19
9.602568036e+19
5.372215018e+19
1.298447921e+20
8.717960539e+19
7.682925059e+19
1.658233932e+20
1.447593206e+20
9.405835892e+19
1.157506948e+20
1.165521193e+20
9.60256797e+19
7.521101025e+19
7.574279541e+19
1.08974506e+20
1.317072858e+20
7.738425015e+19
7.794732648e+19
1.045092877e+20
9.47051146e+19
5.297823677e+19
1.066952004e+20
6.446658021e+19
7.574279594e+19
1.198719582e+20
7.682925059e+19
9.94940352e+19
8.908265819e+19
1.149602165e+20
8.418232352e+19
1.165521193e+20
7.468663977e+19
8.595544028e+19
4.328159738e+19
9.807705538e+19
8.780485658e+19
1.10548928e+20
1.447593216e+20
1.149602165e+20
7.365953358e+19
2.119129471e+19
1.600427995e+20
4.297771985e+19
9.73835941e+19
8.717960539e+19
5.487803613e+19
7.738425015e+19
1.336239882e+20
6.270557303e+19
4.209116205e+19
8.476517826e+19
6.401712024e+19
9.669987032e+19
1.406651915e+20
8.717960478e+19
1.207316786e+20
1.216038217e+20
7.794732648e+19
1.35862074e+20
5.261395256e+19
1.059564728e+20
1.600427995e+20
8.595544028e+19
4.328159768e+19
1.198719582e+20
9.878046435e+19
5.5274464e+19
1.224886559e+20
1.149602165e+20
1.157506948e+20
9.536082555e+19
1.387037605e+20
8.595544028e+19
8.656319476e+19
1.08974506e+20
8.78048572e+19
7.738425015e+19
1.336239882e+20
)
;

boundaryField
{
    flow
    {
        type            zeroGradient;
    }
    obstacle
    {
        type            calculated;
        value           nonuniform 0();
    }
    frontAndBack
    {
        type            empty;
    }
    procBoundary2to0
    {
        type            processor;
        value           nonuniform List<scalar> 
31
(
7.289798656e+19
1.562099712e+20
7.289798656e+19
6.248398848e+19
7.289798656e+19
9.372598272e+19
8.331198464e+19
1.041399808e+20
1.770379674e+20
1.041399808e+20
1.145539789e+20
9.372598272e+19
8.331198464e+19
1.24967977e+20
9.372598272e+19
6.248398848e+19
1.041399808e+20
1.457959731e+20
6.248398848e+19
1.457959731e+20
7.521101025e+19
1.190243928e+20
1.416668588e+20
7.682925059e+19
6.632935727e+19
3.340599706e+19
1.149602165e+20
1.367962757e+20
9.536082555e+19
1.066952004e+20
1.066952004e+20
)
;
    }
    procBoundary2to3
    {
        type            processor;
        value           nonuniform List<scalar> 
19
(
1.121695102e+20
7.851865717e+19
1.12169511e+20
1.346034123e+20
6.730170614e+19
1.233864621e+20
6.730170662e+19
7.851865717e+19
1.346034132e+20
1.233864613e+20
1.570373143e+20
8.973560883e+19
5.608475512e+19
8.973560819e+19
1.009525607e+20
1.009525592e+20
7.851865717e+19
8.973560883e+19
1.009525592e+20
)
;
    }
}


// ************************************************************************* //
