/*--------------------------------*- C++ -*----------------------------------*\
  =========                 |
  \\      /  F ield         | OpenFOAM: The Open Source CFD Toolbox
   \\    /   O peration     | Website:  https://openfoam.org
    \\  /    A nd           | Version:  7
     \\/     M anipulation  |
\*---------------------------------------------------------------------------*/
FoamFile
{
    version     2.0;
    format      ascii;
    class       volScalarField;
    location    "0.003";
    object      translationalT;
}
// * * * * * * * * * * * * * * * * * * * * * * * * * * * * * * * * * * * * * //

dimensions      [1 2 -2 0 0 0 0];

internalField   nonuniform List<scalar> 
546
(
296.7488163
309.0785627
300.3200392
297.5008493
298.8367695
297.3485863
301.1617615
303.8652201
305.856874
302.8409282
302.660796
301.9622788
300.6342467
301.8965444
298.7095196
298.9284122
300.3118751
302.0837028
302.5855502
298.9864078
289.1477733
309.6106969
300.6502182
303.3911507
301.9228973
303.8776922
302.9347945
298.7513948
298.0562987
300.1756769
301.7185488
302.4957256
301.4548895
300.0295442
300.2398572
300.0751922
301.260578
300.7633296
301.21266
301.0938419
286.103476
302.5330085
296.3645934
300.4120629
301.9238799
300.4431204
299.8378618
300.9841389
301.2826308
301.4286143
302.0630321
299.2203989
300.9510741
304.3266078
303.6624704
300.8293535
302.3048348
301.6789228
298.6070628
306.2294977
288.9939206
303.1602512
295.2974557
295.7028159
295.3326473
298.5390958
302.2637949
301.878131
301.749342
302.5420068
301.1604296
300.0912352
298.897982
298.7834123
297.7827837
297.9345185
299.7455521
301.8912425
307.5544336
302.9879133
292.143931
306.7808804
300.8773701
302.1925379
299.3611114
297.8660166
298.0738823
300.5312918
299.5519915
298.2065593
297.5973624
300.9017843
302.3551731
300.8748287
303.2278252
307.4886629
311.1921127
310.9547002
308.3974688
307.2545752
291.0424705
309.8089721
301.6788985
300.3334703
301.6462525
301.6295719
299.02676
296.4598646
296.444772
299.8351541
301.0267068
294.3592116
297.7947402
299.8819308
303.8369291
303.030295
301.1972982
298.8596172
294.5293348
296.7688064
291.7847112
303.6453555
296.9999251
298.5870196
301.1907461
301.3878239
302.6907894
305.2026485
304.7830287
301.9413002
300.8201885
306.3434893
306.0459083
302.960433
297.1494341
296.7221706
296.8161674
301.0413658
301.0295293
304.052488
293.1490917
311.7315221
304.727314
305.6606885
304.2635375
304.8478323
304.4758328
304.0536131
302.1102153
305.9641164
305.6146695
301.9758039
302.5290169
304.4336702
304.0784031
302.4862116
301.5583997
300.4935335
300.4111726
302.642695
284.0678777
302.4966096
297.5955843
301.3859614
302.2069193
301.6102801
304.2007204
302.858752
305.0702044
304.0589039
300.5750971
301.6566502
300.6951989
298.8318155
298.2637192
298.4933965
301.2067929
299.0678151
296.1004655
298.5061923
292.1462535
306.0635092
298.161977
299.5182925
298.6302879
301.0759521
301.0798857
297.7231664
297.1575811
298.9291702
298.350151
291.8374096
294.1558787
293.786671
297.2949202
298.8325875
298.0479605
301.5330474
306.7737734
304.6826436
288.9719357
304.6953636
297.58272
297.7905911
295.5729163
293.8365927
295.1650044
294.7856069
296.0160084
295.3096867
298.2107588
300.9586869
302.3468967
301.8258994
303.3718157
302.0362398
301.9806756
301.4631906
299.3353205
299.4631585
291.4372017
308.9587859
300.2643115
298.7570377
301.3040341
302.6827132
300.1949933
295.6470667
294.2760809
297.0115743
300.4342618
299.6482281
300.4875717
302.4545664
300.0183354
299.1538676
300.3215154
301.8117707
301.9584844
301.9473836
291.4014145
302.6495987
295.7684942
299.2479421
297.6630188
295.0137008
299.0249762
303.6028673
302.5578293
299.5995301
299.3536825
300.7419142
299.3912496
296.898458
300.4280968
300.9911999
298.9204265
299.3548656
300.0379743
297.0937999
290.9112543
311.9344963
303.5724225
301.484398
303.0387959
303.8538568
300.8546441
299.1308159
300.0528906
300.7777628
298.2463594
296.9285607
297.5883445
296.9409705
296.467957
298.9045696
301.5492494
298.1872745
296.4190134
298.6828004
292.0892621
306.6026471
301.8158279
303.3548431
306.088623
300.9329098
300.9214001
301.2523986
296.4270732
298.6190829
298.8231977
300.9290005
302.4038347
300.930512
297.7211394
298.4129803
297.0238994
296.7276447
297.9470868
296.8371346
288.2670422
306.393535
296.0068631
297.7131171
296.3424453
297.8965933
301.1543717
300.1061421
298.7181307
297.048335
298.3584239
296.7433447
294.665571
292.7164928
292.537259
292.7337712
294.2912057
293.8656297
292.0355716
293.4020429
289.3840482
305.0376834
296.1445885
295.6124138
296.9179513
295.5199809
294.4720221
298.7192374
300.4449266
299.8993092
297.6305076
295.0148757
295.7339003
296.3998489
295.0433339
295.6692203
293.8472535
295.6913937
298.3974178
297.0166734
290.9904817
305.0580205
301.3346608
300.5410238
301.0358603
299.646286
298.982386
296.7850375
298.5686861
294.7861894
296.6150083
295.8545721
295.1256904
296.9168958
300.0940389
301.918581
300.8065232
299.3553888
298.3981423
301.3097699
307.4983825
317.4041569
311.8881519
317.3952624
319.0114809
320.0366487
301.142243
304.204433
301.9848184
309.2601254
305.3965196
314.506907
312.89411
317.3790328
322.3676683
317.3254304
298.639495
304.1062023
305.4007576
310.7551815
309.0203267
309.0842072
305.8986969
308.8552986
310.0212009
315.926616
302.8677041
305.3150245
304.4015334
306.206281
304.2033802
308.0214561
305.035988
304.943535
307.1077039
308.3141302
304.6388009
305.3146245
304.9250294
305.561906
304.1504754
298.4691242
303.5145525
305.2606665
305.5825257
309.1625085
305.6859419
307.2059441
306.2192188
301.9220593
301.5349023
308.35364
306.985558
305.9812213
305.3871667
304.8846814
297.1140185
300.6227462
304.1694476
306.4899453
302.2196832
301.5523185
302.4934963
305.0883427
306.9094339
306.0110802
304.9454198
303.1217411
302.0011607
302.8591303
305.3220548
304.6753399
305.0568942
303.4423861
304.3651154
306.2638763
301.1581926
303.6105005
301.6739791
302.96724
298.776151
300.6714103
298.5562365
298.1709464
302.0707111
304.586095
302.2171698
300.6319828
299.8062245
303.0622433
304.9364043
300.8824341
302.3345056
302.7248584
297.1795863
294.7424743
304.4949386
302.6025763
304.1917933
301.7863977
296.053957
299.0944155
299.033229
295.7282639
298.8893624
300.7724512
297.9819096
298.4526323
296.4077917
297.0605071
303.9279329
303.4617942
303.0738688
304.1196195
300.4952113
299.5701139
298.1882649
300.499345
303.0036345
304.6838004
298.7759472
299.5214181
300.9445155
304.3130199
306.9189725
306.3251585
299.3359087
300.3522865
299.4030415
296.9930786
298.825829
300.8105369
302.6668259
297.6832288
295.7024195
299.5293416
298.355037
298.301982
302.4644709
303.3296503
302.7704354
301.953205
299.0863847
300.0308444
295.5602471
293.1326096
296.5832804
295.8999139
295.9192375
297.3616507
296.2703868
297.6993975
297.328581
299.8594227
299.1560307
297.8563835
292.2197437
294.6376463
296.1105773
297.1529923
298.6999771
296.4376867
299.0286328
304.1016265
302.8152348
303.2723976
298.8308461
298.8609209
300.7400564
299.2089676
298.2747728
300.4659503
301.2495307
300.6869059
301.493975
299.5027396
301.780028
300.5074223
300.2368628
297.7233625
297.7072513
298.5241405
300.5929351
297.4532288
293.9041336
295.1416388
)
;

boundaryField
{
    flow
    {
        type            calculated;
        value           nonuniform List<scalar> 
48
(
296.7488163
289.1477733
286.103476
288.9939206
292.143931
291.0424705
291.7847112
293.1490917
284.0678777
292.1462535
288.9719357
291.4372017
291.4014145
290.9112543
292.0892621
288.2670422
289.3840482
290.9904817
290.9904817
305.0580205
301.3346608
300.5410238
301.0358603
299.646286
298.982386
296.7850375
298.5686861
294.7861894
296.6150083
295.8545721
295.1256904
296.9168958
300.0940389
301.918581
300.8065232
299.3553888
298.3981423
301.3097699
301.780028
300.5074223
300.2368628
297.7233625
297.7072513
298.5241405
300.5929351
297.4532288
293.9041336
295.1416388
)
;
    }
    obstacle
    {
        type            calculated;
        value           nonuniform 0();
    }
    frontAndBack
    {
        type            empty;
    }
    procBoundary2to0
    {
        type            processor;
        value           nonuniform List<scalar> 
31
(
291.215174
307.3216849
301.7080451
302.8361349
303.2482901
303.8138359
303.068837
302.1865712
303.2730298
303.8106542
301.5760491
299.4794377
298.0943651
301.7066872
301.1077413
301.0717276
300.4619195
300.7520314
306.321694
302.7979413
317.5426805
318.655858
322.7266274
329.3495706
323.2176189
333.7680293
309.9964754
304.4381723
306.9156859
307.3531384
307.3531384
)
;
    }
    procBoundary2to3
    {
        type            processor;
        value           nonuniform List<scalar> 
19
(
328.0077695
324.3629315
315.3937361
313.0676903
312.4519279
310.3913036
305.3883539
309.0885414
301.0572559
295.8801846
302.3054413
300.7407728
303.7786384
300.1879721
290.6550916
299.1113754
301.9277419
303.5539405
296.8545654
)
;
    }
}


// ************************************************************************* //
