/*--------------------------------*- C++ -*----------------------------------*\
  =========                 |
  \\      /  F ield         | OpenFOAM: The Open Source CFD Toolbox
   \\    /   O peration     | Website:  https://openfoam.org
    \\  /    A nd           | Version:  7
     \\/     M anipulation  |
\*---------------------------------------------------------------------------*/
FoamFile
{
    version     2.0;
    format      ascii;
    class       volScalarField;
    location    "0.1";
    object      k;
}
// * * * * * * * * * * * * * * * * * * * * * * * * * * * * * * * * * * * * * //

dimensions      [0 2 -2 0 0 0 0];

internalField   nonuniform List<scalar> 
7700
(
0.0105532
0.0153298
0.0198507
0.0230133
0.0252574
0.0268931
0.0281201
0.0290755
0.0298567
0.0305347
0.031162
0.0317793
0.0324194
0.0331112
0.0338824
0.0347614
0.0357787
0.0369663
0.0383544
0.0399635
0.0417899
0.043786
0.0458404
0.0477637
0.0492965
0.0501563
0.0501155
0.0490604
0.0471119
0.0450254
0.0430639
0.0414445
0.0403609
0.0399702
0.0400727
0.0392765
0.0371361
0.0348517
0.0325208
0.0301621
0.0276771
0.0251629
0.0226469
0.0198574
0.0167778
0.0152291
0.0154388
0.0310599
0.0400127
0.0459036
0.049951
0.0528177
0.0549134
0.056508
0.0577857
0.0588758
0.0598726
0.0608481
0.0618617
0.0629665
0.064214
0.065657
0.0673492
0.0693417
0.0716717
0.0743436
0.0773003
0.0803884
0.08333
0.0857231
0.0871052
0.0871083
0.0856706
0.0831544
0.0799871
0.0763818
0.0732233
0.0710881
0.0702211
0.0702115
0.0700424
0.0686029
0.0642546
0.058801
0.0557262
0.0538874
0.0511243
0.0478773
0.0447208
0.0409281
0.0343052
0.0193186
0.0183848
0.0379843
0.0487256
0.0556633
0.0604245
0.0638229
0.0663412
0.0682919
0.0698863
0.071272
0.0725566
0.0738231
0.0751403
0.0765708
0.078175
0.0800132
0.0821429
0.0846116
0.0874407
0.0906017
0.0939832
0.0973585
0.100367
0.102541
0.10341
0.10271
0.100639
0.0978726
0.0951285
0.0927363
0.0910044
0.0902247
0.0905726
0.0919715
0.0931318
0.0916063
0.0868133
0.0803367
0.074759
0.070656
0.0665131
0.0623238
0.0585797
0.0541499
0.046093
0.0251081
0.02031
0.0421869
0.0539468
0.0614225
0.06653
0.0701898
0.0729289
0.0750801
0.0768655
0.0784394
0.0799136
0.0813748
0.082895
0.0845393
0.0863695
0.0884447
0.0908167
0.0935197
0.0965524
0.0998524
0.103266
0.106523
0.109235
0.110946
0.111256
0.110056
0.107751
0.105151
0.102976
0.101635
0.101473
0.102566
0.104565
0.107592
0.111398
0.112211
0.104965
0.0925993
0.082832
0.0770049
0.0729332
0.0695938
0.066585
0.0625235
0.0540727
0.0296678
0.0216414
0.0449681
0.0573995
0.0652113
0.0705192
0.0743253
0.0771902
0.0794607
0.0813643
0.0830577
0.0846538
0.0862394
0.0878862
0.0896582
0.091614
0.0938064
0.0962768
0.099043
0.102081
0.105302
0.108528
0.111476
0.113776
0.115029
0.114948
0.113566
0.111412
0.109271
0.10779
0.107509
0.108817
0.110962
0.113706
0.1175
0.120776
0.118761
0.108395
0.0944332
0.0842958
0.0788772
0.0757298
0.0734892
0.0714717
0.0681477
0.0598438
0.0334163
0.0226143
0.0468938
0.0597952
0.0678383
0.0732745
0.077167
0.0801035
0.0824416
0.0844127
0.0861743
0.0878385
0.0894908
0.0912006
0.093028
0.0950261
0.0972391
0.0996961
0.1024
0.105308
0.108317
0.111244
0.11382
0.115724
0.116646
0.116413
0.115172
0.113485
0.111984
0.111155
0.111615
0.113312
0.115479
0.118643
0.121635
0.121579
0.115855
0.104646
0.0928269
0.084698
0.080293
0.0778433
0.0763139
0.0750249
0.072419
0.0645152
0.0367822
0.0233599
0.048274
0.0615107
0.0697183
0.075241
0.0791855
0.0821602
0.0845317
0.0865343
0.0883254
0.090016
0.0916892
0.093411
0.0952364
0.0972118
0.0993725
0.101736
0.104294
0.106993
0.109727
0.112323
0.11455
0.116154
0.116922
0.116787
0.115982
0.115022
0.114294
0.11396
0.114394
0.115872
0.118248
0.120561
0.12088
0.117797
0.110727
0.10099
0.0918968
0.0856617
0.0820661
0.0800304
0.0788956
0.0781108
0.0761933
0.068977
0.0401784
0.0239544
0.0492949
0.0627701
0.0710935
0.0766743
0.0806486
0.0836401
0.086022
0.0880309
0.0898237
0.0915099
0.0931696
0.0948651
0.0966463
0.0985528
0.100612
0.102833
0.1052
0.107658
0.110107
0.112399
0.114354
0.115792
0.116598
0.116797
0.116688
0.116681
0.116881
0.117044
0.117304
0.11889
0.120723
0.120955
0.11864
0.113717
0.106604
0.0986192
0.0916999
0.0868907
0.0839489
0.0822532
0.0814381
0.0811425
0.0800803
0.0742464
0.0441457
0.0244447
0.050073
0.063716
0.0721171
0.077734
0.0817225
0.0847162
0.087093
0.0890908
0.090866
0.0925262
0.0941486
0.0957916
0.0975005
0.0993093
0.101239
0.103295
0.105457
0.107677
0.10987
0.111923
0.11371
0.11513
0.116157
0.116896
0.117683
0.118818
0.120182
0.120969
0.121224
0.122611
0.122994
0.12098
0.116678
0.110779
0.104027
0.0974086
0.0919676
0.0881466
0.0857361
0.0843905
0.0839597
0.0843142
0.0845769
0.0816549
0.0495578
0.0248609
0.0506833
0.0644415
0.0728903
0.0785255
0.0825158
0.0855013
0.0878625
0.0898378
0.0915828
0.093203
0.0947731
0.096348
0.0979691
0.0996661
0.101457
0.103345
0.105312
0.107322
0.109311
0.111207
0.11294
0.114484
0.115888
0.117325
0.119136
0.121529
0.124293
0.125695
0.125976
0.126538
0.124975
0.120947
0.115288
0.108946
0.102629
0.0969713
0.09249
0.0893372
0.0873526
0.0863665
0.0864023
0.0876181
0.0899965
0.0929537
0.0574875
0.0142205
0.0166791
0.0193068
0.0218469
0.0234028
0.0242928
0.0247471
0.0249247
0.0249349
0.0248509
0.0247195
0.0245778
0.0244834
0.0243946
0.0243073
0.0242225
0.0241406
0.0240613
0.0239839
0.023908
0.0238335
0.0237605
0.023689
0.023619
0.0235499
0.0234808
0.02341
0.0233346
0.0232502
0.0231494
0.023021
0.0228468
0.0225991
0.0222344
0.0216856
0.0208468
0.0195458
0.0174949
0.0164318
0.0129685
0.0157943
0.0307678
0.0390155
0.0439645
0.0469363
0.0486752
0.0496431
0.0501339
0.0503361
0.0503701
0.0503121
0.0502095
0.0500845
0.0499611
0.049849
0.0497508
0.0496656
0.0495914
0.0495262
0.0494685
0.0494173
0.049372
0.0493318
0.0492956
0.0492616
0.0492268
0.0491868
0.0491346
0.0490598
0.0489461
0.0487691
0.048491
0.0480546
0.0473723
0.0463088
0.0446484
0.0420289
0.0377847
0.0303243
0.015838
0.018915
0.0381878
0.0481802
0.0540841
0.0576474
0.059782
0.061033
0.0617377
0.0621072
0.062274
0.0623214
0.062303
0.0622409
0.0621628
0.0620833
0.0620087
0.0619413
0.0618811
0.0618273
0.061779
0.0617357
0.0616966
0.0616609
0.0616271
0.0615929
0.0615547
0.0615067
0.0614404
0.0613423
0.0611923
0.0609603
0.060601
0.0600468
0.0591956
0.0578897
0.0558769
0.0527285
0.0476443
0.0387977
0.0191544
0.0209836
0.0430459
0.0541134
0.060506
0.0643334
0.0666389
0.0680181
0.068829
0.0692907
0.0695385
0.0696561
0.0696968
0.0696842
0.0696457
0.0695968
0.0695458
0.0694965
0.0694503
0.0694076
0.0693682
0.0693317
0.0692977
0.069265
0.069232
0.069196
0.0691527
0.0690954
0.0690141
0.0688934
0.0687109
0.0684335
0.0680124
0.0673758
0.0664158
0.0649665
0.0627598
0.0593344
0.0538062
0.0440684
0.0215236
0.0225223
0.0468511
0.0586799
0.0653141
0.0692124
0.0715431
0.0729403
0.0737729
0.0742615
0.0745397
0.0746887
0.0747587
0.0747742
0.0747603
0.0747319
0.0746975
0.0746613
0.0746257
0.0745915
0.0745588
0.0745275
0.0744971
0.0744664
0.0744334
0.0743949
0.0743461
0.0742793
0.0741835
0.0740419
0.0738304
0.0735143
0.0730431
0.0723429
0.0713039
0.0697557
0.0674219
0.0638192
0.0580017
0.0476472
0.0232065
0.0238657
0.0503259
0.0627358
0.0694162
0.0732088
0.0754253
0.0767354
0.0775103
0.0779651
0.0782267
0.0783709
0.0784423
0.0784646
0.0784595
0.0784402
0.078414
0.0783852
0.0783557
0.0783267
0.0782983
0.0782703
0.078242
0.0782121
0.0781782
0.0781367
0.0780821
0.0780061
0.0778965
0.0777358
0.0774986
0.0771492
0.0766363
0.0758852
0.0747847
0.0731623
0.0707349
0.0670028
0.0609723
0.0501636
0.0244104
0.0253767
0.0537314
0.0667011
0.0733068
0.0768152
0.078767
0.0798796
0.0805176
0.0808811
0.0810838
0.0811914
0.0812392
0.0812493
0.0812389
0.0812179
0.0811921
0.0811647
0.0811371
0.0811099
0.0810833
0.0810566
0.081029
0.0809987
0.0809632
0.0809182
0.0808577
0.0807727
0.0806502
0.080472
0.080212
0.0798338
0.0792856
0.0784923
0.077342
0.0756599
0.073158
0.0693225
0.0631229
0.0519651
0.0252763
0.0279798
0.056969
0.0707116
0.0772502
0.0803024
0.0818294
0.082632
0.0830576
0.0832782
0.0833853
0.0834295
0.0834336
0.0834162
0.0833885
0.0833569
0.0833247
0.0832935
0.0832638
0.0832356
0.0832084
0.0831812
0.0831529
0.0831212
0.0830832
0.0830342
0.0829677
0.0828739
0.0827395
0.0825453
0.082265
0.0818616
0.081283
0.0804539
0.0792615
0.0775292
0.0749642
0.0710413
0.0647012
0.0532674
0.0259006
0.0340888
0.0605652
0.0750613
0.0813829
0.0837802
0.0847284
0.0851214
0.0852722
0.0853096
0.0852935
0.0852528
0.0851993
0.0851433
0.0850896
0.0850405
0.0849965
0.0849574
0.0849223
0.0848905
0.0848607
0.0848315
0.0848012
0.0847672
0.0847261
0.0846727
0.0846
0.0844979
0.0843521
0.0841434
0.0838448
0.0834192
0.0828141
0.0819539
0.0807249
0.0789488
0.0763284
0.0723289
0.0658691
0.0542133
0.0263511
0.0454549
0.0671808
0.0807451
0.0857785
0.0872115
0.087464
0.087386
0.0872267
0.0870585
0.0869043
0.0867664
0.0866467
0.0865451
0.0864597
0.0863885
0.086329
0.0862789
0.0862361
0.0861987
0.0861648
0.0861323
0.086099
0.0860619
0.0860171
0.0859591
0.0858802
0.0857699
0.0856136
0.0853916
0.0850765
0.084631
0.0840024
0.0831146
0.0818532
0.080038
0.0773678
0.0733002
0.066737
0.0549009
0.0266764
0.0252233
0.0511769
0.0650121
0.0734851
0.0791241
0.0831064
0.0860759
0.0884142
0.0903598
0.0920669
0.0936391
0.0951486
0.0966475
0.0981743
0.0997563
0.10141
0.103141
0.104938
0.106778
0.108627
0.110452
0.11224
0.114031
0.115938
0.118181
0.121084
0.124755
0.128934
0.130838
0.131274
0.130362
0.126663
0.12095
0.114402
0.107905
0.101987
0.0969958
0.093144
0.0904489
0.0887998
0.088146
0.0886433
0.0907033
0.0951137
0.101527
0.0704605
0.0255492
0.0515895
0.0654711
0.0739484
0.0795782
0.0835437
0.0864906
0.0888008
0.0907119
0.0923766
0.0938968
0.0953423
0.0967631
0.098196
0.0996674
0.101195
0.102788
0.104447
0.106166
0.107941
0.109778
0.111718
0.113857
0.116361
0.119481
0.123506
0.12844
0.133832
0.136478
0.136847
0.133983
0.128187
0.121105
0.113956
0.107431
0.101835
0.0972994
0.0938654
0.0914859
0.0900884
0.0896923
0.0905134
0.0930245
0.0979992
0.104758
0.0937628
0.0258458
0.0519414
0.0658458
0.0743109
0.0799201
0.0838611
0.0867799
0.0890581
0.0909319
0.0925526
0.09402
0.0954021
0.0967477
0.0980924
0.0994635
0.100882
0.102363
0.10392
0.105568
0.107329
0.109252
0.111423
0.113986
0.117149
0.121185
0.126355
0.132592
0.139249
0.14292
0.142658
0.137549
0.129778
0.121525
0.113908
0.107369
0.102001
0.0977733
0.0946187
0.0924569
0.0912358
0.0910031
0.0919682
0.0945278
0.0992152
0.106232
0.109047
0.0261197
0.0522489
0.0661577
0.0745972
0.080176
0.0840855
0.0869716
0.0892148
0.09105
0.0926265
0.0940425
0.0953645
0.0966403
0.0979058
0.09919
0.100518
0.101914
0.103406
0.105027
0.10683
0.108899
0.11136
0.114402
0.118263
0.123242
0.129588
0.137232
0.145361
0.150064
0.148617
0.141185
0.131565
0.122249
0.114199
0.107609
0.102379
0.0983504
0.0953824
0.0933692
0.092263
0.0921119
0.0930904
0.0954992
0.0997069
0.106081
0.112496
0.0263758
0.0525236
0.0664225
0.0748257
0.0803661
0.0842381
0.0870874
0.0892934
0.0910892
0.0926225
0.0939897
0.0952563
0.0964696
0.0976663
0.0988783
0.100136
0.101474
0.102932
0.104567
0.106456
0.108717
0.111514
0.115068
0.119652
0.125593
0.133153
0.142324
0.152103
0.157613
0.154549
0.144864
0.133537
0.123235
0.114752
0.108059
0.102891
0.0989828
0.0961369
0.0942223
0.0931833
0.0930537
0.0939661
0.0961405
0.0998336
0.105269
0.111719
0.0266175
0.052774
0.0666523
0.0750109
0.0805061
0.0843355
0.0871446
0.0893115
0.0910678
0.0925593
0.0938811
0.0950978
0.0962565
0.0973955
0.09855
0.0997568
0.101059
0.102513
0.104194
0.106205
0.108693
0.111854
0.115943
0.121265
0.128179
0.136986
0.147778
0.159242
0.165167
0.160239
0.14845
0.135589
0.124388
0.115477
0.10864
0.103475
0.0996321
0.0968625
0.0950098
0.0940022
0.0938512
0.0946474
0.0965418
0.0996965
0.104179
0.109527
0.0268473
0.0530062
0.0668557
0.0751636
0.0806084
0.0843912
0.0871572
0.0892836
0.0910004
0.092452
0.093732
0.0949043
0.0960164
0.0971083
0.0982191
0.099392
0.10068
0.102154
0.103907
0.106066
0.108804
0.112349
0.116986
0.12305
0.130942
0.141009
0.153456
0.166487
0.172316
0.165436
0.151762
0.137583
0.125597
0.116284
0.109283
0.104083
0.100266
0.0975404
0.0957227
0.0947201
0.0945178
0.0951654
0.0967513
0.0993499
0.102908
0.10698
0.027067
0.0532248
0.0670396
0.0752924
0.0806829
0.0844159
0.0871367
0.0892215
0.0908992
0.0923126
0.0935543
0.0946876
0.0957606
0.0968153
0.0978947
0.0990488
0.100341
0.101853
0.103698
0.106024
0.10903
0.112969
0.118156
0.124963
0.133828
0.145153
0.159238
0.173684
0.178811
0.169949
0.154653
0.139396
0.126761
0.117095
0.109928
0.104674
0.100858
0.0981546
0.0963526
0.0953366
0.0950642
0.0955462
0.0968168
0.0988799
0.101614
0.104609
0.0272779
0.0534329
0.0672089
0.0754037
0.0807375
0.0844184
0.0870923
0.089135
0.0907739
0.092151
0.0933576
0.0944569
0.0954976
0.0965238
0.0975826
0.0987304
0.10004
0.101606
0.103558
0.106065
0.109347
0.113686
0.119423
0.126964
0.13679
0.149353
0.165044
0.180729
0.184558
0.173714
0.157055
0.140954
0.127809
0.11785
0.110533
0.105216
0.101389
0.0986932
0.0968941
0.0958531
0.0955012
0.0958152
0.0967857
0.0983703
0.100419
0.102589
0.0274809
0.053633
0.0673671
0.0755025
0.0807781
0.0844057
0.0870318
0.0890319
0.0906327
0.091975
0.0931496
0.0942192
0.0952335
0.0962388
0.0972861
0.0984382
0.0997766
0.101409
0.103479
0.106175
0.109739
0.114477
0.120759
0.129024
0.139789
0.15356
0.170808
0.187439
0.189491
0.17675
0.158967
0.142227
0.128699
0.11851
0.111064
0.105689
0.101845
0.0991494
0.0973456
0.0962739
0.0958413
0.0959961
0.0966975
0.097875
0.0993798
0.100937
0.0276766
0.0538266
0.0675169
0.0755923
0.0808094
0.0843831
0.0869611
0.0889187
0.0904821
0.0917913
0.0929364
0.0939802
0.0949732
0.0959639
0.0970073
0.0981723
0.0995487
0.101256
0.103452
0.106343
0.110191
0.115327
0.122146
0.13112
0.142799
0.157728
0.176441
0.193599
0.193571
0.179105
0.160426
0.143219
0.129415
0.119052
0.111504
0.10608
0.10222
0.0995208
0.0977096
0.0966063
0.0960978
0.0961098
0.0965803
0.0974253
0.0985079
0.0996136
0.0278653
0.0540147
0.0676601
0.0756758
0.0808347
0.0843548
0.086885
0.0888006
0.0903275
0.091605
0.092723
0.0937443
0.0947203
0.0957017
0.0967475
0.0979322
0.0993538
0.101143
0.10347
0.106559
0.110692
0.116221
0.123569
0.133238
0.145802
0.161833
0.181887
0.199083
0.19681
0.180854
0.161491
0.143956
0.129958
0.119468
0.111844
0.106382
0.10251
0.0998096
0.0979913
0.0968594
0.0962837
0.0961735
0.0964523
0.0970333
0.0977935
0.0985674
0.0280473
0.0541977
0.0677976
0.0757548
0.0808565
0.0843239
0.0868069
0.0886813
0.0901727
0.0914202
0.0925132
0.0935147
0.0944774
0.0954541
0.0965073
0.0977173
0.0991898
0.101065
0.103528
0.106816
0.111232
0.11715
0.125019
0.135369
0.148794
0.165878
0.187137
0.203851
0.199297
0.182117
0.162247
0.144479
0.130341
0.11976
0.112081
0.106595
0.102718
0.100021
0.0981987
0.0970434
0.0964115
0.0962004
0.0963253
0.0966989
0.0972159
0.0977456
0.0282228
0.0543762
0.0679304
0.0758304
0.0808764
0.0842925
0.0867296
0.0885639
0.0900211
0.09124
0.0923099
0.0932943
0.0942467
0.0952224
0.0962873
0.0975271
0.0990549
0.101021
0.103621
0.10711
0.111808
0.11811
0.126492
0.137511
0.151783
0.169889
0.192224
0.207969
0.201231
0.183059
0.162789
0.14483
0.130582
0.119933
0.11222
0.106723
0.102851
0.100162
0.0983407
0.0971687
0.0964922
0.0962004
0.096204
0.0964184
0.0967517
0.0970997
0.0283919
0.0545501
0.0680587
0.0759035
0.0808958
0.0842622
0.0866549
0.0884505
0.0898749
0.0910667
0.0921154
0.0930848
0.0940298
0.0950076
0.0960878
0.0973611
0.0989479
0.101007
0.103748
0.107438
0.112414
0.119096
0.127983
0.139664
0.154776
0.173904
0.197172
0.21153
0.202843
0.183832
0.163189
0.145044
0.130696
0.119998
0.112267
0.106774
0.102916
0.100241
0.0984269
0.0972452
0.0965355
0.096181
0.0960908
0.0961836
0.0963787
0.096591
0.0285546
0.0547197
0.068183
0.0759745
0.0809152
0.0842341
0.0865841
0.0883427
0.0897357
0.090902
0.0919312
0.0928878
0.0938277
0.0948104
0.095909
0.0972193
0.0988682
0.101024
0.103906
0.107797
0.11305
0.120107
0.129492
0.141827
0.157777
0.177952
0.201914
0.214507
0.204246
0.18449
0.16347
0.14513
0.130693
0.119963
0.112232
0.106756
0.102921
0.100268
0.0984667
0.0972823
0.0965493
0.0961478
0.095986
0.0959865
0.0960774
0.0961875
0.0287112
0.0548852
0.0683035
0.0760437
0.0809353
0.0842087
0.0865181
0.0882413
0.0896047
0.0907472
0.0917586
0.0927043
0.0936413
0.0946314
0.0957513
0.0971014
0.0988155
0.10107
0.104096
0.108187
0.113716
0.121142
0.131018
0.143996
0.160779
0.182027
0.206304
0.216823
0.205384
0.184975
0.163596
0.14508
0.130575
0.119836
0.112124
0.106679
0.102878
0.100253
0.0984692
0.0972882
0.0965406
0.0961046
0.0958889
0.0958197
0.0958317
0.0958641
0.0288616
0.0550466
0.0684203
0.0761114
0.0809562
0.0841865
0.0864573
0.0881472
0.0894826
0.0906029
0.0915984
0.0925349
0.0934712
0.0944712
0.0956149
0.0970077
0.0987898
0.101146
0.104317
0.10861
0.114412
0.122203
0.13256
0.146168
0.163766
0.186072
0.21029
0.218562
0.206159
0.185197
0.163522
0.144878
0.130344
0.119624
0.111953
0.106553
0.102793
0.100203
0.0984426
0.0972702
0.0965149
0.0960545
0.0957986
0.0956765
0.0956286
0.0956013
0.0290059
0.055204
0.0685335
0.0761776
0.0809781
0.0841677
0.0864022
0.0880607
0.08937
0.0904699
0.091451
0.0923804
0.093318
0.0943302
0.0955004
0.0969388
0.0987919
0.101253
0.104571
0.109066
0.11514
0.123292
0.134121
0.148342
0.166724
0.190022
0.21402
0.220014
0.206595
0.18513
0.16323
0.144521
0.130005
0.119338
0.111727
0.106386
0.102678
0.100128
0.0983942
0.0972345
0.0964771
0.096
0.0957143
0.095552
0.095458
0.0953845
0.0291441
0.0553574
0.0686431
0.0762425
0.081001
0.0841524
0.0863529
0.087982
0.0892672
0.0903484
0.0913171
0.0922412
0.0931822
0.094209
0.0954085
0.0968955
0.0988229
0.101391
0.10486
0.109559
0.115906
0.124414
0.135707
0.150523
0.169659
0.193886
0.217705
0.22144
0.206818
0.184826
0.162741
0.144021
0.129568
0.118985
0.111457
0.106189
0.102539
0.100034
0.0983304
0.0971867
0.0964313
0.0959432
0.0956353
0.0954423
0.0953125
0.0952025
0.0292762
0.0555066
0.0687491
0.0763058
0.0810251
0.0841407
0.0863095
0.0879115
0.0891744
0.090239
0.0911972
0.092118
0.0930647
0.0941087
0.0953403
0.0968793
0.0988846
0.101564
0.105187
0.110094
0.116714
0.125577
0.137326
0.152722
0.172589
0.197725
0.221411
0.222918
0.206953
0.18436
0.162095
0.143399
0.129047
0.118578
0.111152
0.105968
0.102384
0.0999275
0.0982571
0.0971315
0.0963811
0.0958862
0.0955617
0.0953447
0.0951867
0.0950475
0.0294023
0.0556517
0.0688515
0.0763678
0.0810502
0.0841326
0.0862722
0.0878493
0.0890922
0.0901421
0.0910918
0.0920116
0.0929664
0.0940303
0.0952973
0.0968921
0.0989797
0.101776
0.105557
0.110676
0.117572
0.126789
0.138988
0.154948
0.175519
0.201536
0.225091
0.224442
0.207034
0.183766
0.161314
0.142673
0.128456
0.118126
0.11082
0.105731
0.102219
0.0998148
0.0981791
0.0970733
0.0963297
0.0958308
0.0954936
0.0952576
0.0950767
0.0949137
0.0295223
0.0557928
0.0689504
0.0764283
0.0810765
0.0841285
0.0862414
0.0877961
0.0890212
0.0900585
0.0910021
0.0919232
0.0928889
0.0939758
0.0952819
0.0969367
0.0991114
0.102029
0.105976
0.111313
0.11849
0.128064
0.140707
0.157214
0.178455
0.205301
0.228668
0.225898
0.206997
0.183025
0.160405
0.141855
0.127806
0.117641
0.11047
0.105485
0.102051
0.0997009
0.0981011
0.0970158
0.0962802
0.0957791
0.0954318
0.0951801
0.0949802
0.0947972
0.0296363
0.05593
0.0690458
0.0764877
0.0811044
0.0841287
0.0862176
0.0877524
0.0889621
0.0899895
0.0909294
0.0918546
0.0928342
0.0939478
0.0952971
0.0970168
0.0992844
0.102331
0.10645
0.112013
0.11948
0.129417
0.142504
0.159542
0.181413
0.209012
0.23206
0.227148
0.206738
0.182097
0.159366
0.140957
0.127112
0.117133
0.110112
0.105238
0.101885
0.0995908
0.0980275
0.0969629
0.0962355
0.095733
0.0953771
0.0951119
0.0948956
0.0946955
0.0297444
0.0560634
0.069138
0.0765461
0.0811342
0.0841338
0.0862017
0.0877193
0.0889165
0.0899367
0.0908758
0.0918083
0.0928055
0.0939499
0.0953472
0.0971373
0.0995043
0.102686
0.106987
0.112786
0.120554
0.130864
0.1444
0.16196
0.184421
0.212682
0.235179
0.228047
0.206172
0.18096
0.158208
0.139999
0.126392
0.116617
0.109754
0.104997
0.101727
0.0994896
0.0979625
0.0969181
0.0961985
0.0956947
0.0953308
0.0950532
0.0948221
0.0946066
0.0298464
0.0561933
0.0692272
0.0766042
0.0811668
0.0841449
0.086195
0.0876986
0.0888864
0.0899025
0.0908444
0.0917881
0.0928071
0.0939871
0.0954379
0.0973048
0.0997784
0.103105
0.107597
0.113645
0.121728
0.132427
0.146428
0.164512
0.187531
0.216349
0.237925
0.228481
0.205257
0.179629
0.156964
0.139012
0.125667
0.116108
0.109407
0.104769
0.101583
0.0994027
0.0979106
0.096885
0.0961722
0.0956663
0.0952942
0.0950045
0.0947594
0.0945295
0.0299422
0.0563194
0.0693134
0.0766622
0.081203
0.0841633
0.0861993
0.0876926
0.0888746
0.0898907
0.0908394
0.0917988
0.0928447
0.0940661
0.0955769
0.0975277
0.100116
0.103596
0.10829
0.114599
0.123016
0.134127
0.148618
0.167249
0.190822
0.220095
0.240226
0.228404
0.204034
0.178176
0.155697
0.138037
0.124963
0.115621
0.109084
0.104564
0.101461
0.0993355
0.0978765
0.0968675
0.0961594
0.0956498
0.0952686
0.0949664
0.0947074
0.0944636
0.0300318
0.0564417
0.0693969
0.0767211
0.0812441
0.0841911
0.0862172
0.0877046
0.0888853
0.089906
0.0908667
0.0918474
0.0929264
0.094196
0.0957742
0.0978171
0.100529
0.104172
0.109079
0.115663
0.12443
0.135981
0.151001
0.170232
0.194405
0.224053
0.242101
0.227918
0.202658
0.176732
0.154489
0.13712
0.124305
0.115172
0.108794
0.104391
0.101368
0.0992945
0.0978653
0.0968697
0.0961633
0.0956477
0.0952555
0.0949397
0.094666
0.0944082
0.0301156
0.0565601
0.0694779
0.0767816
0.0812919
0.0842307
0.0862523
0.087739
0.088924
0.0899552
0.0909342
0.0919431
0.0930628
0.0943887
0.0960431
0.0981872
0.101031
0.104847
0.109976
0.116847
0.125981
0.137999
0.153599
0.173514
0.198409
0.228381
0.24367
0.227293
0.201374
0.175445
0.153412
0.136294
0.123712
0.114774
0.108549
0.104259
0.101313
0.0992867
0.0978825
0.0968956
0.0961869
0.0956618
0.0952561
0.0949248
0.0946354
0.0943629
0.0301961
0.0566755
0.0695571
0.0768451
0.0813486
0.0842855
0.0863091
0.087802
0.0889983
0.0900473
0.0910526
0.0920983
0.0932679
0.09466
0.0964008
0.0986562
0.101643
0.105639
0.110999
0.118163
0.127675
0.14018
0.156407
0.177112
0.202944
0.233127
0.244973
0.226802
0.200366
0.17439
0.152485
0.135562
0.123187
0.114435
0.10836
0.104178
0.101305
0.0993197
0.097934
0.0969497
0.0962332
0.0956942
0.0952714
0.0949222
0.0946154
0.0943271
0.0302792
0.0567897
0.0696364
0.0769137
0.0814174
0.0843603
0.0863943
0.0879019
0.0891184
0.0901945
0.0912359
0.0923288
0.0935597
0.0950299
0.0968694
0.0992481
0.102387
0.106573
0.112167
0.119625
0.129513
0.142507
0.159386
0.18097
0.207999
0.237952
0.245694
0.226394
0.199559
0.173474
0.151638
0.134888
0.12272
0.11416
0.108236
0.104162
0.101353
0.0994018
0.098026
0.0970361
0.0963048
0.0957463
0.0953022
0.094932
0.0946057
0.0943002
0.030379
0.0569108
0.0697179
0.0769898
0.0815023
0.0844615
0.0865166
0.0880499
0.0892976
0.0904123
0.0915019
0.0926552
0.0939612
0.0955244
0.0974773
0.0999931
0.103297
0.107678
0.113507
0.121251
0.131496
0.144954
0.162458
0.184927
0.213274
0.242178
0.245632
0.225705
0.198591
0.172438
0.150723
0.134206
0.122293
0.113953
0.108193
0.104223
0.101471
0.0995414
0.0981641
0.0971585
0.0964039
0.0958192
0.0953488
0.0949539
0.0946053
0.0942812
0.0305292
0.0570587
0.0698174
0.0770831
0.0816123
0.0845996
0.086689
0.0882615
0.0895539
0.0907211
0.0918735
0.093103
0.0945014
0.0961757
0.0982605
0.10093
0.104412
0.108996
0.115057
0.123069
0.133633
0.147491
0.165529
0.188754
0.218212
0.24573
0.245247
0.224408
0.197023
0.170969
0.14958
0.133454
0.121894
0.113823
0.108242
0.104375
0.101669
0.0997469
0.0983536
0.0973197
0.0965316
0.0959129
0.0954106
0.0949868
0.0946134
0.0942689
0.0307822
0.0572613
0.0699569
0.0772145
0.0817667
0.0847941
0.0869319
0.0885582
0.0899104
0.0911458
0.0923784
0.0937033
0.0952154
0.0970238
0.099264
0.10211
0.105787
0.110584
0.116871
0.125124
0.135949
0.150108
0.168529
0.192295
0.222553
0.248813
0.24451
0.222162
0.194515
0.16886
0.148095
0.132581
0.121507
0.11377
0.108389
0.104623
0.10195
0.100019
0.098594
0.0975186
0.0966868
0.0960262
0.0954862
0.0950295
0.0946286
0.0942622
0.0311126
0.0576378
0.070182
0.077408
0.0819934
0.0850755
0.0872757
0.0889695
0.090396
0.0917162
0.0930484
0.0944919
0.0961445
0.0981166
0.100543
0.103596
0.107493
0.112517
0.119027
0.12749
0.138503
0.152827
0.171417
0.195433
0.226164
0.250853
0.242597
0.218461
0.1908
0.165956
0.146202
0.131567
0.121132
0.113798
0.108639
0.104967
0.102312
0.100354
0.0988814
0.097751
0.0968649
0.0961548
0.0955716
0.0950792
0.0946489
0.0942593
0.0315225
0.0584018
0.0705726
0.0777275
0.0823451
0.0854904
0.0877626
0.0895324
0.0910439
0.0924643
0.0939177
0.095508
0.0973354
0.0995106
0.102166
0.105467
0.109622
0.114899
0.12164
0.130284
0.141401
0.155723
0.174196
0.198028
0.228664
0.250409
0.238096
0.212587
0.18557
0.162176
0.143906
0.130442
0.120792
0.11392
0.108992
0.105405
0.102748
0.100744
0.0992073
0.098009
0.0970593
0.0962931
0.0956625
0.0951311
0.0946703
0.0942572
0.0322656
0.0599966
0.0712821
0.0783072
0.0829495
0.0861437
0.0884687
0.0903019
0.091897
0.0934278
0.0950252
0.0967968
0.098844
0.101275
0.104217
0.107825
0.112294
0.11787
0.124866
0.133683
0.144834
0.158983
0.176989
0.200037
0.229757
0.246194
0.229686
0.203979
0.178746
0.157626
0.141334
0.129289
0.12053
0.114149
0.109446
0.105923
0.103242
0.101174
0.0995574
0.0982806
0.09726
0.0964331
0.0957525
0.0951809
0.0946888
0.0942524
0.0341488
0.0632698
0.0723608
0.0792811
0.0839725
0.0871809
0.0895022
0.0913507
0.0930036
0.0946444
0.0964088
0.0984039
0.100729
0.103486
0.106791
0.110787
0.115649
0.121597
0.128907
0.137925
0.149091
0.162949
0.180146
0.201612
0.229043
0.238128
0.21749
0.193097
0.170883
0.152744
0.138755
0.128247
0.120397
0.114488
0.10998
0.106493
0.103767
0.101617
0.0999113
0.0985493
0.097454
0.0965649
0.0958339
0.0952227
0.0947003
0.094242
0.0354881
0.0639758
0.0732464
0.0804655
0.0853652
0.0886083
0.0908612
0.0926593
0.09434
0.0960873
0.098048
0.100326
0.103008
0.106188
0.109964
0.114456
0.119826
0.126261
0.133994
0.143311
0.154572
0.168202
0.184443
0.203362
0.224992
0.223736
0.202671
0.181509
0.163127
0.148203
0.136505
0.127449
0.120421
0.114915
0.110554
0.107073
0.104282
0.102042
0.100242
0.0987946
0.097626
0.0966768
0.0958982
0.0952502
0.0947004
0.0942227
0.0357962
0.0631003
0.0727823
0.0806435
0.0859708
0.0894424
0.0917639
0.0936119
0.0954119
0.0973742
0.0996437
0.102321
0.105485
0.109212
0.11358
0.118697
0.124694
0.131729
0.139985
0.149669
0.161019
0.174315
0.189519
0.204724
0.213821
0.20467
0.187819
0.171167
0.156607
0.144554
0.134802
0.126941
0.120569
0.115366
0.111099
0.107599
0.104737
0.102408
0.10052
0.0989935
0.097759
0.0967568
0.0959366
0.095257
0.0946843
0.0941912
0.0356861
0.0622975
0.0721191
0.0800843
0.0858506
0.0896882
0.0923076
0.0943911
0.0964014
0.0985981
0.101153
0.104173
0.107734
0.111898
0.116729
0.122308
0.128724
0.136088
0.144505
0.154039
0.164674
0.176216
0.187987
0.197122
0.196997
0.18849
0.17597
0.163215
0.151725
0.141887
0.133601
0.126624
0.120727
0.115735
0.111524
0.107998
0.105073
0.10267
0.100711
0.0991226
0.0978363
0.0967927
0.0959407
0.0952375
0.0946481
0.0941447
0.0356218
0.06091
0.0720146
0.0796814
0.085389
0.0895597
0.0926484
0.0951376
0.0974289
0.0998068
0.102474
0.105569
0.109189
0.113408
0.118284
0.123876
0.130238
0.137417
0.145413
0.154129
0.163302
0.172341
0.180062
0.184364
0.182918
0.176293
0.167018
0.157247
0.148074
0.139865
0.132635
0.126287
0.120728
0.115892
0.111729
0.108195
0.105236
0.102789
0.100788
0.0991612
0.0978433
0.0967746
0.0959035
0.0951867
0.0945886
0.0940809
0.0359335
0.0606269
0.0724406
0.0798563
0.0853022
0.0894775
0.0927642
0.0955003
0.0979907
0.100487
0.103189
0.106246
0.109771
0.113845
0.118527
0.123858
0.129857
0.136507
0.143717
0.151287
0.158828
0.165692
0.170881
0.17316
0.171633
0.166758
0.159943
0.152434
0.145002
0.138002
0.131552
0.125679
0.120396
0.11571
0.111625
0.108125
0.105179
0.102733
0.100727
0.099094
0.0977696
0.0966954
0.0958204
0.0951016
0.0945038
0.0939988
0.0363136
0.0612495
0.0732016
0.0803471
0.0854732
0.0894908
0.0927844
0.0956106
0.0981935
0.100735
0.103411
0.106366
0.109714
0.113539
0.117899
0.122819
0.128291
0.134253
0.140563
0.146975
0.153099
0.158372
0.162095
0.163571
0.162426
0.158956
0.153928
0.148072
0.141939
0.135867
0.130046
0.124593
0.119591
0.115099
0.111151
0.107751
0.104877
0.102485
0.100518
0.0989139
0.0976106
0.0965522
0.0956897
0.0949814
0.0943932
0.093898
0.036382
0.0619012
0.0739983
0.0809898
0.0858403
0.0896232
0.0927818
0.0955525
0.0981114
0.100615
0.103208
0.106016
0.109145
0.112673
0.116653
0.1211
0.125987
0.13123
0.136673
0.142069
0.147076
0.151259
0.154139
0.155307
0.154574
0.152103
0.148313
0.143641
0.138494
0.133183
0.127935
0.122915
0.118249
0.114025
0.110292
0.107066
0.10433
0.102047
0.100164
0.0986231
0.0973684
0.096347
0.095513
0.0948274
0.0942582
0.0937797
0.0361328
0.0622547
0.0745876
0.0815893
0.086283
0.0898516
0.0928158
0.0954347
0.0978715
0.100256
0.102705
0.105323
0.108201
0.111407
0.114984
0.11894
0.123238
0.127791
0.132446
0.136984
0.14112
0.144524
0.146863
0.14787
0.147427
0.14561
0.142661
0.138852
0.134493
0.12986
0.125182
0.120646
0.116392
0.112517
0.10908
0.106098
0.103562
0.101437
0.0996775
0.0982328
0.0970515
0.0960862
0.0952952
0.0946434
0.0941014
0.0936458
0.0357224
0.0622988
0.0748823
0.0819998
0.086655
0.0900823
0.0928651
0.0953007
0.0975622
0.099771
0.102027
0.104417
0.107016
0.109881
0.113044
0.116507
0.120232
0.124133
0.128075
0.131869
0.135287
0.138075
0.139991
0.140848
0.140557
0.139157
0.136794
0.133652
0.129966
0.125975
0.12189
0.117891
0.114117
0.110663
0.107585
0.104906
0.102616
0.100689
0.0990859
0.0977622
0.0966739
0.0957799
0.0950439
0.0944348
0.0939269
0.0934994
0.0352404
0.0621247
0.0749089
0.0821711
0.0868599
0.0902179
0.0928641
0.0951291
0.0972036
0.0992119
0.101247
0.103384
0.105685
0.108195
0.110939
0.113913
0.117081
0.120365
0.123648
0.126776
0.129564
0.131819
0.133359
0.134048
0.133818
0.132691
0.130766
0.128177
0.1251
0.121731
0.118253
0.114827
0.111574
0.108584
0.105908
0.103565
0.101552
0.0998483
0.0984213
0.0972351
0.0962532
0.0954411
0.0947683
0.0942085
0.0937397
0.0933441
0.0347458
0.0618247
0.0747371
0.0821223
0.086869
0.0902034
0.0927574
0.0948815
0.0967822
0.0985904
0.100397
0.102272
0.104268
0.106421
0.108749
0.111247
0.113881
0.116584
0.119259
0.121781
0.124005
0.125784