/*--------------------------------*- C++ -*----------------------------------*\
  =========                 |
  \\      /  F ield         | OpenFOAM: The Open Source CFD Toolbox
   \\    /   O peration     | Website:  https://openfoam.org
    \\  /    A nd           | Version:  7
     \\/     M anipulation  |
\*---------------------------------------------------------------------------*/
FoamFile
{
    version     2.0;
    format      ascii;
    class       volScalarField;
    location    "0.1";
    object      p_rgh;
}
// * * * * * * * * * * * * * * * * * * * * * * * * * * * * * * * * * * * * * //

dimensions      [1 -1 -2 0 0 0 0];

internalField   nonuniform List<scalar> 
7700
(
1559.39
1562.17
1563.13
1561.69
1557
1548.75
1536.98
1521.81
1503.35
1481.71
1456.95
1429.09
1398.1
1363.91
1326.38
1285.28
1240.32
1191.09
1137.06
1077.6
1011.92
939.21
858.732
770.118
673.864
572.047
468.919
371.458
289.095
219.853
162.689
116.039
82.5497
62.3557
42.8796
12.7381
5.08332
3.19834
2.62674
2.45669
2.39658
2.36575
2.34577
2.33326
2.32539
2.32585
1557.95
1560.1
1559.72
1556.81
1551.08
1542.2
1530.06
1514.68
1496.11
1474.37
1449.5
1421.5
1390.3
1355.83
1317.92
1276.33
1230.73
1180.71
1125.7
1065.03
997.935
923.622
841.448
751.226
653.755
551.534
449.296
353.479
269.276
203.992
153.098
109.893
62.8889
20.5275
7.72072
6.14526
3.91195
2.66578
2.43148
2.40665
2.38534
2.36264
2.34424
2.33245
2.32543
2.32587
1556.89
1559.02
1557.63
1553.21
1546.18
1536.33
1523.51
1507.65
1488.72
1466.69
1441.53
1413.22
1381.66
1346.73
1308.26
1265.98
1219.53
1168.47
1112.22
1050.12
981.434
905.461
821.726
730.301
632.353
530.802
430.55
337.491
256.623
191.963
138.239
76.354
20.4621
4.11173
2.64074
2.50414
2.654
2.69548
2.4684
2.3369
2.33285
2.32427
2.31409
2.30759
2.30551
2.31019
1555.96
1558.48
1556.83
1551.6
1543.61
1532.89
1519.33
1502.88
1483.45
1461
1435.45
1406.72
1374.73
1339.32
1300.28
1257.34
1210.12
1158.18
1100.94
1037.78
967.999
891.01
806.463
714.596
616.744
515.863
416.143
321.954
239.276
162.867
74.0631
15.1044
4.4525
3.11014
2.35963
2.09795
2.03617
2.08087
2.20743
2.26967
2.26801
2.26615
2.26442
2.26396
2.26852
2.28039
1555.3
1558.13
1556.58
1551.06
1542.56
1531.27
1517.17
1500.2
1480.33
1457.45
1431.51
1402.4
1370.01
1334.17
1294.66
1251.2
1203.43
1150.89
1093.05
1029.29
959.018
881.691
797.049
705.391
608.058
507.601
406.413
308.621
202.965
75.9429
10.1446
3.64408
2.91601
2.44061
2.20784
2.08333
2.03739
2.05187
2.10939
2.17019
2.19731
2.20385
2.20649
2.20982
2.21934
2.23672
1555.08
1558.06
1556.69
1551.19
1542.51
1530.93
1516.49
1499.18
1478.96
1455.75
1429.49
1400.06
1367.35
1331.17
1291.32
1247.51
1199.39
1146.52
1088.4
1024.48
954.188
877.081
792.954
702.139
605.935
506.014
402.328
284.095
111.394
10.481
3.48565
2.74228
2.31072
2.17939
2.12651
2.07849
2.04982
2.05412
2.08344
2.11571
2.13441
2.14179
2.14469
2.14826
2.15944
2.17911
1555.47
1558.46
1557.29
1551.97
1543.33
1531.68
1517.1
1499.61
1479.18
1455.77
1429.28
1399.64
1366.7
1330.31
1290.25
1246.25
1197.98
1145.03
1086.94
1023.2
953.323
876.938
793.911
704.651
610.426
511.464
406.457
214.255
28.8553
4.0118
2.74553
2.32825
2.16105
2.11045
2.08941
2.06511
2.04624
2.04391
2.05573
2.07034
2.07863
2.08069
2.07988
2.07981
2.08862
2.10593
1556.59
1559.53
1558.56
1553.5
1545.04
1533.49
1518.93
1501.42
1480.93
1457.42
1430.84
1401.09
1368.05
1331.57
1291.45
1247.43
1199.21
1146.42
1088.62
1025.4
956.326
881.121
799.754
712.789
621.494
524.004
391.345
121.84
6.56836
3.18331
2.44208
2.19109
2.11348
2.08629
2.06799
2.04752
2.03005
2.02197
2.02241
2.02499
2.02428
2.01949
2.01194
2.00401
2.00535
2.01121
1558.56
1561.42
1560.64
1555.88
1547.69
1536.36
1521.96
1504.55
1484.13
1460.67
1434.11
1404.38
1371.36
1334.93
1294.89
1251.03
1203.05
1150.62
1093.39
1030.97
963.042
889.412
810.178
726.127
638.455
542.753
346.47
52.7978
4.85739
2.70721
2.28399
2.14597
2.09514
2.06924
2.04826
2.02651
2.00718
1.99375
1.98565
1.979
1.97012
1.95751
1.94077
1.91998
1.90673
1.87746
1561.48
1564.24
1563.63
1559.18
1551.33
1540.29
1526.16
1508.97
1488.73
1465.43
1439.01
1409.42
1376.56
1340.3
1300.5
1256.95
1209.39
1157.54
1101.09
1039.73
973.227
901.478
824.719
743.934
659.908
565.82
274.907
18.717
3.77749
2.49508
2.21472
2.12384
2.07905
2.05069
2.02606
2.0018
1.9797
1.96153
1.94667
1.93247
1.91605
1.89516
1.86735
1.82902
1.79109
1.67312
0.923929
0.926981
0.928276
0.927784
0.924845
0.919559
0.912384
0.903821
0.894296
0.884156
0.87367
0.863059
0.852412
0.841872
0.831527
0.821446
0.811669
0.802225
0.793136
0.784416
0.776081
0.768148
0.760635
0.753558
0.746934
0.740778
0.735101
0.729916
0.725233
0.721062
0.717413
0.714297
0.711724
0.709703
0.708236
0.707316
0.706912
0.706857
0.707148
0.707855
0.922636
0.925314
0.926191
0.925273
0.9223
0.917287
0.910537
0.902434
0.893342
0.883576
0.873391
0.862977
0.852535
0.842153
0.831933
0.821947
0.812243
0.802857
0.793813
0.785128
0.77682
0.768906
0.761407
0.75434
0.747723
0.741572
0.735899
0.730718
0.726039
0.721875
0.718234
0.715127
0.71256
0.710538
0.709055
0.708086
0.707584
0.707451
0.707611
0.708069
0.921237
0.924379
0.925151
0.923825
0.920644
0.915692
0.909181
0.901398
0.892641
0.883179
0.873252
0.863056
0.852767
0.842507
0.832382
0.822468
0.81282
0.803478
0.794466
0.785805
0.777514
0.769611
0.762117
0.755053
0.748436
0.742284
0.736611
0.73143
0.726752
0.722589
0.718948
0.715836
0.713258
0.711207
0.70967
0.708611
0.707971
0.707674
0.707728
0.708234
0.919189
0.923826
0.925297
0.924031
0.920682
0.915581
0.909009
0.901248
0.892563
0.883195
0.873361
0.863246
0.853015
0.842799
0.832705
0.822814
0.813184
0.803854
0.794851
0.786194
0.777904
0.769998
0.762499
0.755426
0.7488
0.742639
0.736957
0.731768
0.727082
0.722908
0.719253
0.716121
0.71351
0.711411
0.709805
0.708656
0.707914
0.70755
0.707684
0.708316
0.916209
0.923381
0.926272
0.925554
0.922171
0.91681
0.90995
0.901956
0.893106
0.883629
0.873721
0.863553
0.853276
0.843018
0.832888
0.822966
0.813312
0.803965
0.794948
0.786281
0.77798
0.770062
0.762548
0.75546
0.748818
0.74264
0.736941
0.731735
0.727031
0.722837
0.719158
0.715994
0.713342
0.711192
0.709525
0.708312
0.707521
0.707172
0.707445
0.708217
0.911918
0.923182
0.928271
0.928408
0.925012
0.919246
0.91188
0.903423
0.894199
0.884433
0.874304
0.863962
0.85354
0.843163
0.832933
0.822931
0.813217
0.803826
0.794779
0.78609
0.77777
0.769833
0.7623
0.755191
0.748527
0.742326
0.736605
0.731375
0.726647
0.722426
0.718716
0.715517
0.712825
0.710631
0.708919
0.707671
0.706875
0.706581
0.706991
0.707879
0.906493
0.924275
0.932292
0.933038
0.929375
0.922928
0.914768
0.905598
0.895788
0.88556
0.875068
0.864437
0.853779
0.843207
0.832819
0.822694
0.812888
0.803432
0.794341
0.78562
0.777275
0.769316
0.76176
0.754627
0.747937
0.741709
0.73596
0.730702
0.725944
0.721693
0.717951
0.714719
0.711992
0.709764
0.708025
0.706768
0.705993
0.705772
0.706299
0.707269
0.899714
0.928572
0.940289
0.940184
0.935513
0.927939
0.918608
0.90843
0.897813
0.88695
0.875959
0.864929
0.85395
0.843116
0.832519
0.822232
0.812307
0.802767
0.79362
0.78486
0.776486
0.768503
0.760922
0.753763
0.747045
0.740787
0.735008
0.729718
0.724929
0.720647
0.716874
0.713612
0.710858
0.708609
0.706861
0.705613
0.704878
0.704733
0.705351
0.706372
0.879442
0.937204
0.955319
0.951023
0.943701
0.934311
0.923344
0.911831
0.90018
0.888517
0.876902
0.865377
0.854
0.842848
0.831999
0.821519
0.811453
0.801816
0.792602
0.783799
0.775395
0.767386
0.759781
0.752595
0.745849
0.739562
0.73375
0.728429
0.723608
0.719295
0.715495
0.712209
0.709437
0.707178
0.705435
0.704211
0.703525
0.703452
0.704137
0.705183
0.838921
0.95076
0.978712
0.96653
0.954112
0.941904
0.9288
0.915642
0.902753
0.890149
0.877803
0.865705
0.853873
0.842358
0.831224
0.820529
0.810307
0.800562
0.791278
0.782429
0.773993
0.765959
0.758332
0.751123
0.74435
0.738033
0.732191
0.726838
0.721988
0.717648
0.713824
0.710521
0.707739
0.705482
0.703755
0.702565
0.701931
0.701921
0.702652
0.703705
1565.45
1568.1
1567.65
1563.51
1556.01
1545.33
1531.54
1514.66
1494.7
1471.66
1445.5
1416.16
1383.57
1347.63
1308.21
1265.12
1218.16
1167.07
1111.6
1051.52
986.666
917.027
842.965
765.59
684.603
576.658
202.691
8.03944
3.17892
2.3574
2.17474
2.10189
2.05871
2.02774
1.99992
1.97313
1.94825
1.92604
1.90577
1.88541
1.86235
1.83352
1.7942
1.735
1.64394
1.3348
1570.55
1573.11
1572.8
1568.96
1561.82
1551.53
1538.13
1521.62
1502.03
1479.34
1453.54
1424.57
1392.38
1356.88
1317.97
1275.5
1229.29
1179.13
1124.82
1066.2
1003.17
935.788
864.539
790.552
711.869
567.11
142.134
6.01884
2.78695
2.25923
2.13627
2.07384
2.03215
1.99954
1.96948
1.9406
1.91334
1.88788
1.86345
1.83835
1.8102
1.7757
1.72941
1.66032
1.5547
1.37813
1576.85
1579.31
1579.13
1575.57
1568.79
1558.9
1545.92
1529.85
1510.69
1488.44
1463.08
1434.58
1402.9
1367.96
1329.69
1287.97
1242.65
1193.56
1140.56
1083.53
1022.42
957.374
888.947
818.18
741.163
546.208
92.5547
4.73489
2.50717
2.17819
2.09337
2.03912
1.99947
1.96631
1.93498
1.90468
1.87565
1.84783
1.82044
1.79206
1.76068
1.72354
1.67662
1.61381
1.53052
1.4463
1584.37
1586.73
1586.66
1583.37
1576.94
1567.46
1554.93
1539.33
1520.65
1498.91
1474.08
1446.15
1415.07
1380.8
1343.29
1302.43
1258.13
1210.24
1158.66
1103.31
1044.18
981.476
915.813
848.022
772.21
515.746
56.204
3.84667
2.30663
2.10785
2.04614
1.99855
1.96143
1.92858
1.8968
1.86578
1.83568
1.80634
1.77705
1.74665
1.71357
1.67573
1.63057
1.57508
1.50636
1.43454
1593.14
1595.42
1595.44
1592.39
1586.3
1577.24
1565.16
1550.06
1531.92
1510.74
1486.51
1459.22
1428.83
1395.33
1358.68
1318.8
1275.61
1229.01
1178.93
1125.33
1068.22
1007.82
944.82
879.686
804.716
470.706
30.4475
3.17941
2.16168
2.04385
1.99531
1.95347
1.91905
1.88704
1.85547
1.82436
1.79384
1.76374
1.73343
1.70199
1.66825
1.63068
1.58741
1.53649
1.47543
1.40709
1603.2
1605.38
1605.49
1602.66
1596.9
1588.24
1576.64
1562.06
1544.48
1523.92
1500.34
1473.75
1444.14
1411.49
1375.78
1336.97
1294.98
1249.76
1201.25
1149.42
1094.33
1036.2
975.72
912.862
838.586
415.146
14.9543
2.7144
2.06114
1.98374
1.9425
1.90538
1.8734
1.84249
1.81158
1.78087
1.75047
1.72021
1.68958
1.65789
1.62427
1.58758
1.54645
1.49958
1.4455
1.38519
1614.55
1616.65
1616.83
1614.21
1608.76
1600.5
1589.37
1575.32
1558.34
1538.42
1515.55
1489.73
1460.95
1429.23
1394.54
1356.86
1316.15
1272.37
1225.47
1175.44
1122.36
1066.46
1008.36
947.382
873.131
352.024
7.8452
2.42994
1.98318
1.92711
1.88936
1.85551
1.82538
1.79562
1.76565
1.73567
1.70579
1.67586
1.64548
1.61414
1.58122
1.54587
1.50709
1.46415
1.41619
1.36327
1627.22
1629.23
1629.47
1627.04
1621.89
1614.02
1603.36
1589.86
1573.49
1554.24
1532.11
1507.1
1479.23
1448.49
1414.88
1378.4
1339.02
1296.71
1251.46
1203.26
1152.18
1098.48
1042.69
983.409
886.629
298.639
5.21854
2.25443
1.92058
1.87282
1.83633
1.80437
1.77553
1.74692
1.71803
1.68903
1.65998
1.63076
1.60107
1.57055
1.53876
1.50502
1.46856
1.42914
1.38635
1.33922
1641.2
1643.12
1643.42
1641.17
1636.3
1628.82
1618.62
1605.67
1589.92
1571.37
1550.01
1525.86
1498.92
1469.21
1436.74
1401.5
1363.49
1322.7
1279.12
1232.76
1183.68
1132.17
1078.65
1021.05
896.83
248.243
4.45454
2.12145
1.86059
1.8183
1.78265
1.75186
1.72411
1.69665
1.66895
1.6411
1.61313
1.58495
1.55631
1.52695
1.49659
1.46461
1.43039
1.39414
1.35551
1.3136
1656.52
1658.35
1658.69
1656.6
1652.01
1644.9
1635.17
1622.76
1607.65
1589.81
1569.25
1545.97
1520
1491.36
1460.05
1426.1
1389.5
1350.25
1308.35
1263.83
1216.76
1167.42
1116.15
1060.25
899.924
200.585
3.84069
1.99526
1.79888
1.76214
1.72748
1.69777
1.67115
1.64493
1.61854
1.59202
1.56537
1.53849
1.51116
1.48322
1.45447
1.42437
1.39241
1.35878
1.32343
1.2862
1673.16
1674.9
1675.28
1673.34
1669.02
1662.26
1652.99
1641.14
1626.66
1609.54
1589.79
1567.42
1542.44
1514.89
1484.78
1452.13
1416.96
1379.27
1339.07
1296.38
1251.32
1204.15
1155.11
1100.93
895.242
157.481
3.32011
1.88243
1.73658
1.70388
1.67034
1.64197
1.61667
1.59186
1.56695
1.54193
1.5168
1.49142
1.46561
1.43925
1.41221
1.38414
1.35427
1.32281
1.29083
1.25681
1691.14
1692.79
1693.19
1691.4
1687.33
1680.93
1672.11
1660.8
1646.96
1630.58
1611.65
1590.19
1566.23
1539.79
1510.89
1479.57
1445.84
1409.72
1371.22
1330.38
1287.31
1242.31
1195.49
1143.03
881.436
118.993
2.88798
1.78154
1.67305
1.64282
1.61094
1.5844
1.56074
1.53756
1.51432
1.49099
1.46753
1.44381
1.41966
1.39496
1.36966
1.34356
1.31609
1.28683
1.25694
1.22646
1710.45
1712.01
1712.43
1710.77
1706.94
1700.89
1692.52
1681.76
1668.56
1652.91
1634.81
1614.28
1591.34
1566.03
1538.36
1508.38
1476.11
1441.57
1404.78
1365.78
1324.71
1281.86
1237.23
1186.51
857.742
85.8522
2.52851
1.6859
1.60615
1.57821
1.54907
1.52507
1.50349
1.48223
1.46086
1.43935
1.41768
1.39571
1.37329
1.35033
1.32678
1.30254
1.2773
1.25063
1.22296
1.19518
1731.09
1732.55
1732.99
1731.46
1727.87
1722.15
1714.23
1704.01
1691.46
1676.55
1659.28
1639.69
1617.78
1593.6
1567.18
1538.55
1507.74
1474.79
1439.71
1402.56
1363.47
1322.77
1280.31
1231.35
824.187
58.0415
2.19124
1.58726
1.53401
1.50971
1.48481
1.46421
1.44517
1.4261
1.40677
1.38719
1.36737
1.3472
1.32656
1.30537
1.28359
1.26118
1.23798
1.21372
1.18861
1.16294
1753.05
1754.43
1754.88
1753.47
1750.11
1744.73
1737.24
1727.57
1715.66
1701.48
1685.06
1666.4
1645.53
1622.49
1597.31
1570.04
1540.7
1509.34
1475.97
1440.66
1403.55
1364.97
1324.64
1277.44
780.572
35.5905
1.86132
1.48206
1.45678
1.43825
1.41893
1.40236
1.38619
1.36948
1.35226
1.33465
1.3167
1.29835
1.2795
1.26011
1.24013
1.21956
1.1983
1.17624
1.15343
1.12996
1776.34
1777.63
1778.09
1776.8
1773.66
1768.61
1761.56
1752.42
1741.14
1727.71
1712.12
1694.4
1674.57
1652.67
1628.74
1602.82
1574.95
1545.17
1513.51
1480.02
1444.86
1408.36
1370.09
1324.61
724.588
19.2341
1.57919
1.37943
1.37803
1.36649
1.35294
1.34038
1.32705
1.31269
1.29756
1.28189
1.2658
1.24926
1.23221
1.2146
1.19644
1.17772
1.15839
1.13838
1.11771
1.09636
1800.94
1802.14
1802.61
1801.43
1798.51
1793.79
1787.16
1778.55
1767.91
1755.21
1740.46
1723.67
1704.88
1684.12
1661.44
1636.87
1610.46
1582.24
1552.25
1520.56
1487.32
1452.85
1416.54
1372.75
659.089
9.50273
1.39087
1.29121
1.30398
1.29774
1.28859
1.27916
1.26827
1.25604
1.24288
1.22908
1.2148
1.20005
1.18477
1.16895
1.1526
1.13572
1.11828
1.10022
1.08155
1.06222
1826.84
1827.96
1828.44
1827.36
1824.65
1820.25
1814.04
1805.96
1795.94
1783.97
1770.05
1754.2
1736.44
1716.82
1695.38
1672.16
1647.19
1620.52
1592.18
1562.24
1530.87
1498.37
1463.91
1421.86
585.54
4.8494
1.29506
1.22616
1.23897
1.23402
1.22685
1.21925
1.21015
1.19972
1.18835
1.17632
1.16381
1.15082
1.1373
1.12324
1.10868
1.09362
1.07802
1.06184
1.04507
1.02768
1854.03
1855.07
1855.54
1854.57
1852.07
1847.98
1842.18
1834.62
1825.22
1813.98
1800.88
1785.96
1769.24
1750.76
1730.55
1708.67
1685.13
1659.98
1633.27
1605.06
1575.53
1544.94
1512.25
1454.37
520.825
3.05911
1.25169
1.17793
1.18159
1.17463
1.1675
1.16065
1.15278
1.14383
1.13407
1.12374
1.11294
1.10167
1.08988
1.07755
1.06475
1.05148
1.03768
1.02332
1.00838
0.992861
1882.49
1883.44
1883.91
1883.04
1880.75
1876.96
1871.58
1864.52
1855.75
1845.22
1832.95
1818.95
1803.26
1785.9
1766.93
1746.37
1724.26
1700.62
1675.52
1649.01
1621.3
1592.6
1561.67
1472.78
460.193
2.66767
1.20968
1.13078
1.1267
1.1173
1.10952
1.10294
1.09597
1.08831
1.08006
1.07135
1.06224
1.05267
1.04257
1.03196
1.02088
1.00935
0.997318
0.984715
0.971558
0.957862
1912.2
1913.07
1913.54
1912.76
1910.67
1907.18
1902.2
1895.66
1887.49
1877.68
1866.23
1853.16
1838.48
1822.24
1804.49
1785.25
1764.54
1742.42
1718.91
1694.1
1668.18
1641.34
1612.15
1488.69
400.496
2.31801
1.14446
1.07791
1.07093
1.0601
1.05187
1.04556
1.03945
1.03302
1.02623
1.01913
1.01169
1.00381
0.995412
0.986499
0.977125
0.9673
0.956974
0.946093
0.934668
0.922737
1943.14
1943.92
1944.38
1943.7
1941.8
1938.62
1934.04
1928
1920.44
1911.34
1900.7
1888.54
1874.87
1859.74
1843.19
1825.25
1805.95
1785.31
1763.39
1740.26
1716.12
1691.11
1663.64
1497.73
342.89
1.96779
1.07301
1.02155
1.01358
1.00206
0.993806
0.988015
0.982861
0.977713
0.972432
0.966963
0.961215
0.955048
0.948365
0.941164
0.933485
0.925338
0.916681
0.907476
0.897739
0.887512
1975.28
1975.98
1976.44
1975.84
1974.14
1971.24
1967.07
1961.53
1954.57
1946.17
1936.34
1925.08
1912.41
1898.37
1883.01
1866.35
1848.43
1829.27
1808.92
1787.46
1765.06
1741.84
1716.06
1499.11
288.004
1.65867
1.00266
0.963144
0.954268
0.942599
0.934809
0.929858
0.925883
0.922171
0.918495
0.914727
0.910721
0.90631
0.901384
0.895921
0.889946
0.883464
0.876449
0.868881
0.860789
0.852209
2008.6
2009.22
2009.66
2009.15
2007.63
2005.03
2001.24
1996.2
1989.84
1982.14
1973.1
1962.73
1951.06
1938.1
1923.92
1908.53
1891.97
1874.27
1855.47
1835.64
1814.96
1793.49
1769.38
1492.09
236.288
1.42913
0.933497
0.902172
0.892502
0.881272
0.874469
0.870762
0.868271
0.866219
0.864306
0.862347
0.860159
0.857565
0.854441
0.85075
0.846495
0.841678
0.836288
0.830327
0.82384
0.816864
2043.07
2043.59
2044.02
2043.6
2042.27
2039.95
2036.55
2031.99
2026.22
2019.21
2010.96
2001.48
1990.79
1978.91
1965.89
1951.76
1936.55
1920.29
1903.01
1884.79
1865.8
1846.06
1823.61
1475.66
188.289
1.23883
0.863423
0.837676
0.827688
0.817661
0.812467
0.810489
0.809852
0.809743
0.809798
0.809792
0.809525
0.808819
0.807549
0.805662
0.803145
0.799999
0.796227
0.791851
0.786934
0.78153
2078.64
2079.07
2079.49
2079.15
2078
2075.97
2072.96
2068.88
2063.69
2057.36
2049.9
2041.3
2031.57
2020.76
2008.9
1996.01
1982.13
1967.29
1951.52
1934.89
1917.57
1899.55
1878.75
1448.65
144.582
1.07193
0.790768
0.768674
0.759198
0.751373
0.748561
0.748877
0.750522
0.752675
0.754938
0.757059
0.758838
0.760107
0.760749
0.760698
0.759939
0.758472
0.756316
0.75351
0.750133
0.74627
2115.27
2115.61
2116.02
2115.77
2114.81
2113.06
2110.43
2106.83
2102.21
2096.56
2089.87
2082.14
2073.38
2063.63
2052.91
2041.25
2028.69
2015.25
2000.97
1985.92
1970.27
1953.94
1934.79
1410.23
105.717
0.912423
0.712319
0.693868
0.686386
0.68213
0.682654
0.685913
0.690298
0.695048
0.699765
0.704195
0.708153
0.71149
0.714101
0.715922
0.716939
0.717161
0.71662
0.715372
0.713511
0.711146
2152.93
2153.18
2153.58
2153.41
2152.65
2151.19
2148.93
2145.8
2141.76
2136.77
2130.83
2123.96
2116.16
2107.46
2097.88
2087.45
2076.19
2064.14
2051.34
2037.86
2023.87
2009.24
1991.75
1359.37
72.291
0.738496
0.622583
0.611919
0.608979
0.610019
0.614962
0.621838
0.629401
0.637049
0.644434
0.651328
0.657578
0.663063
0.667694
0.671418
0.674226
0.676142
0.677211
0.677506
0.677137
0.676226
2191.59
2191.75
2192.13
2192.06
2191.49
2190.32
2188.44
2185.78
2182.29
2177.95
2172.77
2166.74
2159.88
2152.22
2143.76
2134.54
2124.58
2113.92
2102.6
2090.7
2078.35
2065.41
2049.63
1294.74
44.9856
0.532775
0.516311
0.522734
0.527844
0.535851
0.546136
0.557166
0.568235
0.578992
0.589188
0.598651
0.60727
0.614956
0.621641
0.627287
0.631896
0.635502
0.638168
0.639983
0.641073
0.641578
2231.11
2231.21
2231.63
2231.68
2231.32
2230.44
2228.93
2226.73
2223.79
2220.1
2215.65
2210.45
2204.51
2197.86
2190.51
2182.5
2173.84
2164.57
2154.72
2144.37
2133.66
2122.42
2108.41
1215.55
24.2968
0.31665
0.397598
0.429962
0.445943
0.46148
0.477306
0.492638
0.507313
0.521246
0.534304
0.54638
0.557404
0.567317
0.576072
0.583645
0.59005
0.595333
0.599574
0.602876
0.605386
0.607264
2271.32
2271.35
2271.9
2272.17
2272.07
2271.51
2270.39
2268.64
2266.24
2263.18
2259.45
2255.06
2250.03
2244.37
2238.12
2231.3
2223.93
2216.04
2207.65
2198.84
2189.77
2180.23
2168.01
1121.48
10.1117
0.166381
0.289712
0.342958
0.368146
0.38949
0.409859
0.429056
0.447158
0.464181
0.48006
0.494736
0.508164
0.520305
0.531127
0.540616
0.548796
0.555732
0.561513
0.566264
0.57014
0.573352
2312.26
2312.17
2312.82
2313.38
2313.62
2313.42
2312.73
2311.46
2309.6
2307.16
2304.14
2300.55
2296.4
2291.73
2286.56
2280.91
2274.81
2268.28
2261.35
2254.1
2246.65
2238.82
2228.37
1009.98
2.67199
0.124829
0.219296
0.271091
0.297969
0.321511
0.344665
0.366942
0.388126
0.408082
0.426704
0.443935
0.45974
0.474084
0.486946
0.49832
0.508243
0.516789
0.524071
0.530219
0.53543
0.539917
2352.95
2353.4
2354.31
2355.21
2355.82
2356.03
2355.78
2355.01
2353.71
2351.89
2349.58
2346.79
2343.53
2339.83
2335.73
2331.23
2326.36
2321.16
2315.69
2309.98
2304.16
2298.1
2289.52
876.311
0.54527
0.135869
0.178945
0.211328
0.233333
0.256514
0.281297
0.306164
0.330236
0.353061
0.374403
0.394162
0.412299
0.428794
0.443638
0.456844
0.468462
0.478587
0.487326
0.494854
0.501392
0.507101
2390.76
2393.15
2395.04
2397.01
2398.28
2399.01
2399.23
2398.95
2398.22
2397.04
2395.44
2393.42
2391.03
2388.28
2385.21
2381.83
2378.18
2374.29
2370.21
2366
2361.84
2357.65
2351.29
723.359
0.408328
0.127421
0.134855
0.150372
0.16814
0.191567
0.218417
0.246168
0.273344
0.299181
0.32331
0.345584
0.365987
0.384544
0.401282
0.416244
0.429502
0.441166
0.451385
0.460305
0.468122
0.47513
2420.03
2429
2433.46
2437.32
2439.86
2441.43
2442.28
2442.58
2442.43
2441.9
2441.01
2439.78
2438.23
2436.41
2434.36
2432.1
2429.65
2427.06
2424.38
2421.66
2419.14
2416.96
2413.15
567.742
0.290464
0.0825347
0.0709414
0.0794939
0.0978631
0.124306
0.154937
0.186558
0.217398
0.246549
0.273591
0.298397
0.321004
0.34151
0.36002
0.376637
0.391474
0.404658
0.416324
0.426645
0.4358
0.44398
2016.93
2291.96
2439.16
2471.4
2477.95
2481.75
2483.95
2485.17
2485.81
2486.06
2485.97
2485.6
2484.98
2484.15
2483.16
2482.05
2480.85
2479.59
2478.3
2477.05
2476.13
2475.88
2474.27
433.171
0.17386
0.0119189
-0.0126519
-0.00410884
0.0207244
0.0539323
0.0906002
0.127399
0.162615
0.195413
0.225479
0.252806
0.27755
0.299912
0.32009
0.338263
0.354595
0.369229
0.382301
0.393953
0.404365
0.413698
415.06
818.226
1314.52
1787.65
2119.89
2314.16
2419.12
2470.14
2495.35
2507.38
2511.43
2512.32
2510.95
2507.35
2499.52
2489.3
2477.13
2463
2447.03
2428.66
2411.29
2409.76
2445.9
308.589
-0.0536006
-0.0957407
-0.118831
-0.101206
-0.0632275
-0.0187846
0.0262463
0.0694326
0.109598
0.146253
0.17936
0.20914
0.235915
0.260018
0.281752
0.301372
0.319088
0.335064
0.349431
0.362322
0.373872
0.384257
-1.33584
-0.729529
40.7097
209.1
440.953
694.793
925.618
1115.13
1249.64
1327.01
1363.82
1368.25
1348.71
1310.56
1259.72
1196.16
1127.83
1058.72
992.469
933.572
882.383
866.851
1072.68
149.387
-0.533095
-0.270931
-0.246797
-0.207935
-0.150055
-0.0909109
-0.0359057
0.014257
0.0594705
0.0998706
0.135833
0.167856
0.196461
0.222126
0.245258
0.266184
0.285146
0.302319
0.31784
0.331826
0.344401
0.355714
-1.1818
-1.06318
-1.15138
-1.22191
-1.35978
-1.42125
-1.42055
-1.40445
-1.39732
5.44268
10.4621
10.9015
7.91995
2.16618
-1.30622
-1.29467
-1.28409
-1.27489
-1.26782
-1.27017
-1.28196
-1.28151
-1.22973
22.9731
-0.817199
-0.477979
-0.38573
-0.309843
-0.229876
-0.156657
-0.0923222
-0.0358686
0.0137196
0.0572764
0.0956011
0.129465
0.159574
0.18654
0.210857
0.232901
0.252933
0.271133
0.287638
0.302565
0.316021
0.328152
-1.11902
-1.08901
-1.11866
-1.14134
-1.16961
-1.18787
-1.19556
-1.19831
-1.20119
-1.20921
-1.21269
-1.20278
-1.1827
-1.16359
-1.15489
-1.15211
-1.14889
-1.14623
-1.1457
-1.14845
-1.15403
-1.1617
-1.16925
-1.09054
-0.881516
-0.641551
-0.498533
-0.387609
-0.291811
-0.209563
-0.139221
-0.0786601
-0.0262044
0.0194236
0.059314
0.0944279
0.125602
0.153534
0.178769
0.201698
0.222587
0.241617
0.258923
0.274619
0.288809
0.301628
-1.07531
-1.06365
-1.07593
-1.0934
-1.11564
-1.13537
-1.14907
-1.15691
-1.15945
-1.15582
-1.15018
-1.14283
-1.13406
-1.12599
-1.11909
-1.11171
-1.10374
-1.09608
-1.08919
-1.08284
-1.07512
-1.06574
-1.0547
-1.01309
-0.845328
-0.671786
-0.536836
-0.424766
-0.328382
-0.245443
-0.174134
-0.112618
-0.0593623
-0.0130688
0.0274029
0.0630668
0.0947992
0.123316
0.149157
0.172705
0.194213
0.213855
0.231765
0.248055
0.262824
0.276202
-1.03674
-1.03276
-1.03794
-1.04744
-1.06171
-1.07656
-1.08839
-1.09588
-1.09888
-1.0975
-1.09323
-1.08675
-1.07845
-1.0691
-1.05916
-1.04861
-1.03756
-1.02618
-1.01439
-1.00103
-0.983853
-0.959919
-0.925849
-0.869256
-0.760248
-0.639703
-0.530965
-0.432368
-0.344041
-0.266009
-0.197615
-0.137875
-0.085727
-0.0401159
-2.12263e-05
0.0355043
0.0672863
0.0959903
0.122112
0.145994
0.16787
0.187902
0.206217
0.222925
0.238118
0.251925
-0.995476
-0.997479
-1.00093
-1.00562
-1.0128
-1.0206
-1.02701
-1.03085
-1.03174
-1.02982
-1.02548
-1.01891
-1.01034
-1.00035
-0.989424
-0.977751
-0.965223
-0.951478
-0.936055
-0.918026
-0.895303
-0.865469
-0.82505
-0.768088
-0.688329
-0.598245
-0.509251
-0.4246
-0.346298
-0.275348
-0.211918
-0.155669
-0.105982
-0.0620843
-0.0231397
0.0116631
0.0430374
0.0715542
0.0976353
0.121575
0.143575
0.163782
0.182311
0.199263
0.214728
0.228834
-0.950542
-0.955814
-0.960496
-0.964323
-0.968411
-0.972386
-0.975307
-0.976519
-0.975743
-0.972814
-0.967672
-0.960349
-0.951109
-0.940389
-0.928544
-0.915647
-0.901435
-0.885365
-0.866773
-0.844904
-0.818525
-0.785799
-0.744595
-0.692163
-0.627295
-0.555054
-0.481145
-0.40885
-0.340386
-0.27705
-0.219415
-0.167534
-0.1211
-0.0795785
-0.0423246
-0.00868961
0.0219
0.0499028
0.0756578
0.0994038
0.121307
0.14149
0.160051
0.177083
0.192674
0.206952
-0.903396
-0.909788
-0.9158
-0.920249
-0.923717
-0.926354
-0.92788
-0.928018
-0.92647
-0.922858
-0.916935
-0.90876
-0.89866
-0.887031
-0.874114
-0.859854
-0.843887
-0.825679
-0.804627
-0.780118
-0.75143
-0.717561
-0.677286
-0.629473
-0.574109
-0.513712
-0.451364
-0.389475
-0.329895
-0.273885
-0.222146
-0.174918
-0.132082
-0.0932826
-0.0580478
-0.0258882
0.00363132
0.0308593
0.0560538
0.0793961
0.101012
0.120994
0.139422
0.156379
0.171957
0.186291
-0.855821
-0.862257
-0.86882
-0.873794
-0.877298
-0.879593
-0.880673
-0.880351
-0.878248
-0.873949
-0.867282
-0.858419
-0.84771
-0.835449
-0.821718
-0.806347
-0.78897
-0.769154
-0.746502
-0.720632
-0.691149
-0.657554
-0.619264
-0.575851
-0.527589
-0.475871
-0.422506
-0.369156
-0.317256
-0.267886
-0.221718
-0.179042
-0.139835
-0.103871
-0.0708151
-0.0403162
-0.0120588
0.0142082
0.0386669
0.0614409
0.0826117
0.10224
0.120386
0.137126
0.152563
0.166849
-0.808945
-0.815081
-0.82164
-0.826749
-0.830313
-0.832547
-0.833413
-0.832655
-0.829887
-0.824854
-0.817589
-0.808343
-0.797388
-0.784845
-0.770633
-0.754502
-0.736167
-0.715392
-0.692011
-0.665871
-0.636795
-0.604546
-0.568851
-0.529576
-0.487006
-0.442005
-0.39573
-0.349356
-0.303962
-0.26042
-0.219297
-0.18086
-0.145128
-0.111956
-0.0811144
-0.0523568
-0.0254658
-0.000274414
0.0233291
0.0454106
0.0660077
0.085151
0.102884
0.119283
0.134467
0.14861
-0.763485
-0.769222
-0.775501
-0.78053
-0.784064
-0.786183
-0.786731
-0.785399
-0.781945
-0.776349
-0.768791
-0.759486
-0.748538
-0.735899
-0.721405
-0.704838
-0.686042
-0.664972
-0.641656
-0.616094
-0.588218
-0.557896
-0.524986
-0.489465
-0.451588
-0.411957
-0.371392
-0.330752
-0.290844
-0.252339
-0.215681
-0.181085
-0.148578
-0.11806
-0.0893746
-0.0623541
-0.0368605
-0.0128008
0.00987123
0.0311673
0.0510853
0.0696315
0.0868396
0.102794
0.117634
0.13155
-0.719829
-0.725179
-0.731068
-0.735881
-0.739222
-0.741019
-0.741066
-0.739148
-0.735225
-0.729421
-0.721905
-0.712753
-0.701902
-0.689218
-0.674568
-0.657863
-0.639095
-0.618347
-0.59574
-0.571333
-0.545087
-0.516901
-0.486694
-0.454497
-0.420551
-0.385327
-0.349452
-0.313581
-0.278314
-0.244144
-0.211399
-0.18023
-0.150653
-0.122594
-0.0959416
-0.0705925
-0.0464758
-0.0235651
-0.00187331
0.0185649
0.0377163
0.0555723
0.0721649
0.0875902
0.102013
0.115641
-0.678088
-0.683052
-0.68854
-0.693015
-0.695987
-0.69732
-0.696867
-0.694586
-0.690556
-0.684881
-0.677595
-0.668628
-0.657839
-0.645119
-0.630454
-0.61391
-0.595599
-0.575656
-0.554198
-0.531266
-0.506811
-0.480749
-0.453042
-0.423768
-0.393168
-0.361645
-0.329705
-0.297859
-0.266549
-0.236118
-0.206786
-0.178644
-0.151688
-0.125855
-0.101074
-0.0772956
-0.0545089
-0.0327465
-0.0120705
0.00745008
0.0257633
0.0428561
0.0587652
0.0736012
0.0875537
0.100849
-0.638181
-0.642764
-0.647841
-0.651889
-0.654419
-0.655338
-0.654616
-0.652309
-0.648463
-0.643045
-0.635955
-0.627067
-0.616283
-0.603602
-0.58914
-0.573079
-0.555582
-0.536769
-0.516699
-0.49536
-0.472688
-0.448627
-0.423186
-0.396491
-0.368795
-0.340458
-0.311894
-0.283501
-0.255598
-0.228401
-0.202036
-0.176541
-0.151892
-0.128043
-0.104959
-0.0826414
-0.0611337
-0.0405165
-0.0208869
-0.00233363
0.0150861
0.0313635
0.046545
0.0607549
0.0742028
0.087132
-0.599972
-0.60422
-0.608867
-0.612476
-0.614631
-0.615329
-0.614618
-0.612512
-0.608913
-0.603659
-0.596608
-0.5877
-0.576963
-0.56452
-0.550569
-0.535315
-0.518906
-0.5014
-0.482788
-0.463013
-0.44202
-0.419792
-0.3964
-0.372014
-0.346895
-0.321367
-0.295765
-0.270382
-0.245431
-0.221032
-0.197231
-0.174025
-0.151385
-0.129287
-0.107737
-0.0867833
-0.066514
-0.0470435
-0.0284874
-0.0109392
0.00554978
0.0209817
0.0354138
0.0489814
0.0619084
0.0744469
-0.563424
-0.567381
-0.571625
-0.574873
-0.57681
-0.577482
-0.576908
-0.574976
-0.571474
-0.566203
-0.559092
-0.55021
-0.539717
-0.527812
-0.51469
-0.500506
-0.485333
-0.469167
-0.451949
-0.433619
-0.414156
-0.393603
-0.372088
-0.349816
-0.327045
-0.304052
-0.28109
-0.258354
-0.235966
-0.213972
-0.192366
-0.171124
-0.150226
-0.129679
-0.10953
-0.0898672
-0.0708109
-0.052492
-0.0350291
-0.018508
-0.00296667
0.0116105
0.0252904
0.0382156
0.0506185
0.0627497
-0.528591
-0.532278
-0.536206
-0.539227
-0.541081
-0.541784
-0.541254
-0.539287
-0.535669
-0.530287
-0.52319
-0.514555
-0.504603
-0.493528
-0.48146
-0.468459
-0.454522
-0.4396
-0.423635
-0.406601
-0.388534
-0.369542
-0.349796
-0.329514
-0.308928
-0.288252
-0.267656
-0.247245
-0.227069
-0.207127
-0.18739
-0.167831
-0.148455
-0.129303
-0.110459
-0.0920395
-0.0741809
-0.0570158
-0.0406531
-0.0251627
-0.0105659
0.00316577
0.0161057
0.028399
0.0402821
0.0519993
-0.495449
-0.498898
-0.502605
-0.50549
-0.507285
-0.507921
-0.507232
-0.505034
-0.501224
-0.495826
-0.488982
-0.480897
-0.471761
-0.461694
-0.450734
-0.438864
-0.426034
-0.412194
-0.397328
-0.381473
-0.364728
-0.347244
-0.329214
-0.310837
-0.292298
-0.273739
-0.255248
-0.236864
-0.218584
-0.200384
-0.182238
-0.16414
-0.146121
-0.128254
-0.11065
-0.0934434
-0.0767694
-0.0607507
-0.0454788
-0.031004
-0.0173308
-0.00442044
0.00780287
0.019482
0.0308533
0.0421573
-0.463858
-0.467106
-0.470617
-0.473345
-0.474983
-0.475399
-0.474438
-0.472015
-0.468166
-0.463015
-0.45672
-0.44943
-0.441243
-0.432184
-0.422224
-0.411311
-0.399402
-0.38649
-0.372621
-0.357895
-0.342456
-0.326476
-0.310132
-0.293582
-0.276946
-0.260294
-0.243654