/*--------------------------------*- C++ -*----------------------------------*\
  =========                 |
  \\      /  F ield         | OpenFOAM: The Open Source CFD Toolbox
   \\    /   O peration     | Website:  https://openfoam.org
    \\  /    A nd           | Version:  7
     \\/     M anipulation  |
\*---------------------------------------------------------------------------*/
FoamFile
{
    version     2.0;
    format      ascii;
    class       volScalarField;
    location    "0.006";
    object      iDofMean;
}
// * * * * * * * * * * * * * * * * * * * * * * * * * * * * * * * * * * * * * //

dimensions      [0 -3 0 0 0 0 0];

internalField   nonuniform List<scalar> 
654
(
1.852927965e+20
1.856399298e+20
1.854663631e+20
1.806203827e+20
1.763784141e+20
1.817659225e+20
1.805370707e+20
1.792804483e+20
1.809952866e+20
1.780515965e+20
1.776419792e+20
1.737402013e+20
1.738165706e+20
1.71712943e+20
1.648258189e+20
1.629929553e+20
1.711297591e+20
1.710533898e+20
1.603061438e+20
1.490659685e+20
1.877990987e+20
1.852441978e+20
1.82751781e+20
1.834043915e+20
1.768088594e+20
1.788986017e+20
1.766977768e+20
1.766352928e+20
1.761423635e+20
1.748787984e+20
1.739276533e+20
1.735249787e+20
1.78870831e+20
1.702827539e+20
1.691510995e+20
1.636386232e+20
1.671585545e+20
1.571402884e+20
1.538633503e+20
1.469345702e+20
1.839598047e+20
1.875005641e+20
1.802177081e+20
1.830086596e+20
1.75260645e+20
1.798775175e+20
1.744552958e+20
1.802177081e+20
1.764617261e+20
1.790443977e+20
1.713033257e+20
1.706784859e+20
1.739693093e+20
1.6613104e+20
1.642981764e+20
1.579525802e+20
1.568972951e+20
1.511557108e+20
1.438242561e+20
1.387283398e+20
1.883059133e+20
1.859037511e+20
1.782390485e+20
1.827448383e+20
1.689844755e+20
1.708381672e+20
1.766214074e+20
1.731014761e+20
1.725113495e+20
1.6644346e+20
1.705396326e+20
1.683874063e+20
1.767533181e+20
1.650896402e+20
1.583691401e+20
1.575290776e+20
1.565571045e+20
1.579317522e+20
1.503573043e+20
1.421996724e+20
1.822033104e+20
1.829461756e+20
1.785861817e+20
1.720531336e+20
1.781349085e+20
1.797942055e+20
1.796622949e+20
1.785098124e+20
1.727057442e+20
1.654159455e+20
1.647702776e+20
1.627777327e+20
1.706160019e+20
1.744552958e+20
1.615002822e+20
1.551893994e+20
1.557100993e+20
1.5185692e+20
1.469762262e+20
1.369440747e+20
1.80675924e+20
1.794331869e+20
1.751426197e+20
1.791138243e+20
1.794679002e+20
1.733583547e+20
1.757952303e+20
1.738235133e+20
1.709770205e+20
1.705326899e+20
1.713310964e+20
1.685540303e+20
1.66297664e+20
1.677070251e+20
1.550991447e+20
1.604380544e+20
1.534815037e+20
1.51627812e+20
1.447476306e+20
1.408111394e+20
1.860009484e+20
1.819186611e+20
1.815715279e+20
1.835085315e+20
1.759271409e+20
1.738235133e+20
1.736777173e+20
1.739137679e+20
1.757258036e+20
1.651035256e+20
1.716018604e+20
1.672488092e+20
1.684151769e+20
1.621459501e+20
1.573485683e+20
1.50197623e+20
1.560572326e+20
1.48434186e+20
1.427550857e+20
1.424218377e+20
1.859176364e+20
1.811202546e+20
1.760659942e+20
1.762187328e+20
1.742886719e+20
1.781071378e+20
1.690261315e+20
1.697551114e+20
1.77190706e+20
1.677139677e+20
1.667558799e+20
1.689219915e+20
1.667697652e+20
1.567514991e+20
1.57230543e+20
1.557795259e+20
1.545506742e+20
1.51669468e+20
1.480731674e+20
1.426787164e+20
1.778988579e+20
1.813007639e+20
1.798705748e+20
1.756286063e+20
1.738512839e+20
1.778086032e+20
1.687345396e+20
1.627221913e+20
1.684846036e+20
1.70178614e+20
1.676584264e+20
1.664712306e+20
1.688664502e+20
1.580220069e+20
1.551824567e+20
1.537592103e+20
1.48205078e+20
1.472955888e+20
1.384992318e+20
1.395059183e+20
1.761840195e+20
1.798775175e+20
1.708867658e+20
1.721642163e+20
1.713727524e+20
1.706229445e+20
1.692691248e+20
1.710047911e+20
1.708173392e+20
1.654784295e+20
1.692899528e+20
1.691441568e+20
1.635205978e+20
1.555851313e+20
1.5185692e+20
1.508849468e+20
1.475385821e+20
1.438242561e+20
1.460389664e+20
1.434701802e+20
1.802871348e+20
1.763228728e+20
1.729487374e+20
1.732125587e+20
1.754966956e+20
1.742817292e+20
1.709978485e+20
1.726154895e+20
1.643328897e+20
1.60944869e+20
1.629512993e+20
1.60694933e+20
1.603894558e+20
1.487257779e+20
1.534815037e+20
1.501420816e+20
1.492187072e+20
1.520304866e+20
1.452336172e+20
1.409916487e+20
1.781835071e+20
1.75198161e+20
1.748996264e+20
1.826406983e+20
1.722683562e+20
1.722544709e+20
1.764270128e+20
1.678250504e+20
1.67852821e+20
1.644995137e+20
1.633331459e+20
1.62749962e+20
1.596535332e+20
1.560711179e+20
1.507808069e+20
1.543076809e+20
1.404570634e+20
1.43039735e+20
1.453724705e+20
1.420330485e+20
1.771559927e+20
1.736360613e+20
1.785653537e+20
1.728098841e+20
1.686095716e+20
1.749968237e+20
1.668253066e+20
1.640065844e+20
1.686234569e+20
1.597437879e+20
1.652146082e+20
1.591883746e+20
1.530718864e+20
1.50155967e+20
1.53807809e+20
1.510654561e+20
1.497880057e+20
1.423732391e+20
1.447754013e+20
1.471081369e+20
1.796484095e+20
1.807939493e+20
1.725044069e+20
1.721503309e+20
1.681582983e+20
1.767255474e+20
1.708798232e+20
1.696440287e+20
1.598340425e+20
1.653812322e+20
1.625555674e+20
1.630970953e+20
1.562655125e+20
1.477052061e+20
1.528288932e+20
1.560364046e+20
1.504197883e+20
1.44699032e+20
1.48267562e+20
1.501837376e+20
1.778155459e+20
1.752953583e+20
1.766352928e+20
1.720739616e+20
1.698523087e+20
1.714491217e+20
1.676028851e+20
1.696440287e+20
1.602922584e+20
1.624167141e+20
1.647494496e+20
1.591953173e+20
1.544465342e+20
1.513917614e+20
1.498088337e+20
1.513084494e+20
1.563418818e+20
1.516833534e+20
1.515375574e+20
1.446434907e+20
1.809744586e+20
1.817728651e+20
1.719489936e+20
1.714907777e+20
1.747052318e+20
1.658741614e+20
1.674848598e+20
1.706090592e+20
1.653118055e+20
1.62895758e+20
1.564529645e+20
1.611184356e+20
1.590217507e+20
1.57022263e+20
1.473858435e+20
1.481703647e+20
1.564043658e+20
1.540091463e+20
1.51690296e+20
1.473233595e+20
1.789888563e+20
1.746496905e+20
1.755800076e+20
1.720392483e+20
1.725599482e+20
1.64284291e+20
1.62749962e+20
1.657214228e+20
1.633678592e+20
1.595910492e+20
1.563696525e+20
1.629721273e+20
1.564390792e+20
1.595077373e+20
1.521137986e+20
1.532037971e+20
1.530163451e+20
1.564460218e+20
1.469415129e+20
1.467193476e+20
1.75531409e+20
1.751842757e+20
1.73455552e+20
1.724141522e+20
1.69741226e+20
1.691788701e+20
1.640829537e+20
1.660824414e+20
1.672279812e+20
1.60882385e+20
1.606255064e+20
1.619376701e+20
1.572236003e+20
1.604727677e+20
1.617988168e+20
1.547242408e+20
1.575915616e+20
1.55467106e+20
1.480453967e+20
1.475038688e+20
1.793221043e+20
1.796136962e+20
1.703660659e+20
1.77274018e+20
1.757813449e+20
1.682832663e+20
1.631734646e+20
1.656172828e+20
1.652423789e+20
1.644786857e+20
1.601672905e+20
1.61028181e+20
1.576818163e+20
1.582650001e+20
1.603894558e+20
1.561683152e+20
1.524956452e+20
1.496213817e+20
1.50301763e+20
1.506627816e+20
1.757327463e+20
1.790513403e+20
1.706784859e+20
1.71525491e+20
1.740040226e+20
1.754342116e+20
1.727404575e+20
1.701439006e+20
1.643537177e+20
1.618127022e+20
1.618613008e+20
1.583691401e+20
1.547450688e+20
1.488924019e+20
1.528080652e+20
1.497116364e+20
1.586676747e+20
1.574527083e+20
1.458931704e+20
1.525928425e+20
1.77378158e+20
1.784959271e+20
1.768296874e+20
1.800580268e+20
1.752884157e+20
1.73309756e+20
1.759410262e+20
1.690261315e+20
1.662004667e+20
1.571125177e+20
1.557517553e+20
1.608129583e+20
1.629651846e+20
1.53557873e+20
1.55571246e+20
1.512529081e+20
1.586954454e+20
1.558975513e+20
1.478232314e+20
1.512459654e+20
1.822727371e+20
1.768019167e+20
1.761423635e+20
1.700050473e+20
1.759965675e+20
1.699564487e+20
1.698592513e+20
1.688386795e+20
1.676445411e+20
1.638607885e+20
1.562307992e+20
1.551616287e+20
1.60611621e+20
1.581678028e+20
1.571333457e+20
1.51669468e+20
1.567029004e+20
1.539188916e+20
1.566195885e+20
1.541202289e+20
1.351792802e+20
1.332536035e+20
1.295494475e+20
1.276145722e+20
1.236970414e+20
1.240811263e+20
1.201480259e+20
1.157341189e+20
1.180515158e+20
1.225554679e+20
1.350538691e+20
1.273608409e+20
1.314425365e+20
1.315125036e+20
1.28367287e+20
1.248169136e+20
1.204822145e+20
1.151926557e+20
1.199013678e+20
1.200240357e+20
1.35005098e+20
1.314577139e+20
1.32805843e+20
1.296560071e+20
1.319989045e+20
1.328312226e+20
1.248193998e+20
1.239731415e+20
1.203067139e+20
1.238917078e+20
1.385444792e+20
1.361859545e+20
1.302699515e+20
1.304811165e+20
1.297282481e+20
1.301116956e+20
1.245070063e+20
1.255389948e+20
1.284578549e+20
1.231790465e+20
1.363497842e+20
1.377784034e+20
1.355183288e+20
1.349338631e+20
1.307382247e+20
1.322108532e+20
1.307984678e+20
1.315536275e+20
1.28457855e+20
1.262004334e+20
1.426273087e+20
1.432362241e+20
1.385840027e+20
1.347560376e+20
1.321851411e+20
1.284597812e+20
1.342783868e+20
1.331048464e+20
1.24721301e+20
1.260148446e+20
1.401260531e+20
1.334219681e+20
1.292033231e+20
1.318325893e+20
1.357164773e+20
1.307320652e+20
1.291711151e+20
1.284219209e+20
1.262026567e+20
1.213380049e+20
1.431568225e+20
1.404932834e+20
1.387252781e+20
1.32351839e+20
1.353081887e+20
1.308258419e+20
1.298976118e+20
1.302219205e+20
1.268659503e+20
1.237655073e+20
1.403977773e+20
1.429275555e+20
1.358432619e+20
1.341585445e+20
1.335461024e+20
1.298736468e+20
1.301082958e+20
1.278804576e+20
1.319733108e+20
1.32310019e+20
1.455047979e+20
1.375469021e+20
1.325162288e+20
1.355953732e+20
1.325289629e+20
1.312730852e+20
1.315176995e+20
1.304633838e+20
1.312879075e+20
1.33661106e+20
1.432404299e+20
1.353301008e+20
1.325939301e+20
1.391803319e+20
1.382306738e+20
1.347788945e+20
1.33145052e+20
1.27309726e+20
1.308088621e+20
1.268537062e+20
1.393735862e+20
1.363052128e+20
1.401521586e+20
1.365058388e+20
1.357881067e+20
1.365462265e+20
1.352010383e+20
1.306097261e+20
1.359825526e+20
1.310108975e+20
1.393944881e+20
1.411807727e+20
1.405971763e+20
1.377150512e+20
1.396990786e+20
1.37685975e+20
1.359638591e+20
1.368658202e+20
1.338894917e+20
1.296004215e+20
1.468494835e+20
1.41201817e+20
1.393186333e+20
1.385686123e+20
1.417333581e+20
1.365534397e+20
1.379689895e+20
1.390828938e+20
1.345896349e+20
1.32228359e+20
1.406486003e+20
1.390621842e+20
1.392903792e+20
1.397707125e+20
1.367694323e+20
1.366760719e+20
1.388117267e+20
1.43912162e+20
1.33329378e+20
1.325624199e+20
1.42613374e+20
1.429345711e+20
1.39474038e+20
1.418050343e+20
1.410027368e+20
1.337112824e+20
1.406642933e+20
1.42485331e+20
1.348181027e+20
1.357025836e+20
1.458670965e+20
1.472068231e+20
1.444186715e+20
1.416841121e+20
1.391833467e+20
1.342811559e+20
1.425895096e+20
1.45858503e+20
1.429913544e+20
1.404239645e+20
1.458252928e+20
1.451724179e+20
1.370087841e+20
1.447000298e+20
1.404440255e+20
1.390637724e+20
1.403736936e+20
1.418414297e+20
1.423575406e+20
1.436160931e+20
1.52193393e+20
1.433835435e+20
1.45273388e+20
1.477870786e+20
1.510380345e+20
1.436804761e+20
1.482634489e+20
1.406999666e+20
1.415615873e+20
1.3968161e+20
1.548409606e+20
1.497954305e+20
1.454570459e+20
1.479222248e+20
1.495338143e+20
1.489969e+20
1.445001959e+20
1.48221916e+20
1.461088342e+20
1.42517407e+20
1.504446033e+20
1.443516393e+20
1.477033231e+20
1.455962705e+20
1.456085158e+20
1.435217769e+20
1.432578866e+20
1.562194762e+20
1.475533402e+20
1.447147793e+20
1.516847802e+20
1.518438661e+20
1.493350528e+20
1.499707737e+20
)
;

boundaryField
{
    flow
    {
        type            calculated;
        value           nonuniform List<scalar> 
42
(
1.852927965e+20
1.877990987e+20
1.839598047e+20
1.883059133e+20
1.822033104e+20
1.80675924e+20
1.860009484e+20
1.859176364e+20
1.778988579e+20
1.761840195e+20
1.802871348e+20
1.781835071e+20
1.771559927e+20
1.796484095e+20
1.778155459e+20
1.809744586e+20
1.789888563e+20
1.75531409e+20
1.793221043e+20
1.757327463e+20
1.77378158e+20
1.822727371e+20
1.852927965e+20
1.856399298e+20
1.854663631e+20
1.806203827e+20
1.763784141e+20
1.817659225e+20
1.805370707e+20
1.792804483e+20
1.809952866e+20
1.780515965e+20
1.776419792e+20
1.737402013e+20
1.738165706e+20
1.71712943e+20
1.648258189e+20
1.629929553e+20
1.711297591e+20
1.710533898e+20
1.603061438e+20
1.490659685e+20
)
;
    }
    obstacle
    {
        type            calculated;
        value           nonuniform List<scalar> 10(51.96223067 51.81217452 53.52014409 53.81886973 49.24024048 50.50133716 45.20613963 44.30363016 47.16839339 47.64688544);
    }
    frontAndBack
    {
        type            empty;
    }
    procBoundary0to1
    {
        type            processor;
        value           nonuniform List<scalar> 
21
(
1.194156609e+20
1.19423139e+20
1.256223739e+20
1.304381848e+20
1.321581173e+20
1.317094395e+20
1.290622388e+20
1.236108006e+20
1.288453779e+20
1.307148696e+20
1.31776741e+20
1.32584362e+20
1.314252762e+20
1.403464912e+20
1.355979829e+20
1.379385857e+20
1.405558743e+20
1.416027907e+20
1.425225807e+20
1.462690413e+20
1.414607094e+20
)
;
    }
    procBoundary0to2
    {
        type            processor;
        value           nonuniform List<scalar> 
31
(
1.752051037e+20
1.759271409e+20
1.756216636e+20
1.705674032e+20
1.750523651e+20
1.692205261e+20
1.699009073e+20
1.674640318e+20
1.689081062e+20
1.638399605e+20
1.593133426e+20
1.592508586e+20
1.62708306e+20
1.57126403e+20
1.630484966e+20
1.494339298e+20
1.533079371e+20
1.61007353e+20
1.578623256e+20
1.524262186e+20
1.452360423e+20
1.450799144e+20
1.421754055e+20
1.494658182e+20
1.438757459e+20
1.452121574e+20
1.538864425e+20
1.538572277e+20
1.461634224e+20
1.452360423e+20
1.537335567e+20
)
;
    }
}


// ************************************************************************* //
