/*--------------------------------*- C++ -*----------------------------------*\
  =========                 |
  \\      /  F ield         | OpenFOAM: The Open Source CFD Toolbox
   \\    /   O peration     | Website:  https://openfoam.org
    \\  /    A nd           | Version:  7
     \\/     M anipulation  |
\*---------------------------------------------------------------------------*/
FoamFile
{
    version     2.0;
    format      ascii;
    class       volScalarField;
    location    "0.006";
    object      internalEMean;
}
// * * * * * * * * * * * * * * * * * * * * * * * * * * * * * * * * * * * * * //

dimensions      [1 -1 -2 0 0 0 0];

internalField   nonuniform List<scalar> 
654
(
0.3761463176
0.388562086
0.393440556
0.3727993453
0.3721134099
0.4013150429
0.3929539678
0.3774877117
0.3981481619
0.3898908105
0.389518376
0.3807317233
0.3651788081
0.3770299924
0.3759606246
0.3696439749
0.3849610367
0.3914427943
0.3918687428
0.3941757946
0.4007583519
0.4031825699
0.388242184
0.3885230908
0.3821524281
0.3824292313
0.3764855284
0.3703094318
0.3784878807
0.4034204936
0.3804034262
0.3766019137
0.3888719281
0.3770755878
0.3967646534
0.3935506602
0.3972183934
0.3675738212
0.3787324394
0.3960489787
0.3943335352
0.4144123922
0.3954232284
0.3962794534
0.3739616843
0.385167251
0.3789024962
0.3838231487
0.3869119756
0.3991504119
0.364053478
0.3658101499
0.3792372534
0.3965598668
0.3923107852
0.3876818302
0.3772121694
0.3859227181
0.3589226901
0.3577763431
0.3946656515
0.4099610897
0.3807830523
0.3941830402
0.3647386727
0.3685580879
0.3787444497
0.3765000477
0.3828909227
0.379968877
0.3840209587
0.3743306862
0.4014163879
0.384813189
0.3802506566
0.381761167
0.3771310682
0.4032719877
0.3897374401
0.3706957512
0.3895906771
0.3882329798
0.3914796847
0.3667703065
0.3950396723
0.3922382796
0.3972618118
0.3950448033
0.3734432152
0.36168028
0.3689208601
0.3899137657
0.3958974512
0.4251935612
0.3826320924
0.376199755
0.3826386726
0.3901863446
0.3734587678
0.3646548714
0.3832138869
0.3838587105
0.3655194645
0.3732239744
0.3873664224
0.3788137957
0.377629431
0.3899739459
0.3827596296
0.3785051276
0.3937108174
0.4076956676
0.399311209
0.3799274963
0.3630009637
0.3888168736
0.383537731
0.3855069341
0.3620098974
0.3843130131
0.4065697957
0.3862306745
0.3862595379
0.3894726318
0.384306464
0.3854053936
0.3853145328
0.3981532212
0.3902578387
0.3810086098
0.3943278931
0.3828862466
0.3811467925
0.3811842506
0.3729663816
0.3610558065
0.4015451686
0.3748199446
0.3663071689
0.4021321746
0.3840827499
0.3910664455
0.3767208875
0.3860028127
0.3782551202
0.3746135536
0.3800917121
0.3775080387
0.4051241926
0.3815263695
0.3876122518
0.3790033696
0.3936165216
0.3668567149
0.3735345639
0.3619193658
0.3668169455
0.3633667561
0.383615531
0.381497469
0.3671618345
0.3934638591
0.3852186298
0.3822476876
0.3683895442
0.3915021812
0.3746783808
0.3694206871
0.395971676
0.3875494792
0.3825515659
0.3846531982
0.3892686969
0.3794709372
0.3763056442
0.3732509803
0.3501282394
0.3567063549
0.3602567487
0.3735609285
0.3829322819
0.3844895654
0.3634343115
0.3848105148
0.3724162641
0.3704967015
0.3636152196
0.3732751626
0.3719649465
0.3752548705
0.4007302469
0.4089254351
0.3823818954
0.3783055556
0.375214752
0.3602417271
0.3611620719
0.3622025457
0.3900260692
0.3770910176
0.3794548028
0.3879542225
0.3746501964
0.3816363065
0.3729923744
0.3721651254
0.3591103608
0.3700997083
0.3560079525
0.3705093778
0.3899090423
0.3935380423
0.3841395783
0.3652789991
0.379712214
0.3597195805
0.3617345578
0.3856898007
0.3794935137
0.3638175985
0.3736318238
0.3769620112
0.3816313912
0.4019272797
0.3600319965
0.372294674
0.3725648917
0.3718777222
0.3803720424
0.3730942018
0.3757664075
0.3840609795
0.386956737
0.3816676665
0.3782601637
0.3732257054
0.3446217564
0.3717121478
0.3771355491
0.374037339
0.3733117245
0.3581293306
0.3835683089
0.3762235408
0.3583772715
0.3856133249
0.3784254883
0.3796596353
0.381146634
0.3659836003
0.3828164183
0.3575574767
0.3710167746
0.358787204
0.3706064352
0.366362817
0.3818481287
0.3503020464
0.3621310334
0.3785795893
0.3706118347
0.4002934207
0.3805931808
0.3697976068
0.3668307248
0.4003491377
0.3698779102
0.3911485022
0.3563559326
0.3745439929
0.3777531554
0.3866201253
0.3838659927
0.3509349251
0.3681163047
0.3908942568
0.3812345639
0.3596842011
0.3686279571
0.3900670083
0.3679724983
0.3826958681
0.3590898003
0.3697511474
0.3754008604
0.371516188
0.3769027867
0.3826795499
0.3580279172
0.3627822877
0.3802379688
0.3709777988
0.3710356906
0.3600212631
0.3624963739
0.3814587523
0.3821113148
0.3654340183
0.3770343406
0.3634793588
0.3875755347
0.3862216038
0.3473087172
0.3674841002
0.3901426015
0.3543964395
0.3706452036
0.3850179521
0.3907144814
0.3733148199
0.3674722679
0.3749930203
0.3755809495
0.3787616505
0.3671731272
0.3693380892
0.3717994205
0.3754598437
0.369182982
0.3654158983
0.3691123728
0.3702387199
0.3649943479
0.3772517945
0.3781943477
0.3671800876
0.3696001485
0.3846173206
0.3664300431
0.3515580325
0.3725445213
0.3921468052
0.3810904027
0.3861693439
0.3710716487
0.3847140124
0.3802065735
0.3921657099
0.3672378856
0.3762966748
0.3629689451
0.3746269457
0.3591301999
0.3740855772
0.3753034397
0.37320606
0.3784657562
0.3874496772
0.3833122186
0.3670460245
0.368982588
0.3795711759
0.3692480219
0.3851452601
0.4101182076
0.3753319152
0.3915357412
0.3841914115
0.365085136
0.37953546
0.3811349035
0.3807266328
0.3613393348
0.3829668695
0.390309246
0.3777505603
0.3638573513
0.3835809801
0.3729257685
0.3604714918
0.3563671758
0.3797557862
0.3845175002
0.3735637727
0.3900734346
0.3765529162
0.3727875145
0.3644009121
0.3652073771
0.3661570665
0.3791885211
0.3762249134
0.3819910994
0.3774926095
0.3738425406
0.3925744472
0.384304793
0.3931525461
0.3629264931
0.3632072296
0.3655196161
0.3594914464
0.3509390242
0.3446994675
0.3533295802
0.3601407984
0.3813410137
0.3847382957
0.3503770421
0.3749005179
0.3754503577
0.3828237325
0.3837059642
0.4056358875
0.4129124719
0.3868538947
0.3980802347
0.3873123891
0.3821458209
0.3569561992
0.3460303547
0.3742046642
0.3804704074
0.3630027104
0.3753426333
0.3617224408
0.3802318444
0.3797873383
0.356538163
0.3725113005
0.3848346424
0.3839953848
0.3942479806
0.3778028122
0.3967896104
0.380939077
0.3872114374
0.3829228677
0.3761535684
0.3738109415
0.3639420731
0.3694184658
0.3701360662
0.3786868208
0.3911762165
0.3761160581
0.3919945247
0.3765272306
0.3954716505
0.3938461726
0.4286628415
0.4217898387
0.4318086057
0.4206837589
0.42230777
0.408915144
0.4095360149
0.4063888034
0.4208757019
0.4154685201
0.3916323287
0.3859132853
0.391562889
0.4235760838
0.4013992106
0.3996386683
0.4136004019
0.4137160076
0.4108373705
0.4205395446
0.3688590734
0.3680629718
0.4026764243
0.4040679805
0.4250743634
0.4254899716
0.4125407751
0.4131512912
0.3886276501
0.4130417298
0.3806479438
0.3879475554
0.3796091592
0.4009327989
0.4042034657
0.4076853128
0.4007968381
0.3903958615
0.4229111028
0.4001356748
0.3899845476
0.3858403471
0.3940870711
0.4062782557
0.4036066961
0.4081997315
0.4108993072
0.4146866369
0.4173731537
0.3919088088
0.402148721
0.4116926022
0.4165765335
0.4048012754
0.3894203479
0.3753891146
0.4101989049
0.4179803821
0.3831761095
0.3781294589
0.3977752673
0.3904458056
0.3750654043
0.3988076792
0.3850174001
0.3871736607
0.3842255878
0.3916854997
0.3818654413
0.3706241117
0.4118130736
0.4006899309
0.3939941212
0.3807052872
0.3987822532
0.3814647167
0.4039597846
0.3892905568
0.3847364568
0.3778571953
0.3800815213
0.3997901649
0.3721633425
0.3874833639
0.3888380175
0.3762084389
0.409562604
0.3899381503
0.4005305569
0.400158521
0.3683737489
0.3766343259
0.3659199685
0.3754501045
0.3954004954
0.3684874273
0.3879837688
0.4033002327
0.3827913219
0.4033040031
0.3738168415
0.3695223903
0.3553499194
0.3835016462
0.3986913351
0.3844101695
0.391015159
0.3859621502
0.3781227137
0.3735584319
0.3548606818
0.3523304617
0.3803360618
0.3759735204
0.3978862496
0.3881496723
0.3934825971
0.3875322617
0.39075449
0.3861352896
0.3726597125
0.3620802954
0.3747845097
0.3769629567
0.4051936157
0.3824679433
0.3753059895
0.4009068595
0.3788885867
0.3689324467
0.3920773252
0.383761372
0.3736312289
0.3818334061
0.4044666193
0.3819536447
0.3860682781
0.4055913805
0.3759833984
0.3795071195
0.3634750093
0.3498769871
0.3687277652
0.3706071509
0.3772108049
0.3730585082
0.3801973771
0.4004981952
0.371430537
0.3809867129
0.3702499013
0.3721370157
0.3781924772
0.3755641902
0.3810298148
0.3789707699
0.3862513788
0.383196146
0.3717917958
0.399193687
0.37017664
0.3783491316
0.3788622465
0.3800580209
0.3820858685
0.3702952964
0.3841580056
0.3975995601
0.3907924661
0.3904759357
0.3723420428
0.383169424
0.3789680989
0.3801428663
0.3892530549
0.3681382484
0.3658793605
0.3866821645
0.3836089586
0.3878685655
0.3817872489
0.3711699635
0.3978792577
0.3984597599
0.4293348267
0.3858767644
0.3944926494
0.3511625361
0.365752664
0.3792513975
0.3814882229
0.3772613291
0.3848114219
0.3950234336
0.3850517362
0.3889191711
0.3852420037
0.4031395204
0.3895528334
0.3840290813
0.393050461
0.3627472729
0.3635446053
0.3796192062
0.3873080197
0.3693895329
0.3677791414
0.4051416715
0.3973630455
0.3814985014
0.3860334828
0.3868979757
0.379534663
0.3833423696
)
;

boundaryField
{
    flow
    {
        type            calculated;
        value           nonuniform List<scalar> 
42
(
0.3761463176
0.4007583519
0.3943335352
0.3946656515
0.3895906771
0.3832138869
0.4065697957
0.3840827499
0.3671618345
0.3829322819
0.3794548028
0.3736318238
0.3733117245
0.3706118347
0.3679724983
0.3875755347
0.3691123728
0.3629689451
0.3811349035
0.3791885211
0.3754503577
0.3848346424
0.3761463176
0.388562086
0.393440556
0.3727993453
0.3721134099
0.4013150429
0.3929539678
0.3774877117
0.3981481619
0.3898908105
0.389518376
0.3807317233
0.3651788081
0.3770299924
0.3759606246
0.3696439749
0.3849610367
0.3914427943
0.3918687428
0.3941757946
)
;
    }
    obstacle
    {
        type            calculated;
        value           nonuniform List<scalar> 10(1.808811592e-19 1.676737409e-19 1.721312021e-19 1.904499794e-19 1.762525301e-19 1.70629836e-19 1.443661143e-19 1.621632385e-19 1.593710223e-19 1.727275595e-19);
    }
    frontAndBack
    {
        type            empty;
    }
    procBoundary0to1
    {
        type            processor;
        value           nonuniform List<scalar> 
21
(
0.4127745728
0.4092347507
0.423455639
0.4280507078
0.4267764126
0.401883103
0.3938689385
0.3742801351
0.3880484938
0.3979748471
0.3894962627
0.3754311403
0.3779045629
0.4100543265
0.3897194503
0.3851918924
0.3826159111
0.3807935503
0.3978365533
0.3846652009
0.3820670225
)
;
    }
    procBoundary0to2
    {
        type            processor;
        value           nonuniform List<scalar> 
31
(
0.3665838143
0.3766355104
0.377470259
0.3630526834
0.3895075586
0.3755691927
0.3771207473
0.3799332119
0.3727671198
0.3711333836
0.3712778057
0.3768890248
0.3876056327
0.3835765626
0.39822282
0.3693642016
0.3695407039
0.3798878623
0.3902002514
0.3751530111
0.3739432896
0.3732400397
0.3693604629
0.3912045279
0.3791072667
0.3941808089
0.3716164894
0.3777294555
0.3780912068
0.3739432896
0.3980790344
)
;
    }
}


// ************************************************************************* //
