/*--------------------------------*- C++ -*----------------------------------*\
  =========                 |
  \\      /  F ield         | OpenFOAM: The Open Source CFD Toolbox
   \\    /   O peration     | Website:  https://openfoam.org
    \\  /    A nd           | Version:  7
     \\/     M anipulation  |
\*---------------------------------------------------------------------------*/
FoamFile
{
    version     2.0;
    format      ascii;
    class       volScalarField;
    location    "0.006";
    object      internalT;
}
// * * * * * * * * * * * * * * * * * * * * * * * * * * * * * * * * * * * * * //

dimensions      [1 2 -2 0 0 0 0];

internalField   nonuniform List<scalar> 
654
(
294.0659072
303.2043481
307.2984486
298.9887044
305.6161398
319.8301286
315.2983407
305.0115517
318.6572825
317.2075573
317.6352888
317.4425525
304.3412277
318.0674785
330.4178635
328.5195324
325.8649382
331.4996058
354.1089104
383.0520969
309.125959
315.2851625
307.7425172
306.8693426
313.0970669
309.663867
308.6480947
303.6922363
311.2680585
334.1697966
316.8269971
314.3886952
314.9295895
320.7776857
339.7852705
348.3864272
344.2287517
338.8468291
356.5691114
390.4552882
310.5182791
320.1669903
317.8418747
313.6724048
309.0929503
310.1836251
314.622449
308.5177106
317.6201507
322.9402996
307.8546999
310.4726641
315.7800956
345.7835865
345.8946965
355.5454464
348.2704583
369.8470709
361.5057222
373.5879247
303.6069932
319.448523
309.4718522
312.4634432
312.6665371
312.5125345
310.634247
315.0726188
321.516893
330.6950457
326.194026
322.0269519
328.9833524
337.6575974
347.8130016
351.0568228
348.9521908
369.8920528
375.4862136
377.6290628
309.7409962
307.4082287
317.5468261
308.8004892
321.2462567
316.024449
320.3068855
320.5757433
313.2306052
316.7333958
324.3401681
346.992407
336.1316005
353.0603278
343.2057107
351.1582326
355.9741634
372.2064352
368.0797846
385.7315585
307.2467888
309.8953272
302.3187378
301.846973
312.6666708
316.5391332
311.1753203
324.9925966
324.2909131
321.5218731
332.8798842
350.3832637
347.8337758
328.1677269
339.0351865
351.0622367
361.9915623
368.2983086
362.289193
395.3615913
316.6404189
307.5501265
308.1611364
307.4447518
316.4399032
321.1853021
321.3791409
331.6367631
321.7084701
334.2911206
332.8755561
331.6294807
327.8366037
340.5455748
343.362838
348.2231762
372.732191
365.7928022
371.7065616
409.014435
299.2613366
312.7734874
309.9492684
317.3107559
314.3851714
304.6832363
325.7473914
322.1437743
331.2025245
329.5351343
336.7152126
325.014904
341.9025975
339.0245657
344.1440603
336.5486422
343.8150511
347.0511012
375.2893273
387.3279756
298.9721742
314.3776127
310.2369757
315.2797012
306.9557629
318.9538245
321.6629514
328.8674009
340.4476179
329.8895617
330.5300861
334.7160641
333.9277457
347.862285
351.2727881
351.6464323
342.2239929
350.8063969
376.80023
387.8959208
314.8486709
309.63787
308.0802757
323.7803134
314.7989431
314.5526235
311.1793022
316.2038936
315.4397794
328.4969531
342.8998843
350.2140163
338.743721
352.2256886
357.9247383
345.8553518
354.6034272
364.8091816
386.8755502
380.7421361
304.8889719
318.7265402
313.8014652
319.1660621
307.8771146
309.3358197
304.217146
310.5885041
313.8207136
333.4789823
346.6186111
354.7569695
346.9442067
355.7827219
358.3809531
347.0627821
351.1665379
367.4970584
378.5154418
373.7977753
303.7545245
311.6839514
316.0833409
318.7838587
302.7484912
313.0853301
305.9026539
320.9887226
328.2663319
328.5490985
333.2652444
341.8422102
351.099553
354.2494845
363.4050362
350.3728145
355.4229815
376.4405992
375.8042599
381.4801534
305.2545742
298.7764504
311.1658429
315.3724746
307.896415
319.2039558
328.5979478
335.3355065
327.431531
331.882265
335.6514358
325.3725521
351.1110597
346.1312008
349.0446365
351.3117065
369.2836047
356.418885
362.3409052
372.7922704
298.8424617
320.731015
319.600321
311.1735201
316.0048866
328.1602397
313.5552002
334.0023269
322.9692002
328.0673505
336.6298712
343.3876166
355.8466623
344.1733086
348.9200969
362.8939713
367.1416824
360.0825992
360.1542313
376.2380453
299.7726675
316.2494327
294.490972
311.2725126
320.1623122
313.8982364
325.7573749
326.7706751
323.5569572
323.5651608
334.33197
337.5701444
348.0037457
344.4865798
350.5198701
365.2000275
354.0470346
348.9935902
360.4184575
364.0216868
310.231196
307.7895769
292.5919977
310.4160597
323.4922371
309.4974023
320.5746884
326.9078053
342.3749937
331.9799495
340.2414116
337.1509178
342.1317853
349.4227414
360.878921
361.0847498
344.3548747
353.1533904
352.5577557
359.3041415
298.7301167
307.0862803
301.1323922
317.6509632
317.4836982
323.7646893
328.9710187
336.1991285
324.9158175
319.1059438
345.1215739
348.5633695
352.8817181
350.7053882
353.3747877
363.7599438
359.9384112
363.1211051
362.0340091
371.526154
299.5442786
309.7777978
299.9232409
314.3000512
320.2886939
319.5574635
334.1254245
337.9387409
332.039778
330.4900792
332.765092
339.5406199
340.209815
347.6719174
367.1809217
351.4014368
359.9024906
357.9773396
357.2281232
372.7308548
307.8869592
307.057851
307.2405574
312.9410353
321.6491846
325.1700837
323.0189621
335.5040815
326.9244135
317.4736575
322.3073913
341.624423
353.2489625
341.9213887
352.3035011
349.2846408
354.1198854
352.8029376
351.9831434
352.052828
312.5711454
304.3801824
324.2058602
318.8057756
311.2259703
324.1560537
322.2761256
334.7272781
319.878859
325.1533797
327.125245
328.8246762
328.5195689
335.3624819
334.9501056
348.4682097
348.1540551
353.9661075
347.8941118
355.9002357
306.6188005
310.6826071
314.3328492
326.3399802
341.233125
323.3481354
327.7554276
331.9356786
333.0759491
329.1171693
321.830831
337.0812172
338.1991011
342.4397555
349.4982174
346.4320929
347.0806659
352.8966914
349.3894035
356.781274
305.84321
314.6193534
324.229149
321.9213418
326.5897066
324.6865331
330.2215183
328.5381098
325.0290423
330.4634003
337.4520017
344.890053
333.8342089
346.8234928
360.6205593
359.2279424
362.367604
354.3650329
365.7763959
370.1803676
459.3588706
458.5255592
482.8387608
477.5313356
494.5567779
477.390603
493.7667699
508.6589877
516.4504788
491.0795273
420.0663595
438.9349982
431.5309916
466.5635253
452.9690716
463.8103782
497.2839119
520.264188
496.3547723
507.5572238
395.7826034
405.585529
439.2233488
451.4484775
466.4885461
464.018779
478.7746957
482.7562516
467.9400645
482.9454623
397.9977914
412.6549879
422.1228185
445.1130424
451.3483698
453.8947169
466.3123251
450.4773472
476.9082331
470.5619792
414.3232864
405.6699984
421.2506151
436.1632031
447.2003946
447.2517056
455.0709901
456.6291278
470.6632003
449.8529544
408.4420081
416.3576971
435.4397774
435.1510526
426.7587163
423.3123075
442.5219117
454.8921354
445.0452698
434.6755413
411.2115317
423.9160087
420.513286
438.2148884
410.9549133
429.0126333
430.8908513
441.8193485
438.316942
442.4693767
416.710533
413.1419214
411.4153925
416.6825627
426.9314426
422.3837819
450.488142
433.0481339
439.3034991
442.2567486
392.1596641
405.1935638
396.8641692
418.3898323
421.7779787
419.6177938
455.9967061
441.7107247
439.6387262
438.1125922
366.7395589
396.6573293
400.0031766
401.1010114
432.1881034
406.6243486
427.3421712
447.8022097
422.3609477
437.0930295
378.0416468
395.5421334
388.2209575
399.1496594
417.8099425
413.1610542
425.4171182
439.1668317
418.7376358
426.5812691
368.827934
374.4416291
393.110019
398.9811973
424.466672
411.7806355
421.591553
429.8122041
416.2624022
426.9514286
387.2694525
371.5144711
386.1459042
396.5186927
420.1607219
402.3942208
399.8604137
424.3213471
409.9316295
412.3697852
386.763696
393.7017734
388.4904625
399.1677557
413.3871823
405.1859827
405.3489324
422.4364625
404.6722765
415.7590561
374.3566396
364.4623995
383.4697576
384.0997408
399.5227169
395.3947142
396.7613492
403.1340338
403.5507432
416.3281768
376.0807422
377.1481537
392.7949627
383.6532883
391.4513686
410.567018
397.7705012
389.5806476
399.4827121
426.1298398
367.6191015
372.3155711
380.0181882
388.5752615
397.6675
399.4657261
390.2731836
394.875821
395.8975382
402.809257
369.8755454
382.342992
400.6827441
380.5613008
401.4903942
383.480543
377.5709583
394.9093708
390.3504308
391.2261485
363.3892023
374.9901961
396.7451554
390.5659724
411.7714124
389.0426979
385.435059
361.5435192
374.2729781
393.3094271
356.8959967
364.8296473
383.2300797
386.8439666
373.0148081
378.1190144
386.1994007
393.993766
386.2213615
390.3395883
378.458353
364.0230084
356.544578
377.6976865
385.3151746
372.8320002
371.8903877
375.6800532
390.107975
381.8795026
368.6628422
369.1013241
368.1595622
370.2768748
)
;

boundaryField
{
    flow
    {
        type            calculated;
        value           nonuniform List<scalar> 
42
(
294.0659072
309.125959
310.5182791
303.6069932
309.7409962
307.2467888
316.6404189
299.2613366
298.9721742
314.8486709
304.8889719
303.7545245
305.2545742
298.8424617
299.7726675
310.231196
298.7301167
299.5442786
307.8869592
312.5711454
306.6188005
305.84321
294.0659072
303.2043481
307.2984486
298.9887044
305.6161398
319.8301286
315.2983407
305.0115517
318.6572825
317.2075573
317.6352888
317.4425525
304.3412277
318.0674785
330.4178635
328.5195324
325.8649382
331.4996058
354.1089104
383.0520969
)
;
    }
    obstacle
    {
        type            calculated;
        value           nonuniform List<scalar> 10(504.2570102 468.7913962 465.8957259 512.6167062 518.5153207 489.4389121 462.6091767 530.2241374 489.4458753 525.1380875);
    }
    frontAndBack
    {
        type            empty;
    }
    procBoundary0to1
    {
        type            processor;
        value           nonuniform List<scalar> 
21
(
500.7235854
496.3984554
488.3006733
475.3755833
467.7921866
442.0070982
442.0780343
438.6183094
436.2782445
441.0390346
428.1647705
410.1893573
416.5332125
423.2395438
416.337232
404.5179214
394.3305493
389.550862
404.3592705
380.9578111
391.2461895
)
;
    }
    procBoundary0to2
    {
        type            processor;
        value           nonuniform List<scalar> 
31
(
303.0909237
310.1236009
311.3515634
308.3330024
322.3252332
321.5017328
321.5371263
328.6488483
319.6932774
328.1380441
337.5928479
342.8294379
345.0855344
353.6301561
353.7983011
358.0568466
349.1757225
341.7874454
358.0597029
356.5292449
372.9732947
372.6724896
376.3330227
379.1476665
381.6989097
393.2229861
349.8170837
355.6389738
374.7177556
372.9732947
375.0999694
)
;
    }
}


// ************************************************************************* //
