/*--------------------------------*- C++ -*----------------------------------*\
  =========                 |
  \\      /  F ield         | OpenFOAM: The Open Source CFD Toolbox
   \\    /   O peration     | Website:  https://openfoam.org
    \\  /    A nd           | Version:  7
     \\/     M anipulation  |
\*---------------------------------------------------------------------------*/
FoamFile
{
    version     2.0;
    format      ascii;
    class       volVectorField;
    location    "0.006";
    object      momentumMean;
}
// * * * * * * * * * * * * * * * * * * * * * * * * * * * * * * * * * * * * * //

dimensions      [1 -2 -1 0 0 0 0];

internalField   nonuniform List<vector> 
654
(
(1.086928531e-05 4.241766361e-05 -7.824350637e-05)
(5.151143382e-05 4.63847066e-05 -2.134351219e-05)
(4.767464961e-05 6.290422916e-05 5.719483795e-07)
(4.941480484e-05 1.189489144e-06 4.539593411e-06)
(7.374629302e-05 1.366191387e-05 8.111314709e-05)
(8.001216059e-05 7.95670376e-05 1.800599943e-05)
(6.647309039e-05 5.427771027e-05 8.411794194e-06)
(2.244048476e-05 6.909913093e-05 3.73602629e-05)
(2.589981955e-05 6.93978463e-05 4.128582195e-05)
(4.577434016e-06 6.794932795e-05 2.61624174e-05)
(4.232473716e-05 5.43252859e-05 -6.291338848e-06)
(5.478460071e-05 6.353735242e-05 -4.177389403e-06)
(7.730930807e-05 5.350392698e-05 -1.304962281e-06)
(3.519813223e-05 5.91862348e-05 8.15378228e-05)
(4.382946018e-05 7.143010654e-05 3.346945946e-05)
(8.35890374e-05 4.485266622e-05 2.71166531e-05)
(0.0001045906454 7.887061389e-05 4.121008864e-05)
(0.0001003849922 0.0001090792454 -7.421726114e-06)
(0.0001146200121 8.48394998e-05 -1.842161542e-05)
(0.0001117919127 9.519743949e-05 -4.958096875e-07)
(6.463446935e-05 7.886835545e-05 -5.74695996e-05)
(7.396221111e-05 7.345018267e-05 3.336470849e-05)
(9.365783835e-05 7.587224683e-05 2.445122223e-05)
(0.0001068981577 2.995763702e-05 -5.982345098e-06)
(7.353638092e-05 6.083230117e-05 1.653577535e-05)
(8.291839233e-05 9.471056534e-05 5.230028882e-05)
(8.951440942e-05 8.695636201e-05 6.440214142e-06)
(0.0001122346444 0.0001170121349 4.090312846e-05)
(8.830935188e-05 0.0001092615908 1.158925153e-05)
(9.764134851e-05 8.593704153e-05 3.027657172e-05)
(7.033994591e-05 6.017017082e-05 1.039056979e-05)
(8.892760951e-05 0.0001013024337 3.852044907e-05)
(0.000105402406 6.788151474e-05 4.341354427e-05)
(0.0001157816296 0.0001147367767 1.935065719e-05)
(9.807691218e-05 5.901719158e-05 1.088191661e-05)
(0.0001126425081 6.205045448e-05 3.301696019e-05)
(8.85482962e-05 0.0001045039937 1.475194876e-05)
(0.0001267377973 9.949070038e-05 -5.383174072e-05)
(0.0001686590276 0.000102736503 1.248415729e-05)
(0.0001823688473 0.0001388329981 -3.224788941e-06)
(3.108660001e-05 5.088584751e-05 -1.764816623e-05)
(6.310731625e-05 9.89686066e-05 9.165270447e-06)
(8.901500008e-05 4.50803567e-05 2.599845616e-05)
(8.410680723e-05 6.77239171e-05 7.991205969e-06)
(8.802757276e-05 6.858657434e-05 2.027985982e-05)
(0.000103545707 6.391910843e-05 -1.021515151e-05)
(0.0001250319212 8.281667132e-05 2.341750541e-06)
(0.0001045827257 0.0001136843071 4.074130135e-05)
(0.0001054831502 0.0001086014845 3.483435036e-05)
(0.0001216921083 0.0001015694789 1.894841324e-05)
(0.0001317501166 7.575845558e-05 3.549928281e-05)
(0.0001368956826 6.844890856e-05 6.703596659e-05)
(0.0001004335285 7.741153326e-05 2.249966806e-05)
(0.0001268055458 9.643896714e-05 9.107908025e-06)
(0.0001444169435 5.711588224e-05 1.133762899e-05)
(0.000148476635 6.996568949e-05 1.059258286e-05)
(0.0001621494892 9.268153387e-05 -6.560988663e-05)
(0.0001518591703 8.991119176e-05 -5.154499452e-06)
(0.0001630554537 9.158873554e-05 -1.582534629e-05)
(0.000176947207 9.750874601e-05 -3.979732447e-05)
(3.316228359e-05 8.500034222e-05 7.603100126e-06)
(9.708671657e-05 3.087705191e-05 -9.948932744e-06)
(9.687059118e-05 5.674463085e-05 6.069017168e-06)
(7.214674698e-05 6.821250132e-05 6.190816328e-05)
(6.142432963e-05 5.711081612e-05 6.598148935e-07)
(4.301697414e-05 8.504865294e-05 1.576788065e-05)
(3.53874354e-05 9.131974131e-05 -1.049825946e-05)
(8.413725605e-05 6.804260986e-05 2.509177086e-05)
(0.0001158629618 9.684688396e-05 1.405337605e-05)
(0.0001168613504 0.0001044357681 3.038935668e-05)
(0.0001208517267 4.016766808e-05 5.748869276e-06)
(0.0001416697392 8.144662707e-05 2.325359542e-05)
(0.0001235897554 0.0001196482409 4.631361181e-05)
(0.0001116265089 7.299262848e-05 -3.016925655e-05)
(0.0001482155862 3.195627935e-05 -1.180744728e-05)
(0.0001441843863 7.129164759e-05 1.646820072e-05)
(0.0001788143459 6.905318953e-05 1.253423452e-05)
(0.0001913003496 0.0001051787245 1.374898302e-05)
(0.0001747105367 5.493812833e-05 -1.305136526e-05)
(0.0001895466604 9.684569404e-05 -3.865594102e-05)
(6.775956219e-05 6.209458399e-05 3.147749865e-05)
(9.195048637e-05 2.993205307e-05 3.552018515e-06)
(8.081468522e-05 8.235215418e-05 -3.598550853e-06)
(8.575182482e-05 8.569295134e-05 7.990604893e-06)
(7.045013133e-05 6.590518237e-05 3.840506328e-05)
(7.442685952e-05 6.826009492e-05 -1.529417031e-05)
(6.855026889e-05 0.0001050871878 -3.033372285e-06)
(6.015955463e-05 3.995448633e-05 -1.577770086e-07)
(8.841290667e-05 9.600539804e-05 -1.655751952e-05)
(0.0001106102732 6.072534765e-05 2.130985215e-05)
(0.0001255914926 6.251337121e-05 3.14539963e-05)
(0.0001177969601 5.930915217e-05 3.66876221e-05)
(0.0001667669046 0.0001215655727 -7.169520762e-06)
(0.0001580829143 6.603784894e-05 -1.028780202e-05)
(0.0001829861657 3.383802251e-05 3.578922176e-05)
(0.0001661643203 6.857451679e-05 3.399310223e-05)
(0.0001271567357 5.402755897e-05 1.865306123e-05)
(0.0001568170247 9.493603097e-05 -2.952275386e-05)
(0.0001860685906 5.871990086e-05 -1.021067281e-05)
(0.0001965812226 7.485400186e-05 -2.284700216e-05)
(7.817206965e-05 2.295700567e-05 7.173998748e-05)
(0.0001143193879 6.482563301e-05 -2.271697569e-05)
(0.0001141111716 5.329132539e-05 3.685578835e-05)
(9.497650654e-05 9.712750769e-05 4.777462934e-05)
(8.839044648e-05 8.627104494e-05 3.884386863e-05)
(7.701272772e-05 6.505572083e-05 -3.339525536e-06)
(8.527108083e-05 7.889978445e-05 2.398050734e-06)
(8.945494947e-05 6.541274429e-05 1.782066314e-05)
(9.990225869e-05 5.157145478e-05 1.513632288e-05)
(0.0001228579177 3.119299848e-05 2.65302722e-05)
(0.0001385592076 8.054269333e-05 2.984796845e-05)
(0.0001133723981 5.167004804e-05 1.338450033e-05)
(0.0001348324867 7.807226477e-05 4.176563876e-06)
(0.0001772990728 3.956966506e-05 5.264819448e-06)
(0.0001604233447 4.944791248e-05 3.021417145e-05)
(0.0001674433086 7.030927715e-05 2.52525172e-05)
(0.0001581455694 8.621829895e-05 4.620591995e-05)
(0.0001498199187 7.535584612e-05 -1.056862002e-05)
(0.0001409734334 6.47196145e-05 -9.671747194e-06)
(0.0001313658945 6.225043392e-05 2.237868962e-05)
(1.66520655e-05 1.542087291e-05 -1.633306491e-05)
(5.6454063e-05 3.536690688e-05 -2.606148046e-06)
(7.324740045e-05 9.336642304e-05 5.297257732e-07)
(8.250145803e-05 9.340904746e-05 3.495823954e-05)
(0.000114234601 6.323283839e-05 3.634760754e-05)
(0.0001225256034 7.005637243e-05 2.424150942e-05)
(0.0001140083801 9.44469533e-05 1.619120685e-05)
(0.0001091764737 4.001136777e-05 6.069260325e-05)
(0.0001271195937 3.771135059e-05 -4.645819272e-07)
(0.0001262355977 4.245401298e-05 -3.485283859e-05)
(0.000130784587 6.44232679e-05 -1.46730311e-05)
(0.0001540302142 7.776875698e-05 1.341843757e-05)
(0.0001360255831 6.663589572e-05 -2.854230886e-05)
(0.0001417696018 2.983140646e-05 -3.521638863e-05)
(0.0001372276849 4.239879691e-05 -4.266373519e-05)
(0.0001544476116 7.134284832e-05 1.633802219e-05)
(0.0001746244266 8.85091554e-05 -1.813119752e-05)
(0.0001678400213 6.361007998e-05 -1.316732511e-05)
(0.0001646266264 7.039381343e-05 2.131228898e-05)
(0.0001690686816 4.280296631e-05 -1.788210974e-05)
(5.957806317e-05 6.883500166e-06 -2.987711536e-05)
(0.0001000773901 4.356230482e-05 -7.920480462e-06)
(6.970428101e-05 6.030544951e-05 1.135893529e-05)
(0.0001028879176 5.286213912e-05 3.308170462e-05)
(0.0001226420924 8.179494425e-05 4.361303208e-05)
(8.631374796e-05 8.377337973e-05 2.425461067e-06)
(0.0001185272529 5.589447571e-05 -5.605235814e-05)
(0.0001569000351 5.47229273e-05 -3.181917783e-05)
(0.0001226252664 3.090968373e-05 -2.265395451e-05)
(0.000125335205 4.71336802e-05 -6.381815535e-05)
(0.0001265144596 6.408026618e-05 -4.197333987e-05)
(0.0001284661997 5.298162175e-05 -1.036021945e-05)
(0.0001472226045 5.992593837e-05 2.969829232e-05)
(0.0001350910388 5.797657562e-05 -4.014114999e-05)
(0.0001277905628 3.305862821e-05 2.277331076e-05)
(0.0001429657117 5.239260576e-05 -1.149604122e-05)
(0.0001591802296 5.689098663e-05 -6.535053529e-06)
(0.0001838087576 7.083892908e-05 1.589507461e-05)
(0.0001798287473 9.602643659e-05 -4.883085327e-06)
(0.0001752821422 5.78530575e-05 1.093525315e-05)
(5.319165687e-05 -2.057142464e-06 1.264339613e-06)
(5.990151493e-05 3.799891335e-05 4.164862017e-05)
(0.0001137276375 6.77699806e-05 2.285251619e-06)
(0.0001191560431 1.887342271e-05 2.133343454e-05)
(0.0001416936398 7.45141208e-05 2.38732365e-05)
(0.0001468872651 8.450799664e-05 7.412267191e-06)
(0.0001447498992 5.107315333e-05 -2.141471015e-05)
(0.0001366847973 4.664918234e-05 1.181646275e-06)
(0.000150554969 3.540675847e-05 -6.487877597e-05)
(0.0001380343164 6.809232347e-05 -0.0001256501417)
(0.0001443910978 3.927571968e-05 -2.009387848e-05)
(0.0001378464068 6.489762661e-05 3.986005472e-06)
(0.0001269513183 5.048357483e-05 1.131789339e-05)
(0.0001416795964 6.352228566e-05 -2.004813858e-05)
(0.0001526231285 3.606981658e-05 -1.955788681e-05)
(0.0001307765887 5.370467716e-05 2.653119336e-06)
(0.0001377016697 5.288837852e-05 -1.39867895e-05)
(0.0001581389262 5.41713295e-05 4.261112119e-06)
(0.0001883582615 7.648609247e-05 5.968726055e-07)
(0.000206537482 3.469377271e-05 2.076488934e-06)
(1.79674063e-05 2.602549942e-07 -2.360407946e-06)
(5.578983455e-05 2.285317142e-05 2.714128151e-06)
(7.285758058e-05 3.229596681e-05 -3.948375435e-05)
(9.651107537e-05 1.294312105e-06 2.984860251e-06)
(8.808176424e-05 7.604718451e-05 4.652360029e-05)
(0.0001190184739 7.955309974e-05 3.802439303e-05)
(0.0001303884919 3.700535562e-05 3.266713656e-05)
(0.0001395319031 3.307675778e-05 2.173033285e-05)
(0.0001671443643 3.617935474e-05 -2.647441229e-05)
(0.0001421329959 8.404131418e-05 -1.993874972e-05)
(0.0001364722726 3.166462836e-05 1.299099833e-05)
(0.0001354383056 8.034218262e-05 3.758338112e-05)
(0.0001196783675 5.531035575e-05 5.107251456e-05)
(0.0001323446162 3.959867872e-05 -1.61161128e-05)
(0.0001400798926 4.077398717e-05 -4.548848271e-07)
(0.0001583826108 3.429709305e-05 3.155189035e-05)
(0.0001891860285 1.125832112e-05 1.057864649e-05)
(0.0002066713884 5.716934805e-05 -1.651612047e-05)
(0.0002040569561 5.428216735e-05 -3.41612618e-06)
(0.0002001959648 4.091617372e-05 1.367107283e-05)
(6.816868992e-05 -2.704294577e-06 7.423880543e-07)
(0.0001201466556 1.738918842e-05 2.304051178e-05)
(0.0001098848055 1.183335945e-05 1.869911257e-05)
(8.155736266e-05 3.085982465e-05 -3.585724357e-05)
(0.0001006936788 4.146118825e-05 8.7553205e-06)
(0.0001223050255 5.417873067e-05 1.044673533e-05)
(0.0001221006529 4.177869894e-05 2.846395253e-05)
(0.00014320148 1.398862349e-05 9.573931117e-06)
(0.0001073722751 4.979771688e-05 -1.567031068e-05)
(0.0001281649102 7.475039821e-05 -6.346970671e-05)
(0.0001598547075 2.037302833e-05 1.383276166e-05)
(0.0001483502361 7.432638648e-05 3.728090448e-05)
(0.0001538962484 7.528688196e-05 0.0001192582006)
(0.0001437460572 3.843913218e-05 4.381405547e-05)
(0.0001853264065 1.839875921e-05 -7.438414776e-06)
(0.0001682061165 4.707117466e-05 -7.719356247e-06)
(0.0001514343974 7.555745178e-06 -9.038586397e-06)
(0.0001677582346 2.119662089e-05 1.394271576e-05)
(0.0001821691417 7.372204264e-05 4.382601602e-06)
(0.0001790839064 2.839559528e-05 -1.404006935e-05)
(7.328125098e-05 -1.594508435e-05 2.417991792e-06)
(8.322423139e-05 1.164919786e-05 1.685103284e-05)
(0.0001045568612 2.262849689e-05 1.35749296e-06)
(7.653099737e-05 5.433830175e-05 -3.559260274e-05)
(7.044961008e-05 2.163677458e-05 1.495718433e-06)
(0.0001010220844 1.151482137e-05 8.439463893e-06)
(0.0001405410759 3.65765852e-05 -7.650543928e-06)
(0.0001219225976 3.426237762e-05 -4.087763871e-06)
(0.0001379766069 3.885074764e-05 3.062818577e-05)
(0.0001774538823 4.290683397e-05 -2.894869662e-05)
(0.0001363032846 3.807532139e-05 2.449814814e-06)
(0.0001450318026 7.905114385e-05 -1.854482489e-05)
(0.0001580392262 5.684934929e-05 9.519322145e-06)
(0.000180588098 2.617743493e-05 6.036983693e-06)
(0.000168691085 -4.646756962e-06 2.460030151e-05)
(0.0002016698183 4.997077699e-05 -6.401585554e-05)
(0.0001957803265 2.252744203e-05 -4.25417365e-06)
(0.0001693453745 2.056273705e-05 -1.534854395e-05)
(0.0001990305956 6.608029197e-05 -1.275011502e-05)
(0.0001989610959 2.874077422e-05 2.834359481e-05)
(6.294954063e-05 -4.213606342e-06 1.151205134e-05)
(0.0001063360042 -1.041921401e-06 2.562644131e-05)
(9.015478863e-05 5.21009803e-05 -8.842739648e-06)
(0.0001056379942 2.767252664e-05 -4.638436269e-05)
(0.0001263463659 1.614866287e-05 -4.61179707e-05)
(0.0001361502314 1.284544105e-05 -1.756469144e-05)
(0.0001328108128 2.038725688e-05 2.148446554e-05)
(0.0001454773781 1.248125903e-05 -2.00441707e-05)
(0.0001699452878 2.389398821e-05 3.377696185e-05)
(0.0001630622955 3.349332925e-05 -7.405194204e-06)
(0.0001393723966 6.890595525e-05 -2.168162037e-05)
(0.0001579926001 5.692453554e-05 1.319335701e-05)
(0.000184148382 1.824239149e-05 -8.290946301e-06)
(0.0002009201219 2.849878749e-05 -8.230234769e-06)
(0.00017885151 3.600592287e-06 -2.878028224e-06)
(0.0001838722402 6.994083904e-05 -1.649105637e-07)
(0.0001742795703 3.260717456e-05 -3.594533732e-07)
(0.0001545401665 2.429605527e-05 -1.399180291e-05)
(0.0001673046141 1.549252399e-05 -2.878254897e-05)
(0.0001864668092 3.638288266e-05 -2.849463776e-05)
(6.062547765e-05 -2.222039177e-05 1.161741682e-05)
(9.980215563e-05 7.968267903e-07 1.818029615e-05)
(0.0001361431922 1.469524501e-05 9.083754327e-07)
(0.0001865646988 3.526870531e-05 -4.378317715e-05)
(0.0001626783393 8.881477678e-07 -5.263495203e-05)
(0.0001601733237 9.881127643e-06 1.749516315e-06)
(0.0001381757234 2.870046157e-05 -4.736728139e-05)
(0.0001671514538 -1.033517039e-05 -6.035314445e-06)
(0.0001401037924 1.535558634e-05 -8.87195101e-06)
(0.0001296645888 5.621495458e-05 -2.056169356e-05)
(0.0001543672128 5.593788577e-05 -7.967892339e-06)
(0.0001487838208 4.357546037e-05 5.022363249e-05)
(0.000137796066 3.74737051e-05 1.009304752e-05)
(0.0001509617534 -1.371892801e-05 2.763697917e-05)
(0.0001822503508 2.277600584e-05 -3.664600379e-05)
(0.0001738759424 5.900400352e-05 -2.388737019e-06)
(0.0001765157045 3.557182527e-05 -5.658835447e-05)
(0.0001823193265 2.945159503e-05 -2.21286055e-05)
(0.0001533679587 3.870536506e-05 -4.839971902e-05)
(0.0001335175015 2.477370783e-05 -2.353792337e-05)
(5.4676333e-05 -2.590096357e-05 -7.211532079e-05)
(0.0001105933711 -3.331992186e-05 -3.666245983e-05)
(0.0001293573496 -4.232832248e-06 -2.96406947e-05)
(0.000102743682 2.288813035e-05 -1.719786175e-05)
(0.0001114046195 1.651441552e-05 1.61551725e-06)
(0.0001277159792 -6.428807321e-06 -1.664848273e-05)
(0.0001642992843 4.207880504e-05 -5.771255015e-05)
(0.0001235313587 2.416032522e-05 -3.562604366e-05)
(0.0001025560471 2.706403634e-05 -5.533828266e-05)
(9.127589157e-05 3.142689912e-05 -5.6490454e-05)
(0.0001490756103 4.225878089e-05 -2.27549925e-05)
(0.0001500708674 4.60522521e-05 -2.396325281e-05)
(0.0001580861278 4.023721209e-05 5.481856176e-06)
(0.0001536630685 -6.609959653e-06 1.537494019e-05)
(0.000124714025 2.270414971e-05 -3.640017011e-06)
(0.0001502011719 1.804306672e-05 -3.300217035e-05)
(0.0001770833576 4.715839301e-05 -6.807688722e-05)
(0.0001749509151 3.711737132e-05 -4.778235157e-05)
(0.000169821064 4.562394841e-05 -2.191829088e-06)
(0.000189107686 3.828291754e-05 5.441506822e-06)
(4.500987083e-05 -1.622237551e-05 2.683592182e-05)
(6.782661703e-05 -4.34688153e-05 2.839799792e-06)
(7.196716808e-05 -2.109049159e-05 1.167101962e-05)
(9.721449323e-05 4.064673706e-05 -4.665694074e-06)
(0.0001065074067 -1.486796014e-05 -6.699495537e-07)
(0.0001058777013 1.099965574e-05 -1.119270723e-05)
(8.333544469e-05 2.342382008e-05 -2.807092801e-05)
(8.951938819e-05 2.558973825e-05 -4.740019719e-05)
(0.0001161630149 3.852302012e-05 1.310115235e-05)
(0.0001662731044 1.53204208e-06 -2.535567661e-06)
(0.0001457250576 1.891508003e-05 -3.597317197e-05)
(0.0001721073905 3.139829571e-05 -2.432058578e-05)
(0.0001934860119 3.514084332e-05 -1.026965356e-05)
(0.000173113652 1.347646361e-05 -3.124466103e-05)
(0.0001870657024 2.432810959e-05 7.534129123e-06)
(0.0001681383923 1.404332106e-05 -1.184023413e-05)
(0.000146947703 2.146027397e-05 -4.777966104e-05)
(0.0001719047695 5.053729643e-05 -4.53503924e-05)
(0.0001880709483 3.882888439e-05 1.735485432e-06)
(0.0001500609672 4.943148752e-05 -8.052938062e-06)
(6.164094997e-05 -2.239974356e-05 3.358931418e-05)
(8.767221927e-05 -2.590030491e-05 -8.969222394e-06)
(9.276550928e-05 -4.231241065e-05 3.925134828e-05)
(0.0001005348388 9.085860212e-06 2.101568593e-05)
(0.0001181274748 8.369880979e-06 3.922014003e-06)
(0.0001223339374 2.364209538e-05 -1.513787903e-06)
(0.000110277559 2.31605138e-05 8.450839405e-06)
(0.0001158752106 4.007901981e-06 2.333736525e-05)
(0.0001343405401 -1.537536285e-05 -2.901790133e-05)
(0.000135849002 2.410879487e-05 -2.639401767e-05)
(0.0001266873789 2.790084632e-05 -5.091432208e-06)
(0.0001321012213 2.981911979e-05 -5.845241893e-06)
(0.0001417932285 3.56551703e-06 -1.156601194e-05)
(0.0001752349962 2.464083258e-05 -1.795359963e-05)
(0.0001488575294 3.18346548e-05 -1.276291782e-06)
(0.0001476207576 3.265974762e-05 -1.983625063e-05)
(0.000142116377 1.666346305e-05 -4.015529017e-05)
(0.0001575009993 1.952337905e-05 -2.972196863e-05)
(0.0001733267326 4.759450301e-05 -1.03701453e-05)
(0.0001643685122 7.169398084e-05 -1.777119802e-05)
(8.581050122e-05 -2.519605079e-05 1.529143635e-05)
(0.0001215547445 -4.248095106e-05 6.582361289e-05)
(8.232003766e-05 -1.983045727e-05 2.522669894e-05)
(7.349988265e-05 -5.912448271e-09 -2.39133737e-05)
(0.0001048530956 -1.659790889e-05 4.356630949e-05)
(9.849453682e-05 2.732804901e-05 1.986098525e-05)
(0.0001318405177 2.547287264e-05 -1.179292562e-05)
(0.0001169604568 7.898075212e-06 -3.412927467e-05)
(0.0001014339979 -1.311899381e-05 2.395908732e-06)
(0.0001017072236 3.646391456e-05 -2.20477e-05)
(0.0001246663583 -1.067938913e-06 -4.214735073e-05)
(0.0001200080479 1.900212344e-06 6.938901529e-06)
(0.0001385015328 9.939273988e-06 2.249892073e-05)
(0.000114153762 3.43939537e-05 -7.897162946e-06)
(0.0001451602864 3.68610203e-06 -7.323422638e-05)
(0.0001901765548 7.787762067e-06 -1.136861721e-05)
(0.0001813049312 5.317830831e-05 2.649818329e-05)
(0.0001650309362 3.833564682e-06 -2.413642304e-05)
(0.0001642998375 5.461381977e-05 -3.091742193e-06)
(0.0001639204563 6.278941793e-05 3.127188115e-05)
(4.66664628e-05 -3.333577089e-05 -1.260640132e-05)
(7.453306915e-05 -4.284342752e-06 -2.803331253e-05)
(7.366467276e-05 -1.731321904e-05 -2.46347417e-05)
(8.197012021e-05 -2.454721589e-05 -8.556461047e-06)
(6.881826571e-05 -1.930423504e-05 1.432002866e-05)
(8.055390134e-05 -8.285256561e-06 1.074890384e-05)
(9.655824752e-05 1.992273745e-05 -1.619824992e-05)
(9.482402459e-05 2.050871091e-05 -6.017976014e-06)
(0.0001069183084 -6.643479873e-06 -3.264732377e-05)
(0.0001254463457 2.62838073e-05 -4.279634101e-05)
(0.0001122705351 -1.037006946e-05 -5.543112126e-05)
(0.0001132465751 2.000922258e-05 -5.345085877e-05)
(0.0001230458321 6.218549856e-06 -2.112490228e-05)
(0.0001380025477 -1.029506352e-05 -3.87393881e-05)
(0.0001653719281 7.874686102e-06 -0.000110082637)
(0.0001453224501 4.721781709e-06 -4.082232729e-05)
(0.0001679637831 2.195166503e-05 3.399947527e-05)
(0.0001932011907 2.092203297e-05 -5.391978775e-05)
(0.0001804079102 6.036065852e-05 -3.113886759e-05)
(0.0002067874017 5.387953716e-05 1.74193333e-05)
(5.308948202e-05 -1.043352543e-05 -1.943912305e-05)
(7.235710194e-05 -4.292840455e-05 -3.064216497e-05)
(8.864922734e-05 -1.337602605e-05 -0.000111388176)
(9.861311928e-05 -1.504588111e-05 -5.948551014e-05)
(6.361004479e-05 -8.210560464e-07 -4.692378035e-05)
(6.985230193e-05 -1.890275572e-05 -4.751761467e-05)
(9.508630956e-05 -1.395986761e-05 -2.881709556e-06)
(0.0001331975845 2.699809577e-05 2.471357266e-05)
(0.000124476996 -2.710575178e-05 1.081507831e-05)
(0.0001210905731 -1.282079595e-06 -4.9066313e-05)
(0.0001448960273 1.993611827e-05 -3.813046949e-05)
(0.0001512452593 6.37580041e-06 -5.74850217e-05)
(0.0001438210353 6.037414121e-06 -2.637354964e-05)
(0.0001529560329 -1.665790131e-05 -6.675594556e-05)
(0.0001378459813 7.455623162e-06 -3.792331203e-05)
(0.0001695226417 -2.216701444e-05 -3.85021978e-05)
(0.0002069826191 3.076725008e-07 -1.717541646e-05)
(0.0001904017202 1.264814396e-05 -1.572858555e-05)
(0.0002100187638 5.92489928e-05 -1.821916752e-05)
(0.0002208291194 4.908119585e-05 -1.13561854e-05)
(3.091663158e-05 -1.145439726e-05 -4.102141393e-05)
(6.65900231e-05 -1.190366434e-05 -2.394830803e-05)
(6.008647894e-05 -4.218111994e-05 -3.43923161e-05)
(0.0001037264123 -1.823683556e-05 -5.084029762e-06)
(0.0001383245695 -4.595296318e-06 -5.351388969e-05)
(0.0001089130548 -2.154264517e-05 -2.002590807e-05)
(0.0001168849983 -4.278340345e-05 -3.618796309e-05)
(0.0001354491878 2.05337329e-05 -4.016761504e-05)
(0.0001610114356 -3.669576211e-05 -2.349952634e-05)
(0.000179449371 2.611716065e-05 -1.366788323e-06)
(0.0001321407159 3.055023872e-06 -8.168835984e-05)
(0.0001334062895 7.704337639e-06 -3.812719024e-05)
(0.0001345043994 -4.527166364e-06 -4.653434982e-05)
(0.0001463190296 -1.21880621e-05 -4.245442876e-05)
(0.0001661889756 -1.111839668e-05 -6.254398934e-05)
(0.0001630082233 -4.003367161e-05 -4.040633981e-05)
(0.0001749275616 -7.752430746e-06 -3.021784282e-05)
(0.000177924621 3.345088346e-05 6.153293121e-05)
(0.0001832130051 1.009403599e-05 -3.817321973e-05)
(0.00020462409 4.622228086e-05 -1.411444703e-06)
(4.253354011e-05 -3.71138831e-05 -1.221827078e-06)
(8.323423738e-05 -3.599175528e-05 -1.422539053e-05)
(0.0001208603037 -5.380811663e-05 -5.195051053e-05)
(0.00011932281 -5.1147811e-05 -7.445134448e-05)
(0.0001268782462 -3.715297333e-05 -5.617140753e-05)
(0.0001589139498 2.951032212e-05 -3.267499325e-05)
(0.0001197080219 -5.605015598e-05 -6.559246512e-05)
(0.0001476858334 -2.65616474e-05 -7.074791906e-05)
(0.0001488260846 -3.164182195e-05 1.339363562e-05)
(0.0001175349463 3.586235345e-05 -2.139137837e-05)
(0.0001312795313 3.730111572e-05 -7.600314895e-05)
(0.0001184651071 1.576432345e-05 -7.139347751e-05)
(0.0001075973854 7.016132534e-06 8.585653846e-06)
(0.0001239274678 -4.662437473e-05 -7.471459514e-06)
(0.0001372626686 -2.870139428e-05 -3.803363885e-05)
(0.0001451797858 -2.254724663e-05 -1.548879068e-05)
(0.0001355982407 -3.264954792e-05 1.373291468e-05)
(0.0001549168501 1.771562428e-05 5.695462016e-06)
(0.000179305919 5.735964311e-06 3.484462727e-05)
(0.0001885023667 3.592196641e-05 3.495656515e-05)
(9.708306096e-05 5.295712993e-05 -1.699634198e-05)
(0.0001029700659 2.776965167e-07 6.954382784e-06)
(0.0001525314068 2.813080851e-05 -1.509661736e-05)
(0.0001645105455 5.501162974e-05 -1.166251169e-05)
(0.0001563049026 3.860148e-05 5.714607563e-05)
(0.0001595260994 5.037322236e-05 3.502552553e-05)
(0.0001383723684 5.126974195e-05 -1.140951635e-05)
(0.0001462570137 3.630421211e-05 -1.309902216e-05)
(0.0001402417369 4.185603427e-05 3.444716541e-05)
(0.0001609637398 3.844585329e-05 2.442449566e-05)
(0.0002039490889 8.138582448e-05 9.270277204e-06)
(0.0001950765732 3.148879998e-05 3.080181438e-05)
(0.0001774608054 1.357355595e-05 3.363702724e-05)
(0.0001796184544 4.970050947e-05 3.73580689e-05)
(0.0002092736651 5.031960577e-05 5.397491409e-05)
(0.0001891599595 9.663512918e-05 1.765201969e-05)
(0.0001885160685 3.628320287e-05 -3.747030481e-06)
(0.0002010136545 6.113764484e-05 -3.805744669e-06)
(0.0001917052187 3.340685859e-05 2.563953921e-05)
(0.0001827080399 4.98666841e-05 2.34954705e-05)
(0.000194483438 7.933904434e-05 -3.973603268e-05)
(0.0002102845926 2.080261553e-05 -2.133566059e-05)
(0.0001970453564 6.787959053e-05 -3.98312727e-07)
(0.0001987638614 9.678913803e-06 4.400952902e-05)
(0.0001943996586 6.462572452e-05 2.152967381e-05)
(0.0001791608198 8.833145772e-05 -2.225194306e-05)
(0.0002057051209 5.060405217e-05 -2.192451104e-05)
(0.0001872978275 7.138064446e-05 -4.157520774e-06)
(0.0002129931377 5.343327907e-05 -2.15350185e-05)
(0.0002089788248 6.146291276e-05 -2.5765007e-05)
(0.0002007860226 8.840672016e-05 -5.745547082e-05)
(0.0001845978276 7.152889391e-07 -5.224824367e-06)
(0.0001929970087 8.316960254e-05 -1.260151328e-06)
(0.0001853956008 3.800966063e-05 9.466326874e-06)
(0.0001771663506 5.507078079e-05 2.64387891e-05)
(0.0001996844666 6.392638237e-05 -1.980497582e-05)
(0.0001843423249 7.452030589e-05 -2.007380282e-05)
(0.0002167303518 5.287645738e-05 -1.543472149e-05)
(0.0002236594638 5.609721303e-05 -2.566738488e-05)
(0.0002384468772 4.125728083e-05 -1.224237355e-05)
(0.0002148049779 7.785642061e-05 -2.75452233e-05)
(0.0001979780573 3.718189994e-05 -4.019800742e-05)
(0.0001746444593 7.906896552e-05 -7.534668577e-06)
(0.0001928095729 2.430560103e-05 1.409050056e-05)
(0.0002088342043 5.54886705e-05 -3.438638862e-06)
(0.0002147263845 7.910199784e-05 -3.710919426e-05)
(0.0002168985591 6.373914274e-05 -3.522113567e-06)
(0.0002310123789 3.396423767e-05 -5.123933296e-05)
(0.0002369348966 7.611614763e-05 -6.567169005e-05)
(0.0002220128147 4.052390044e-05 -3.865250756e-05)
(0.0001468193033 4.455137746e-05 4.517378594e-06)
(0.0001881064742 5.133707189e-05 -2.04562898e-05)
(0.0002125994589 5.581446978e-05 1.531030983e-05)
(0.000236628856 3.912527788e-05 4.889615084e-05)
(0.0002257883374 4.777432049e-05 3.585778937e-05)
(0.0002242217144 8.653512403e-05 2.390797739e-05)
(0.0002278256634 7.057736154e-05 -9.463260856e-07)
(0.0002220952293 3.276113596e-05 -6.755081164e-05)
(0.0002347685429 5.594297038e-05 -6.131459389e-05)
(0.000262410415 4.48785284e-05 -2.645434987e-05)
(0.0001749354299 4.197486527e-05 3.77737705e-05)
(0.0001711429911 1.150787351e-05 -1.13276042e-05)
(0.0002062344407 4.544326082e-05 1.948183483e-06)
(0.0002331135971 3.747386579e-05 1.383974112e-05)
(0.0001856992415 5.610952357e-05 1.159385516e-05)
(0.0002224506736 4.800236783e-05 -6.660307654e-06)
(0.0002399586974 7.792956728e-05 -5.393163458e-05)
(0.0002227361264 4.074147024e-05 -1.984570348e-05)
(0.0002564650514 4.925868598e-05 -5.161453014e-05)
(0.0002447548943 3.684289525e-05 -1.163570288e-05)
(0.0001801774455 3.110848746e-05 -1.046281575e-05)
(0.0001847579809 7.814902399e-06 -5.397421138e-06)
(0.0002105092029 -3.077205147e-06 -2.032742892e-05)
(0.000166872761 4.695673337e-05 4.724519341e-06)
(0.0002010701839 5.608627575e-05 2.553323542e-06)
(0.0002114736845 4.494581292e-05 1.008662881e-05)
(0.0002270016062 6.737187867e-05 -2.600601782e-05)
(0.0002412957679 3.793832775e-05 6.107298508e-07)
(0.0002299300578 3.441596549e-05 -2.417549451e-05)
(0.0002181492634 5.012427476e-05 -4.678286859e-06)
(0.0002073060098 4.687777765e-05 1.922874594e-05)
(0.0002119914678 3.142612291e-06 3.199330412e-05)
(0.0001909278298 3.465927756e-05 -3.163483231e-05)
(0.0001965763736 4.045075628e-05 2.857602738e-05)
(0.0002092678446 4.545395061e-05 2.656126586e-06)
(0.0001806776728 2.205685415e-05 -7.109088116e-06)
(0.0002374019782 4.543468385e-05 -4.483771757e-05)
(0.0002589735163 4.416936263e-05 -3.216593808e-05)
(0.0002656316647 4.801789467e-05 -7.114525921e-05)
(0.0002664508538 7.292678345e-05 -4.880698487e-05)
(0.0002063316069 5.74490213e-05 -6.220531655e-06)
(0.0002097803729 9.97830148e-06 1.939354849e-06)
(0.0002055212934 1.263188494e-05 -1.020397445e-05)
(0.0002229883664 5.888803625e-05 -3.713599789e-05)
(0.000202871384 4.79746027e-05 -1.059969864e-05)
(0.0002049893217 2.305489665e-05 -2.637281155e-05)
(0.0002257277232 2.874292584e-06 -4.844011496e-05)
(0.0002377832049 4.156285398e-05 -3.324504178e-05)
(0.0002441000603 3.225483561e-05 -1.864669717e-05)
(0.0002381940156 6.116719553e-05 -2.278135309e-05)
(0.0001994472108 3.254399617e-05 -1.988117507e-05)
(0.0002010058973 1.706993516e-05 5.22671249e-06)
(0.0002008118469 2.803471328e-05 -7.278502333e-06)
(0.0001715080653 4.55958494e-05 -1.341046081e-05)
(0.0001705698006 4.937052493e-05 3.00988411e-05)
(0.0002157315001 1.26169942e-05 4.465003312e-05)
(0.0001871828935 -1.167610435e-05 -2.373592838e-05)
(0.0001748122066 1.284682496e-05 -4.752834106e-06)
(0.000199663733 2.602459667e-05 1.085636198e-05)
(0.0002403538343 6.327641564e-05 -3.000888413e-05)
(0.0001980779589 2.659297434e-05 -8.761014827e-06)
(0.0001835926051 1.906493732e-05 3.940657213e-05)
(0.0001693259312 2.122208432e-05 -3.171874742e-05)
(0.0001908688494 6.048961721e-05 -1.613390585e-05)
(0.000228778913 2.190786939e-05 -2.311248029e-05)
(0.0001969130595 2.16409836e-05 -1.289303677e-05)
(0.0001914623646 1.002758679e-05 -1.094834565e-06)
(0.0002160186441 1.9474401e-05 1.723935162e-05)
(0.0002106661011 8.200372769e-06 3.804469336e-05)
(0.0001906208852 3.773108584e-05 -9.278361815e-06)
(0.0001997908672 4.593004057e-05 6.027023773e-05)
(0.0001745315222 2.38943493e-05 3.395198086e-05)
(0.0001648835768 8.113768623e-06 2.542218829e-05)
(0.000219491625 3.40904876e-05 3.940602602e-05)
(0.0002129587573 3.543220209e-05 -6.1789409e-06)
(0.0001834121088 3.347467206e-05 -1.773553214e-05)
(0.0002112784819 7.783909524e-06 -5.44834049e-05)
(0.0002208274067 2.760789219e-07 -4.423074246e-05)
(0.0002176288147 3.404233871e-05 -2.073143152e-05)
(0.0002042362035 4.765528477e-05 5.278303377e-05)
(0.0001353703171 2.689642833e-05 5.381994393e-05)
(0.0001770720297 3.282518778e-05 3.792134664e-05)
(0.0001868878428 5.934632305e-06 2.830181193e-05)
(0.0001532610964 3.186093979e-06 4.62246396e-05)
(0.0001495235595 4.177329562e-05 7.44847865e-05)
(0.0001678652195 -2.8773165e-06 -5.334320204e-06)
(0.0001646196332 1.184337964e-05 1.285313082e-05)
(0.0001646166617 -3.576231705e-06 -4.136833092e-05)
(0.0001747846512 2.739078988e-05 -9.799482021e-06)
(0.0001930706175 3.912537464e-05 4.038629194e-05)
(0.0001714025429 3.327680575e-05 1.610432945e-05)