/*--------------------------------*- C++ -*----------------------------------*\
  =========                 |
  \\      /  F ield         | OpenFOAM: The Open Source CFD Toolbox
   \\    /   O peration     | Website:  https://openfoam.org
    \\  /    A nd           | Version:  7
     \\/     M anipulation  |
\*---------------------------------------------------------------------------*/
FoamFile
{
    version     2.0;
    format      ascii;
    class       volScalarField;
    location    "0.006";
    object      overallT;
}
// * * * * * * * * * * * * * * * * * * * * * * * * * * * * * * * * * * * * * //

dimensions      [1 2 -2 0 0 0 0];

internalField   nonuniform List<scalar> 
654
(
292.941637
299.3798488
309.7718918
307.9600255
318.5923255
313.4401863
315.3365158
311.5839229
319.5622435
320.2532443
320.0614254
331.6029767
326.4550632
337.6022512
346.0662423
343.9349118
337.44807
343.7155807
368.9142888
400.2792002
303.5542578
315.4110888
308.6258337
310.2493913
316.8449451
318.8001427
324.8959858
320.8124354
324.3009578
336.8836094
333.1944563
333.9771996
340.6845487
345.8791836
360.5449341
368.2075384
362.1649219
374.0325718
392.8132025
418.6914284
306.2730789
312.1046039
319.2990476
317.979381
321.4024975
322.2855993
325.3975547
322.0855638
328.4947173
333.2887059
337.2509398
336.0200233
338.7730579
363.1808903
368.3270777
382.4050869
374.8338423
395.6121035
405.2182723
429.1747866
303.4129816
313.8335355
318.8456311
317.9935469
321.230013
323.4813362
324.6020211
329.9479127
333.3398342
345.4488307
347.2166896
344.4220795
343.4777175
368.1065962
379.6627535
383.1501183
378.5654424
401.6349451
416.1277172
430.2306029
301.1419916
303.6659244
320.221047
324.2087235
325.3758148
318.294092
327.3107826
330.8652381
335.3363272
340.1282111
343.9253303
360.89065
357.2155189
363.3798872
377.3440879
379.5925611
392.9768161
412.255378
419.4231323
440.1084575
304.0865973
307.5990511
311.8127925
313.3795009
316.8005862
323.1739365
326.2643457
337.9300203
338.8724432
339.6100441
346.3530891
362.1925336
364.0614502
361.4549365
373.703258
377.031998
388.4912734
404.4647322
419.0412798
435.6748304
309.1834343
313.1613868
313.6259363
313.0962139
326.9758518
327.9192254
327.7763832
338.0758106
334.064841
356.3826657
351.7787877
350.6095273
354.8409214
370.0412383
376.6731772
382.412451
393.2525901
405.480367
415.8526795
441.9855203
303.2751401
316.5779881
318.7864985
320.9010605
320.4830902
323.5277924
337.1558356
342.2762677
343.9438319
353.7512997
360.1627776
357.0159776
367.3156026
378.3909291
384.9305773
380.0338255
391.1146762
401.8517719
409.2347105
430.8460339
308.5007879
317.6406631
320.0693166
320.7163662
318.9017345
322.9715602
335.2578686
348.1574744
349.5705703
350.8128988
355.3345982
357.357439
358.955086
381.0894998
386.0390365
392.9030321
397.3009042
403.9705358
425.9905411
433.5203164
317.1291568
314.5988629
316.6954092
325.4253653
327.037386
334.395528
337.5191949
340.7580435
340.2445605
348.3986766
353.3623568
361.8643419
367.3859601
385.2382684
393.5423465
391.8647046
397.4789911
407.2761232
415.510412
422.5639869
308.5263106
319.7675695
320.5976959
325.3306318
321.2068552
331.5956721
326.772174
335.0748583
343.8226379
354.1800159
356.6395011
373.4745171
370.0979543
389.175727
392.20577
391.5384041
397.3666053
406.2728885
416.0061292
424.3894274
308.7014981
316.4249633
315.385414
317.0536891
319.1966168
327.7888839
327.652654
343.7607101
350.5395402
356.3909216
352.6123908
366.6491664
373.998868
381.6918291
392.9385579
391.4368087
412.29549
416.6469202
415.8891944
428.4089707
303.520063
311.5071775
313.3871389
322.3005687
322.2748616
329.7191434
345.3392262
352.3007594
345.6278703
359.9864402
359.4459614
360.2214678
378.8887176
389.1783271
395.3415309
394.8824179
412.2049067
418.3871952
423.2572922
425.4640469
297.9628908
317.073036
320.9083459
324.5613618
330.6636004
333.979715
334.3171129
347.1488744
349.492906
351.2866361
363.29138
370.7883471
379.1421026
385.2862239
392.439486
396.7369541
405.4901638
410.6957142
410.4416994
416.3754827
304.9149462
322.604075
316.8831136
323.7847362
331.2166838
327.7398882
339.3363178
340.8933976
348.6514077
351.3003852
358.1385957
369.419516
377.9844459
370.5484006
380.1071143
392.0500909
390.886287
395.8191858
408.305632
416.4378816
309.4504866
309.5745412
317.6221733
328.1542253
327.9572595
331.3660745
335.5550062
343.2419025
351.8988096
354.038268
358.9898025
365.6126547
370.6869713
376.1594796
394.3628537
396.0577018
380.4640477
392.3454065
401.8424865
412.671412
305.615356
315.9698175
316.6505992
329.2895112
328.5452554
341.203626
343.4193648
352.805784
350.8673509
357.1201123
371.1973665
374.1579142
379.7597174
381.1190411
379.2729897
389.4985297
397.7051601
400.4255624
412.1868326
420.2189785
305.0568615
316.3209784
318.8995925
332.9319685
335.9228569
333.9939074
345.4045875
354.6942154
349.2524819
361.4152025
359.3188837
372.8026333
375.8879609
377.7052292
382.9887801
385.4461391
393.5738242
395.0835631
402.6210647
410.7301811
307.0531326
312.5691732
318.1364454
322.9467383
324.1351445
337.0024245
343.0368656
351.7208717
355.5338611
354.9414515
352.1656462
362.5110527
380.6281161
374.5569596
379.7195678
391.0637409
392.3467088
397.10307
401.3751489
408.9515145
305.7043757
309.1515915
323.2986127
327.8368965
325.7086408
330.362084
337.6211477
345.0660789
348.8590717
352.6408359
355.8928595
359.6185799
365.4959225
380.1368633
384.3757252
396.2536154
385.3031881
384.8242069
398.5758239
399.792196
308.0605166
313.6677562
317.7803323
323.4952272
338.9109485
331.1796496
332.4971544
344.4587617
345.6537552
354.8573452
357.6281262
368.4681796
372.0619093
381.6780742
395.7845162
395.9065463
393.4752648
399.9916023
405.952221
403.8890908
312.2952006
320.8713869
325.774695
329.1709384
326.9247184
335.6429944
343.46463
346.8251303
346.6533015
357.7142112
374.6552001
371.5080564
368.6373425
376.4969812
392.0896475
390.1464523
396.0169894
400.4150028
404.8815541
409.3239185
475.5269002
484.5058997
517.0524045
525.3908846
534.2253583
529.3484007
543.3741969
557.4889313
565.2950071
543.6366217
456.3848122
484.3174984
488.6512323
512.6655978
514.2534642
536.930106
553.6968898
577.1990252
569.7392066
574.1758933
448.7608594
462.5529696
492.9531592
512.399537
516.9753218
519.8731563
529.8289497
552.2656119
557.9037904
561.5542748
453.6286482
466.6959013
484.4296139
496.488484
507.8323442
517.1665811
541.8101984
541.4834251
544.598437
563.6326232
456.360288
461.4673694
480.350104
489.0728191
505.1571382
508.3513845
519.5887913
520.1956367
539.613404
535.429056
445.7129904
460.6915712
478.768972
486.8791905
482.9170255
485.7045069
501.7969924
516.1414769
517.9109007
513.6370798
451.4644755
465.9108301
466.3061558
489.1457662
479.6165573
498.7990214
502.7242086
499.4585135
515.95034
527.7998135
453.9593669
456.7334017
461.272841
465.5966068
465.5005531
482.1629377
503.1106522
501.0630277
511.8906166
511.9538885
431.6559973
442.1460265
447.2864621
471.6535351
479.0475336
488.0198648
507.5619537
496.0337142
512.4812599
510.5428356
418.7950685
446.621531
464.8985623
459.9951176
482.8160548
475.7780561
494.2584213
508.2998588
500.3770749
514.4904943
427.2634394
446.5053356
449.5082795
456.3964931
473.1507448
476.8097148
495.6879983
506.9600141
497.5435608
502.9029475
424.3543675
436.958316
448.246518
465.3959743
475.4766847
473.818977
489.2161579
492.8626777
484.3450258
495.6522319
441.9178273
434.9688561
450.2860181
456.6833459
472.6741684
469.2611409
474.7900231
480.841904
487.6805658
502.5465099
430.6950196
438.6417143
439.8507657
450.7268906
457.8232786
457.2282854
462.6796926
470.0923473
473.8401455
487.9097849
428.6642317
422.4160885
442.0011586
445.9250364
458.3090738
461.1474362
462.790526
472.2176875
482.0491607
499.1855951
424.9076326
438.1199828
457.3194328
452.0949929
450.3602155
474.6266863
459.960483
459.0134624
468.6270148
487.9405754
424.9526732
429.5236627
423.9071364
442.6144066
449.683103
455.7192209
452.8500925
448.7656287
466.6281343
474.2373002
420.3277526
435.8985267
451.5267891
442.2666793
449.6505536
457.461823
449.8074852
458.7767441
466.2364112
462.2568793
416.3496914
431.1965923
436.5335411
437.647116
445.5536499
459.2653814
447.856506
444.0840805
452.3275905
461.1090033
410.3522067
414.3337325
429.913175
433.4242811
425.004623
434.6283014
444.0636976
445.841309
443.2473201
460.9682882
414.9668816
410.9449873
418.9981914
428.2524668
429.0275508
429.6965627
430.0653492
427.5943126
447.6614627
445.5665493
407.160154
409.4996369
422.6540341
423.65867
)
;

boundaryField
{
    flow
    {
        type            calculated;
        value           nonuniform List<scalar> 
42
(
292.941637
303.5542578
306.2730789
303.4129816
301.1419916
304.0865973
309.1834343
303.2751401
308.5007879
317.1291568
308.5263106
308.7014981
303.520063
297.9628908
304.9149462
309.4504866
305.615356
305.0568615
307.0531326
305.7043757
308.0605166
312.2952006
292.941637
299.3798488
309.7718918
307.9600255
318.5923255
313.4401863
315.3365158
311.5839229
319.5622435
320.2532443
320.0614254
331.6029767
326.4550632
337.6022512
346.0662423
343.9349118
337.44807
343.7155807
368.9142888
400.2792002
)
;
    }
    obstacle
    {
        type            calculated;
        value           nonuniform List<scalar> 10(504.3238834 487.6906397 491.4111262 538.585901 544.7729407 530.9298783 530.6938645 545.9527268 550.8878179 552.658106);
    }
    frontAndBack
    {
        type            empty;
    }
    procBoundary0to1
    {
        type            processor;
        value           nonuniform List<scalar> 
21
(
554.2092366
568.926949
563.5099142
560.3999893
542.0863991
518.3505078
520.7357267
524.2241743
508.776061
527.8815251
506.4189491
490.7786342
494.2540343
483.501752
499.5970831
477.1988836
477.9498955
471.5193831
468.793799
454.5564363
454.0603107
)
;
    }
    procBoundary0to2
    {
        type            processor;
        value           nonuniform List<scalar> 
31
(
314.7127411
319.4270224
322.6754713
324.7818105
324.9877039
324.6655468
335.2919247
342.4701868
343.2496313
353.7944673
362.0079393
366.2703307
364.1018392
379.0797858
380.5752725
399.3706953
393.5577688
386.7150367
401.072353
407.7259031
428.475885
430.8538122
435.5191972
438.4130364
442.7016465
453.4744901
397.3829844
399.0703668
417.5397121
428.475885
423.2566837
)
;
    }
}


// ************************************************************************* //
