/*--------------------------------*- C++ -*----------------------------------*\
  =========                 |
  \\      /  F ield         | OpenFOAM: The Open Source CFD Toolbox
   \\    /   O peration     | Website:  https://openfoam.org
    \\  /    A nd           | Version:  7
     \\/     M anipulation  |
\*---------------------------------------------------------------------------*/
FoamFile
{
    version     2.0;
    format      ascii;
    class       volScalarField;
    location    "0.006";
    object      rhoM;
}
// * * * * * * * * * * * * * * * * * * * * * * * * * * * * * * * * * * * * * //

dimensions      [1 -3 0 0 0 0 0];

internalField   nonuniform List<scalar> 
654
(
4.496139531e-06
4.427198864e-06
5.118271776e-06
7.885895906e-06
3.596578377e-06
3.043386799e-06
4.911449774e-06
2.559135888e-06
4.911449774e-06
6.433143174e-06
3.52763771e-06
2.905505464e-06
3.874007286e-06
8.576968818e-06
2.490195221e-06
3.52763771e-06
5.53358202e-06
5.395700685e-06
3.043386799e-06
4.980390442e-06
3.52763771e-06
5.53358202e-06
3.942947953e-06
4.01188862e-06
4.980390442e-06
4.01188862e-06
3.389756375e-06
4.496139531e-06
3.043386799e-06
2.490195221e-06
3.942947953e-06
5.602522687e-06
1.937003643e-06
7.677407664e-06
4.980390442e-06
3.181268133e-06
8.161658575e-06
1.937003643e-06
3.458697042e-06
2.559135888e-06
4.01188862e-06
4.358258196e-06
3.389756375e-06
3.942947953e-06
3.458697042e-06
4.911449774e-06
5.395700685e-06
5.464641352e-06
5.049331109e-06
4.496139531e-06
1.521693399e-06
4.427198864e-06
3.458697042e-06
3.596578377e-06
3.942947953e-06
8.092717908e-06
2.421254554e-06
3.458697042e-06
5.53358202e-06
4.080829287e-06
2.974446132e-06
3.043386799e-06
7.470585662e-06
6.77951275e-06
4.496139531e-06
3.596578377e-06
6.502083841e-06
2.905505464e-06
5.464641352e-06
5.049331109e-06
4.080829287e-06
2.421254554e-06
5.395700685e-06
3.043386799e-06
5.464641352e-06
6.917394084e-06
2.905505464e-06
4.911449774e-06
4.427198864e-06
3.389756375e-06
7.470585662e-06
2.905505464e-06
5.464641352e-06
4.01188862e-06
4.358258196e-06
4.358258196e-06
3.942947953e-06
2.905505464e-06
3.043386799e-06
4.496139531e-06
4.565080198e-06
2.974446132e-06
3.942947953e-06
4.980390442e-06
3.458697042e-06
6.571024508e-06
4.358258196e-06
5.879951596e-06
2.490195221e-06
2.974446132e-06
4.01188862e-06
3.734459711e-06
6.364202506e-06
3.942947953e-06
4.911449774e-06
3.942947953e-06
2.974446132e-06
5.187212443e-06
6.155714265e-06
4.01188862e-06
4.911449774e-06
5.395700685e-06
2.974446132e-06
5.395700685e-06
3.043386799e-06
8.161658575e-06
5.602522687e-06
6.155714265e-06
3.942947953e-06
4.080829287e-06
5.049331109e-06
4.842509107e-06
5.53358202e-06
3.52763771e-06
2.974446132e-06
5.53358202e-06
4.01188862e-06
6.571024508e-06
4.149769955e-06
1.937003643e-06
2.905505464e-06
3.458697042e-06
4.427198864e-06
6.708905843e-06
3.043386799e-06
6.571024508e-06
3.596578377e-06
4.080829287e-06
3.596578377e-06
3.043386799e-06
7.055275419e-06
2.490195221e-06
4.080829287e-06
4.496139531e-06
4.496139531e-06
4.218710622e-06
6.364202506e-06
6.01783293e-06
8.992279062e-06
3.043386799e-06
4.358258196e-06
4.634020865e-06
6.433143174e-06
2.974446132e-06
1.037442489e-06
1.452752732e-06
1.452752732e-06
8.852731488e-06
3.389756375e-06
3.52763771e-06
1.037442489e-06
3.942947953e-06
3.458697042e-06
5.602522687e-06
5.464641352e-06
5.948892263e-06
6.086773598e-06
6.01783293e-06
4.01188862e-06
5.602522687e-06
4.911449774e-06
4.427198864e-06
3.874007286e-06
3.458697042e-06
6.01783293e-06
3.52763771e-06
4.149769955e-06
3.874007286e-06
5.464641352e-06
1.452752732e-06
2.905505464e-06
3.52763771e-06
5.049331109e-06
3.874007286e-06
5.464641352e-06
5.948892263e-06
3.52763771e-06
3.874007286e-06
5.879951596e-06
4.427198864e-06
5.049331109e-06
6.086773598e-06
6.639965176e-06
4.01188862e-06
1.590634067e-06
5.049331109e-06
4.496139531e-06
6.01783293e-06
4.980390442e-06
4.080829287e-06
5.049331109e-06
6.639965176e-06
6.571024508e-06
6.086773598e-06
2.974446132e-06
6.01783293e-06
6.502083841e-06
3.596578377e-06
5.53358202e-06
5.948892263e-06
3.112327466e-06
4.565080198e-06
2.421254554e-06
7.470585662e-06
3.458697042e-06
6.01783293e-06
2.974446132e-06
1.937003643e-06
2.490195221e-06
4.842509107e-06
5.464641352e-06
4.842509107e-06
3.389756375e-06
6.295261839e-06
2.559135888e-06
4.496139531e-06
6.708905843e-06
4.358258196e-06
6.433143174e-06
7.262097421e-06
5.879951596e-06
4.980390442e-06
6.086773598e-06
4.080829287e-06
2.559135888e-06
3.389756375e-06
3.942947953e-06
2.490195221e-06
4.427198864e-06
3.52763771e-06
4.080829287e-06
5.879951596e-06
4.427198864e-06
5.464641352e-06
4.496139531e-06
4.496139531e-06
8.714850153e-06
7.401644995e-06
5.879951596e-06
4.565080198e-06
3.52763771e-06
5.395700685e-06
4.565080198e-06
4.496139531e-06
5.395700685e-06
3.112327466e-06
4.01188862e-06
5.464641352e-06
3.458697042e-06
6.295261839e-06
3.52763771e-06
4.01188862e-06
4.911449774e-06
7.124216086e-06
4.565080198e-06
3.942947953e-06
3.043386799e-06
5.879951596e-06
4.911449774e-06
5.879951596e-06
4.080829287e-06
5.602522687e-06
2.421254554e-06
4.980390442e-06
1.590634067e-06
5.948892263e-06
2.00594431e-06
2.559135888e-06
2.974446132e-06
2.074884977e-06
3.458697042e-06
2.00594431e-06
6.155714265e-06
6.01783293e-06
5.187212443e-06
2.074884977e-06
1.521693399e-06
4.496139531e-06
3.458697042e-06
3.874007286e-06
6.433143174e-06
1.452752732e-06
4.980390442e-06
5.811010928e-06
4.496139531e-06
5.395700685e-06
7.470585662e-06
7.608466997e-06
2.905505464e-06
2.421254554e-06
3.942947953e-06
6.086773598e-06
2.421254554e-06
2.974446132e-06
2.905505464e-06
4.01188862e-06
5.602522687e-06
3.389756375e-06
3.458697042e-06
2.421254554e-06
5.879951596e-06
2.00594431e-06
3.596578377e-06
4.702961533e-06
4.01188862e-06
6.848453417e-06
4.496139531e-06
2.559135888e-06
5.671463354e-06
4.149769955e-06
4.496139531e-06
1.521693399e-06
6.502083841e-06
4.01188862e-06
5.395700685e-06
5.948892263e-06
4.427198864e-06
5.395700685e-06
1.521693399e-06
6.571024508e-06
2.905505464e-06
5.049331109e-06
4.702961533e-06
4.496139531e-06
4.980390442e-06
7.401644995e-06
3.52763771e-06
2.074884977e-06
6.224654932e-06
2.905505464e-06
4.01188862e-06
5.118271776e-06
6.433143174e-06
3.874007286e-06
4.565080198e-06
4.496139531e-06
3.043386799e-06
5.53358202e-06
4.01188862e-06
5.464641352e-06
3.52763771e-06
4.427198864e-06
2.905505464e-06
5.049331109e-06
6.502083841e-06
5.049331109e-06
6.502083841e-06
2.421254554e-06
2.074884977e-06
4.218710622e-06
5.049331109e-06
6.01783293e-06
7.608466997e-06
6.01783293e-06
7.331038088e-06
4.080829287e-06
3.458697042e-06
3.458697042e-06
3.389756375e-06
7.470585662e-06
2.974446132e-06
4.911449774e-06
4.565080198e-06
3.389756375e-06
4.358258196e-06
5.049331109e-06
4.980390442e-06
2.559135888e-06
3.874007286e-06
3.665519044e-06
2.490195221e-06
5.602522687e-06
3.389756375e-06
7.885895906e-06
1.937003643e-06
7.608466997e-06
5.602522687e-06
4.01188862e-06
6.01783293e-06
4.427198864e-06
2.490195221e-06
4.980390442e-06
2.559135888e-06
3.874007286e-06
5.948892263e-06
6.433143174e-06
3.665519044e-06
4.911449774e-06
3.942947953e-06
4.01188862e-06
3.389756375e-06
4.149769955e-06
5.740404021e-06
5.118271776e-06
4.911449774e-06
6.01783293e-06
4.427198864e-06
2.490195221e-06
5.602522687e-06
6.01783293e-06
4.911449774e-06
4.080829287e-06
2.974446132e-06
4.496139531e-06
5.464641352e-06
5.948892263e-06
4.01188862e-06
2.421254554e-06
3.389756375e-06
3.043386799e-06
6.917394084e-06
4.358258196e-06
5.395700685e-06
3.942947953e-06
4.980390442e-06
5.118271776e-06
4.980390442e-06
4.496139531e-06
5.602522687e-06
4.01188862e-06
4.496139531e-06
3.942947953e-06
5.879951596e-06
3.389756375e-06
3.596578377e-06
4.842509107e-06
6.433143174e-06
4.911449774e-06
4.080829287e-06
4.496139531e-06
2.499026091e-06
3.144841165e-06
1.478092796e-06
3.543560982e-06
2.569208107e-06
2.515742853e-06
1.01346291e-06
2.697145703e-06
6.241813599e-06
2.662680672e-06
2.98499428e-06
1.95723903e-06
4.714851131e-06
1.559030263e-06
2.569208108e-06
3.736933128e-06
3.18467098e-06
1.603755719e-06
3.157498495e-06
2.144887718e-06
2.568211239e-06
4.47344869e-06
4.926975987e-07
4.535826344e-06
4.567672097e-06
2.587373897e-06
1.085604034e-06
2.114121452e-06
2.05621007e-06
1.627094764e-06
2.499026091e-06
3.564490051e-06
1.055538383e-06
2.976796079e-06
4.210312348e-06
2.515742853e-06
2.677939525e-06
5.830242526e-07
4.25878692e-06
1.627094764e-06
6.177544004e-06
3.634150921e-06
3.941580792e-06
6.024224388e-06
4.638800223e-06
2.084225328e-06
3.18467098e-06
4.228242904e-06
6.829049512e-06
3.698266584e-06
3.609332764e-06
4.682431309e-06
2.603774363e-06
4.180958106e-06
3.568440098e-06
4.743230263e-06
3.619261307e-06
1.020731465e-06
2.129393459e-06
2.071171819e-06
4.581269141e-06
3.91447806e-06
1.618379167e-06
2.196427389e-06
3.63956823e-06
1.581076757e-06
3.040388734e-06
3.572560132e-06
1.028105035e-06
5.177929544e-07
5.553205518e-06
2.935858547e-06
3.096471964e-06
7.228386407e-06
2.569208107e-06
3.090522467e-06
1.520194367e-06
4.738608637e-06
2.12939346e-06
2.662680672e-06
5.06723733e-06
3.494829175e-06
4.574564758e-06
6.094856607e-06
3.497311977e-06
4.096819608e-06
2.6057984e-06
3.207511438e-06
2.202576851e-06
3.180473627e-06
3.678517915e-06
3.634150924e-06
4.081867162e-06
3.543560984e-06
3.99692797e-06
6.252675983e-06
2.243349192e-06
4.593291599e-06
3.157498495e-06
5.399077245e-06
7.080295232e-06
5.24140194e-06
3.096471962e-06
5.598723927e-06
6.422160716e-06
2.15585637e-06
4.632724221e-06
3.790535688e-06
2.643445978e-06
2.144887718e-06
4.026115804e-06
4.543109566e-06
5.700246329e-06
3.543560981e-06
2.498079982e-06
4.814861314e-06
3.619261325e-06
3.717877195e-06
2.716629382e-06
3.10675774e-06
3.054179428e-06
3.984138943e-06
2.533631189e-06
4.606458566e-06
1.498847983e-06
6.324307013e-06
2.677939519e-06
4.738608597e-06
3.157498482e-06
4.289775436e-06
1.45790456e-06
5.102080163e-06
3.026328756e-06
3.614193194e-06
5.709160344e-06
3.59367103e-06
1.520194358e-06
3.134852914e-06
4.699656027e-06
5.251645407e-06
3.956930677e-06
5.591389966e-06
3.096471962e-06
3.614193218e-06
4.638800255e-06
5.677896391e-06
2.605798405e-06
5.759340136e-06
4.185603542e-06
6.434663154e-06
4.026115799e-06
4.12346069e-06
4.081867187e-06
5.031959041e-06
2.211848367e-06
4.671599245e-06
3.619261318e-06
2.624487163e-06
2.643445966e-06
3.254189527e-06
4.442898838e-06
4.543109545e-06
4.011723947e-06
5.173223451e-06
3.068824107e-06
2.730635979e-06
5.21159681e-06
5.17631588e-06
3.891101195e-06
6.729526755e-06
2.984994275e-06
3.494829185e-06
3.166615168e-06
4.677090773e-06
3.497311952e-06
3.018891417e-06
6.876073378e-06
2.551828662e-06
2.570262594e-06
4.73385249e-06
3.540147635e-06
3.144841172e-06
4.504421573e-06
4.1103259e-06
3.139952234e-06
4.528337126e-06
4.777006477e-06
3.280169953e-06
1.542157546e-06
2.662680691e-06
2.013057899e-06
6.150360598e-06
3.519026376e-06
1.984530714e-06
3.63956823e-06
6.252676009e-06
1.520194369e-06
3.062194395e-06
2.056210075e-06
4.142343636e-06
3.956930651e-06
3.425168288e-06
7.178339121e-06
3.047428314e-06
5.709160344e-06
4.168450643e-06
2.026925825e-06
4.373559968e-06
4.185603542e-06
1.627094764e-06
5.553205511e-06
5.941377939e-06
5.067262357e-06
4.392854791e-06
)
;

boundaryField
{
    flow
    {
        type            zeroGradient;
    }
    obstacle
    {
        type            calculated;
        value           nonuniform List<scalar> 10(2.225073859e-308 8.40672035e-24 2.225073859e-308 2.123425119e-24 2.338585212e-24 2.225073859e-308 2.225073859e-308 2.225073859e-308 2.225073859e-308 2.225073859e-308);
    }
    frontAndBack
    {
        type            empty;
    }
    procBoundary0to1
    {
        type            processor;
        value           nonuniform List<scalar> 
21
(
2.60794112e-06
2.160609114e-06
3.203785561e-06
3.873886217e-06
3.725373785e-06
2.160609115e-06
3.426554209e-06
2.086352896e-06
5.958444405e-07
4.246962009e-06
4.917062665e-06
1.639020894e-06
3.79962999e-06
2.08635289e-06
3.203785574e-06
4.991318866e-06
4.321218212e-06
2.607941132e-06
5.364394696e-06
6.481827318e-06
3.278041791e-06
)
;
    }
    procBoundary0to2
    {
        type            processor;
        value           nonuniform List<scalar> 
31
(
4.634020865e-06
6.917394084e-06
4.980390442e-06
6.364202506e-06
1.452752732e-06
4.980390442e-06
2.490195221e-06
1.452752732e-06
3.942947953e-06
3.458697042e-06
4.080829287e-06
5.395700685e-06
5.464641352e-06
5.602522687e-06
4.01188862e-06
3.874007286e-06
5.049331109e-06
4.080829287e-06
4.980390442e-06
4.980390442e-06
4.638800223e-06
2.155856365e-06
2.605798387e-06
4.665950111e-06
5.213708579e-06
4.289775436e-06
3.470962463e-06
4.12346069e-06
4.011723974e-06
4.638800223e-06
6.165488808e-06
)
;
    }
}


// ************************************************************************* //
