/*--------------------------------*- C++ -*----------------------------------*\
  =========                 |
  \\      /  F ield         | OpenFOAM: The Open Source CFD Toolbox
   \\    /   O peration     | Website:  https://openfoam.org
    \\  /    A nd           | Version:  7
     \\/     M anipulation  |
\*---------------------------------------------------------------------------*/
FoamFile
{
    version     2.0;
    format      ascii;
    class       volScalarField;
    location    "0.006";
    object      rhoM;
}
// * * * * * * * * * * * * * * * * * * * * * * * * * * * * * * * * * * * * * //

dimensions      [1 -3 0 0 0 0 0];

internalField   nonuniform List<scalar> 
654
(
2.974446132e-06
2.974446132e-06
4.911449774e-06
4.496139531e-06
4.427198864e-06
4.427198864e-06
2.974446132e-06
3.458697042e-06
4.980390442e-06
2.143825645e-06
6.571024508e-06
4.911449774e-06
6.571024508e-06
5.395700685e-06
3.942947953e-06
6.086773598e-06
5.53358202e-06
2.628076555e-06
6.295261839e-06
1.937003643e-06
4.496139531e-06
4.634020865e-06
5.948892263e-06
6.364202506e-06
4.080829287e-06
3.942947953e-06
7.53952633e-06
2.974446132e-06
5.049331109e-06
4.427198864e-06
5.049331109e-06
3.596578377e-06
2.905505464e-06
5.049331109e-06
4.496139531e-06
5.53358202e-06
2.905505464e-06
8.092717908e-06
6.502083841e-06
8.992279062e-06
3.458697042e-06
5.464641352e-06
3.458697042e-06
4.980390442e-06
4.496139531e-06
5.187212443e-06
5.602522687e-06
2.628076555e-06
5.326760018e-06
4.427198864e-06
5.464641352e-06
6.01783293e-06
3.874007286e-06
8.092717908e-06
5.948892263e-06
6.639965176e-06
4.911449774e-06
4.980390442e-06
3.874007286e-06
4.01188862e-06
3.52763771e-06
5.53358202e-06
2.074884977e-06
6.433143174e-06
2.00594431e-06
5.948892263e-06
3.389756375e-06
4.911449774e-06
5.53358202e-06
4.911449774e-06
6.502083841e-06
3.458697042e-06
5.53358202e-06
1.086034204e-05
4.634020865e-06
6.917394084e-06
6.502083841e-06
2.905505464e-06
2.490195221e-06
6.917394084e-06
4.427198864e-06
6.639965176e-06
2.00594431e-06
6.01783293e-06
5.464641352e-06
5.049331109e-06
6.917394084e-06
5.948892263e-06
3.942947953e-06
5.671463354e-06
2.490195221e-06
5.879951596e-06
4.565080198e-06
2.490195221e-06
4.980390442e-06
7.53952633e-06
5.948892263e-06
6.502083841e-06
3.596578377e-06
4.496139531e-06
3.043386799e-06
3.942947953e-06
4.911449774e-06
5.395700685e-06
5.118271776e-06
5.118271776e-06
4.427198864e-06
5.049331109e-06
5.326760018e-06
4.496139531e-06
4.01188862e-06
4.911449774e-06
5.53358202e-06
5.948892263e-06
4.080829287e-06
4.911449774e-06
3.52763771e-06
5.395700685e-06
5.187212443e-06
5.049331109e-06
4.080829287e-06
4.01188862e-06
7.470585662e-06
5.464641352e-06
3.874007286e-06
2.559135888e-06
4.496139531e-06
5.395700685e-06
1.058291313e-05
7.608466997e-06
4.565080198e-06
3.458697042e-06
2.974446132e-06
4.496139531e-06
4.080829287e-06
4.980390442e-06
2.905505464e-06
4.842509107e-06
4.427198864e-06
4.565080198e-06
4.980390442e-06
4.01188862e-06
2.490195221e-06
3.389756375e-06
6.364202506e-06
5.53358202e-06
3.942947953e-06
3.458697042e-06
4.427198864e-06
5.049331109e-06
4.496139531e-06
6.433143174e-06
2.490195221e-06
4.980390442e-06
2.490195221e-06
6.086773598e-06
5.948892263e-06
3.52763771e-06
1.452752732e-06
5.464641352e-06
4.01188862e-06
4.01188862e-06
5.602522687e-06
5.464641352e-06
4.496139531e-06
3.52763771e-06
6.848453417e-06
4.565080198e-06
5.256153111e-06
5.948892263e-06
6.708905843e-06
2.974446132e-06
3.874007286e-06
7.332704328e-06
5.602522687e-06
2.490195221e-06
7.193156754e-06
6.364202506e-06
2.074884977e-06
2.974446132e-06
2.974446132e-06
5.53358202e-06
5.118271776e-06
3.942947953e-06
6.571024508e-06
3.043386799e-06
5.049331109e-06
7.954836573e-06
4.565080198e-06
4.842509107e-06
6.01783293e-06
3.389756375e-06
4.496139531e-06
4.565080198e-06
4.496139531e-06
6.086773598e-06
3.942947953e-06
4.565080198e-06
4.980390442e-06
5.53358202e-06
4.980390442e-06
2.974446132e-06
6.086773598e-06
4.496139531e-06
3.458697042e-06
6.502083841e-06
4.496139531e-06
6.086773598e-06
6.571024508e-06
4.358258196e-06
2.559135888e-06
2.559135888e-06
7.124216086e-06
1.521693399e-06
3.942947953e-06
6.639965176e-06
2.490195221e-06
5.602522687e-06
6.364202506e-06
6.01783293e-06
2.490195221e-06
4.980390442e-06
6.502083841e-06
3.458697042e-06
4.565080198e-06
2.490195221e-06
2.974446132e-06
4.358258196e-06
3.458697042e-06
3.942947953e-06
3.389756375e-06
3.942947953e-06
5.879951596e-06
4.565080198e-06
7.53952633e-06
4.496139531e-06
5.464641352e-06
3.52763771e-06
6.571024508e-06
7.470585662e-06
3.043386799e-06
4.911449774e-06
4.565080198e-06
3.043386799e-06
4.980390442e-06
4.080829287e-06
9.268041731e-06
4.427198864e-06
2.974446132e-06
4.565080198e-06
3.52763771e-06
2.490195221e-06
5.464641352e-06
2.559135888e-06
3.043386799e-06
3.874007286e-06
6.571024508e-06
3.596578377e-06
4.01188862e-06
4.427198864e-06
4.01188862e-06
5.049331109e-06
4.427198864e-06
4.980390442e-06
4.634020865e-06
5.326760018e-06
4.565080198e-06
6.502083841e-06
4.565080198e-06
4.911449774e-06
4.980390442e-06
4.911449774e-06
4.980390442e-06
6.917394084e-06
4.980390442e-06
4.427198864e-06
4.911449774e-06
4.980390442e-06
8.161658575e-06
5.53358202e-06
3.52763771e-06
4.427198864e-06
5.395700685e-06
4.080829287e-06
4.358258196e-06
6.086773598e-06
5.879951596e-06
6.295261839e-06
3.942947953e-06
4.080829287e-06
3.458697042e-06
6.639965176e-06
5.049331109e-06
4.149769955e-06
7.055275419e-06
3.942947953e-06
4.149769955e-06
1.452752732e-06
4.01188862e-06
7.954836573e-06
4.01188862e-06
3.043386799e-06
5.879951596e-06
5.53358202e-06
2.559135888e-06
4.565080198e-06
2.00594431e-06
7.055275419e-06
2.905505464e-06
6.986334752e-06
4.01188862e-06
5.395700685e-06
4.01188862e-06
4.980390442e-06
5.326760018e-06
5.53358202e-06
5.464641352e-06
4.427198864e-06
2.628076555e-06
6.917394084e-06
5.948892263e-06
4.427198864e-06
3.52763771e-06
6.433143174e-06
8.508028151e-06
2.490195221e-06
6.571024508e-06
6.571024508e-06
4.01188862e-06
3.52763771e-06
6.571024508e-06
2.905505464e-06
5.464641352e-06
4.496139531e-06
4.01188862e-06
4.080829287e-06
4.842509107e-06
4.496139531e-06
3.942947953e-06
6.433143174e-06
3.043386799e-06
4.634020865e-06
2.974446132e-06
2.421254554e-06
6.986334752e-06
4.01188862e-06
4.01188862e-06
5.602522687e-06
7.055275419e-06
2.490195221e-06
4.911449774e-06
2.974446132e-06
4.01188862e-06
4.911449774e-06
4.01188862e-06
5.118271776e-06
1.937003643e-06
3.458697042e-06
4.702961533e-06
4.496139531e-06
4.01188862e-06
3.942947953e-06
3.52763771e-06
5.049331109e-06
6.433143174e-06
4.565080198e-06
4.358258196e-06
4.080829287e-06
5.049331109e-06
6.01783293e-06
3.874007286e-06
6.433143174e-06
5.464641352e-06
5.187212443e-06
5.464641352e-06
5.464641352e-06
5.53358202e-06
5.464641352e-06
4.01188862e-06
4.565080198e-06
3.52763771e-06
6.01783293e-06
3.389756375e-06
5.464641352e-06
5.879951596e-06
4.496139531e-06
7.124216086e-06
3.596578377e-06
3.942947953e-06
6.433143174e-06
4.702961533e-06
3.942947953e-06
3.942947953e-06
4.565080198e-06
4.427198864e-06
7.885895906e-06
5.53358202e-06
5.879951596e-06
6.571024508e-06
5.395700685e-06
2.974446132e-06
5.464641352e-06
6.364202506e-06
6.708905843e-06
3.389756375e-06
3.874007286e-06
1.937003643e-06
3.389756375e-06
3.389756375e-06
6.639965176e-06
6.01783293e-06
3.942947953e-06
5.879951596e-06
6.01783293e-06
3.942947953e-06
5.395700685e-06
5.118271776e-06
4.634020865e-06
6.848453417e-06
3.389756375e-06
2.974446132e-06
5.118271776e-06
5.53358202e-06
4.358258196e-06
5.602522687e-06
3.043386799e-06
4.496139531e-06
4.980390442e-06
4.980390442e-06
4.01188862e-06
5.464641352e-06
2.974446132e-06
4.842509107e-06
2.697017223e-06
6.639965176e-06
5.395700685e-06
2.143825645e-06
3.52763771e-06
5.53358202e-06
4.565080198e-06
9.579321323e-06
1.56562286e-05
1.055707913e-05
1.6866804e-05
1.769822514e-05
1.358328014e-05
1.346358233e-05
1.902709306e-05
1.740283342e-05
1.604979993e-05
9.231723434e-06
6.778992087e-06
1.351156942e-05
7.65388687e-06
1.320340028e-05
8.840049881e-06
1.26665428e-05
1.538187442e-05
1.255681059e-05
1.612351583e-05
7.218665529e-06
6.43068772e-06
1.280844226e-05
5.528091704e-06
1.12032172e-05
9.343198445e-06
1.013288551e-05
1.326775297e-05
1.262999398e-05
1.072443859e-05
7.011110083e-06
8.596909375e-06
5.559959959e-06
7.51262242e-06
6.637264201e-06
1.265034531e-05
1.129237427e-05
1.151868021e-05
1.365809901e-05
1.109479974e-05
5.414835221e-06
5.661050824e-06
3.941580792e-06
5.953592166e-06
7.992136838e-06
8.768418837e-06
8.468408906e-06
9.987583008e-06
1.32172299e-05
1.294304222e-05
6.941924935e-06
5.591389951e-06
6.052657554e-06
1.226034543e-05
9.99060081e-06
1.272197634e-05
7.166381492e-06
8.456485797e-06
9.031626352e-06
1.383119633e-05
6.872739786e-06
5.032419321e-06
6.192943928e-06
3.118060528e-06
6.779520464e-06
6.755824553e-06
7.745254081e-06
8.966851542e-06
7.930337933e-06
1.16125927e-05
6.386771598e-06
3.00551942e-06
5.489816774e-06
6.236121047e-06
5.709160336e-06
7.76212169e-06
6.876073416e-06
3.717877171e-06
7.489468806e-06
5.325361345e-06
2.499026091e-06
5.032419321e-06
3.448883191e-06
5.173223469e-06
7.636496203e-06
3.162153511e-06
5.718328254e-06
6.78007157e-06
7.269918634e-06
9.985497935e-06
6.663512196e-06
4.193121554e-06
4.081867162e-06
5.102591246e-06
5.566904086e-06
6.68419351e-06
4.632724224e-06
8.966851542e-06
4.18560353e-06
4.289775436e-06
2.568211239e-06
4.543109563e-06
4.997119172e-06
6.165488829e-06
8.349496575e-06
5.677896364e-06
3.040388731e-06
4.811267153e-06
3.671551012e-06
5.843154299e-06
4.026115804e-06
7.128980101e-06
7.178339126e-06
6.661621505e-06
5.28067247e-06
6.252675983e-06
2.533657287e-06
5.75934014e-06
6.314997021e-06
6.878740238e-06
5.48402037e-06
8.666570265e-06
6.052657579e-06
5.243855691e-06
3.068824092e-06
1.50944571e-06
5.428020161e-06
7.290437242e-06
6.680913915e-06
4.289775436e-06
4.928867016e-06
8.527248444e-06
4.997119138e-06
6.165488808e-06
5.209544347e-06
5.174747783e-06
4.270274991e-06
8.89419301e-06
3.084315091e-06
5.325361307e-06
4.581269166e-06
7.968277887e-06
9.853951973e-07
4.1103259e-06
5.709160383e-06
4.528337157e-06
5.862610513e-06
3.645218672e-06
3.671551023e-06
8.505834972e-06
4.026115799e-06
3.005519426e-06
3.65931277e-06
3.969061455e-06
4.567672097e-06
4.599968201e-06
3.691402441e-06
5.176315808e-06
8.517573805e-06
2.588964772e-06
3.470962463e-06
5.171741046e-06
4.574564727e-06
4.606458551e-06
4.638800223e-06
3.522039987e-06
3.112529861e-06
7.508412904e-06
3.744734414e-06
6.582094954e-06
4.512083987e-06
5.871717105e-06
3.519026399e-06
5.598723907e-06
4.638800192e-06
4.025188556e-06
4.342416114e-06
4.665950111e-06
6.168630226e-06
5.325361345e-06
7.427893163e-06
3.634150931e-06
2.04093358e-06
6.661621532e-06
5.638032217e-06
4.599968169e-06
6.441483093e-06
5.248974363e-06
2.570262576e-06
2.662680691e-06
4.442898838e-06
6.080699725e-06
3.589169561e-06
6.165488808e-06
3.21108036e-06
2.515742865e-06
5.79046939e-06
5.759340096e-06
5.947311271e-06
4.73385249e-06
2.499026087e-06
5.38240731e-06
5.559959955e-06
9.567785401e-06
3.63956823e-06
2.227487409e-06
6.297200846e-06
4.738608664e-06
2.716629376e-06
1.035585909e-06
2.568211236e-06
2.725192268e-06
6.475211968e-06
5.669356168e-06
)
;

boundaryField
{
    flow
    {
        type            zeroGradient;
    }
    obstacle
    {
        type            calculated;
        value           nonuniform List<scalar> 10(9.010707269e-24 5.881329846e-24 4.120143187e-24 1.481209091e-24 4.880352482e-24 1.49526289e-23 1.444542369e-24 2.225073859e-308 2.225073859e-308 1.545249267e-23);
    }
    frontAndBack
    {
        type            empty;
    }
    procBoundary0to1
    {
        type            processor;
        value           nonuniform List<scalar> 
21
(
1.087730178e-05
1.415534356e-05
1.013294491e-05
7.226184209e-06
1.132463379e-05
8.417873101e-06
8.195104441e-06
6.407571121e-06
4.768550236e-06
7.525003785e-06
6.929159345e-06
1.050422602e-05
3.79962999e-06
4.768550219e-06
4.694294037e-06
6.556083534e-06
2.160609106e-06
6.034495355e-06
8.12084826e-06
3.278041767e-06
3.725373801e-06
)
;
    }
    procBoundary0to2
    {
        type            processor;
        value           nonuniform List<scalar> 
31
(
3.942947953e-06
1.937003643e-06
4.01188862e-06
4.911449774e-06
5.671463354e-06
3.942947953e-06
5.187212443e-06
6.01783293e-06
4.565080198e-06
5.326760018e-06
4.427198864e-06
6.364202506e-06
5.948892263e-06
2.628076555e-06
5.395700685e-06
6.224654932e-06
4.496139531e-06
4.01188862e-06
6.295261839e-06
5.809344689e-06
3.63956823e-06
6.755824535e-06
7.81739516e-06
4.738608631e-06
2.643445985e-06
4.216059536e-06
4.026115799e-06
4.053799817e-06
7.741179905e-06
3.63956823e-06
2.551295614e-06
)
;
    }
}


// ************************************************************************* //
