/*--------------------------------*- C++ -*----------------------------------*\
  =========                 |
  \\      /  F ield         | OpenFOAM: The Open Source CFD Toolbox
   \\    /   O peration     | Website:  https://openfoam.org
    \\  /    A nd           | Version:  7
     \\/     M anipulation  |
\*---------------------------------------------------------------------------*/
FoamFile
{
    version     2.0;
    format      ascii;
    class       volScalarField;
    location    "0.006";
    object      rhoN;
}
// * * * * * * * * * * * * * * * * * * * * * * * * * * * * * * * * * * * * * //

dimensions      [0 -3 0 0 0 0 0];

internalField   nonuniform List<scalar> 
654
(
6.248398848e+19
6.248398848e+19
1.041399808e+20
9.372598272e+19
9.372598272e+19
9.372598272e+19
6.248398848e+19
7.289798656e+19
1.041399808e+20
4.165599232e+19
1.35381975e+20
1.041399808e+20
1.35381975e+20
1.145539789e+20
8.331198464e+19
1.24967977e+20
1.145539789e+20
5.20699904e+19
1.35381975e+20
4.165599232e+19
9.372598272e+19
9.372598272e+19
1.24967977e+20
1.35381975e+20
8.331198464e+19
8.331198464e+19
1.562099712e+20
6.248398848e+19
1.041399808e+20
9.372598272e+19
1.041399808e+20
7.289798656e+19
6.248398848e+19
1.041399808e+20
9.372598272e+19
1.145539789e+20
6.248398848e+19
1.666239693e+20
1.35381975e+20
1.874519654e+20
7.289798656e+19
1.145539789e+20
7.289798656e+19
1.041399808e+20
9.372598272e+19
1.041399808e+20
1.145539789e+20
5.20699904e+19
1.145539789e+20
9.372598272e+19
1.145539789e+20
1.24967977e+20
8.331198464e+19
1.666239693e+20
1.24967977e+20
1.35381975e+20
1.041399808e+20
1.041399808e+20
8.331198464e+19
8.331198464e+19
7.289798656e+19
1.145539789e+20
4.165599232e+19
1.35381975e+20
4.165599232e+19
1.24967977e+20
7.289798656e+19
1.041399808e+20
1.145539789e+20
1.041399808e+20
1.35381975e+20
7.289798656e+19
1.145539789e+20
2.291079578e+20
9.372598272e+19
1.457959731e+20
1.35381975e+20
6.248398848e+19
5.20699904e+19
1.457959731e+20
9.372598272e+19
1.35381975e+20
4.165599232e+19
1.24967977e+20
1.145539789e+20
1.041399808e+20
1.457959731e+20
1.24967977e+20
8.331198464e+19
1.145539789e+20
5.20699904e+19
1.24967977e+20
9.372598272e+19
5.20699904e+19
1.041399808e+20
1.562099712e+20
1.24967977e+20
1.35381975e+20
7.289798656e+19
9.372598272e+19
6.248398848e+19
8.331198464e+19
1.041399808e+20
1.145539789e+20
1.041399808e+20
1.041399808e+20
9.372598272e+19
1.041399808e+20
1.145539789e+20
9.372598272e+19
8.331198464e+19
1.041399808e+20
1.145539789e+20
1.24967977e+20
8.331198464e+19
1.041399808e+20
7.289798656e+19
1.145539789e+20
1.041399808e+20
1.041399808e+20
8.331198464e+19
8.331198464e+19
1.562099712e+20
1.145539789e+20
8.331198464e+19
5.20699904e+19
9.372598272e+19
1.145539789e+20
2.186939597e+20
1.562099712e+20
9.372598272e+19
7.289798656e+19
6.248398848e+19
9.372598272e+19
8.331198464e+19
1.041399808e+20
6.248398848e+19
1.041399808e+20
9.372598272e+19
9.372598272e+19
1.041399808e+20
8.331198464e+19
5.20699904e+19
7.289798656e+19
1.35381975e+20
1.145539789e+20
8.331198464e+19
7.289798656e+19
9.372598272e+19
1.041399808e+20
9.372598272e+19
1.35381975e+20
5.20699904e+19
1.041399808e+20
5.20699904e+19
1.24967977e+20
1.24967977e+20
7.289798656e+19
3.124199424e+19
1.145539789e+20
8.331198464e+19
8.331198464e+19
1.145539789e+20
1.145539789e+20
9.372598272e+19
7.289798656e+19
1.457959731e+20
9.372598272e+19
1.041399808e+20
1.24967977e+20
1.35381975e+20
6.248398848e+19
8.331198464e+19
1.562099712e+20
1.145539789e+20
5.20699904e+19
1.457959731e+20
1.35381975e+20
4.165599232e+19
6.248398848e+19
6.248398848e+19
1.145539789e+20
1.041399808e+20
8.331198464e+19
1.35381975e+20
6.248398848e+19
1.041399808e+20
1.666239693e+20
9.372598272e+19
1.041399808e+20
1.24967977e+20
7.289798656e+19
9.372598272e+19
9.372598272e+19
9.372598272e+19
1.24967977e+20
8.331198464e+19
9.372598272e+19
1.041399808e+20
1.145539789e+20
1.041399808e+20
6.248398848e+19
1.24967977e+20
9.372598272e+19
7.289798656e+19
1.35381975e+20
9.372598272e+19
1.24967977e+20
1.35381975e+20
9.372598272e+19
5.20699904e+19
5.20699904e+19
1.457959731e+20
3.124199424e+19
8.331198464e+19
1.35381975e+20
5.20699904e+19
1.145539789e+20
1.35381975e+20
1.24967977e+20
5.20699904e+19
1.041399808e+20
1.35381975e+20
7.289798656e+19
9.372598272e+19
5.20699904e+19
6.248398848e+19
9.372598272e+19
7.289798656e+19
8.331198464e+19
7.289798656e+19
8.331198464e+19
1.24967977e+20
9.372598272e+19
1.562099712e+20
9.372598272e+19
1.145539789e+20
7.289798656e+19
1.35381975e+20
1.562099712e+20
6.248398848e+19
1.041399808e+20
9.372598272e+19
6.248398848e+19
1.041399808e+20
8.331198464e+19
1.874519654e+20
9.372598272e+19
6.248398848e+19
9.372598272e+19
7.289798656e+19
5.20699904e+19
1.145539789e+20
5.20699904e+19
6.248398848e+19
8.331198464e+19
1.35381975e+20
7.289798656e+19
8.331198464e+19
9.372598272e+19
8.331198464e+19
1.041399808e+20
9.372598272e+19
1.041399808e+20
9.372598272e+19
1.145539789e+20
9.372598272e+19
1.35381975e+20
9.372598272e+19
1.041399808e+20
1.041399808e+20
1.041399808e+20
1.041399808e+20
1.457959731e+20
1.041399808e+20
9.372598272e+19
1.041399808e+20
1.041399808e+20
1.666239693e+20
1.145539789e+20
7.289798656e+19
9.372598272e+19
1.145539789e+20
8.331198464e+19
9.372598272e+19
1.24967977e+20
1.24967977e+20
1.35381975e+20
8.331198464e+19
8.331198464e+19
7.289798656e+19
1.35381975e+20
1.041399808e+20
8.331198464e+19
1.457959731e+20
8.331198464e+19
8.331198464e+19
3.124199424e+19
8.331198464e+19
1.666239693e+20
8.331198464e+19
6.248398848e+19
1.24967977e+20
1.145539789e+20
5.20699904e+19
9.372598272e+19
4.165599232e+19
1.457959731e+20
6.248398848e+19
1.457959731e+20
8.331198464e+19
1.145539789e+20
8.331198464e+19
1.041399808e+20
1.145539789e+20
1.145539789e+20
1.145539789e+20
9.372598272e+19
5.20699904e+19
1.457959731e+20
1.24967977e+20
9.372598272e+19
7.289798656e+19
1.35381975e+20
1.770379674e+20
5.20699904e+19
1.35381975e+20
1.35381975e+20
8.331198464e+19
7.289798656e+19
1.35381975e+20
6.248398848e+19
1.145539789e+20
9.372598272e+19
8.331198464e+19
8.331198464e+19
1.041399808e+20
9.372598272e+19
8.331198464e+19
1.35381975e+20
6.248398848e+19
9.372598272e+19
6.248398848e+19
5.20699904e+19
1.457959731e+20
8.331198464e+19
8.331198464e+19
1.145539789e+20
1.457959731e+20
5.20699904e+19
1.041399808e+20
6.248398848e+19
8.331198464e+19
1.041399808e+20
8.331198464e+19
1.041399808e+20
4.165599232e+19
7.289798656e+19
9.372598272e+19
9.372598272e+19
8.331198464e+19
8.331198464e+19
7.289798656e+19
1.041399808e+20
1.35381975e+20
9.372598272e+19
9.372598272e+19
8.331198464e+19
1.041399808e+20
1.24967977e+20
8.331198464e+19
1.35381975e+20
1.145539789e+20
1.041399808e+20
1.145539789e+20
1.145539789e+20
1.145539789e+20
1.145539789e+20
8.331198464e+19
9.372598272e+19
7.289798656e+19
1.24967977e+20
7.289798656e+19
1.145539789e+20
1.24967977e+20
9.372598272e+19
1.457959731e+20
7.289798656e+19
8.331198464e+19
1.35381975e+20
9.372598272e+19
8.331198464e+19
8.331198464e+19
9.372598272e+19
9.372598272e+19
1.666239693e+20
1.145539789e+20
1.24967977e+20
1.35381975e+20
1.145539789e+20
6.248398848e+19
1.145539789e+20
1.35381975e+20
1.35381975e+20
7.289798656e+19
8.331198464e+19
4.165599232e+19
7.289798656e+19
7.289798656e+19
1.35381975e+20
1.24967977e+20
8.331198464e+19
1.24967977e+20
1.24967977e+20
8.331198464e+19
1.145539789e+20
1.041399808e+20
9.372598272e+19
1.457959731e+20
7.289798656e+19
6.248398848e+19
1.041399808e+20
1.145539789e+20
9.372598272e+19
1.145539789e+20
6.248398848e+19
9.372598272e+19
1.041399808e+20
1.041399808e+20
8.331198464e+19
1.145539789e+20
6.248398848e+19
1.041399808e+20
5.20699904e+19
1.35381975e+20
1.145539789e+20
4.165599232e+19
7.289798656e+19
1.145539789e+20
9.372598272e+19
1.985676469e+20
3.262065051e+20
2.22508593e+20
3.5209416e+20
3.653106208e+20
2.813303835e+20
2.833337169e+20
3.951218577e+20
3.64811464e+20
3.340599706e+20
1.881167182e+20
1.367962763e+20
2.754868295e+20
1.600428001e+20
2.793551807e+20
1.839467894e+20
2.615388158e+20
3.182926078e+20
2.653174283e+20
3.340599706e+20
1.46313003e+20
1.367962763e+20
2.648911821e+20
1.1736472e+20
2.256330307e+20
1.947671886e+20
2.070515624e+20
2.743901791e+20
2.653174283e+20
2.227066471e+20
1.46313003e+20
1.788874383e+20
1.165521202e+20
1.600427999e+20
1.396775903e+20
2.705099842e+20
2.397439145e+20
2.414633576e+20
2.87427214e+20
2.338419794e+20
1.149602166e+20
1.157506953e+20
8.476517832e+19
1.280342401e+20
1.611664505e+20
1.839467894e+20
1.743592105e+20
2.085365361e+20
2.763723214e+20
2.672479767e+20
1.46313003e+20
1.157506953e+20
1.271477674e+20
2.560684799e+20
2.041441704e+20
2.70509984e+20
1.52564309e+20
1.756097144e+20
1.879331783e+20
2.895186414e+20
1.46313003e+20
1.052279048e+20
1.271477675e+20
6.401712006e+19
1.396775905e+20
1.406651919e+20
1.634617599e+20
1.865853218e+20
1.658233927e+20
2.449773118e+20
1.358620742e+20
6.313674294e+19
1.165521202e+20
1.2803424e+20
1.181887302e+20
1.623059905e+20
1.416668586e+20
7.682925016e+19
1.547684999e+20
1.113533235e+20
5.225464391e+19
1.052279048e+20
7.416953098e+19
1.066952e+20
1.611664505e+20
6.49223962e+19
1.198719572e+20
1.426828931e+20
1.547684999e+20
2.115713147e+20
1.358620743e+20
8.418232392e+19
8.476517832e+19
1.066952e+20
1.181887303e+20
1.406651919e+20
9.807705592e+19
1.865853218e+20
8.843914278e+19
8.908265883e+19
5.225464391e+19
9.470511435e+19
1.059564728e+20
1.2803424e+20
1.719108804e+20
1.19024393e+20
6.53847039e+19
9.878046442e+19
7.738424993e+19
1.224886559e+20
8.360743026e+19
1.473190669e+20
1.483390621e+20
1.387037599e+20
1.074443003e+20
1.298447925e+20
5.448725348e+19
1.207316796e+20
1.326587148e+20
1.447593212e+20
1.149602166e+20
1.788874387e+20
1.271477679e+20
1.066952e+20
6.44665799e+19
3.246119806e+19
1.089745064e+20
1.53658499e+20
1.326587136e+20
8.908265883e+19
1.045092875e+20
1.788874371e+20
1.059564721e+20
1.280342396e+20
1.074443004e+20
1.082039934e+20
8.717960478e+19
1.865853215e+20
6.63293568e+19
1.113533227e+20
9.405835955e+19
1.683646482e+20
2.119129457e+19
8.535616032e+19
1.181887312e+20
9.738359478e+19
1.198719574e+20
7.682925059e+19
7.738425015e+19
1.781653177e+20
8.360743015e+19
6.313674307e+19
7.416953148e+19
8.535616032e+19
9.669987032e+19
9.738359478e+19
7.628215471e+19
1.097560707e+20
1.768782848e+20
5.567666177e+19
7.315650138e+19
1.052279044e+20
9.53608249e+19
9.60256797e+19
9.669987032e+19
7.574279541e+19
6.538470404e+19
1.536585012e+20
7.738425015e+19
1.336239882e+20
9.405835892e+19
1.262734861e+20
7.416953148e+19
1.173647196e+20
9.669986965e+19
8.656319476e+19
8.717960478e+19
9.878046435e+19
1.326587145e+20
1.113533235e+20
1.567639326e+20
7.365953358e+19
4.238258913e+19
1.387037605e+20
1.181887304e+20
9.73835941e+19
1.307694081e+20
1.097560715e+20
5.5274464e+19
5.567666217e+19
9.405835892e+19
1.262734861e+20
7.416953098e+19
1.280342396e+20
6.446658021e+19
5.41019971e+19
1.198719574e+20
1.207316786e+20
1.216038217e+20
1.002179912e+20
5.225464384e+19
1.157506948e+20
1.165521201e+20
2.027208808e+20
7.521101025e+19
4.328159738e+19
1.307694081e+20
9.878046504e+19
5.527446439e+19
2.227066471e+19
5.225464384e+19
5.26139522e+19
1.377434147e+20
1.173647204e+20
)
;

boundaryField
{
    flow
    {
        type            zeroGradient;
    }
    obstacle
    {
        type            calculated;
        value           nonuniform List<scalar> 10(177.194768 126.4802117 88.60522982 31.85395894 98.61594235 316.0898003 31.0654273 2.225073859e-308 2.225073859e-308 317.8363935);
    }
    frontAndBack
    {
        type            empty;
    }
    procBoundary0to1
    {
        type            processor;
        value           nonuniform List<scalar> 
21
(
2.243390211e+20
2.916407277e+20
2.131220701e+20
1.458203637e+20
2.355559722e+20
1.682542661e+20
1.682542658e+20
1.346034127e+20
1.009525596e+20
1.570373148e+20
1.458203637e+20
2.131220708e+20
7.851865717e+19
1.009525592e+20
1.009525599e+20
1.346034123e+20
4.486780409e+19
1.233864621e+20
1.682542666e+20
6.730170614e+19
7.851865773e+19
)
;
    }
    procBoundary0to2
    {
        type            processor;
        value           nonuniform List<scalar> 
31
(
8.331198464e+19
4.165599232e+19
8.331198464e+19
1.041399808e+20
1.145539789e+20
8.331198464e+19
1.041399808e+20
1.24967977e+20
9.372598272e+19
1.145539789e+20
9.372598272e+19
1.35381975e+20
1.24967977e+20
5.20699904e+19
1.145539789e+20
1.24967977e+20
9.372598272e+19
8.331198464e+19
1.35381975e+20
1.145539789e+20
7.521101025e+19
1.406651915e+20
1.63461759e+20
9.878046435e+19
5.527446439e+19
8.908265883e+19
8.360743015e+19
8.418232409e+19
1.589347092e+20
7.521101025e+19
5.334759983e+19
)
;
    }
}


// ************************************************************************* //
