/*--------------------------------*- C++ -*----------------------------------*\
  =========                 |
  \\      /  F ield         | OpenFOAM: The Open Source CFD Toolbox
   \\    /   O peration     | Website:  https://openfoam.org
    \\  /    A nd           | Version:  7
     \\/     M anipulation  |
\*---------------------------------------------------------------------------*/
FoamFile
{
    version     2.0;
    format      ascii;
    class       surfaceScalarField;
    location    "0.15";
    object      alphaPhi0.water;
}
// * * * * * * * * * * * * * * * * * * * * * * * * * * * * * * * * * * * * * //

dimensions      [0 3 -1 0 0 0 0];

internalField   nonuniform List<scalar> 
3781
(
-1.68674e-07
1.68674e-07
1.72489e-06
-1.89356e-06
4.66739e-06
-2.94251e-06
7.91002e-06
-3.24263e-06
1.11747e-05
-3.26466e-06
1.4377e-05
-3.20231e-06
1.7496e-05
-3.11899e-06
2.05331e-05
-3.03712e-06
2.3499e-05
-2.96585e-06
2.6408e-05
-2.90904e-06
2.92763e-05
-2.8683e-06
3.21208e-05
-2.84449e-06
3.4959e-05
-2.83824e-06
3.78093e-05
-2.85029e-06
4.06908e-05
-2.88153e-06
4.36239e-05
-2.93306e-06
4.663e-05
-3.00606e-06
4.97316e-05
-3.10167e-06
5.29522e-05
-3.22062e-06
5.6315e-05
-3.36276e-06
5.98413e-05
-3.52632e-06
6.35483e-05
-3.70696e-06
6.7445e-05
-3.89671e-06
7.15277e-05
-4.08266e-06
7.57735e-05
-4.24587e-06
8.01342e-05
-4.36064e-06
8.4529e-05
-4.39486e-06
8.8841e-05
-4.31202e-06
9.29138e-05
-4.07277e-06
9.65536e-05
-3.63981e-06
9.95564e-05
-3.00277e-06
0.000101673
-2.11678e-06
0.000102472
-7.9929e-07
0.000101428
1.04444e-06
9.88038e-05
2.62409e-06
9.5241e-05
3.56276e-06
9.14807e-05
3.7603e-06
8.81654e-05
3.31533e-06
8.5685e-05
2.48031e-06
8.30692e-05
1.56813e-06
8.20705e-05
6.95056e-07
8.19685e-05
-3.57339e-07
7.25226e-05
-9.00245e-07
1.11176e-06
1.56035e-06
-1.39167e-06
4.12016e-06
-4.45337e-06
6.954e-06
-5.77636e-06
9.86792e-06
-6.15654e-06
1.27749e-05
-6.17162e-06
1.56374e-05
-6.06481e-06
1.84444e-05
-5.92603e-06
2.11984e-05
-5.79105e-06
2.3908e-05
-5.67555e-06
2.65857e-05
-5.58668e-06
2.92453e-05
-5.52787e-06
3.19019e-05
-5.50108e-06
3.45714e-05
-5.50778e-06
3.72706e-05
-5.54948e-06
4.0017e-05
-5.6279e-06
4.28289e-05
-5.74495e-06
4.57254e-05
-5.90259e-06
4.8726e-05
-6.10233e-06
5.18501e-05
-6.34464e-06
5.51152e-05
-6.62787e-06
5.85358e-05
-6.94694e-06
6.21204e-05
-7.2916e-06
6.58682e-05
-7.64448e-06
6.97646e-05
-7.97903e-06
7.37763e-05
-8.25764e-06
7.78464e-05
-8.43071e-06
8.18889e-05
-8.43735e-06
8.57857e-05
-8.20884e-06
8.93881e-05
-7.67516e-06
9.2527e-05
-6.77871e-06
9.5025e-05
-5.50074e-06
9.67741e-05
-3.86589e-06
9.78861e-05
-1.91129e-06
9.86162e-05
3.14097e-07
9.87016e-05
2.53615e-06
9.79052e-05
4.35806e-06
9.6299e-05
5.36283e-06
9.4266e-05
5.33837e-06
9.23341e-05
4.35094e-06
9.0785e-05
2.78721e-06
7.87656e-05
1.10084e-06
3.82948e-05
1.33287e-07
1.20308e-05
-1.18154e-07
-1.24665e-07
2.57539e-06
-3.96707e-06
5.52981e-06
-7.40779e-06
8.3427e-06
-8.58924e-06
1.10632e-05
-8.877e-06
1.37222e-05
-8.83067e-06
1.63291e-05
-8.67169e-06
1.88906e-05
-8.48751e-06
2.1415e-05
-8.31551e-06
2.39127e-05
-8.17322e-06
2.63954e-05
-8.06939e-06
2.88761e-05
-8.00861e-06
3.13688e-05
-7.9937e-06
3.38878e-05
-8.02683e-06
3.64485e-05
-8.11012e-06
3.90664e-05
-8.24587e-06
4.17579e-05
-8.43642e-06
4.45392e-05
-8.68389e-06
4.74263e-05
-8.98946e-06
5.04341e-05
-9.35239e-06
5.35747e-05
-9.76854e-06
5.68563e-05
-1.02285e-05
6.028e-05
-1.07153e-05
6.38373e-05
-1.12018e-05
6.75061e-05
-1.16478e-05
7.12468e-05
-1.19983e-05
7.49981e-05
-1.2182e-05
7.86733e-05
-1.21126e-05
8.21583e-05
-1.16939e-05
8.53138e-05
-1.08306e-05
8.79843e-05
-9.44915e-06
9.00134e-05
-7.52982e-06
9.12896e-05
-5.14211e-06
9.18344e-05
-2.45617e-06
9.18385e-05
3.09568e-07
9.14945e-05
2.87331e-06
9.09183e-05
4.86829e-06
9.03177e-05
5.91575e-06
8.98189e-05
5.75518e-06
8.91597e-05
4.34143e-06
7.90954e-05
2.03076e-06
3.65432e-05
2.79612e-07
3.39947e-06
6.76776e-09
1.28085e-06
-5.57994e-08
-7.581e-08
3.04017e-06
-7.00724e-06
6.28583e-06
-1.06535e-05
9.15937e-06
-1.14628e-05
1.17973e-05
-1.15149e-05
1.43057e-05
-1.13391e-05
1.67357e-05
-1.11017e-05
1.91144e-05
-1.08662e-05
2.14597e-05
-1.06608e-05
2.37863e-05
-1.04999e-05
2.61078e-05
-1.03909e-05
2.84375e-05
-1.03383e-05
3.07889e-05
-1.03451e-05
3.31756e-05
-1.04136e-05
3.56117e-05
-1.05462e-05
3.81111e-05
-1.07453e-05
4.06881e-05
-1.10134e-05
4.33563e-05
-1.13521e-05
4.61284e-05
-1.17616e-05
4.90154e-05
-1.22393e-05
5.20248e-05
-1.2778e-05
5.51597e-05
-1.33633e-05
5.84156e-05
-1.39713e-05
6.17788e-05
-1.45649e-05
6.52224e-05
-1.50915e-05
6.87038e-05
-1.54797e-05
7.21606e-05
-1.56389e-05
7.55087e-05
-1.54606e-05
7.86402e-05
-1.48254e-05
8.14267e-05
-1.36172e-05
8.37281e-05
-1.17506e-05
8.54155e-05
-9.21721e-06
8.64176e-05
-6.14419e-06
8.678e-05
-2.81859e-06
8.66653e-05
3.89748e-07
8.63484e-05
3.09855e-06
8.62246e-05
4.94473e-06
8.6243e-05
5.53345e-06
8.26333e-05
4.3902e-06
5.71763e-05
1.98584e-06
1.74638e-05
1.41682e-07
2.98959e-06
-2.57942e-08
6.14441e-07
-4.87053e-08
2.27686e-07
-2.4874e-08
1.6443e-09
3.23863e-06
-1.02459e-05
6.63602e-06
-1.40508e-05
9.56334e-06
-1.43901e-05
1.2171e-05
-1.41225e-05
1.4594e-05
-1.37621e-05
1.69077e-05
-1.34154e-05
1.91551e-05
-1.31136e-05
2.13639e-05
-1.28696e-05
2.3554e-05
-1.269e-05
2.57422e-05
-1.2579e-05
2.79431e-05
-1.25392e-05
3.01707e-05
-1.25727e-05
3.24384e-05
-1.26813e-05
3.47593e-05
-1.2867e-05
3.7146e-05
-1.31321e-05
3.9611e-05
-1.34783e-05
4.21654e-05
-1.39065e-05
4.48192e-05
-1.44154e-05
4.75798e-05
-1.5e-05
5.04512e-05
-1.56494e-05
5.34321e-05
-1.63442e-05
5.65143e-05
-1.70535e-05
5.96803e-05
-1.7731e-05
6.29011e-05
-1.83122e-05
6.6133e-05
-1.87117e-05
6.9316e-05
-1.88218e-05
7.23707e-05
-1.85153e-05
7.51988e-05
-1.76534e-05
7.76849e-05
-1.61033e-05
7.97073e-05
-1.37729e-05
8.11636e-05
-1.06735e-05
8.20226e-05
-7.00323e-06
8.2356e-05
-3.1776e-06
8.2395e-05
2.85589e-07
8.23449e-05
2.87054e-06
8.02046e-05
3.89184e-06
6.20538e-05
2.9212e-06
2.49382e-05
6.19175e-07
5.85111e-06
-7.82916e-08
2.01203e-06
-4.21847e-08
6.50642e-07
-3.03576e-08
1.34693e-07
-2.95653e-08
6.67273e-08
-3.0339e-09
2.20159e-09
3.31038e-06
-1.35562e-05
6.74773e-06
-1.74882e-05
9.69041e-06
-1.73328e-05
1.22796e-05
-1.67117e-05
1.46512e-05
-1.61337e-05
1.68885e-05
-1.56527e-05
1.9043e-05
-1.52681e-05
2.11492e-05
-1.49757e-05
2.32319e-05
-1.47728e-05
2.5311e-05
-1.46581e-05
2.74031e-05
-1.46312e-05
2.95227e-05
-1.46923e-05
3.16835e-05
-1.4842e-05
3.38979e-05
-1.50814e-05
3.61776e-05
-1.54119e-05
3.85333e-05
-1.5834e-05
4.09744e-05
-1.63475e-05
4.3508e-05
-1.6949e-05
4.61389e-05
-1.76308e-05
4.88677e-05
-1.83782e-05
5.16902e-05
-1.91667e-05
5.45952e-05
-1.99585e-05
5.75632e-05
-2.0699e-05
6.05644e-05
-2.13134e-05
6.35567e-05
-2.17039e-05
6.64837e-05
-2.17489e-05
6.92739e-05
-2.13055e-05
7.18399e-05
-2.02194e-05
7.4081e-05
-1.83445e-05
7.58929e-05
-1.55847e-05
7.71963e-05
-1.19771e-05
7.79935e-05
-7.80535e-06
7.84011e-05
-3.63243e-06
7.77896e-05
-1.0024e-07
6.64724e-05
1.69515e-06
3.1853e-05
9.31457e-07
6.97257e-06
-5.85607e-08
2.06903e-06
-6.24262e-08
8.68218e-07
-2.81676e-08
2.94161e-07
-1.95942e-08
6.93358e-08
-1.20127e-08
2.59209e-08
-2.67444e-09
1.30061e-08
5.91906e-10
9.26813e-10
3.31225e-06
-1.68685e-05
6.71626e-06
-2.08922e-05
9.63702e-06
-2.02535e-05
1.22029e-05
-1.92777e-05
1.45377e-05
-1.84685e-05
1.67221e-05
-1.78371e-05
1.881e-05
-1.7356e-05
2.08391e-05
-1.70049e-05
2.28379e-05
-1.67715e-05
2.48283e-05
-1.66485e-05
2.68287e-05
-1.66316e-05
2.88547e-05
-1.67183e-05
3.09199e-05
-1.69073e-05
3.30366e-05
-1.71981e-05
3.52156e-05
-1.75908e-05
3.74661e-05
-1.80846e-05
3.97957e-05
-1.86771e-05
4.22095e-05
-1.93629e-05
4.47098e-05
-2.01311e-05
4.72946e-05
-2.09631e-05
4.99573e-05
-2.18294e-05
5.26849e-05
-2.2686e-05
5.54568e-05
-2.3471e-05
5.8244e-05
-2.41005e-05
6.10068e-05
-2.44667e-05
6.36945e-05
-2.44366e-05
6.6244e-05
-2.38551e-05
6.85798e-05
-2.25552e-05
7.06149e-05
-2.03795e-05
7.22581e-05
-1.7228e-05
7.34464e-05
-1.31654e-05
7.41942e-05
-8.55415e-06
7.23921e-05
-4.10702e-06
5.01978e-05
-5.55464e-07
1.30323e-05
1.04805e-07
1.7712e-06
-4.2304e-08
6.91093e-07
-2.27518e-08
2.8387e-07
-1.30469e-08
8.34371e-08
-8.57388e-09
2.37141e-08
-3.53654e-09
9.06251e-09
-8.87796e-10
4.10679e-09
-8.94537e-12
2.31022e-09
4.48808e-10
5.49938e-10
3.2718e-06
-2.01403e-05
6.59738e-06
-2.42178e-05
9.4683e-06
-2.31245e-05
1.20014e-05
-2.18107e-05
1.43036e-05
-2.07707e-05
1.64479e-05
-1.99814e-05
1.8486e-05
-1.93941e-05
2.04564e-05
-1.89753e-05
2.23889e-05
-1.8704e-05
2.43072e-05
-1.85669e-05
2.62307e-05
-1.85551e-05
2.81757e-05
-1.86632e-05
3.0156e-05
-1.88876e-05
3.21836e-05
-1.92257e-05
3.42685e-05
-1.96757e-05
3.64188e-05
-2.02349e-05
3.86405e-05
-2.08988e-05
4.09368e-05
-2.16593e-05
4.33081e-05
-2.25023e-05
4.57503e-05
-2.34053e-05
4.8255e-05
-2.43341e-05
5.0808e-05
-2.52391e-05
5.33889e-05
-2.60518e-05
5.59696e-05
-2.66813e-05
5.85143e-05
-2.70114e-05
6.09781e-05
-2.69003e-05
6.33065e-05
-2.61835e-05
6.54345e-05
-2.46833e-05
6.72853e-05
-2.22303e-05
6.87733e-05
-1.8716e-05
6.98176e-05
-1.421e-05
6.80995e-05
-8.4806e-06
4.16239e-05
-3.65516e-06
6.24324e-06
-3.5894e-07
4.99651e-07
-1.50058e-09
2.00022e-07
-3.45032e-09
7.1967e-08
-2.95499e-09
2.30717e-08
-1.81462e-09
7.86654e-09
-7.18122e-10
2.85019e-09
-2.23885e-10
1.1933e-09
-1.7878e-11
6.32494e-10
7.30615e-11
4.08217e-10
1.82368e-10
5.02296e-10
3.20489e-06
-2.33452e-05
6.42579e-06
-2.74387e-05
9.22819e-06
-2.59269e-05
1.17189e-05
-2.43015e-05
1.39879e-05
-2.30396e-05
1.6098e-05
-2.20915e-05
1.80966e-05
-2.13927e-05
2.00208e-05
-2.08995e-05
2.19004e-05
-2.05836e-05
2.37596e-05
-2.0426e-05
2.56183e-05
-2.04139e-05
2.74932e-05
-2.05382e-05
2.93982e-05
-2.07926e-05
3.13449e-05
-2.11724e-05
3.33426e-05
-2.16734e-05
3.53984e-05
-2.22907e-05
3.75169e-05
-2.30173e-05
3.96999e-05
-2.38423e-05
4.19458e-05
-2.47482e-05
4.42492e-05
-2.57088e-05
4.66005e-05
-2.66853e-05
4.89849e-05
-2.76234e-05
5.13823e-05
-2.84492e-05
5.37667e-05
-2.90657e-05
5.61059e-05
-2.93506e-05
5.83608e-05
-2.91552e-05
6.04844e-05
-2.83071e-05
6.24202e-05
-2.6619e-05
6.40955e-05
-2.39057e-05
6.54214e-05
-2.0042e-05
6.56061e-05
-1.44004e-05
4.30365e-05
-8.57367e-06
5.09885e-06
-1.44538e-06
3.95154e-07
-9.19416e-08
1.37581e-07
7.66303e-10
3.7204e-08
9.49543e-10
1.08402e-08
2.29007e-10
3.20008e-09
6.31569e-11
9.85819e-10
3.75947e-11
3.7559e-10
1.65078e-11
1.8814e-10
1.75843e-11
1.19118e-10
3.13047e-11
8.68138e-11
8.03638e-11
3.30548e-10
3.12146e-06
-2.64666e-05
6.22363e-06
-3.05409e-05
8.94603e-06
-2.86493e-05
1.13867e-05
-2.67421e-05
1.36196e-05
-2.52725e-05
1.56975e-05
-2.41694e-05
1.76623e-05
-2.33575e-05
1.95485e-05
-2.27857e-05
2.13846e-05
-2.24198e-05
2.31946e-05
-2.22361e-05
2.49984e-05
-2.22177e-05
2.68125e-05
-2.23523e-05
2.86508e-05
-2.26308e-05
3.05242e-05
-2.30459e-05
3.24416e-05
-2.35907e-05
3.4409e-05
-2.42581e-05
3.643e-05
-2.50383e-05
3.85049e-05
-2.59172e-05
4.0631e-05
-2.68743e-05
4.28016e-05
-2.78795e-05
4.50064e-05
-2.88901e-05
4.72305e-05
-2.98475e-05
4.94547e-05
-3.06734e-05
5.16552e-05
-3.12662e-05
5.38033e-05
-3.14987e-05
5.58651e-05
-3.12169e-05
5.77998e-05
-3.02418e-05
5.95564e-05
-2.83756e-05
6.10622e-05
-2.54115e-05
6.21989e-05
-2.11789e-05
5.10403e-05
-1.53256e-05
9.78862e-06
-4.66911e-06
4.7984e-07
-3.94278e-07
9.9732e-08
-2.31287e-08
3.13554e-08
3.04126e-09
8.0642e-09
1.62606e-09
2.09316e-09
5.40713e-10
5.54918e-10
1.62855e-10
1.6071e-10
5.38057e-11
6.33754e-11
1.59504e-11
3.78619e-11
8.54733e-12
2.99767e-11
1.169e-11
3.51088e-11
3.87836e-11
1.80439e-10
3.08006e-06
-2.95467e-05
6.11073e-06
-3.35715e-05
8.79321e-06
-3.13317e-05
1.12199e-05
-2.91688e-05
1.34522e-05
-2.75048e-05
1.55341e-05
-2.62513e-05
1.75022e-05
-2.53256e-05
1.93881e-05
-2.46716e-05
2.12192e-05
-2.42509e-05
2.30187e-05
-2.40355e-05
2.48063e-05
-2.40052e-05
2.65984e-05
-2.41444e-05
2.84085e-05
-2.4441e-05
3.02475e-05
-2.48849e-05
3.21235e-05
-2.54667e-05
3.40419e-05
-2.61765e-05
3.60052e-05
-2.70015e-05
3.80128e-05
-2.79248e-05
4.00607e-05
-2.89222e-05
4.21416e-05
-2.99604e-05
4.42445e-05
-3.09929e-05
4.63545e-05
-3.19576e-05
4.84535e-05
-3.27724e-05
5.05194e-05
-3.33322e-05
5.25266e-05
-3.35059e-05
5.4445e-05
-3.31353e-05
5.62387e-05
-3.20355e-05
5.78587e-05
-2.99957e-05
5.92312e-05
-2.6784e-05
5.90591e-05
-2.10102e-05
2.52e-05
-1.24887e-05
9.00788e-07
-1.53039e-06
1.72404e-07
-1.54063e-07
3.56752e-08
9.94307e-10
7.74002e-09
3.36517e-09
1.71668e-09
1.30914e-09
4.11344e-10
3.6595e-10
1.13553e-10
9.03424e-11
3.30581e-11
2.39056e-11
1.33579e-11
7.4702e-12
9.68775e-12
3.19644e-12
1.04191e-11
4.22663e-12
2.0892e-11
1.53333e-11
8.04608e-11
3.00367e-06
-3.25504e-05
5.93016e-06
-3.6498e-05
8.54311e-06
-3.39447e-05
1.09285e-05
-3.15542e-05
1.31359e-05
-2.97122e-05
1.52011e-05
-2.83165e-05
1.71553e-05
-2.72798e-05
1.90266e-05
-2.65429e-05
2.084e-05
-2.60643e-05
2.26175e-05
-2.5813e-05
2.43779e-05
-2.57656e-05
2.6137e-05
-2.59035e-05
2.79078e-05
-2.62118e-05
2.97007e-05
-2.66777e-05
3.15229e-05
-2.7289e-05
3.33792e-05
-2.80328e-05
3.52712e-05
-2.88935e-05
3.71975e-05
-2.9851e-05
3.91533e-05
-3.08781e-05
4.11309e-05
-3.19379e-05
4.31191e-05
-3.29811e-05
4.51037e-05
-3.39422e-05
4.70679e-05
-3.47365e-05
4.89919e-05
-3.52562e-05
5.08532e-05
-3.53673e-05
5.26258e-05
-3.49079e-05
5.42778e-05
-3.36875e-05
5.5762e-05
-3.14798e-05
5.70102e-05
-2.80315e-05
4.48315e-05
-2.2078e-05
4.18438e-06
-7.03062e-06
3.313e-07
-5.71508e-07
5.59797e-08
-5.38859e-08
1.05623e-08
3.79024e-09
1.90925e-09
2.58437e-09
3.59713e-10
8.12521e-10
8.00285e-11
2.01879e-10
2.22226e-11
4.52702e-11
7.75403e-12
1.02717e-11
3.41683e-12
3.13409e-12
2.84598e-12
1.17569e-12
3.85443e-12
1.41473e-12
1.04147e-11
5.06988e-12
2.67253e-11
2.92193e-06
-3.54723e-05
5.7421e-06
-3.93182e-05
8.28158e-06
-3.64842e-05
1.06202e-05
-3.38929e-05
1.27979e-05
-3.18899e-05
1.48429e-05
-3.03616e-05
1.67815e-05
-2.92183e-05
1.86381e-05
-2.83995e-05
2.04352e-05
-2.78614e-05
2.21932e-05
-2.7571e-05
2.39295e-05
-2.75019e-05
2.56592e-05
-2.76332e-05
2.73945e-05
-2.79471e-05
2.9145e-05
-2.84281e-05
3.09174e-05
-2.90614e-05
3.27157e-05
-2.9831e-05
3.45407e-05
-3.07186e-05
3.63904e-05
-3.17007e-05
3.82597e-05
-3.27474e-05
4.01404e-05
-3.38187e-05
4.2022e-05
-3.48626e-05
4.3891e-05
-3.58113e-05
4.57322e-05
-3.65778e-05
4.75283e-05
-3.70522e-05
4.92599e-05
-3.70988e-05
5.09048e-05
-3.65529e-05
5.24354e-05
-3.5218e-05
5.38067e-05
-3.28511e-05
5.46151e-05
-2.88411e-05
2.4873e-05
-1.95781e-05
7.89099e-07
-2.62922e-06
1.41123e-07
-3.12101e-07
2.04594e-08
-1.54231e-08
3.11932e-09
3.86847e-09
4.32631e-10
1.67807e-09
6.12465e-11
4.50874e-10
1.2322e-11
1.01676e-10
4.28785e-12
2.11961e-11
1.96058e-12
4.50964e-12
9.94017e-13
1.30157e-12
8.81013e-13
4.78689e-13
1.32913e-12
4.6155e-13
3.91346e-12
1.43218e-12
7.49868e-12
2.83695e-06
-3.83093e-05
5.55046e-06
-4.20317e-05
8.01393e-06
-3.89476e-05
1.03015e-05
-3.61804e-05
1.24446e-05
-3.4033e-05
1.44656e-05
-3.23826e-05
1.63858e-05
-3.11385e-05
1.82263e-05
-3.024e-05
2.00072e-05
-2.96423e-05
2.17466e-05
-2.93104e-05
2.34607e-05
-2.92161e-05
2.51634e-05
-2.93359e-05
2.6866e-05
-2.96498e-05
2.85774e-05
-3.01395e-05
3.03034e-05
-3.07875e-05
3.20475e-05
-3.15751e-05
3.38099e-05
-3.2481e-05
3.55881e-05
-3.34789e-05
3.73768e-05
-3.45361e-05
3.91681e-05
-3.561e-05
4.09518e-05
-3.66463e-05
4.27159e-05
-3.75754e-05
4.44469e-05
-3.83087e-05
4.61299e-05
-3.87352e-05
4.77486e-05
-3.87175e-05
4.92848e-05
-3.80891e-05
5.07153e-05
-3.66485e-05
5.20048e-05
-3.41405e-05
4.95236e-05
-2.76848e-05
7.53894e-06
-1.35632e-05
3.84142e-07
-1.14457e-06
5.43657e-08
-1.46801e-07
6.9425e-09
-4.8582e-10
7.94833e-10
2.86221e-09
6.49402e-11
9.58213e-10
1.58037e-12
2.30147e-10
1.16565e-13
4.82639e-11
6.77136e-13
9.55288e-12
5.42628e-13
1.96554e-12
3.23935e-13
5.45723e-13
2.81535e-13
2.31817e-13
4.2013e-13
1.87788e-13
1.19865e-12
3.62115e-13
1.873e-12
2.75016e-06
-4.10594e-05
5.3577e-06
-4.46392e-05
7.74352e-06
-4.13335e-05
9.97631e-06
-3.84132e-05
1.20805e-05
-3.61372e-05
1.40733e-05
-3.43753e-05
1.59719e-05
-3.30372e-05
1.77943e-05
-3.20624e-05
1.95577e-05
-3.14057e-05
2.12784e-05
-3.10311e-05
2.2971e-05
-3.09087e-05
2.46481e-05
-3.1013e-05
2.632e-05
-3.13217e-05
2.79947e-05
-3.18141e-05
2.96774e-05
-3.24702e-05
3.13708e-05
-3.32685e-05
3.30749e-05
-3.4185e-05
3.47867e-05
-3.51908e-05
3.6501e-05
-3.62504e-05
3.82103e-05
-3.73193e-05
3.99054e-05
-3.83414e-05
4.15755e-05
-3.92455e-05
4.32091e-05
-3.99423e-05
4.47936e-05
-4.03197e-05
4.63157e-05
-4.02396e-05
4.77604e-05
-3.95338e-05
4.91064e-05
-3.79946e-05
5.03245e-05
-3.53584e-05
3.35529e-05
-2.88901e-05
1.11436e-06
-7.33271e-06
1.90156e-07
-6.49939e-07
2.1195e-08
-6.27672e-08
2.36455e-09
2.2869e-09
1.65323e-10
1.92209e-09
-8.92904e-12
5.30298e-10
-6.23138e-12
1.14496e-10
-1.27715e-12
2.23183e-11
-7.56531e-15
4.21891e-12
1.47968e-13
8.70959e-13
1.21084e-13
2.59836e-13
1.0583e-13
1.37346e-13
1.32938e-13
1.04684e-13
3.25798e-13
1.14741e-13
4.11923e-13
2.66247e-06
-4.37219e-05
5.16522e-06
-4.7142e-05
7.47239e-06
-4.36406e-05
9.64732e-06
-4.05881e-05
1.17086e-05
-3.81985e-05
1.36691e-05
-3.63358e-05
1.55426e-05
-3.49107e-05
1.73439e-05
-3.38637e-05
1.90879e-05
-3.31497e-05
2.07889e-05
-3.27321e-05
2.24598e-05
-3.25796e-05
2.41118e-05
-3.2665e-05
2.57542e-05
-3.29641e-05
2.73941e-05
-3.3454e-05
2.9036e-05
-3.41121e-05
3.0682e-05
-3.49145e-05
3.23316e-05
-3.58346e-05
3.3982e-05
-3.68411e-05
3.5628e-05
-3.78964e-05
3.72628e-05
-3.89541e-05
3.88781e-05
-3.99567e-05
4.04647e-05
-4.08321e-05
4.20128e-05
-4.14904e-05
4.35123e-05
-4.18192e-05
4.49523e-05
-4.16797e-05
4.63205e-05
-4.09019e-05
4.75966e-05
-3.92706e-05
4.85797e-05
-3.63416e-05
1.91666e-05
-2.55604e-05
5.63073e-07
-3.03922e-06
8.85124e-08
-4.0162e-07
8.16754e-09
-2.46636e-08
5.80361e-10
2.36433e-09
-2.10022e-11
1.10546e-09
-1.91033e-11
2.67814e-10
-4.96507e-12
5.36276e-11
-9.02233e-13
9.91645e-12
-6.81596e-14
1.8313e-12
5.24759e-14
4.0171e-13
5.8153e-14
1.48293e-13
5.2475e-14
9.85433e-14
5.40144e-14
7.46064e-14
8.55183e-14
5.45504e-14
9.26538e-14
2.5744e-06
-4.62963e-05
4.97377e-06
-4.95414e-05
7.20164e-06
-4.58685e-05
9.31613e-06
-4.27026e-05
1.13309e-05
-4.02133e-05
1.32552e-05
-3.82601e-05
1.50998e-05
-3.67553e-05
1.68769e-05
-3.56408e-05
1.8599e-05
-3.48719e-05
2.02785e-05
-3.44116e-05
2.19267e-05
-3.42277e-05
2.35534e-05
-3.42918e-05
2.51669e-05
-3.45776e-05
2.67732e-05
-3.50603e-05
2.83761e-05
-3.57151e-05
2.99774e-05
-3.65158e-05
3.15763e-05
-3.74335e-05
3.31698e-05
-3.84347e-05
3.47533e-05
-3.94799e-05
3.63205e-05
-4.05213e-05
3.78642e-05
-4.15004e-05
3.93767e-05
-4.23446e-05
4.08499e-05
-4.29635e-05
4.22754e-05
-4.32447e-05
4.36449e-05
-4.30492e-05
4.49483e-05
-4.22054e-05
4.61683e-05
-4.04906e-05
4.55535e-05
-3.5727e-05
6.90621e-06
-1.89423e-05
3.46245e-07
-1.48064e-06
3.96378e-08
-2.04478e-07
2.96776e-09
-7.63494e-09
9.76762e-11
1.84072e-09
-3.67123e-11
6.21565e-10
-1.24606e-11
1.33621e-10
-2.70333e-12
2.47374e-11
-4.51598e-13
4.33914e-12
-2.9995e-14
7.98745e-13
3.53288e-14
2.00076e-13
4.05904e-14
9.4178e-14
3.68819e-14
7.80071e-14
3.05144e-14
6.04154e-14
3.17206e-14
4.05787e-14
3.03076e-14
2.48621e-06
-4.87825e-05
4.78362e-06
-5.18388e-05
6.93177e-06
-4.80167e-05
8.98359e-06
-4.47545e-05
1.09485e-05
-4.21782e-05
1.28329e-05
-4.01444e-05
1.46449e-05
-3.85673e-05
1.63944e-05
-3.73902e-05
1.80918e-05
-3.65693e-05
1.97476e-05
-3.60674e-05
2.13716e-05
-3.58517e-05
2.29723e-05
-3.58924e-05
2.45566e-05
-3.61619e-05
2.613e-05
-3.66336e-05
2.76955e-05
-3.72806e-05
2.92542e-05
-3.80746e-05
3.08054e-05
-3.89846e-05
3.23462e-05
-3.99754e-05
3.38721e-05
-4.10059e-05
3.53779e-05
-4.20271e-05
3.68573e-05
-4.29798e-05
3.83037e-05
-4.3791e-05
3.97104e-05
-4.43703e-05
4.10704e-05
-4.46047e-05
4.23764e-05
-4.43552e-05
4.362e-05
-4.3449e-05
4.4795e-05
-4.16654e-05
3.38107e-05
-3.68739e-05
1.15408e-06
-1.18194e-05
1.86012e-07
-8.49434e-07
1.77974e-08
-9.72268e-08
1.0099e-09
-9.8721e-10
-3.40471e-11
1.27021e-09
-2.85705e-11
3.40757e-10
-7.03169e-12
6.56507e-11
-1.3295e-12
1.12581e-11
-1.94884e-13
1.88545e-12
7.64192e-16
3.57839e-13
2.7816e-14
1.10687e-13
3.24994e-14
6.91347e-14
2.93562e-14
5.81883e-14
2.24151e-14
4.47445e-14
1.73517e-14
3.01376e-14
1.87695e-14
2.39801e-06
-5.11805e-05
4.59478e-06
-5.40355e-05
6.66287e-06
-5.00847e-05
8.65009e-06
-4.67417e-05
1.05623e-05
-4.40904e-05
1.24032e-05
-4.19854e-05
1.4179e-05
-4.03431e-05
1.58974e-05
-3.91086e-05
1.75671e-05
-3.8239e-05
1.91967e-05
-3.76971e-05
2.07945e-05
-3.74495e-05
2.23678e-05
-3.74657e-05
2.39225e-05
-3.77167e-05
2.54631e-05
-3.81741e-05
2.6992e-05
-3.88095e-05
2.851e-05
-3.95926e-05
3.0016e-05
-4.04906e-05
3.15073e-05
-4.14668e-05
3.29802e-05
-4.24787e-05
3.44297e-05
-4.34766e-05
3.58506e-05
-4.44007e-05
3.72375e-05
-4.51779e-05
3.85844e-05
-4.57172e-05
3.98849e-05
-4.59053e-05
4.11315e-05
-4.56018e-05
4.23143e-05
-4.46318e-05
4.34133e-05
-4.27645e-05
2.31534e-05
-3.44335e-05
5.37754e-07
-6.17041e-06
9.33495e-08
-6.09265e-07
7.18591e-09
-4.3703e-08
1.93869e-10
7.32873e-10
-6.33662e-11
7.47094e-10
-1.91081e-11
1.70753e-10
-3.77435e-12
3.03054e-11
-6.22768e-13
4.91436e-12
-7.44333e-14
8.09018e-13
1.35349e-14
1.71623e-13
2.61578e-14
7.01586e-14
2.46286e-14
5.23628e-14
2.03006e-14
3.97497e-14
1.50199e-14
2.84231e-14
1.04795e-14
1.83747e-14
1.14602e-14
2.30978e-06
-5.34903e-05
4.40703e-06
-5.61328e-05
6.39474e-06
-5.20725e-05
8.31562e-06
-4.86625e-05
1.01723e-05
-4.59471e-05
1.19666e-05
-4.37796e-05
1.37027e-05
-4.20792e-05
1.53867e-05
-4.07926e-05
1.70255e-05
-3.98778e-05
1.86262e-05
-3.92978e-05
2.01957e-05
-3.9019e-05
2.174e-05
-3.901e-05
2.32641e-05
-3.92408e-05
2.47715e-05
-3.96816e-05
2.62643e-05
-4.03022e-05
2.77426e-05
-4.10709e-05
2.92054e-05
-4.19534e-05
3.06502e-05
-4.29116e-05
3.20734e-05
-4.39019e-05
3.34709e-05
-4.48741e-05
3.48381e-05
-4.5768e-05
3.61703e-05
-4.65101e-05
3.74623e-05
-4.70091e-05
3.87077e-05
-4.71507e-05
3.98982e-05
-4.67923e-05
4.10202e-05
-4.57538e-05
4.18734e-05
-4.36177e-05
1.28856e-05
-2.97532e-05
4.06638e-07
-2.66094e-06
4.39488e-08
-3.55788e-07
2.57118e-09
-1.84148e-08
-2.77721e-11
8.85756e-10
-4.38679e-11
4.09405e-10
-1.01863e-11
8.21762e-11
-1.79545e-12
1.35138e-11
-2.63672e-13
2.08966e-12
-1.71289e-14
3.49973e-13
1.76538e-14
9.07986e-14
2.11145e-14
5.24366e-14
1.75215e-14
3.82583e-14
1.26491e-14
2.56435e-14
8.60898e-15
1.61115e-14
5.58662e-15
9.46816e-15
5.46049e-15
2.22141e-06
-5.57117e-05
4.22002e-06
-5.81314e-05
6.12701e-06
-5.39794e-05
7.97996e-06
-5.05155e-05
9.77876e-06
-4.77459e-05
1.15234e-05
-4.55243e-05
1.32167e-05
-4.37724e-05
1.4863e-05
-4.24389e-05
1.64677e-05
-4.14825e-05
1.80367e-05
-4.08667e-05
1.95755e-05
-4.05578e-05
2.1089e-05
-4.05235e-05
2.25812e-05
-4.0733e-05
2.40549e-05
-4.11553e-05
2.55114e-05
-4.17588e-05
2.69508e-05
-4.25104e-05
2.83718e-05
-4.33744e-05
2.9772e-05
-4.43118e-05
3.11483e-05
-4.52782e-05
3.24969e-05
-4.62227e-05
3.3814e-05
-4.70851e-05
3.50951e-05
-4.77912e-05
3.63353e-05
-4.82492e-05
3.75284e-05
-4.83438e-05
3.86657e-05
-4.79296e-05
3.97313e-05
-4.68194e-05
3.92121e-05
-4.30986e-05
4.46627e-06
-2.2217e-05
2.52811e-07
-1.43617e-06
2.00594e-08
-1.80485e-07
8.5159e-10
-6.98682e-09
-5.35025e-11
7.23445e-10
-2.41013e-11
2.26671e-10
-4.86041e-12
4.0152e-11
-7.85581e-13
6.06765e-12
-1.01373e-13
8.97121e-13
2.61686e-15
1.63009e-13
1.83466e-14
5.74174e-14
1.65417e-14
4.02404e-14
1.16038e-14
2.68481e-14
7.21806e-15
1.56744e-14
4.30628e-15
8.40107e-15
2.5463e-15
4.33878e-15
1.6732e-15
2.26075e-15
1.31707e-15
2.13272e-06
-5.78444e-05
4.03331e-06
-6.0032e-05
5.85914e-06
-5.58053e-05
7.64269e-06
-5.2299e-05
9.38136e-06
-4.94846e-05
1.10737e-05
-4.72167e-05
1.27211e-05
-4.54198e-05
1.43266e-05
-4.40444e-05
1.58943e-05
-4.30503e-05
1.74288e-05
-4.24012e-05
1.89345e-05
-4.20634e-05
2.04151e-05
-4.20042e-05
2.18739e-05
-4.21918e-05
2.33129e-05
-4.25942e-05
2.47328e-05
-4.31787e-05
2.61336e-05
-4.39111e-05
2.75136e-05
-4.47545e-05
2.88706e-05
-4.56688e-05
3.02019e-05
-4.66094e-05
3.15041e-05
-4.75249e-05
3.27734e-05
-4.83544e-05
3.40058e-05
-4.90235e-05
3.51958e-05
-4.94393e-05
3.63371e-05
-4.94851e-05
3.74211e-05
-4.90137e-05
3.84364e-05
-4.78346e-05
2.98574e-05
-4.37228e-05
8.74171e-07
-1.45453e-05
1.29741e-07
-8.92429e-07
9.08956e-09
-8.88122e-08
2.46261e-10
-2.13401e-09
-4.81249e-11
5.13748e-10
-1.35117e-11
1.23534e-10
-2.35052e-12
1.94919e-11
-3.35261e-13
2.71705e-12
-2.95908e-14
3.91538e-13
1.11959e-14
8.41185e-14
1.52925e-14
4.32589e-14
1.18773e-14
2.99503e-14
7.18919e-15
1.78837e-14
3.82601e-15
9.065e-15
1.96473e-15
4.15759e-15
1.03126e-15
1.86479e-15
5.88483e-16
8.5223e-16
4.2494e-16
2.04347e-06
-5.98879e-05
3.84639e-06
-6.18349e-05
5.59054e-06
-5.75494e-05
7.30326e-06
-5.40118e-05
8.97975e-06
-5.1161e-05
1.06173e-05
-4.88542e-05
1.2216e-05
-4.70185e-05
1.37778e-05
-4.56063e-05
1.53057e-05
-4.45782e-05
1.6803e-05
-4.38986e-05
1.82731e-05
-4.35335e-05
1.97189e-05
-4.34499e-05
2.11425e-05
-4.36155e-05
2.25456e-05
-4.39972e-05
2.39283e-05
-4.45615e-05
2.52901e-05
-4.52729e-05
2.66296e-05
-4.60939e-05
2.79444e-05
-4.69837e-05
2.9232e-05
-4.7897e-05
3.04893e-05
-4.87822e-05
3.17126e-05
-4.95778e-05
3.28976e-05
-5.02085e-05
3.40382e-05
-5.05799e-05
3.51267e-05
-5.05736e-05
3.61535e-05
-5.00404e-05
3.71072e-05
-4.87884e-05
2.16206e-05
-4.14412e-05
4.30495e-07
-8.27332e-06
6.76939e-08
-6.57395e-07
4.03622e-09
-4.11167e-08
4.90941e-12
-3.1076e-10
-3.8265e-11
3.09041e-10
-7.75531e-12
6.12736e-11
-1.15738e-12
8.82491e-12
-1.42781e-13
1.16485e-12
-3.50795e-15
1.74431e-13
1.31876e-14
4.8999e-14
1.20832e-14
3.28027e-14
7.96818e-15
2.12469e-14
4.17006e-15
1.12611e-14
1.90529e-15
4.96936e-15
8.45927e-16
1.98156e-15
3.89231e-16
7.74833e-16
1.93373e-16
3.09831e-16
1.34055e-16
1.95343e-06
-6.18413e-05
3.65875e-06
-6.35402e-05
5.32054e-06
-5.92112e-05
6.96104e-06
-5.56523e-05
8.57341e-06
-5.27734e-05
1.01538e-05
-5.04346e-05
1.17013e-05
-4.8566e-05
1.32168e-05
-4.71218e-05
1.47022e-05
-4.60636e-05
1.61598e-05
-4.53562e-05
1.75919e-05
-4.49656e-05
1.90006e-05
-4.48587e-05
2.03875e-05
-4.50023e-05
2.17532e-05
-4.53629e-05
2.30978e-05
-4.5906e-05
2.44202e-05
-4.65954e-05
2.57191e-05
-4.73927e-05
2.69921e-05
-4.82567e-05
2.82368e-05
-4.91417e-05
2.94502e-05
-4.99956e-05
3.06286e-05
-5.07563e-05
3.17673e-05
-5.13472e-05
3.28594e-05
-5.1672e-05
3.38951e-05
-5.16094e-05
3.48621e-05
-5.10074e-05
3.57171e-05
-4.96434e-05
1.38404e-05
-3.71202e-05
3.65615e-07
-4.00405e-06
3.33986e-08
-3.98146e-07
1.48412e-09
-1.79816e-08
-5.73841e-11
1.6457e-10
-2.36061e-11
1.61071e-10
-3.94805e-12
2.76142e-11
-5.25072e-13
3.69713e-12
-5.31166e-14
4.76793e-13
4.20828e-15
8.31012e-14
1.09977e-14
3.56396e-14
8.64871e-15
2.43414e-14
4.93083e-15
1.41917e-14
2.25049e-15
6.63231e-15
8.97686e-16
2.57822e-15
3.49581e-16
9.10778e-16
1.41105e-16
3.14621e-16
6.10827e-17
1.10829e-16
4.16562e-17
1.86237e-06
-6.37037e-05
3.46981e-06
-6.51477e-05
5.04841e-06
-6.07898e-05
6.61526e-06
-5.72191e-05
8.16171e-06
-5.43199e-05
9.68284e-06
-5.19557e-05
1.11768e-05
-5.006e-05
1.26436e-05
-4.85885e-05
1.4084e-05
-4.7504e-05
1.54994e-05
-4.67716e-05
1.68913e-05
-4.63575e-05
1.82609e-05
-4.62283e-05
1.96091e-05
-4.63505e-05
2.0936e-05
-4.66899e-05
2.22413e-05
-4.72113e-05
2.35237e-05
-4.78778e-05
2.47816e-05
-4.86506e-05
2.60129e-05
-4.9488e-05
2.7215e-05
-5.03438e-05
2.83851e-05
-5.11657e-05
2.95194e-05
-5.18906e-05
3.06127e-05
-5.24405e-05
3.16574e-05
-5.27167e-05
3.26423e-05
-5.25942e-05
3.3551e-05
-5.19162e-05
3.40794e-05
-5.01718e-05
6.6549e-06
-3.05085e-05
2.3989e-07
-1.78368e-06
1.47031e-08
-2.12403e-07
4.40737e-10
-7.66081e-09
-4.32927e-11
2.08398e-10
-1.14091e-11
8.25019e-11
-1.71634e-12
1.23732e-11
-2.07605e-13
1.52882e-12
-1.2551e-14
1.96072e-13
9.0253e-15
4.26076e-14
8.83278e-15
2.73311e-14
5.81392e-15
1.77471e-14
2.85778e-15
9.13842e-15
1.13118e-15
3.70779e-15
4.00748e-16
1.27427e-15
1.39313e-16
4.03836e-16
4.98032e-17
1.25018e-16
1.88813e-17
3.91746e-17
1.29027e-17
1.77003e-06
-6.54737e-05
3.27896e-06
-6.66566e-05
4.77329e-06
-6.22842e-05
6.26504e-06
-5.87109e-05
7.74383e-06
-5.57986e-05
9.20378e-06
-5.34156e-05
1.06421e-05
-5.14984e-05
1.20579e-05
-5.00043e-05
1.3451e-05
-4.88971e-05
1.4822e-05
-4.81425e-05
1.61715e-05
-4.77069e-05
1.75e-05
-4.75568e-05
1.88077e-05
-4.76582e-05
2.00943e-05
-4.79765e-05
2.1359e-05
-4.8476e-05
2.26004e-05
-4.91193e-05
2.38168e-05
-4.9867e-05
2.50061e-05
-5.06772e-05
2.61657e-05
-5.15035e-05
2.72928e-05
-5.22927e-05
2.83833e-05
-5.2981e-05
2.94316e-05
-5.34888e-05
3.043e-05
-5.3715e-05
3.13666e-05
-5.35308e-05
3.22234e-05
-5.2773e-05
3.11238e-05
-4.90722e-05
1.93128e-06
-2.19118e-05
1.32039e-07
-1.06223e-06
6.4053e-09
-1.03813e-07
1.20031e-10
-3.1204e-09
-2.52786e-11
1.72785e-10
-5.25591e-12
4.41586e-11
-7.16421e-13
5.77348e-12
-7.81694e-14
6.52652e-13
-2.47228e-15
8.81688e-14
7.67193e-15
2.82605e-14
6.53813e-15
1.97367e-14
3.69052e-15
1.20288e-14
1.56482e-15
5.53269e-15
5.39521e-16
1.97765e-15
1.71095e-16
6.06667e-16
5.36763e-17
1.73722e-16
1.71853e-17
4.86549e-17
5.75444e-18
1.36938e-17
3.99067e-18
1.67612e-06
-6.71498e-05
3.08542e-06
-6.80659e-05
4.49418e-06
-6.36929e-05
5.90932e-06
-6.0126e-05
7.31882e-06
-5.72081e-05
8.71583e-06
-5.48126e-05
1.00967e-05
-5.28792e-05
1.14595e-05
-5.13671e-05
1.28033e-05
-5.0241e-05
1.41278e-05
-4.9467e-05
1.54329e-05
-4.9012e-05
1.67182e-05
-4.88422e-05
1.79836e-05
-4.89236e-05
1.92283e-05
-4.92211e-05
2.0451e-05
-4.96987e-05
2.16504e-05
-5.03186e-05
2.28245e-05
-5.10412e-05
2.39713e-05
-5.1824e-05
2.50882e-05
-5.26205e-05
2.61722e-05
-5.33767e-05
2.72188e-05
-5.40277e-05
2.8222e-05
-5.4492e-05
2.91734e-05
-5.46665e-05
3.00618e-05
-5.44192e-05
3.08715e-05
-5.35827e-05
2.26553e-05
-4.93455e-05
4.41567e-07
-1.42259e-05
6.52279e-08
-7.71302e-07
2.94457e-09
-5.00275e-08
1.7914e-11
-1.11727e-09
-1.59787e-11
1.21381e-10
-2.64684e-12
2.30758e-11
-3.1158e-13
2.6509e-12
-2.5228e-14
2.79e-13
4.63029e-15
4.40741e-14
6.04586e-15
2.2449e-14
4.22359e-15
1.46883e-14
2.11482e-15
7.74564e-15
7.91606e-16
3.11342e-15
2.4481e-16
9.96771e-16
7.04608e-17
2.78157e-16
2.0089e-17
7.27531e-17
5.8081e-18
1.85736e-17
1.734e-18
4.73413e-18
1.23297e-18
1.58026e-06
-6.87301e-05
2.88825e-06
-6.93739e-05
4.20985e-06
-6.50145e-05
5.54683e-06
-6.1463e-05
6.88551e-06
-5.85468e-05
8.21803e-06
-5.61452e-05
9.53978e-06
-5.4201e-05
1.08479e-05
-5.26753e-05
1.21407e-05
-5.15337e-05
1.34168e-05
-5.07432e-05