/*--------------------------------*- C++ -*----------------------------------*\
  =========                 |
  \\      /  F ield         | OpenFOAM: The Open Source CFD Toolbox
   \\    /   O peration     | Website:  https://openfoam.org
    \\  /    A nd           | Version:  7
     \\/     M anipulation  |
\*---------------------------------------------------------------------------*/
FoamFile
{
    version     2.0;
    format      ascii;
    class       surfaceScalarField;
    location    "0.15";
    object      phi;
}
// * * * * * * * * * * * * * * * * * * * * * * * * * * * * * * * * * * * * * //

dimensions      [0 3 -1 0 0 0 0];

internalField   nonuniform List<scalar> 
3781
(
-2.01278e-07
2.01278e-07
1.69718e-06
-1.89845e-06
4.65542e-06
-2.95825e-06
7.9156e-06
-3.26018e-06
1.11961e-05
-3.28052e-06
1.4412e-05
-3.21588e-06
1.75427e-05
-3.13072e-06
2.05903e-05
-3.04761e-06
2.35659e-05
-2.9756e-06
2.64843e-05
-2.91834e-06
2.93616e-05
-2.8773e-06
3.22147e-05
-2.85319e-06
3.50613e-05
-2.84658e-06
3.79194e-05
-2.85812e-06
4.08081e-05
-2.88866e-06
4.37473e-05
-2.93921e-06
4.67582e-05
-3.01087e-06
4.98629e-05
-3.10467e-06
5.30841e-05
-3.22129e-06
5.64447e-05
-3.36053e-06
5.99653e-05
-3.52067e-06
6.36629e-05
-3.69758e-06
6.75466e-05
-3.88369e-06
7.16134e-05
-4.0668e-06
7.58425e-05
-4.22907e-06
8.01888e-05
-4.34631e-06
8.4577e-05
-4.38824e-06
8.88973e-05
-4.32031e-06
9.30029e-05
-4.10553e-06
9.671e-05
-3.70708e-06
9.98199e-05
-3.10992e-06
0.000102115
-2.29511e-06
0.000103197
-1.08168e-06
0.000102531
6.65155e-07
0.000100196
2.33578e-06
9.67675e-05
3.42819e-06
9.29753e-05
3.79225e-06
8.94898e-05
3.48544e-06
8.67674e-05
2.72243e-06
8.49524e-05
1.815e-06
8.39423e-05
1.01013e-06
8.38741e-05
6.82162e-08
8.46007e-05
-7.266e-07
2.07579e-06
1.5579e-06
-1.35662e-06
4.12462e-06
-4.46517e-06
6.97491e-06
-5.80854e-06
9.90677e-06
-6.19203e-06
1.28307e-05
-6.20448e-06
1.57088e-05
-6.09395e-06
1.85301e-05
-5.95202e-06
2.12973e-05
-5.81479e-06
2.40195e-05
-5.69779e-06
2.6709e-05
-5.60791e-06
2.93801e-05
-5.54833e-06
3.20477e-05
-5.52081e-06
3.47278e-05
-5.52666e-06
3.74369e-05
-5.56727e-06
4.01925e-05
-5.64422e-06
4.30126e-05
-5.75929e-06
4.5916e-05
-5.91427e-06
4.89218e-05
-6.11051e-06
5.20489e-05
-6.34835e-06
5.53145e-05
-6.62613e-06
5.87327e-05
-6.93893e-06
6.23121e-05
-7.27696e-06
6.60521e-05
-7.62372e-06
6.99394e-05
-7.95408e-06
7.39429e-05
-8.23258e-06
7.80091e-05
-8.4125e-06
8.20572e-05
-8.43638e-06
8.5976e-05
-8.2391e-06
8.96242e-05
-7.75369e-06
9.28396e-05
-6.92252e-06
9.5451e-05
-5.72127e-06
9.73261e-05
-4.1702e-06
9.8551e-05
-2.30655e-06
9.93513e-05
-1.35149e-07
9.96138e-05
2.0733e-06
9.90221e-05
4.01988e-06
9.75642e-05
5.25016e-06
9.55475e-05
5.50211e-06
9.35053e-05
4.7646e-06
9.19916e-05
3.32869e-06
9.12545e-05
1.74725e-06
9.06605e-05
6.622e-07
8.95713e-05
3.62648e-07
5.09988e-06
2.58131e-06
-3.93793e-06
5.55151e-06
-7.43538e-06
8.38425e-06
-8.64127e-06
1.11245e-05
-8.93227e-06
1.38021e-05
-8.88211e-06
1.64263e-05
-8.71816e-06
1.9004e-05
-8.52974e-06
2.15438e-05
-8.35459e-06
2.40561e-05
-8.21006e-06
2.65528e-05
-8.10459e-06
2.90469e-05
-8.04248e-06
3.15524e-05
-8.0263e-06
3.40838e-05
-8.05801e-06
3.66561e-05
-8.13956e-06
3.92849e-05
-8.27304e-06
4.19862e-05
-8.4606e-06
4.47761e-05
-8.70415e-06
4.76702e-05
-9.00465e-06
5.06831e-05
-9.36125e-06
5.38268e-05
-9.76985e-06
5.71093e-05
-1.02214e-05
6.05318e-05
-1.06995e-05
6.40866e-05
-1.11785e-05
6.77528e-05
-1.16203e-05
7.14932e-05
-1.1973e-05
7.52499e-05
-1.21692e-05
7.8941e-05
-1.21274e-05
8.24582e-05
-1.17564e-05
8.56688e-05
-1.09643e-05
8.84232e-05
-9.6769e-06
9.05683e-05
-7.86634e-06
9.19818e-05
-5.58375e-06
9.26512e-05
-2.97596e-06
9.27543e-05
-2.38257e-07
9.24594e-05
2.36819e-06
9.19523e-05
4.52697e-06
9.13465e-05
5.85596e-06
9.07768e-05
6.07186e-06
9.04165e-05
5.12488e-06
9.03933e-05
3.35187e-06
9.07245e-05
1.41609e-06
9.0567e-05
8.19691e-07
8.38558e-05
7.07382e-06
1.63997e-05
3.04877e-06
-6.98671e-06
6.31717e-06
-1.07038e-05
9.21497e-06
-1.15391e-05
1.18753e-05
-1.15926e-05
1.44044e-05
-1.14112e-05
1.68536e-05
-1.11673e-05
1.92503e-05
-1.09265e-05
2.16129e-05
-1.07171e-05
2.3956e-05
-1.05531e-05
2.62932e-05
-1.04418e-05
2.8638e-05
-1.03873e-05
3.10039e-05
-1.03922e-05
3.34046e-05
-1.04587e-05
3.58538e-05
-1.05888e-05
3.83657e-05
-1.07849e-05
4.09541e-05
-1.1049e-05
4.36326e-05
-1.13826e-05
4.64137e-05
-1.17857e-05
4.93081e-05
-1.22556e-05
5.23234e-05
-1.27851e-05
5.54624e-05
-1.33604e-05
5.87214e-05
-1.39585e-05
6.20872e-05
-1.45442e-05
6.55343e-05
-1.50675e-05
6.90223e-05
-1.5461e-05
7.24921e-05
-1.5639e-05
7.58636e-05
-1.54989e-05
7.90341e-05
-1.49269e-05
8.18805e-05
-1.38107e-05
8.42671e-05
-1.20635e-05
8.6064e-05
-9.66328e-06
8.71873e-05
-6.70708e-06
8.76545e-05
-3.44315e-06
8.7632e-05
-2.15683e-07
8.7378e-05
2.62216e-06
8.71826e-05
4.72232e-06
8.72362e-05
5.80238e-06
8.75818e-05
5.72625e-06
8.81744e-05
4.53235e-06
8.89398e-05
2.58644e-06
8.91645e-05
1.19138e-06
8.64861e-05
3.49808e-06
7.50501e-05
1.85098e-05
3.87155e-05
3.24905e-06
-1.02358e-05
6.67357e-06
-1.41283e-05
9.62854e-06
-1.4494e-05
1.22611e-05
-1.42252e-05
1.47069e-05
-1.38569e-05
1.70417e-05
-1.35022e-05
1.93091e-05
-1.31939e-05
2.15368e-05
-1.29449e-05
2.37452e-05
-1.27615e-05
2.59508e-05
-1.26474e-05
2.81685e-05
-1.2605e-05
3.04122e-05
-1.26359e-05
3.26953e-05
-1.27418e-05
3.50309e-05
-1.29244e-05
3.74317e-05
-1.31857e-05
3.99097e-05
-1.35271e-05
4.24763e-05
-1.39492e-05
4.51411e-05
-1.44506e-05
4.79116e-05
-1.50261e-05
5.07917e-05
-1.56652e-05
5.37804e-05
-1.63491e-05
5.68699e-05
-1.70479e-05
6.00434e-05
-1.77178e-05
6.32733e-05
-1.82974e-05
6.6518e-05
-1.87057e-05
6.972e-05
-1.88409e-05
7.28035e-05
-1.85823e-05
7.5674e-05
-1.77974e-05
7.82206e-05
-1.63573e-05
8.03237e-05
-1.41666e-05
8.18775e-05
-1.12171e-05
8.28346e-05
-7.66415e-06
8.32599e-05
-3.86847e-06
8.33692e-05
-3.24901e-07
8.34493e-05
2.54201e-06
8.37699e-05
4.40172e-06
8.44561e-05
5.11617e-06
8.55434e-05
4.63897e-06
8.66719e-05
3.40383e-06
8.68262e-05
2.4321e-06
8.46695e-05
3.34816e-06
7.65895e-05
1.15781e-05
6.12859e-05
3.38133e-05
6.01601e-05
3.32283e-06
-1.35586e-05
6.7899e-06
-1.75954e-05
9.76223e-06
-1.74664e-05
1.23782e-05
-1.68412e-05
1.47743e-05
-1.6253e-05
1.70345e-05
-1.57624e-05
1.92107e-05
-1.53701e-05
2.13376e-05
-1.50717e-05
2.34402e-05
-1.48641e-05
2.55384e-05
-1.47456e-05
2.76487e-05
-1.47153e-05
2.97859e-05
-1.47731e-05
3.19635e-05
-1.49194e-05
3.41942e-05
-1.51551e-05
3.64894e-05
-1.54809e-05
3.886e-05
-1.58976e-05
4.1315e-05
-1.64042e-05
4.38618e-05
-1.69974e-05
4.65051e-05
-1.76694e-05
4.92457e-05
-1.84058e-05
5.20795e-05
-1.91829e-05
5.49959e-05
-1.99644e-05
5.79762e-05
-2.06981e-05
6.09918e-05
-2.13129e-05
6.4002e-05
-2.1716e-05
6.69529e-05
-2.17918e-05
6.97754e-05
-2.14048e-05
7.23851e-05
-2.04071e-05
7.46843e-05
-1.86566e-05
7.65699e-05
-1.60521e-05
7.79573e-05
-1.26045e-05
7.88323e-05
-8.53921e-06
7.93154e-05
-4.35152e-06
7.96662e-05
-6.75674e-07
8.01574e-05
2.05073e-06
8.10314e-05
3.52771e-06
8.23823e-05
3.7653e-06
8.37892e-05
3.23207e-06
8.40303e-05
3.16274e-06
8.1704e-05
4.7584e-06
7.36995e-05
1.13527e-05
5.86435e-05
2.6634e-05
4.22722e-05
5.01847e-05
7.68539e-05
3.32693e-06
-1.68855e-05
6.76209e-06
-2.10305e-05
9.71336e-06
-2.04176e-05
1.23071e-05
-1.9435e-05
1.46677e-05
-1.86136e-05
1.68765e-05
-1.79712e-05
1.89876e-05
-1.74812e-05
2.1039e-05
-1.71231e-05
2.30591e-05
-1.68841e-05
2.507e-05
-1.67565e-05
2.70901e-05
-1.67354e-05
2.9135e-05
-1.68181e-05
3.12185e-05
-1.7003e-05
3.33529e-05
-1.72894e-05
3.55489e-05
-1.76769e-05
3.78158e-05
-1.81645e-05
4.01613e-05
-1.87497e-05
4.25905e-05
-1.94266e-05
4.51056e-05
-2.01846e-05
4.77052e-05
-2.10054e-05
5.03827e-05
-2.18604e-05
5.31257e-05
-2.27073e-05
5.59143e-05
-2.34868e-05
5.87205e-05
-2.41191e-05
6.15059e-05
-2.45014e-05
6.42213e-05
-2.45072e-05
6.68054e-05
-2.3989e-05
6.91849e-05
-2.27866e-05
7.12748e-05
-2.07465e-05
7.29854e-05
-1.77628e-05
7.42473e-05
-1.38663e-05
7.50805e-05
-9.37242e-06
7.56691e-05
-4.94014e-06
7.62612e-05
-1.2677e-06
7.71436e-05
1.16831e-06
7.85358e-05
2.13544e-06
7.97926e-05
2.50853e-06
7.96105e-05
3.41416e-06
7.63955e-05
6.37779e-06
6.7733e-05
1.34208e-05
5.402e-05
2.50658e-05
3.87417e-05
4.19123e-05
2.52249e-05
6.37015e-05
9.08273e-05
3.2887e-06
-2.01742e-05
6.64607e-06
-2.43879e-05
9.54759e-06
-2.33192e-05
1.21089e-05
-2.19963e-05
1.44378e-05
-2.09425e-05
1.66076e-05
-2.01409e-05
1.86701e-05
-1.95438e-05
2.06641e-05
-1.91171e-05
2.26192e-05
-1.88393e-05
2.45593e-05
-1.86965e-05
2.65037e-05
-1.86799e-05
2.84689e-05
-1.87833e-05
3.04688e-05
-1.90029e-05
3.25153e-05
-1.9336e-05
3.46187e-05
-1.97802e-05
3.6787e-05
-2.03329e-05
3.90263e-05
-2.0989e-05
4.13401e-05
-2.17404e-05
4.37287e-05
-2.25731e-05
4.61884e-05
-2.34651e-05
4.87112e-05
-2.43831e-05
5.12833e-05
-2.52794e-05
5.38848e-05
-2.60884e-05
5.64887e-05
-2.6723e-05
5.90599e-05
-2.70725e-05
6.15545e-05
-2.70018e-05
6.39193e-05
-2.63537e-05
6.60907e-05
-2.4958e-05
6.79943e-05
-2.26501e-05
6.9547e-05
-1.93154e-05
7.06912e-05
-1.50106e-05
7.14936e-05
-1.01748e-05
7.21651e-05
-5.61163e-06
7.29064e-05
-2.00899e-06
7.39763e-05
9.84225e-08
7.43732e-05
1.73848e-06
7.29748e-05
3.90696e-06
6.82929e-05
8.09611e-06
5.98467e-05
1.4824e-05
4.87155e-05
2.45521e-05
3.64726e-05
3.73086e-05
2.44299e-05
5.39551e-05
1.31759e-05
7.49555e-05
0.000102798
3.22378e-06
-2.3398e-05
6.47654e-06
-2.76407e-05
9.30912e-06
-2.61517e-05
1.18281e-05
-2.45153e-05
1.41241e-05
-2.32385e-05
1.62604e-05
-2.22773e-05
1.82844e-05
-2.15677e-05
2.02331e-05
-2.10658e-05
2.21363e-05
-2.07425e-05
2.40183e-05
-2.05786e-05
2.58991e-05
-2.05606e-05
2.77954e-05
-2.06795e-05
2.97211e-05
-2.09286e-05
3.1688e-05
-2.13028e-05
3.37054e-05
-2.17977e-05
3.57807e-05
-2.24081e-05
3.79185e-05
-2.31268e-05
4.01208e-05
-2.39427e-05
4.23862e-05
-2.48386e-05
4.47098e-05
-2.57887e-05
4.7082e-05
-2.67554e-05
4.94887e-05
-2.76861e-05
5.19103e-05
-2.851e-05
5.43215e-05
-2.91341e-05
5.66905e-05
-2.94415e-05
5.89788e-05
-2.92901e-05
6.11402e-05
-2.85152e-05
6.31194e-05
-2.69372e-05
6.48472e-05
-2.4378e-05
6.62417e-05
-2.07099e-05
6.72694e-05
-1.60382e-05
6.80453e-05
-1.09507e-05
6.86858e-05
-6.25221e-06
6.91358e-05
-2.45895e-06
6.88294e-05
4.04845e-07
6.66159e-05
3.95193e-06
6.16037e-05
8.91911e-06
5.41624e-05
1.55375e-05
4.51822e-05
2.38042e-05
3.55353e-05
3.4199e-05
2.57341e-05
4.71099e-05
1.63562e-05
6.3333e-05
7.47644e-06
8.38352e-05
0.000111555
3.14201e-06
-2.654e-05
6.27564e-06
-3.07743e-05
9.02748e-06
-2.89036e-05
1.1496e-05
-2.69838e-05
1.3756e-05
-2.54985e-05
1.58605e-05
-2.43818e-05
1.78513e-05
-2.35585e-05
1.97627e-05
-2.29772e-05
2.16233e-05
-2.26031e-05
2.3457e-05
-2.24122e-05
2.52837e-05
-2.23874e-05
2.71201e-05
-2.2516e-05
2.89801e-05
-2.27885e-05
3.08748e-05
-2.31976e-05
3.28131e-05
-2.3736e-05
3.48013e-05
-2.43963e-05
3.68431e-05
-2.51685e-05
3.8939e-05
-2.60386e-05
4.10866e-05
-2.69862e-05
4.32796e-05
-2.79817e-05
4.55078e-05
-2.89836e-05
4.7757e-05
-2.99353e-05
5.00084e-05
-3.07613e-05
5.22385e-05
-3.13642e-05
5.4419e-05
-3.1622e-05
5.65162e-05
-3.13873e-05
5.84897e-05
-3.04887e-05
6.029e-05
-2.87374e-05
6.18483e-05
-2.59363e-05
6.3089e-05
-2.19506e-05
6.402e-05
-1.69693e-05
6.47656e-05
-1.16963e-05
6.51248e-05
-6.61131e-06
6.49211e-05
-2.25529e-06
6.28407e-05
2.48529e-06
5.82716e-05
8.52099e-06
5.16661e-05
1.55246e-05
4.40236e-05
2.31801e-05
3.59821e-05
3.18457e-05
2.8047e-05
4.21342e-05
2.05357e-05
5.46212e-05
1.3765e-05
7.01037e-05
7.88317e-06
8.97171e-05
0.000116106
3.10229e-06
-2.96423e-05
6.16423e-06
-3.38362e-05
8.87569e-06
-3.1615e-05
1.13302e-05
-2.94383e-05
1.35899e-05
-2.77582e-05
1.56989e-05
-2.64908e-05
1.76937e-05
-2.55533e-05
1.96058e-05
-2.48893e-05
2.14624e-05
-2.44597e-05
2.32866e-05
-2.42365e-05
2.50983e-05
-2.4199e-05
2.69139e-05
-2.43315e-05
2.8747e-05
-2.46217e-05
3.06086e-05
-2.50592e-05
3.2507e-05
-2.56344e-05
3.44477e-05
-2.63371e-05
3.64335e-05
-2.71543e-05
3.8464e-05
-2.80691e-05
4.05355e-05
-2.90577e-05
4.26411e-05
-3.00872e-05
4.477e-05
-3.11125e-05
4.69079e-05
-3.20732e-05
4.90368e-05
-3.28903e-05
5.11351e-05
-3.34625e-05
5.31771e-05
-3.36641e-05
5.51329e-05
-3.3343e-05
5.69663e-05
-3.23222e-05
5.86303e-05
-3.04014e-05
6.00551e-05
-2.73611e-05
6.11925e-05
-2.3088e-05
6.21146e-05
-1.78913e-05
6.28362e-05
-1.24179e-05
6.30391e-05
-6.81423e-06
6.16635e-05
-8.79615e-07
5.77634e-05
6.38537e-06
5.19061e-05
1.43782e-05
4.51513e-05
2.22795e-05
3.81513e-05
3.018e-05
3.13097e-05
3.86875e-05
2.50047e-05
4.84391e-05
1.95962e-05
6.00297e-05
1.552e-05
7.41799e-05
1.34009e-05
9.18361e-05
0.000114679
3.02705e-06
-3.26693e-05
5.98405e-06
-3.67932e-05
8.62511e-06
-3.42561e-05
1.10377e-05
-3.18509e-05
1.32724e-05
-2.99929e-05
1.53649e-05
-2.85833e-05
1.73461e-05
-2.75345e-05
1.9244e-05
-2.67872e-05
2.10835e-05
-2.62992e-05
2.28864e-05
-2.60395e-05
2.46717e-05
-2.59843e-05
2.64552e-05
-2.6115e-05
2.825e-05
-2.64164e-05
3.00664e-05
-2.68756e-05
3.19121e-05
-2.74802e-05
3.3792e-05
-2.82169e-05
3.57078e-05
-2.90702e-05
3.76585e-05
-3.00198e-05
3.96396e-05
-3.10389e-05
4.16436e-05
-3.20912e-05
4.36598e-05
-3.31287e-05
4.56743e-05
-3.40877e-05
4.76704e-05
-3.48864e-05
4.96286e-05
-3.54206e-05
5.1526e-05
-3.55615e-05
5.33365e-05
-3.51534e-05
5.50278e-05
-3.40136e-05
5.65551e-05
-3.19287e-05
5.78591e-05
-2.86651e-05
5.89374e-05
-2.41663e-05
5.99619e-05
-1.89158e-05
6.09469e-05
-1.34029e-05
6.05573e-05
-6.4246e-06
5.76785e-05
1.99912e-06
5.26352e-05
1.14287e-05
4.66207e-05
2.03926e-05
4.04214e-05
2.84789e-05
3.44061e-05
3.61953e-05
2.88874e-05
4.42062e-05
2.42313e-05
5.30952e-05
2.08846e-05
6.33765e-05
1.94815e-05
7.5583e-05
2.10904e-05
9.02273e-05
0.000107586
2.94613e-06
-3.56155e-05
5.79583e-06
-3.96429e-05
8.36244e-06
-3.68227e-05
1.07278e-05
-3.42163e-05
1.29323e-05
-3.21974e-05
1.50045e-05
-3.06555e-05
1.69702e-05
-2.95002e-05
1.88536e-05
-2.86706e-05
2.06772e-05
-2.81228e-05
2.24611e-05
-2.78234e-05
2.4223e-05
-2.77461e-05
2.59778e-05
-2.78698e-05
2.77378e-05
-2.81765e-05
2.95128e-05
-2.86506e-05
3.13096e-05
-2.9277e-05
3.31325e-05
-3.00398e-05
3.49825e-05
-3.09202e-05
3.68579e-05
-3.18952e-05
3.87538e-05
-3.29348e-05
4.06625e-05
-3.39999e-05
4.25735e-05
-3.50397e-05
4.44739e-05
-3.59881e-05
4.63484e-05
-3.67609e-05
4.81796e-05
-3.72518e-05
4.99477e-05
-3.73297e-05
5.163e-05
-3.68357e-05
5.31979e-05
-3.55816e-05
5.46074e-05
-3.33381e-05
5.58306e-05
-2.98883e-05
5.69356e-05
-2.52713e-05
5.80964e-05
-2.00766e-05
5.88333e-05
-1.41398e-05
5.74588e-05
-5.05013e-06
5.35232e-05
5.93473e-06
4.82202e-05
1.67318e-05
4.26367e-05
2.59762e-05
3.72247e-05
3.38908e-05
3.22423e-05
4.11777e-05
2.79788e-05
4.84697e-05
2.48023e-05
5.62717e-05
2.31921e-05
6.49867e-05
2.38361e-05
7.4939e-05
2.78007e-05
8.62627e-05
9.84625e-05
2.86164e-06
-3.84771e-05
5.60354e-06
-4.23848e-05
8.09308e-06
-3.93122e-05
1.04066e-05
-3.65298e-05
1.25761e-05
-3.4367e-05
1.4624e-05
-3.27033e-05
1.65712e-05
-3.14474e-05
1.84387e-05
-3.05381e-05
2.02462e-05
-2.99303e-05
2.20119e-05
-2.95891e-05
2.3752e-05
-2.94862e-05
2.54803e-05
-2.95981e-05
2.72084e-05
-2.99045e-05
2.89449e-05
-3.03872e-05
3.06963e-05
-3.10284e-05
3.24658e-05
-3.18093e-05
3.42542e-05
-3.27085e-05
3.60591e-05
-3.37001e-05
3.78755e-05
-3.47512e-05
3.96958e-05
-3.58202e-05
4.15101e-05
-3.6854e-05
4.33065e-05
-3.77845e-05
4.50715e-05
-3.85259e-05
4.67899e-05
-3.89702e-05
4.84449e-05
-3.89847e-05
5.00172e-05
-3.8408e-05
5.14823e-05
-3.70466e-05
5.28014e-05
-3.46573e-05
5.3984e-05
-3.1071e-05
5.52063e-05
-2.64936e-05
5.66775e-05
-2.15478e-05
5.65328e-05
-1.39951e-05
5.39898e-05
-2.50712e-06
4.95088e-05
1.04157e-05
4.4468e-05
2.17726e-05
3.9532e-05
3.09122e-05
3.49607e-05
3.84621e-05
3.09675e-05
4.51709e-05
2.78203e-05
5.1617e-05
2.5859e-05
5.8233e-05
2.55194e-05
6.53263e-05
2.73926e-05
7.30659e-05
3.22845e-05
8.13708e-05
8.95358e-05
2.77507e-06
-4.12522e-05
5.40971e-06
-4.50195e-05
7.82049e-06
-4.1723e-05
1.00784e-05
-3.87877e-05
1.22085e-05
-3.64971e-05
1.42277e-05
-3.47225e-05
1.61531e-05
-3.33728e-05
1.80023e-05
-3.23872e-05
1.97924e-05
-3.17204e-05
2.15396e-05
-3.13363e-05
2.32585e-05
-3.12051e-05
2.49617e-05
-3.13012e-05
2.66595e-05
-3.16023e-05
2.836e-05
-3.20877e-05
3.00687e-05
-3.2737e-05
3.17883e-05
-3.3529e-05
3.35191e-05
-3.44393e-05
3.52584e-05
-3.54394e-05
3.70012e-05
-3.6494e-05
3.87404e-05
-3.75593e-05
4.04667e-05
-3.85803e-05
4.21696e-05
-3.94875e-05
4.38373e-05
-4.01936e-05
4.54571e-05
-4.059e-05
4.70146e-05
-4.05422e-05
4.84938e-05
-3.98872e-05
4.98735e-05
-3.84264e-05
5.11343e-05
-3.5918e-05
5.23141e-05
-3.22508e-05
5.36315e-05
-2.7811e-05
5.51337e-05
-2.305e-05
5.39948e-05
-1.28562e-05
5.04047e-05
1.08292e-06
4.58145e-05
1.50059e-05
4.12364e-05
2.63507e-05
3.69941e-05
3.51546e-05
3.32301e-05
4.22261e-05
3.01249e-05
4.82761e-05
2.79098e-05
5.3832e-05
2.68704e-05
5.92724e-05
2.73586e-05
6.48381e-05
2.98179e-05
7.06066e-05
3.47891e-05
7.63995e-05
8.15353e-05
2.68735e-06
-4.39395e-05
5.21583e-06
-4.7548e-05
7.54679e-06
-4.4054e-05
9.74599e-06
-4.09869e-05
1.18325e-05
-3.85836e-05
1.38189e-05
-3.67089e-05
1.57188e-05
-3.52727e-05
1.75467e-05
-3.42151e-05
1.93174e-05
-3.34911e-05
2.10449e-05
-3.30639e-05
2.27422e-05
-3.29024e-05
2.44205e-05
-3.29796e-05
2.60892e-05
-3.3271e-05
2.77554e-05
-3.37538e-05
2.94237e-05
-3.44054e-05
3.10965e-05
-3.52017e-05
3.27734e-05
-3.61163e-05
3.44519e-05
-3.71179e-05
3.61271e-05
-3.81691e-05
3.77922e-05
-3.92244e-05
3.94391e-05
-4.02272e-05
4.10586e-05
-4.1107e-05
4.26408e-05
-4.17758e-05
4.41748e-05
-4.2124e-05
4.56488e-05
-4.20162e-05
4.70491e-05
-4.12875e-05
4.83548e-05
-3.97322e-05
4.9574e-05
-3.71372e-05
5.07905e-05
-3.34672e-05
5.2173e-05
-2.91935e-05
5.27536e-05
-2.36306e-05
5.06836e-05
-1.07862e-05
4.66951e-05
5.07141e-06
4.23863e-05
1.93146e-05
3.83811e-05
3.03559e-05
3.4813e-05
3.87227e-05
3.1781e-05
4.5258e-05
2.9433e-05
5.06242e-05
2.79548e-05
5.53103e-05
2.75678e-05
5.96594e-05
2.85331e-05
6.38728e-05
3.11552e-05
6.79845e-05
3.57641e-05
7.17907e-05
7.47087e-05
2.59904e-06
-4.65386e-05
5.02267e-06
-4.99716e-05
7.27314e-06
-4.63044e-05
9.41096e-06
-4.31247e-05
1.14502e-05
-4.06228e-05
1.33997e-05
-3.86585e-05
1.52702e-05
-3.71432e-05
1.70736e-05
-3.60185e-05
1.88222e-05
-3.52397e-05
2.05282e-05
-3.47699e-05
2.22028e-05
-3.45771e-05
2.3856e-05
-3.46328e-05
2.5496e-05
-3.49109e-05
2.71288e-05
-3.53867e-05
2.87586e-05
-3.60352e-05
3.03871e-05
-3.68302e-05
3.20137e-05
-3.77429e-05
3.36357e-05
-3.87399e-05
3.52486e-05
-3.97821e-05
3.68464e-05
-4.08222e-05
3.84219e-05
-4.18027e-05
3.99673e-05
-4.26524e-05
4.14741e-05
-4.32826e-05
4.29334e-05
-4.35833e-05
4.43356e-05
-4.34184e-05
4.56684e-05
-4.26203e-05
4.69115e-05
-4.09753e-05
4.80915e-05
-3.83172e-05
4.93435e-05
-3.47192e-05
5.08685e-05
-3.07185e-05
5.01865e-05
-2.29487e-05
4.72171e-05
-7.81672e-06
4.31622e-05
9.1263e-06
3.92678e-05
2.32091e-05
3.58223e-05
3.38014e-05
3.28654e-05
4.16796e-05
3.04657e-05
4.76577e-05
2.87355e-05
5.23545e-05
2.78127e-05
5.6233e-05
2.78563e-05
5.96157e-05
2.90447e-05
6.26845e-05
3.15684e-05
6.54607e-05
3.56017e-05
6.77574e-05
6.91054e-05
2.51044e-06
-4.9049e-05
4.83059e-06
-5.22917e-05
7.00009e-06
-4.84739e-05
9.07425e-06
-4.51989e-05
1.10628e-05
-4.26113e-05
1.29717e-05
-4.05674e-05
1.4809e-05
-3.89805e-05
1.65843e-05
-3.77938e-05
1.83079e-05
-3.69632e-05
1.999e-05
-3.6452e-05
2.16404e-05
-3.62274e-05
2.32675e-05
-3.62599e-05
2.48785e-05
-3.65219e-05
2.64786e-05
-3.69868e-05
2.80711e-05
-3.76277e-05
2.96574e-05
-3.84165e-05
3.12365e-05
-3.9322e-05
3.2806e-05
-4.03094e-05
3.43616e-05
-4.13377e-05
3.5898e-05
-4.23586e-05
3.74091e-05
-4.33138e-05
3.88881e-05
-4.41314e-05
4.03281e-05
-4.47225e-05
4.17212e-05
-4.49765e-05
4.30593e-05
-4.47565e-05
4.43323e-05
-4.38933e-05
4.55255e-05
-4.21685e-05
4.66718e-05
-3.94634e-05
4.79352e-05
-3.59825e-05
4.94771e-05
-3.22604e-05
4.77819e-05
-2.12534e-05
4.39649e-05
-3.99979e-06
3.99542e-05
1.3137e-05
3.6455e-05
2.67083e-05
3.35056e-05
3.67508e-05
3.10759e-05
4.41093e-05
2.92025e-05
4.95311e-05
2.79589e-05
5.3598e-05
2.74378e-05
5.67541e-05
2.77433e-05
5.93102e-05
2.8987e-05
6.14409e-05
3.12757e-05
6.3172e-05
3.46801e-05
6.43529e-05
6.46214e-05
2.42167e-06
-5.14707e-05
4.6396e-06
-5.45097e-05
6.72775e-06
-5.05621e-05
8.73626e-06
-4.72074e-05
1.06711e-05
-4.45462e-05
1.25358e-05
-4.24322e-05
1.43363e-05
-4.0781e-05
1.608e-05
-3.95374e-05
1.77753e-05
-3.86586e-05
1.94309e-05
-3.81076e-05
2.1055e-05
-3.78515e-05
2.26547e-05
-3.78596e-05
2.4236e-05
-3.81032e-05
2.58033e-05
-3.85541e-05
2.73594e-05
-3.91838e-05
2.8905e-05
-3.9962e-05
3.04391e-05
-4.08562e-05
3.19593e-05
-4.18296e-05
3.34618e-05
-4.28402e-05
3.49419e-05
-4.38387e-05
3.63944e-05
-4.47662e-05
3.78135e-05
-4.55505e-05
3.9193e-05
-4.61021e-05
4.05259e-05
-4.63093e-05
4.18037e-05
-4.60343e-05
4.30161e-05
-4.51056e-05
4.41633e-05
-4.33157e-05
4.52857e-05
-4.05858e-05
4.64907e-05
-3.71876e-05
4.72802e-05
-3.30499e-05
4.47359e-05
-1.87091e-05
4.06913e-05
4.47585e-08
3.69584e-05
1.68699e-05
3.3878e-05
2.97888e-05
3.13734e-05
3.92554e-05
2.93938e-05
4.60889e-05
2.79492e-05
5.09757e-05
2.70794e-05
5.44678e-05
2.68385e-05
5.6995e-05
2.72875e-05
5.88612e-05
2.84884e-05
6.024e-05
3.04914e-05
6.1169e-05
3.33056e-05
6.15387e-05
6.10804e-05
2.33275e-06
-5.38034e-05
4.44951e-06
-5.66264e-05
6.45597e-06
-5.25685e-05
8.39702e-06
-4.91484e-05
1.02754e-05
-4.64246e-05
1.20927e-05
-4.42494e-05
1.38527e-05
-4.2541e-05
1.55613e-05
-4.12461e-05
1.72253e-05
-4.03226e-05
1.88516e-05
-3.97339e-05
2.0447e-05
-3.94469e-05
2.20175e-05
-3.94301e-05
2.35681e-05
-3.96538e-05
2.51023e-05
-4.00883e-05
2.66221e-05
-4.07036e-05
2.81281e-05
-4.1468e-05
2.9619e-05
-4.23471e-05
3.10925e-05
-4.33031e-05
3.25453e-05
-4.42929e-05
3.39732e-05
-4.52666e-05
3.53717e-05
-4.61647e-05
3.67358e-05
-4.69146e-05
3.80597e-05
-4.74259e-05
3.93364e-05
-4.7586e-05
4.05566e-05
-4.72546e-05
4.17069e-05
-4.62559e-05
4.28e-05
-4.44088e-05
4.38929e-05
-4.16786e-05
4.50419e-05
-3.83366e-05
4.45807e-05
-3.25887e-05
4.13718e-05
-1.55002e-05
3.74974e-05
3.91917e-06
3.41667e-05
2.02006e-05
3.1498e-05
3.24575e-05
2.93903e-05
4.13631e-05
2.77896e-05
4.76897e-05
2.66881e-05
5.20772e-05
2.60996e-05
5.50563e-05
2.60481e-05
5.70466e-05
2.65626e-05
5.83467e-05
2.76711e-05
5.91315e-05
2.93877e-05
5.94524e-05
3.16853e-05
5.92412e-05
5.83022e-05
2.24355e-06
-5.6047e-05
4.25997e-06
-5.86428e-05
6.18433e-06
-5.44929e-05
8.0563e-06
-5.10204e-05
9.87576e-06
-4.8244e-05
1.16424e-05
-4.60161e-05
1.33588e-05
-4.42573e-05
1.5029e-05
-4.29163e-05
1.66583e-05
-4.19519e-05
1.82524e-05
-4.1328e-05
1.98168e-05
-4.10112e-05
2.13562e-05
-4.09695e-05
2.28746e-05
-4.11722e-05
2.43749e-05
-4.15886e-05
2.58584e-05
-4.21871e-05
2.73253e-05
-4.29348e-05
2.87743e-05
-4.37961e-05
3.02031e-05
-4.4732e-05
3.16088e-05
-4.56986e-05
3.29876e-05
-4.66455e-05
3.43356e-05
-4.75127e-05
3.56482e-05
-4.82271e-05
3.69197e-05
-4.86975e-05
3.81433e-05
-4.88096e-05
3.93084e-05
-4.84197e-05
4.03979e-05
-4.73455e-05
4.14311e-05
-4.54419e-05
4.2484e-05
-4.27316e-05
4.37038e-05
-3.95564e-05
4.18892e-05
-3.07741e-05
3.82485e-05
-1.18595e-05
3.45932e-05
7.57449e-06
3.16253e-05
2.31685e-05
2.93104e-05
3.47724e-05
2.75363e-05
4.31372e-05
2.62456e-05
4.89804e-05
2.54141e-05
5.29086e-05
2.50339e-05
5.54366e-05
2.51065e-05
5.6974e-05
2.56386e-05
5.78146e-05
2.66352e-05
5.8135e-05
2.80885e-05
5.79992e-05
2.99589e-05
5.73707e-05
3.21365e-05
5.61245e-05
5.40808e-05
2.1539e-06
-5.82009e-05
4.07054e-06
-6.05595e-05
5.91232e-06
-5.63347e-05
7.71365e-06
-5.28217e-05
9.47188e-06
-5.00023e-05
1.11852e-05
-4.77295e-05
1.28548e-05
-4.59269e-05
1.44834e-05
-4.45449e-05
1.60751e-05
-4.35436e-05
1.76342e-05
-4.28871e-05
1.91649e-05
-4.25419e-05
2.0671e-05
-4.24757e-05
2.21557e-05
-4.26569e-05
2.3621e-05
-4.30539e-05
2.50677e-05
-4.36339e-05
2.64957e-05
-4.43628e-05
2.79035e-05
-4.52039e-05
2.9289e-05
-4.61175e-05
3.06494e-05
-4.7059e-05
3.19814e-05
-4.79775e-05
3.32813e-05
-4.88126e-05
3.45446e-05
-4.94904e-05
3.57657e-05
-4.99186e-05
3.69372e-05
-4.99811e-05
3.80491e-05
-4.95315e-05
3.90843e-05
-4.83807e-05
4.006e-05
-4.64176e-05
4.10588e-05
-4.37304e-05
4.21896e-05
-4.06871e-05
3.95044e-05
-2.80889e-05
3.5504e-05
-7.859e-06
3.20118e-05
1.10667e-05
2.93187e-05
2.58615e-05
2.72868e-05
3.68043e-05
2.57865e-05
4.46375e-05
2.47469e-05
5.00201e-05
2.41261e-05
5.35294e-05
2.38989e-05
5.56637e-05
2.40509e-05
5.6822e-05
2.45736e-05
5.72919e-05
2.54578e-05
5.72507e-05
2.66833e-05
5.67737e-05
2.82036e-05
5.58504e-05
2.99222e-05
5.44059e-05
5.2323e-05
2.06357e-06
-6.02644e-05
3.88069e-06
-6.23766e-05
5.6393e-06
-5.80933e-05
7.36851e-06
-5.45509e-05
9.06338e-06
-5.16971e-05
1.07208e-05
-4.93869e-05
1.23408e-05
-4.75469e-05
1.39249e-05
-4.61291e-05
1.5476e-05
-4.50947e-05
1.69973e-05
-4.44083e-05
1.84918e-05
-4.40364e-05
1.99626e-05
-4.39464e-05
2.14118e-05
-4.41061e-05
2.28407e-05
-4.44828e-05
2.42499e-05
-4.5043e-05
2.56386e-05
-4.57515e-05
2.70055e-05
-4.65708e-05
2.83484e-05
-4.74604e-05
2.96648e-05
-4.83754e-05
3.09515e-05
-4.92643e-05
3.2205e-05
-5.00661e-05
3.34204e-05
-5.07059e-05
3.45915e-05
-5.10897e-05
3.57101e-05
-5.10997e-05
3.67652e-05
-5.05867e-05
3.77473e-05
-4.93628e-05
3.86704e-05
-4.73407e-05
3.95742e-05
-4.46342e-05
4.01465e-05
-4.12594e-05
3.68748e-05
-2.48173e-05
3.28417e-05
-3.82591e-06
2.95835e-05
1.43249e-05
2.71567e-05
2.82884e-05
2.53775e-05
3.85835e-05
2.41124e-05
4.59027e-05
2.3279e-05
5.08534e-05
2.28238e-05
5.39847e-05
2.27097e-05
5.57778e-05
2.29118e-05
5.66199e-05
2.34121e-05
5.67916e-05
2.41934e-05
5.64694e-05
2.52297e-05
5.57374e-05
2.64743e-05
5.46058e-05
2.78453e-05
5.3035e-05
5.09581e-05
1.97231e-06
-6.22368e-05
3.68989e-06
-6.40942e-05
5.36458e-06
-5.9768e-05
7.0202e-06
-5.62065e-05
8.64971e-06
-5.33266e-05
1.02489e-05
-5.09861e-05
1.18167e-05
-4.91146e-05
1.33536e-05
-4.7666e-05
1.48614e-05
-4.66025e-05
1.63421e-05
-4.58891e-05
1.77981e-05
-4.54924e-05
1.92313e-05
-4.53796e-05
2.06431e-05
-4.55179e-05
2.20343e-05
-4.5874e-05
2.34048e-05
-4.64135e-05
2.47537e-05
-4.71004e-05
2.60796e-05
-4.78967e-05
2.73803e-05
-4.87611e-05
2.86533e-05
-4.96484e-05
2.98957e-05
-5.05066e-05
3.11037e-05
-5.12741e-05
3.22721e-05
-5.18743e-05
3.33937e-05
-5.22113e-05
3.44584e-05
-5.21643e-05
3.54535e-05
-5.15819e-05
3.63766e-05
-5.02859e-05
3.72484e-05
-4.82125e-05
3.8063e-05
-4.54488e-05
3.7581e-05
-4.07774e-05
3.38581e-05
-2.10944e-05
3.01185e-05
-8.62187e-08
2.72153e-05
1.7228e-05
2.50839e-05
3.04198e-05
2.35499e-05
4.01175e-05
2.24925e-05
4.69601e-05
2.18311e-05
5.15148e-05
2.15074e-05
5.43085e-05
2.14781e-05
5.58071e-05
2.17121e-05
5.63859e-05
2.21861e-05
5.63177e-05
2.28787e-05
5.57768e-05
2.3762e-05
5.48541e-05
2.47924e-05
5.35754e-05
2.59013e-05
5.19261e-05
4.98732e-05
1.87989e-06
-6.41166e-05
3.49753e-06
-6.57118e-05
5.08736e-06
-6.13578e-05
6.66789e-06
-5.77871e-05
8.23017e-06
-5.48889e-05
9.76895e-06
-5.25249e-05
1.12821e-05
-5.06278e-05
1.27693e-05
-4.91532e-05
1.42312e-05
-4.80644e-05
1.5669e-05
-4.73269e-05
1.70841e-05
-4.69074e-05
1.84775e-05
-4.6773e-05
1.985e-05
-4.68905e-05
2.12018e-05
-4.72258e-05
2.25325e-05
-4.77442e-05
2.38408e-05
-4.84088e-05
2.51252e-05
-4.91811e-05
2.63837e-05
-5.00195e-05
2.76136e-05
-5.08784e-05
2.88122e-05
-5.17052e-05
2.99753e-05
-5.24372e-05
3.10975e-05
-5.29964e-05
3.21704e-05
-5.32842e-05
3.31821e-05
-5.3176e-05
3.41163e-05
-5.25161e-05
3.49777e-05
-5.11473e-05
3.57989e-05
-4.90336e-05
3.66268e-05
-4.62767e-05
3.457e-05
-3.87207e-05
3.08271e-05
-1.73514e-05
2.74934e-05
3.24746e-06
2.49639e-05
1.97575e-05
2.31126e-05
3.22712e-05
2.1796e-05
4.1434e-05
2.09154e-05
4.78407e-05
2.03958e-05
5.20344e-05
2.01771e-05
5.45272e-05
2.02127e-05
5.57715e-05
2.04681e-05
5.61305e-05
2.09173e-05
5.58685e-05
2.1537e-05
5.51571e-05
2.22999e-05
5.40912e-05
2.31668e-05
5.27086e-05
2.40808e-05
5.10121e-05
4.89902e-05
1.78604e-06
-6.59027e-05
3.30296e-06
-6.72287e-05
4.80675e-06
-6.28616e-05
6.31064e-06
-5.9291e-05
7.80389e-06
-5.63822e-05
9.28025e-06
-5.40013e-05
1.07367e-05
-5.20842e-05
1.21719e-05
-5.05884e-05
1.35856e-05
-4.94781e-05
1.49782e-05
-4.87194e-05
1.635e-05
-4.82793e-05
1.77016e-05
-4.81246e-05
1.90329e-05
-4.82218e-05
2.03437e-05
-4.85367e-05
2.16331e-05
-4.90336e-05
2.28999e-05
-4.96755e-05
2.41422e-05
-5.04234e-05
2.53579e-05
-5.12353e-05
2.65448e-05
-5.20652e-05
2.76997e-05
-5.286e-05
2.88183e-05
-5.35558e-05
2.98946e-05
-5.40728e-05
3.092e-05
-5.43096e-05
3.18812e-05
-5.41372e-05
3.27592e-05
-5.33941e-05
3.35622e-05
-5.19503e-05
3.43244e-05
-4.97959e-05
3.519e-05
-4.71422e-05
3.19882e-05
-3.55189e-05
2.82543e-05
-1.36176e-05
2.51913e-05
6.31052e-06
2.29079e-05
2.20409e-05
2.12567e-05
3.39224e-05
2.01088e-05
4.2582e-05
1.93709e-05
4.85787e-05
1.89661e-05
5.24392e-05
1.88315e-05
5.46619e-05
1.89181e-05
5.56849e-05
1.91894e-05
5.58592e-05
1.96182e-05
5.54397e-05
2.01809e-05
5.45945e-05
2.08514e-05
5.34207e-05
2.15955e-05
5.19645e-05
2.23664e-05
5.02412e-05
4.82531e-05
1.69044e-06
-6.75931e-05
3.10533e-06
-6.86436e-05
4.52164e-06
-6.42779e-05
5.94728e-06
-6.07166e-05
7.3698e-06
-5.78047e-05
8.78195e-06
-5.54134e-05
1.01797e-05
-5.3482e-05
1.1561e-05
-5.19696e-05
1.29244e-05
-5.08416e-05
1.42696e-05
-5.00646e-05
1.55961e-05
-4.96058e-05
1.69038e-05
-4.94322e-05
1.8192e-05
-4.95101e-05
1.94601e-05
-4.98047e-05
2.07069e-05
-5.02803e-05
2.19308e-05
-5.08994e-05
2.313e-05
-5.16227e-05
2.43026e-05
-5.24079e-05
2.54461e-05
-5.32087e-05
2.65571e-05
-5.39711e-05
2.76311e-05
-5.46299e-05
2.86616e-05
-5.51033e-05
2.96395e-05
-5.52875e-05
3.0552e-05
-5.50498e-05
3.13806e-05
-5.42226e-05
3.2129e-05
-5.26987e-05
3.28212e-05
-5.04881e-05
3.34888e-05
-4.78098e-05
2.98853e-05
-3.19154e-05
2.60966e-05
-9.82888e-06
2.314e-05
9.26714e-06
2.09918e-05
2.41891e-05
1.94787e-05
3.54355e-05
1.84634e-05
4.35973e-05
1.78424e-05
4.91997e-05
1.75323e-05
5.27492e-05
1.7467e-05
5.47272e-05
1.75957e-05
5.55563e-05
1.7881e-05
5.55739e-05
1.82952e-05
5.50255e-05
1.88153e-05
5.40744e-05
1.9417e-05
5.28189e-05
2.00707e-05
5.13108e-05
2.07378e-05
4.9574e-05
4.762e-05
1.59267e-06
-6.91858e-05
2.9036e-06
-6.99546e-05
4.23068e-06
-6.5605e-05
5.57642e-06
-6.20623e-05
6.92663e-06
-5.91549e-05
8.27298e-06
-5.67598e-05
9.61049e-06
-5.48195e-05
1.0936e-05
-5.32951e-05
1.22474e-05
-5.2153e-05
1.35433e-05
-5.13605e-05
1.48226e-05
-5.08851e-05
1.60843e-05
-5.0694e-05
1.73276e-05
-5.07533e-05
1.85512e-05
-5.10283e-05