/*--------------------------------*- C++ -*----------------------------------*\
  =========                 |
  \\      /  F ield         | OpenFOAM: The Open Source CFD Toolbox
   \\    /   O peration     | Website:  https://openfoam.org
    \\  /    A nd           | Version:  7
     \\/     M anipulation  |
\*---------------------------------------------------------------------------*/
FoamFile
{
    version     2.0;
    format      ascii;
    class       vectorField;
    location    "0.003/lagrangian/dsmc";
    object      U;
}
// * * * * * * * * * * * * * * * * * * * * * * * * * * * * * * * * * * * * * //


6876
(
(-433.0981804 427.378698 -378.065433)
(-16.14298211 80.28482961 -1229.080239)
(1745.71104 400.0290064 -1115.77766)
(-479.0985069 164.2370231 -303.4287815)
(-328.4835714 286.191519 -76.03106549)
(917.988169 1262.749698 -751.3589329)
(-862.7514981 341.9631466 434.7812241)
(470.2008988 582.3071637 70.06005681)
(1193.290549 -424.4617456 -0.7021534549)
(248.8528227 132.6128201 -498.33482)
(1800.965293 165.7113939 286.1783723)
(882.1910206 251.9191639 4.925426889)
(0.5356059955 152.2917507 540.0664588)
(237.2772282 -761.4574916 51.61763554)
(1000.34713 1195.656256 -565.7328954)
(545.0598759 192.1545256 126.318071)
(-449.4454911 181.3237611 290.8065162)
(257.0829257 669.2579041 -446.1881099)
(312.3574196 1560.402218 879.6883749)
(2077.144195 230.0434915 -477.5441809)
(815.9655514 879.613553 -305.8525509)
(518.8910741 690.4548611 -1330.328736)
(1122.371274 792.7854561 -159.7680151)
(1285.998284 498.7393182 -391.6857593)
(922.5189386 885.7164981 -1108.610109)
(1018.625871 -151.5178509 -298.3593744)
(466.2498755 885.0897814 122.2114631)
(-138.1241342 690.0790508 -1000.449043)
(-65.22652943 -674.9327262 -996.3784945)
(-234.688978 -133.5608953 388.1908228)
(685.3709692 805.5765371 -309.6120472)
(1075.618269 -398.7116299 -42.61683771)
(732.6739258 -258.3284973 427.9136763)
(-30.93905475 188.661841 -949.4258334)
(841.4177172 669.8836548 -360.162685)
(86.68161117 -528.341177 537.9676499)
(80.67426583 -445.0985095 -31.08249782)
(350.4680815 621.2947078 214.7775165)
(368.3728378 -152.9632331 695.4131822)
(789.5073249 1409.295148 1303.859403)
(-119.9828665 618.1095331 -69.21408872)
(815.2695067 -138.6495729 349.7553804)
(24.85974455 534.6295382 190.4963469)
(-156.6607558 304.9328952 134.6263888)
(853.8556552 929.4214665 268.7682684)
(45.72904442 478.2929139 432.882498)
(596.5229547 -169.1196717 -980.9908049)
(1673.499172 570.8567497 -680.5774342)
(166.4544305 427.4113783 -561.9767915)
(-157.5309264 119.854326 -133.0680398)
(277.4632235 1134.285087 -53.2381143)
(294.7945295 -470.9045707 -287.2123364)
(168.6196227 955.8991735 -863.0456157)
(175.0700135 932.3180153 241.0526706)
(781.1533772 87.90584629 -235.2861158)
(1164.440982 805.548876 466.2351631)
(1023.480452 595.4085917 1214.295566)
(-569.263988 342.5914076 -767.679981)
(113.4438438 645.4160992 -560.4737315)
(280.7690076 836.3818323 -396.3825618)
(2241.83799 11.30105027 457.7608022)
(1241.872293 748.3544813 187.939312)
(-68.45312969 790.5448919 285.4232739)
(1039.410045 -848.0060589 -59.00724963)
(645.0241866 481.5669277 -223.3444335)
(348.3793187 108.0244233 -1016.566456)
(1277.599018 422.8664117 293.8824439)
(-277.556496 312.2162754 377.6133591)
(1736.17976 -53.0478528 88.47130886)
(151.8698256 440.3030268 -508.9484948)
(-424.2362169 -560.4454858 553.6398049)
(-238.8624348 386.0314172 -145.6266561)
(986.3689308 982.0257135 -747.6000649)
(172.9961571 507.9968187 -932.5775291)
(1067.183018 445.1781126 966.0456978)
(1940.150584 866.3688958 144.8459683)
(558.970136 78.48670348 -539.7823326)
(166.1626065 290.4026202 -217.6337797)
(-63.08725044 -85.49429613 -476.8016537)
(1092.609264 80.76585259 -172.1671272)
(896.8942721 771.6685857 -74.4460234)
(-71.18652652 234.2184367 374.834518)
(866.8429347 628.376245 60.54493466)
(266.754968 488.2423187 88.06010581)
(1846.536185 -297.935309 371.7226582)
(689.6915403 185.553323 -205.1080873)
(379.1322283 -306.896625 -764.0963772)
(1379.27911 1035.524782 -572.4930667)
(813.2521539 972.0163668 -179.578672)
(601.277033 -397.1869218 -106.9019466)
(717.3851414 1007.095907 497.664143)
(1239.040343 937.3005047 12.89196228)
(1436.051057 56.90274242 489.8943401)
(276.9831571 771.1019917 774.5424867)
(2236.387245 591.1663334 877.4182267)
(695.9283534 770.5935415 474.4065801)
(160.4665718 616.9337551 729.6226743)
(469.9959081 607.1619951 1022.137563)
(-140.570005 287.1943586 519.7705203)
(-451.9084926 203.7500581 -83.75153396)
(-389.9694964 -84.79773046 -176.3542608)
(-320.8070903 220.2078565 561.5335756)
(1715.288944 -376.8012884 173.0591657)
(864.0691994 332.8158365 1268.763844)
(-160.9250937 698.8021497 -277.6969331)
(402.0899318 98.58694581 -146.4593482)
(419.6869835 -735.6149725 -355.7274967)
(828.2719873 431.3174291 -92.858847)
(1321.153021 -346.8124143 -232.1592448)
(-97.40563539 218.3307989 588.9417802)
(1380.658285 59.58012876 -220.6982624)
(-469.5270487 245.7817117 741.5870091)
(-297.5882171 374.6338926 -732.5217688)
(1382.699749 -130.7704585 -814.4822333)
(459.0258388 -418.661716 -303.9631991)
(1067.450565 -124.6109249 -176.0197135)
(238.6894298 708.9704989 184.6067069)
(129.2787989 306.7092055 682.9755199)
(208.9541131 84.30624777 -324.1641779)
(1546.557371 261.1513236 -539.2027364)
(357.8382434 -543.355071 -870.6921806)
(1019.150704 1530.699558 -56.68128111)
(646.3166549 157.8034999 216.5476074)
(-332.0465711 212.0681927 -94.73979981)
(691.6901148 984.8022393 802.6203445)
(160.8173978 627.6005412 -84.30252381)
(-55.54474284 85.54298473 426.8209576)
(900.6680573 738.7808429 300.1762541)
(1944.361337 259.1617021 -662.4385534)
(1811.808491 993.6355445 -732.3943392)
(-42.78128944 -27.6519845 93.88334235)
(727.6809451 824.9789822 68.17269334)
(576.1552125 25.24174475 866.1174942)
(58.98534327 1018.083711 806.7087718)
(1170.34217 406.369505 -134.1941833)
(267.1406904 212.0846798 -737.6609492)
(-8.276531269 421.5295076 -757.6866334)
(545.2017376 -314.2739615 -726.3869555)
(559.5356519 -254.1180266 -273.4657208)
(46.54488102 759.3186382 359.933724)
(1893.98858 483.2323512 140.6155738)
(-245.2172709 -657.6051094 38.94224276)
(-244.1898102 598.3119511 -84.65140208)
(1264.483416 415.7864309 -56.25841061)
(570.8645695 68.70402034 -814.5168173)
(207.7628605 869.7983776 -150.2650683)
(437.8848059 188.8367509 -727.27287)
(790.8527023 837.4058194 -270.5259855)
(-181.9252966 593.9648539 -300.0612814)
(81.98300594 813.9679223 93.18174683)
(1328.211613 790.3827325 384.65801)
(488.5087859 650.7096434 778.1159282)
(1232.635298 988.3173061 -216.3816447)
(963.408792 495.7394506 -621.249509)
(-1033.635732 -160.1057792 -538.753702)
(-138.4945638 560.327596 68.49929149)
(-771.6338847 626.4294315 225.8966625)
(674.3394029 -522.400302 232.9088987)
(-413.6747488 650.7895685 235.5574033)
(1355.235438 1276.882341 1012.514159)
(1532.181524 1056.518612 -709.8096387)
(22.26269394 -57.67057395 29.9842562)
(594.9582384 559.6679827 155.0813136)
(441.8599348 1770.932258 500.1600986)
(-223.0197498 910.1864293 342.4394608)
(1217.866839 -74.73272174 667.411096)
(-674.2590546 305.1956978 -136.8511369)
(1048.727975 631.3215833 294.8960216)
(448.3424227 -406.5105028 1138.003102)
(1110.643359 -36.04893552 1522.629556)
(1277.278295 508.3159484 369.0813068)
(-1023.747949 121.8375558 -631.558324)
(289.4605892 993.1440754 819.4408352)
(-115.090637 838.2113319 -151.4003567)
(782.6471574 1040.845973 -159.5183554)
(-294.2734016 -178.5140373 188.6350131)
(596.3639773 879.820614 537.7166583)
(1092.702562 -156.091004 -288.2900151)
(54.12295045 569.4441486 -177.195494)
(779.3414481 -37.51558852 89.01465915)
(-364.1733271 492.9183531 94.84394319)
(1531.787188 216.4118292 256.1302773)
(-69.67766574 827.9943003 -160.1323634)
(298.2154298 1513.269637 -383.8520584)
(560.3029696 1379.441057 -346.3488185)
(720.2621776 -775.0507847 -555.4217926)
(-228.2754695 221.756114 1070.815252)
(1019.866227 1056.863024 -372.5262345)
(1351.278828 487.5139093 476.1655912)
(-210.2672895 154.2327623 919.480691)
(158.2026279 -559.6787187 560.2975692)
(1569.404932 355.3692136 -403.097248)
(84.27405015 701.5164778 -362.4794023)
(901.2116259 338.9735622 454.0494754)
(765.4039554 -20.91178552 -503.5705708)
(928.3425234 1776.123361 858.5496861)
(523.5838198 -479.540312 -419.7955408)
(1445.071406 369.8108064 480.0604616)
(126.1681525 683.1515048 178.8302324)
(1539.446968 -82.68830763 -143.9181354)
(1131.071698 224.7684099 715.3123501)
(432.8890199 167.0736109 412.0504889)
(-409.5336779 60.19024548 231.5345974)
(-238.4481821 1175.998122 163.557719)
(291.064092 -245.5085207 -266.3462638)
(-401.8292384 795.6016952 -491.2676027)
(179.1315463 861.036634 -109.2936318)
(418.3965562 435.3185385 -251.5956365)
(2189.386036 577.9875731 164.9582817)
(458.5848401 860.8392121 -642.2562799)
(2131.813734 978.3949219 -177.9892284)
(-177.1932454 604.1200162 283.1757557)
(1487.977645 39.26148293 13.78343379)
(963.8030762 -25.5217453 38.76655193)
(1120.591414 234.9053549 304.8992676)
(1191.836574 -95.61207544 167.8710959)
(978.3704607 231.5380623 450.4776647)
(524.7383318 227.9414458 83.65093515)
(1728.492745 206.3502855 1235.795814)
(1553.93119 698.9308323 495.9436866)
(565.4173782 691.3264987 -143.7752031)
(1222.748458 -130.4460718 -232.1340323)
(1202.118066 -777.5270844 277.7359715)
(823.3126676 158.8699546 -1254.558455)
(947.8628849 918.5742523 -147.3552746)
(25.40071623 841.6627829 -142.0942228)
(-143.6985561 398.1212718 -358.0850429)
(-15.69375512 286.7087913 421.1719395)
(183.6077465 677.9191674 159.4750221)
(1335.845048 590.1807353 -341.0980609)
(-117.0359675 812.9297469 268.5430864)
(1306.51494 933.1851797 -19.0716456)
(7.500143213 509.1308369 79.07205623)
(-71.62336526 471.5429057 -373.0000706)
(4.687194896 1043.589499 -161.5539127)
(-119.2907143 178.7695761 765.7999553)
(-51.8531592 750.6175625 -69.87863594)
(997.8076363 810.3030912 563.1492506)
(-92.17519559 -829.8364041 -936.287311)
(437.4258875 -58.07225208 -621.1239179)
(618.3230705 893.9180182 158.033804)
(-759.2187755 315.9454029 -34.78468552)
(1498.189608 289.9351018 438.5847223)
(551.6775935 343.2492139 -359.6795581)
(543.5805641 765.0582646 -465.6820227)
(1319.463096 53.06594374 -145.3284343)
(1104.999427 -478.2948588 -190.1689601)
(233.7170368 332.658416 -588.9032391)
(-662.7969172 727.1122336 -305.0878511)
(512.8006384 638.6555367 911.2146235)
(-270.6369191 297.3064675 -41.66075723)
(684.6613926 274.830665 65.12367988)
(-394.7542721 384.4307024 296.5568541)
(1049.545449 268.4198014 733.7889879)
(1462.319893 101.9224094 -407.2582951)
(1487.136068 158.083152 273.7797023)
(1226.38053 154.7643526 -415.7051075)
(518.9363943 57.14465508 -566.6529182)
(977.0021692 317.8649627 1.781173112)
(706.6437079 84.30536854 -563.1139557)
(341.7787198 469.3972589 -434.5476866)
(1302.299976 180.7348258 -189.7031573)
(1895.73633 -87.55710318 -694.601699)
(722.2288875 59.71698578 -239.9539697)
(294.3124878 -83.07291562 578.5999107)
(185.7337451 161.3086707 -449.2334883)
(1659.952761 -158.8117507 93.1047871)
(-575.2080852 802.2986866 -678.6861356)
(841.0946924 740.7335785 200.4062995)
(1052.797695 -308.2621212 736.2793717)
(993.5289205 486.6464565 1124.550462)
(1274.324656 691.6271711 -962.7223014)
(1325.634583 -116.7874067 -19.45866821)
(1447.537555 119.7140706 -103.9806774)
(1045.332506 344.863953 -815.2974038)
(1488.677307 430.1744703 235.9345072)
(-283.8282917 901.1523742 -592.6462785)
(-15.95271689 255.0504648 98.05219334)
(743.9859303 -284.1897438 -299.4688602)
(710.2100995 673.9181403 -28.14386449)
(2195.08697 1310.794783 -642.8468198)
(1437.30031 450.971782 -953.3601253)
(1063.344312 -465.8740094 490.2926549)
(311.4431163 966.2313787 267.1482293)
(-243.0080335 297.5442191 -254.5536182)
(1640.356087 892.7624441 -201.2891704)
(931.1774868 -421.7038574 808.043815)
(13.46692704 89.28048871 144.5385098)
(1540.809903 45.09476732 -157.7361127)
(1434.021878 73.13885825 -225.5492396)
(488.9202518 -447.4474158 145.2484724)
(1266.88119 265.7829791 -9.6981854)
(664.1890875 427.0582847 -1174.653419)
(833.2639674 234.0068663 -592.8037711)
(360.3467112 197.4362071 108.9737888)
(905.4359624 72.59553325 606.103627)
(1645.031821 371.0321215 158.7711266)
(1237.943592 1.7275052 872.1071992)
(884.9319021 446.8249345 233.6748302)
(637.3149101 457.0480352 136.1558273)
(593.2318661 640.2221101 -1661.525597)
(612.6459331 562.3276733 -444.8462784)
(844.4743818 257.1622406 284.337989)
(1194.586998 -510.9516753 -19.12878174)
(-129.2646879 175.5007728 967.0993471)
(540.7518561 1190.541584 663.7800235)
(-185.08669 -229.6739773 -109.5914406)
(-93.58216329 334.0514938 988.1004935)
(-202.7567188 822.0802022 -1118.595918)
(833.6444157 1099.462521 -287.4076706)
(78.01647394 -105.1962367 -401.5772526)
(-36.02527449 233.4929466 -451.4381903)
(465.8579479 438.605594 125.4931533)
(700.7951409 496.0951245 -319.0639807)
(839.0263883 776.1279032 549.4831846)
(1117.255871 1128.519639 3.548930047)
(313.3634431 -78.20397141 283.3966576)
(1591.831934 962.7079734 828.3277796)
(388.0916177 270.4691573 -239.9790371)
(1059.981665 483.6813884 326.4437526)
(147.7392646 425.6815065 -833.3897463)
(739.1553633 -403.9110329 -239.257032)
(2191.567024 573.6260128 -1018.575128)
(1511.188464 239.4032119 56.01038327)
(309.1405332 -223.4586687 300.3803146)
(1669.218106 -408.4149197 -502.7219089)
(1307.697046 -419.1924685 108.1829725)
(678.4332362 -130.055036 -552.9298145)
(1780.082127 134.649456 154.3803136)
(-6.741075368 346.0466932 226.9990956)
(1296.288106 784.4127764 302.3847966)
(1589.060494 1060.225004 -1201.814863)
(1293.009847 18.88261101 44.50335267)
(476.9177481 103.9628342 626.1502921)
(1681.670828 866.6302309 -388.3159007)
(-436.9361682 50.03205124 79.70035985)
(1125.985365 -444.1468648 -437.4103608)
(1487.422797 933.9130929 409.2585901)
(1500.452305 239.7160242 -54.82495651)
(826.3814759 -828.2344411 645.3909612)
(963.3898457 469.6892348 -665.8619711)
(226.1615883 993.2519606 281.4488038)
(807.2076033 480.1869634 797.8409952)
(1896.508368 872.3384594 -1125.424613)
(1975.494705 75.71919654 1122.231314)
(1416.98141 -375.2746542 -106.4293257)
(1781.506958 614.2872518 -254.0094119)
(1900.685918 644.9703412 -844.1789579)
(736.1820385 216.4712086 -507.1793256)
(1520.671122 -430.7850798 633.4672177)
(1334.207438 -439.1342047 -488.8848224)
(1574.762729 -484.1440716 -186.3507232)
(2089.067679 -59.8820119 111.1289828)
(1451.61629 239.829 -364.3815472)
(183.5495475 -549.3272775 -235.0779831)
(1194.025268 872.2517674 114.6120409)
(1148.247689 -497.7463822 -761.2798174)
(1385.222309 -534.0470155 -1438.149607)
(206.4682624 976.2494919 -244.774356)
(1543.307616 1243.359118 628.6804725)
(807.2436717 968.3930883 111.7762826)
(1455.266917 -0.9193775048 528.2226352)
(444.5641693 198.8177539 57.86640121)
(578.9422308 652.9489241 -203.6490319)
(638.7259086 804.9913609 192.9472346)
(1093.207791 379.4776154 656.500769)
(1463.242649 254.431517 -244.8493425)
(1765.04677 1005.867009 36.34960809)
(681.1259562 315.8817451 -931.5347975)
(1214.560604 -75.39782824 63.5195562)
(1481.310863 569.4115436 -1288.285842)
(1301.458107 127.8779489 -24.69855563)
(1931.173037 -464.1261475 -71.66660363)
(1416.273848 135.5599765 448.2213107)
(550.974951 276.1866589 -19.13234897)
(1982.072317 -173.8607237 342.9305612)
(1280.831074 440.4832703 -288.671495)
(1449.053278 -329.6172558 -260.0777877)
(1768.123609 52.45084105 -70.67485836)
(120.9327942 160.3846788 313.859031)
(49.6622323 735.1217246 1059.987329)
(794.255835 620.7831563 -333.5755744)
(471.1075031 543.3908473 272.8992615)
(257.1873985 -905.3022444 406.9884135)
(460.9079985 1108.981195 887.0653678)
(640.946798 215.0183135 484.5270667)
(1397.528561 770.2383647 -434.4514825)
(1857.589971 461.5709345 -362.7220598)
(-230.700795 -146.3586517 -27.78976363)
(1501.735399 -420.654253 229.4192181)
(548.2930193 -225.2583632 485.6300126)
(1688.470474 750.8997609 -344.0171638)
(1140.044268 -14.35101158 -486.1776918)
(1354.984241 251.8390839 -13.30013882)
(1719.048097 225.4612051 -532.289817)
(1156.350218 -120.5310032 -54.38274352)
(1385.261218 172.9995182 -357.9784058)
(1871.448073 110.2592741 -56.83037272)
(1789.568802 294.4441179 -74.60516678)
(435.2990215 -136.8728845 -486.5676863)
(1683.361929 729.2846758 358.9265907)
(732.2484008 175.993807 -9.718179325)
(320.4072744 537.1873687 107.865428)
(1839.701964 -185.29737 -912.0509448)
(1454.486917 441.6139912 156.0458132)
(229.2276316 490.6682871 583.2613073)
(-113.464685 -329.6786775 1320.675905)
(386.8799004 -84.40524293 -31.82441504)
(1953.296831 249.7080061 -607.4566819)
(120.736195 600.6404485 -380.9691941)
(-503.9338378 740.3986728 102.3980876)
(1161.722487 -25.312423 243.0144057)
(208.2198116 -173.8116372 638.0336476)
(1679.896123 -320.749219 423.8085705)
(1364.691228 260.9961536 158.6368999)
(1621.942511 139.1561861 463.7322934)
(1456.194753 -137.4265787 7.251033793)
(1207.094617 143.2251177 501.8938325)
(2316.808432 -35.75021543 324.0692458)
(1264.583277 546.7606584 -13.62319174)
(1447.740881 69.6416661 32.91092018)
(1437.465078 702.8551778 -231.1588014)
(1532.20682 -178.9282203 213.3086481)
(1511.925189 601.8201459 785.3519219)
(807.2688081 213.4097658 230.1143671)
(876.6068867 -447.3310111 -72.66773739)
(1120.35235 517.6956602 22.37745426)
(1360.853952 601.9753766 -408.9317681)
(927.8517955 485.1919079 563.0525416)
(290.8317219 377.3192124 -154.6727295)
(1073.808954 1356.721845 696.9972637)
(1519.00276 577.1912341 777.7191234)
(-292.3479732 761.4595421 115.6694082)
(-265.4983471 878.9508661 -339.7835666)
(2036.90325 172.8241247 80.99334402)
(-194.6397444 101.7133973 -1431.558926)
(882.4037335 -594.7322741 -413.3871035)
(1233.040388 630.0876172 11.02389439)
(819.9007099 620.0009698 -230.4972841)
(1435.072234 -109.3129724 -676.0243878)
(950.3298747 -470.4022493 -309.4178524)
(1505.027765 921.208075 -1042.411322)
(1694.818943 67.66159314 -377.9814554)
(1711.068696 -159.6130734 540.2168848)
(1267.093458 210.7643722 56.76023884)
(1118.025897 -191.1811582 -144.3851528)
(1196.791556 117.9020656 -289.2586126)
(1073.788516 -232.0635173 146.7468661)
(1280.596064 -199.0139662 118.0400645)
(1683.505738 -59.05483051 603.7745133)
(1597.055091 221.5988201 17.73299338)
(445.04747 -371.8944798 -845.995202)
(499.2633763 568.4648475 125.619556)
(1371.047471 -47.69310166 717.6266168)
(250.5170841 682.0595687 -676.8718721)
(1861.550094 327.229937 -466.8565847)
(895.4851263 -706.33864 20.12471006)
(1376.869325 594.193782 -217.6202115)
(724.5255652 1802.312046 117.9642776)
(1233.819324 516.5409889 -880.7639968)
(959.4870819 1017.809671 -1177.583728)
(1108.422388 587.0494484 -99.2675763)
(208.2807233 -15.90283226 268.668489)
(976.0220245 131.3990912 179.3212007)
(335.3189492 202.9361101 -1052.098795)
(1253.922665 308.7571708 299.8508642)
(1109.253814 318.2893809 -916.5508375)
(1138.753448 177.0102825 257.7118404)
(1803.302538 -185.1317942 218.4580899)
(1243.798508 -399.9471098 -139.4848914)
(1197.415452 -431.5808653 246.6101858)
(1942.22066 -78.85461253 -4.351862777)
(1828.40796 -217.3021677 333.3980932)
(1687.906525 -79.78063572 829.0066468)
(1594.196883 -555.7771073 -373.968003)
(1949.053006 -564.9071302 39.76500377)
(1475.603425 113.880068 -301.0108845)
(953.2534033 302.6302246 -165.5506193)
(101.8344864 151.7417018 423.8490637)
(690.0044302 -25.83151104 447.5765494)
(-5.525870257 468.2190458 -275.7743171)
(967.6176603 -494.3510523 926.5198824)
(-153.0839341 992.6146458 724.3627391)
(826.6161269 547.8548933 220.9345641)
(655.3424134 1066.393789 -1357.40667)
(1457.787314 397.5812731 -104.296207)
(-365.5163056 1497.024321 -200.6919367)
(1797.635542 40.01088036 -209.6109512)
(-85.23896521 -232.0074014 -181.1882006)
(496.5884611 121.4297446 -397.4597118)
(523.2593099 -126.2760364 703.6046057)
(2067.247075 944.3588361 -123.0592753)
(-269.7417943 1735.863352 656.1934238)
(835.1111015 195.7389926 393.2806784)
(1534.041465 109.6298083 412.2356268)
(1045.879281 586.047866 425.6960201)
(1178.868816 -574.9047889 -1188.834036)
(1341.72365 522.2280793 959.2799837)
(1254.705604 1081.676826 296.1177898)
(1539.984454 88.91077623 -131.8543093)
(541.3336082 1523.313804 907.9401096)
(514.7958199 -40.13468573 786.7876174)
(1621.632507 679.0584845 -223.966345)
(1228.331869 299.4958844 40.65198151)
(1660.155486 -63.21908415 -371.8350946)
(1029.023736 32.58070579 269.2703015)
(2021.023037 259.7093377 595.2141988)
(1919.67427 41.18358712 207.6317)
(1883.165126 -46.60709386 -304.2518848)
(1590.882839 -489.3694372 109.6908175)
(1769.857472 -295.4460883 70.43661563)
(1755.632548 115.2051027 -34.57615954)
(1613.207698 -257.3812142 -214.9988196)
(1521.019908 -418.2718945 75.70065626)
(1560.309362 -114.7525499 -341.5240631)
(-535.7488141 157.7110431 -157.7419706)
(78.49298049 1119.827311 558.3726637)
(1679.156798 50.72697825 321.5623102)
(127.9113093 433.0125514 -427.2572059)
(-237.9690479 466.5179765 925.440829)
(305.163288 277.3104915 715.9242423)
(891.6849511 -50.34372364 186.2239796)
(331.8358154 273.8896572 -507.1716845)
(783.6525299 176.5245014 704.855759)
(148.1888575 -453.6244681 -119.4177503)
(305.2024789 -193.8996305 -336.7848597)
(1457.132463 -824.5869351 -303.3104243)
(1994.862044 -473.7774801 153.3649629)
(432.9488861 -344.4726992 -831.3638664)
(636.8079692 240.3255139 -486.5162112)
(1961.123404 952.3703092 180.335851)
(1449.110569 316.8720304 609.6995206)
(866.3152161 745.8319061 521.7555941)
(836.4794162 839.3319065 76.86014019)
(1469.551503 -397.6882485 -52.61549506)
(-60.81301506 -501.4222542 -324.9493839)
(138.9614674 1015.355536 -469.0944758)
(1567.915165 165.976463 -193.1143224)
(385.1650654 890.8965594 -401.8071165)
(1159.203715 1169.465644 -375.5469636)
(1591.505403 -11.17394346 182.1101701)
(1450.844723 464.5334025 -122.171342)
(1664.181243 -321.9163215 -611.2387596)
(-237.7198505 516.0207617 -777.2083433)
(1299.010058 277.4479456 255.6530535)
(278.861962 -572.5313215 -76.61455164)
(2309.690772 386.3497853 -367.2429853)
(2045.11413 -108.9311826 145.8537956)
(1532.758519 202.5013555 -49.38603249)
(1428.78094 159.8118414 252.0949951)
(1555.180982 -324.915096 375.5263854)
(1464.425898 -144.6927968 -235.6751687)
(2029.062383 -159.6627635 335.0752662)
(1750.948829 -109.157873 432.9930382)
(1151.384367 767.912708 -346.8458858)
(-241.4384983 1006.428149 -309.685271)
(303.6656523 -30.02479162 -461.2614127)
(1385.999119 235.2168782 225.0343641)
(447.6631247 1008.156325 220.7615292)
(-452.0600782 186.4698604 103.2341078)
(1811.1616 370.8039749 570.9368777)
(1815.071092 343.1994371 28.08998629)
(498.8553033 1101.158198 172.2916914)
(-60.73984261 428.9682567 -333.7698566)
(-185.558434 232.257099 654.5794207)
(1389.849097 -252.4731553 -344.0468808)
(322.2134063 295.8950108 27.20980825)
(1704.533433 -189.7104423 -798.5156532)
(1157.25447 995.8319015 112.2069579)
(-77.91080505 520.6239534 562.9302291)
(685.5435074 -617.1663768 -397.6315778)
(294.4300765 1236.840082 -789.5965822)
(311.5274407 680.793351 514.2113484)
(1295.489536 38.20999317 -336.2954901)
(1768.241758 -272.5654885 195.1879398)
(689.7377928 124.0897042 253.9275006)
(1283.346935 151.2589631 94.91136829)
(1816.715702 320.9875075 32.38074716)
(1858.780012 -122.7038687 -564.6616643)
(1627.762266 117.1456421 1427.70353)
(1702.432803 -97.07747335 -566.1659365)
(1535.444637 256.7148378 200.264604)
(1424.616609 -287.1596326 244.7399296)
(1671.230573 200.6994514 220.701812)
(887.2696043 -167.2549586 133.6995056)
(1780.732294 -53.78280101 79.25587864)
(1360.833379 367.8800932 -40.22581702)
(2164.036763 53.69936443 277.9235677)
(1230.451118 -18.86080739 -826.2668103)
(1473.934196 387.1738662 -88.8649006)
(1648.073304 153.0966313 -119.7481243)
(1642.345165 -41.01315366 -105.8088836)
(969.3149118 957.8873441 -1159.475378)
(412.2591529 18.33763582 290.1310085)
(1363.136571 90.13610959 -584.5755243)
(115.9770541 254.3053093 345.9390218)
(1332.611167 -5.587864575 -293.4620506)
(-389.0388417 242.4670955 361.8938256)
(-182.9849429 247.0260055 290.8069002)
(1676.210581 -11.54240938 -249.5051435)
(1576.982897 1197.462983 -95.57667544)
(682.9820208 177.4250296 -940.7017759)
(1551.419297 235.1467484 -1359.588138)
(1609.767779 563.8771118 -937.7686248)
(86.35792035 965.9507652 45.25690346)
(463.1292179 277.4874891 -387.1833687)
(-531.5638474 -207.3547972 -597.4570495)
(1593.336292 557.9517941 -148.7350894)
(-684.1550719 350.8011145 65.31995254)
(828.5156167 1827.338764 641.3326778)
(2316.265447 -334.7690468 121.5095049)
(1450.921197 909.6590114 -70.43896907)
(1731.002392 193.2240126 -274.2350269)
(2223.999761 225.1958166 117.3911301)
(2173.302445 1546.089795 -282.2077509)
(1646.412233 -247.4172729 304.1296968)
(2118.489153 619.0026746 -448.3737219)
(1629.233153 -172.246464 -0.475544648)
(581.0466063 297.9066398 -812.8251575)
(1270.72251 -420.7921918 810.118373)
(1294.209993 -271.7167373 -519.3558521)
(731.0940601 36.40833907 -652.8073156)
(528.1064952 281.8527524 -1285.137329)
(1484.913118 -26.75678221 -501.7037937)
(1612.550112 -209.7112969 360.5140276)
(1925.544627 -154.4947659 -64.58555327)
(1425.012618 110.9427193 249.3157994)
(1521.084658 -312.1046175 -182.7751011)
(1488.684952 88.64934011 -11.84760382)
(1548.59105 -20.62062644 17.203762)
(1725.553231 -72.55929018 -72.70089584)
(1422.091197 -278.2380107 -361.2837832)
(1971.288307 -206.5378056 499.7863832)
(1779.878415 140.2832434 -110.8285282)
(1521.035293 -34.66820282 320.1650555)
(1431.87595 -621.8193226 215.7780887)
(2346.995827 -276.3353943 3.277125711)
(1972.421876 -113.1198691 -124.8137141)
(1494.231574 644.4987087 -368.0253748)
(1313.959885 -554.9891877 -480.707831)
(75.98693136 414.7279458 166.1871451)
(3.223336578 905.0362606 227.5527668)
(1163.371128 23.75304812 316.3597007)
(1826.11766 598.2554458 -381.6591433)
(-144.540554 331.2433429 101.5667706)
(-30.22184248 761.0686426 36.70841375)
(1031.675113 1597.180068 31.41370022)
(616.9823649 532.3521606 -57.03366732)
(-326.3827398 878.027389 -318.141585)
(822.2555537 456.1459763 243.0929898)
(-310.5050839 868.3964027 -256.7511102)
(734.5443871 364.2148 -234.2793745)
(437.9428629 -10.04683063 182.5452907)
(1710.274258 202.047339 194.3602892)
(934.7467375 -168.8485426 -745.3747169)
(705.6032774 -72.74080638 -470.4288801)
(955.9003987 19.18455751 526.941254)
(1679.808644 149.0208678 -613.6196154)
(1194.520369 669.0399516 -185.4999611)
(1747.508082 965.2266384 -416.3317474)
(1481.704135 -192.1383358 -21.69440167)
(1053.943283 1083.149307 100.2352404)
(520.2214869 -31.00393481 875.0434147)
(1983.784091 371.1203164 56.60139784)
(1710.443224 275.316725 -111.3616998)
(1997.53399 -111.4062016 -170.6646288)
(1704.390263 112.6620387 201.2681122)
(117.0761577 20.77278181 -125.8437266)
(907.4371691 -946.1557534 1479.484943)
(937.4391063 -494.8822187 454.3195238)
(853.7600578 124.0388739 -207.592062)
(1594.577848 49.22089872 -620.4376044)
(1549.314491 398.5299651 80.50120185)
(1567.477584 146.7193013 -547.7246731)
(1663.408161 264.0375247 -98.91441014)
(1429.159314 -512.9072532 147.2143135)
(-67.88860101 349.8428334 481.336936)
(542.5704729 8.097721215 147.8832871)
(130.480553 407.227006 -468.3505611)
(1583.752253 32.28493552 -294.349618)
(1317.017017 205.9860732 22.85521513)
(372.5492344 757.722913 61.03673604)
(1166.896989 111.0243764 1098.628961)
(1566.614326 -569.0223755 182.5476623)
(978.1538263 924.261967 -157.3351477)
(1063.158803 651.3766835 574.3870636)
(438.1400169 1269.906016 -640.7462313)
(1171.66976 931.9087637 614.8720175)
(1091.987274 49.32391086 -294.3317127)
(2025.673115 251.5963597 297.207816)
(-387.7168972 656.9963135 433.7949321)
(1456.527268 878.0854035 399.7171857)
(1828.736166 342.4298818 545.9711021)
(1685.766345 73.17626379 -367.1156883)
(1622.497601 -397.3338619 126.4405793)
(1697.558543 118.7894129 213.7673637)
(1873.05411 -170.0320991 -363.5097882)
(2070.880496 367.5584571 320.5218301)
(-888.7958444 -130.0859448 152.7403822)
(937.9000699 256.0443201 -71.96488275)
(1627.506131 -663.3056003 76.63075613)
(1392.878287 -444.3040547 58.77445064)
(2372.726276 -164.6221872 -605.4780448)
(859.7782429 -40.16990955 -459.8041736)
(1571.678146 121.3353452 264.6011301)
(1591.976677 126.9237738 -362.6844309)
(1889.756394 84.46004668 26.15638541)
(1638.039517 452.3706106 -516.5329446)
(1906.958506 -406.5375204 -71.20020564)
(1231.335085 -82.15184932 366.6105504)
(1261.44451 -786.708658 47.7056657)
(1182.046554 -199.9104486 -544.2803635)
(1993.310016 461.5581223 -752.332304)
(1645.463511 137.6261623 333.4401897)
(973.5463258 421.615841 -593.8640221)
(1647.962035 214.6977896 -334.8320277)
(1593.806983 -215.0356468 -30.45132565)
(1707.385697 -97.23681701 -458.0664232)
(2210.371183 -612.207364 -76.85096524)
(1718.47193 -463.8275322 66.64485088)
(1009.933046 268.5934651 -534.9415254)
(1964.51397 444.8552912 -191.7266314)
(1586.434402 -405.0470937 -427.3753036)
(1128.980071 1221.890846 711.2144448)
(1827.426292 -152.461902 -221.6029593)
(1544.115167 382.8913946 151.1224363)
(1647.027239 138.7019466 -86.28617201)
(1079.578553 -538.8231951 -748.3972722)
(1825.191134 -118.7938179 119.5220013)
(1332.825016 108.0462056 42.6917475)
(1516.208154 76.12085293 -236.8827107)
(1502.211811 93.39972088 -199.9546878)
(1575.153882 335.8858734 26.74479619)
(2059.327424 234.3034371 -100.6998881)
(953.593312 -29.36868212 368.5628805)
(910.2840034 1669.258654 -212.1867193)
(596.0649035 650.9242035 1010.390879)
(2170.2413 1196.305215 -166.8805795)
(1534.631931 -424.3961425 -464.1795701)
(1436.210315 408.4298076 -1079.897766)
(1101.088099 1031.324551 -19.80349397)
(1087.566985 -94.00645756 -674.6757806)
(974.9925258 207.5341217 378.8254162)
(1558.854539 640.4851132 -296.3109842)
(1959.076256 -97.66746594 24.63706675)
(1681.184778 223.9051719 -70.91513221)
(731.2779813 526.1811582 -350.6831549)
(1416.642428 -217.7884099 -6.681487296)
(1633.667159 610.2329318 -449.3411036)
(1325.094568 1045.943518 94.14187636)
(-195.6176226 199.2712802 622.8127934)
(222.4142307 -1334.562583 387.3481413)
(477.1374223 856.0919338 141.5642221)
(1135.385285 354.496893 294.5401082)
(1960.333631 350.6991021 -382.730533)
(1194.920711 268.1092212 51.87507403)
(1573.174525 -203.6879128 -362.8811398)
(1649.749536 206.1072621 -390.8467463)
(752.3670566 -610.0140464 529.2558615)
(2249.630342 566.2515463 109.4971225)