/*--------------------------------*- C++ -*----------------------------------*\
  =========                 |
  \\      /  F ield         | OpenFOAM: The Open Source CFD Toolbox
   \\    /   O peration     | Website:  https://openfoam.org
    \\  /    A nd           | Version:  7
     \\/     M anipulation  |
\*---------------------------------------------------------------------------*/
FoamFile
{
    version     2.0;
    format      ascii;
    class       volVectorField;
    location    "0.006";
    object      fD;
}
// * * * * * * * * * * * * * * * * * * * * * * * * * * * * * * * * * * * * * //

dimensions      [1 -1 -2 0 0 0 0];

internalField   uniform (0 0 0);

boundaryField
{
    flow
    {
        type            zeroGradient;
    }
    obstacle
    {
        type            calculated;
        value           nonuniform List<vector> 
40
(
(6.51079671 -5.89105242 0.7307282776)
(0.1491909597 -4.090974544 1.083874385)
(4.55316552 -4.454870389 1.582233173)
(2.865617447 -2.886527705 -1.941353498)
(1.077504278 -4.99831382 0.3093468093)
(8.783726919 -4.469900148 1.091885755)
(3.402038595 -3.178740893 0.5815396796)
(0 0 0)
(0 0 0)
(5.011859293 -1.310389715 -0.5320846249)
(1.273016278 -2.383144789 0.09971311953)
(0 0 0)
(1.77550204 -1.535657684 -0.8367153983)
(0 0 0)
(0.01475304508 -1.30579357 0.3228214813)
(0 0 0)
(9.699144393 -9.832640944 -0.9996077204)
(2.600071925 -4.945672032 -2.646536979)
(0 0 0)
(2.607569555 -4.586878376 0.1083400526)
(2.647260049 -5.108032341 0.5738391112)
(0 0 0)
(-0.3251682772 -0.9304642495 0.9236709501)
(6.209023837 -6.047701963 2.346789793)
(5.057894969 -3.693932018 1.382272542)
(4.555950668 -5.557414104 0.9259300606)
(2.023214778 -2.245220348 -2.059234977)
(1.082179939 -4.417376811 5.849124713)
(1.398927467 -1.116634335 -0.2045206263)
(0 0 0)
(0 0 0)
(2.125314291 -1.47719163 0.1420585982)
(3.038156885 -2.506225587 -0.2323363975)
(0 0 0)
(7.628027834 -4.40346083 -0.4106075443)
(0 0 0)
(5.808225997 -4.677136859 -2.443186053)
(-1.04007128 -1.45771355 0.1076162092)
(0 0 0)
(1.908213249 -0.9149123989 0.316151762)
)
;
    }
    frontAndBack
    {
        type            empty;
    }
}


// ************************************************************************* //
