/*--------------------------------*- C++ -*----------------------------------*\
  =========                 |
  \\      /  F ield         | OpenFOAM: The Open Source CFD Toolbox
   \\    /   O peration     | Website:  https://openfoam.org
    \\  /    A nd           | Version:  7
     \\/     M anipulation  |
\*---------------------------------------------------------------------------*/
FoamFile
{
    version     2.0;
    format      ascii;
    class       volScalarField;
    location    "0.006";
    object      iDofMean;
}
// * * * * * * * * * * * * * * * * * * * * * * * * * * * * * * * * * * * * * //

dimensions      [0 -3 0 0 0 0 0];

internalField   nonuniform List<scalar> 
2400
(
1.529469185e+20
1.980464728e+20
1.988032233e+20
1.973660916e+20
1.983588928e+20
1.96942589e+20
1.971230983e+20
1.964010611e+20
1.957206799e+20
1.964357744e+20
1.97046729e+20
1.970744997e+20
1.978312502e+20
1.966579397e+20
1.979006768e+20
1.971369836e+20
1.975535436e+20
2.027466573e+20
2.143756218e+20
2.69437901e+20
1.544604195e+20
1.978034795e+20
1.98789338e+20
1.992128406e+20
2.005597177e+20
2.003653231e+20
2.000459604e+20
2.003444951e+20
2.019551934e+20
2.013581242e+20
2.005250044e+20
1.994697192e+20
1.989698473e+20
1.999071071e+20
1.984769181e+20
2.013789522e+20
2.023509254e+20
2.049544249e+20
2.195548502e+20
2.588017376e+20
1.551824567e+20
1.994697192e+20
2.005180617e+20
1.995183179e+20
1.991572993e+20
1.986504847e+20
1.983519501e+20
1.970536717e+20
1.961302972e+20
1.969078757e+20
1.981228421e+20
1.977618235e+20
1.992475539e+20
1.994350059e+20
2.010734749e+20
2.017746841e+20
2.031979305e+20
2.083007896e+20
2.18666189e+20
2.396608091e+20
1.559044939e+20
1.993378086e+20
2.00698571e+20
2.014344935e+20
2.011776149e+20
2.012886975e+20
2.014900348e+20
2.028924533e+20
2.029827079e+20
2.02524492e+20
2.012817549e+20
2.010734749e+20
2.014622642e+20
2.006083163e+20
1.998168525e+20
2.00781883e+20
2.022884414e+20
2.05968054e+20
2.138826926e+20
2.275597434e+20
1.551477434e+20
1.994836045e+20
1.995877445e+20
1.999001645e+20
2.001570431e+20
2.00677743e+20
1.995599739e+20
1.992892099e+20
1.996155152e+20
1.998793365e+20
2.007124563e+20
2.0264946e+20
2.017538561e+20
2.016080602e+20
1.999557058e+20
2.00719399e+20
2.021218174e+20
2.044823236e+20
2.102586212e+20
2.180274638e+20
1.555365327e+20
2.000320751e+20
2.018232828e+20
1.994558339e+20
1.98955962e+20
1.992406113e+20
1.985185741e+20
1.978659635e+20
1.978104222e+20
1.975535436e+20
1.964913158e+20
1.975049449e+20
1.992892099e+20
2.009762776e+20
2.018649388e+20
2.029618799e+20
2.024550653e+20
2.038852544e+20
2.068150592e+20
2.112930784e+20
1.555434753e+20
1.978729062e+20
2.008513096e+20
2.008999083e+20
2.018996521e+20
2.000043045e+20
2.013164682e+20
2.031215612e+20
2.023717533e+20
2.00781883e+20
2.009693349e+20
1.996779992e+20
1.997474258e+20
1.985046887e+20
1.990045606e+20
1.982269821e+20
2.002611831e+20
2.015247482e+20
2.038158277e+20
2.082591336e+20
1.547797821e+20
1.98955962e+20
1.98706026e+20
1.974563463e+20
1.983588928e+20
1.978520782e+20
1.978590208e+20
1.964843731e+20
1.980742435e+20
1.998237952e+20
1.995669165e+20
2.003722657e+20
2.011845576e+20
1.998099098e+20
2.013095255e+20
2.029202239e+20
2.016844295e+20
2.015941748e+20
2.030451919e+20
2.047183742e+20
1.55487934e+20
2.016983148e+20
2.014136655e+20
2.010804176e+20
2.004139217e+20
2.019343654e+20
2.033090132e+20
2.034200958e+20
2.032048732e+20
2.024134093e+20
2.018927094e+20
2.009971056e+20
2.006499723e+20
2.002472977e+20
1.996849418e+20
1.983588928e+20
1.998654511e+20
2.029965932e+20
2.045517503e+20
2.067456325e+20
1.553768513e+20
1.998515658e+20
2.021565307e+20
2.036839171e+20
2.036839171e+20
2.016497161e+20
2.00802711e+20
2.003444951e+20
1.994974899e+20
1.98643542e+20
1.98601886e+20
2.004416924e+20
2.002472977e+20
2.00677743e+20
2.00615259e+20
2.026147466e+20
2.023092694e+20
2.018024548e+20
2.037464011e+20
2.035797771e+20
1.548978074e+20
1.979215048e+20
1.978590208e+20
1.979145622e+20
1.97046729e+20
1.995113752e+20
1.979978742e+20
1.99039274e+20
1.983519501e+20
1.993308659e+20
2.000251324e+20
1.992822673e+20
1.993516939e+20
2.006013737e+20
2.012886975e+20
1.9876851e+20
2.003792084e+20
2.018927094e+20
2.018371681e+20
2.036422611e+20
1.550088901e+20
2.006638577e+20
2.013164682e+20
2.000390178e+20
2.016080602e+20
2.010457043e+20
1.996224579e+20
2.003444951e+20
1.999487631e+20
2.001292724e+20
2.002472977e+20
2.000459604e+20
2.007124563e+20
2.014136655e+20
2.021079321e+20
2.0244118e+20
2.008999083e+20
2.002264697e+20
2.001570431e+20
2.012400989e+20
1.53870293e+20
1.985255167e+20
2.000737311e+20
1.983797208e+20
1.991503566e+20
1.995738592e+20
2.007263417e+20
2.02191244e+20
2.037602864e+20
2.02295384e+20
2.034062105e+20
2.029549372e+20
2.032951278e+20
2.027674853e+20
2.012470416e+20
2.016288882e+20
2.017955121e+20
2.020523907e+20
2.035658918e+20
2.04308757e+20
1.564529645e+20
2.002681257e+20
2.010804176e+20
2.023231547e+20
2.017052575e+20
2.018163401e+20
2.019413081e+20
2.011984429e+20
1.998307378e+20
2.010595896e+20
1.999348778e+20
2.00427807e+20
1.984283194e+20
1.987546247e+20
1.994419486e+20
2.005180617e+20
2.003306097e+20
2.00448635e+20
2.016705441e+20
2.021079321e+20
1.543423942e+20
1.988795927e+20
1.998585085e+20
1.992683819e+20
1.999209925e+20
1.985949434e+20
1.979978742e+20
1.976368556e+20
1.975327156e+20
1.962691505e+20
1.966995957e+20
1.992406113e+20
1.993378086e+20
2.000181898e+20
2.00823539e+20
2.00511119e+20
2.016497161e+20
2.00552775e+20
2.005041764e+20
2.008721376e+20
1.548561514e+20
1.988171087e+20
1.996224579e+20
1.994419486e+20
1.978312502e+20
1.99039274e+20
2.002125844e+20
2.004416924e+20
2.006638577e+20
2.006638577e+20
2.005250044e+20
1.993725219e+20
2.000251324e+20
2.014414362e+20
1.989837326e+20
1.99101758e+20
1.980187022e+20
1.986296567e+20
2.015386335e+20
2.00469463e+20
1.538633503e+20
1.972411236e+20
1.981297848e+20
1.975813142e+20
1.991434139e+20
1.995877445e+20
1.999695911e+20
2.001709284e+20
2.023092694e+20
2.010595896e+20
1.992475539e+20
1.9887265e+20
1.977826515e+20
1.987199114e+20
1.986157714e+20
1.995113752e+20
2.007541123e+20
1.992961526e+20
1.985741154e+20
1.989629046e+20
1.561127739e+20
1.991711846e+20
2.003514377e+20
2.00594431e+20
2.000251324e+20
1.989906753e+20
1.983588928e+20
1.976299129e+20
1.947625921e+20
1.969287037e+20
1.978034795e+20
2.002542404e+20
2.00552775e+20
2.001362151e+20
2.004555777e+20
2.00594431e+20
1.986921407e+20
2.016358308e+20
2.014136655e+20
2.020732187e+20
1.543562795e+20
1.98997618e+20
2.003583804e+20
2.010109909e+20
1.991156433e+20
1.995738592e+20
1.993239232e+20
2.008165963e+20
2.004972337e+20
2.013720095e+20
2.011845576e+20
1.998862791e+20
1.992614393e+20
1.992336686e+20
2.00386151e+20
2.012053856e+20
2.02316212e+20
2.003722657e+20
1.997751965e+20
1.987546247e+20
1.564460218e+20
2.020037921e+20
2.026425173e+20
2.020801614e+20
2.014830922e+20
2.017260855e+20
2.00886023e+20
2.018441108e+20
2.009971056e+20
2.016427735e+20
2.009693349e+20
2.015178055e+20
2.015594615e+20
2.009554496e+20
2.008790803e+20
1.999765338e+20
1.997265978e+20
2.003722657e+20
2.006916283e+20
1.998029672e+20
1.552727114e+20
1.975743716e+20
1.988795927e+20
1.991850699e+20
1.999765338e+20
2.003236671e+20
1.993239232e+20
2.000181898e+20
2.007888256e+20
1.997196552e+20
2.015316908e+20
2.007888256e+20
1.999348778e+20
2.006916283e+20
2.004625204e+20
1.987962807e+20
1.995530312e+20
1.993447512e+20
2.004000364e+20
2.003306097e+20
1.545159608e+20
1.985532874e+20
1.997960245e+20
1.985532874e+20
1.984144341e+20
1.991295286e+20
1.991364713e+20
1.992336686e+20
1.983102941e+20
1.972411236e+20
1.974702316e+20
1.978034795e+20
1.986365994e+20
1.994766619e+20
2.011915002e+20
2.015316908e+20
2.029827079e+20
2.018232828e+20
1.999209925e+20
1.993239232e+20
1.555157047e+20
1.991295286e+20
2.008304816e+20
1.998099098e+20
2.003306097e+20
2.000667884e+20
2.002750684e+20
2.013928375e+20
2.026008613e+20
2.015039202e+20
2.023023267e+20
2.0233704e+20
2.005250044e+20
1.992614393e+20
1.98893478e+20
1.967065384e+20
1.957901066e+20
1.969078757e+20
1.983797208e+20
1.982408674e+20
1.553768513e+20
1.998446231e+20
1.999904191e+20
2.008513096e+20
2.027535999e+20
2.033714972e+20
2.028299693e+20
2.007541123e+20
2.003306097e+20
2.00656915e+20
2.013025829e+20
2.002472977e+20
1.992614393e+20
1.999418205e+20
1.997127125e+20
2.00844367e+20
2.00469463e+20
2.006430297e+20
1.995599739e+20
1.977062822e+20
1.549325208e+20
1.987754527e+20
2.004555777e+20
1.999834765e+20
1.983241794e+20
1.98789338e+20
1.976368556e+20
1.988379367e+20
1.978173649e+20
1.994627766e+20
1.98830994e+20
1.992267259e+20
1.992336686e+20
2.003236671e+20
1.995877445e+20
1.9908093e+20
1.985324594e+20
1.984352621e+20
1.998029672e+20
2.010109909e+20
1.547034128e+20
1.991781273e+20
1.988379367e+20
1.970328437e+20
1.973799769e+20
1.973452636e+20
1.990323313e+20
1.986574274e+20
1.999001645e+20
1.980950715e+20
1.979284475e+20
1.980464728e+20
1.975743716e+20
1.972688943e+20
1.981783835e+20
1.982616954e+20
1.989629046e+20
2.003097817e+20
2.00781883e+20
2.011706722e+20
1.550366607e+20
1.981575555e+20
1.996085725e+20
1.994002926e+20
2.002958964e+20
1.993794646e+20
1.973174929e+20
1.965329718e+20
1.964704878e+20
1.96963417e+20
1.974008049e+20
1.973938623e+20
1.987129687e+20
1.998168525e+20
1.998446231e+20
2.007541123e+20
2.00719399e+20
2.013303535e+20
1.998932218e+20
2.004416924e+20
1.551060874e+20
2.002820111e+20
2.013789522e+20
2.010387616e+20
2.015108628e+20
2.030243639e+20
2.025730906e+20
2.019551934e+20
2.025314347e+20
2.035520065e+20
2.034200958e+20
2.017677415e+20
2.015941748e+20
2.018232828e+20
2.024967213e+20
2.020871041e+20
2.023509254e+20
2.009832203e+20
2.004625204e+20
2.007679976e+20
1.550783167e+20
1.987129687e+20
2.012748122e+20
2.011151309e+20
2.00427807e+20
2.003444951e+20
2.018927094e+20
2.034478665e+20
2.025730906e+20
2.02253728e+20
2.016566588e+20
2.033506692e+20
2.030243639e+20
2.017260855e+20
1.992892099e+20
1.982686381e+20
1.9887265e+20
1.9887265e+20
1.996363432e+20
1.991642419e+20
1.548283808e+20
1.997613112e+20
2.021218174e+20
2.012053856e+20
2.022814987e+20
2.032187585e+20
2.026216893e+20
2.021287601e+20
2.02399524e+20
2.031285039e+20
2.030937905e+20
2.018093975e+20
2.00698571e+20
2.00594431e+20
2.012748122e+20
2.022467854e+20
2.027883133e+20
2.001223298e+20
1.995877445e+20
2.000945591e+20
1.554185073e+20
1.990253886e+20
1.996710565e+20
1.994766619e+20
1.996502285e+20
1.974841169e+20
1.984560901e+20
1.980742435e+20
1.975743716e+20
1.978451355e+20
1.96838449e+20
1.988448793e+20
2.000043045e+20
2.005874883e+20
2.012539842e+20
2.015872322e+20
2.019899068e+20
2.036492038e+20
2.04142133e+20
2.04517037e+20
1.549533488e+20
1.9908093e+20
1.998029672e+20
1.979701035e+20
1.990253886e+20
2.008929656e+20
1.993586366e+20
1.98726854e+20
1.993586366e+20
1.998932218e+20
2.006916283e+20
1.992753246e+20
2.005250044e+20
2.013095255e+20
2.016913721e+20
2.008165963e+20
2.009971056e+20
2.022606707e+20
2.026147466e+20
2.019204801e+20
1.557586979e+20
2.00698571e+20
2.019690788e+20
2.009137936e+20
2.008929656e+20
2.011845576e+20
2.02316212e+20
2.020385054e+20
2.009832203e+20
2.00886023e+20
2.014553215e+20
2.010318189e+20
2.003097817e+20
2.012331562e+20
2.024897787e+20
2.029202239e+20
2.012539842e+20
2.006916283e+20
2.010387616e+20
2.015386335e+20
1.550644314e+20
1.976229702e+20
2.007263417e+20
2.005597177e+20
2.010873603e+20
2.004208644e+20
1.991642419e+20
1.985116314e+20
1.995530312e+20
2.008929656e+20
2.008096536e+20
1.998237952e+20
1.999071071e+20
2.002403551e+20
1.98706026e+20
1.98706026e+20
2.000876164e+20
2.000806738e+20
1.986296567e+20
1.976993395e+20
1.556684433e+20
1.997821392e+20
1.998793365e+20
2.011359589e+20
1.993100379e+20
1.995599739e+20
2.010387616e+20
2.011776149e+20
2.018649388e+20
2.022814987e+20
2.015316908e+20
2.013095255e+20
2.003306097e+20
2.001362151e+20
2.001778711e+20
1.998723938e+20
2.00636087e+20
2.000529031e+20
1.996849418e+20
2.006708003e+20
1.560711179e+20
2.011567869e+20
2.015316908e+20
2.008304816e+20
2.003167244e+20
2.000529031e+20
1.995599739e+20
1.999140498e+20
1.978590208e+20
1.962136092e+20
1.980534155e+20
1.979284475e+20
2.001292724e+20
2.005041764e+20
1.994697192e+20
1.989281913e+20
1.991364713e+20
1.984769181e+20
1.991711846e+20
1.981853261e+20
1.553282527e+20
1.995252605e+20
2.00490291e+20
2.000876164e+20
2.013025829e+20
1.995877445e+20
1.992058979e+20
2.002125844e+20
2.015455762e+20
2.027327719e+20
2.014969775e+20
2.010943029e+20
1.992822673e+20
1.980117595e+20
1.983241794e+20
1.984352621e+20
1.993864072e+20
1.996571712e+20
1.999348778e+20
2.000251324e+20
1.55342138e+20
1.992544966e+20
1.991295286e+20
2.013303535e+20
2.013997802e+20
2.025730906e+20
2.036630891e+20
2.02357868e+20
2.011706722e+20
1.982547528e+20
1.998932218e+20
2.003097817e+20
2.005041764e+20
2.010873603e+20
2.002195271e+20
2.003028391e+20
1.999348778e+20
1.981922688e+20
1.974008049e+20
1.971786396e+20
1.549672341e+20
1.989073633e+20
1.999348778e+20
1.986990834e+20
1.981020141e+20
1.975743716e+20
1.965468571e+20
1.982269821e+20
1.98706026e+20
2.004208644e+20
1.991850699e+20
1.997474258e+20
1.986990834e+20
1.992058979e+20
1.993378086e+20
1.981644981e+20
1.994558339e+20
2.021426454e+20
2.025939186e+20
2.021357027e+20
1.52106856e+20
1.957901066e+20
1.969078757e+20
1.960816985e+20
1.966023984e+20
1.971786396e+20
1.982200394e+20
1.977895942e+20
1.979701035e+20
1.978451355e+20
1.994697192e+20
1.993239232e+20
2.00761055e+20
1.999626485e+20
2.00469463e+20
2.003236671e+20
1.996710565e+20
1.973313783e+20
1.965954557e+20
1.963941185e+20
4.869854122e+20
5.629201846e+20
6.022424641e+20
6.103747871e+20
6.030203907e+20
6.099891939e+20
6.111871522e+20
6.215486333e+20
6.213144577e+20
6.229476096e+20
6.114883478e+20
6.076039726e+20
6.217848665e+20
6.122536763e+20
6.075167023e+20
6.095386011e+20
6.177786768e+20
6.105468162e+20
5.973398338e+20
5.920837967e+20
5.79280389e+20
5.834350784e+20
5.887798286e+20
5.787793788e+20
5.900065628e+20
5.99872749e+20
5.812777187e+20
5.740145759e+20
5.699798255e+20
5.603248027e+20
5.681954145e+20
5.679473209e+20
5.579679206e+20
5.5724753e+20
5.508973669e+20
5.369438847e+20
5.103302718e+20
4.876120744e+20
4.435210197e+20
3.656750262e+20
3.312596061e+20
3.930683158e+20
4.422976367e+20
4.798509926e+20
4.972951994e+20
5.205622003e+20
5.294998625e+20
5.384925558e+20
5.456916207e+20
5.522605199e+20
5.461084795e+20
5.464194571e+20
5.558952508e+20
5.590903547e+20
5.533048174e+20
5.472915173e+20
5.469429754e+20
5.465496358e+20
5.357438304e+20
5.410448504e+20
5.400871527e+20
5.322736864e+20
5.402901483e+20
5.291942779e+20
5.376665313e+20
5.351376753e+20
5.244172773e+20
5.247506005e+20
5.209028952e+20
5.266853328e+20
5.21789226e+20
5.221201709e+20
5.190332917e+20
5.160988527e+20
5.016514435e+20
4.89966102e+20
4.785125808e+20
4.484927244e+20
4.04370208e+20
3.459506448e+20
2.768520707e+20
3.228953336e+20
3.588463184e+20
4.004911028e+20
4.313243993e+20
4.538508311e+20
4.711113216e+20
4.876754946e+20
4.997106364e+20
5.118318399e+20
5.106479578e+20
5.219140115e+20
5.299780615e+20
5.234595366e+20
5.240071343e+20
5.281105037e+20
5.292340497e+20
5.106926123e+20
5.165755104e+20
5.103734466e+20
5.135145094e+20
5.044318034e+20
5.088628669e+20
5.075302425e+20
5.142005984e+20
5.046395159e+20
4.990452538e+20
4.960310785e+20
4.980657987e+20
4.971812933e+20
4.972805185e+20
4.869079492e+20
4.910738234e+20
4.781341386e+20
4.831944308e+20
4.744472275e+20
4.471752955e+20
4.252970748e+20
3.98037957e+20
3.474795934e+20
2.501603986e+20
2.696991203e+20
3.036995064e+20
3.340555581e+20
3.630328015e+20
3.923981762e+20
4.209176642e+20
4.434877002e+20
4.514376043e+20
4.682333019e+20
4.831664277e+20
4.90975227e+20
4.972988764e+20
5.028074254e+20
5.064886138e+20
5.069811156e+20
5.082320781e+20
5.091397802e+20
5.075911045e+20
4.983883012e+20
4.976822822e+20
4.99689817e+20
4.987451353e+20
4.950409802e+20
4.958345056e+20
4.879201393e+20
4.902179922e+20
4.877962126e+20
4.874354786e+20
4.82898419e+20
4.774334616e+20
4.794394941e+20
4.804017939e+20
4.719011255e+20
4.650913135e+20
4.570972179e+20
4.422880837e+20
4.232739824e+20
3.929947382e+20
3.498632318e+20
2.330487446e+20
2.477906703e+20
2.68832763e+20
2.899477628e+20
3.166956568e+20
3.447162833e+20
3.71261614e+20
3.977779549e+20
4.196658426e+20
4.326299329e+20
4.504054527e+20
4.655431999e+20
4.76337448e+20
4.882721918e+20
4.944937431e+20
4.983026972e+20
5.040707935e+20
5.029442162e+20
4.935226854e+20
4.966910057e+20
4.951162025e+20
4.943703345e+20
4.941782179e+20
4.910817765e+20
4.925096095e+20
4.866598848e+20
4.779597895e+20
4.816542335e+20
4.83059302e+20
4.735328842e+20
4.754531362e+20
4.741806399e+20
4.684280803e+20
4.577621705e+20
4.49102496e+20
4.465956546e+20
4.329293938e+20
4.145103536e+20
3.947542195e+20
3.598726213e+20
2.184522807e+20
2.297546074e+20
2.43714015e+20
2.639496987e+20
2.792692251e+20
2.986069543e+20
3.294517278e+20
3.501511364e+20
3.767875976e+20
3.991422767e+20
4.126791079e+20
4.347098809e+20
4.503595456e+20
4.592628955e+20
4.763126935e+20
4.810545339e+20
4.946687934e+20
4.960786485e+20
4.945315444e+20
4.990928384e+20
5.025078027e+20
4.93524422e+20
4.968019401e+20
4.899328627e+20
4.938679e+20
4.911799977e+20
4.928780307e+20
4.787925314e+20
4.756594279e+20
4.788324917e+20
4.742526748e+20
4.685859287e+20
4.643803794e+20
4.643549532e+20
4.568246739e+20
4.420269722e+20
4.285595462e+20
4.194142562e+20
3.991011719e+20
3.749721684e+20
2.147805211e+20
2.236724345e+20
2.312747253e+20
2.450006315e+20
2.573076105e+20
2.720464811e+20
2.930251832e+20
3.118096825e+20
3.380365135e+20
3.56085658e+20
3.775999624e+20
3.965844392e+20
4.155553781e+20
4.345736434e+20
4.506358121e+20
4.601735441e+20
4.708274487e+20
4.81173036e+20
4.928315773e+20
4.913749496e+20
4.92993942e+20
4.849921016e+20
4.842654646e+20
4.841717675e+20
4.879847505e+20
4.899533496e+20
4.899553769e+20
4.885052311e+20
4.786142104e+20
4.758091127e+20
4.773195523e+20
4.772829247e+20
4.643714622e+20
4.565659389e+20
4.560533718e+20
4.482803041e+20
4.380568131e+20
4.271337086e+20
4.075880855e+20
3.84335796e+20
2.089001318e+20
2.147982147e+20
2.214419646e+20
2.298356867e+20
2.391566864e+20
2.504561773e+20
2.663046342e+20
2.840340793e+20
3.030440927e+20
3.237709235e+20
3.433882617e+20
3.643725473e+20
3.819578978e+20
4.023988623e+20
4.221624389e+20
4.374062788e+20
4.498332986e+20
4.619242228e+20
4.695563275e+20
4.762834338e+20
4.805750838e+20
4.86692058e+20
4.918414643e+20
4.925530463e+20
4.839598779e+20
4.857861095e+20
4.885491137e+20
4.918111344e+20
4.90614235e+20
4.789541196e+20
4.782483699e+20
4.822942944e+20
4.709422898e+20
4.629518499e+20
4.55463538e+20
4.495712468e+20
4.422788392e+20
4.267887534e+20
4.130735236e+20
4.014865991e+20
2.090882485e+20
2.110661315e+20
2.147031328e+20
2.225235092e+20
2.330180357e+20
2.427736938e+20
2.529370946e+20
2.621194503e+20
2.74529839e+20
2.884644964e+20
3.079576525e+20
3.291021827e+20
3.499693313e+20
3.683966628e+20
3.880036361e+20
4.098185328e+20
4.265551353e+20
4.375912636e+20
4.539309288e+20
4.65979571e+20
4.752653961e+20
4.810228235e+20
4.863808416e+20
4.877094284e+20
4.88518068e+20
4.866850868e+20
4.834577661e+20
4.905981188e+20
4.940083586e+20
4.920988816e+20
4.857403096e+20
4.874912871e+20
4.769246929e+20
4.669093183e+20
4.641838867e+20
4.566669011e+20
4.459835202e+20
4.384238739e+20
4.242984499e+20
4.057885502e+20
2.060365775e+20
2.111222532e+20
2.145901127e+20
2.184050745e+20
2.234698187e+20
2.283032132e+20
2.342661293e+20
2.449682349e+20
2.57615853e+20
2.683466626e+20
2.819791936e+20
3.007020811e+20
3.213503796e+20
3.347308919e+20
3.496924657e+20
3.712624448e+20
3.903394437e+20
4.120838278e+20
4.269062182e+20
4.36885369e+20
4.502340177e+20
4.624778349e+20
4.687690987e+20
4.787991528e+20
4.876430934e+20
4.887771132e+20
4.887185469e+20
4.891032002e+20
4.878145175e+20
4.925680312e+20
4.808683608e+20
4.775569113e+20
4.818104673e+20
4.769109203e+20
4.717155135e+20
4.674065112e+20
4.56552459e+20
4.487630921e+20
4.381484847e+20
4.206221929e+20
2.049009097e+20
2.084915554e+20
2.102882797e+20
2.119677974e+20
2.132984249e+20
2.192357184e+20
2.234921829e+20
2.340511641e+20
2.423748407e+20
2.513838397e+20
2.637553871e+20
2.736278194e+20
2.908492996e+20
3.096899193e+20
3.2245941e+20
3.432865768e+20
3.626575171e+20
3.778584616e+20
3.956157036e+20
4.144362396e+20
4.260015062e+20
4.438189743e+20
4.570689378e+20
4.713684135e+20
4.821682683e+20
4.870967738e+20
4.871597902e+20
4.787241899e+20
4.813708553e+20
4.841842232e+20
4.853898097e+20
4.890291703e+20
4.870439519e+20
4.821905429e+20
4.799821458e+20
4.749691012e+20
4.630564279e+20
4.540026238e+20
4.443019688e+20
4.343827344e+20
2.015775144e+20
2.011747086e+20
2.02956092e+20
2.051393045e+20
2.083130094e+20
2.120365461e+20
2.15290036e+20
2.210706809e+20
2.269643212e+20
2.353489621e+20
2.448062187e+20
2.572958798e+20
2.679602121e+20
2.829132843e+20
3.014664601e+20
3.168166213e+20
3.309863828e+20
3.491507667e+20
3.651513375e+20
3.858144024e+20
4.040607242e+20
4.197023596e+20
4.331028684e+20
4.463402947e+20
4.601939512e+20
4.696884581e+20
4.772820754e+20
4.820386419e+20
4.83412497e+20
4.910476481e+20
4.927415413e+20
4.880834522e+20
4.840750333e+20
4.836206281e+20
4.799730799e+20
4.789976036e+20
4.737362338e+20
4.608084211e+20
4.567312419e+20
4.497861673e+20
2.040718027e+20
2.052154606e+20
2.052235612e+20
2.062844997e+20
2.092943331e+20
2.141357032e+20
2.182250815e+20
2.19980434e+20
2.252544957e+20
2.290537865e+20
2.359149139e+20
2.430129613e+20
2.504139315e+20
2.602426028e+20
2.710594245e+20
2.842764344e+20
2.998940827e+20
3.171876524e+20
3.390083885e+20
3.570324371e+20
3.776656027e+20
3.934302872e+20
4.114325534e+20
4.281229982e+20
4.386529578e+20
4.53683222e+20
4.700305015e+20
4.79621145e+20
4.868238475e+20
4.887453641e+20
4.926188746e+20
5.020304699e+20
4.942477945e+20
4.853115464e+20
4.812434657e+20
4.79345511e+20
4.817460839e+20
4.774313482e+20
4.667612263e+20
4.543350255e+20
2.021557984e+20
2.027461106e+20
2.050752199e+20
2.077497798e+20
2.083130095e+20
2.082133378e+20
2.11098148e+20
2.14595071e+20
2.169633261e+20
2.177180166e+20
2.2077203e+20
2.279089304e+20
2.362448562e+20
2.452868326e+20
2.528629669e+20
2.649945073e+20
2.787904208e+20
2.943838759e+20
3.084884188e+20
3.297796416e+20
3.461221891e+20
3.657266812e+20
3.824568132e+20
4.006978636e+20
4.174536203e+20
4.327209921e+20
4.444636344e+20
4.569667175e+20
4.639522926e+20
4.753225859e+20
4.861346179e+20
4.828687951e+20
4.882743112e+20
4.911308238e+20
4.849003861e+20
4.844360721e+20
4.835291311e+20
4.844329245e+20
4.800937666e+20
4.739549488e+20
2.024762953e+20
2.036230116e+20
2.040085928e+20
2.021945178e+20
2.047530231e+20
2.051403458e+20
2.064848954e+20
2.085804397e+20
2.09807127e+20
2.133158501e+20
2.193512178e+20
2.234116215e+20
2.271909174e+20
2.336953494e+20
2.415845547e+20
2.511074867e+20
2.603853428e+20
2.72675757e+20
2.849271928e+20
2.989160909e+20
3.149661108e+20
3.315241953e+20
3.465528073e+20
3.64693083e+20
3.842796601e+20
4.001560153e+20
4.184223656e+20
4.301777797e+20
4.486270623e+20
4.635678885e+20
4.685220012e+20
4.837791553e+20
4.887379248e+20
4.892420321e+20
4.923231222e+20
4.88226527e+20
4.889891399e+20
4.823911896e+20
4.797174113e+20
4.683139846e+20
1.996615105e+20
1.994138954e+20
2.001305872e+20
2.013765212e+20
2.015296927e+20
2.029618387e+20
2.02808822e+20
2.039267794e+20
2.088121851e+20
2.110962072e+20
2.139895137e+20
2.153134462e+20
2.196548194e+20
2.24650015e+20
2.295126439e+20
2.366615677e+20
2.459694659e+20
2.540969474e+20
2.664976452e+20
2.757143887e+20
2.879496467e+20
3.049023722e+20
3.230868825e+20
3.384829891e+20
3.573221662e+20
3.78135168e+20
3.946175654e+20
4.128110966e+20
4.244030237e+20
4.404407526e+20
4.525129213e+20
4.630619246e+20
4.779321609e+20
4.897007387e+20
4.903540069e+20
4.879518481e+20
4.886473079e+20
4.873044159e+20
4.831422797e+20
4.845911102e+20
1.995988049e+20
2.003819908e+20
2.005473466e+20
2.017535096e+20
2.027688836e+20
2.030556141e+20
2.053442955e+20
2.057340989e+20
2.063432605e+20
2.077481839e+20
2.086876348e+20
2.11501657e+20
2.148053088e+20
2.211863325e+20
2.254142038e+20
2.297296984e+20
2.351438648e+20
2.424782907e+20
2.504671105e+20
2.624722841e+20
2.736344768e+20
2.84161272e+20
3.005720624e+20
3.148186879e+20
3.319729584e+20
3.460406834e+20
3.614517953e+20
3.817167895e+20
4.020827981e+20
4.15662916e+20
4.359780803e+20
4.480631369e+20
4.609835125e+20
4.773066713e+20
4.870782132e+20
4.92548007e+20
4.904673137e+20
4.913133103e+20
4.921184571e+20
4.837079245e+20
2.01500874e+20
2.006415543e+20
2.017340619e+20
2.020522561e+20
2.019379796e+20
2.024785261e+20
2.023656576e+20
2.028219031e+20
2.02687776e+20
2.043407722e+20
2.055768019e+20
2.088801091e+20
2.115115839e+20
2.139760602e+20
2.153452918e+20
2.178298646e+20
2.234969646e+20
2.29921636e+20
2.352786215e+20
2.426891864e+20
2.509835742e+20
2.631842857e+20
2.717685038e+20
2.871621207e+20
3.037071776e+20
3.190880454e+20
3.399427577e+20
3.545178102e+20
3.757568199e+20
3.948033169e+20
4.089457778e+20
4.252954029e+20
4.400406621e+20
4.536967704e+20
4.711619805e+20
4.799223187e+20
4.892385774e+20
4.900640269e+20
4.891734429e+20
4.921883683e+20
2.010340671e+20
2.00922162e+20
2.005402842e+20
2.002668911e+20
2.004337608e+20
2.010069518e+20
2.025400182e+20
2.033560493e+20
2.022455788e+20
2.050608585e+20
2.064517241e+20
2.086390473e+20
2.084455417e+20
2.100841977e+20
2.133731101e+20
2.171700548e+20
2.188663589e+20
2.225831228e+20
2.258970275e+20
2.330978676e+20
2.406869796e+20
2.49722902e+20
2.600683372e+20
2.719204262e+20
2.833578111e+20
2.979241662e+20
3.170952293e+20
3.341954624e+20
3.48147278e+20
3.650560199e+20
3.869519081e+20
4.063900426e+20
4.205510583e+20
4.34080319e+20
4.448738951e+20
4.590107546e+20
4.703918655e+20
4.79118813e+20
4.813639847e+20
4.847905382e+20
2.008598837e+20
2.015815902e+20
2.009641101e+20
2.013267288e+20
2.006558124e+20
2.009636716e+20
2.017844616e+20
2.034950736e+20
2.054441293e+20
2.04110642e+20
2.032810644e+20
2.048046554e+20
2.044384316e+20
2.060547039e+20
2.084272498e+20
2.103002884e+20
2.138055502e+20
2.189966339e+20
2.229101694e+20
2.272454018e+20
2.311569773e+20
2.367902131e+20
2.43932443e+20
2.515210216e+20
2.643417387e+20
2.743069989e+20
2.860812156e+20
3.002821659e+20
3.160064977e+20
3.356909835e+20
3.53601841e+20
3.715932298e+20
3.906658103e+20
4.063690459e+20
4.234586825e+20
4.390605364e+20
4.507968197e+20
4.638756873e+20
4.731781582e+20
4.727488841e+20
1.994455246e+20
1.993016509e+20
1.99346508e+20
2.006154288e+20
2.006271606e+20
1.996363679e+20
1.999246301e+20
1.997560515e+20
1.987522341e+20
2.000648046e+20
2.028099539e+20
2.028460307e+20
2.054250318e+20
2.066358074e+20
2.072793769e+20
2.098655912e+20
2.122959128e+20
2.127853051e+20
2.151332172e+20
2.17157706e+20
2.228212565e+20
2.276478613e+20
2.339376984e+20
2.406435453e+20
2.491005504e+20
2.605282141e+20
2.705614959e+20
2.845299903e+20
2.998628817e+20
3.119296325e+20
3.287776816e+20
3.480123487e+20
3.655147676e+20
3.83154896e+20
3.997295303e+20
4.167847646e+20
4.332712215e+20
4.470849503e+20
4.578791388e+20
4.670129499e+20
1.99041422e+20
1.991192559e+20
2.000034381e+20
1.999752576e+20
2.001472427e+20
2.002134559e+20
2.009780489e+20
2.002975134e+20
1.998429835e+20
2.010372903e+20
2.013517488e+20
2.028384946e+20
2.032545116e+20
2.035238438e+20
2.050760801e+20
2.065510236e+20
2.082675985e+20
2.112482345e+20
2.144103324e+20
2.163010506e+20
2.211912276e+20
2.254273394e+20
2.280015216e+20
2.298900466e+20
2.387925391e+20
2.462369319e+20
2.539320236e+20
2.621489277e+20
2.740020924e+20
2.892629592e+20
3.036030304e+20
3.16644841e+20
3.351926561e+20
3.547330805e+20
3.745938804e+20
3.917714597e+20
4.078466355e+20
4.217263627e+20
4.371511316e+20
4.545154645e+20
1.987348615e+20
1.993297131e+20
1.966057672e+20
1.954656058e+20
1.967949805e+20
1.98482192e+20
1.997575358e+20
1.994926356e+20
2.01810753e+20
2.02277024e+20
2.043354578e+20
2.039534072e+20
2.028295182e+20
2.041814098e+20
2.040976931e+20
2.04330963e+20
2.056081324e+20
2.066212707e+20
2.079917667e+20
2.104886154e+20
2.115805329e+20
2.139587303e+20
2.195564169e+20
2.254266455e+20
2.281095377e+20
2.355667731e+20
2.417839475e+20
2.500699854e+20
2.618297711e+20
2.715744313e+20
2.843605801e+20
2.995425171e+20
3.123507691e+20
3.282360276e+20
3.470626171e+20
3.649819428e+20
3.787358497e+20
4.00824174e+20
4.165078091e+20
4.311538958e+20
1.982959238e+20
2.005784175e+20
2.012961071e+20
2.011275644e+20
2.019737944e+20
2.018870124e+20
2.017844616e+20
2.032170249e+20
2.003809883e+20
2.00109346e+20
1.990335804e+20
1.990342385e+20
2.015469384e+20
2.019334569e+20
2.022949958e+20
2.031200224e+20
2.055220908e+20
2.054152624e+20
2.061249805e+20
2.077585322e+20
2.11346521e+20
2.158620334e+20
2.175312308e+20
2.214013173e+20
2.239346682e+20
2.269886425e+20
2.342274069e+20
2.398361997e+20
2.442647614e+20
2.529910567e+20
2.634620249e+20
2.764919489e+20
2.888402085e+20
3.046531135e+20
3.221265969e+20
3.410215338e+20
3.618569492e+20
3.766682548e+20
3.951023508e+20
4.126545722e+20
2.004348792e+20
1.990280597e+20
1.998692266e+20
2.014049719e+20
2.011070784e+20
2.00768903e+20
2.000408695e+20
1.982780031e+20
2.002041086e+20
2.001167681e+20
2.000505825e+20
2.006689392e+20
2.015924752e+20
2.017575966e+20
2.021794383e+20
2.030035841e+20
2.068752905e+20
2.07401628e+20
2.092707139e+20
2.105926964e+20
2.101038283e+20
2.112176493e+20
2.130463026e+20
2.121686857e+20
2.165682335e+20
2.192254747e+20
2.253916701e+20
2.308068893e+20
2.362790998e+20
2.401329967e+20
2.493631679e+20
2.57719166e+20
2.69234699e+20
2.831478704e+20
2.970635317e+20
3.145799361e+20
3.344368279e+20
3.529691631e+20
3.691993985e+20
3.851524943e+20
2.014869394e+20
2.001224286e+20
1.9970676e+20
1.979836139e+20
1.970027062e+20
1.951278682e+20
1.97643429e+20
1.976560492e+20
1.983837363e+20
2.001464637e+20
2.022640609e+20
2.011359952e+20
2.00825961e+20
2.01589381e+20
2.03943618e+20
2.019867062e+20
2.021821139e+20
2.040043149e+20
2.043773507e+20
2.038195265e+20
2.051491964e+20
2.07752668e+20
2.067657675e+20
2.103502622e+20
2.139433138e+20
2.146801567e+20
2.172336574e+20
2.195480185e+20
2.248648587e+20
2.305937028e+20
2.37893054e+20
2.482620685e+20
2.607202586e+20
2.673899508e+20
2.774994612e+20
2.906469916e+20
3.039772031e+20
3.227253154e+20
3.398621645e+20
3.618763982e+20
1.995360993e+20
1.999821247e+20
1.995937398e+20