/*--------------------------------*- C++ -*----------------------------------*\
  =========                 |
  \\      /  F ield         | OpenFOAM: The Open Source CFD Toolbox
   \\    /   O peration     | Website:  https://openfoam.org
    \\  /    A nd           | Version:  7
     \\/     M anipulation  |
\*---------------------------------------------------------------------------*/
FoamFile
{
    version     2.0;
    format      ascii;
    class       volScalarField;
    location    "0.006";
    object      internalEMean;
}
// * * * * * * * * * * * * * * * * * * * * * * * * * * * * * * * * * * * * * //

dimensions      [1 -1 -2 0 0 0 0];

internalField   nonuniform List<scalar> 
2400
(
0.3761463176
0.388562086
0.393440556
0.3727993453
0.3721134099
0.4013150429
0.3929539678
0.3774877117
0.3981481619
0.3898908105
0.389518376
0.3807317233
0.3651788081
0.3770299924
0.3759606246
0.3696439749
0.3849610367
0.3914427943
0.3918687428
0.3941757946
0.4007583519
0.4031825699
0.388242184
0.3885230908
0.3821524281
0.3824292313
0.3764855284
0.3703094318
0.3784878807
0.4034204936
0.3804034262
0.3766019137
0.3888719281
0.3770755878
0.3967646534
0.3935506602
0.3972183934
0.3675738212
0.3787324394
0.3960489787
0.3943335352
0.4144123922
0.3954232284
0.3962794534
0.3739616843
0.385167251
0.3789024962
0.3838231487
0.3869119756
0.3991504119
0.364053478
0.3658101499
0.3792372534
0.3965598668
0.3923107852
0.3876818302
0.3772121694
0.3859227181
0.3589226901
0.3577763431
0.3946656515
0.4099610897
0.3807830523
0.3941830402
0.3647386727
0.3685580879
0.3787444497
0.3765000477
0.3828909227
0.379968877
0.3840209587
0.3743306862
0.4014163879
0.384813189
0.3802506566
0.381761167
0.3771310682
0.4032719877
0.3897374401
0.3706957512
0.3895906771
0.3882329798
0.3914796847
0.3667703065
0.3950396723
0.3922382796
0.3972618118
0.3950448033
0.3734432152
0.36168028
0.3689208601
0.3899137657
0.3958974512
0.4251935612
0.3826320924
0.376199755
0.3826386726
0.3901863446
0.3734587678
0.3646548714
0.3832138869
0.3838587105
0.3655194645
0.3732239744
0.3873664224
0.3788137957
0.377629431
0.3899739459
0.3827596296
0.3785051276
0.3937108174
0.4076956676
0.399311209
0.3799274963
0.3630009637
0.3888168736
0.383537731
0.3855069341
0.3620098974
0.3843130131
0.4065697957
0.3862306745
0.3862595379
0.3894726318
0.384306464
0.3854053936
0.3853145328
0.3981532212
0.3902578387
0.3810086098
0.3943278931
0.3828862466
0.3811467925
0.3811842506
0.3729663816
0.3610558065
0.4015451686
0.3748199446
0.3663071689
0.4021321746
0.3840827499
0.3910664455
0.3767208875
0.3860028127
0.3782551202
0.3746135536
0.3800917121
0.3775080387
0.4051241926
0.3815263695
0.3876122518
0.3790033696
0.3936165216
0.3668567149
0.3735345639
0.3619193658
0.3668169455
0.3633667561
0.383615531
0.381497469
0.3671618345
0.3934638591
0.3852186298
0.3822476876
0.3683895442
0.3915021812
0.3746783808
0.3694206871
0.395971676
0.3875494792
0.3825515659
0.3846531982
0.3892686969
0.3794709372
0.3763056442
0.3732509803
0.3501282394
0.3567063549
0.3602567487
0.3735609285
0.3829322819
0.3844895654
0.3634343115
0.3848105148
0.3724162641
0.3704967015
0.3636152196
0.3732751626
0.3719649465
0.3752548705
0.4007302469
0.4089254351
0.3823818954
0.3783055556
0.375214752
0.3602417271
0.3611620719
0.3622025457
0.3900260692
0.3770910176
0.3794548028
0.3879542225
0.3746501964
0.3816363065
0.3729923744
0.3721651254
0.3591103608
0.3700997083
0.3560079525
0.3705093778
0.3899090423
0.3935380423
0.3841395783
0.3652789991
0.379712214
0.3597195805
0.3617345578
0.3856898007
0.3794935137
0.3638175985
0.3736318238
0.3769620112
0.3816313912
0.4019272797
0.3600319965
0.372294674
0.3725648917
0.3718777222
0.3803720424
0.3730942018
0.3757664075
0.3840609795
0.386956737
0.3816676665
0.3782601637
0.3732257054
0.3446217564
0.3717121478
0.3771355491
0.374037339
0.3733117245
0.3581293306
0.3835683089
0.3762235408
0.3583772715
0.3856133249
0.3784254883
0.3796596353
0.381146634
0.3659836003
0.3828164183
0.3575574767
0.3710167746
0.358787204
0.3706064352
0.366362817
0.3818481287
0.3503020464
0.3621310334
0.3785795893
0.3706118347
0.4002934207
0.3805931808
0.3697976068
0.3668307248
0.4003491377
0.3698779102
0.3911485022
0.3563559326
0.3745439929
0.3777531554
0.3866201253
0.3838659927
0.3509349251
0.3681163047
0.3908942568
0.3812345639
0.3596842011
0.3686279571
0.3900670083
0.3679724983
0.3826958681
0.3590898003
0.3697511474
0.3754008604
0.371516188
0.3769027867
0.3826795499
0.3580279172
0.3627822877
0.3802379688
0.3709777988
0.3710356906
0.3600212631
0.3624963739
0.3814587523
0.3821113148
0.3654340183
0.3770343406
0.3634793588
0.3875755347
0.3862216038
0.3473087172
0.3674841002
0.3901426015
0.3543964395
0.3706452036
0.3850179521
0.3907144814
0.3733148199
0.3674722679
0.3749930203
0.3755809495
0.3787616505
0.3671731272
0.3693380892
0.3717994205
0.3754598437
0.369182982
0.3654158983
0.3691123728
0.3702387199
0.3649943479
0.3772517945
0.3781943477
0.3671800876
0.3696001485
0.3846173206
0.3664300431
0.3515580325
0.3725445213
0.3921468052
0.3810904027
0.3861693439
0.3710716487
0.3847140124
0.3802065735
0.3921657099
0.3672378856
0.3762966748
0.3629689451
0.3746269457
0.3591301999
0.3740855772
0.3753034397
0.37320606
0.3784657562
0.3874496772
0.3833122186
0.3670460245
0.368982588
0.3795711759
0.3692480219
0.3851452601
0.4101182076
0.3753319152
0.3915357412
0.3841914115
0.365085136
0.37953546
0.3811349035
0.3807266328
0.3613393348
0.3829668695
0.390309246
0.3777505603
0.3638573513
0.3835809801
0.3729257685
0.3604714918
0.3563671758
0.3797557862
0.3845175002
0.3735637727
0.3900734346
0.3765529162
0.3727875145
0.3644009121
0.3652073771
0.3661570665
0.3791885211
0.3762249134
0.3819910994
0.3774926095
0.3738425406
0.3925744472
0.384304793
0.3931525461
0.3629264931
0.3632072296
0.3655196161
0.3594914464
0.3509390242
0.3446994675
0.3533295802
0.3601407984
0.3813410137
0.3847382957
0.3503770421
0.3749005179
0.3754503577
0.3828237325
0.3837059642
0.4056358875
0.4129124719
0.3868538947
0.3980802347
0.3873123891
0.3821458209
0.3569561992
0.3460303547
0.3742046642
0.3804704074
0.3630027104
0.3753426333
0.3617224408
0.3802318444
0.3797873383
0.356538163
0.3725113005
0.3848346424
0.3839953848
0.3942479806
0.3778028122
0.3967896104
0.380939077
0.3872114374
0.3829228677
0.3761535684
0.3738109415
0.3639420731
0.3694184658
0.3701360662
0.3786868208
0.3911762165
0.3761160581
0.3919945247
0.3765272306
0.3954716505
0.3938461726
0.3665838143
0.3766355104
0.377470259
0.3630526834
0.3895075586
0.3755691927
0.3771207473
0.3799332119
0.3727671198
0.3711333836
0.3712778057
0.3768890248
0.3876056327
0.3835765626
0.39822282
0.3693642016
0.3695407039
0.3798878623
0.3902002514
0.3751530111
0.3831301075
0.3879546997
0.394725142
0.4020305821
0.3865366963
0.3936746881
0.4041939798
0.4026672303
0.3786950907
0.3579041368
0.3864836891
0.3638221443
0.37029754
0.3953736493
0.3865245191
0.3718141302
0.3773655706
0.3712020063
0.3667584768
0.3779907211
0.3939366278
0.3960144508
0.371359767
0.3607579098
0.3740712365
0.3758894635
0.3913330242
0.3760470722
0.3773889764
0.3655153146
0.3868635762
0.3713177174
0.374445628
0.3840817912
0.398461072
0.3602379515
0.3756442444
0.3779130169
0.3894594246
0.3765023287
0.4108128645
0.3797849418
0.3613578995
0.3568117179
0.3669445231
0.3895971912
0.3815810187
0.3661077527
0.3496252767
0.3728861942
0.3780747008
0.3686541176
0.3664625045
0.3667514754
0.3691322286
0.3738172803
0.3779731528
0.3727456316
0.378171272
0.3953644935
0.391963752
0.3715758474
0.3774453753
0.3727310631
0.3793238396
0.3565766393
0.3773377272
0.3744739047
0.375140362
0.3713964476
0.3841498158
0.3738482607
0.3720829158
0.3796476013
0.3636557766
0.3666142741
0.3748058885
0.3905262621
0.3904257607
0.3878074877
0.365343291
0.3867862571
0.385853415
0.38644506
0.3866196677
0.3821315224
0.3762989736
0.3686626967
0.3809030069
0.3600337964
0.3729661316
0.3853396245
0.3761668903
0.385260896
0.3680832911
0.3746271919
0.378136394
0.3800926616
0.3817388862
0.4005938667
0.3845572261
0.3926356783
0.400717956
0.3950934332
0.3846459022
0.3876213155
0.3708283791
0.3714920514
0.3857431047
0.3818890808
0.3848191394
0.3840107883
0.3706637805
0.3635833579
0.3666087912
0.3731719296
0.3851163581
0.3754762672
0.3714707671
0.373846359
0.378429431
0.3865127864
0.3636474477
0.3751062933
0.3700779847
0.3617033614
0.3911256208
0.3743331626
0.365693004
0.3822705157
0.4025655461
0.381698152
0.3597715822
0.3821517306
0.3909219902
0.3705887681
0.3605883763
0.3664192557
0.3652733692
0.3754450884
0.3694198869
0.3658291735
0.389692228
0.3637098145
0.3884386674
0.3890353911
0.3850724231
0.3613376279
0.3621199982
0.3712761937
0.406282768
0.3956299427
0.3851001165
0.3715977735
0.3991341929
0.4002956294
0.376904191
0.3654381764
0.3634522846
0.4070950502
0.3794761758
0.3988479478
0.4047678689
0.3696245905
0.3878972137
0.381767428
0.3866365914
0.3661273739
0.3615613185
0.3699103179
0.3885379949
0.3760117687
0.3776587191
0.3733671807
0.3979657454
0.3856407708
0.3710618851
0.3661022204
0.3778538603
0.3804254097
0.3758159024
0.3903692949
0.3971219238
0.3899072829
0.3873198049
0.3696071362
0.3617440735
0.3589211878
0.3719924692
0.3770662871
0.348903901
0.3782548923
0.3784250518
0.3711561961
0.383105855
0.3769200729
0.3839293359
0.3923492401
0.3804458617
0.3728852705
0.3630545128
0.3840623503
0.406313189
0.3888071231
0.3728130352
0.4064846239
0.3802015668
0.3738729453
0.3700038065
0.3787162747
0.3837049213
0.3795517616
0.3870664514
0.385147331
0.3684673282
0.4018297465
0.3771865978
0.3813795384
0.3570929348
0.3617066249
0.3744915354
0.3923914393
0.376592669
0.3872595699
0.3700597966
0.3887222945
0.3985378263
0.3973033343
0.3778551347
0.389672503
0.3891204459
0.3818472164
0.3874105408
0.3864210829
0.371265448
0.3734216984
0.3749974852
0.377232507
0.3695530233
0.3730260571
0.3816123243
0.4000706475
0.4105653853
0.3919577632
0.3975965512
0.3817939001
0.3748036468
0.383056263
0.4026072394
0.3937981446
0.3833685238
0.3622101019
0.3935403673
0.3914411174
0.3810926573
0.3791374828
0.3962681976
0.3741723666
0.3749084773
0.3844002411
0.3868213494
0.4056717658
0.4042813936
0.4022219029
0.4103587648
0.3926962677
0.3795855875
0.3938582002
0.3836276449
0.3996449196
0.4142261601
0.3974405067
0.4026952695
0.4085208018
0.3820443689
0.3798746467
0.3840199089
0.3843931439
0.3729100657
0.3840175758
0.3815429048
0.4011018891
0.3898378689
0.3615007141
0.4020059686
0.3874258708
0.3953874833
0.3954107376
0.392441514
0.3875827279
0.3836476606
0.3912868635
0.3978162899
0.3846446588
0.4107075297
0.3836976268
0.4018549079
0.3978670136
0.3701410408
0.3745069149
0.406161361
0.4078953532
0.3989240433
0.3714660571
0.388048099
0.4031424439
0.4018570305
0.3887698531
0.3868236733
0.3880290424
0.3991472026
0.391534467
0.4002606501
0.3812097447
0.3844857072
0.3904862193
0.3761956465
0.3738048439
0.393395172
0.3992113583
0.4130164012
0.4238424033
0.390207453
0.3959373924
0.3983942651
0.389345733
0.3830067653
0.4053069103
0.3895822785
0.3877132445
0.4048841551
0.3847914108
0.3740977917
0.3899325575
0.3964644574
0.3905017892
0.3763154607
0.366588107
0.3825546829
0.3821968714
0.4286628415
0.4217898387
0.4318086057
0.4206837589
0.42230777
0.408915144
0.4095360149
0.4063888034
0.4208757019
0.4154685201
0.4127745728
0.4330989274
0.4393186022
0.4700220287
0.465170333
0.4539028724
0.4280866714
0.4571323098
0.4356566016
0.4288685526
0.4419665429
0.4633616142
0.4685393452
0.4766299892
0.4867674712
0.4593550546
0.4674957093
0.471526331
0.4543281028
0.4871295126
0.4498730597
0.4799278525
0.4728713672
0.4827236944
0.5083527573
0.4809166101
0.486439777
0.5029321275
0.484790292
0.5088824271
0.3916323287
0.3859132853
0.391562889
0.4235760838
0.4013992106
0.3996386683
0.4136004019
0.4137160076
0.4108373705
0.4205395446
0.4092347507
0.4333312513
0.4556874029
0.4267472314
0.4353974754
0.4204019224
0.4253025953
0.443839674
0.4367977821
0.419382209
0.4421248749
0.4650142168
0.4786511187
0.4542715122
0.457372869
0.4443792864
0.4494633342
0.4791572726
0.447244804
0.4398443267
0.4512304436
0.4642191551
0.4849104513
0.5019069455
0.4740939254
0.5101815315
0.4780071808
0.471597309
0.4948573966
0.4724506682
0.3688590734
0.3680629718
0.4026764243
0.4040679805
0.4250743634
0.4254899716
0.4125407751
0.4131512912
0.3886276501
0.4130417298
0.423455639
0.4165700192
0.426890341
0.4275593359
0.4556151596
0.4219961676
0.4479438232
0.4426306972
0.4508189235
0.4307881442
0.4234638005
0.4569100233
0.4838099909
0.4417590931
0.457157018
0.4545808119
0.4698137205
0.4519650077
0.476486833
0.4415482079
0.4510490511
0.4666686472
0.4704582914
0.4735907695
0.4729837062
0.4991257669
0.4632711287
0.4681234085
0.4943692658
0.4493549657
0.3806479438
0.3879475554
0.3796091592
0.4009327989
0.4042034657
0.4076853128
0.4007968381
0.3903958615
0.4229111028
0.4001356748
0.4280507078
0.4118426249
0.4383704475
0.4482635496
0.4439907238
0.4282898815
0.434974042
0.4251875228
0.437425613
0.4257287794
0.4179344595
0.4327855769
0.4532576638
0.4352774962
0.4494608833
0.4782768047
0.4642020023
0.4621933669
0.4815290976
0.4460956531
0.4392986545
0.460341006
0.4624667309
0.4608422456
0.4717479743
0.4901866532
0.4788459623
0.4840612816
0.4759012669
0.4599389763
0.3899845476
0.3858403471
0.3940870711
0.4062782557
0.4036066961
0.4081997315
0.4108993072
0.4146866369
0.4173731537
0.3919088088
0.4267764126
0.4127260435
0.410102132
0.4247242119
0.4322133637
0.4349907853
0.4270293451
0.424916846
0.4326139216
0.4328471894
0.4328508513
0.4546871322
0.442950993
0.4500756859
0.4285113256
0.4433572964
0.4495886953
0.462600268
0.469344866
0.4423940253
0.4512136411
0.4323739454
0.4455805808
0.4581063355
0.4653974628
0.4689715032
0.4606748021
0.468717781
0.4567769554
0.4622008763
0.402148721
0.4116926022
0.4165765335
0.4048012754
0.3894203479
0.3753891146
0.4101989049
0.4179803821
0.3831761095
0.3781294589
0.401883103
0.3795982483
0.3690189566
0.4169900741
0.4157365327
0.4134541704
0.3973191738
0.4277876523
0.4401117449
0.4301915843
0.4114781739
0.3964189855
0.4602314002
0.4475187006
0.4486333525
0.4474860578
0.4572220837
0.4415219835
0.4340219857
0.4391136862
0.4288884925
0.4229207861
0.4351623723
0.4518708208
0.4599068362
0.4462793648
0.4605544762
0.495819786
0.481719908
0.4578379988
0.3977752673
0.3904458056
0.3750654043
0.3988076792
0.3850174001
0.3871736607
0.3842255878
0.3916854997
0.3818654413
0.3706241117
0.3938689385
0.3974059345
0.3923733263
0.4092124169
0.4253647667
0.4313485237
0.4185016583
0.4149886934
0.4419025092
0.4407111662
0.4371917932
0.4273514831
0.4216558808
0.4577244134
0.4448211125
0.455292357
0.4391201061
0.4410552118
0.4422621365
0.4249735839
0.4308737279
0.4363612277
0.427489302
0.424294252
0.4405154069
0.4415826436
0.445398231
0.4386180779
0.4752355611
0.463031389
0.4118130736
0.4006899309
0.3939941212
0.3807052872
0.3987822532
0.3814647167
0.4039597846
0.3892905568
0.3847364568
0.3778571953
0.3742801351
0.3855125881
0.3899490853
0.3948676097
0.4075699468
0.4006186328
0.4050094451
0.3848277517
0.4215495671
0.4580065669
0.4553956766
0.4230952199
0.4179683252
0.4450889236
0.4655008802
0.4048412453
0.4359219322
0.4139471444
0.4486058212
0.4002500762
0.4156628867
0.459225581
0.438947622
0.4352790944
0.4509890997
0.4422367466
0.441312383
0.4444468003
0.4546340188
0.4656166981
0.3800815213
0.3997901649
0.3721633425
0.3874833639
0.3888380175
0.3762084389
0.409562604
0.3899381503
0.4005305569
0.400158521
0.3880484938
0.3782612485
0.3993785488
0.3775093169
0.4079696232
0.3867015123
0.435296767
0.4131616287
0.4277540748
0.4305488155
0.4290348634
0.4438050835
0.4172201085
0.4070577924
0.4312467512
0.39682607
0.4042173762
0.4220546279
0.4201926555
0.4249205699
0.4241103041
0.4437687712
0.4576932838
0.462105492
0.4440597997
0.4523833096
0.434130513
0.4535636034
0.4537887907
0.4605308059
0.3683737489
0.3766343259
0.3659199685
0.3754501045
0.3954004954
0.3684874273
0.3879837688
0.4033002327
0.3827913219
0.4033040031
0.3979748471
0.3706013666
0.3713467469
0.4033752424
0.3902329479
0.3836309122
0.3948454533
0.4127543107
0.404847471
0.4443572217
0.4388098344
0.4267480353
0.4055506817
0.4251618352
0.4028444222
0.4144727482
0.4272239419
0.4006042979
0.4202585704
0.3977482537
0.4340240507
0.4616112708
0.4664701946
0.4526435371
0.428048839
0.4515976407
0.4347149386
0.4579826471
0.4690746199
0.4416566831
0.3738168415
0.3695223903
0.3553499194
0.3835016462
0.3986913351
0.3844101695
0.391015159
0.3859621502
0.3781227137
0.3735584319
0.3894962627
0.388790542
0.4142336986
0.4131848122
0.4015729222
0.4140019581
0.421905471
0.4333871776
0.4071572164
0.4316825273
0.3895338765
0.42800763
0.3988999546
0.3827786762
0.4084930625
0.4185007744
0.4078823002
0.3874381883
0.3839198355
0.3894444491
0.3953421763
0.4137021505
0.4352599866
0.4388566538
0.432617925
0.4549694315
0.4388364217
0.4445352626
0.4482843943
0.474886646
0.3548606818
0.3523304617
0.3803360618
0.3759735204
0.3978862496
0.3881496723
0.3934825971
0.3875322617
0.39075449
0.3861352896
0.3754311403
0.3672703646
0.3876906947
0.3944811387
0.4077327295
0.4252898168
0.4268410385
0.4010091066
0.3994439643
0.4009304812
0.4028618474
0.4154564221
0.3933849135
0.3874554964
0.4329427219
0.4217441392
0.4025053635
0.3898618809
0.3895769224
0.4219553637
0.4028372062
0.3955136427
0.4076623921
0.4444282505
0.4224738258
0.4367989031
0.4635182795
0.4295938628
0.4378536772
0.4940390292
0.3726597125
0.3620802954
0.3747845097
0.3769629567
0.4051936157
0.3824679433
0.3753059895
0.4009068595
0.3788885867
0.3689324467
0.3779045629
0.384028762
0.3851172177
0.3931188838
0.385110969
0.4146328548
0.4148492362
0.4017595575
0.3795420814
0.3899409025
0.384273053
0.4080020806
0.3974404442
0.396346828
0.4449736563
0.4068438893
0.4137914014
0.4081355282
0.3947794088
0.4206709089
0.3995822055
0.3891919541
0.4200380917
0.4138824714
0.4128635555
0.4140003708
0.4318919433
0.4500196726
0.4363155062
0.4640055986
0.3920773252
0.383761372
0.3736312289
0.3818334061
0.4044666193
0.3819536447
0.3860682781
0.4055913805
0.3759833984
0.3795071195
0.4100543265
0.3987291949
0.3741405663
0.3634662988
0.4100625477
0.4136209549
0.4166656001
0.4022326688
0.4118421985
0.3976917896
0.3755366156
0.3869544619
0.3865239647
0.4106774885
0.3986076758
0.4119935729
0.4283279127
0.385371494
0.4006434715
0.4077346092
0.4266826284
0.4034341244
0.4045039819
0.4088188442
0.4387231421
0.4255247087
0.4080295992
0.4357707492
0.423194502
0.4367186574
0.3634750093
0.3498769871
0.3687277652
0.3706071509
0.3772108049
0.3730585082
0.3801973771
0.4004981952
0.371430537
0.3809867129
0.3897194503
0.4140326781
0.389183428
0.3945031525
0.4035894381
0.4192569576
0.4026573829
0.3944978686
0.3808718796
0.3977254551
0.3893376446
0.3951885004
0.3865168145
0.4186085488
0.3935776277
0.4130332196
0.4217911016
0.3932224331
0.3805897255
0.40666346
0.4093027409
0.4155037929
0.3981317507
0.3861537227
0.4218522084
0.4354938361
0.4256784211
0.4182041013
0.418620528
0.4350889382
0.3702499013
0.3721370157
0.3781924772
0.3755641902
0.3810298148
0.3789707699
0.3862513788
0.383196146
0.3717917958
0.399193687
0.3851918924
0.3766074482
0.3920407697
0.3729443149
0.3754916782
0.393032186
0.3972327546
0.4049685491
0.3872406475
0.4106668106
0.3843578887
0.3781885509
0.3977815031
0.3927234049
0.3852546432
0.3777523746
0.3794039708
0.4011851238
0.3820921356
0.4160550501
0.401702581
0.420155076
0.4027389956
0.4104744249
0.4023778352
0.4282964074
0.4261400717
0.4190653835
0.4141036483
0.4332946203
0.37017664
0.3783491316
0.3788622465
0.3800580209
0.3820858685
0.3702952964
0.3841580056
0.3975995601
0.3907924661
0.3904759357
0.3826159111
0.3796875573
0.402423519
0.4017857501
0.3864152855
0.4022456935
0.3999125358
0.417615956
0.3864514488
0.388210686
0.3968872843
0.4046084909
0.3956016346
0.3804592422
0.3854177307
0.369842625
0.3647624141
0.3938313918
0.4122272846
0.4126496974
0.4054267465
0.3940889928
0.410597117
0.4247737937
0.437973499
0.4441738981
0.4065659397
0.4377676543
0.4433764996
0.4171326894
0.3723420428
0.383169424
0.3789680989
0.3801428663
0.3892530549
0.3681382484
0.3658793605
0.3866821645
0.3836089586
0.3878685655
0.3807935503
0.3871952638
0.3878991734
0.3951705675
0.4295470287
0.393898678
0.4074492826
0.4074947469
0.3828715475
0.4009021645
0.4102876692
0.399109296
0.3821165815
0.4013818186
0.4010023342
0.3901520038
0.4117668041
0.4091295298
0.4074734291
0.4151067183
0.396950287
0.4031971579
0.3864412973
0.4310334862
0.4253990158
0.4082984
0.3973912567
0.419192331
0.4372286962
0.4309511399
0.3817872489
0.3711699635
0.3978792577
0.3984597599
0.4293348267
0.3858767644
0.3944926494
0.3511625361
0.365752664
0.3792513975
0.3978365533
0.3911659566
0.3917942218
0.3916893644
0.4166900679
0.3975304727
0.3972122068
0.408044954
0.3964430294
0.397446757
0.4108502837
0.4132790891
0.3876981632
0.4028237334
0.4057721596
0.4084477163
0.4154300506
0.4094337919
0.3995320598
0.3923072157
0.3922755422
0.4065214166
0.4069650808
0.3987920274
0.4025954395
0.4083411407
0.4087075476
0.4055142763
0.4148904317
0.4209413086
0.3814882229
0.3772613291
0.3848114219
0.3950234336
0.3850517362
0.3889191711
0.3852420037
0.4031395204
0.3895528334
0.3840290813
0.3846652009
0.4107061894
0.3810156666
0.3987644335
0.4142883884
0.4175812848
0.3812414237
0.3852605752
0.3805170582
0.4078509278
0.3917972637
0.3990755191
0.4108221698
0.4116742735
0.4085542498
0.3802757303
0.3903523178
0.4026407861
0.4014597136
0.3986536935
0.4174253071
0.3922182063
0.4122771029
0.4101865951
0.3977765386
0.4039561448
0.4250134211
0.4287782353
0.4130536189
0.421156241
0.393050461
0.3627472729
0.3635446053
0.3796192062
0.3873080197
0.3693895329
0.3677791414
0.4051416715
0.3973630455
0.3814985014
0.3820670225
0.393902474
0.4057692369
0.4082770331
0.4236081247
0.4136668606
0.4017854975
0.4029035691
0.3684944429
0.3796817418
0.3918731455
0.4097307429
0.4111568768
0.3943033041
0.4072050185
0.3910283529
0.4109740182
0.4080447527
0.3843742533
0.388627865
0.4149780468
0.4224028709
0.4225578712
0.3876545343
0.4205894241
0.4247932454
0.4366728732
0.4492256483
0.4291620211
0.4415734497
0.3860334828
0.3868979757
0.379534663
0.3833423696
0.3739432896
0.3732400397
0.3693604629
0.3912045279
0.3791072667
0.3941808089
0.3663397167
0.3722669502
0.3717775337
0.4008995525
0.3987504608
0.3997084742
0.3903906143
0.3949797986
0.4000471617
0.4086236517
0.4016195374
0.4068903439
0.413545787
0.3663137058
0.3835832234
0.4014875072
0.3957567736
0.4048669897
0.3897447379
0.3913371024
0.3907883223
0.3954372087
0.4015796791
0.3928828998
0.3904633011
0.3984538199
0.4223183651
0.4451474948
0.4226800485
0.4453781982
0.3716164894
0.3777294555
0.3780912068
0.3980790344
0.3828230443
0.4162101981
0.3704262711
0.3523654559
0.3673072088
0.3626051451
0.3612996022
0.3655356851
0.3654846978
0.3803618263
0.3800081801
0.3832596516
0.3834833962
0.3992505055
0.3854516359
0.3941538519
0.3977865623
0.4019203649
0.4230803948
0.3795961064
0.3720681036
0.3982922231
0.382574366
0.4083451877
0.4152555405
0.3928239483
0.4082821602
0.4191891256
0.397573989
0.4007054464
0.4068541133
0.4189515586
0.402122022
0.4100341491
0.4231883201
0.4727781117
0.3719471532
0.3836671709
0.3648733516
0.3936487135
0.4305068259
0.3909191541
0.375288643
0.3822166938
0.3807458016
0.3571883365
0.3779918411
0.388342972
0.3849595426
0.3754732636
0.3697626376
0.3749736894
0.3792383796
0.4032986157
0.3824592351
0.3863014423
0.4063819118
0.4024214293
0.4110125729
0.3818771437
0.3893227872
0.4007472221
0.4093399991
0.3913251732
0.3967365036
0.4022817644
0.4078257383
0.3910159332
0.3893423646
0.3991336889
0.3991871545
0.4041390929
0.4020706979
0.4472477381
0.4134340142
0.448612784
0.3788787052
0.3689226128
0.3632022014
0.3844666253
0.3984069984
0.4170561826
0.3889673014
0.3895595576
0.3763904136
0.3637660037
0.3510488004
0.3850431217
0.4002654939
0.4030486218
0.3744816121
0.3644581604
0.3843773954
0.3905318349
0.3931663159
0.3798076438
0.388679662
0.3976137715
0.4049753833
0.3778210322
0.3808248441
0.3984586627
0.3967517702
0.3924305718
0.433725114
0.42494546
0.4002936028
0.4047350832
0.3976028072
0.4069785581
0.4000945038
0.4085565154
0.4268820869
0.4263558063
0.4200593313
0.4410289289
0.3971410594
0.3922344267
0.3655727253
0.3768728285
0.3677337976
0.3701092182
0.3738133884
0.3870478131
0.3595001707
0.3902088373
0.3690708477
0.3875535414
0.3834670987
0.4001995961
0.3743297726
0.3838126126
0.390608299
0.3973376496
0.4027304072
0.3928807608
0.3865317115
0.3863804357
0.3800774085
0.3806988788
0.4051770355
0.404813213
0.3956071254
0.3909564536
0.4024953573
0.4141027881
0.4014242288
0.4033160114
0.4320582561
0.4046255257
0.392691267
0.4268338807
0.4442641306
0.4208968472
0.4372775494
0.4025146909
0.3683193832
0.3645614626
0.3528977882
0.3834443566
0.3663132937
0.3794214215
0.3552631705
0.3603063353
0.3772083469
0.3933969027
0.4018161535
0.3969424552
0.3960407444
0.3769414752
0.3863828244
0.3845784639
0.3930604969
0.4032228488
0.3777549848
0.4032239088
0.3757774295
0.3819193542
0.3663469958
0.3872852901
0.3694529818
0.3843323724
0.3855570615
0.4018563553
0.4219265518
0.4031945952
0.3980472075
0.4183923344
0.4193061315
0.3891792936
0.4073733038
0.3969186634
0.4194747735
0.4316472545
0.4173651069
0.443822656
0.3749883225
0.3531407723
0.350356384
0.3739639747
0.3828215813
0.3766409048
0.3474685223
0.3693334019
0.3674837242
0.3794831842
0.3992458958
0.3843255757
0.3761746248
0.3837962614
0.4025169543
0.4248855722
0.3904528667
0.3908783511
0.4007622746
0.4046803818
0.3993336609
0.4010788125
0.3939710874
0.3758340294
0.3804596653
0.3951185095
0.3983444619
0.3855055611
0.3988863558
0.4174951718
0.4115171574
0.4343973852
0.4055155511
0.3928391898
0.3851377613
0.4024588344
0.4182377719
0.432861517
0.4413507731
0.4223113298
0.3733854498
0.3549782188
0.3529755186
0.3617272738
0.3814357073
0.3801635032
0.3827104686
0.3795928305
0.3881911301
0.3900685994
0.3931893954
0.3793322127
0.3687199272
0.3977172304
0.4170906451
0.4060971429
0.3978813176
0.4006756235
0.4029408759
0.4151061798
0.3885108171
0.380871851
0.3754262481
0.3694303933
0.3897016442
0.4118378516
0.3919200346
0.3837696588
0.3964424902
0.3918801193
0.4101451962
0.4008578925
0.4081275845
0.4067024832
0.4079360008
0.4021495643
0.4360513451
0.4250102174
0.4562743594
0.4431848617
0.367653987
0.3661677925
0.364765829
0.3644492671
0.3645761264
0.3801155345
0.3964694163
0.3866338598
0.3846420976
0.4041481736
0.3848214019
0.3884988102
0.3782351076
0.3579206965
0.4270596528
0.3895033447
0.3850431302
0.3836278391
0.3887986712
0.4045828753
0.3649028167
0.3841284859
0.3743427087
0.3783278587
0.3737066462
0.3843373783
0.3718046276
0.4009535111
0.4015966933
0.3917102688
0.428330604
0.3982238002
0.3886127453
0.4003812585
0.4026402646
0.4265679527
0.4537145502
0.4228076699
0.4435938838
0.4427922311
0.3795993345
0.3726635283
0.3720293251
0.3811413872
0.3811116932
0.3681467364
0.3711768857
0.3901679936
0.3854484265
0.3941902778
0.3713191059
0.3993801442
0.3770977874
0.3860699909
0.3902317402
0.3972705441
0.3994328167
0.3952946433
0.3767461447
0.3857000957
0.3658776868
0.39333821
0.37695906
0.3868157885
0.4039676677
0.3855622089
0.3913196254
0.3924220782
0.4005858499
0.4171848257
0.395933929
0.4100314275
0.4011646378
0.3957789684
0.3934490849
0.4290766421
0.4446982261
0.4338209523
0.4569372106
0.4331617987
0.3765042283
0.383571759
0.3886801472
0.3926019115
0.3718937357
0.377193898
0.3613199347
0.3930782826
0.4036014721
0.3976996483
0.3918312939
0.3940832017
0.3849949975
0.3785876036
0.3752736203
0.4069578678
0.411454692
0.3873437644
0.3818783093
0.3978502727
0.3657968162
0.4028046135
0.4090692363
0.3687584869
0.4069427042
0.3976183008
0.3926279235
0.3864513539
0.3926238043
0.3903005218
0.410933064
0.3979657888
0.4318571168
0.409347258
0.4114684989
0.4170846804
0.4332521746
0.4289010217
0.4582622024
0.4507441391
0.3613797025
0.3820809636
0.4026301467
0.390366499
0.3751871298
0.3573771204
0.3701579634
0.3839744585
0.4031491464
0.3988570998
0.3944018433
0.3644272385
0.3942498738
0.3922117746
0.3783273465
0.3962641386
0.3851603267
0.3973245517
0.4119916857
0.3812124928
0.3808372242
0.3899812695
0.4014634926
0.387579672
0.4063342196
0.4117890286
0.3896714367
0.3986641305
0.3966842942
0.4072112203
0.4079464889
0.4094928142
0.4252375464
0.4172742903
0.397520147
0.413957582
0.4250694616
0.4339816373
0.4426951804
0.442290804
0.3584812095
0.3796703956
0.3633413982
0.3524002041
0.3667376994
0.3531701086
0.3769684471
0.3798134528
0.3764968322
0.3891535681
0.3820979915
0.375888494
0.3952019111
0.378388193
0.3555352065
0.3809710125
0.3744562358
0.4010330913
0.406422566
0.3861682062
0.3740560645
0.3777752342
0.412544619
0.3981616955
0.3952238633
0.3947142997
0.3896835742
0.382664428
0.4154907878
0.4140109554
0.4097648471
0.3960400824
0.4170066745
0.4153212614
0.4045350752
0.4144279453
0.4227151624
0.4327454377
0.4380803395
0.4147697524
0.3712418716
0.3775280073
0.3808197574
0.3733343487
0.3731167656
0.3844667509
0.3919852613
0.3828459071
0.387901779
0.3893921726
0.4032542985
0.3950140703
0.410830523
0.385723803
0.3550943884
0.3633490119
0.4025313799
0.397905316
0.3936718314
0.3925853534
0.3803509762
0.3887703165
0.4050502217
0.4019128953
0.3855698945
0.383438076
0.3936726444
0.3888204509
0.4179502849
0.3996163745
0.4303025538
0.4082925032
0.4175574458
0.4336341253
0.4571888384
0.4281884041
0.4113485676
0.3950726297
0.4179079171
0.4045519018
0.3595452177
0.3657726962
0.384976292
0.3544733878
0.3602713152
0.3720430647
0.3899383402
0.3895183281
0.3937412563
0.4125342985
0.4083571787
0.4138775217
0.4044492412
0.4039209897
0.3969944215
0.3821429616
0.386501247
0.3737751247
0.3710233918
0.3708008218
0.3941465783
0.3999682139
0.416338743
0.4015263328
0.3837670444
0.3851212349
0.3781190749
0.385535459
0.4137854443
0.4238213844
0.4255755086
0.3974834369
0.3996615127
0.3974920377
0.4188194007
0.4419376736
0.4223361277
0.4475141984
0.4163706008
0.4180771322
0.3668994006
0.3902185361
0.3800179936
0.3863031172
0.3816959874
0.3730372479
0.3800386675
0.4005862583
0.3861486134
0.4106950448
0.403073685
0.4064960233
0.3969065046
0.3879029603
0.4029141242
0.3837994922
0.3886954754
0.385192633
0.380123998
0.3833259193
0.3828225544
0.3885190911
0.3882273038
0.3922187705
0.3664453319
0.4201134601
0.4196611982
0.4099677203
0.4194823991
0.4303147997
0.4228318232