/*--------------------------------*- C++ -*----------------------------------*\
  =========                 |
  \\      /  F ield         | OpenFOAM: The Open Source CFD Toolbox
   \\    /   O peration     | Website:  https://openfoam.org
    \\  /    A nd           | Version:  7
     \\/     M anipulation  |
\*---------------------------------------------------------------------------*/
FoamFile
{
    version     2.0;
    format      ascii;
    class       volScalarField;
    location    "0.006";
    object      internalEMean;
}
// * * * * * * * * * * * * * * * * * * * * * * * * * * * * * * * * * * * * * //

dimensions      [1 -1 -2 0 0 0 0];

internalField   nonuniform List<scalar> 
2400
(
0.3120200811
0.4023706911
0.4053734119
0.404502694
0.4034868342
0.4053956362
0.4064423594
0.4066035303
0.4048567484
0.404290683
0.4075140223
0.4087901617
0.4088399305
0.4047195563
0.411401702
0.411522606
0.4163009901
0.4425562195
0.5089495592
0.7984400688
0.3237450917
0.4173690894
0.4175097902
0.418095426
0.4176667724
0.4161400363
0.4164337151
0.4162357931
0.4208877035
0.4214403564
0.4214825968
0.4155882379
0.4148836727
0.4188579353
0.4134487592
0.4218517475
0.4326425538
0.4557446993
0.5347446034
0.750698862
0.3224432115
0.4121723761
0.4130124025
0.4135979477
0.4142437977
0.4111495978
0.4097805717
0.4056173002
0.4013069835
0.4053179093
0.4088708465
0.4089450919
0.4144006445
0.4184424023
0.4218684213
0.4274316795
0.4342034469
0.4614696996
0.5272336383
0.6596629895
0.3270711312
0.4165470584
0.4193843566
0.4195450258
0.4191899489
0.4207421635
0.4186772638
0.4206396012
0.4227181866
0.419215309
0.4199502879
0.4186507789
0.4156076366
0.4170229589
0.4158038414
0.4183504123
0.429689976
0.4543102235
0.4948567235
0.5812210515
0.3216689022
0.4138689059
0.4144483098
0.4184400355
0.418781455
0.4221129231
0.4190689301
0.4199033187
0.4201944432
0.4193021802
0.415817334
0.4180353322
0.4192523827
0.4232411868
0.4172982403
0.4189408494
0.4259645141
0.4428393741
0.4757952688
0.5394831802
0.3240253875
0.4200697201
0.423703701
0.4178257939
0.4144315941
0.4116061359
0.4096684261
0.406585167
0.4077540871
0.4077061998
0.4074644873
0.4121714614
0.417049603
0.4174645426
0.419261988
0.4264433648
0.4302321093
0.4419822391
0.4655100926
0.4999878106
0.3196664497
0.4083347503
0.4159909258
0.4136891863
0.4160971744
0.4121275846
0.4182681182
0.4233798291
0.4188773005
0.4153185261
0.4154653272
0.410816716
0.4152000258
0.4145005759
0.4148124471
0.4117993643
0.4211025671
0.4256500978
0.4382329639
0.4617239918
0.3154013239
0.4065621611
0.4084142154
0.4048436903
0.4098009588
0.409850669
0.4089266813
0.4046364688
0.408008532
0.412835165
0.4122027341
0.4154816218
0.415147943
0.4094973427
0.4118098077
0.421764831
0.4199324439
0.424816932
0.4362407521
0.4497103007
0.3228531694
0.4167343649
0.4137135842
0.4135552252
0.4095323194
0.4122688478
0.4134103251
0.4136925196
0.4163168717
0.4171399252
0.4190469377
0.4155747703
0.4164556592
0.4181837472
0.4203718113
0.4210664026
0.4204224852
0.4267495681
0.4335646829
0.4426941907
0.323180167
0.414128617
0.4205033598
0.4231365785
0.4245210562
0.4187951708
0.4185447682
0.417466368
0.413795655
0.4118794824
0.4153782247
0.4200314791
0.4190488789
0.4200083178
0.4180247078
0.4233396524
0.4219505849
0.4230276695
0.4289490003
0.4356309641
0.319488846
0.4086140377
0.409175283
0.4100429836
0.4078281594
0.4099853795
0.4069568767
0.4076616628
0.4076566389
0.4058241744
0.4073286539
0.4073444203
0.4082729799
0.413398991
0.418274509
0.4125494601
0.4183925493
0.4235078283
0.4256545597
0.4298377379
0.3254175538
0.4202306772
0.4197756331
0.4171311003
0.423546551
0.423639013
0.4230691973
0.4253271295
0.423928767
0.4228474655
0.4204792488
0.4186537642
0.4197930213
0.4196094127
0.4226049693
0.4207610314
0.418507951
0.4143037541
0.42365795
0.4243357187
0.3176106263
0.4139984539
0.4161892898
0.414699522
0.4128649979
0.4134402645
0.4149495101
0.4190706525
0.4228415545
0.4226558886
0.4250413952
0.4249830666
0.4284450665
0.4256897578
0.4239568331
0.4221332498
0.4230056803
0.4251439645
0.4321116925
0.4397070648
0.3221221799
0.4071690767
0.4139704766
0.4173580556
0.4202930435
0.4240664323
0.4259079627
0.421577197
0.4182316259
0.4204555792
0.4166648512
0.4203049019
0.4175000757
0.4160072767
0.4179524094
0.4196404686
0.4174951967
0.4181381441
0.4234432712
0.4251346558
0.321492858
0.417580566
0.4155789214
0.414016092
0.4123399079
0.4084761963
0.4056465918
0.4046912549
0.4078157092
0.4050602619
0.4061551012
0.4082379918
0.4063528148
0.4051895365
0.4096941898
0.4139701314
0.4147247663
0.4131995262
0.4145095478
0.4154874016
0.3242639265
0.4160716334
0.4160568434
0.414142698
0.4094097836
0.4130316851
0.4168106537
0.4174538753
0.4192247135
0.417874087
0.4177465025
0.4129239595
0.416237866
0.4223532469
0.4194212098
0.4204990759
0.4172094064
0.4161833164
0.4218566698
0.4211705694
0.3184577044
0.4102190069
0.4132296381
0.4125942668
0.4147583166
0.4123119968
0.4162046629
0.4144775448
0.4179690861
0.4182452115
0.4130973745
0.4161575584
0.4115025708
0.4117574822
0.4061042301
0.4065254723
0.4133656719
0.4113323562
0.4112242046
0.4136106457
0.3234321193
0.4064727623
0.409944274
0.413317823
0.4115923104
0.4117654574
0.4102575106
0.4080657797
0.4012381282
0.4066069333
0.4093057229
0.4149093333
0.4136266614
0.4142872226
0.4168845273
0.4236129117
0.4135314935
0.4240809881
0.4230378149
0.4254091183
0.3236858648
0.4189207735
0.4218161629
0.4187010507
0.4139709192
0.4124944327
0.4114353627
0.4158436584
0.4155370394
0.4172628755
0.4137984568
0.4109671745
0.4125654983
0.4097411444
0.4135312441
0.418746323
0.4221055334
0.4156584609
0.4193927682
0.4163965756
0.3245262931
0.4197618503
0.4163030376
0.4209973633
0.418619915
0.4203492369
0.422912397
0.4271291981
0.4254577111
0.4285542442
0.428152175
0.4272776444
0.4267192503
0.4224279937
0.4219294061
0.4176060231
0.4195908841
0.4197796411
0.4183020485
0.4195421935
0.3210039304
0.4078049519
0.4085701661
0.4111202661
0.4120475039
0.4117925685
0.4072029334
0.406385729
0.4079283178
0.4077469491
0.4099930239
0.4121779182
0.4115765296
0.4167031416
0.417981281
0.410614899
0.4110789715
0.4138728972
0.414644247
0.4134862138
0.3187710394
0.4119949904
0.4160825392
0.4140057814
0.4116766631
0.4134678292
0.4158195693
0.4130814754
0.4091157587
0.4090818894
0.4132016492
0.4147159985
0.4179136018
0.4181972298
0.4197704716
0.4241941016
0.4299956059
0.4256044005
0.4202457673
0.4176922483
0.3266926738
0.416165687
0.4150788543
0.4160555385
0.4176140611
0.4171812715
0.4143090642
0.4180316325
0.4244310719
0.4221156528
0.4248238316
0.4291487345
0.4227359477
0.4204962597
0.4173192284
0.4126603002
0.4088118482
0.4114358325
0.4166054903
0.4165077774
0.3208232623
0.4143919392
0.4194552945
0.4197827771
0.4214227565
0.4233021166
0.4240813697
0.4212694602
0.4201980811
0.4180157311
0.4192615655
0.4127455246
0.4101772579
0.4136859534
0.4140159759
0.4154157971
0.4148718798
0.4191035653
0.4173801235
0.4146657334
0.3252155663
0.4174758606
0.4175552923
0.4166485061
0.4140023683
0.4136758786
0.4097154193
0.4095775018
0.4062926063
0.4104537778
0.4088960581
0.4150640509
0.4170875553
0.4165353994
0.4166667399
0.4190263159
0.4167731738
0.4139550354
0.4172548245
0.4188571406
0.3208386844
0.4116849107
0.4155401911
0.413368349
0.4113486514
0.4140475244
0.4151927134
0.4148635581
0.4158549188
0.4100950278
0.4139677789
0.4131676495
0.4090631438
0.407486445
0.4074399362
0.4049217825
0.4063868982
0.4133161055
0.417989231
0.4205902828
0.3271031385
0.4184617312
0.4207548902
0.4188037837
0.417562815
0.4160208691
0.4114799744
0.4073137062
0.4074660664
0.4067548844
0.4070457258
0.4073600614
0.4133052987
0.4158298291
0.4171788812
0.4199792023
0.4227535179
0.4190154391
0.4120918067
0.4104248418
0.3216252205
0.418288243
0.4205076364
0.4200133301
0.4205118388
0.4257688337
0.4267788922
0.4267557829
0.4281360362
0.4293888612
0.4245818041
0.421493647
0.4197252143
0.4231117043
0.423110627
0.4196329987
0.4191704437
0.4178400826
0.4176330707
0.4184730332
0.3224467583
0.4165771273
0.4237316808
0.421891865
0.4209103522
0.4177370555
0.4214622386
0.4254381193
0.4224716959
0.4237251459
0.4270623074
0.4340172365
0.4298704615
0.4263747001
0.4210404616
0.4163471866
0.4215045333
0.4209242214
0.4224080632
0.4220285544
0.3257916991
0.4153036739
0.4187540692
0.418863089
0.4198865708
0.4210888913
0.418653924
0.4206146821
0.4242898444
0.4245954303
0.4236213895
0.4197862503
0.4179061365
0.4153827955
0.41841392
0.4204952937
0.4203095745
0.415793484
0.4135442453
0.4117056461
0.3182028293
0.4064225761
0.4103679508
0.4100537164
0.4112917788
0.4033722877
0.4044224691
0.4029920436
0.4009195391
0.4014551492
0.4009434356
0.4049776382
0.4062060348
0.4097256378
0.409671601
0.4122874719
0.4150301358
0.4185679245
0.4218224904
0.4209929939
0.316836192
0.4066013767
0.4076719097
0.4031534341
0.4055639891
0.4133614762
0.4124191651
0.4073144048
0.4085184869
0.4110896402
0.4142769793
0.4107999131
0.412553361
0.4147006067
0.4185881918
0.4142935295
0.4162769846
0.4173860032
0.4162941813
0.4139718551
0.3231999966
0.4186055886
0.423937225
0.4205179534
0.4183300936
0.418556198
0.4195954585
0.4218346441
0.4177005271
0.419320241
0.4161951748
0.412952472
0.4070973788
0.4060498361
0.4089503476
0.4082720257
0.4067616837
0.4088797052
0.4087339631
0.4133557449
0.3205069091
0.4078528604
0.4140037933
0.4141207199
0.412530422
0.4136314014
0.4144055506
0.4144475509
0.4155472071
0.4151217726
0.4163603361
0.4145855218
0.414703495
0.4176981762
0.4142593799
0.4129394899
0.4134889001
0.412947582
0.4113671655
0.4051520188
0.3239645805
0.4124034391
0.4128668774
0.4124223337
0.4094855232
0.4065903432
0.4111132187
0.4105943753
0.4159402647
0.4182006221
0.417100885
0.4168552053
0.4153292343
0.4098929707
0.4106913504
0.4107044939
0.413214891
0.4122910594
0.4112769188
0.4156811145
0.3242392589
0.420643162
0.4203580101
0.4191163445
0.4214412802
0.4219699748
0.4201930659
0.4164146387
0.4119983926
0.4089555279
0.4122296415
0.4087531108
0.4165640105
0.4191650036
0.4169193795
0.4158579783
0.4142657367
0.4124861999
0.4120032828
0.4110181963
0.3219085274
0.4139946009
0.4135673347
0.4095636883
0.4105317248
0.4083096029
0.406898793
0.4112446707
0.4165061061
0.4190683525
0.4202739524
0.4219736243
0.4170953245
0.4156603101
0.4141415731
0.4153791753
0.4172582861
0.4192377472
0.4233627641
0.4219654763
0.3191240777
0.4085554658
0.4078658475
0.4195560458
0.4163610393
0.4186292611
0.4202642647
0.4183374811
0.4172507375
0.4104005705
0.4088496021
0.4122331303
0.4156387921
0.415293202
0.4187140326
0.4177573494
0.416878771
0.4125271247
0.4093016173
0.4065122764
0.3220021214
0.4139744562
0.4160750162
0.4117732133
0.4124002029
0.412325146
0.4092104226
0.4143675209
0.4131811298
0.4179725648
0.4160002749
0.4150807184
0.4146796173
0.4131553239
0.4114846899
0.4081931847
0.4100301971
0.4169299062
0.4207231656
0.4191037908
0.3146648804
0.4068012086
0.408985472
0.4078708197
0.4093857764
0.4103778239
0.4109579906
0.4099326625
0.4103482557
0.4087334409
0.4149432217
0.4140265947
0.4192882037
0.4144927405
0.4136978572
0.4159341731
0.4126554645
0.4057402196
0.4011766013
0.3985280834
1.866412761
2.36226542
2.689920598
2.821585513
2.839507922
2.934609861
2.932057307
3.028079576
3.06183413
3.033973603
2.982612888
2.962470088
3.002536428
2.953018363
2.957249838
2.957102354
2.97719459
2.932645054
2.82122504
2.818965517
2.757846735
2.800713782
2.805302924
2.741907818
2.816109868
2.854871111
2.829307825
2.747384483
2.725783986
2.649861816
2.67721355
2.690772504
2.63738537
2.61743926
2.547010958
2.442791934
2.372703348
2.272161708
2.059615211
1.70973474
1.169549949
1.557385316
1.880043615
2.165183174
2.364946787
2.545750717
2.645391121
2.778259726
2.858697604
2.905162386
2.8971175
2.908077029
2.971297077
2.96135404
2.948369073
2.944701091
2.962198022
2.93857007
2.884878861
2.874021857
2.912640529
2.85613693
2.89188888
2.845806868
2.863816274
2.770687082
2.723850645
2.724224864
2.728042536
2.721597322
2.689432788
2.673511084
2.679472843
2.611917083
2.51985394
2.430392939
2.363626733
2.245398658
2.035333818
1.745151382
0.8776681416
1.154039576
1.371650379
1.700967244
1.923130957
2.129451396
2.276119253
2.42576435
2.536834472
2.662580889
2.698979884
2.798174709
2.832276689
2.870015638
2.869563211
2.906420542
2.921378067
2.803171297
2.90828187
2.910130862
2.901731275
2.810907119
2.832535516
2.850289122
2.883050966
2.784421112
2.716683833
2.756897353
2.755463233
2.744574938
2.717560454
2.618051994
2.677810324
2.617243929
2.610889701
2.532038809
2.367500536
2.234646066
2.069055332
1.801942372
0.7234205193
0.8585142844
1.070840856
1.271338369
1.471602615
1.672874215
1.881616913
2.05488063
2.142107056
2.31603645
2.434232964
2.567058966
2.665352273
2.735286749
2.758271545
2.784804417
2.829521511
2.823978564
2.823791076
2.82009351
2.802580755
2.844120022
2.852919655
2.843663106
2.868730147
2.783869818
2.755188182
2.744578823
2.694793619
2.672723176
2.665423635
2.710463855
2.681047965
2.647098144
2.589062728
2.488701511
2.411037456
2.308247527
2.140567188
1.876064435
0.6313467627
0.7207083773
0.8572438561
0.984958615
1.153979132
1.335373493
1.503269944
1.704002303
1.851175638
1.95838374
2.125597242
2.273038722
2.358779692
2.492029263
2.619388683
2.643290655
2.700897945
2.743054138
2.741351701
2.766424983
2.805924832
2.791260333
2.807339059
2.790566475
2.799099654
2.747219458
2.718416805
2.697986815
2.723201643
2.672716874
2.692847487
2.714052507
2.662993243
2.574714231
2.52802317
2.514399166
2.382213865
2.29502896
2.178847246
1.958893935
0.5457301337
0.6037093938
0.6967274066
0.8211409819
0.9303018857
1.052755466
1.22680595
1.369707923
1.541460955
1.708102848
1.811271323
1.979594601
2.115269946
2.192452831
2.329197415
2.43129972
2.574977991
2.589294244
2.649959395
2.681143916
2.74740895
2.723301083
2.734063307
2.734728918
2.748710987
2.751924935
2.79957802
2.76703379
2.731070096
2.763829147
2.718867872
2.711636756
2.653668864
2.634084247
2.565467483
2.503897997
2.415301616
2.332860174
2.231117472
2.074927485
0.5122419957
0.5544484003
0.6003642789
0.6975041319
0.7688739821
0.8641360417
0.9897478224
1.117958882
1.270002339
1.408904567
1.558338027
1.711917038
1.834082191
1.954586392
2.114052384
2.215362834
2.312340965
2.406015546
2.532146216
2.577934197
2.604244778
2.562219733
2.636944546
2.650048965
2.691628119
2.729729577
2.741368062
2.765461308
2.692809407
2.667055957
2.724002413
2.701805127
2.626995476
2.588318666
2.571973717
2.546795512
2.468114679
2.433236716
2.289366014
2.125255349
0.4749461392
0.5092458504
0.5441096343
0.6001963593
0.6607238845
0.7254099652
0.8215255559
0.9170677501
1.029018898
1.155230088
1.28157705
1.422739209
1.580003247
1.703052867
1.820753292
1.971660936
2.076730621
2.19830538
2.310334593
2.405235268
2.473564415
2.527118463
2.597804827
2.668841559
2.623280793
2.654170448
2.690154846
2.72487463
2.720398041
2.638524887
2.655126645
2.746996031
2.68884895
2.639555729
2.591013306
2.548569251
2.52581137
2.427377135
2.325708873
2.219075635
0.4615468928
0.4855345488
0.5114287352
0.5405681428
0.598562933
0.6502391827
0.7209566716
0.7847692726
0.8672087769
0.9286155975
1.054551209
1.159863791
1.314273084
1.443305309
1.586377483
1.734332447
1.863875892
1.976620875
2.127555645
2.22327368
2.322890283
2.402381237
2.484332115
2.501431884
2.529990748
2.58355261
2.571346944
2.645281893
2.689157542
2.704647576
2.660107605
2.720063376
2.639075238
2.600322482
2.602761345
2.543930945
2.473660006
2.449223645
2.368991352
2.236804673
0.4469665103
0.4636266651
0.4854631525
0.5210328816
0.5452419834
0.5733979048
0.6108474243
0.6771222909
0.7549589467
0.809201219
0.8905062585
0.9916253119
1.110547516
1.214346342
1.318972827
1.464223723
1.614860264
1.747303916
1.851854134
1.943881584
2.032024411
2.144122807
2.230907654
2.314550765
2.407342185
2.462402114
2.52310402
2.547260992
2.567776401
2.617233922
2.570777134
2.557637576
2.628912825
2.622910787
2.605417335
2.590621578
2.528818459
2.451730093
2.385355806
2.308867938
0.4384251583
0.450276636
0.4589216423
0.4748021682
0.4957627787
0.5197583256
0.5560165774
0.5972296541
0.6569543612
0.7279164961
0.7877902626
0.8523972738
0.9645497979
1.045501122
1.116726102
1.244538755
1.386451907
1.488389999
1.601994466
1.714188593
1.82358078
1.990727692
2.095652839
2.212515148
2.281784099
2.355251796
2.401670827
2.384881382
2.429912071
2.477897867
2.551132091
2.567166158
2.614934115
2.559704021
2.562965694
2.552959477
2.494384751
2.443712109
2.38428853
2.351589777
0.4314152528
0.4293455744
0.4411413139
0.4519798515
0.4750421937
0.4929211984
0.513995142
0.547082061
0.5693476718
0.6193414892
0.6774588996
0.7417269432
0.7985811448
0.886744088
0.9842665939
1.057023742
1.154370512
1.279513452
1.392409614
1.530758735
1.635510234
1.764499486
1.889078172
2.00484606
2.128542865
2.190032272
2.24589887
2.300989141
2.340426468
2.447042562
2.484221665
2.480572909
2.504954774
2.513259728
2.499118757
2.526648219
2.516569058
2.450672173
2.403031315
2.348873069
0.4432116986
0.4397073397
0.4457415909
0.4543930896
0.4639353479
0.48843331
0.505876818
0.5280528758
0.5544513002
0.5692666027
0.6051276259
0.6461005753
0.7062957596
0.7668140749
0.8220578403
0.8921919794
0.9801375338
1.074316758
1.201101822
1.295171577
1.414225088
1.551944441
1.674985769
1.804835933
1.911538307
2.042487202
2.155557075
2.226991699
2.312174662
2.343203426
2.40252398
2.496979234
2.494540798
2.453303593
2.450530867
2.474962734
2.480231804
2.504234872
2.433870441
2.37791455
0.4338896195
0.4335363332
0.4352195517
0.4453050159
0.4528627034
0.4565653697
0.4716598689
0.4851243162
0.504835151
0.5271027306
0.5372160309
0.567730319
0.6102434838
0.6715266766
0.7163875113
0.7736316638
0.837984824
0.9241486986
1.018570052
1.120698402
1.194465962
1.316557262
1.425052608
1.561524105
1.696035615
1.812971486
1.911740588
2.022561772
2.099317593
2.192363797
2.296265917
2.297717499
2.358200598
2.416417324
2.43078513
2.442391158
2.468861943
2.440224329
2.460177308
2.395950768
0.4218326091
0.4302571239
0.4307136875
0.4295542139
0.4445293651
0.4444518326
0.453550086
0.4652424503
0.4762753949
0.4946526635
0.5211545378
0.5418219329
0.5630934576
0.591236564
0.6396065348
0.6873117315
0.7366783291
0.8080070137
0.8697914441
0.9530210781
1.056913699
1.140293052
1.23102957
1.351452283
1.476524853
1.589544635
1.708379007
1.796171431
1.929528683
2.037396228
2.109285209
2.224834404
2.255277774
2.298321013
2.370106657
2.381397086
2.409625935
2.376116429
2.377799565
2.31446255
0.4212058407
0.4199783073
0.4228846894
0.4256641557
0.4312084751
0.4426557611
0.4489468609
0.4491301464
0.465617984
0.4794425068
0.4955231995
0.5061675478
0.5266803562
0.5510965393
0.5748727407
0.614153975
0.6678092068
0.7004169612
0.7713488587
0.8130268573
0.8720182392
0.975525264
1.07694118
1.170554727
1.27912658
1.399317908
1.518116824
1.626634026
1.739292535
1.845035906
1.954262002
2.032466435
2.153213919
2.230025729
2.269210509
2.271106387
2.320182392
2.343364168
2.337406211
2.383425519
0.4157881729
0.4210569006
0.4265491841
0.432527924
0.4363205695
0.4384118522
0.4470227704
0.4558036167
0.4592050003
0.4677994084
0.4751982423
0.490714139
0.506289007
0.5281594468
0.5467421538
0.5705981665
0.5980333437
0.6386204528
0.6864753297
0.7478372474
0.7996927397
0.8509239833
0.9475487154
1.019578608
1.136174092
1.217736271
1.303376049
1.429424045
1.544492912
1.639974228
1.775311165
1.87756763
1.969736863
2.097916136
2.185474915
2.237967335
2.262361225
2.28928792
2.324166866
2.309457831
0.4275931144
0.4235666185
0.426529881
0.4319560883
0.4287226931
0.4320246596
0.4334954843
0.4368446927
0.4414890841
0.4486542566
0.4561152115
0.4662406121
0.4779251206
0.4908843077
0.5103497146
0.5275099877
0.5663558382
0.5927488682
0.6221661306
0.6559313539
0.7052844675
0.7501626156
0.7995919768
0.8784999368
0.9555865551
1.034689251
1.155962273
1.248434927
1.367946002
1.491537504
1.585995744
1.680855151
1.805892901
1.900657882
2.008366008
2.10421649
2.187642092
2.232504239
2.242155602
2.276606612
0.4250494143
0.4252095737
0.4230863531
0.4278943838
0.4286460634
0.4367066863
0.4399469031
0.4423376012
0.4333253389
0.4380687551
0.4395926457
0.4506090058
0.4583641494
0.4723451986
0.4838118381
0.4994615483
0.5128869037
0.5351792393
0.5547028772
0.5882040239
0.6323614759
0.6862486891
0.7308206507
0.7863201016
0.8520004274
0.9235850177
1.025874469
1.117189581
1.196912941
1.290784905
1.44331614
1.581312684
1.657610541
1.743026151
1.820613238
1.925262695
2.025077146
2.09259436
2.122711161
2.193144118
0.4247441081
0.4241514977
0.4257717269
0.4235687458
0.4196203639
0.413439086
0.4177283392
0.4229980404
0.4284761663
0.4328759366
0.4382889089
0.4467785023
0.4476003606
0.4550210138
0.4644965728
0.4757264236
0.4914939645
0.5109266764
0.5306689904
0.5505342461
0.5764050816
0.6141567118
0.6462779302
0.6862059496
0.741052548
0.8037401757
0.860037355
0.9453284407
1.025855231
1.142259916
1.224218051
1.339560259
1.461830734
1.575992526
1.680094963
1.785472961
1.878913323
1.973036981
2.037638605
2.056675293
0.4135497322
0.4100119331
0.4173897028
0.4204806945
0.420805923
0.4220996042
0.4234524044
0.4265627205
0.4238170992
0.4252741789
0.4337668425
0.4388861812
0.4415546415
0.4446854926
0.4544347269
0.4652556626
0.4771704317
0.4876719872
0.4975176695
0.5116296078
0.5373801955
0.5642983039
0.5936236872
0.6281691472
0.6635884835
0.7105909146
0.7763429988
0.8304854883
0.9050887534
0.9751754204
1.084610365
1.173396321
1.268716813
1.391333979
1.49398111
1.608727203
1.687842852
1.794467382
1.888338446
1.979575501
0.4199060828
0.4189813637
0.4204093391
0.4212564895
0.423482092
0.4269245305
0.4289956124
0.4270519116
0.4272166496
0.4263906688
0.4289434187
0.4331356079
0.440013982
0.443425619
0.4501588121
0.4540565178
0.4593810976
0.4683915257
0.4854551682
0.4960766637
0.5139588281
0.5344615501
0.5541270155
0.5733340878
0.6083288233
0.6383402306
0.6762044788
0.7222387568
0.7779804363
0.8596176608
0.9319758139
1.0174784
1.119995676
1.222309637
1.334978305
1.444156674
1.544095075
1.610705096
1.735808996
1.836180779
0.4184302254
0.41918962
0.4090733016
0.4096535205
0.4093969199
0.4126244902
0.4174757044
0.4152059871
0.4196963134
0.4248072506
0.4298586419
0.4272081332
0.4241894924
0.4331867921
0.4375442111
0.4414355339
0.4445571883
0.4542100675
0.4526646781
0.4719886906
0.478289436
0.4907022214
0.5084967815
0.5342548188
0.5554828509
0.5955323303
0.6258662455
0.660119789
0.7076475152
0.751571292
0.8283337777
0.9010192498
0.9574180673
1.057209897
1.151023336
1.256003745
1.363739794
1.479667002
1.573943339
1.668301763
0.4177443462
0.4220154641
0.4215030427
0.4245184723
0.4248515572
0.4218084715
0.4190871072
0.4192958346
0.4161930249
0.4104704659
0.4102294173
0.4127631867
0.4212530219
0.4264230296
0.4254373319
0.4312078335
0.440313221
0.4462367522
0.4570562629
0.4571343051
0.4680129769
0.482882725
0.5011953465
0.5164146087
0.5337575886
0.5451387361
0.572081112
0.5932974734
0.6285025223
0.6610470356
0.7121602323
0.7926379508
0.8548356635
0.930421348
1.03081553
1.12271519
1.227429578
1.319573596
1.420109027
1.526267076
0.4162540117
0.4139582486
0.4148260712
0.4181418051
0.4167621612
0.4171100911
0.41661703
0.4106769369
0.4143100353
0.4150267681
0.4154057586
0.4158040322
0.4210981815
0.4228248907
0.4260603274
0.429753934
0.4355145139
0.4423913651
0.4489367228
0.4564985242
0.4622551877
0.4673208092
0.4703868379
0.4748813149
0.4903769482
0.5077111507
0.5313671635
0.5549536731
0.5899274889
0.6206744018
0.6575504976
0.7016073017
0.7570595533
0.8106040626
0.8913554641
0.968904572
1.073871605
1.180929162
1.269169061
1.359215465
0.4193270199
0.4154278828
0.416072336
0.4073186244
0.401678702
0.4004171103
0.4082791542
0.4090658141
0.4138842852
0.4199921105
0.4271167722
0.4236874943
0.4193448316
0.4226514111
0.4315514736
0.4280999155
0.433062619
0.4362056985
0.4373022096
0.436273583
0.4374885331
0.4477645384
0.4566442912
0.4696169874
0.4795284236
0.4852194483
0.4970944617
0.5105381036
0.531510862
0.5649459815
0.5969953363
0.637078583
0.6983354549
0.7377272422
0.7783923762
0.8529177608
0.9277234572
1.012098561
1.108750698
1.212457886
0.4118717098
0.4101751845
0.4128309584
0.4201289126
0.4253051398
0.4278688717
0.4243329961
0.4245921503
0.4247370059
0.4215100354
0.4290745544
0.4323372404
0.4315940853
0.4284843405
0.4321632018
0.4349157803
0.4362882413
0.4302745798
0.435936816
0.4441209561
0.4455392682
0.451566352
0.449523308
0.454362541
0.4588009014
0.4744290313
0.4904380902
0.5008108977
0.5145913626
0.5331218177
0.5522033788
0.5713244958
0.6043830154
0.6559284934
0.7102773383
0.7521986763
0.8240628264
0.9113266556
1.005116673
1.095662384
0.422567336
0.4228298815
0.4284910752
0.4247367455
0.4223786662
0.4247034212
0.4273504307
0.4282238022
0.4244178432
0.4182035359
0.4130569793
0.4143090428
0.4150447277
0.4151087878
0.4154561612
0.4166307404
0.4184161482
0.422388163
0.4322691489
0.4280177598
0.4318387179
0.4408169411
0.4450577882
0.4470776599
0.4568491056
0.4618197433
0.464119171
0.4724402755
0.4855986726
0.4989817893
0.5139914576
0.5305412212
0.5591414966
0.5859603509
0.6329274005
0.6895593127
0.7298009752
0.7985303958
0.8638647966
0.9561320627
0.4224038379
0.4182760906
0.4163030345
0.4167742993
0.4151598883
0.4093482819
0.4143713232
0.4166025205
0.4161609708
0.4175852278
0.4258910121
0.4253300419
0.4246813498
0.4213994516
0.419724099
0.4207306062
0.4235027289
0.4235181327
0.4254064215
0.4276806432
0.4227621239
0.422737998
0.4280724284
0.4357977588
0.435310615
0.4430510304
0.4475253723
0.4487110385
0.4621486169
0.4791197462
0.4958618932
0.5201321377
0.5396359306
0.5629480253
0.5848025797
0.617353721
0.6629894817
0.696601966
0.7701292537
0.8466723713
0.4107983156
0.4101545913
0.4116287752
0.4134830083
0.4180623263
0.4189085324
0.415341229
0.4194702795
0.4219825115
0.4167075437
0.4110299983
0.408005783
0.409440409
0.4126263881
0.4095966492
0.4114820293
0.420454172
0.4170749915
0.4132257167
0.4139214134
0.4194211596
0.423222667
0.418408314
0.427788545
0.4307623156
0.4419094551
0.4494868878
0.4721168398
0.4719784073
0.4844170911
0.4884346492
0.4994437809
0.5065847222
0.5250522999
0.5481115159
0.570185401
0.6123189749
0.6516608547
0.6788770257
0.7473253941
0.4196853026
0.4211180897
0.4245110955
0.4240835411
0.4169724037
0.4174234857
0.4138382898
0.4129354064
0.4117298141
0.413254159
0.4119070895
0.4149321893
0.4130437593
0.4107971398
0.4100507421
0.4106028327
0.4062823565
0.4058288892
0.4072521524
0.4091526416
0.4170248667
0.4229798104
0.4296620094
0.4282687892
0.4331154056
0.4403526591
0.4448035082
0.4421813913
0.4539398388
0.4609229662
0.4712777248
0.4839187017
0.4923576277
0.508875217
0.5253039803
0.53799596
0.5633689355
0.5942832391
0.6294370039
0.6664886956
0.4153411357
0.4138157514
0.4192075035
0.4198215877
0.4164190995
0.413690962
0.4141883089
0.415023181
0.4126013437
0.4092009545
0.4124818325
0.4122728107
0.4122256922
0.4127826006
0.4150714161
0.4157989368
0.4196671386
0.4194000796
0.4200973556
0.4207468297
0.4194236238
0.4248340026
0.4289218409
0.4289317513
0.4241185572
0.4269972075
0.4305578113
0.4387718778
0.448569381
0.4513518671
0.4556832687
0.4556708187
0.4705487652
0.4833945998
0.4952675704
0.5139110502
0.5247417056
0.5415676769
0.5777335879
0.6024607744
0.4152264823
0.4133610623
0.4112642166
0.4107447801
0.4094717262
0.413229143
0.4115470665
0.4083451402
0.4105156276
0.41674393
0.4198593503
0.4181323769
0.4209017021
0.4211503263
0.4178939684
0.4157946261
0.4131729961
0.4135781619
0.4159841942
0.4168698284
0.4167362811
0.418640647
0.4162861557
0.4195050193
0.4244708959
0.4276866432
0.4293693808
0.4270171196
0.4317593385
0.4342603347
0.4449202234
0.4538478885
0.4522173873
0.4618098698
0.4761776114
0.4879353798
0.5039869261
0.5256845217
0.5475420254
0.5788590923
0.4035707664
0.4026255648
0.4018716293
0.4028391487
0.4021666438
0.4059323555
0.4057309774
0.4087579729
0.4111144941
0.4116154422
0.4155362672
0.4148238985
0.4152689304
0.4164700637
0.4194513652
0.4195753268
0.4176265673
0.4193501772
0.4170983487
0.4169068601
0.4193334822
0.4179403247
0.4197365441
0.4184257276
0.4251369124
0.4206607435
0.4234725627
0.4327464772
0.4345574241
0.431759799
0.4357145875
0.4414783769
0.4490290065
0.454691458
0.4509101611
0.4646461761
0.4811685104
0.4947459886
0.5124784003
0.5272443169
0.4147720843
0.4183412657
0.4180555378
0.4202420427
0.4179413067
0.4205072544
0.4176634053
0.4153346109
0.4154498467
0.4168196604
0.4158263005
0.4159986157
0.4121713762
0.4132379249
0.4144725655
0.4149212313
0.4218159408
0.4227850707
0.427640901
0.4258755323
0.4258053583
0.4225763116
0.4230412855
0.4220220278
0.4243872509
0.4197528473
0.4131714394
0.4182982749
0.420000972
0.4231515904
0.4268974957
0.4306164449
0.4303257316
0.4442978086
0.453821716
0.4703091143
0.4751865134
0.4900577625
0.5015433199
0.5160644975
0.4167383218
0.4140380228
0.4177068575
0.4181289944
0.4212913287
0.417213844
0.4181221065
0.4172005689
0.4130498827
0.4121223382
0.4131004699
0.412364399
0.4130515212
0.4148770572
0.4163919727
0.4144459737
0.4147523428
0.4172243389
0.4146254322
0.4152673979
0.4224131966
0.4207747107
0.4232371193
0.4260071553
0.4264669211
0.4274173253
0.4306478578
0.4251713004
0.4273952687
0.4341083433
0.4336129275
0.4413542131
0.4501701685
0.4516212033
0.4560509993
0.4511894262
0.4600749886
0.4635480938
0.4762668904
0.4926102784
0.4206810848
0.4189252135
0.4181740976
0.4153565523
0.4142560972
0.416269606
0.4158369705
0.4173554218
0.4208190752
0.4235919187
0.4210586299
0.4236802867
0.4203170049
0.4149916463
0.4171591161
0.414474979
0.4080921774
0.4086046538
0.4117245105
0.4154350175
0.4120090454
0.4153027334
0.4090115515
0.4086576647
0.4077013172
0.4102288797
0.4086900549
0.4134633003
0.4203290572
0.4234731603
0.4285322726
0.4349531318
0.4366558975
0.4363314277
0.4339031977
0.4394364644
0.4448689504
0.4451082146
0.4606855474
0.4701373208
0.4063858368
0.4106999958
0.4147127873
0.4169580135
0.4129853659
0.4057186259
0.4077867401
0.409245407
0.4103262799
0.4127708892
0.4161099557
0.4138581847
0.4133665122
0.4152256574
0.4131239309
0.4149651267
0.4206603647
0.417633544
0.4120514993
0.4069242494
0.4023601603
0.4052772989
0.4139303592
0.4147415263
0.4215082754
0.4222364428
0.4216368702
0.4229434176
0.4260860443
0.4250136358
0.4229164939
0.4201557076
0.4226588267
0.4270880522
0.4312600988
0.4413907332