/*--------------------------------*- C++ -*----------------------------------*\
  =========                 |
  \\      /  F ield         | OpenFOAM: The Open Source CFD Toolbox
   \\    /   O peration     | Website:  https://openfoam.org
    \\  /    A nd           | Version:  7
     \\/     M anipulation  |
\*---------------------------------------------------------------------------*/
FoamFile
{
    version     2.0;
    format      ascii;
    class       volScalarField;
    location    "0.006";
    object      linearKEMean;
}
// * * * * * * * * * * * * * * * * * * * * * * * * * * * * * * * * * * * * * //

dimensions      [1 -1 -2 0 0 0 0];

internalField   nonuniform List<scalar> 
2400
(
0.5615288887
0.5711801557
0.5987781842
0.5874481337
0.5991099294
0.5834224652
0.5904078668
0.5873417903
0.6008786567
0.5948189236
0.592276352
0.6144029798
0.615163347
0.6248185065
0.6094831599
0.5990745555
0.6139469159
0.6259105189
0.6314506765
0.6385992389
0.5846007004
0.606523418
0.5868734631
0.5948885487
0.5857700302
0.604016281
0.6161185445
0.6109570826
0.6097039569
0.6154486264
0.6207750619
0.62592267
0.6648613065
0.6426752717
0.6573778785
0.648548277
0.6499332511
0.6506225333
0.6696516579
0.6731316748
0.578459979
0.5970699376
0.5988936714
0.6093553375
0.5997078869
0.6170487416
0.6034809214
0.620886231
0.6163376552
0.6336761737
0.6359518422
0.6273820205
0.6398742902
0.6479080463
0.6551517885
0.6583046136
0.6429376443
0.6503935317
0.6519988341
0.676126322
0.5922962534
0.5981011164
0.6014836979
0.6102733404
0.5729502904
0.5863181065
0.6118346136
0.6106723264
0.6123187
0.6155270955
0.6398922242
0.6299507081
0.6500796295
0.6663313319
0.6604688753
0.6633501688
0.650615152
0.6977388692
0.6947438615
0.6920036752
0.5584254272
0.5716018448
0.5970148345
0.5976943868
0.6065163604
0.5966092669
0.6194366202
0.6248749287
0.6281430093
0.6113716151
0.6116880149
0.626315511
0.6611330114
0.6723734736
0.6737379316
0.6449489728
0.675994559
0.6949751595
0.6958506556
0.6823420413
0.5663265721
0.5707470748
0.5790276074
0.5978970198
0.5958052704
0.589294904
0.6138224383
0.6252801935
0.6187353875
0.6230429049
0.6336381253
0.6478409119
0.6485854419
0.6703347352
0.641204644
0.6594915309
0.6502038825
0.6767924786
0.6882731787
0.6776449542
0.5860052197
0.5974729579
0.5981295058
0.6040098648
0.6106256756
0.6007716671
0.599813054
0.6186164511
0.6249443428
0.6368550168
0.650087806
0.6328413364
0.6531562191
0.6571765911
0.6528784243
0.6342595595
0.6627593868
0.6684558846
0.6629851926
0.6887571132
0.5895067112
0.599866773
0.5929558267
0.5916351188
0.588551752
0.6215390378
0.6059142855
0.6287533194
0.6485872516
0.6451095563
0.6516340977
0.6641945718
0.6668324791
0.6598642156
0.6733587626
0.6629165348
0.6802548634
0.6938742207
0.6680418243
0.6844274814
0.5803303707
0.6011824113
0.6103813604
0.5916319232
0.5915617801
0.6029495181
0.6045724429
0.6109715749
0.6239578357
0.64759972
0.648430204
0.644936345
0.6591577108
0.6630507982
0.6609253004
0.6720651426
0.6691513872
0.6741622431
0.6641980907
0.6767674614
0.5813713999
0.5925568636
0.5715248645
0.5832340459
0.5967287501
0.6168507588
0.6247636836
0.6349367499
0.6347099629
0.6232011192
0.6340976194
0.650621822
0.656952598
0.6586887895
0.6590882033
0.6639435554
0.6560092226
0.6554371148
0.6635793526
0.6753061824
0.5810370553
0.5869042416
0.5837732672
0.5919518321
0.6012795644
0.6273533032
0.6073552888
0.6306079349
0.620900946
0.6166276983
0.6163861986
0.6459565726
0.6459529836
0.6369935592
0.6638800566
0.6590766178
0.6647901349
0.6842210497
0.6687640898
0.6737151777
0.5763187867
0.5806501976
0.5717029396
0.5985872043
0.5896066031
0.6034176023
0.6275710498
0.6257600322
0.6377465132
0.643013309
0.6207417137
0.6493029295
0.6472201839
0.6508708076
0.6482570289
0.6755820738
0.6605576825
0.661105014
0.6726020206
0.6821235556
0.5551497826
0.5767791904
0.583472086
0.5866944106
0.5816705375
0.61244186
0.618146886
0.6202598732
0.6284563335
0.6300802696
0.6451782379
0.6357972994
0.6345751616
0.6554546089
0.6831393076
0.6684775886
0.688102832
0.6813291722
0.6995843202
0.7068153695
0.5536909807
0.5902145619
0.5770513474
0.5990614179
0.596407755
0.6213024961
0.6187450093
0.628662774
0.610295746
0.630653512
0.6448876052
0.6604504974
0.6413590608
0.6345521892
0.6717529331
0.6819824724
0.6763337265
0.6708961906
0.6854615666
0.6917667527
0.5687787586
0.5950163544
0.6089803081
0.5931622749
0.5970590327
0.6002512386
0.6086100608
0.617467018
0.608323384
0.623520384
0.6411443492
0.6472706441
0.6400650207
0.6114165049
0.622473427
0.6456028477
0.6776566578
0.6754284617
0.6950362401
0.6814297039
0.5792712405
0.5856764251
0.5959407468
0.6050768076
0.600056514
0.5956356244
0.6002952287
0.6269492626
0.6151471374
0.6255193197
0.6048758417
0.6456612222
0.646817228
0.6447138113
0.640959282
0.6474634906
0.6584090999
0.6719760582
0.6878525496
0.687356322
0.5755693305
0.5831423033
0.5959320604
0.6017256184
0.6019305453
0.6021780067
0.5966148996
0.6261812746
0.6252585751
0.6346133116
0.6314340047
0.6625536806
0.6468945629
0.6671054202
0.6277616377
0.6482840247
0.6730444809
0.6924303248
0.6826319054
0.6923541732
0.562131109
0.5842124335
0.5964391675
0.6172908745
0.610370936
0.6032956552
0.6019475697
0.6310703753
0.625949409
0.6380048816
0.6293301433
0.6641698804
0.6533007177
0.6627455051
0.6627165539
0.6587945494
0.6836796775
0.6795713613
0.6678280925
0.670522937
0.5695222347
0.5889098474
0.5748185807
0.6059308456
0.5936348729
0.6018142016
0.6034318711
0.6229123858
0.6425540114
0.6493736594
0.6191339543
0.6297557832
0.6533463668
0.6522009014
0.666135972
0.6804708176
0.6638714774
0.6666511874
0.6810830081
0.7035424688
0.5483484428
0.5800135158
0.5728049304
0.5946127865
0.6050009302
0.608540651
0.6233186318
0.6224258384
0.628663671
0.6237651964
0.6315711178
0.6268436537
0.6280462083
0.6360496846
0.6631391842
0.6679532176
0.6794014354
0.6658201046
0.6600266018
0.6849351061
0.5679140397
0.5840327745
0.5868543619
0.6009001364
0.6149581458
0.6052335137
0.6135068429
0.620009662
0.6127785395
0.6095885147
0.6184954136
0.6509184145
0.6685399442
0.6516667771
0.6915222178
0.6758320805
0.7015538421
0.7012885172
0.6840676316
0.6878065833
0.597912654
0.5960636375
0.5984614404
0.59071546
0.5986409326
0.606870224
0.6223044399
0.6310589952
0.6296920154
0.6397571624
0.6494823315
0.6280134684
0.6531930725
0.6513475269
0.6748997071
0.6480956648
0.6816070431
0.6904102727
0.7033523358
0.7000333693
0.5857584649
0.5956301548
0.6019448891
0.5946204925
0.5935612053
0.5737423205
0.607961007
0.6113699984
0.6291992926
0.6310609277
0.6269551904
0.6329164428
0.6368618763
0.6468495986
0.6761124771
0.6647427824
0.6749809921
0.6979368418
0.7055997374
0.701226143
0.5854828046
0.5897819589
0.6132705667
0.6001881122
0.6029804128
0.6067918021
0.6125670498
0.6343180989
0.6128030179
0.6121121277
0.6268801093
0.6393307995
0.6508228535
0.6540123681
0.6623719871
0.6636039161
0.675804868
0.6823776177
0.6852943751
0.6906046107
0.5799078398
0.5945133835
0.5828701153
0.5722447395
0.5809237614
0.605717371
0.6286575374
0.6064439062
0.626212636
0.6156130781
0.6216011714
0.6316255393
0.6506989494
0.6456558835
0.6424533534
0.6533681922
0.6662225031
0.6959679568
0.7020136106
0.6858571965
0.582501444
0.5865655238
0.5681163849
0.5721382936
0.5754222439
0.5990902712
0.6179833133
0.604836198
0.6096253064
0.6304819377
0.6244071154
0.6297274852
0.6469226389
0.6690253349
0.6538100183
0.6782913209
0.686678225
0.7019241914
0.6892807907
0.7149551156
0.587609635
0.5873319194
0.5933803844
0.6018009231
0.5906223953
0.5945287235
0.6329658544
0.6448783453
0.6414824554
0.606768243
0.6311964289
0.6200344567
0.6263534596
0.6670521744
0.6680749286
0.64829292
0.65414312
0.6857062723
0.6952072906
0.6947542568
0.5681954003
0.5931304472
0.5917414708
0.6120465095
0.6020794009
0.5988040379
0.6182575613
0.613900532
0.6149962763
0.6258547969
0.6399598689
0.646606908
0.644076728
0.6457677003
0.6551310703
0.6549165779
0.6647639632
0.678239953
0.6799162026
0.6943259719
0.5673365864
0.5935709921
0.5931178173
0.5957461644
0.5967182922
0.6324656312
0.6330247183
0.618886813
0.622754278
0.6229748391
0.6084450062
0.646952782
0.649395264
0.6467229294
0.6592849283
0.6837241207
0.6691962462
0.6794171277
0.6767210166
0.694286511
0.5740930274
0.5942342474
0.5785374937
0.5803609809
0.5972904078
0.613224175
0.6143812593
0.619120043
0.6173450537
0.6225097827
0.6354191442
0.635262391
0.6387096832
0.659303418
0.6620320791
0.7001760305
0.6871934189
0.679121905
0.6796963167
0.6756893844
0.565200866
0.5696361596
0.5920137547
0.5783235582
0.6044777582
0.6067743386
0.5977232132
0.6137012175
0.6088959725
0.6281458409
0.6508312212
0.6578089654
0.6585880437
0.6530932036
0.6643372303
0.6793142008
0.6684698234
0.6540514633
0.6770283479
0.7005089589
0.5668033148
0.5880470495
0.6183167045
0.5904541562
0.6124029538
0.6335966847
0.6251074947
0.6204480203
0.6128618469
0.6333545248
0.6431192965
0.6340559109
0.6476229435
0.6668303339
0.6697510425
0.6521279603
0.6524569911
0.6624613985
0.6627074101
0.6699048033
0.5860094259
0.6060219303
0.5931009742
0.6075020833
0.611390921
0.6055245486
0.5900918145
0.6004143644
0.6097129922
0.6216545486
0.6171453006
0.6377473018
0.6619987828
0.6417756655
0.6489350486
0.6497444752
0.6630131986
0.6823719933
0.6638239517
0.6839811944
0.5537967833
0.5823112346
0.6095136004
0.5939861457
0.5904063809
0.6167276457
0.619305885
0.6151114141
0.6108099548
0.6289321564
0.6532805469
0.6365193561
0.6425713184
0.6550819886
0.6245152271
0.6406680436
0.6453157053
0.6697189603
0.6512443039
0.6753361692
0.5607038253
0.5896805977
0.6006112062
0.5956367295
0.5898335624
0.6157214737
0.6255268652
0.6337867276
0.6204363362
0.6630345106
0.6553756994
0.6532175135
0.668263715
0.6628281132
0.6565813284
0.6574039874
0.6725005588
0.6790717953
0.6815455162
0.7000366712
0.5802892304
0.5962729293
0.6108907709
0.6038814154
0.6108942209
0.59477353
0.5983723631
0.5925275701
0.615272595
0.6436036503
0.6341911057
0.6253492881
0.6555975329
0.6616510765
0.6622712649
0.6775644487
0.6927538631
0.6820695851
0.6817916636
0.6829672288
0.57536794
0.5996799563
0.6094130989
0.6142255722
0.6215473195
0.6102178378
0.603320505
0.6178365517
0.6227105428
0.6649466926
0.6678381244
0.6571508307
0.6534556713
0.6710983237
0.6586568361
0.6496581776
0.6677888149
0.6727345239
0.6737966134
0.6885786116
0.571121552
0.5999918161
0.6038653361
0.58404
0.6320486046
0.6258102187
0.6133855934
0.6352662459
0.6330623321
0.6436222693
0.6498363236
0.6586123604
0.6636745075
0.6546447728
0.6798889646
0.6440382686
0.6598121617
0.6754430148
0.675453898
0.6872462179
0.5865845689
0.6101223815
0.60298769
0.5887624059
0.6061994473
0.6267898507
0.6259324491
0.62694023
0.6291909202
0.6200014985
0.6407340997
0.6542541986
0.6653699773
0.6382286457
0.6259319822
0.6595688836
0.6427162294
0.6492384289
0.6941554441
0.6985354202
0.5817945431
0.6055410831
0.5957851009
0.588527104
0.6000271983
0.6074612453
0.5937379797
0.6174455493
0.6202493948
0.6299335921
0.644941647
0.62549418
0.6236218578
0.6193217837
0.6136164524
0.623709943
0.6128727202
0.6283751226
0.6280791125
0.6434564165
0.6826439798
0.6940990233
0.7281210356
0.7413757492
0.7230822122
0.7295673469
0.7209663746
0.7112383587
0.7348288497
0.7391323599
0.7354349104
0.7487846823
0.7810059474
0.7737642086
0.768323592
0.7825385961
0.7845497417
0.7877496887
0.7481311284
0.7424869555
0.7837928783
0.8050717918
0.7778888995
0.8061323056
0.8180914936
0.7967856694
0.8210861823
0.8226463542
0.8239884932
0.8457627995
0.8436948654
0.8488671079
0.8224442417
0.8161005172
0.8698196295
0.8712582924
0.8775434164
0.9298685606
0.8838020114
0.8914204919
0.6795486361
0.6851790109
0.7221336141
0.7457281223
0.7458798546
0.7645748902
0.7440864604
0.741769083
0.7748170216
0.775127627
0.769571991
0.7931751816
0.8076375388
0.7661704885
0.7719137345
0.771078338
0.7762649896
0.7989593848
0.8120242214
0.8070140161
0.8203209947
0.8373657146
0.8177058757
0.8311490349
0.8641296428
0.857021395
0.8776708596
0.8806648539
0.8471287208
0.8635165208
0.8497165792
0.8830633719
0.9059109447
0.9344728766
0.8996336865
0.9475161718
0.949268523
0.9324617881
0.9594215969
0.9414680364
0.6837764323
0.6884913096
0.7339868176
0.7491628545
0.7593319573
0.7726345966
0.7363834303
0.7752192695
0.7781651975
0.7957290407
0.8067511234
0.8126739467
0.8182595455
0.813961357
0.8446594904
0.8070852239
0.8372758242
0.8776937885
0.8651883175
0.8579698472
0.840814169
0.8479109165
0.8987303308
0.8747270841
0.874281885
0.8696212993
0.9224101134
0.9107011591
0.9296587786
0.8854014798
0.925155518
0.9192362667
0.9401181893
0.9211751376
0.92093589
0.9655611309
0.943679635
0.9670640428
0.9761747768
0.9273692559
0.711720024
0.7141579901
0.7165584954
0.7228249223
0.7384201025
0.7607159543
0.7701216172
0.7910701132
0.793167564
0.8079857103
0.8459794297
0.8210378756
0.8563932835
0.8460161392
0.8310744482
0.8369080844
0.8367960882
0.8712486062
0.853053718
0.8530936162
0.87071664
0.8781360792
0.8861239223
0.9324230406
0.934616323
0.9547347509
0.9569033273
0.9599360518
0.9695542715
0.9523876592
0.9281026859
0.9414622919
0.9465972247
0.9473197315
0.9641981457
0.9939667243
0.9944358176
1.016211158
1.002125826
0.9748540898
0.692011818
0.7178491427
0.7350226695
0.7384833976
0.7436327628
0.7601942103
0.7701131149
0.7753890644
0.7896392637
0.7829030646
0.8205850607
0.791298459
0.7764590217
0.7826907185
0.820464656
0.8348236715
0.8404343511
0.8505809308
0.8517285966
0.855272582
0.8756845705
0.9326394264
0.9283195673
0.8931453001
0.9287117769
0.9228102468
0.9486664205
0.9460677908
0.9340840483
0.9146381501
0.9395229711
0.9337499944
0.9585462067
0.9739825884
0.9867609495
0.9870749281
1.005155698
1.002013364
0.9939084085
1.011734852
0.6984206517
0.7327440685
0.7358074367
0.736763707
0.7208642854
0.7108759212
0.7614793126
0.7762538385
0.7419675742
0.7507260331
0.7844395397
0.7824757512
0.7635778734
0.8238095154
0.819551049
0.8220468867
0.827372211
0.8539996791
0.8609934868
0.89374399
0.899785935
0.8691578668
0.9244737794
0.9184100982
0.9377377585
0.9426513968
0.9533314666
0.9536783106
0.9424063689
0.9279115801
0.9411437399
0.9367693901
0.9888195413
0.9913925283
1.00420382
0.9890095407
1.016827139
1.00314875
1.007796867
0.9931746147
0.6990576049
0.6869955058
0.6719188371
0.7229267023
0.7441512483
0.7464690389
0.74723533
0.7236435473
0.7535892603
0.7451851279
0.7781405436
0.8013102258
0.7707819846
0.8025478369
0.8072302114
0.8218361059
0.8419889248
0.854287588
0.8722762502
0.8728297159
0.9239453712
0.9149553428
0.9082860873
0.9118346934
0.9669790901
0.9621263697
0.9683998568
1.001388406
0.9845355814
0.9623795754
0.9516019724
0.964420658
0.9795491221
0.9993037585
1.028766816
1.008179381
1.000976538
1.023419793
1.044932883
1.056129827
0.7146486584
0.7118214859
0.7170856769
0.6875275919
0.6949561177
0.7146369494
0.7330428781
0.7463573545
0.7450286904
0.7241091467
0.7509298913
0.795355194
0.8065533626
0.7953178957
0.8162797302
0.8443362089
0.8452101873
0.8202656505
0.8928271316
0.905337084
0.9064341097
0.910731295
0.894924834
0.9172777085
0.9612912056
0.9397691288
0.9512375101
0.9491214837
0.9803091191
0.9461817486
0.9459159907
1.009707813
1.002375231
0.9896394205
0.9833044708
1.007172361
1.005369585
1.009611106
1.017430596
1.07128184
0.6725959759
0.6975509803
0.6823817185
0.7109264397
0.7224201257
0.7229723606
0.7398472373
0.7162384689
0.7790320026
0.7780586271
0.7558740072
0.7873036972
0.811349406
0.8192261833
0.806720837
0.8328809975
0.8631369323
0.8330615333
0.8452197233
0.8866637567
0.8898862107
0.9187012545
0.9146454606
0.9005592945
0.9043239064
0.9205779315
0.9249842386
0.9417941706
0.9553610146
0.9608416718
0.9296096645
0.9651268327
1.016038329
1.042538636
1.018855045
1.003193802
1.037547185
1.059700746
1.083785646
1.094875334
0.6898686457
0.6902617623
0.7039740352
0.7093819694
0.7157589582
0.7162853056
0.7423214239
0.7506574984
0.7606357794
0.7929975196
0.804562242
0.7971829793
0.790448813
0.8287250869
0.8446798602
0.8232345033
0.8153893664
0.8158898752
0.8332554901
0.8649406505
0.881094182
0.9019194937
0.8834685187
0.9028906128
0.9289096124
0.9410947119
0.9259166707
0.9121418279
0.9363165263
0.938712152
0.9960911811
1.012963237
1.024456794
1.026719517
1.009955473
1.041538944
1.026719668
1.068791835
1.056012728
1.059507164
0.6883986451
0.6795785591
0.6797365657
0.7175029042
0.7349496802
0.7321933729
0.753587344
0.7329306309
0.7515727227
0.7377265731
0.7688074985
0.775604951
0.8013663243
0.7985003747
0.8017877503
0.8160291301
0.8092381052
0.832925064
0.8392626098
0.8494882556
0.8602654015
0.885330027
0.8854050519
0.8775296193
0.9301522244
0.9249888683
0.9396570034
0.9411575644
0.9443808402
0.9295677375
0.9433404636
0.9792730336
0.9775770985
0.9949460684
0.9926063531
1.01679772
1.065365123
1.066518822
1.118517621
1.126724178
0.6718188387
0.6810040764
0.7083409878
0.7265741508
0.724558731
0.7344420004
0.7536886366
0.7309701998
0.7529520236
0.7405551043
0.7571829362
0.7692533299
0.7771441985
0.7715233868
0.8130511398
0.8131118954
0.8104355676
0.801290816
0.8096241859
0.8442697553
0.8306874522
0.8603225605
0.8576559601
0.8465163074
0.8812679697
0.9002783534
0.9239180553
0.9092446995
0.9187059407
0.9346529026
0.9308533187
0.9249855991
0.9643926116
1.023173894
1.010165332
1.018793576
1.047285991
1.032421998
1.098206694
1.131129551
0.6972866852
0.7024684984
0.7219302177
0.7161107091
0.7413601449
0.7379064614
0.746094526
0.7425710864
0.7556023517
0.7626005426
0.7482720721
0.7649002488
0.7657016217
0.7984086322
0.7942465561
0.8074491515
0.8181398425
0.8183734138
0.7952655257
0.8217411953
0.8181697594
0.8669063403
0.836093098
0.8478517225
0.8992291377
0.8716935622
0.9173949086
0.918797193
0.9217254274
0.9452893241
0.9389247617
0.9631140267
0.9738429654
0.988416732
0.9977149445
1.002669249
1.026924924
1.065251703
1.079912545
1.094423747
0.7025669015
0.6901518622
0.6892814738
0.6998989442
0.7197476183
0.6998756774
0.7197571109
0.7270945717
0.7294812655
0.7402722515
0.7702115071
0.7492611797
0.779053865
0.7817274726
0.7835257795
0.7873896906
0.8291879961
0.8381937484
0.8477776727
0.8478674078
0.8438423659
0.843181819
0.8621036783
0.8484559279
0.8727203031
0.8956152586
0.9174703645
0.9112067737
0.9399965978
0.9768106328
0.9921327766
0.9588271558
0.9705233303
0.9738678344
1.020959704
0.9751901371
0.9770607399
1.008027942
1.057516126
1.116432444
0.6815822883
0.6681208848
0.6973441702
0.7083761269
0.7089565407
0.7202871135
0.7346757023
0.7783612591
0.7435484835
0.7709312851
0.7892450332
0.7807490555
0.7653195675
0.7798639905
0.797009804
0.8150539112
0.8191701373
0.8249100945
0.8153115885
0.8272772929
0.8280712168
0.8366660713
0.8284516806
0.8663148273
0.8868352598
0.9007510477
0.8998839514
0.9039824196
0.921133808
0.9084721331
0.9363819843
0.9342127055
0.9510215134
0.9790192006
0.971951071
0.9895319893
1.008584545
1.021312198
1.021806694
1.043162137
0.6785680008
0.7117081196
0.7280981336
0.7369105142
0.7206346144
0.7246068448
0.737119617
0.7522513498
0.7267034159
0.7501061418
0.7553700139
0.7621319859
0.7685425819
0.7771714108
0.7979494379
0.7840959559
0.8254305848
0.8270318471
0.8580966963
0.8624666682
0.8169464874
0.8305866547
0.8555171592
0.84778056
0.8547070484
0.8645836365
0.8549543793
0.890005941
0.8820267146
0.9120767064
0.9045919002
0.9456262047
0.9353420265
0.9192173822
0.9830352749
0.9918462419
1.017618926
1.01784804
1.043268829
1.057278394
0.7048784802
0.718467759
0.6813070499
0.7067325493
0.703847442
0.6916894725
0.7363641581
0.73887746
0.7656225553
0.764442179
0.7847860498
0.7845454709
0.7870632497
0.7785548518
0.764839521
0.7756715076
0.7935020159
0.8156242694
0.7943011704
0.8213683909
0.8239730734
0.8448545732
0.8341209882
0.8145925871
0.8363668235
0.8549650436
0.8615893485
0.9078745487
0.9390792195
0.9511123581
0.9175787781
0.9202763978
0.950771522
0.9313824804
0.9840914984
0.9740935146
0.922901789
0.9952890785
1.016455362
0.9849524429
0.6898129881
0.7124922501
0.6952022741
0.7305147593
0.7065403226
0.7357171449
0.7308832545
0.7448332398
0.7704164548
0.7657747226
0.7794562491
0.790246948
0.7581948423
0.7725839306
0.7760099497
0.7803237292
0.8047790658
0.8121194052
0.8142412467
0.840266462
0.8241780739
0.828046963
0.8194046593
0.8274234002
0.8352919806
0.857245096
0.8837535591
0.8821989646
0.8832085136
0.9026270493
0.8708833603
0.93205047
0.9070348087
0.91861492
0.9534106093
0.9689864406
0.942310745
0.976528199
1.019716608
1.054953463
0.7171112213
0.7019336906
0.7015605865
0.724089679
0.7394182686
0.7594812079
0.7565384318
0.7332513075
0.7462615014
0.7405150277
0.76314681
0.7741138066
0.764664163
0.7549656433
0.773955523
0.770911519
0.7748566907
0.7911332914
0.7923978057
0.8478753189
0.8461390625
0.8413380184
0.8426541481
0.8632911255
0.8617820694
0.8757290919
0.8595183515
0.8621996783
0.889624608
0.9185932361
0.9041894418
0.9439769837
0.9602426917
0.9459596734
0.9567030397
0.9721495087
1.001572891
1.009737759
1.017365853
1.018421391
0.7221854924
0.7016687399
0.700922185
0.7178450585
0.7172482023
0.7344944567
0.726857793
0.7425946403
0.7329133291
0.7566656079
0.7693359591
0.7645814711
0.7659012005
0.7763524258
0.7719151964
0.7820799175
0.7819817414
0.7792092341
0.810710276
0.8265992117
0.8403037285
0.8326770701
0.8250620818
0.840817529
0.8536622179
0.8386100294
0.8565202432
0.8824992258
0.9002074414
0.8697550326
0.8923792432
0.8786586049
0.93343963
0.9354725948
0.9310535492
0.9334650822
0.9508000241
0.961247176
0.9849210397
1.018226843
0.6905974042
0.6670106815
0.7102691873
0.7013446771
0.6970849218
0.7002936943
0.7023782297
0.7537878941
0.7484999234
0.7364701934
0.732162986
0.7402775826
0.7680074048
0.7939697396
0.8086437383
0.8043798947
0.7943826405
0.7901255881
0.8087774757
0.7805556599
0.801562265
0.8386035812
0.8187270221
0.8245689836
0.8482077926
0.8257477139
0.864137596
0.8821201395
0.8703075288
0.8709956146
0.8860355175
0.9211736927
0.9328726255
0.9335807406
0.9367555112
0.9419459282
0.9656523156
1.01547605
1.001489345
0.9837346957
0.6862733906
0.6916218269
0.7156567121
0.7185476193
0.7047376858
0.7103550357
0.7040295259
0.7446620037
0.7278416241
0.7507746004
0.7607004322
0.7823513272
0.7669990718
0.7724041429
0.7803265072
0.8083422473
0.7911739384
0.7916199115
0.8092667177
0.8163812402
0.8275007795
0.850490027
0.8584506538
0.8080404206
0.8402724136
0.8608897567
0.8498302191
0.8481479893
0.8566710034
0.8616429882
0.8815401403
0.9230098951
0.9054254518
0.9081266506
0.9196961101
0.9388312104
0.9261047475
0.9406863502
0.9343659092
0.992285618
0.6882704744
0.6876469845
0.6804834125
0.7298621692
0.7175550485
0.7217077183
0.70410274
0.7161190638
0.7313988763
0.7465670724
0.7615534804
0.7807985736
0.7631115734
0.7633056826
0.7715233703
0.7763713156
0.7677855584
0.8013552082
0.7790990271
0.7940672388
0.799131694
0.8112474559
0.8144834244
0.84368526
0.8413257665
0.8608917053
0.8440650909
0.8713433034
0.8800213527
0.8659550804
0.8895214046
0.9043336292
0.920663199
0.9261786206
0.9418754226
0.9288206616
0.9514204501
0.9545653158
0.9599101209
1.021167548
0.6942859367
0.7158699844
0.7050584362
0.700952942
0.7301560624
0.7186903584
0.7119683679
0.7354273301
0.731847988
0.7319425435
0.7478820688
0.7717952953
0.7599461766
0.7647986947
0.7667397603
0.7748494616
0.7756665709
0.7985604841
0.7919432541
0.8037765732
0.8175611354
0.8450558037
0.8451181818
0.867274757
0.8538637041
0.8462842828
0.841957625
0.8415094521
0.8738782814
0.9143105118
0.9513512207
0.9437726824
0.9538115749
0.930194752
0.965523801
0.9569274025
0.9828549456
1.002149835
0.9885640248
1.010933212
0.6993811228
0.7002739752
0.7057390054
0.7242917042
0.7232578601
0.70844757
0.7055986079
0.7422263886
0.7461422542
0.7399472323
0.7290726498
0.7778840961
0.7681913843
0.770329447
0.7680706986
0.7592146871
0.7935762122
0.796892011
0.788708987
0.79957992
0.7954143339
0.8361032525
0.8322457533
0.8278834299
0.8294372757
0.8157962262
0.8661198094
0.9066553931
0.8982057405
0.8951106494
0.8925960797
0.8799910643
0.9031504726
0.9190739829
0.9288282182
0.9076462493
0.947271568
0.9603721265
0.973359171
1.032292354
0.719705009
0.7028428642
0.7038002945
0.7037489614
0.7040697728
0.6941032669
0.7326640333
0.7540711042
0.7368821986
0.7363956604
0.7352950281
0.7619203735
0.7576027332
0.7742986711
0.7663656922
0.7588061934
0.7829791196
0.8073279507
0.8044682546
0.8326939675
0.8138438331
0.8261737558
0.8327868877
0.8439725395
0.8473460581
0.8384349063
0.86766503
0.8705898097
0.8787126502
0.8795910072
0.8822185888
0.875423913
0.9156032663
0.9190858585
0.9261373416
0.927695774
0.940091706
0.9482379862
0.9581247843
0.9665564349
0.6779729015
0.6744625001
0.665357467
0.7012949363
0.7065256027
0.7182871556
0.7095421375
0.7097609147
0.7305252251
0.7421244787
0.7485891551
0.753136054
0.7579849287
0.7586431391
0.7710605864
0.7732170607
0.7867658037
0.7910313676
0.7861993512
0.8253378315
0.8071993516
0.7935483304
0.7844317106
0.8317837544
0.8148848472
0.8460504764
0.8454396823
0.8775908796
0.8865077441
0.8920723497
0.8801212406
0.8969334829
0.9091837494
0.8868578679
0.9239175642
0.9022506178
0.9324435068
0.9340901702
0.9380856489
0.967985329
0.6855634813
0.6771749208
0.6795045525
0.7049500014
0.725205833
0.7480966912
0.6917936629
0.7085827071
0.7427765148
0.7515667749
0.7785398935
0.7844136282
0.751090416
0.7560395605
0.783322358
0.8141476208
0.7728742552
0.8068147006
0.7724463497
0.7901053367
0.8185568151
0.8453786761
0.8310518695
0.831650682
0.8149517021
0.8388896097
0.8353375049
0.8525380693
0.8813839514
0.8901757195
0.8978661546
0.9109485876
0.890220328
0.874528809
0.9033577694
0.9096379879
0.9076266286
0.9213731611
0.9454974954
0.9547099922
0.6869370574
0.7071801435
0.7108698884
0.7159979078
0.7190308551
0.746083606
0.7311190747
0.7413835852
0.7456274367
0.7288368695
0.7385587103
0.7515876129
0.7728794428
0.7610874328
0.7762875362
0.7762064786
0.8122007399
0.8144358192
0.8253386682
0.8423156095
0.8236048086
0.8338065518
0.8183551158
0.8191983693
0.8511033143
0.8710944476
0.8642365209
0.8789154949
0.8722038393
0.8982255345
0.9162533412
0.9136733994
0.8814078126
0.9136935375
0.8949299567
0.9087648518
0.9102579866
0.9517153893
0.9603265879
0.9797177079
0.7003408676
0.6933371569
0.6880580921
0.7139684656
0.7141219895
0.7447301169
0.7505680944
0.7537452887
0.7640190848
0.7489492255
0.7636124488
0.7640988585
0.770086596
0.7554103024
0.7935208821
0.7828099638
0.7940715372
0.7906633644
0.786475607
0.7897552462
0.7560009993
0.7761451116
0.7952929665
0.8279053972
0.8129534062
0.803417581
0.8144623498
0.8707994267
0.8629369616
0.8698653706
0.8637490959
0.8494280681
0.8645314264
0.8772824075
0.8805924457
0.920232438
0.9536532867
0.9432332325
0.9637238358
0.9835656567
0.6917292653
0.6975125459
0.7207151035
0.7279366953
0.7302126777
0.7438299688
0.7338096105
0.7498605996
0.7485871371
0.7714540598
0.7576799208
0.7833678304
0.7865858784
0.7820799986
0.7915316146
0.772387846
0.7960567369
0.7944286392
0.7987798315
0.8106429128
0.8092528782
0.8085014766
0.7917621012
0.8110682
0.8408445203
0.8514287996
0.8691751132
0.8764591121
0.8898247775
0.8891724683
0.8657685806
0.8924983322
0.8650713169
0.8996383232
0.9029408492
0.9188014664
0.9329331723
0.9700602578
0.973196385
0.9767444922
0.6660163438
0.6898690989
0.6940739079
0.7119697245
0.6979386262
0.7375181631
0.7281542138
0.7398142772
0.7432175148
0.7576691021
0.7384252245
0.7447319039
0.7467633805
0.7435950681
0.776525929
0.7651639518
0.7939532642
0.786594225
0.7882929465
0.8248141588
0.7988970617
0.8123839568
0.8339891221
0.7959276078
0.8435190202
0.8519545396
0.8526986339
0.8258799562
0.8298057417
0.8179468506
0.8527854155
0.8393453724
0.8784208811
0.8942845984
0.913719282
0.9218707559
0.9388157472
0.9335937297
0.962911688
0.9459886549
0.6839612342
0.6774618522
0.6995909086
0.7091191457
0.7150266456
0.688209257
0.7207944178
0.7162868983
0.7518939338
0.7661161926
0.7477392643
0.7268958747
0.7527747705
0.7733031458
0.7649578578
0.7925174627
0.7925158357
0.7909376129
0.8152865079
0.8043058188
0.7968586561
0.8003429184
0.81878122
0.8013727038
0.810087015
0.8261434106
0.8278005527
0.8509894934
0.8366511866
0.8643562766
0.8695685045
0.8551605016
0.8825543448
0.9036319743
0.893171585
0.8994316014
0.9069888123
0.9149473709
0.9013173182
0.9101677705
0.6863901076
0.6940389344
0.6978174183
0.7067332443
0.6920023833
0.6976561038
0.7204854542
0.7406505384
0.7413282471
0.7649309161
0.7601620042
0.7151868252
0.7642246758
0.7637736641
0.7644872373
0.7662488584
0.7609945139
0.7721453375
0.7861707581
0.7750895815
0.8100866907
0.8177898949
0.8401655438
0.817905234
0.8049228596
0.8083158782
0.7966890574
0.8098907495
0.8603565257
0.8815556343
0.8569907876
0.8616180463
0.899802548
0.8945351481
0.8695431258
0.8788937026
0.9017707793
0.8785981727
0.8903137314
0.8973531222
0.702760474
0.7091245334
0.7192587601
0.7179695195
0.7231878895
0.7196054578
0.7229810288
0.7197323905
0.7231604723
0.7444241821
0.7518481261
0.7201665903
0.7373487233
0.7499735424
0.7376825619
0.7620219797
0.7713680521
0.7871201424
0.7881104498
0.7933801903
0.7891633167
0.7944149863
0.8249844194
0.8116841841
0.8275066149
0.8354316513
0.8452924964
0.823179929
0.8196675745
0.8362565295
0.855222065
0.8505267666
0.8677673656
0.873112748
0.8958758278
0.8825062476
0.8627288972
0.8604323081
0.8935900251
0.8922556749
0.6772056735
0.6719906122
0.6906541255
0.6813841383
0.7090420225
0.7135655812
0.7143987664
0.7537023767
0.7366301005
0.7511807952
0.7393659465
0.7335358331
0.755185361
0.7735060318
0.7636019661
0.767765362
0.7809801233
0.7692538144
0.7738284341
0.7571054274
0.7822340989
0.8027971517
0.8174531962
0.8109607957
0.8025348467
0.7982260949
0.7869187256
0.8168712301
0.8221076583
0.850276198
0.8350330136
0.8190236137
0.8169632362
0.8420008389
0.8440491595
0.8852388633
0.8677184367
0.9070635569
0.8851512548
0.872873183
0.6694555613
0.6943478822
0.695647194
0.7093288831
0.7063893072
0.6982145186
0.7257579504
0.7479092099
0.7399654008
0.756145611
0.7737200038
0.7416590932
0.7349575177
0.7334228413
0.7796072104
0.7415378837
0.7496080903
0.7785144243
0.757981101
0.7537485286
0.7444906041
0.7773116834
0.7710619272
0.7933788873
0.8020900773
0.8526871729
0.8404511884
0.8356294788
0.8250117476
0.8176749331
0.8195109874
0.8118489425
0.8225828372
0.8235844588
0.8256919431
0.8205139412
0.8241130652
0.8294027626
0.8418209551
0.8419936652
0.6884597387
0.6570901245