/*--------------------------------*- C++ -*----------------------------------*\
  =========                 |
  \\      /  F ield         | OpenFOAM: The Open Source CFD Toolbox
   \\    /   O peration     | Website:  https://openfoam.org
    \\  /    A nd           | Version:  7
     \\/     M anipulation  |
\*---------------------------------------------------------------------------*/
FoamFile
{
    version     2.0;
    format      ascii;
    class       volScalarField;
    location    "0.006";
    object      linearKE;
}
// * * * * * * * * * * * * * * * * * * * * * * * * * * * * * * * * * * * * * //

dimensions      [1 -1 -2 0 0 0 0];

internalField   nonuniform List<scalar> 
2400
(
0.5246567977
0.4784689072
0.700487853
0.9345940097
0.2495654451
0.337552946
0.5166811226
0.1779150078
0.7193042614
1.380896927
0.5947082236
0.4835011473
0.5016505533
1.213736313
0.2536406815
0.3959028171
0.9109605598
0.6463492842
0.3741627297
0.9134767948
0.3303233418
0.75867482
0.5413205595
0.507713088
0.516291993
0.6143844814
0.5972531583
0.8654323871
0.3670078333
0.2877494974
0.6078507362
0.6542183303
0.3809922273
0.9976540821
0.7109596348
0.5935077627
1.00603933
0.2947700984
0.5391303757
0.2981355454
0.7065277319
0.6946080486
0.551995133
0.6738348683
0.4458240849
0.9770875222
0.741462737
0.8744853578
0.8743951467
0.5101247058
0.08099414252
0.7993439656
0.8135159618
0.750700983
0.5139001881
1.339645322
0.2888248668
0.1893904225
0.7363794078
0.8676301602
0.2524321837
0.2448683844
1.05536003
0.8008152387
0.4877756895
0.3233478829
0.807239679
0.253042424
0.8834344851
1.138572338
0.823582759
0.234265511
0.9168672887
0.4578686407
0.8740413608
1.050532543
0.4630973943
1.29247201
0.7605274704
0.5470702902
1.024223937
0.2761090293
0.6836380029
0.7515017329
0.8143605255
0.7264366959
0.5049189188
0.5375662939
0.3720712743
0.6539287423
0.4878652097
0.2928330693
0.8214881345
0.9672323017
0.5117062327
1.213156298
0.6528434248
1.44621911
0.3444010664
0.3728337251
1.067343724
0.8791510939
0.8288238343
0.5116477937
0.9207035998
0.6289349
0.273394827
0.5453465349
0.4753552937
0.5614638295
0.5414152598
1.02648294
0.312932801
0.8553358532
0.4606053945
1.003628002
0.4938608852
0.9726584572
0.7219274633
0.4900954599
0.7680518655
0.6650939192
0.7829258684
0.2964426393
0.5844551043
0.9333050501
0.3780680507
0.6701668263
0.5582405883
0.210205371
0.5565899755
0.4808284482
0.2926096629
0.7725004894
0.4193543133
1.111269837
0.7292959946
0.5478659644
0.7981573822
0.3676378297
1.217984711
0.5277602354
0.7034403038
0.6554243016
0.7867549368
0.5611352081
0.9694978898
1.007230886
1.470147057
0.4420832797
0.8250319943
0.9010173482
1.085420127
0.4210415627
0.4560147006
0.1596791632
0.3601329835
1.877643946
0.4816450618
0.6185741565
0.2722125158
0.3590227767
0.5027781587
0.6584554178
0.6467040184
1.030105686
0.8927679946
0.9272788089
0.6377062055
0.7214984789
0.4027969428
0.5649311053
0.612141365
0.405001434
1.009808522
0.582891416
0.3871594234
0.3845568025
0.9171254744
0.1397834321
0.6788198567
0.5278498027
0.4851369251
0.6814007447
0.7950923602
0.9091933585
0.5254936504
0.72001868
0.7725702836
0.4555178711
0.6513377083
0.6938589544
1.135418098
0.6340279236
0.3992320412
0.8783613011
0.6910676551
0.9758805065
0.9777941827
0.9995196139
0.6168291811
0.8904945958
0.9120405632
1.085912748
0.3455914521
1.064308995
0.9860247233
0.2985164937
0.6173419068
0.8228701881
0.4822261169
0.5603144719
0.3009207493
1.052033444
0.8365282652
0.8070521026
0.3991439609
0.4716831905
0.4276092397
0.8876625285
0.7837532083
0.5715253045
0.3504954548
0.9377447939
0.3941547969
0.7592737763
0.8572061275
0.4084886317
0.8887641188
0.8665473742
1.082360244
0.8299400701
1.036484153
0.9471317221
0.4361745451
0.5343681642
0.5384224298
0.393955804
0.7732777382
0.5197950368
0.4414740848
0.7968572245
0.4556292464
0.6308623665
0.4154686352
0.6791939652
1.142578248
1.379330015
0.8181326544
0.8743949528
0.3155841192
0.9259062724
0.768551804
0.4196857051
0.5763422071
0.3318998175
0.3889878461
1.204830575
0.680738075
0.8774005226
0.582111242
0.6050140597
0.7696992915
1.046598679
0.7877462824
0.4962196984
0.3379233968
0.673399247
0.9152289791
0.832608446
0.7724414074
0.8129634515
0.4991109159
0.5861606793
0.2062934868
0.5100913159
0.3795334908
0.2329357135
0.7608869273
0.3457575558
0.4533065685
0.2100388791
1.36788534
0.4935597894
0.5424740873
0.1278444105
0.4537522452
0.7563627787
0.5766306907
0.3384181319
1.24106199
0.2134602644
0.7042560031
0.891417133
0.5966959317
1.087413482
1.637739402
1.223895948
0.6008374776
0.4703986117
0.5041966521
0.8251443538
0.3120763693
0.5170836874
0.2728882265
0.3936574334
0.7207875029
0.6816524531
0.3476143351
0.2419972391
0.9206947736
0.2719537242
0.3785823413
0.8513262123
0.6292469298
1.033314463
0.6832171499
0.498599944
0.6210521141
0.7098274005
0.7319076143
0.0932725794
0.7690099752
0.4549431158
0.8492139831
1.105837731
0.7184743873
0.4608981732
0.4288056559
0.9658103042
0.3056842901
0.6457667556
0.8223261853
1.040713301
0.6190510866
0.9539795222
0.7044976347
0.2618240783
0.8848801832
0.5798436952
0.3419968193
0.6709727953
0.9522953969
0.768912596
0.5985918836
0.3416218585
0.2531333379
0.6184067983
0.3626603548
0.6000819928
0.3305709801
0.647857804
0.4285830785
0.5895369522
0.5421847093
0.7601119373
1.171767099
0.2457968623
0.1424032497
1.062402117
0.8662896567
0.7699421627
1.365702009
0.7464980137
0.8151561177
0.4765542539
0.4201588621
0.6512667672
0.3147112779
0.9833618731
0.5478362779
0.6546782583
0.6581558592
0.4425606953
0.7828129648
0.8207140979
0.7353297973
0.2359595915
0.6591188262
0.5481419388
0.2032932028
0.9194147909
0.2848855734
1.310184726
0.3864007192
0.9499497305
1.052472496
0.9769901342
0.8697725832
0.5207220388
0.31520973
0.621678463
0.5314383172
0.9628657321
1.326245173
1.341807483
0.7231085051
0.4633575238
0.4225685543
0.7025487017
0.6460860161
0.4678086355
0.5810622368
0.4795133399
0.8778792757
0.7153417094
0.6044995713
0.3811323416
1.163047411
0.6439984258
0.8326855406
0.6236010788
0.7407242157
0.6878671355
1.447635044
1.106958496
0.5624014622
0.6981845849
0.8661505603
0.6484266291
1.17972074
0.5550377119
0.6221980639
0.4054168571
0.6059001211
0.7527860657
0.7153728687
0.7244770306
0.7726673192
0.499433698
0.9863102144
0.4797290359
0.9861294044
0.5649628705
0.7341981117
0.5942149506
1.022683254
0.9190976533
0.376939114
0.4972549584
0.559840752
1.201326288
1.20793251
0.8028904994
0.1498267711
0.8994449786
0.2147048246
0.1737869589
0.6629033945
0.625099552
0.447131552
0.6289417396
0.5919198133
0.6085158798
0.7246878139
0.7205288312
0.8911495098
0.5065015716
0.5196569861
0.586315691
0.2923340185
0.5411897528
0.8474107285
0.5902793164
0.5389325306
0.8122354589
0.4137720862
0.8623473889
0.5911794754
0.3116687184
0.624362592
0.6564504641
0.6241066138
0.4680268413
0.4062235523
0.407470709
0.8601754807
0.5137494385
0.8620552066
0.5762720709
0.4928622975
0.9825219957
0.8140795419
0.2561761735
0.5777806315
0.4739378419
1.146840328
0.7415166058
0.5906086595
0.2921561447
0.1980023613
0.2109592357
0.6726587442
0.5063964338
0.495506408
0.5791605459
0.6255205983
0.6897101995
0.7740412979
0.709687827
0.3963550379
0.5320344345
0.2926797908
0.6403978822
0.2967742049
1.073866895
0.7650556168
0.7071078254
0.5015078233
0.8848863142
0.891464941
0.5716437176
0.6528009651
0.1091067676
0.7162314719
0.6442486714
0.7090516525
0.4534574085
0.4068235878
0.3797054449
0.6315640854
0.3097157837
0.404058128
0.60366634
1.159319642
0.3826661143
0.4176401317
1.325394455
0.3546478508
0.1354583526
0.1675822475
0.6630272824
0.970972804
0.3131471477
0.6206843183
0.4438583467
0.4581366419
0.2806757971
0.6294254469
1.212443271
0.8801966271
0.8242581235
0.6042657286
0.4215752414
0.7133829148
0.6168231049
0.5266593756
0.3476396551
0.4028124674
0.3633567052
0.6049175082
0.3529188584
0.7184404814
0.5225134892
0.1392155894
0.8576832905
0.6114238244
0.9721849305
0.6009442418
0.4037263818
0.3994890731
0.6163560594
0.4894801506
0.8038142202
0.8280518048
0.4831840349
0.490917489
0.4548867903
0.6903351879
0.566077225
0.5734448335
0.6367277158
0.1671460121
0.6749110477
0.4104298644
0.8845779935
0.5357802857
0.7572246912
0.990136862
0.4962277665
0.8962256724
0.6477480947
0.5716559396
0.4422740378
0.5625421079
0.3493457433
0.6034036085
1.250394753
0.6041139045
0.560479611
0.3057485072
0.554631921
0.4354813249
0.9756187627
0.5667943204
0.7065582485
0.4093723892
0.9218858945
0.3992192062
0.4623151512
0.5282753542
0.6165172211
0.7838438579
0.333007328
0.3276608132
0.8717131314
0.612995475
0.3178267206
0.88630776
0.9300237219
0.771884112
0.7705222355
0.6115298807
0.3602626167
0.3951522325
0.9633775909
0.5699185332
1.137005584
0.8191629727
0.5260583488
0.8740870008
0.7711903547
0.5025993266
0.5136716471
1.755934615
1.126807075
0.7753096624
0.7673968355
0.307876531
0.7240156074
0.2664661532
0.9421150957
0.4226826868
0.7381971536
0.302024238
0.5691356058
0.4760698292
0.5795448366
1.044388476
0.180720014
0.481258893
0.5043773948
0.5708669323
0.5826149217
0.9335359803
0.2778283523
0.9210195006
0.9119379447
0.7774669411
0.7855097139
0.409708001
0.6819195277
0.8485535057
0.5680123815
0.9041557345
0.9023106351
0.6202835394
0.8419315163
0.8188706307
0.3541981433
0.8013252286
0.5904363166
0.66527929
0.5003657769
0.6717180868
0.4199724612
0.4130960715
0.2558379435
0.7583542441
0.6502256145
1.031632287
0.5400518795
0.27763423
0.9700975831
0.8159659722
0.7703409108
0.3778762803
0.2607152386
0.4262024909
0.4023916072
0.3825361907
0.2803226958
0.3934123448
0.4753470794
0.3423397541
0.5427954143
0.2436052827
0.6396957997
0.7385463914
0.6630251211
0.3459317759
0.6586825282
0.6035981169
0.6407129595
0.5075306322
0.5941986641
0.7116419665
0.7142686264
0.6700270868
0.462164429
0.8191427792
0.4299293673
0.5737548316
0.8681987928
0.2865488561
0.9120964017
0.9331179027
0.7930293177
0.3058787016
0.6439533793
0.4564229976
0.9514205709
0.5804925471
0.7004459456
0.3504738037
0.1867934775
0.2988807617
0.7801741791
0.8043089544
0.7429936105
0.635394876
0.5969368295
0.4532811541
0.7102140571
0.9266506334
0.8555262935
0.6805308824
1.378754438
0.6508231605
0.929697746
1.032762615
0.6200758394
0.4522632422
0.6014447026
0.7345375098
0.6467602797
1.546836017
0.6208855496
0.3325125475
0.5142064501
0.7012567156
0.5382541279
0.4799465236
1.219656003
0.5144256364
0.5238296114
0.39027953
0.7529896048
0.8230753211
0.9046258126
0.5278644511
0.3548907297
0.2854382955
0.7426243565
0.4210549861
1.094175649
0.5175359802
0.6547706654
0.327369634
0.9681628254
0.5931856989
1.37714075
0.4317470858
0.2241317114
0.6772432535
0.5787270005
0.7658896052
1.229117476
0.8005780502
0.3303914299
0.6642409014
1.005221231
0.9326829808
0.4306234003
0.7130305588
0.4772762608
1.520680958
0.2909902171
0.8101567669
0.6727664914
0.4211747804
0.4455212926
1.060773741
0.4100151925
0.5506747735
0.5471328186
0.6671442187
0.4654444573
0.405684152
0.6749912558
0.530069773
0.5440628676
1.019768814
0.1958844135
0.6022644775
0.366851191
0.7135908153
0.5039177714
0.3046435012
0.4269394085
0.2029455042
0.3931435424
0.6319003371
0.8374767138
0.3106541073
0.7150615835
0.1525025068
0.3023853441
2.124980595
0.3217855156
0.4249893892
0.1810064589
0.7317780789
0.9887969259
0.5499661167
0.7981182263
0.09611565271
0.6582901322
1.300024034
0.3306060274
0
0.9097042695
1.286271888
0.9211456099
0.9515432412
0.5259507531
0.3555435506
0.27077297
0.5725154719
0.8074359786
0.3963317737
0.1799519098
0.4172748499
0.6919340269
0.2188748961
0.7115552147
0.9830889609
1.318146169
0.04633368568
1.118124442
0.6215061161
0.2494091685
0.8870723022
0.1166432807
0.5347626117
0.8169821095
0.5125211139
0.1740602545
0.6151914921
0.7614300783
0.7592543189
0.7534768581
0.5173159113
0.4927703247
0.6840492358
0.2775937449
0.6971725568
0
0.4743386436
0.9745181086
1.835916093
0.5694190078
1.196136523
0.8165014684
0.6870762673
0.978229624
0.8499361045
0.3342934333
0.1072283847
1.187288937
1.183449203
0.2524104813
0.5580741489
0.8736246613
0.3010419173
1.092917663
1.5907095
0.5409422521
0.4481929585
0.5653898301
0.5046933999
1.100394565
0.06395397238
0.8120645002
0.7410157989
0.5647758973
0.1148617104
0.6450857321
0.5620863568
0.2098071317
0.6432640306
0.6309551825
1.114418119
0.3769299836
0.8444355809
0.6243400197
0.7416351247
0.5661566939
1.505708729
0.5922795869
0.1699781106
0.3941824888
0.8256055474
0.5320950845
1.177686145
0.9166357482
0.2814646349
0.6761066904
0.796600793
0.2362514134
0.2159416171
0.7229298013
0.2871751628
0.7038529151
0.2340433168
1.137119968
1.494004872
0.8432181264
0.3241986975
0.686146748
0.3953404482
0.532838784
0.1706732891
0.3265808784
0.6407575455
0.3879349193
0.3745872968
0.4096351408
0.8764328788
0.4333981323
0.7584282409
0.7802258318
0.5209327645
0.3182970389
0.5710199896
0.63322602
0
0.8609282903
0.6500039464
0.5970753299
1.072803536
0.2352848092
0.5425832657
0.5504174443
1.056397433
1.055100475
0.9784996829
0.9527911888
0.2095270247
0.7760355585
0.2975213481
0.7055724339
0.5148435496
0.9960724433
0.6443048238
0.585763981
0.5871114662
0.438404145
0.3184532309
0.7558240692
0.8302584307
0.7732752074
0.9571926797
1.119339263
0.9198175802
0.12351881
0.609427933
0.8776871618
0.8081457281
0.4876896743
0.5453452283
0.4717589061
0.1978155665
0.3119015045
1.367196166
0.2092470292
0.1746113821
0.5374714763
0.1427826265
0.6564313112
0.4169452459
0.3495542868
0.08914304854
0.9845058717
0.1595697714
0.6689834958
0.254137203
0.73396523
1.338808156
1.6001291
0.3216092771
1.13581434
0.2706509016
0.8727690681
0.1145303665
0.586260383
0.8327825281
0.9454245903
1.03617882
0.33405479
0.905298918
0.5389128683
0.6275192764
0.7471584163
0.5349637676
0.6873972423
0.6387492692
0.06473292018
0.318701462
0.7726945879
0.76702965
0.4013470583
0.9396766239
0.5670137305
0.8799843162
1.118543005
0.9324467453
0.09370033206
0.07462117029
0.6354419761
0.3913279976
0.6515082674
0.5004337279
0.08116280066
0.4244694929
0.6082312989
0.04660131587
1.315443195
0.2847338074
0.7841507684
0.4079848779
0.745456497
0.3838902249
0.4990651821
0.634548292
0.5549524477
0.5519583536
0.9548499855
0.919128182
0.4475399469
0.7112997007
0.824635408
0.2283577799
0.261444444
0.649997743
0.3165797299
0.612045156
0.9677615626
0.2278428013
0.0634015465
0.4964005493
0.5960022275
0.4781393969
0.1111735795
0.604384731
1.210562265
0.8837832573
1.427312279
0.7291024799
0.8164072518
0.139882283
0.8705164277
0.356017153
0.4646237741
0.5297184807
0.4978512015
0.6070045694
0.8492671966
0.4773518101
0.6247639461
0.8663379233
1.510034572
0.2821153079
0.6936488785
0.5011757024
0.8457732284
0.4093965838
0.9304136412
0.37120315
0.1380966472
1.284938548
0.5801108307
0.3205482322
1.393078994
0.5945283063
0.8005053307
0.294832407
0.6924665966
0.3878735259
0.5329495873
0.34558755
0.5763625396
0.05564982646
0.2242885093
0.6762301527
1.963349741
0.5598500941
0.1080038785
1.384887132
1.487766368
1.412789267
0.673279684
0.4080409032
0.7467861343
0.5653449581
0.8984231459
0.3399576138
0.710053504
0.5066485377
0.3946957721
0.5722612719
0.7045124363
0.1863172592
0.701784177
0.6135827868
0.210335288
0.6451006332
0.3533165906
0.6184241013
0.1812711878
1.079493097
0.538155405
1.099273425
0.7978223106
0.7550697308
0.9659070658
0.7960463366
0.6977421582
0.589688931
0.4846144984
0.08622959092
0.6858404401
0.7955737064
0.3919606325
0.6241429662
0.3196228697
0.5689612471
0.4903156204
0.2589759809
0.6598930868
1.245388008
0.3609912906
0.3774219959
0.5345008694
0.6553335925
0.184281265
0.3572928363
1.571537531
0.8786027327
0.9290636344
0.2801109023
1.230614173
0.7719834944
0.8240776237
1.013323513
0.671655555
0.6941648341
1.251432115
0.4634858694
0.3090802278
0.5704922851
0.8207676642
1.00939622
0.6698391021
0.6755434042
1.160882835
0.3418809213
0.7394150179
0.4321985268
1.14185426
1.594893542
0.8357622799
0.8829534672
0.7890660497
1.542924769
0.3499865117
0.8693323955
0.2769063411
0.4127244984
1.107360627
0.542747975
0.3031773956
0.4979937259
0.5493831115
0.3829281676
0.7680703218
0.3288205774
0.8563096466
1.305798332
1.252358359
0.3070665867
0.2167451157
0.6677184711
0.906066822
0.43074629
0.5015488267
0.652978113
0.4970982303
0.8838237587
0.4021057086
1.37584009
1.156521073
0.2868365512
0.8328469363
1.570408771
0.5689230378
0.8203887124
0.7986423069
0.4577573511
0.6755980216
0.6032853328
0.1390596683
0.9673320063
1.231155857
0.4078563716
0.5152727865
0.08757754201
0.6758905038
0.6857823453
0.6853469906
0.0552711184
0.3907152407
0.9606025276
0.8366832901
0.9395843159
0.4415021462
0.4219986987
0.45307825
0.185542398
0.5142285493
0.4063093016
0.08262133474
0.4003088718
1.083392082
0.8179956687
0.7646857193
0.304793338
0.793034861
0.1080454571
1.44955113
0.6294188097
0.634579655
1.027929863
0.787879851
0.4470322359
0.6097481892
0.4388127686
0.9977066624
1.083438065
0.3259899162
0.2800727118
0.3501881989
0.8265495454
0.8265438781
0.6733020031
0.8628500453
0.2608391255
0.406126867
1.073589181
0.4283203473
0.3665339384
0.6916704776
0.4184898469
0.6543051869
0.2973909742
0.3521292575
0.9297504805
0.7244501467
0.4652938642
0.5174614449
0.7555868282
0.3889772839
0.7775209999
0.09677652224
0.3942786648
0.6779684823
0.4921705867
0.5589232994
0.2323705853
0.2902928194
0.3196373115
0.6270552781
0.8563109715
0.7933546915
0.3422776958
1.496162257
0.4629046411
0.7953431634
0.4729454589
0.5981344306
0.5211618001
0.5774151785
0.8303529907
0.5910487797
0.9125040876
0.9073476648
1.309626255
1.135465656
0.8573402684
0.2692102226
0.9121482597
1.474704911
0.2928642533
0.4314348589
0.2217481149
0.3802121408
0.3892572244
0.8272813112
0.6350991694
1.07664498
1.191632626
0.5063105949
0.3534665511
0.5902712816
1.311702079
0.3844116586
0.8033764085
0.6272567884
1.242878826
0.2399684879
0.2362106845
0.8588833699
0.3670703919
0.5565106921
0.9567037298
0.6511015877
0.2526443705
0.6275711706
0.930169951
0.7724447686
0.277326667
0.5536661107
0.9259900329
0.3349424803
0.6133885333
0.3912400123
0.8427046409
0.7055229304
0.6677075164
0.05205751166
0.1829021904
0.4713119642
0.3327459316
0.8440179367
0.7298635223
1.12816704
0.3131154633
0.2327401791
0.3792842506
0.3670274234
1.141023448
0.7304496019
0.4805810778
0.6903890224
0.6700216765
0.2936119244
0.7934176863
1.044436388
0.7539602548
0.9784254413
0.4021780131
0.8839807997
0.4926468937
0.6110353584
0.9610532269
0.9298389964
0.5464620438
1.086021734
0.6049246369
0.8052160392
0.3965601117
0.2643386855
0.1190155744
0.7125116121
0.9345964236
0.978278822
0.6677903336
1.355300493
0.5878723163
0.6034318459
1.327904884
0.8689143168
0.6703511892
0.916498308
0.759996832
1.016732477
0.2943212541
0.835994284
0.6970539369
0.2185360641
0.1598983382
0.6104740755
0.5339511824
0.5006159394
0.3445017732
0.2209373256
0.2526910113
0.4595355698
0.3473124022
0.4139125438
0.9138653753
0.7982062223
0.6068870909
0.8106425228
0.3319192809
0.7225854409
0.3931705618
0.3390755779
0.2858733065
0.4636762193
0.8108574327
0.6578144934
0.7394350194
1.014924704
0.9401228207
1.189111681
0.3143603609
0.1148494633
0.4196863275
0.4421202066
0.4972525985
0.431467408
0.6625754154
0.4526650226
1.049500014
0.7314877928
0.2014955998
0.6645297029
0.1982244004
0.8769248131
0.5361978837
0.3694194636
0.7969980723
0.3618021182
0.304708614
0.5517436142
0.9616728712
0.6601183393
0.9606953412
1.092709721
0.8246850311
0.6861119787
0.541759503
0.6877621255
0.449241762
0.3253594735
1.26829461
0.9207866312
0.8210111957
1.100245548
0.5761439308
1.186592359
0.855154499
1.273111878
1.060131358
1.046568333
0.2106486151
0.5082097564
1.458395292
0.8872782576
1.116292
0.6349747559
0.6696973656
1.13249
0.3237482316
0.4485172212
0.7277294089
1.00033995
0.5895508601
0.5201596556
0.2609928363
0.5068987805
0.2376041282
0.6010852497
0.6036522145
0.5890791759
0.5119923891
0.2655680522
0.4696147611
0.2155894149
0.7890637514
0.3187580777
0.5745078489
0.6389903738
0.4564306674
0.5311330801
0.9976526803
0.5112869731
0.2678691719
0.489662032
0.9850093153
0.523864612
0.5986861234
0.5490387138
0.6471518873
0.8919707819
0.1956953732
0.6773997928
0.8823957494
0.4495688776
0.5475251418
1.027213168
0.2580823465
0.53656867
0.2840932731
1.114598504
0.5247433943
0.8928662824
0.7401716725
0.93114551
0.3397542548
0.5801184989
0.4445048989
1.206946038
0.425248504
0.8218959209
0.2234569224
0.1714594696
0.3265722714
0.6263554265
0.4568436109
0.5589350834
0.6773805347
0.6771315631
0.4072249615
1.060793697
0.7389276298
0.3242306259
0.3067816954
0.4197543004
0.7582752569
1.277804168
0.5298349253
0.3507825407
0.4860118712
0.5360937941
0.01548335338
0.6215631027
0.6956975248
0.6319402971
2.150165647
0.8611140501
1.050853094
0.3917201876
0.5639846733
1.017831851
0.6867528675
0.9816086521
0.6318310511
1.648470158
0.2946314938
0.6493401453
0.8962143827
0.565586972
1.16555612
0.1764354988
0.2294807332
0.9223499438
0.3220758658
0.04189408551
0.3812332611
0.6622661377
0.66798149
0.5018001761
0.2866363138
0.7328364803
0.165126931
0.5150376162
0.2031485878
0.7612397796
1.2401953
0.9526600145
0.08821276882
1.334420863
1.059892961
0.2128508923
0.4061877523
0.6762838056
0.9508083125
0.3045089034
0.6040233321
0.1000135246
0.4935708786
0.6569901533
0.4987432683
0.6585953318
0.359716502
0.3551221842
0.3994959346
0.5126740046
0.7343679013
0.9015058488
0.6454735038
0.3167252119
0.8385418818
0.3572816376
0.9679733037
0.8495279693
0.8119865094
0.5658309943
0.6480475389
0.5539025307
1.077963772
0.4924967529
0.8865088717
0.4446012792
0.3467432386
0.3290856481
0.4815800237
0.4971914485
0.3832164311
1.274969804
0.8289513321
0.6923129755
1.207027619
0.8015202419
0.2696467614
0.649270057
0.225705999
0.5372970414
0.3282063386
1.01510579
0.6214507157
0.5965002976
0.6835784023
0.3145865659
0.3964846836
0.9642511268
0.6692428086
0.5318693652
0.6276444575
0.7591371118
0.6017838484
0.831732856
0.4199286508
0.4156225427
0.4079116576
1.445140484
0.8847686919
0.9250656965
0.799471917
1.023987582
0.6656457741
0.4838310993
0.647014155
0.5081827482
0.666282805
0.7160578713
1.57626202
0.7720351898
0.2066346058
0.7061315947
0.7389023005
0.6889406925
0.926989775
0.8084624751
0.4128428542
0.8239375715
1.188644854
1.102360992
0.3349724584
1.176844253
0.8172044156
0.897991565
1.36659973
0.5059309584
0.6605227562
0.3282056629
0.4822944406
0.3896231597
0.364007402
0.7569191845
0.6681742703
0.4990063059
0.1579047186
0.805830313
0.52247806
0.7909088561
0.5525901701
0.5800879736
0.2092247159
0.4476234253
0.9047727532
0.9826732427
0.8733037451
1.473864754
0.8771137494
1.036631154
0.6271717044
0.6282901609
1.616556791
0.7968223331
0.822961509
1.006086302
0.9217525275
0.6942576458
0.2970363317
1.259636398
0.4251113198
0.3982354925
0.9882144081
0.8727221999
0.6988614411
0.2041317358
0.98623083
0.6882234653
0.6917836735
0.9163303375
0.2024005394
0.736992027
0.8668334588
0.6965931719
0.6484410542
0.8350146107
0.09121093389
0.6644913269
1.087994952
0.5164789506
0.5922622081
0.4752883998
0.3032243824
1.383012738
0.439681542
0.8928462736
0.4034561784
0.6446511059
0.9701383628
0
0.297681264
0.5912700899
0.4923496968
1.052378028
0.3880195562
0.6565524559
0.1418177772
0.2200675119
0.3321682811
0.08860286117
0.9305991771
1.045958587
0.3234089647
1.279511914
0.785782928
0.4936082435
1.081906486
0.2089138153
0.6309730307
0.5093705309
0.5908892036
0.7280432314
1.314197221
0.6774314259
1.144784307
1.065706815
0.9479816588
0.6348722144
0.8253192273
0.2138786221
0.5878214558
0.4823313201
1.108841828
0.2870043377
0.6318238721
0.4747009599
1.022933368
0.4895380692
0.4169757361
0.6042693014
0.7184314931
0.7001354099
0.6080929304
0.2451261441
0.3973496962
0.4292026306
0.7556762492
0.7632538709
0.2688085071
0.498589946
0.4606227818
0.1589085277
0.82842967
0.6407306976
0.2950547508
0.5470825262
1.629210356
0.9375118832
0.8493749936
0.8604573191
0.9070653057
0.3996574179
0.7251864227
0.2876577164
0.9252102344
0.6148358991
0.5581450205
0.2355766995
0.5278568394
0.5825588918
0.7422230775
0.7779309474
0.6151468102
0.0769165773
0.4092609699
0.9067789426
0.2582820262
0.2719475423
1.078546933
0.1906417102
1.039307401
0.2577396284
0.7462781271
0.7794959314
0.8058050696
0.7507610205
1.309378159
0.5974326218
0.2148899143
0.6432951599
0.3729076766
0.3773557471
0.7138556172
0.3711242593
0.3681781718
0.5576117139
0.2807896409
0.1245442374
0.4331983422
1.092835364
1.288115162
0.4753173334
0.4652570295
0.3511265826
1.226850897
1.166920332
0.2519179923
0.8481614831
0.1533738504
0.6494593822
0.5617790937
0.5567783893
0.5720287125
1.041226994
0.5499118646
0.5121070033
0.4834246887
0.4343131303
0.2969080485
0.9377267856
1.377664292
0.6514189339
1.060279659
0.4709070047
0.8328192909
0.5515315834
0.5749583465
1.136752434
1.255298103
0.3139246974
0.4965847836
0.3742809749
0.9322471192
0.8916791872
0.1432054584
0.4285813308
0.9410172782
0.6759161895
0.2750384341
0.7890128694
1.022936272
0.3324795875
0.2237011974
0.5493178664
0.6952409716
0.6984886273
1.202389637
0.855891315
0.8535970227
0.3121170746
0.8523501184
0.7235523147
0.6436504165
0.3088720039
0.3145285263
0.4376203117
0.6402969631
0.8103505321
0.3370922823
0.4010806316
0.3716755398
0.3341489712
0.4686946038
0.6607867743
0.6425776085
1.023148642
0.8414366067
0.4513076059
0.9744618866
0.4188076043
1.580039267
0.6191828307
0.3691891402
1.029442473
0.3843100783
1.095973559
0.8909344837
0.2486017501
0.3494716171
0.6628791728
0.9666174114
0.4140192199
1.077244846
0.3300596554
0.6332915881
0.4920766106
0.970022731
0.2435116451
0.7674126987
0.2446569367
0.3303300573
0.2632762096
0.7990366634
0.1691054993
0.3991233534
0.5914341058
0.9897541912
0.7473795044
0.840973805
0.1927116303
0.4029426599
0.4634897578
0.438985337
0.4538268029
0.3066143379
0.1955669783
0.09356001328
0.5196155843
1.111383277
0.9928319227
0.911097172
0.1330939089
0.410841968
0.4556451806
0.1693210683
0.4662061856
0.9000917254
0.643449222
0.1609401679
0.5878620323
0.7462162695
0.1272818199
0.9167055916
0.377172175
0.5467795083
0.5994931388
0.5053687196
0.711696626
1.025741418
0.6102907903
1.830332415
0.3635959203
0.6206654051
0.6386776927
1.342473942
0.5822892451
0.7591323714
0.3583632489
0.410578332
0.5555954619
0.4369567488
0.6505722983
0.4408735043
0.46549505
0.6334480223
0.3390542881
0.8695487551
0.3409554854
0.3521752326
0.3691313518
0.7438731643
0.752856828
0.3214003249
1.44787712
0.9082015325
1.281510075
0.6076344119
0.4507058715
0.4548629011
0.8515553887
0.04207175706
0.4620061658
0.1962672286
0.5717991258
1.264598459
0.635414035
0.1779859668
0.8393826536
0.2926642105
0.4259274043
0.5018516249
0.3189011935
0.5685235842
0.8314992735
0.6315776847
1.222537346
0.57386955
0.2418865776
0.6391849303
0.5899346358
0.5026259855
0.5031652533
0.2299466175
0.3262517495
0.6159572065
0.7610162993
0.8487820028
0.827177312
1.021543176
0.8701767864
0.79747436
0.4597633446
1.448394019
0.730157419
0.6511980233
0.4992788043
0.2319119094
0.763781624
0.7866434637
0.6101355855
0.4726430266
0.3295468356
0.8199000156
1.188041193
0.6285320018
0.7042002041
0.3465632101
0.1473640891
0.2855246524
1.366871356
0.7269187865
0.4997794174
0.448372556
0.3893133079
0.7655587736
0.3603755821
0.2587086329
0.3110336749
0.5672838803
0.8269027039
0.8761655454
0.3204807609
1.013543507
0.1982119112
0.2346471375
0.3705687534
0.5008192012
0.5835993354
0.2945756366
0.3918407318
0.8977986818
0.9043759237
0.3829980404
1.015889096
0.7549999478
0.7115600661
0.9381350771
0.350591763
1.556371754
0.6668503634
0.4469977561
0.2204634562
0.562110638
0.5639853291
0.9553356662
0.6395378931
0.1306150883
0.3518748934
0.9198821658
0.7419996706
0.6333134082
0.4169473032
0.8113767788
0.7329343268
1.232931216
0.51219911
1.407060281
0.2972717011
0.3193200616
1.097977945
0.5778655967
0.8071648305
0.7602601669
1.0491833
0.8144933405
0.8399191101
0.4332096598
1.216472002
1.020502371
0.07835074454
0.7890598694
0.3331961857
0.6543001038
0.119446325
0.4132859451
0.6543880717
0.2210894342
0.1209015309
0.7878013838
0.4029424074
0.3280823336
0.9405103559
0.8897680127
0.2364682925
0.6198385024
0.3248480663
0.6140840958
1.360775353
0.5633491708
0.7243050099
0.8933467623
0.5135246193
0.6588981116
0.9786419089
0.1537164762
0.7961966237
0.9634519974
1.086867653
0.8345250894
0.6350191148
0.3020799625
0.2246493817
0.4391479876
0.4232356988
0.3770270134
0.8642216271
0.7633085346
0.3699749163
1.194996858
0.8398533363
0.8183509527
0.764484069
1.118923528
1.092498116
0.5711779672
0.3614775424
0.4031778178
0.418785451
0.5143590397
0.9534754881
0.4156532729
0.4635236499
1.193102502
0.8772445331
0.4813265508
0.5182207517
1.020164745
0.3232470011
0.9575812665
0.4903659832
0.8165195829
0.1998812306
0.6517453414
0.3455239525
0.9115465695
0.7775176466
0.5775645823
0.1873951609
0.6534975512
0.7721337852
0.6012631804
0.4639286626
0.4303146535
0.6669204755
0.9611296337
0.1917937456
0.3058946271
0.9048247407
0.3149001464
1.455513668
0.1865573397
0.4036071302
0.5493442436
1.202685856
0.2229446631
0.2286579324
0.2996703615
0.4053807826
0.9615581207
0.6247800364
1.105999679
0.6377876882
0.2478208131
1.261963778
0.4277411904
1.155872694
0.3757675441
0.773211255
0.4808614002
0.6186657966
0.6070155535
0.5708033914
0.4569930789
0.7755560621
1.040886092
1.168587249
0.8407645995
0.6577906946
0.7695224927
0.693661346
0.8360145529
0.3760593093
0.7069393824
1.361786751
0.404799929
0.9491410427
0.4392576822
0.3070550985
0.05218958713
0.2535919984
0.7451952505
0.9417280734
0.6006995895
0.5676885861
0.4928519077
1.11042453
1.329266852
0.5106947243
0.2432467208
0.8116177744
0.4061743702
0.4558443515
0.276489073
0.4136002127
0.1154455466
0.3579046689
0.2953120606
0.1637804074
0.5483420386
0.2417771482
0.713043759
0.7213493556
0.5696582313
0.4658344538
0.7283343098
0.2552572231
0.4280130072
0.38444912
0.3997981602
1.130171798
0.7792468766
1.292681277
0.5020817496
0.6303234565
0.4805363759
0.5847831543
0.7360150027
0.6242613969
0.5534993851
0.1571965621
0.8543734317
0.4187953066
0.906422349
0.6897442969
0.621725513
0.5523513243
0.5482292449
0.7428153618
1.000169588
0.7350066792
1.285868862
0.6140880212
0.4469710784
0.4259445965
1.02946098
0.7497829843
0.4021456192
0.5242164008
0.8574028671
0.9512630195
0.6513084113
0.294194298
0.8353842257
0.8600797303
0.3382767649
0.5856087832
0.5702774514
0.2242549681
0.5347192447
1.089934697
1.122559356
0.501921505
0.6670755479
0.5457544628
0.4081113824
0.7018787785
0.09492342995
1.154178109