/*--------------------------------*- C++ -*----------------------------------*\
  =========                 |
  \\      /  F ield         | OpenFOAM: The Open Source CFD Toolbox
   \\    /   O peration     | Website:  https://openfoam.org
    \\  /    A nd           | Version:  7
     \\/     M anipulation  |
\*---------------------------------------------------------------------------*/
FoamFile
{
    version     2.0;
    format      ascii;
    class       volVectorField;
    location    "0.006";
    object      momentum;
}
// * * * * * * * * * * * * * * * * * * * * * * * * * * * * * * * * * * * * * //

dimensions      [1 -2 -1 0 0 0 0];

internalField   nonuniform List<vector> 
2400
(
(0.005293267384 0.0004281005108 0.0005127320232)
(0.005175654272 0.0008191016919 0.0003057456335)
(0.008752984453 -0.0001310473276 0.0001908559807)
(0.007755226821 0.0002292949826 0.0003722009314)
(0.00780316413 0.000640669358 0.0002462266055)
(0.007327077175 0.0001713105775 -0.0002305306663)
(0.005252413561 -4.207270965e-05 0.0001251712449)
(0.005543029213 -0.0002521482666 2.842114794e-05)
(0.008472573063 0.000805858027 -0.000929206469)
(0.004632335819 -0.0003145374976 1.311111859e-05)
(0.0122234845 -0.0003178293867 -0.0001895506985)
(0.00836482821 0.0001395732917 0.0005601586507)
(0.01128819944 0.0001463809716 -0.0009043525398)
(0.009159174945 -0.0006685718962 -0.0003128657967)
(0.006289337344 0.0005611741077 0.0001610984216)
(0.01003348677 -0.0006258763411 0.0002025905826)
(0.009458485782 -8.242089795e-05 0.0006269887433)
(0.00456590543 -0.0001710117266 0.0004218638777)
(0.01002979355 0.0001101391479 0.001473867581)
(0.003063723271 -0.000481838086 0.0004850604347)
(0.008295781979 0.0003743220172 0.0008678608615)
(0.007526491881 0.000380292996 8.031855453e-05)
(0.01064221508 -0.0004235306857 -4.457991813e-05)
(0.01078401735 -0.0003984539783 0.0001857782149)
(0.007407510481 -0.0003445630388 -0.0001165923897)
(0.006550378463 0.0001379352706 -0.000368135228)
(0.01255352627 -0.0006703176611 0.0002751192729)
(0.005200313726 3.273359731e-05 0.0001693387166)
(0.009140084664 0.0001600310916 6.599671438e-05)
(0.00831791745 0.0002584190149 0.0002323109399)
(0.009356831391 0.0004134828568 0.001007889349)
(0.005579975441 0.000393748945 -8.145347898e-05)
(0.004879291657 6.680679651e-05 0.0006455091102)
(0.009496075906 6.480496871e-05 -0.000576199581)
(0.007802231539 0.0001621855682 -0.0003306463611)
(0.01057712272 0.0002266600883 -0.0004364924262)
(0.005456914908 -0.0005873580081 -0.000320998346)
(0.01396446673 0.0005112475378 -0.0008154492432)
(0.0111078487 -0.0003137409763 -5.521514149e-05)
(0.01346877025 0.0006355308948 -0.0003101765331)
(0.005766913081 -4.915304037e-05 0.0001157380393)
(0.009438317532 -0.0004218999309 -0.001509434775)
(0.005367016931 -0.0003396972642 -0.0006647151605)
(0.008680481755 -0.0005427902195 -0.0005299701022)
(0.007507842013 0.0005268492213 0.0001371721963)
(0.008530513268 -0.0004012217236 -0.0001680549239)
(0.009690814584 -0.0002305006709 -0.001623874915)
(0.004785470211 0.0003985282116 0.0007452113973)
(0.008915855107 0.0005069837026 -0.0001854451926)
(0.007900085628 -0.0004450425562 0.0003684397489)
(0.008963492439 -0.0003479452267 -4.832460145e-05)
(0.01039645426 0.0005177175907 0.0006110722703)
(0.007302583603 -0.0001165759979 -9.682210701e-05)
(0.0138775699 -0.001202401558 -0.0005019959017)
(0.01092277209 -0.0008673741864 -0.0007547697333)
(0.01209091018 0.0002885583478 -0.0006106429374)
(0.007755988345 0.0003945836789 -0.0009162262185)
(0.00829489375 0.0001095347272 0.0008737315848)
(0.004539285556 0.001505967218 8.652016375e-06)
(0.006717724483 -0.0008745693291 -0.0001976987447)
(0.005812256003 0.0001242112065 0.0005213286601)
(0.008716393504 0.0005875847156 0.000147004958)
(0.003856220531 -0.0003598991923 6.212898473e-06)
(0.01171086009 -1.800077846e-05 0.0001148171549)
(0.003224307705 0.000236968287 -7.440442459e-05)
(0.01157269801 -0.0004762625711 -4.108804671e-05)
(0.006042323785 0.0006173813243 -0.0004781094985)
(0.008466239898 0.0003823672485 1.586457502e-05)
(0.009542927621 -0.0005291332461 -0.0004795519506)
(0.008490364801 -0.000633859874 0.0005128660719)
(0.01118441715 0.0008066377894 -0.0001385706999)
(0.006771565867 -8.858104323e-05 -1.446710994e-05)
(0.008271456668 -0.0006706946266 -0.0001878483054)
(0.0195481765 -0.001317805644 -0.0002741724266)
(0.008307384603 -2.113710111e-06 5.500863462e-05)
(0.01092298743 0.0006033137507 3.266188522e-05)
(0.01056165779 -0.0007302534313 -8.766677447e-05)
(0.004782287073 -0.0003579837447 0.0001529334076)
(0.004032275424 0.0002835198819 -0.0005255892153)
(0.008064535371 0.001214681995 -0.0001780344839)
(0.007594828149 3.622737363e-05 -0.001224724072)
(0.01190598063 -0.0004982857381 -0.001181717751)
(0.003490368371 0.0002505463113 0.0005807749819)
(0.01105163812 -0.0006007084026 0.000241707274)
(0.009408829186 0.0005058590499 0.0003575228548)
(0.008715709406 -0.0002190374257 8.300221702e-06)
(0.01048360157 0.001070242695 -0.0001499474266)
(0.01088652597 -0.0004515666095 -0.0001509705048)
(0.00685938514 0.0001277597026 -0.0002843173855)
(0.01030792188 0.0003544088948 -7.056407077e-05)
(0.004224117543 -5.16212896e-05 8.638248719e-05)
(0.01018942254 0.0003919937094 -0.0001345016941)
(0.0072001613 -0.000384801341 2.551880095e-05)
(0.00379657896 -0.0002600082311 0.0002486552404)
(0.007457499921 0.0008972784509 -0.0005993889629)
(0.01244879867 0.0005050274966 0.0006080914226)
(0.01046675164 -0.0008122597709 -0.0002836773179)
(0.01043868595 0.0005966912849 -0.0006842112321)
(0.005891956303 -0.0007039410955 0.0003650787892)
(0.006361655631 0.0009122458617 -0.0004034403318)
(0.005072855114 -0.0003361532738 0.0005794900414)
(0.007340005341 -0.0001512100479 6.731015242e-05)
(0.008646996098 -0.0008671591499 -0.0009936655593)
(0.00934574782 -0.000351548793 -0.0001532643889)
(0.00962693992 -0.0008432390905 -4.940042208e-05)
(0.00841797619 0.0009178321753 0.0002378498077)
(0.007632413282 0.0002949746732 9.909042665e-05)
(0.009121494227 -0.0003006642909 0.0003231975716)
(0.009376858523 -0.0002360885377 -0.0004583942699)
(0.00703535476 -6.940223285e-05 0.000763032541)
(0.006781978376 0.0004625695587 -0.0005434041036)
(0.009235034709 -0.0003593719516 0.000445847604)
(0.009753212835 -0.000414412228 -2.56606196e-05)
(0.01044249686 0.0003035469511 -0.0002640629763)
(0.006111396429 -5.548407396e-05 0.0002346069802)
(0.008747824745 -0.000282676769 0.0002005997321)
(0.006198555781 0.0001715375782 8.869933145e-05)
(0.00886000347 -0.0003948525622 0.0002438379129)
(0.009293817164 0.0008566312013 3.44170041e-05)
(0.008394951155 0.0007889305613 0.0003129815145)
(0.00740783972 -0.0001269079388 0.0003551702185)
(0.006722118276 -0.0001142724019 -8.408284851e-05)
(0.01356987253 0.0002645325658 -0.0002433570635)
(0.009225494156 -0.0006652293181 0.0002740540629)
(0.006550615966 0.0001111899563 0.0006332011803)
(0.004540753702 0.0001333538988 -0.0005603884697)
(0.007984051732 0.0001504774526 -3.083242826e-05)
(0.009544926068 8.10000145e-05 9.988769193e-05)
(0.01862568676 -0.0003733934939 -0.0005765224114)
(0.01345748511 -0.0009473181755 -7.377186876e-05)
(0.00799006385 0.0006163523656 0.0006018538967)
(0.005424818222 -0.0001866970891 0.000632946442)
(0.004790124801 -0.0001619972079 0.0001069031562)
(0.008049334294 0.0008732540881 0.0005703495301)
(0.007276822458 -0.0001568127371 0.0003999284811)
(0.008477868142 -0.0001937736211 -0.0004270077017)
(0.004922676638 0.0004070456074 -0.0003311321438)
(0.00889261434 0.0001116244532 -7.702499504e-05)
(0.006978992429 -0.0002139214909 -0.0002370655845)
(0.008002299099 -0.0003129572113 -0.0006921660874)
(0.008522880092 -0.0007320989897 -0.0005137090056)
(0.006963676613 0.0001706358058 -0.0004433750006)
(0.004362824832 -0.0003282525249 4.867493732e-05)
(0.005648770677 1.702806677e-05 -0.0003982503793)
(0.01107467442 0.0002570697741 0.0008761557742)
(0.01011917913 0.0002015926329 0.0007311428813)
(0.005992086033 -0.0002135979597 -2.010841378e-05)
(0.005954180125 -0.0001535863696 0.0005645803978)
(0.007352774934 -0.0001021447305 0.000331746407)
(0.008592690057 0.0001868375818 0.0004220452812)
(0.007918897733 -0.0005968912176 -0.000244102332)
(0.01148686361 -0.0001915476189 -0.000153800203)
(0.004469021536 -0.0008513146219 0.0002365687045)
(0.008692721304 4.358693214e-07 -0.00011649443)
(0.00432782397 0.0001115334629 7.638644502e-05)
(0.01063576706 -0.0004703795507 -0.0005454759311)
(0.0104604595 -0.0003813535575 -0.0002394313771)
(0.005503776662 0.000225824155 -0.0004734267458)
(0.001992571142 -1.882432397e-05 -0.0001242653217)
(0.009535280245 -6.071852617e-05 6.341028461e-05)
(0.005853156165 -0.000336854342 0.0001725084728)
(0.006902460504 -2.883192637e-05 -0.0008155971853)
(0.008524144733 0.0007523564964 0.0001352112492)
(0.009957785004 6.31595562e-05 0.0008109387655)
(0.007216817265 0.0002616562176 -0.000690485818)
(0.0058074977 -0.0003982313415 0.0001918876666)
(0.01218527034 -0.0003439051292 0.0002620328028)
(0.008692105136 -3.477555507e-05 0.0001632910744)
(0.008971526942 -7.393166238e-05 -0.0002401156595)
(0.01019547163 -0.0001390341168 -0.000273767038)
(0.01187507701 -7.758755988e-06 0.0007148210135)
(0.005281492174 -0.0004442227224 -0.0002089153454)
(0.006949076436 -0.0004484877489 0.000213623015)
(0.0124338581 -0.0007573373961 0.0008363755902)
(0.009011156629 0.0006345471588 -0.0002035092651)
(0.003972122117 2.035799777e-05 -0.0001488596075)
(0.01229516301 -0.0002959152552 -0.0003327419718)
(0.01041517194 0.0002063795643 -0.0002379746221)
(0.004002044186 -0.0002865717704 -1.818811967e-05)
(0.005005972432 0.0001188068412 0.0008630070656)
(0.004530428034 -0.0006487719014 -3.24994704e-05)
(0.01042335785 0.0005058091276 0.0001522556837)
(0.009748909571 0.0007150142144 0.0006365319468)
(0.006662317445 -0.0001206949789 -0.0001300499859)
(0.01214280831 -0.0003746671562 -0.0004678232809)
(0.0053291435 -7.123782003e-05 0.0005615462942)
(0.008823002672 -0.0002120071591 0.0007174261229)
(0.01391043868 0.0002805771334 0.000434751531)
(0.007700677553 0.0003264416109 0.0002343916178)
(0.008011896575 0.0002765501638 0.0008109046367)
(0.009837725229 -0.0001397219583 -0.0004138639496)
(0.005073644068 0.0002291598323 -0.0006525804288)
(0.007953794454 -0.0001775514763 0.0007505053635)
(0.008757917581 -0.0002396992015 -0.000261948454)
(0.00818550135 -5.143061861e-05 -0.0002678281703)
(0.01052740616 -4.728573795e-05 -0.0004369456838)
(0.006116026002 -0.0003239729127 -0.0003800146091)
(0.007757272889 0.001017168447 -0.0001958291819)
(0.00825135584 7.308170285e-05 0.0006291686833)
(0.009216157759 -3.505334859e-06 0.0004169705699)
(0.00856562815 -0.0003648241241 -0.0002738756599)
(0.005060033072 -0.0002964178881 0.0002243923159)
(0.01066419878 -0.0001517657789 6.466302869e-05)
(0.007654673721 0.0001098672669 -0.0002203748444)
(0.005938138199 0.0001485497742 -4.481690449e-05)
(0.01139775311 0.0001877815941 0.0006692066527)
(0.00747262344 -0.0004415516138 0.0006262314393)
(0.01017197885 -4.212547894e-05 -2.027593429e-05)
(0.01135270353 -0.0001559783328 0.000310616927)
(0.007660609607 0.0003014649715 0.001042679092)
(0.004301841744 -0.0003380594163 -0.0002616557942)
(0.004319627283 0.0003360937023 0.0003399164245)
(0.01314867716 -5.318736791e-05 0.0001932841258)
(0.002412916919 -0.0003102899494 0.0001543667885)
(0.007022330602 0.0003152674715 7.204307276e-05)
(0.01260461422 -0.0001884753192 -0.000601773019)
(0.004311212491 -0.0005482875787 -9.851876635e-06)
(0.01025062182 8.409477422e-05 -0.0004101016768)
(0.009020375423 -0.000336988558 0.0003190670931)
(0.009415768574 -0.0008956106119 -0.001452042844)
(0.004357439877 -9.640892169e-05 0.0005131403509)
(0.008815090497 -0.0002141767099 0.0001782391241)
(0.01123605094 -0.0004916262772 0.0003042223903)
(0.006438095978 -2.012229328e-05 0.0006257472602)
(0.007811665019 -0.0001778629066 7.079245479e-05)
(0.004137054665 0.001002850498 0.0003840465502)
(0.005308268999 -0.000643730226 0.0007198186284)
(0.00820919541 1.571343917e-06 0.0001440549133)
(0.006388203199 -0.0002476611477 0.0006069740357)
(0.007463791767 0.0004458685127 0.0006917644428)
(0.006011524637 -0.0006229277405 0.0005770368473)
(0.007351698917 -0.0004304461006 -0.0001411081836)
(0.01030044272 0.0005071320111 0.0001990416154)
(0.008227673301 0.0004713228346 4.080392877e-05)
(0.01299161641 0.0008735991809 0.0003390543099)
(0.00877387711 -5.474578382e-05 -0.0001838013027)
(0.009165977942 -0.0005314473168 -0.000574638531)
(0.005998567225 -0.0007072041387 -0.0003175352654)
(0.01102660125 0.0001466131057 0.0007604280528)
(0.01281471353 0.0001615591279 0.0002573402184)
(0.005153822404 0.0002269266828 -0.0002335811244)
(0.009449982533 -0.0009409441505 0.0002148835863)
(0.008532046337 0.0003344647074 0.0004480471485)
(0.005271741383 0.0008085533621 -9.452472788e-05)
(0.009200176929 -0.0001587058534 -0.000441032526)
(0.007081612518 0.0008421972798 3.883686207e-05)
(0.01586187055 0.000784316368 0.0006562253161)
(0.007558176254 0.0008573400329 0.0001298395792)
(0.005091210517 0.0002542715173 0.0001170248759)
(0.008111085738 0.000367534292 0.0004904968103)
(0.005965847056 -0.0009323076819 0.0002556500857)
(0.003912958651 -0.0001154835955 -0.0001959067509)
(0.009499820413 -0.0002141148464 0.000738485163)
(0.004493090165 0.0002133691999 6.703499982e-05)
(0.005320432276 -0.0003802101047 0.0002472199941)
(0.006768679049 0.0002236129995 0.0002660591702)
(0.01222864961 -0.0003925097943 0.000622364842)
(0.005884994367 0.0002318057689 0.000541386828)
(0.007348378943 0.0004644119721 -0.0001922792004)
(0.00733296469 0.001222732594 0.001103408946)
(0.006777127941 0.0003323858013 -0.0009354317403)
(0.008379460602 0.0001941503063 -0.0002614751276)
(0.007173522199 0.0004829031648 0.0004095893757)
(0.008564842886 0.0001311478398 -0.0004663422142)
(0.008350975853 0.0001175071441 -0.0002805167723)
(0.009310100874 -0.0007789448999 -0.0002241596562)
(0.007963511952 6.470977785e-05 3.997965232e-05)
(0.01179469392 -0.0007265402498 -0.0001579463502)
(0.007632628751 0.0001322963171 -0.000496912836)
(0.007785793453 0.0005275523302 -0.0003439115641)
(0.008985220761 -9.891636309e-05 0.0004267628446)
(0.00945083031 -0.0006190378277 0.0002257034428)
(0.00837641069 -0.0004689590756 -0.0003087514442)
(0.01247179054 -5.972703996e-05 0.0003851293687)
(0.009184843708 0.0004106371015 0.000120799164)
(0.007365891953 -0.0007313151912 -0.0001161551864)
(0.008408653685 -0.0005774030174 0.0006817855895)
(0.008698400682 2.973904659e-05 0.0005201660155)
(0.01446023092 -0.000371507002 0.0009854922562)
(0.008995149026 -0.0004185761268 2.731286194e-05)
(0.005749245285 6.299965752e-05 -0.0001330092534)
(0.008325658411 0.0004739377038 -0.0003964397112)
(0.009908809785 -0.0008317280815 -0.0003012898519)
(0.007397500347 1.935634232e-05 0.0006057543592)
(0.007428970031 0.001149439618 -7.513299958e-05)
(0.01067898369 -0.000162515356 0.0003241329154)
(0.01023541149 0.0003897969645 -0.0005683449281)
(0.01086889628 -0.0007883068066 0.0005860553157)
(0.006222914592 -0.0001649332111 -0.0001091511102)
(0.006725046147 -0.0001843634599 9.045922528e-05)
(0.006365839541 -0.0001661631439 -0.0005361707821)
(0.011601336 0.0003797917588 5.977878253e-06)
(0.008918192888 -0.001059518939 0.0005677455229)
(0.006441088668 -0.0001212424813 0.000121462409)
(0.01210372362 -4.71720925e-05 0.0002302624231)
(0.007003865469 -0.0004165837965 -0.0003340962845)
(0.006817012225 -0.0003034551785 -0.0003348802566)
(0.002434004993 -0.0002094255541 0.00041965156)
(0.006609645584 0.0005317881373 -0.0005070931574)
(0.01296807454 0.0001439743275 0.001187302415)
(0.007065457156 0.0005092142312 0.0002106214411)
(0.005661570883 0.0003896649683 0.0004861170298)
(0.009621508904 9.196671219e-05 0.0003082886886)
(0.009862203153 0.0002850108701 -0.0002219197661)
(0.004893959567 6.550598339e-06 -7.433771245e-05)
(0.007592891629 -0.0003044603225 -0.0004268116239)
(0.00315604794 -0.0003026638229 0.0001629913798)
(0.01147403475 0.0001541340825 0.0008844549238)
(0.005323749358 0.0003729010644 -0.000422455755)
(0.01256652843 -0.0003666422848 0.0002556617835)
(0.006909383804 0.0003586982297 -0.0003913329532)
(0.009686104822 0.0003586666298 1.332285377e-05)
(0.006451345407 0.0001860480766 -0.0004316561058)
(0.009434679565 0.0008885496781 -0.0001878810863)
(0.009551321703 -0.0001429485346 1.701856682e-05)
(0.008862189002 -3.409042938e-05 -0.0001530775735)
(0.009966782436 0.0005127407154 4.467611544e-05)
(0.008200542819 -0.0001955470565 0.0001046146933)
(0.005020682935 9.662173642e-05 -0.0001673254161)
(0.01213446165 0.0004358376224 -0.00123768449)
(0.01059202271 -0.0004312590922 -1.710650119e-05)
(0.007580703377 -0.0006319636023 4.795581262e-05)
(0.006860219232 -0.0008033592335 -0.0001913853217)
(0.01128432689 0.001266140052 -0.0009024364084)
(0.01503267084 5.386276347e-05 0.0008551833543)
(0.004661171047 -7.74990657e-05 0.0004690931445)
(0.01177737196 0.0004259734247 -0.0007347367926)
(0.0115051257 -7.187172064e-05 0.0004687366022)
(0.007500132328 0.0002942865826 -0.0001108153289)
(0.0066183275 -0.000287877362 0.0002133981029)
(0.0117157726 0.0003143017506 0.0004749096089)
(0.004746959718 0.0007331938217 0.0001931323184)
(0.009205397844 -0.0001141637831 3.958956967e-05)
(0.007875582802 -8.17983097e-06 -0.0006762517261)
(0.006684333989 -0.0002718701092 -0.0002991904225)
(0.007437316151 -1.227436141e-05 0.0009457556444)
(0.009272531975 -0.0005335530789 0.0007662952248)
(0.007693744291 -0.0003739725678 -6.099137868e-05)
(0.007033939976 -0.0003481658014 0.0001163558535)
(0.01162378529 0.0004574279353 -0.0007341894217)
(0.005543047198 -0.0005764566578 -0.0003409397549)
(0.008622175655 0.000276755287 0.0008316112619)
(0.005045609699 -0.0002494617057 0.000288669197)
(0.004863485409 -0.0003828856452 0.0002283417763)
(0.01256051324 0.0004263874239 0.001063248048)
(0.007512540913 0.0002170746995 -0.0001432102796)
(0.006830536691 0.000325357204 1.677916889e-05)
(0.009902004754 -0.0001381191487 -2.390812705e-05)
(0.01189780073 -4.44416938e-05 0.00105940121)
(0.003768216489 0.000150722277 -0.0004320046498)
(0.007805474271 -0.000245171462 0.0002066807449)
(0.004887787048 -2.818103142e-05 -0.0003900992142)
(0.006164948434 0.0004578045096 -0.0002337649322)
(0.008191705543 9.360628075e-05 0.0001575957491)
(0.006454816706 0.0003533834756 -0.0002873640387)
(0.008696747349 -0.0004931168307 0.0001679680663)
(0.003759575208 0.0004395486067 0.0002196543891)
(0.005915553368 0.0003974615449 -5.353378179e-05)
(0.007912611078 0.0002852081362 0.000565142754)
(0.00881165618 0.0002546776559 -0.0003582889177)
(0.006497992592 -8.380680003e-05 -0.0001516195712)
(0.007212855331 0.0004593835984 -0.0006641304301)
(0.006180223271 0.0004659120099 0.0002240269999)
(0.008694382154 0.0006345592279 0.000248857942)
(0.0117662141 -0.0002781852343 2.563231352e-05)
(0.007489673282 0.0006563495911 -0.0002315862428)
(0.007754061033 -0.0008984812922 -0.0003153341559)
(0.006750021411 0.0005560275615 0.0008972221062)
(0.00799085518 6.641531985e-05 0.0001838200288)
(0.01038803221 -0.001013243283 -0.0004216409694)
(0.007025925667 0.0009633033387 -0.0004396265243)
(0.01221902171 0.001012425004 0.0001629360734)
(0.009090017886 -0.0002651570002 -0.0006556957992)
(0.00873115623 0.000433708371 -0.0001584074005)
(0.009015060907 0.0007713808909 0.000369695161)
(0.009459863784 -0.0002437859246 -9.883550519e-05)
(0.009293238362 -0.0003977421006 6.362254529e-05)
(0.01025949451 -4.038756762e-05 0.0006282765258)
(0.006461411609 -4.695522345e-05 -0.0002823808195)
(0.007194381893 0.0002086891538 -0.0003931375318)
(0.006620587898 -0.000185382072 0.0005358447683)
(0.01067058901 0.0002657288595 -0.0002122414187)
(0.005775204312 0.0001048073963 -5.222858676e-05)
(0.008473820259 0.0003492836848 -0.0002672969538)
(0.009163831256 7.107079027e-05 0.0005435720786)
(0.00771966621 0.0002228341721 0.0008497300066)
(0.01249503491 0.0004332177827 0.0001406592352)
(0.006269674612 9.255431697e-05 0.0002651205887)
(0.007096392816 -0.0007521949764 -0.0003377922636)
(0.01084408931 0.0004948907876 -0.001457520644)
(0.007727974086 -0.0004903332273 0.0002971250925)
(0.006968815989 -0.0002001687808 -0.000166130593)
(0.006312368402 0.0002950402823 0.0001854758711)
(0.007896165618 -0.0007330032583 0.0006467333031)
(0.007202184785 -0.0001974533722 0.000391856852)
(0.01370279749 -2.743107856e-05 0.0009199482876)
(0.009732562028 -0.0004660919425 -0.001293418547)
(0.01033078895 -0.000339495517 -0.0001701407287)
(0.01141403377 0.001097732176 0.0002673299279)
(0.00970420704 0.00014006196 -0.0001629507287)
(0.005223000428 -0.0003029587805 -0.0001725689948)
(0.009829742413 -0.0002959262762 -0.0001748574115)
(0.01086317259 0.0004985642548 -0.0005533276553)
(0.01094348482 0.0005552423706 0.0001154486929)
(0.006507741769 -0.0001783697492 -0.0001017083695)
(0.006783921445 0.0002128698195 0.0004386758178)
(0.003474519238 0.0003587028458 -0.0003398748359)
(0.005858108697 -0.0002885306953 -3.238999202e-05)
(0.006161828723 -0.0003289718362 0.0005020065652)
(0.01221940976 -0.0005525289439 -4.33504309e-05)
(0.01029779364 -0.0006485761754 -2.102664163e-05)
(0.006306430195 0.000244822187 -0.0003927784284)
(0.01016890941 -0.0001150051925 0.0001204477944)
(0.01117456774 -8.067394609e-05 -0.0002211862897)
(0.006851576249 1.008491925e-05 -0.0003729066158)
(0.009752114282 0.0003810163998 0.0004433338819)
(0.008733741629 0.0006322021066 0.0004981339555)
(0.006908564154 -0.0003469042506 0.0001166725581)
(0.01154995176 -0.0008384300229 -0.0004000158113)
(0.005223967363 -0.0007632989534 0.0001506994002)
(0.005302606997 0.0002532863799 3.625674049e-05)
(0.009789544117 0.0001259690739 -0.00021801777)
(0.00999106038 0.0004480063585 0.0007043246362)
(0.007435540033 0.0001091469427 0.001227799701)
(0.009426442143 -0.0002734158389 0.0002380130968)
(0.004298510918 0.0003699679833 -0.0001647974735)
(0.008052322662 5.259709883e-05 -9.097782076e-06)
(0.007556476927 -0.0001642728 -0.0006757704871)
(0.008571731575 -0.0002720849179 0.0005932607716)
(0.007135669387 0.0002892180506 -0.0002433362201)
(0.008895027482 0.00039257522 -8.709400276e-06)
(0.004845354284 0.0001758529425 -0.0004312551325)
(0.008586363729 0.0004648623154 -0.0005467678281)
(0.004170571148 -0.0002805124629 -0.0002449881984)
(0.01150712797 0.0005673120746 -0.0007520334194)
(0.008804095326 -0.0005861534492 0.0001076391983)
(0.003442782034 0.0005090899924 0.0004819752256)
(0.00590885804 0.0004059524792 -0.0003305862811)
(0.009624538583 6.591000849e-05 0.0002944415186)
(0.007394617482 -9.248218161e-06 0.0006005518153)
(0.006246830927 0.0007489894424 -0.0005100022602)
(0.002834744135 0.0002502402756 0.0002216210811)
(0.008424160029 -0.000442460087 -5.501816495e-05)
(0.008123405049 0.0003405416837 -0.0002642742502)
(0.009215592227 1.761625591e-05 -0.0002716482508)
(0.006826438585 0.0007873290932 0.0006095016948)
(0.009517962579 -0.0004362967199 0.0005927487698)
(0.01103239582 -0.0007011106414 -0.0003861601023)
(0.007943940138 -0.0005291231368 0.0003149234601)
(0.009557901082 -0.0006680711211 0.0006518455497)
(0.007498905269 0.0009756613423 -2.390826824e-08)
(0.01065949092 -0.001150459751 0.0002893491867)
(0.0106183918 -0.0008014505169 -0.0004332988681)
(0.004195872695 -6.732978419e-06 0.0003846047881)
(0.01007086465 -0.0002327978454 -0.0006832523837)
(0.01106309047 -0.0001444149009 -0.0005695932364)
(0.007816920725 0.000329713376 -0.000182771794)
(0.005692357175 -0.0005910294224 -0.0003568120996)
(0.01176948869 0.0003426843981 0.000367587373)
(0.00951692447 -6.813728467e-05 0.0002839690585)
(0.005323337527 0.0003463183386 0.0001233653331)
(0.009742768876 0.0007397404149 0.0001207164151)
(0.009332524743 0.0005364089511 -9.870002563e-05)
(0.008612747326 0.0002981016353 -3.889136457e-05)
(0.003670451418 -0.0001152685494 4.215026778e-05)
(0.01106160359 0.0005447475319 -0.0006511960087)
(0.01058159634 0.0008990318066 -0.0003342303755)
(0.008219256054 -0.0004911369365 0.0006211849689)
(0.007583298041 0.0004895836964 0.0003806648992)
(0.01175880937 0.0007594653576 -0.0008199079143)
(0.00611512477 -0.0005954151048 -0.0001336524995)
(0.009221717798 -8.723130763e-05 8.790348578e-05)
(0.008757352071 0.0006121284818 0.0007223133848)
(0.006127687117 -1.419437549e-05 0.0001897603962)
(0.007209267574 7.70862065e-05 -0.000196992814)
(0.01065432226 -9.247614644e-05 0.0004242769307)
(0.01345918743 7.108975669e-05 -0.000409867439)
(0.007192719305 0.0007789863527 0.0002131254494)
(0.01032810773 0.0006886921212 0.0007649759031)
(0.009750858807 -0.0008198814907 -0.0007248580176)
(0.007717349694 0.000769722695 0.0003580293557)
(0.008681791478 -0.0007185577894 -0.0003567245328)
(0.008506244944 -0.0003268730923 -8.121481261e-05)
(0.01322109381 0.0007153470664 0.0004394728637)
(0.01267246474 0.0006541623064 -0.0001073203675)
(0.007082052598 -0.0002400387947 -6.579281019e-05)
(0.01091290568 0.0001695926749 0.0008118508793)
(0.00671497947 -0.0005142468814 -0.0004165192713)
(0.01050231709 -0.0004946659421 -5.869054931e-05)
(0.008792261649 0.0002171669467 -1.481646653e-05)
(0.01331140742 -0.0003600272712 0.0002563171191)
(0.006449150877 -5.644766916e-05 -0.0007463122403)
(0.008838571314 9.739105952e-05 -0.0001115889284)
(0.008239360271 -0.0004593255965 0.0005041436273)
(0.01232955968 0.0004806274081 0.0009107742242)
(0.01231793081 0.0002478366925 -4.596444548e-05)
(0.005375721108 0.0003820260762 -0.0005489710504)
(0.01149367072 0.0008323092247 -0.0001208047429)
(0.006572968407 -0.0001955426378 0.000294647668)
(0.01290355146 0.0005160275158 0.0002291765487)
(0.006198719594 -0.0003635549713 -0.0002027479475)
(0.005500063154 -0.0003761122083 0.0001581623207)
(0.008135837712 0.0001567999836 -0.0001958617846)
(0.008340316795 0.0005088233653 1.403087361e-05)
(0.01051640942 0.001003880663 0.0002966158384)
(0.008653622163 -0.0003211930519 -0.0004552788371)
(0.00731826932 -0.0005793238762 0.0002424610979)
(0.01035732866 0.0001289328459 -0.0004542488119)
(0.006870672996 -9.376843909e-05 -0.0001970358985)
(0.003514424509 -0.0002956856792 0.0002592225227)
(0.007693681793 -2.292705063e-05 -0.0003063155174)
(0.01109475997 0.0004954011868 0.0004018027756)
(0.01119062907 0.001229589686 -0.0002272677652)
(0.006893465178 -0.0002315772056 -1.154956518e-06)
(0.01262033802 -0.0001552459056 0.001107840811)
(0.009679921708 -0.0005094445494 0.0002824746542)
(0.006693510312 -9.10213547e-06 0.000378113889)
(0.01052913901 -0.0003007351166 -0.0003630198842)
(0.006202306736 0.000330361693 -0.0001984477421)
(0.005692047577 -7.252631761e-05 -0.0001031279163)
(0.004221821835 -0.0002060710733 0.0003892690798)
(0.01437376711 -0.001264161659 0.0007149169096)
(0.007908653643 0.000564813678 -0.0003781089394)
(0.01401462784 -0.0002650307466 0.0002663958382)
(0.005003585509 -0.0001483667814 0.000610524619)
(0.01168962898 -0.0001308816445 0.0005212192065)
(0.01105506324 0.0004401980393 0.0003859830199)
(0.003594713496 -0.0002629577639 -0.0002046921292)
(0.007026262351 0.000342536643 5.89013515e-05)
(0.004377585612 -0.000327125005 0.0004642034961)
(0.009103363597 -6.952415425e-05 -0.0001506422837)
(0.006537712489 2.790124889e-05 0.0001346609229)
(0.01020607785 0.0006764075529 -0.0007330037368)
(0.008058897767 0.0005792938348 -0.000323623305)
(0.00824959433 0.0002244941249 0.0005359494188)
(0.008239204429 -0.0003412531323 -0.0008640956593)
(0.00467610447 4.430013584e-05 -0.0003818350677)
(0.006942580243 0.0002911725163 0.0001606988028)
(0.008707221721 0.000182357891 4.696642273e-05)
(0.005633038725 -0.0001039983319 6.58786723e-05)
(0.006402504347 -0.0002457854142 -0.0005950276638)
(0.005793334536 -0.0005402787603 0.0007007760704)
(0.007402649208 0.0003879292683 -0.0002625412819)
(0.006304039917 -0.0009995935686 0.0002446490794)
(0.009419109453 -8.130490618e-05 0.0007667946126)
(0.006972937105 -4.736234434e-05 0.0001469221363)
(0.005474999419 0.0002026843774 3.28018764e-05)
(0.006535361417 -0.0001258219767 0.0008205389759)
(0.004383071916 4.549398593e-05 -4.962171344e-05)
(0.009805492735 0.0003949546742 0.000643100987)
(0.005336941191 -4.444903381e-05 7.400973981e-05)
(0.007450119253 -0.0003411553233 0.0006826012139)
(0.006994786058 -7.231778143e-05 0.0001142848457)
(0.006314909895 -0.0001505315344 -0.0006875851942)
(0.003741406614 0.0001608984521 -0.0004284560981)
(0.005341809791 -0.0002592564643 -0.0002868636482)
(0.01365742346 -0.0008165158199 -0.0002152114535)
(0.007618983744 -0.0009702012936 0.0002246117959)
(0.007903181949 7.710277566e-05 0.0005761604724)
(0.008259604614 -0.0008153400314 0.0008062202892)
(0.005663615039 0.0006861433998 0.0003209716348)
(0.009635413489 -0.0004051989102 -0.000519087975)
(0.009160826624 -0.0005764368911 0.000922575375)
(0.007317340204 0.0005398738627 -0.0001028340718)
(0.009008492156 -0.0004116885523 0.001041132868)
(0.009676102359 0.0005655570431 7.645007669e-05)
(0.008270065204 0.0002233004684 0.0002379979627)
(0.008331146715 0.0009309491234 0.0004110969632)
(0.00633213617 -0.0003321967658 -4.403168178e-06)
(0.01341501505 0.0001180552257 -0.001224373279)
(0.006089936566 -0.0001342243162 -0.0002633167536)
(0.009092193384 -0.0003003895916 0.0006987322731)
(0.009313094456 0.0003255265327 0.0005725769893)
(0.01036905105 0.0001616268629 -0.0001025750722)
(0.007654194612 -1.034448787e-05 0.0006987542549)
(0.01309771271 -0.0007451370715 0.0001960573032)
(0.008430031449 -0.0003180348822 1.453341194e-05)
(0.005669307224 0.0002898541993 -0.0002312513815)
(0.01271216479 0.0003504785388 0.0005348519195)
(0.00187875686 0.00016235937 5.779698777e-05)
(0.005815841231 -3.984028712e-05 -0.0002485226898)
(0.007125204724 0.000532820883 0.0008288843479)
(0.01000393654 -0.0005610554963 0.0005100854027)
(0.006153821081 0.0005131541268 -6.29450185e-06)
(0.005230042427 0.0001396520734 3.071002657e-05)
(0.006752080919 -0.0005281785377 7.367567117e-06)
(0.01096937867 -0.0005160412874 -1.711616353e-05)
(0.006197786732 -0.0004371333563 0.0002447374025)
(0.01142907696 0.0005062361294 0.0001639086781)
(0.004814619564 -0.0001938276333 0.0004280752576)
(0.007158185613 -3.68694927e-06 -0.0002815114476)
(0.01175267885 0.0007422784973 -0.000714094995)
(0.01207423793 -0.0003089109703 0.0007419738574)