/*--------------------------------*- C++ -*----------------------------------*\
  =========                 |
  \\      /  F ield         | OpenFOAM: The Open Source CFD Toolbox
   \\    /   O peration     | Website:  https://openfoam.org
    \\  /    A nd           | Version:  7
     \\/     M anipulation  |
\*---------------------------------------------------------------------------*/
FoamFile
{
    version     2.0;
    format      ascii;
    class       volScalarField;
    location    "0.006";
    object      p;
}
// * * * * * * * * * * * * * * * * * * * * * * * * * * * * * * * * * * * * * //

dimensions      [1 -1 -2 0 0 0 0];

internalField   nonuniform List<scalar> 
2400
(
0.3045896214
0.4149807969
0.4074142795
0.4020517579
0.405755409
0.4062793895
0.407937518
0.4038995375
0.4005577122
0.4022152767
0.4079315423
0.4064107854
0.4084995092
0.4064646122
0.4230040294
0.442540052
0.4811985944
0.6004500866
0.9874576205
2.412340124
0.3086649594
0.4172731422
0.4089099343
0.4113708239
0.4186527015
0.4144040482
0.4111119532
0.4146447171
0.4191984649
0.4171006221
0.4157099102
0.4162150441
0.4158669651
0.424920958
0.4295132352
0.4669096181
0.5299286745
0.6630807473
1.117545331
2.078010538
0.3130710708
0.4276673347
0.4212944191
0.4185267909
0.4156351416
0.4145159844
0.4129689692
0.4103240258
0.4102226735
0.4127480812
0.4153027692
0.4168497794
0.4140200483
0.415401034
0.4304024731
0.4558777923
0.5331702274
0.6810492093
1.002966215
1.539034813
0.3119451299
0.4195876978
0.4139509338
0.4167493844
0.4122339494
0.413094017
0.4126346737
0.4174860508
0.4200614276
0.4213422411
0.4204509171
0.4182890391
0.4195953768
0.4292017937
0.4354573897
0.4596773938
0.5057275758
0.6351672793
0.8514945561
1.177213786
0.3110117726
0.4212486869
0.4101380449
0.411911498
0.4152870252
0.4163560884
0.4119344444
0.4103760597
0.408821775
0.409641526
0.4157210272
0.4246395435
0.4284030398
0.4319062529
0.4307132009
0.4607740488
0.5069601695
0.5758467528
0.7191144065
0.9390108717
0.3147453577
0.4236751945
0.4188746763
0.413992837
0.4135672641
0.4124722985
0.412926971
0.4117437056
0.4106979378
0.4100753407
0.4061623167
0.4122039726
0.4191548528
0.4293278304
0.4354187304
0.4590314597
0.4757554089
0.5350294435
0.64034884
0.7732834719
0.3114821068
0.4179011149
0.4171335276
0.4181711313
0.4157303701
0.411484683
0.4134682904
0.4186937787
0.4194907817
0.4151379544
0.418460194
0.4172566109
0.4215078278
0.4260763381
0.4367385262
0.4405077618
0.4693279405
0.5070139922
0.5582463862
0.6630272262
0.3074609761
0.4210826747
0.4086905934
0.4075059677
0.4129619533
0.4132734359
0.4110566886
0.408389581
0.4108765226
0.4176106162
0.4162747335
0.4173266248
0.421329251
0.4206649158
0.4300877819
0.4527597141
0.458113804
0.4767023856
0.5209497153
0.594018333
0.3130617427
0.4255042583
0.4105913271
0.4113223256
0.4097678077
0.4122615673
0.4168508932
0.4167667664
0.4177239417
0.4169019141
0.4154118424
0.4164993028
0.4183957404
0.4244356508
0.4288689849
0.4378079959
0.447672424
0.4684811973
0.4963443604
0.5566277396
0.3113928956
0.424402771
0.4220757665
0.4283665439
0.4263302052
0.4214128782
0.4213239626
0.4195470862
0.4136100355
0.4122726697
0.4134163396
0.4164945358
0.4153589421
0.4227831906
0.4239932676
0.4270000115
0.4374588916
0.4520476934
0.4694523836
0.5107160534
0.3124787667
0.4211831083
0.411781172
0.4148681648
0.4089790791
0.4164627982
0.4108523511
0.4111441628
0.4105382713
0.4152328363
0.411623924
0.412752299
0.4157422177
0.4258142033
0.423929244
0.422568874
0.4302355841
0.4440199397
0.4605207744
0.4935120536
0.3089065333
0.4199369293
0.412404834
0.4090391957
0.4164587774
0.4142068325
0.4103874102
0.4131074196
0.4130413688
0.4095585189
0.4149517059
0.4158809033
0.4171562796
0.4240675158
0.4218324895
0.4231909298
0.4253455508
0.4307893047
0.451415573
0.4765748773
0.3118789364
0.4228496615
0.4170346227
0.4119561206
0.4142296933
0.4126815597
0.4152711318
0.4186245239
0.4198403675
0.4192142267
0.4178367052
0.4157532522
0.4142963585
0.416722419
0.4152903953
0.4154672256
0.420985789
0.4266941244
0.4489835324
0.4680089285
0.3143828737
0.4224869072
0.4136173108
0.4221499239
0.4204828737
0.4217937183
0.4207705145
0.417404378
0.4153084789
0.4191733117
0.4184580652
0.4264705706
0.4169597495
0.4137992922
0.4190484618
0.4201532403
0.4236411705
0.4261264072
0.4382997167
0.4431609678
0.3077291671
0.4195896917
0.4164096872
0.4133696698
0.4174047158
0.4150985415
0.4104004068
0.4123775229
0.4094739382
0.404393855
0.4038958796
0.4138892113
0.4174465591
0.4166485154
0.4211874873
0.4179858891
0.4246632058
0.4195108644
0.4334493193
0.4377702766
0.3082077341
0.4179974558
0.4077124157
0.4099786776
0.4051660538
0.4073375758
0.4106139494
0.4131896077
0.4139310269
0.4156631434
0.4171480205
0.4113924997
0.4132294756
0.4189988111
0.4131210297
0.412495912
0.414528516
0.4168155067
0.440550896
0.4337608276
0.3072681361
0.4142422214
0.404648847
0.4037621834
0.4094462611
0.4110325521
0.412306496
0.413818378
0.4216394599
0.4185080119
0.4105767359
0.4109577793
0.4086229929
0.4155787532
0.4185680395
0.4210452398
0.4250405878
0.4219364788
0.427530634
0.4286757787
0.3083820198
0.416144356
0.4106741732
0.4111679177
0.4110298755
0.4088427955
0.4095643683
0.4098057163
0.4006954675
0.4065296889
0.4120468521
0.4215941761
0.4230229379
0.4182767803
0.420684476
0.4206392225
0.4113346413
0.4232787791
0.4278993805
0.4345947181
0.3106592558
0.4218867157
0.4193520882
0.4181495768
0.4111863815
0.4119893116
0.4099914014
0.4102971047
0.4091725059
0.4136990535
0.415229109
0.4126940056
0.4142971947
0.4154998602
0.4184380379
0.4218606723
0.4224321484
0.4196031759
0.4197241797
0.4209181526
0.3148969799
0.4287144449
0.4199947456
0.4175216329
0.4172157836
0.4150847333
0.4140702073
0.4156692945
0.4180396246
0.4222115995
0.4176456141
0.4203259814
0.4199800628
0.418842739
0.4182796682
0.4182824592
0.4208882889
0.4215989688
0.4254395915
0.4272697446
0.3140436522
0.4193826023
0.4114226559
0.4132774537
0.4174046838
0.4219888555
0.4181388554
0.4196059855
0.4177384135
0.4124552386
0.4178755877
0.4171697461
0.4156416918
0.4131249815
0.4147236889
0.4127656821
0.4192029313
0.4198942048
0.4218060311
0.4171597808
0.3118741979
0.4221281067
0.4178144411
0.4141094884
0.4133684897
0.4159467439
0.4164458249
0.4158252943
0.4154247358
0.4131385071
0.4119256014
0.4089632347
0.4079354316
0.4134191414
0.4157588596
0.4191180713
0.4249420056
0.419112008
0.4156920742
0.4119087212
0.3130533251
0.4173328832
0.4101509178
0.4102802339
0.4125449684
0.4137404747
0.415256598
0.419060158
0.4238062079
0.4195870741
0.4226859463
0.4203655657
0.4166613585
0.4144305678
0.4121683784
0.4062157637
0.4039266928
0.4059935123
0.4100332293
0.4075320395
0.310622432
0.4236312746
0.4140370544
0.4158820586
0.4203998551
0.4229217092
0.4207812019
0.4125533462
0.4129689914
0.4157727687
0.4218187863
0.4169291631
0.4149358
0.4148210708
0.4134332899
0.4173814218
0.4180591635
0.4179464176
0.4164225436
0.4089415687
0.3085953514
0.4181670448
0.4122721833
0.4137511953
0.4101421588
0.4108486098
0.4091618696
0.410775433
0.4099030994
0.4143256552
0.4114201459
0.4091513882
0.4093068407
0.4158378873
0.4145249798
0.4107959465
0.4123258955
0.4121771489
0.4125504699
0.4218836355
0.3117404008
0.42141269
0.4102580171
0.4061987505
0.4073840096
0.4075785741
0.4160422615
0.4155020969
0.416238551
0.4121108161
0.4092324877
0.410026011
0.408419879
0.4055243902
0.4087733656
0.4102473842
0.4128515303
0.4165670568
0.4211241814
0.4205172969
0.3126678701
0.4180779566
0.4111651139
0.4133678103
0.4179255608
0.4149735363
0.409514481
0.4092496926
0.4087447148
0.408767414
0.4089059697
0.4111749143
0.4146990205
0.4167977506
0.4164236526
0.4214512531
0.4255927824
0.4271681668
0.4226000831
0.4229194593
0.3084633737
0.4255071708
0.4169865812
0.416249157
0.4184979612
0.421615566
0.41846781
0.4170732044
0.4172125457
0.4206368247
0.4230281032
0.412810809
0.4136505027
0.4172326559
0.421009636
0.419815723
0.4193374592
0.4145965269
0.4110836973
0.4128309381
0.3108273461
0.4169700249
0.4136565925
0.4144260316
0.4126276015
0.4119622885
0.4176503128
0.4239624886
0.4208409226
0.4198083943
0.4172738848
0.4236245557
0.421245209
0.416093846
0.4083162308
0.4080197037
0.4091736965
0.4095138082
0.4107561983
0.4124955113
0.3111829099
0.424383133
0.4188950361
0.4177510622
0.4208960828
0.4231878067
0.4221831821
0.4196508051
0.4207154245
0.422736991
0.4231908591
0.4166723458
0.4155671686
0.4182766885
0.4198527911
0.4181061963
0.42064015
0.4132794813
0.4112419472
0.4133720149
0.3079954198
0.4168667722
0.4108362241
0.4116517217
0.4131196314
0.4087657749
0.4131039613
0.4094500691
0.4091088809
0.4084478894
0.4031542788
0.4102359523
0.4147047899
0.4135835772
0.4117660821
0.4121652707
0.4133803195
0.4177784495
0.4160223947
0.4204667494
0.3117727882
0.4204436781
0.4121304201
0.4097133961
0.4127602855
0.4173300874
0.4130436737
0.410506028
0.4098580246
0.4124472605
0.4133933816
0.4057373113
0.4072073039
0.4100775728
0.4151787173
0.4156301637
0.41636264
0.422320699
0.4251819533
0.4213653049
0.3088478222
0.4219024322
0.4145164146
0.4130407888
0.4112104077
0.4111536906
0.415289939
0.4150147381
0.4132892737
0.4117401687
0.4142420853
0.4156151074
0.4172120033
0.4188322519
0.4223895377
0.4224063264
0.4173264309
0.4159359334
0.4157253501
0.4171969301
0.3103985473
0.4170747043
0.4129418014
0.4105956098
0.4136469121
0.4142298419
0.4099489306
0.4050965418
0.4088976248
0.4149438362
0.4163089314
0.4127069402
0.4136828502
0.4169164202
0.4128113674
0.411470232
0.4157819755
0.4150045882
0.4142020537
0.4122083555
0.3091242912
0.4166253821
0.4087571846
0.4140845943
0.4114833083
0.4096115939
0.4156071001
0.4180066793
0.4190416497
0.4185146175
0.4164645211
0.419499098
0.4141884248
0.4105648946
0.4150150908
0.4136062376
0.4132641648
0.4125008558
0.4123467767
0.4113507173
0.3124662478
0.4271034991
0.4175581592
0.4178676235
0.4167897288
0.4163810338
0.4147955297
0.4135614567
0.4084839537
0.4060341881
0.408749968
0.4086236724
0.4130941957
0.4125339896
0.4075909896
0.4100565127
0.4129042702
0.4103232897
0.410348254
0.4100461578
0.3102672235
0.4216338493
0.414460712
0.414293463
0.4162631535
0.4099485254
0.4100275346
0.4117756567
0.4126134698
0.4178491006
0.4148114092
0.4152596009
0.4151010459
0.4120356496
0.4115444351
0.4111121964
0.4108023626
0.4111504992
0.4114209264
0.408963423
0.3096116202
0.4191873355
0.4062394835
0.4117724947
0.4115915464
0.4146646401
0.4182034503
0.4158883083
0.411992986
0.4036785946
0.4074290352
0.4075368894
0.4057498876
0.4078922621
0.4077603947
0.4081742318
0.410158092
0.4011829724
0.3982093539
0.4011146422
0.3102282221
0.419258597
0.4122589638
0.4087263785
0.4080402769
0.4059232905
0.4037848223
0.4076218237
0.4112094251
0.4152670937
0.4124884075
0.4109011236
0.4075798499
0.4074413725
0.4056988196
0.40518036
0.4093706669
0.4176633864
0.4223470179
0.4168924599
0.3030570291
0.4108169345
0.4064362644
0.4049367119
0.4072440826
0.4059839896
0.4071765386
0.4047647172
0.4070210854
0.4020967919
0.4065263584
0.4058700722
0.4122599139
0.4113471593
0.4142713377
0.4166757215
0.4139600276
0.4092590759
0.4070277899
0.4093162386
4.632347331
4.863464325
4.903222188
4.748025263
4.512367028
4.413359398
4.326697409
4.257473932
4.10642317
4.055872972
3.922158043
3.827232859
3.832700348
3.731020922
3.641587158
3.624068929
3.610911348
3.562672115
3.450044058
3.403761969
3.276403667
3.286790593
3.321859363
3.221768526
3.251627368
3.312760621
3.169919096
3.158070255
3.089782111
3.0366617
3.059303271
3.019822291
2.992235139
2.960478454
2.886615013
2.808771838
2.670287396
2.562955943
2.297654166
1.841644662
3.095137432
3.558877663
3.830298137
3.977344819
3.973114136
4.078057747
4.0218811
4.025346132
4.011868899
3.964885306
3.876461477
3.833926082
3.836895045
3.787143617
3.722125484
3.654176428
3.608155154
3.563269466
3.531908211
3.478460681
3.445193895
3.385631064
3.388179992
3.308094425
3.326561534
3.258896794
3.198723067
3.19301028
3.099991983
3.116361526
3.097717422
3.053296889
2.984385563
2.982332937
2.91247545
2.779865187
2.71621609
2.484060393
2.16415365
1.738748115
2.20467344
2.703077742
2.935557804
3.231670322
3.379646446
3.512658998
3.608782518
3.688325361
3.7245918
3.745908138
3.674710317
3.710109542
3.725653821
3.644317103
3.610915473
3.642378208
3.611761253
3.453083327
3.465293546
3.421481195
3.431963982
3.36723131
3.349051168
3.288471174
3.309585931
3.256058085
3.217310227
3.166834538
3.163026872
3.113282093
3.104977713
3.02933598
3.039393338
2.93806247
2.918956831
2.809774309
2.623084405
2.423210005
2.173357722
1.758542626
1.631976527
1.891042097
2.27063096
2.540998174
2.746071432
2.961995225
3.130115047
3.283710005
3.285470343
3.373927233
3.458011346
3.470566744
3.491895007
3.469966547
3.492816682
3.493253917
3.485998079
3.469678218
3.432642024
3.349797429
3.323298041
3.315074588
3.320256891
3.278491107
3.274003038
3.215093434
3.159786622
3.123573655
3.157649031
3.0947155
3.045009788
3.02834675
3.01975478
2.933498121
2.849377638
2.742343914
2.601393212
2.430603175
2.171389937
1.790815654
1.225737722
1.464630945
1.783922548
2.003196315
2.212569674
2.46131676
2.658892966
2.840501431
2.937300924
3.02273458
3.106596279
3.191786466
3.243446455
3.304922103
3.327880832
3.350666017
3.384190839
3.37888073
3.260828455
3.28165321
3.278093509
3.271953387
3.254482583
3.201224177
3.205227518
3.160213096
3.109806381
3.079346321
3.09968996
3.044561393
3.03365262
3.03472898
2.960646995
2.877280862
2.794278559
2.733847482
2.582038089
2.38871615
2.215433133
1.899620994
0.9356630936
1.147587655
1.369154559
1.643586235
1.784598512
1.958918931
2.267485253
2.37920374
2.572153793
2.704010797
2.767366882
2.916758933
3.020002266
3.035405604
3.16971669
3.158021292
3.24619918
3.203361105
3.188441087
3.193666449
3.223321072
3.14387826
3.171300318
3.123972492
3.156643214
3.138534732
3.145785883
3.062832406
3.058121375
3.072772823
3.022644932
3.002095127
2.941198772
2.916437827
2.821673473
2.706600292
2.551011391
2.469757073
2.244933629
2.016718778
0.8006498445
0.9545556839
1.079016877
1.306586367
1.463315792
1.607169142
1.844656568
1.995921463
2.2264021
2.32899431
2.457464603
2.593626355
2.70988474
2.825640597
2.909375032
2.959004504
3.026273522
3.05638464
3.150518009
3.12590581
3.140086781
3.071046835
3.068209813
3.046472904
3.08382139
3.104422422
3.077558982
3.080410946
3.030753968
2.98992749
2.993275193
3.023881456
2.911612049
2.846646754
2.805288369
2.709608033
2.628832047
2.505094683
2.300214912
2.065563313
0.6887512079
0.7729302683
0.9166628606
1.062854862
1.20830464
1.331408739
1.514006042
1.678311401
1.838544345
2.021214633
2.137380293
2.316691327
2.442814053
2.557259002
2.682646605
2.779284992
2.842982881
2.909867918
2.950544793
2.979433094
2.988322639
3.005315026
3.052181689
3.05120352
2.993153776
3.00179521
3.017878276
3.049481217
3.051551231
2.951422059
2.92088911
2.976812173
2.886045258
2.848550903
2.765925733
2.693661325
2.614383136
2.486637347
2.33575386
2.191936343
0.6251825524
0.6982693479
0.7665248862
0.8723908541
1.016837351
1.129695628
1.245834165
1.376498938
1.51052119
1.646034511
1.819149518
1.970918621
2.143334494
2.263766477
2.384005946
2.541724599
2.639141746
2.70001987
2.789621678
2.850914033
2.897703919
2.941171761
2.943074885
2.975012938
2.937750181
2.949617861
2.931603807
2.979304562
2.980544265
2.96534573
2.905044432
2.902579804
2.866884795
2.791404383
2.775158667
2.71440781
2.60640427
2.539122181
2.418881104
2.224713513
0.5665915275
0.631500859
0.675099055
0.7534709207
0.842377936
0.9267022402
1.013634168
1.141605249
1.29346819
1.387619566
1.52954535
1.691129149
1.883040539
1.974068389
2.071394034
2.225577026
2.367068088
2.508822295
2.579312263
2.615818181
2.696666817
2.758149049
2.772743874
2.836117038
2.923897325
2.906923856
2.907431985
2.897899742
2.878662704
2.923065708
2.826415217
2.850550538
2.865470178
2.795832941
2.763312731
2.726987128
2.640173725
2.545817122
2.422355391
2.267240763
0.516452046
0.5729615142
0.6215380255
0.6636959954
0.7107184068
0.7816322844
0.8429345984
0.9889550833
1.085196805
1.159119808
1.31500364
1.402903465
1.577170321
1.739561825
1.815505826
1.975716238
2.128281174
2.196914892
2.303483627
2.440072688
2.485888907
2.609199833
2.662598497
2.739864173
2.81305241
2.853235654
2.870514522
2.776783856
2.818730562
2.845537484
2.849814829
2.866985205
2.854421641
2.782601463
2.768504066
2.748824055
2.62256522
2.532063605
2.442827536
2.338781238
0.4875490274
0.5052458106
0.5451694287
0.5873398157
0.6273093544
0.6967977477
0.7454294499
0.8341179506
0.9015775041
0.9958544736
1.092183469
1.23854396
1.29909908
1.454027757
1.611389339
1.727632009
1.833817613
1.958110561
2.084981221
2.22838453
2.349136627
2.443203378
2.502983843
2.577625352
2.666191596
2.719471187
2.741922772
2.743123632
2.757346484
2.825505722
2.827609305
2.818999717
2.76102423
2.775022275
2.698375435
2.696805834
2.661272419
2.559873046
2.517322646
2.400592538
0.4867378582
0.4986202644
0.5109817451
0.5448678038
0.5766813052
0.6334609014
0.6864885796
0.7357110947
0.7978127056
0.8563774532
0.9526159915
1.038886107
1.122896438
1.226117915
1.33607812
1.460797705
1.587934027
1.698499944
1.854308177
1.971334117
2.12846353
2.226222381
2.322041277
2.424812554
2.479457403
2.565030591
2.687086649
2.71813901
2.74133246
2.745862865
2.781257944
2.849934393
2.793171336
2.713398654
2.675702827
2.650371046
2.684798972
2.618945124
2.560835316
2.456919341
0.4622248139
0.471564508
0.4870175459
0.5204385615
0.5422323866
0.560036632
0.6007576044
0.6471617987
0.7088126075
0.7409376903
0.8089081017
0.8886803329
0.97791393
1.067329732
1.135630887
1.253768202
1.37042362
1.488588365
1.59897178
1.758978365
1.886524477
2.026690686
2.111415079
2.228955089
2.308510697
2.409898614
2.480431637
2.533694787
2.57001311
2.631005105
2.720493648
2.681300584
2.721564024
2.720055096
2.669281051
2.660334461
2.659927446
2.63598387
2.595273505
2.519897632
0.4519065535
0.4688392866
0.4811077381
0.4796429113
0.5168228186
0.5324158218
0.558977197
0.5774564558
0.6155234958
0.6546593237
0.728109372
0.7617686573
0.8234307704
0.9067713845
0.9890635638
1.087378614
1.189390655
1.30186534
1.394586501
1.525387232
1.650955249
1.76705772
1.870147584
1.971892769
2.099565572
2.204937723
2.316310319
2.364617725
2.450252278
2.556042303
2.55796017
2.645895862
2.676017974
2.698363011
2.719201622
2.621720918
2.667317831
2.612713678
2.557376138
2.462446142
0.4342810423
0.4415041667
0.4552822564
0.4667455893
0.4834444814
0.5009757587
0.5125931716
0.5247125882
0.5662546187
0.5935841629
0.6361337765
0.6681439201
0.7226776998
0.7896613324
0.8392701286
0.9317319865
1.031509191
1.107622184
1.221131908
1.30494917
1.408415861
1.528206716
1.651288448
1.763304985
1.895398947
2.029602152
2.120364598
2.231380993
2.303425823
2.411059281
2.461883459
2.509362904
2.598583503
2.680960874
2.67051354
2.648138355
2.617860163
2.587032042
2.578760636
2.574134046
0.4422020523
0.4420452973
0.4508776411
0.4542527913
0.4649057547
0.4771187741
0.4931182166
0.5081510825
0.532208382
0.5539076027
0.5805552861
0.6128213175
0.6587878428
0.7251258698
0.7561389839
0.8212563178
0.8975935147
0.9665958089
1.052667872
1.141974135
1.249286238
1.341654321
1.472457852
1.56079712
1.692511218
1.790468735
1.898799639
2.030646999
2.144425745
2.216255557
2.342652001
2.411839829
2.467816895
2.555476543
2.599892713
2.616038489
2.594633716
2.586394758
2.558131114
2.485618281
0.4290837749
0.4300383683
0.4371168341
0.4480358168
0.4531324455
0.4587297855
0.4717852574
0.4844531616
0.4964950301
0.5151456234
0.5420853259
0.5707882089
0.6118272669
0.6430303603
0.6759204403
0.7155553899
0.7717927229
0.8415714018
0.8888092575
0.9760329952
1.061241006
1.175462923
1.229188767
1.367401578
1.491577554
1.584627057
1.747356897
1.820433702
1.972806636
2.071197045
2.161905166
2.258611577
2.336994763
2.40062177
2.480618893
2.516336974
2.564734192
2.566815426
2.540088197
2.542859586
0.4245936745
0.4301888578
0.4399087598
0.4399020196
0.4448248664
0.45163641
0.4627688336
0.4725570843
0.4816297696
0.4893199895
0.5076103642
0.5358825825
0.5555154885
0.5883642267
0.6239619373
0.6674225474
0.6967141986
0.7438703118
0.7888949203
0.8513173428
0.9202857049
1.007561971
1.092476756
1.193509795
1.295391662
1.386731769
1.544480948
1.664466452
1.752918
1.88897388
2.007164222
2.130596472
2.21072864
2.274456546
2.340040088
2.403424948
2.444320126
2.505326528
2.472602975
2.471560141
0.4280312715
0.4313788923
0.4273701478
0.4349401833
0.4388453462
0.4409927667
0.4440653958
0.4617987241
0.4787462141
0.4827922597
0.4855657788
0.5075228958
0.5195999174
0.5402614508
0.5709329102
0.5997432228
0.6291333591
0.6726719502
0.7109314046
0.7645394213
0.8139676352
0.8725762297
0.9402008624
1.009951784
1.12883327
1.216959702
1.309614551
1.430789068
1.549024693
1.676472294
1.790698113
1.906655474
2.010210192
2.106094021
2.211325503
2.290012175
2.334270381
2.378439084
2.424948175
2.416810224
0.4187202196
0.4140451857
0.4229199528
0.4270444524
0.435100586
0.4365658654
0.4395268278
0.4490065065
0.4432157797
0.4537336051
0.4715225317
0.4778233846
0.499291853
0.5126864661
0.5324171322
0.5560454756
0.5908478177
0.615048568
0.6287681802
0.6790412091
0.7226949951
0.7812022421
0.8327773399
0.8856246893
0.9651454854
1.053379141
1.138569795
1.262054604
1.392630592
1.488064283
1.608470688
1.728965249
1.838882417
1.956394604
2.030345517
2.151218312
2.23250068
2.313386629
2.336640339
2.366605475
0.4176945873
0.4153343066
0.4211916998
0.4222674779
0.4235574271
0.4303482
0.434995246
0.4387855465
0.4416233226
0.4464069525
0.4539740047
0.4693006144
0.4717871359
0.4902371896
0.5063602148
0.5261790726
0.539853229
0.5640108924
0.5912291057
0.6149520233
0.6657815569
0.6984255981
0.7449755037
0.7902388083
0.8656237376
0.9355701116
1.004860126
1.091763653
1.178617083
1.2980933
1.410944358
1.496746294
1.620435301
1.760903429
1.857515956
1.968204972
2.070865107
2.137478895
2.198362191
2.292640993
0.4099654123
0.4137182191
0.4108897719
0.4134543189
0.4140043306
0.4251224133
0.4285120698
0.4321205437
0.4432378117
0.440605638
0.4591261622
0.452742447
0.4606624637
0.4706353395
0.480222561
0.4939067738
0.5179659155
0.5346862608
0.5491348757
0.5713359123
0.5945205242
0.6331430761
0.6670050818
0.7169833824
0.7494862589
0.8319961202
0.8848168999
0.9587008657
1.048455045
1.133268936
1.224635163
1.356948981
1.440553524
1.552360561
1.674973574
1.802980741
1.873936092
1.999078476
2.100757653
2.159831921
0.4105527252
0.4182025802
0.4200421798
0.4222000697
0.4215727553
0.4244984283
0.4238397813
0.4298064691
0.4248007393
0.4281549529
0.4309681923
0.4335821663
0.4554891948
0.4584851725
0.4630163766
0.4749763112
0.4954594824
0.5034698438
0.5156417981
0.5272589597
0.5552881134
0.593509587
0.6166515451
0.6545925307
0.6895247202
0.7236615907
0.8003731826
0.8614600482
0.9089940788
0.9823545148
1.068790342
1.173848394
1.259483903
1.369745986
1.514025591
1.633606173
1.769150548
1.843161431
1.953237079
2.029698696
0.4166164172
0.4168907553
0.415055388
0.4200930154
0.4208313226
0.4208314665
0.4193765836
0.4154849391
0.4242331119
0.4225116715
0.4264516848
0.4268021703
0.4322296952
0.440583117
0.4474174524
0.4590091333
0.4829055653
0.4909489692
0.4959887084
0.5215753954
0.5324828881
0.5448977177
0.5713916267
0.5848592531
0.6301240836
0.6550756159
0.7180520363
0.7692507992
0.8104498873
0.8596686907
0.9461783215
1.027653719
1.11120214
1.220881791
1.316694455
1.429612495
1.590317733
1.69554303
1.77942906
1.910076788
0.4238157423
0.4230045636
0.4218864039
0.4151225532
0.4116852687
0.4039372093
0.413664665
0.4128736969
0.4154043616
0.4261976098
0.4337597633
0.4342356764
0.4340828587
0.4396197029
0.4521067839
0.4523167195
0.459011137
0.475188046
0.4733372232
0.4854222888
0.5074348698
0.5229200304
0.5252912652
0.5489531455
0.5838422574
0.5983601739
0.6365700523
0.6693720861
0.7235755489
0.765710282
0.8200509204
0.912856247
1.013615354
1.081986804
1.174431887
1.253197897
1.376443
1.504534654
1.603095754
1.747342645
0.4180815561
0.4205046101
0.4197987652
0.4209214562
0.4208342963
0.4288506636
0.4250131903
0.4219020848
0.4180759477
0.4128861057
0.4251874464
0.429328188
0.4288062403
0.4358467318
0.439395539
0.4471795036
0.4541050593
0.4602656507
0.4664606487
0.4691141716
0.4792461991
0.4991462631
0.5005224721
0.5223774145
0.5289710961
0.568639031
0.5824748998
0.6205468019
0.6721397624
0.7190370162
0.7387165608
0.7850773603
0.8545131923
0.9518683578
1.041613704
1.122352073
1.201973486
1.338601438
1.464170327
1.583662528
0.412876999
0.4191628279
0.4248099717
0.4225005545
0.4164600356
0.4167420962
0.4262345805
0.4257803432
0.4253171152
0.4240653773
0.418531095
0.4216961813
0.4288994965
0.4205166929
0.4256866916
0.4335470004
0.4392714085
0.4457286661
0.4611574567
0.4566943373
0.4588344484
0.4763420781
0.4876694164
0.497916787
0.512004649
0.5321064012
0.5564040555
0.581309779
0.6089181433
0.6514345717
0.6890002528
0.721811957
0.7749714421
0.820711822
0.9205364167
1.002858378
1.056662894
1.163001885
1.268908785
1.393686443
0.4150752247
0.4108737654
0.4135572923
0.4129893897
0.4167508859
0.4156155628
0.4182130262
0.4186663954
0.4221634246
0.4264460419
0.4385394396
0.4318767544
0.425899041
0.4274893024
0.4239681796
0.4292108086
0.4320624248
0.4391453167
0.4452612036
0.4554078197
0.4582395315
0.453351433
0.4707318808
0.4849220733
0.4939534803
0.5092601557
0.5268077885
0.5361496263
0.5557581857
0.5931000173
0.6333866226
0.6699080553
0.7091149684
0.7560366154
0.7881854881
0.876171072
0.95965734
1.018591268
1.139235877
1.245872415
0.4090880135
0.4118267715
0.4130631938
0.4183034821
0.4160545445
0.4204044792
0.4189569412
0.4222740344
0.4258605265
0.4218285312
0.4143725844
0.4175817254
0.4251352514
0.4282338029
0.4252443484
0.4251368652
0.4286489579
0.4233223226
0.4236991876
0.4352017725
0.4395049184
0.4513966777
0.4505188971
0.4630583507
0.4731484905
0.4929739476
0.4975561205
0.5345551344
0.5386066194
0.5717101724
0.586228897
0.6262213829
0.6464160151
0.681759513
0.7293634192
0.7567786525
0.8483127772
0.9212652028
0.9851865416
1.061361766
0.4245058543
0.4222337399
0.4208913995
0.4214071812
0.4192414694
0.4188906588
0.4185957567
0.4200532051
0.4158720388
0.4148385171
0.4135525911
0.4154981268
0.4123935091
0.4086267285
0.4091534721
0.4086791096
0.4165050724
0.4219550846
0.4268626975
0.4222544207
0.437653422
0.4395417643
0.4490792979
0.4562426691
0.4559934701
0.4662956704
0.488129106
0.4944144657
0.5060139877
0.5355509877
0.553788979
0.5660344563
0.5926960378
0.630151683
0.6657040486
0.6963700719
0.7520007512
0.8146212218
0.8752385214
0.9519457634
0.4228245576
0.42207787
0.4259450095
0.4268265935
0.4177331381
0.4174862585
0.4168925035
0.4118534546
0.4139722806
0.4135252185
0.4131081892
0.4165886062
0.4167272856
0.4166027456
0.4274847651
0.4281720016
0.422071632
0.4191481726
0.419894558
0.423055771
0.4232093986
0.4398285226
0.4387720557
0.4501844332
0.4472994215
0.4587658257
0.4641958175
0.4839606017
0.4892301905
0.506603065
0.5176097282
0.5338091546
0.5674282136
0.5899528154
0.6195039853
0.6410102587
0.6730261448
0.7290654491
0.7933801907
0.8613611671
0.4176278871
0.4117018493
0.4095360584
0.4080107881
0.4159663701
0.4155345145
0.4145985935
0.414974452
0.4141455894
0.4190224391
0.4249094657
0.4211024932
0.420908982
0.4176619723
0.4146049684
0.4151265534
0.4210425368
0.4214170231
0.4261843266
0.4339431877
0.4358447981
0.4350126587
0.4404405822
0.443303475
0.4576849405
0.4549034993
0.4543111523
0.4576023494
0.4676788895
0.4858331755
0.503598676
0.5159882425
0.519664633
0.5354943606
0.5669567084
0.5994803601
0.6260040942
0.6660190795
0.7167990454
0.7741784814
0.408527487
0.4111333034
0.4131264967
0.4115397995
0.4048221361
0.4093196948
0.4117309186
0.4182158594
0.4228893864
0.4202073579
0.4167596609
0.4141929446
0.4134110574
0.418291817
0.4249652606
0.4270700606
0.4267265697
0.4326097302
0.4304506234
0.4278023869
0.4287837641
0.4331353791
0.4342998532
0.4350031276
0.4389089708
0.4420827243
0.4489212424
0.4586383919
0.4647635687
0.4714738579
0.4756784795
0.488663214
0.5069330874
0.5119145493
0.5237320406
0.5581293689
0.5821516055
0.6003983581
0.6506358848
0.68964255
0.4143845483
0.417796595
0.4165557264
0.4166004298
0.4164199638
0.4179747763
0.4199877973
0.4138798412
0.4136786776
0.4158642122
0.4155522663
0.4161394987
0.4193811996
0.4156770442
0.4176552423
0.4178995266
0.4276155682
0.4230727213
0.4340751706
0.4335048254
0.4275406462
0.4260593927
0.4266642016
0.4274175267
0.4337526356
0.4337391107
0.4330558423
0.4380066058
0.4423840221
0.4501621132
0.4596178674
0.4668109866
0.4756106242
0.4962468543
0.5111408723
0.5427701151
0.5553792001
0.5765565365
0.6002556406
0.6452748333
0.4086964199
0.406095717
0.40982458
0.4139016062
0.4182225386
0.4158862342
0.4135470055
0.4103038618
0.4048047574
0.403392285
0.4033806558
0.4062404676
0.4109625974
0.4147484111
0.4119084329
0.4108578641
0.4127493217
0.4172531208
0.4167069958
0.4158264842
0.4259076285
0.4212680131
0.4237515996
0.4291144078
0.4332019557
0.4346219752
0.4427777935
0.442124258
0.4448977381
0.4516839717
0.4507598938
0.4612637141
0.4704629406
0.474160136
0.4845234416
0.4935078671
0.5316022187
0.5393675189
0.5663423259
0.5939617413
0.4101251917
0.4101229777
0.4098506491
0.4076159071
0.4041527143
0.4065231189
0.4055444622
0.4129473754
0.4142688761
0.4160164369
0.4131770567
0.4149752338
0.4119021912
0.4085095825
0.414523067
0.4159564254
0.4131907776
0.4081091832
0.4105844995
0.415464804
0.4150643867
0.4223647935
0.4244397554
0.4250821685
0.4240018917
0.4271597259
0.4267843696
0.4304273996
0.4274434449
0.4325913034
0.4426177657
0.4537883378
0.4597335073
0.4668261353
0.4661600476
0.4753169988
0.4911145246
0.5169259645
0.536763353
0.559763639
0.4047897958
0.4087009685
0.415675697
0.4172158351
0.4175900456
0.414857644
0.4151138789
0.4141163021
0.4125781597
0.4169354399
0.4130549849
0.4118766444
0.41706175
0.4153493145
0.4166532691
0.4157743602
0.4220349398
0.4158894083
0.4171177083
0.4107569288
0.4040593877
0.4064481071
0.4199579702
0.4210834384
0.4331454632
0.4267858565
0.4241511092
0.425477198
0.4301889115
0.4318230017
0.4304778414
0.4339543898
0.4457798274
0.4558202969
0.4677575754
0.4783317112
0.4867950134
0.498766955
0.5060860035
0.524099876
0.4144828161
0.4117854282
0.4117594568
0.4138924269
0.4133938481
0.4152478339
0.4203786358
0.4216197594
0.4187094584
0.4185994443