/*--------------------------------*- C++ -*----------------------------------*\
  =========                 |
  \\      /  F ield         | OpenFOAM: The Open Source CFD Toolbox
   \\    /   O peration     | Website:  https://openfoam.org
    \\  /    A nd           | Version:  7
     \\/     M anipulation  |
\*---------------------------------------------------------------------------*/
FoamFile
{
    version     2.0;
    format      ascii;
    class       volScalarField;
    location    "0.006";
    object      rhoM;
}
// * * * * * * * * * * * * * * * * * * * * * * * * * * * * * * * * * * * * * //

dimensions      [1 -3 0 0 0 0 0];

internalField   nonuniform List<scalar> 
2400
(
2.974446132e-06
2.974446132e-06
4.911449774e-06
4.496139531e-06
4.427198864e-06
4.427198864e-06
2.974446132e-06
3.458697042e-06
4.980390442e-06
2.143825645e-06
6.571024508e-06
4.911449774e-06
6.571024508e-06
5.395700685e-06
3.942947953e-06
6.086773598e-06
5.53358202e-06
2.628076555e-06
6.295261839e-06
1.937003643e-06
4.496139531e-06
4.634020865e-06
5.948892263e-06
6.364202506e-06
4.080829287e-06
3.942947953e-06
7.53952633e-06
2.974446132e-06
5.049331109e-06
4.427198864e-06
5.049331109e-06
3.596578377e-06
2.905505464e-06
5.049331109e-06
4.496139531e-06
5.53358202e-06
2.905505464e-06
8.092717908e-06
6.502083841e-06
8.992279062e-06
3.458697042e-06
5.464641352e-06
3.458697042e-06
4.980390442e-06
4.496139531e-06
5.187212443e-06
5.602522687e-06
2.628076555e-06
5.326760018e-06
4.427198864e-06
5.464641352e-06
6.01783293e-06
3.874007286e-06
8.092717908e-06
5.948892263e-06
6.639965176e-06
4.911449774e-06
4.980390442e-06
3.874007286e-06
4.01188862e-06
3.52763771e-06
5.53358202e-06
2.074884977e-06
6.433143174e-06
2.00594431e-06
5.948892263e-06
3.389756375e-06
4.911449774e-06
5.53358202e-06
4.911449774e-06
6.502083841e-06
3.458697042e-06
5.53358202e-06
1.086034204e-05
4.634020865e-06
6.917394084e-06
6.502083841e-06
2.905505464e-06
2.490195221e-06
6.917394084e-06
4.427198864e-06
6.639965176e-06
2.00594431e-06
6.01783293e-06
5.464641352e-06
5.049331109e-06
6.917394084e-06
5.948892263e-06
3.942947953e-06
5.671463354e-06
2.490195221e-06
5.879951596e-06
4.565080198e-06
2.490195221e-06
4.980390442e-06
7.53952633e-06
5.948892263e-06
6.502083841e-06
3.596578377e-06
4.496139531e-06
3.043386799e-06
3.942947953e-06
4.911449774e-06
5.395700685e-06
5.118271776e-06
5.118271776e-06
4.427198864e-06
5.049331109e-06
5.326760018e-06
4.496139531e-06
4.01188862e-06
4.911449774e-06
5.53358202e-06
5.948892263e-06
4.080829287e-06
4.911449774e-06
3.52763771e-06
5.395700685e-06
5.187212443e-06
5.049331109e-06
4.080829287e-06
4.01188862e-06
7.470585662e-06
5.464641352e-06
3.874007286e-06
2.559135888e-06
4.496139531e-06
5.395700685e-06
1.058291313e-05
7.608466997e-06
4.565080198e-06
3.458697042e-06
2.974446132e-06
4.496139531e-06
4.080829287e-06
4.980390442e-06
2.905505464e-06
4.842509107e-06
4.427198864e-06
4.565080198e-06
4.980390442e-06
4.01188862e-06
2.490195221e-06
3.389756375e-06
6.364202506e-06
5.53358202e-06
3.942947953e-06
3.458697042e-06
4.427198864e-06
5.049331109e-06
4.496139531e-06
6.433143174e-06
2.490195221e-06
4.980390442e-06
2.490195221e-06
6.086773598e-06
5.948892263e-06
3.52763771e-06
1.452752732e-06
5.464641352e-06
4.01188862e-06
4.01188862e-06
5.602522687e-06
5.464641352e-06
4.496139531e-06
3.52763771e-06
6.848453417e-06
4.565080198e-06
5.256153111e-06
5.948892263e-06
6.708905843e-06
2.974446132e-06
3.874007286e-06
7.332704328e-06
5.602522687e-06
2.490195221e-06
7.193156754e-06
6.364202506e-06
2.074884977e-06
2.974446132e-06
2.974446132e-06
5.53358202e-06
5.118271776e-06
3.942947953e-06
6.571024508e-06
3.043386799e-06
5.049331109e-06
7.954836573e-06
4.565080198e-06
4.842509107e-06
6.01783293e-06
3.389756375e-06
4.496139531e-06
4.565080198e-06
4.496139531e-06
6.086773598e-06
3.942947953e-06
4.565080198e-06
4.980390442e-06
5.53358202e-06
4.980390442e-06
2.974446132e-06
6.086773598e-06
4.496139531e-06
3.458697042e-06
6.502083841e-06
4.496139531e-06
6.086773598e-06
6.571024508e-06
4.358258196e-06
2.559135888e-06
2.559135888e-06
7.124216086e-06
1.521693399e-06
3.942947953e-06
6.639965176e-06
2.490195221e-06
5.602522687e-06
6.364202506e-06
6.01783293e-06
2.490195221e-06
4.980390442e-06
6.502083841e-06
3.458697042e-06
4.565080198e-06
2.490195221e-06
2.974446132e-06
4.358258196e-06
3.458697042e-06
3.942947953e-06
3.389756375e-06
3.942947953e-06
5.879951596e-06
4.565080198e-06
7.53952633e-06
4.496139531e-06
5.464641352e-06
3.52763771e-06
6.571024508e-06
7.470585662e-06
3.043386799e-06
4.911449774e-06
4.565080198e-06
3.043386799e-06
4.980390442e-06
4.080829287e-06
9.268041731e-06
4.427198864e-06
2.974446132e-06
4.565080198e-06
3.52763771e-06
2.490195221e-06
5.464641352e-06
2.559135888e-06
3.043386799e-06
3.874007286e-06
6.571024508e-06
3.596578377e-06
4.01188862e-06
4.427198864e-06
4.01188862e-06
5.049331109e-06
4.427198864e-06
4.980390442e-06
4.634020865e-06
5.326760018e-06
4.565080198e-06
6.502083841e-06
4.565080198e-06
4.911449774e-06
4.980390442e-06
4.911449774e-06
4.980390442e-06
6.917394084e-06
4.980390442e-06
4.427198864e-06
4.911449774e-06
4.980390442e-06
8.161658575e-06
5.53358202e-06
3.52763771e-06
4.427198864e-06
5.395700685e-06
4.080829287e-06
4.358258196e-06
6.086773598e-06
5.879951596e-06
6.295261839e-06
3.942947953e-06
4.080829287e-06
3.458697042e-06
6.639965176e-06
5.049331109e-06
4.149769955e-06
7.055275419e-06
3.942947953e-06
4.149769955e-06
1.452752732e-06
4.01188862e-06
7.954836573e-06
4.01188862e-06
3.043386799e-06
5.879951596e-06
5.53358202e-06
2.559135888e-06
4.565080198e-06
2.00594431e-06
7.055275419e-06
2.905505464e-06
6.986334752e-06
4.01188862e-06
5.395700685e-06
4.01188862e-06
4.980390442e-06
5.326760018e-06
5.53358202e-06
5.464641352e-06
4.427198864e-06
2.628076555e-06
6.917394084e-06
5.948892263e-06
4.427198864e-06
3.52763771e-06
6.433143174e-06
8.508028151e-06
2.490195221e-06
6.571024508e-06
6.571024508e-06
4.01188862e-06
3.52763771e-06
6.571024508e-06
2.905505464e-06
5.464641352e-06
4.496139531e-06
4.01188862e-06
4.080829287e-06
4.842509107e-06
4.496139531e-06
3.942947953e-06
6.433143174e-06
3.043386799e-06
4.634020865e-06
2.974446132e-06
2.421254554e-06
6.986334752e-06
4.01188862e-06
4.01188862e-06
5.602522687e-06
7.055275419e-06
2.490195221e-06
4.911449774e-06
2.974446132e-06
4.01188862e-06
4.911449774e-06
4.01188862e-06
5.118271776e-06
1.937003643e-06
3.458697042e-06
4.702961533e-06
4.496139531e-06
4.01188862e-06
3.942947953e-06
3.52763771e-06
5.049331109e-06
6.433143174e-06
4.565080198e-06
4.358258196e-06
4.080829287e-06
5.049331109e-06
6.01783293e-06
3.874007286e-06
6.433143174e-06
5.464641352e-06
5.187212443e-06
5.464641352e-06
5.464641352e-06
5.53358202e-06
5.464641352e-06
4.01188862e-06
4.565080198e-06
3.52763771e-06
6.01783293e-06
3.389756375e-06
5.464641352e-06
5.879951596e-06
4.496139531e-06
7.124216086e-06
3.596578377e-06
3.942947953e-06
6.433143174e-06
4.702961533e-06
3.942947953e-06
3.942947953e-06
4.565080198e-06
4.427198864e-06
7.885895906e-06
5.53358202e-06
5.879951596e-06
6.571024508e-06
5.395700685e-06
2.974446132e-06
5.464641352e-06
6.364202506e-06
6.708905843e-06
3.389756375e-06
3.874007286e-06
1.937003643e-06
3.389756375e-06
3.389756375e-06
6.639965176e-06
6.01783293e-06
3.942947953e-06
5.879951596e-06
6.01783293e-06
3.942947953e-06
5.395700685e-06
5.118271776e-06
4.634020865e-06
6.848453417e-06
3.389756375e-06
2.974446132e-06
5.118271776e-06
5.53358202e-06
4.358258196e-06
5.602522687e-06
3.043386799e-06
4.496139531e-06
4.980390442e-06
4.980390442e-06
4.01188862e-06
5.464641352e-06
2.974446132e-06
4.842509107e-06
2.697017223e-06
6.639965176e-06
5.395700685e-06
2.143825645e-06
3.52763771e-06
5.53358202e-06
4.565080198e-06
3.942947953e-06
1.937003643e-06
4.01188862e-06
4.911449774e-06
5.671463354e-06
3.942947953e-06
5.187212443e-06
6.01783293e-06
4.565080198e-06
5.326760018e-06
4.427198864e-06
6.364202506e-06
5.948892263e-06
2.628076555e-06
5.395700685e-06
6.224654932e-06
4.496139531e-06
4.01188862e-06
6.295261839e-06
5.809344689e-06
3.043386799e-06
5.53358202e-06
5.464641352e-06
4.565080198e-06
2.00594431e-06
5.948892263e-06
5.879951596e-06
4.565080198e-06
4.911449774e-06
6.708905843e-06
3.458697042e-06
5.049331109e-06
4.980390442e-06
3.942947953e-06
4.218710622e-06
6.01783293e-06
8.161658575e-06
3.596578377e-06
5.948892263e-06
5.53358202e-06
4.496139531e-06
4.980390442e-06
4.911449774e-06
7.608466997e-06
7.124216086e-06
3.942947953e-06
6.155714265e-06
3.874007286e-06
5.948892263e-06
5.53358202e-06
7.055275419e-06
3.52763771e-06
4.427198864e-06
4.634020865e-06
7.401644995e-06
7.53952633e-06
2.974446132e-06
6.433143174e-06
3.942947953e-06
7.53952633e-06
3.52763771e-06
3.043386799e-06
4.565080198e-06
4.496139531e-06
6.01783293e-06
4.980390442e-06
4.01188862e-06
5.948892263e-06
4.080829287e-06
2.00594431e-06
4.358258196e-06
6.224654932e-06
6.986334752e-06
4.080829287e-06
6.917394084e-06
5.464641352e-06
3.389756375e-06
5.948892263e-06
4.01188862e-06
3.043386799e-06
2.421254554e-06
7.954836573e-06
4.358258196e-06
7.401644995e-06
3.043386799e-06
7.055275419e-06
6.433143174e-06
1.937003643e-06
3.942947953e-06
2.421254554e-06
4.980390442e-06
3.942947953e-06
5.464641352e-06
4.496139531e-06
5.049331109e-06
4.842509107e-06
2.421254554e-06
3.942947953e-06
4.842509107e-06
3.043386799e-06
4.01188862e-06
3.458697042e-06
4.080829287e-06
3.596578377e-06
5.464641352e-06
4.01188862e-06
3.043386799e-06
3.596578377e-06
2.490195221e-06
5.602522687e-06
2.974446132e-06
4.149769955e-06
4.01188862e-06
3.52763771e-06
2.00594431e-06
3.043386799e-06
7.53952633e-06
3.942947953e-06
4.565080198e-06
5.395700685e-06
3.458697042e-06
6.01783293e-06
5.395700685e-06
4.496139531e-06
5.395700685e-06
5.326760018e-06
4.565080198e-06
4.911449774e-06
4.01188862e-06
8.02377724e-06
3.458697042e-06
5.53358202e-06
5.395700685e-06
5.948892263e-06
4.496139531e-06
7.470585662e-06
4.842509107e-06
3.52763771e-06
6.77951275e-06
1.037442489e-06
3.458697042e-06
4.218710622e-06
6.01783293e-06
3.458697042e-06
3.043386799e-06
4.080829287e-06
5.948892263e-06
3.942947953e-06
6.986334752e-06
2.974446132e-06
3.874007286e-06
6.571024508e-06
6.986334752e-06
5.118271776e-06
4.496139531e-06
1.937003643e-06
3.52763771e-06
5.464641352e-06
6.364202506e-06
3.52763771e-06
4.496139531e-06
3.942947953e-06
7.53952633e-06
4.427198864e-06
4.911449774e-06
5.602522687e-06
5.464641352e-06
5.53358202e-06
3.942947953e-06
5.464641352e-06
4.149769955e-06
4.427198864e-06
4.842509107e-06
1.452752732e-06
2.421254554e-06
5.049331109e-06
3.52763771e-06
8.02377724e-06
2.974446132e-06
5.53358202e-06
3.112327466e-06
3.942947953e-06
5.187212443e-06
5.049331109e-06
4.080829287e-06
5.464641352e-06
1.452752732e-06
4.565080198e-06
3.942947953e-06
6.502083841e-06
4.358258196e-06
4.496139531e-06
3.52763771e-06
6.639965176e-06
4.980390442e-06
4.565080198e-06
5.049331109e-06
4.080829287e-06
3.043386799e-06
3.043386799e-06
3.942947953e-06
5.464641352e-06
5.464641352e-06
2.905505464e-06
4.634020865e-06
7.954836573e-06
7.332704328e-06
6.639965176e-06
6.01783293e-06
5.049331109e-06
3.52763771e-06
6.01783293e-06
5.464641352e-06
2.490195221e-06
2.974446132e-06
4.358258196e-06
7.470585662e-06
3.665519044e-06
5.464641352e-06
4.01188862e-06
4.01188862e-06
4.565080198e-06
4.565080198e-06
4.565080198e-06
5.464641352e-06
6.086773598e-06
4.980390442e-06
2.974446132e-06
8.508028151e-06
7.746348332e-06
4.080829287e-06
4.358258196e-06
5.53358202e-06
3.942947953e-06
3.942947953e-06
5.948892263e-06
7.608466997e-06
2.559135888e-06
5.602522687e-06
5.879951596e-06
4.01188862e-06
5.464641352e-06
5.948892263e-06
5.948892263e-06
2.974446132e-06
7.470585662e-06
5.118271776e-06
4.980390442e-06
2.421254554e-06
6.848453417e-06
3.942947953e-06
4.634020865e-06
5.464641352e-06
4.565080198e-06
9.130160396e-06
7.332704328e-06
5.464641352e-06
5.395700685e-06
2.00594431e-06
4.911449774e-06
4.496139531e-06
3.043386799e-06
5.049331109e-06
5.049331109e-06
4.427198864e-06
2.421254554e-06
5.671463354e-06
2.490195221e-06
4.911449774e-06
4.496139531e-06
3.596578377e-06
7.401644995e-06
3.942947953e-06
9.685018214e-07
5.879951596e-06
2.905505464e-06
3.942947953e-06
4.01188862e-06
6.502083841e-06
3.458697042e-06
4.496139531e-06
4.496139531e-06
5.049331109e-06
2.905505464e-06
3.389756375e-06
5.53358202e-06
5.464641352e-06
2.559135888e-06
4.358258196e-06
5.464641352e-06
4.496139531e-06
5.53358202e-06
5.395700685e-06
2.905505464e-06
9.54547064e-06
3.596578377e-06
5.395700685e-06
5.948892263e-06
6.364202506e-06
2.628076555e-06
4.980390442e-06
4.911449774e-06
2.974446132e-06
6.571024508e-06
3.874007286e-06
4.149769955e-06
6.086773598e-06
2.559135888e-06
4.01188862e-06
4.980390442e-06
6.433143174e-06
5.049331109e-06
2.905505464e-06
3.52763771e-06
4.149769955e-06
4.427198864e-06
2.00594431e-06
6.848453417e-06
5.464641352e-06
4.080829287e-06
2.905505464e-06
4.565080198e-06
6.502083841e-06
3.043386799e-06
4.01188862e-06
2.974446132e-06
4.496139531e-06
4.427198864e-06
4.565080198e-06
6.364202506e-06
5.602522687e-06
4.080829287e-06
5.187212443e-06
3.112327466e-06
4.911449774e-06
2.974446132e-06
4.01188862e-06
4.427198864e-06
5.948892263e-06
4.565080198e-06
3.52763771e-06
4.01188862e-06
4.358258196e-06
5.53358202e-06
3.458697042e-06
3.874007286e-06
7.401644995e-06
3.52763771e-06
3.458697042e-06
6.155714265e-06
6.01783293e-06
2.00594431e-06
4.980390442e-06
4.427198864e-06
5.395700685e-06
4.980390442e-06
5.671463354e-06
3.52763771e-06
7.193156754e-06
5.811010928e-06
9.579321323e-06
1.56562286e-05
1.055707913e-05
1.6866804e-05
1.769822514e-05
1.358328014e-05
1.346358233e-05
1.902709306e-05
1.740283342e-05
1.604979993e-05
1.087730178e-05
1.425986416e-05
1.716340248e-05
1.424582807e-05
1.304921748e-05
1.206564133e-05
1.465116338e-05
1.075923529e-05
1.804411785e-05
1.715028673e-05
1.463198014e-05
1.037348057e-05
2.270881409e-05
1.638887172e-05
1.245411082e-05
1.607076562e-05
1.797686229e-05
1.225594072e-05
1.690763551e-05
1.194496583e-05
1.719806702e-05
1.188863227e-05
1.341332307e-05
9.85679463e-06
1.247617839e-05
1.194953298e-05
1.601582854e-05
1.281820659e-05
1.031131328e-05
1.031299299e-05
9.231723434e-06
6.778992087e-06
1.351156942e-05
7.65388687e-06
1.320340028e-05
8.840049881e-06
1.26665428e-05
1.538187442e-05
1.255681059e-05
1.612351583e-05
1.415534356e-05
8.556641684e-06
9.829710665e-06
9.903379457e-06
1.458474582e-05
1.245104697e-05
1.052140132e-05
1.586395434e-05
1.242636215e-05
1.044917336e-05
1.085427506e-05
1.086004249e-05
1.012921041e-05
1.177668867e-05
1.037742571e-05
1.540333483e-05
1.20700519e-05
1.421308815e-05
9.269569877e-06
1.419634299e-05
1.527750275e-05
1.364818273e-05
1.216959036e-05
1.164952782e-05
1.22959639e-05
1.4594883e-05
1.537143715e-05
1.216792665e-05
1.012445072e-05
1.28682358e-05
7.218665529e-06
6.43068772e-06
1.280844226e-05
5.528091704e-06
1.12032172e-05
9.343198445e-06
1.013288551e-05
1.326775297e-05
1.262999398e-05
1.072443859e-05
1.013294491e-05
1.163447442e-05
1.111448987e-05
9.903379457e-06
7.752291848e-06
1.562255104e-05
1.231349136e-05
1.225208244e-05
1.416747798e-05
1.858514162e-05
1.58377955e-05
1.10215791e-05
1.494857951e-05
1.383456539e-05
1.635523891e-05
1.012916967e-05
1.21541735e-05
8.596123684e-06
1.235942651e-05
8.136546882e-06
1.134936253e-05
8.718471744e-06
1.332479071e-05
1.281491233e-05
1.356182096e-05
1.067231592e-05
7.916175106e-06
1.13324917e-05
9.281311033e-06
6.906762324e-06
7.011110083e-06
8.596909375e-06
5.559959959e-06
7.51262242e-06
6.637264201e-06
1.265034531e-05
1.129237427e-05
1.151868021e-05
1.365809901e-05
1.109479974e-05
7.226184209e-06
9.306494751e-06
9.451084436e-06
1.256995625e-05
1.865029052e-05
1.624106303e-05
1.324931109e-05
1.358649341e-05
1.503898913e-05
1.738878873e-05
9.968977566e-06
1.061578547e-05
9.231651189e-06
1.22691508e-05
9.713446464e-06
1.339297682e-05
1.156328914e-05
1.29365985e-05
7.552523422e-06
1.506113454e-05
1.012699409e-05
1.074343963e-05
5.862394364e-06
1.774223032e-05
9.221428467e-06
1.496074388e-05
1.417439352e-05
7.430811985e-06
9.561604885e-06
8.137233213e-06
5.414835221e-06
5.661050824e-06
3.941580792e-06
5.953592166e-06
7.992136838e-06
8.768418837e-06
8.468408906e-06
9.987583008e-06
1.32172299e-05
1.294304222e-05
1.132463379e-05
1.118383938e-05
1.240109047e-05
7.618266509e-06
1.412205351e-05
1.376515208e-05
1.020883566e-05
9.109843738e-06
1.036781324e-05
1.30823026e-05
1.423133279e-05
1.458709704e-05
2.940865463e-06
1.18587657e-05
1.311809007e-05
1.138463522e-05
1.046564204e-05
1.251246876e-05
1.098661634e-05
9.348506096e-06
1.545152593e-05
1.311946909e-05
7.727993447e-06
1.326363528e-05
1.69967854e-05
7.936050012e-06
9.571914519e-06
1.058963429e-05
1.162386754e-05
9.744908045e-06
6.941924935e-06
5.591389951e-06
6.052657554e-06
1.226034543e-05
9.99060081e-06
1.272197634e-05
7.166381492e-06
8.456485797e-06
9.031626352e-06
1.383119633e-05
8.417873101e-06
1.283315457e-05
1.088840699e-05
9.218212594e-06
1.143719008e-05
7.888356652e-06
1.176790942e-05
1.303480445e-05
1.480043767e-05
1.363880725e-05
1.21402199e-05
1.69371862e-05
1.364196547e-05
1.06236429e-05
1.212112122e-05
1.339297682e-05
9.790636077e-06
1.336277844e-05
1.484842026e-05
1.047419469e-05
1.126235095e-05
8.277523542e-06
7.727993493e-06
1.890761484e-05
1.591114268e-05
1.733114888e-05
1.279387161e-05
1.216792666e-05
8.905327727e-06
1.097537887e-05
6.872739786e-06
5.032419321e-06
6.192943928e-06
3.118060528e-06
6.779520464e-06
6.755824553e-06
7.745254081e-06
8.966851542e-06
7.930337933e-06
1.16125927e-05
8.195104441e-06
1.088281337e-05
7.561596108e-06
9.445989849e-06
8.750477707e-06
7.888356652e-06
1.137767166e-05
1.641375152e-05
1.242636215e-05
1.15660256e-05
9.888848104e-06
1.288510637e-05
8.250706777e-06
1.622273395e-05
9.630699042e-06
1.23877978e-05
1.333594221e-05
1.012914136e-05
1.115770078e-05
1.194496593e-05
1.457930701e-05
9.157298803e-06
6.572793114e-06
1.16495279e-05
1.51881072e-05
8.574658633e-06
1.122987132e-05
1.430392151e-05
7.686204831e-06
1.154346405e-05
6.386771598e-06
3.00551942e-06
5.489816774e-06
6.236121047e-06
5.709160336e-06
7.76212169e-06
6.876073416e-06
3.717877171e-06
7.489468806e-06
5.325361345e-06
6.407571121e-06
8.481837173e-06
1.050978076e-05
1.036076907e-05
1.136069099e-05
9.589730374e-06
1.184558152e-05
1.185882965e-05
1.329596682e-05
1.531600706e-05
1.173763589e-05
1.150814101e-05
7.188344951e-06
1.12001658e-05
1.203837384e-05
1.682565812e-05
1.654272875e-05
6.04314437e-06
1.356115222e-05
1.064673593e-05
1.274575411e-05
8.10199263e-06
1.36789201e-05
1.442686114e-05
7.05232109e-06
1.496074374e-05
1.00328275e-05
1.095994414e-05
6.843065076e-06
1.513829642e-05
2.499026091e-06
5.032419321e-06
3.448883191e-06
5.173223469e-06
7.636496203e-06
3.162153511e-06
5.718328254e-06
6.78007157e-06
7.269918634e-06
9.985497935e-06
4.768550236e-06
9.306494758e-06
8.090944264e-06
7.542340759e-06
8.442632478e-06
1.245104697e-05
8.649761892e-06
8.088521572e-06
9.023012176e-06
1.252195502e-05
8.280448685e-06
1.596406238e-05
1.446007512e-05
1.37524884e-05
1.959438771e-05
1.247324299e-05
1.392682654e-05
1.37020823e-05
1.296028939e-05
9.954485673e-06
1.257173101e-05
1.047802226e-05
1.083732528e-05
1.156021494e-05
1.328932134e-05
1.131092445e-05
1.251865412e-05
1.263305163e-05
9.46817357e-06
8.893920168e-06
6.663512196e-06
4.193121554e-06
4.081867162e-06
5.102591246e-06
5.566904086e-06
6.68419351e-06
4.632724224e-06
8.966851542e-06
4.18560353e-06
4.289775436e-06
7.525003785e-06
4.80376038e-06
9.829710665e-06
7.846043784e-06
9.825162651e-06
9.202461757e-06
7.871163634e-06
8.325229964e-06
1.36133999e-05
8.694394329e-06
1.133698859e-05
7.779134372e-06
7.760234532e-06
1.276359666e-05
7.887003513e-06
1.389556634e-05
1.569947973e-05
1.089462515e-05
8.153386307e-06
1.436888434e-05
6.285865507e-06
1.540985435e-05
8.172795084e-06
1.209825075e-05
1.365192826e-05
1.039737091e-05
7.824435916e-06
1.281820661e-05
1.218671334e-05
6.812461308e-06
2.568211239e-06
4.543109563e-06
4.997119172e-06
6.165488829e-06
8.349496575e-06
5.677896364e-06
3.040388731e-06
4.811267153e-06
3.671551012e-06
5.843154299e-06
6.929159345e-06
5.254395398e-06
9.905071585e-06
6.01832043e-06
1.274137225e-05
7.657113286e-06
5.611163758e-06
8.088521609e-06
9.10189384e-06
1.044917334e-05
6.914374349e-06
8.26569629e-06
1.176346189e-05
8.976151294e-06
1.104140502e-05
1.557019255e-05
1.654272862e-05
1.557440366e-05
1.004151716e-05
1.047419464e-05
1.134936255e-05
9.422716225e-06
1.501118532e-05
9.588856013e-06
9.493927971e-06
9.76095974e-06
1.150508881e-05
9.846776827e-06
1.612437623e-05
1.447591075e-05
4.026115804e-06
7.128980101e-06
7.178339126e-06
6.661621505e-06
5.28067247e-06
6.252675983e-06
2.533657287e-06
5.75934014e-06
6.314997021e-06
6.878740238e-06
1.050422602e-05
6.604492569e-06
6.427538871e-06
8.684897249e-06
7.752291837e-06
7.580032115e-06
1.114465528e-05
9.031571441e-06
6.885581565e-06
6.86011473e-06
8.683032806e-06
9.967687028e-06
9.229683433e-06
6.834213813e-06
1.054492045e-05
1.079861688e-05
1.36724287e-05
1.106427705e-05
9.955974963e-06
1.237840411e-05
9.515809784e-06
1.144768392e-05
1.554451904e-05
9.767481747e-06
1.835274991e-05
9.760959826e-06
1.086069741e-05
7.523389476e-06
1.049817582e-05
1.078677693e-05
5.48402037e-06
8.666570265e-06
6.052657579e-06
5.243855691e-06
3.068824092e-06
1.50944571e-06
5.428020161e-06
7.290437242e-06
6.680913915e-06
4.289775436e-06
3.79962999e-06
5.929443938e-06
7.258330831e-06
5.636856611e-06
8.82697678e-06
6.574251559e-06
7.170237551e-06
5.732788463e-06
5.06558415e-06
9.252820455e-06
1.037156152e-05
9.725381967e-06
9.557320762e-06
1.152847388e-05
1.004643603e-05
1.397899508e-05
1.207005188e-05
1.123392896e-05
1.115770073e-05
1.108017434e-05
1.326992696e-05
1.091897049e-05
9.416527809e-06
1.406960968e-05
1.202346428e-05
1.112909259e-05
1.44518282e-05
1.263305163e-05
1.256043847e-05
7.474847246e-06
4.928867016e-06
8.527248444e-06
4.997119138e-06
6.165488808e-06
5.209544347e-06
5.174747783e-06
4.270274991e-06
8.89419301e-06
3.084315091e-06
5.325361307e-06
4.768550219e-06
5.478808951e-06
4.839494359e-06
6.627561523e-06
5.602921951e-06
5.568470904e-06
4.364655597e-06
4.554921855e-06
6.331503562e-06
1.204495102e-05
1.053182046e-05
1.118311569e-05
1.15172418e-05
8.894074202e-06
1.228661602e-05
1.213751129e-05
1.232241668e-05
1.404343617e-05
1.67365511e-05
1.445515487e-05
1.536451422e-05
1.118438781e-05
7.905058212e-06
1.236618935e-05
1.446507116e-05
1.678345623e-05
8.835783961e-06
1.402618891e-05
1.012445069e-05
1.362492274e-05
4.581269166e-06
7.968277887e-06
9.853951973e-07
4.1103259e-06
5.709160383e-06
4.528337157e-06
5.862610513e-06
3.645218672e-06
3.671551023e-06
8.505834972e-06
4.694294037e-06
5.779835001e-06
3.780798076e-06
4.799838227e-06
6.063765388e-06
6.109901815e-06
6.624655543e-06
7.303907819e-06
7.597422973e-06
6.939615341e-06
8.360578194e-06
7.050267603e-06
8.659761611e-06
1.325804252e-05
9.465204266e-06
8.454543476e-06
9.283873308e-06
8.000291866e-06
1.064238014e-05
6.838317042e-06
9.078648843e-06
1.012696065e-05
1.154772401e-05
1.51435227e-05
1.347171377e-05
1.176770132e-05
7.916175148e-06
1.4396499e-05
1.124788432e-05
1.409870675e-05
4.026115799e-06
3.005519426e-06
3.65931277e-06
3.969061455e-06
4.567672097e-06
4.599968201e-06
3.691402441e-06
5.176315808e-06
8.517573805e-06
2.588964772e-06
6.556083534e-06
4.353125325e-06
1.588044465e-06
4.418374381e-06
4.528237008e-06
6.186982941e-06
3.896745803e-06
7.303907819e-06
6.33150361e-06
5.105335716e-06
5.708558978e-06
8.913794743e-06
7.025510117e-06
8.399628413e-06
3.570138425e-06
9.040561828e-06
1.03815205e-05
7.489285972e-06
1.038575345e-05
1.056046537e-05
1.152338586e-05
1.426466183e-05
6.929062359e-06
1.613028147e-05
1.699678528e-05
1.012462318e-05
1.389917597e-05
1.467646899e-05
1.068729654e-05
1.078677703e-05
3.470962463e-06
5.171741046e-06
4.574564727e-06
4.606458551e-06
4.638800223e-06
3.522039987e-06
3.112529861e-06
7.508412904e-06
3.744734414e-06
6.582094954e-06
2.160609106e-06
3.752881303e-06
4.385507199e-06
4.418374381e-06
5.987266265e-06
3.944178308e-06
4.442327694e-06
5.654516176e-06
3.87854636e-06
7.019116059e-06
2.251371838e-06
6.888730997e-06
7.106927576e-06
8.563782455e-06
1.079316269e-05
9.626580102e-06
1.046564202e-05
4.936306679e-06
1.23594265e-05
1.575338473e-05
1.571466363e-05
7.661044412e-06
1.62549179e-05
1.344226111e-05
1.57309285e-05
1.77879258e-05
1.30690891e-05
1.003193181e-05
1.274955919e-05
1.353062165e-05
4.512083987e-06
5.871717105e-06
3.519026399e-06
5.598723907e-06
4.638800192e-06
4.025188556e-06
4.342416114e-06
4.665950111e-06
6.168630226e-06
5.325361345e-06
6.034495355e-06
4.427929867e-06
4.385507135e-06
5.485005058e-06
6.830605051e-06
3.867097212e-06
5.688835873e-06
5.182991277e-06
2.770390278e-06
5.105335676e-06
7.959930781e-06
5.915607107e-06
7.67881719e-06
5.434936989e-06
2.573169603e-06
2.427502277e-06
5.486202384e-06
8.596123642e-06
1.004151716e-05
1.263721604e-05
1.379409947e-05
6.252555683e-06
7.905058212e-06
6.900835539e-06
9.764249705e-06
1.596301579e-05
1.389917597e-05
1.003193181e-05
1.771722417e-05
1.230015085e-05
7.427893163e-06
3.634150931e-06
2.04093358e-06
6.661621532e-06
5.638032217e-06
4.599968169e-06
6.441483093e-06
5.248974363e-06
2.570262576e-06
2.662680691e-06
8.12084826e-06
7.73017614e-06
2.117392636e-06
3.960984779e-06
7.138450286e-06
4.408528048e-06
6.857671784e-06
4.476649654e-06
2.770390278e-06
6.860114678e-06
4.743132052e-06
5.915607107e-06
5.800313496e-06
1.070571994e-05
7.556013857e-06
6.863346063e-06
7.258855446e-06
8.085117819e-06
9.955974963e-06
4.414398588e-06
8.380453009e-06
1.391360011e-05
1.261439199e-05
9.94610748e-06
5.243642741e-06
1.213136474e-05
8.56056655e-06
1.068221176e-05
1.068729663e-05
1.040729399e-05
4.442898838e-06
6.080699725e-06
3.589169561e-06
6.165488808e-06
3.21108036e-06
2.515742865e-06
5.79046939e-06
5.759340096e-06
5.947311271e-06
4.73385249e-06
3.278041767e-06
6.15385747e-06
7.182969868e-06
5.560930854e-06
4.375238883e-06
3.790016086e-06
7.71581945e-06
8.40350219e-06
6.885581617e-06
4.4674089e-06
5.868817917e-06
7.617597768e-06
4.81936912e-06
2.306091523e-06
5.313833931e-06
5.274165168e-06
6.752092747e-06
9.191955559e-06
1.167302142e-05
8.309088138e-06
8.119418196e-06
1.074343968e-05
9.505060182e-06
1.04841433e-05
1.021696384e-05
1.213356221e-05
1.049374066e-05
1.049705669e-05
1.218671334e-05
1.551550043e-05
2.499026087e-06
5.38240731e-06
5.559959955e-06
9.567785401e-06
3.63956823e-06
2.227487409e-06
6.297200846e-06
4.738608664e-06
2.716629376e-06
1.035585909e-06
3.725373801e-06
5.404004479e-06
4.990216321e-06
3.199892151e-06
6.063765344e-06
5.49138982e-06
3.896745803e-06
3.298783115e-06
4.511506095e-06
4.546909599e-06
2.894344269e-06
7.050267603e-06
7.597399786e-06
3.210922512e-06
4.234117708e-06
5.021862172e-06
3.629427693e-06
1.787495511e-06
7.381438961e-06
6.75204634e-06
8.206429731e-06
1.276840735e-05
8.971726115e-06
8.423471509e-06
9.944464195e-06
7.479273191e-06
9.296697033e-06
7.338234495e-06
1.153043622e-05
1.211154881e-05
2.568211236e-06
2.725192268e-06
6.475211968e-06
5.669356168e-06
3.63956823e-06
6.755824535e-06
7.81739516e-06
4.738608631e-06
2.643445985e-06
4.216059536e-06
4.768550219e-06
5.4040044e-06
7.333691741e-06
6.551635767e-06
6.140264422e-06
5.027040039e-06
6.079073543e-06
6.439129954e-06
5.540780514e-06
4.147484779e-06
5.305974966e-06
3.7270545e-06
3.594172433e-06
7.164505574e-06
4.732602133e-06
6.779917324e-06
4.811196469e-06
6.127970373e-06
5.749934814e-06
5.712628509e-06
6.372877165e-06
7.573279141e-06
1.092585765e-05
5.646138217e-06
1.437496416e-05
1.322675016e-05
1.261039329e-05
1.01245093e-05
8.249050604e-06
8.325835191e-06
4.026115799e-06
4.053799817e-06
7.741179905e-06
2.551295614e-06
1.998463987e-06
2.587373891e-06
7.238522635e-06
7.290437293e-06
2.643445966e-06
2.736396573e-06
4.321218212e-06
6.454883523e-06
7.486235188e-06
6.475710058e-06
2.302368043e-06
2.784235452e-06
4.910237584e-06
3.455327518e-06
3.878546389e-06
5.025835013e-06
4.743132015e-06
4.052079843e-06
6.125983154e-06
7.164505631e-06
5.97781318e-06
3.599538932e-06
4.895318031e-06
4.25564888e-06
6.780576137e-06
6.059796086e-07
3.841128555e-06
3.96217034e-06
7.283191849e-06
8.423471509e-06
8.951106684e-06
5.838392668e-06
1.003282768e-05
1.588445141e-05
8.249050678e-06
9.556306112e-06
2.984994295e-06
3.984138943e-06
5.207548727e-06
7.157754165e-06
4.638800192e-06
5.749527436e-06
4.777006477e-06
4.228242898e-06
3.817917805e-06
5.9905861e-06
4.39547446e-06
5.628417973e-06
4.385507167e-06
5.636856611e-06
3.914395458e-06
6.186982941e-06
3.35116382e-06
2.748985908e-06
3.324468334e-06
4.626410228e-06
2.894344246e-06
4.538641796e-06
5.228423928e-06
5.270782947e-06
3.570138425e-06
4.771575665e-06
5.57032403e-06
5.447312573e-06
6.265255452e-06
1.116644489e-05
6.897049736e-06
4.490884e-06
7.106127104e-06
5.108102349e-06
1.148282091e-05
6.4770012e-06
8.744044799e-06
9.196496872e-06
6.749633796e-06
1.106967993e-05
4.581269135e-06
3.564490058e-06
5.700246325e-06
3.472928749e-06
3.568440103e-06
5.103116739e-06
8.830858128e-06
2.114121464e-06
3.744734387e-06
5.177929508e-06
5.960239096e-06
6.905518554e-06
3.251449917e-06
7.770118045e-06
6.140264422e-06
3.867097183e-06
3.896745774e-06
1.805935961e-06
3.324468334e-06
3.430057365e-06
5.145716067e-06
4.700178328e-06
5.391258692e-06
1.729568642e-06
7.140276907e-06
6.61305957e-06
5.57032394e-06
8.169943705e-06
4.806903081e-06
6.146066782e-06
4.976485485e-06
7.485513676e-06
7.550928657e-06
9.67816888e-06
7.775356866e-06
1.094726092e-05
8.56056655e-06
1.216792666e-05
1.153043622e-05
8.231534149e-06
6.594327035e-06
3.984138917e-06
3.166615147e-06
4.180958123e-06
4.0680561e-06
5.677896352e-06
5.790469349e-06
6.342364303e-06
4.846022808e-06
2.218603618e-06
4.246961997e-06
4.953369373e-06
8.846375232e-06
7.009025365e-06
3.914395487e-06
5.181202367e-06
5.533491677e-06
3.926852502e-06
2.770390278e-06
4.546909564e-06
6.351531447e-06
7.536829524e-06
5.718896139e-06
3.046768445e-06
6.060560594e-06
4.688146816e-06
8.524745823e-06
4.851480726e-06
5.578850366e-06
3.116168688e-06
6.19885385e-06
4.31535316e-06
5.773862007e-06
8.244845776e-06
7.23253558e-06
5.290699971e-06
6.81087055e-06
8.45363935e-06
6.749633796e-06
8.231534224e-06
6.177543995e-06
8.107599579e-06
3.659312746e-06
5.031959041e-06
5.709160344e-06
5.174747783e-06
7.310663759e-06