/*--------------------------------*- C++ -*----------------------------------*\
  =========                 |
  \\      /  F ield         | OpenFOAM: The Open Source CFD Toolbox
   \\    /   O peration     | Website:  https://openfoam.org
    \\  /    A nd           | Version:  7
     \\/     M anipulation  |
\*---------------------------------------------------------------------------*/
FoamFile
{
    version     2.0;
    format      ascii;
    class       volScalarField;
    location    "0.006";
    object      rhoMMean;
}
// * * * * * * * * * * * * * * * * * * * * * * * * * * * * * * * * * * * * * //

dimensions      [1 -3 0 0 0 0 0];

internalField   nonuniform List<scalar> 
2400
(
3.668894707e-06
4.750711727e-06
4.771040824e-06
4.735720152e-06
4.759400265e-06
4.725781796e-06
4.730346321e-06
4.71185842e-06
4.696866845e-06
4.714710744e-06
4.7291912e-06
4.730204552e-06
4.747477278e-06
4.720381652e-06
4.74925231e-06
4.731312601e-06
4.740698876e-06
4.862564801e-06
5.141348988e-06
6.468863257e-06
3.704014666e-06
4.740856753e-06
4.76354816e-06
4.775853479e-06
4.809420433e-06
4.805751026e-06
4.799980422e-06
4.807151154e-06
4.846874933e-06
4.829867763e-06
4.809969182e-06
4.785043138e-06
4.772708729e-06
4.794270218e-06
4.759984212e-06
4.828467636e-06
4.852008201e-06
4.915756796e-06
5.266959578e-06
6.209048237e-06
3.724524827e-06
4.786927516e-06
4.813898244e-06
4.788976644e-06
4.778905405e-06
4.766984085e-06
4.761421969e-06
4.72962838e-06
4.706183624e-06
4.723664839e-06
4.752395393e-06
4.743634027e-06
4.779418191e-06
4.785270163e-06
4.824858283e-06
4.841712922e-06
4.876389036e-06
4.998546484e-06
5.243770381e-06
5.748119336e-06
3.739519734e-06
4.7803676e-06
4.812740694e-06
4.831413548e-06
4.82649821e-06
4.828575316e-06
4.829970237e-06
4.863541634e-06
4.867547413e-06
4.858111845e-06
4.829264168e-06
4.822973905e-06
4.831117026e-06
4.811791284e-06
4.793205908e-06
4.816079491e-06
4.851934261e-06
4.94100123e-06
5.133657139e-06
5.463506365e-06
3.722798533e-06
4.782884108e-06
4.785236422e-06
4.792798929e-06
4.798426653e-06
4.810441005e-06
4.786750895e-06
4.780846297e-06
4.787214943e-06
4.793739451e-06
4.815085787e-06
4.861339074e-06
4.841642315e-06
4.835954537e-06
4.797077693e-06
4.81582171e-06
4.851966892e-06
4.910617418e-06
5.048386351e-06
5.233493084e-06
3.730665892e-06
4.799657588e-06
4.843555228e-06
4.787730713e-06
4.773787689e-06
4.781669697e-06
4.76366438e-06
4.74690555e-06
4.74722283e-06
4.739710727e-06
4.713129552e-06
4.737822461e-06
4.780478613e-06
4.821196652e-06
4.842110806e-06
4.868533897e-06
4.855095882e-06
4.887704331e-06
4.957890513e-06
5.064647184e-06
3.730735388e-06
4.744562123e-06
4.815349678e-06
4.816065953e-06
4.842435307e-06
4.795541906e-06
4.826486338e-06
4.87151112e-06
4.852216689e-06
4.814057231e-06
4.819104896e-06
4.790230351e-06
4.79076445e-06
4.762973863e-06
4.77409032e-06
4.756678046e-06
4.803306792e-06
4.832316997e-06
4.887606856e-06
4.992867036e-06
3.712680778e-06
4.771535627e-06
4.766850647e-06
4.737726652e-06
4.759193443e-06
4.746674637e-06
4.749157056e-06
4.71650709e-06
4.753057932e-06
4.794263553e-06
4.788107284e-06
4.805177076e-06
4.825579556e-06
4.793159392e-06
4.82935831e-06
4.868576524e-06
4.839338739e-06
4.838228468e-06
4.873113626e-06
4.911762333e-06
3.730868826e-06
4.837225669e-06
4.831641683e-06
4.82400857e-06
4.807754194e-06
4.84418458e-06
4.877546934e-06
4.878452049e-06
4.874528194e-06
4.856333481e-06
4.845192378e-06
4.821772823e-06
4.812943628e-06
4.800571034e-06
4.787450299e-06
4.754068853e-06
4.790406208e-06
4.868582634e-06
4.903843807e-06
4.957356414e-06
3.728791719e-06
4.797023402e-06
4.852268412e-06
4.888354651e-06
4.886769015e-06
4.837681386e-06
4.815575592e-06
4.804623329e-06
4.783666547e-06
4.762433446e-06
4.761579845e-06
4.80518263e-06
4.802087729e-06
4.81296883e-06
4.812136543e-06
4.861543118e-06
4.852441492e-06
4.839692884e-06
4.886728054e-06
4.88322173e-06
3.717056463e-06
4.747116815e-06
4.745503201e-06
4.746518774e-06
4.727168941e-06
4.788010919e-06
4.751971752e-06
4.775862574e-06
4.760410839e-06
4.785215872e-06
4.802001015e-06
4.78273012e-06
4.784068527e-06
4.81397385e-06
4.825725769e-06
4.765752595e-06
4.804534185e-06
4.838803876e-06
4.837926184e-06
4.881043608e-06
3.717892637e-06
4.811106321e-06
4.827888131e-06
4.798899796e-06
4.835517912e-06
4.821271146e-06
4.787927885e-06
4.805680419e-06
4.7952617e-06
4.799389601e-06
4.805144098e-06
4.801129433e-06
4.815729233e-06
4.832790695e-06
4.849529877e-06
4.857852398e-06
4.820868819e-06
4.804843689e-06
4.80219541e-06
4.826870892e-06
3.691833898e-06
4.761918439e-06
4.800419268e-06
4.760619883e-06
4.778996771e-06
4.790084138e-06
4.816672533e-06
4.85137496e-06
4.890589842e-06
4.855266949e-06
4.878336038e-06
4.867820954e-06
4.878097349e-06
4.865025351e-06
4.827997478e-06
4.837955482e-06
4.842794659e-06
4.846675887e-06
4.883197639e-06
4.901664226e-06
3.75383433e-06
4.803927813e-06
4.822308034e-06
4.85110975e-06
4.835502708e-06
4.838843727e-06
4.842990164e-06
4.823949071e-06
4.789737005e-06
4.8194798e-06
4.793537073e-06
4.802929458e-06
4.75538428e-06
4.763568363e-06
4.780421892e-06
4.805901127e-06
4.802163335e-06
4.806722861e-06
4.836625962e-06
4.84771444e-06
3.704993373e-06
4.771506538e-06
4.796748194e-06
4.78183278e-06
4.79539736e-06
4.761786112e-06
4.746962063e-06
4.737947915e-06
4.735641561e-06
4.703552006e-06
4.715375296e-06
4.778199684e-06
4.780712304e-06
4.796669048e-06
4.81573812e-06
4.810588537e-06
4.837681386e-06
4.81174088e-06
4.810128377e-06
4.816546316e-06
3.7139508e-06
4.768238347e-06
4.787904905e-06
4.78538562e-06
4.747936883e-06
4.77754013e-06
4.805486025e-06
4.812766104e-06
4.817793565e-06
4.820643113e-06
4.814036681e-06
4.786620998e-06
4.801656312e-06
4.836722534e-06
4.7768233e-06
4.778786061e-06
4.751812556e-06
4.76606321e-06
4.835374477e-06
4.810493283e-06
3.69050049e-06
4.731274972e-06
4.753981584e-06
4.741252623e-06
4.779708602e-06
4.789671605e-06
4.800985442e-06
4.804540503e-06
4.852993018e-06
4.823823062e-06
4.780429321e-06
4.773160558e-06
4.747220608e-06
4.765220162e-06
4.763189572e-06
4.785138392e-06
4.814974218e-06
4.778342008e-06
4.759072779e-06
4.770685915e-06
3.745327413e-06
4.776631474e-06
4.805014548e-06
4.809675993e-06
4.79524483e-06
4.768459055e-06
4.753839051e-06
4.736407684e-06
4.669259891e-06
4.72104676e-06
4.743361597e-06
4.80268577e-06
4.809787561e-06
4.800424266e-06
4.808056269e-06
4.810985865e-06
4.765815426e-06
4.838415642e-06
4.831549763e-06
4.848883654e-06
3.702742422e-06
4.771768762e-06
4.80356735e-06
4.817683455e-06
4.774512851e-06
4.784959549e-06
4.780205628e-06
4.819322479e-06
4.809760138e-06
4.829639072e-06
4.824338624e-06
4.792545035e-06
4.777672805e-06
4.777877405e-06
4.80653402e-06
4.827557522e-06
4.853476158e-06
4.806785692e-06
4.792788931e-06
4.766486852e-06
3.755212588e-06
4.846993722e-06
4.864693631e-06
4.853204491e-06
4.838610245e-06
4.844443681e-06
4.820568965e-06
4.841741457e-06
4.822577131e-06
4.837496989e-06
4.820943314e-06
4.833557373e-06
4.834227132e-06
4.820022994e-06
4.815650642e-06
4.794781337e-06
4.788556682e-06
4.806395028e-06
4.813429545e-06
4.792630291e-06
3.724463106e-06
4.737069668e-06
4.766979434e-06
4.774518405e-06
4.792138612e-06
4.803081988e-06
4.779860925e-06
4.798185743e-06
4.815528521e-06
4.790371565e-06
4.834592594e-06
4.816654552e-06
4.797053047e-06
4.81496922e-06
4.810929352e-06
4.771959477e-06
4.791001681e-06
4.785171022e-06
4.809844283e-06
4.807218983e-06
3.706500973e-06
4.7618747e-06
4.793893648e-06
4.765137892e-06
4.760576699e-06
4.777616291e-06
4.776077172e-06
4.776544552e-06
4.752249528e-06
4.728195622e-06
4.732212509e-06
4.742924973e-06
4.762892495e-06
4.783733821e-06
4.824660903e-06
4.83312186e-06
4.866651185e-06
4.837373548e-06
4.794271329e-06
4.780297549e-06
3.731698336e-06
4.776857944e-06
4.817554113e-06
4.793297273e-06
4.80586315e-06
4.799223741e-06
4.803560685e-06
4.834052941e-06
4.86489712e-06
4.837830584e-06
4.857358705e-06
4.856534194e-06
4.812474026e-06
4.781740304e-06
4.77265666e-06
4.718409241e-06
4.69602213e-06
4.721320856e-06
4.756943047e-06
4.753140202e-06
3.727366946e-06
4.793483892e-06
4.797149411e-06
4.817716641e-06
4.863001981e-06
4.877482992e-06
4.866409163e-06
4.814859317e-06
4.804392416e-06
4.813794451e-06
4.829150933e-06
4.802340511e-06
4.778385192e-06
4.795628828e-06
4.789497761e-06
4.816727936e-06
4.808516984e-06
4.813264795e-06
4.785578904e-06
4.74215885e-06
3.716576655e-06
4.766511498e-06
4.80925124e-06
4.797263757e-06
4.757214367e-06
4.770901831e-06
4.74263588e-06
4.770492075e-06
4.746120334e-06
4.783456947e-06
4.76945741e-06
4.77999103e-06
4.780520131e-06
4.807792934e-06
4.787764247e-06
4.778049028e-06
4.763159926e-06
4.761382673e-06
4.794997254e-06
4.823727253e-06
3.713111293e-06
4.777895942e-06
4.771135522e-06
4.725697096e-06
4.733101518e-06
4.733742187e-06
4.771265974e-06
4.764043172e-06
4.795395694e-06
4.751290121e-06
4.746198162e-06
4.749309934e-06
4.73736841e-06
4.729208974e-06
4.75168745e-06
4.753739354e-06
4.772179629e-06
4.804298829e-06
4.815022401e-06
4.825256722e-06
3.719296652e-06
4.753937845e-06
4.788271478e-06
4.783061285e-06
4.80657276e-06
4.78423161e-06
4.736015007e-06
4.71570667e-06
4.714391798e-06
4.725944324e-06
4.73574591e-06
4.73533171e-06
4.768161075e-06
4.794354919e-06
4.794678864e-06
4.817433102e-06
4.815936611e-06
4.830118324e-06
4.794292088e-06
4.80617078e-06
3.721577249e-06
4.803859983e-06
4.832236392e-06
4.823798416e-06
4.83790008e-06
4.873755406e-06
4.862550916e-06
4.847196656e-06
4.862639504e-06
4.888275157e-06
4.883875382e-06
4.844998539e-06
4.839216617e-06
4.845278745e-06
4.862062222e-06
4.851067886e-06
4.856834047e-06
4.824092715e-06
4.81384784e-06
4.820444622e-06
3.720173233e-06
4.766322658e-06
4.829171691e-06
4.823827505e-06
4.807640403e-06
4.806484727e-06
4.844870655e-06
4.881924285e-06
4.85887408e-06
4.851081216e-06
4.838164526e-06
4.878331594e-06
4.869802807e-06
4.83715895e-06
4.77912278e-06
4.754797e-06
4.769851406e-06
4.770494852e-06
4.788273699e-06
4.778951921e-06
3.714201361e-06
4.790122115e-06
4.845463489e-06
4.823949627e-06
4.848141969e-06
4.870599687e-06
4.853592517e-06
4.845280203e-06
4.852609574e-06
4.869420475e-06
4.868360608e-06
4.837234556e-06
4.812832614e-06
4.81349071e-06
4.828275463e-06
4.850804898e-06
4.86422271e-06
4.800101432e-06
4.787350603e-06
4.798812318e-06
3.729346577e-06
4.774114966e-06
4.790206815e-06
4.785641179e-06
4.78926296e-06
4.737177348e-06
4.762349509e-06
4.751311435e-06
4.739068947e-06
4.744054336e-06
4.720740796e-06
4.770814354e-06
4.796828799e-06
4.80992822e-06
4.827170746e-06
4.834780879e-06
4.845544857e-06
4.886076832e-06
4.899398835e-06
4.905748388e-06
3.718393759e-06
4.775429282e-06
4.79352652e-06
4.747557327e-06
4.774781393e-06
4.817582092e-06
4.780093504e-06
4.764485351e-06
4.782000862e-06
4.795624941e-06
4.813843189e-06
4.778478223e-06
4.809004012e-06
4.826646644e-06
4.837087233e-06
4.817530022e-06
4.821841764e-06
4.851196673e-06
4.858096085e-06
4.842345052e-06
3.736934286e-06
4.815061696e-06
4.84547425e-06
4.820984831e-06
4.81948945e-06
4.826889429e-06
4.853889802e-06
4.845250002e-06
4.819312829e-06
4.815674178e-06
4.830748787e-06
4.821867521e-06
4.803448561e-06
4.82406675e-06
4.852478913e-06
4.862532726e-06
4.824298218e-06
4.811338345e-06
4.820719066e-06
4.831146116e-06
3.72201054e-06
4.740750391e-06
4.815500542e-06
4.811419713e-06
4.825273038e-06
4.807639848e-06
4.777458207e-06
4.763227201e-06
4.788933461e-06
4.820063956e-06
4.816748139e-06
4.79283878e-06
4.794614922e-06
4.804523077e-06
4.766873628e-06
4.764644546e-06
4.797226127e-06
4.796949809e-06
4.761628027e-06
4.740136035e-06
3.733457052e-06
4.792858427e-06
4.796818801e-06
4.825828451e-06
4.78156035e-06
4.788382491e-06
4.824602723e-06
4.826819933e-06
4.843397699e-06
4.850508932e-06
4.833489543e-06
4.829197449e-06
4.804231555e-06
4.803089972e-06
4.804747881e-06
4.799920576e-06
4.817170878e-06
4.80549623e-06
4.794459267e-06
4.81767922e-06
3.744358911e-06
4.822589906e-06
4.831444304e-06
4.814980328e-06
4.803518057e-06
4.797797856e-06
4.788428451e-06
4.798407214e-06
4.748996195e-06
4.709706263e-06
4.754986604e-06
4.750564404e-06
4.803985645e-06
4.810105397e-06
4.786100228e-06
4.771901089e-06
4.77695042e-06
4.761317065e-06
4.778745655e-06
4.755617623e-06
3.726719611e-06
4.786081692e-06
4.81263211e-06
4.800994884e-06
4.829955241e-06
4.787465504e-06
4.777714322e-06
4.800476336e-06
4.835903577e-06
4.866447348e-06
4.837921949e-06
4.830053479e-06
4.784361716e-06
4.753443597e-06
4.76164955e-06
4.763703676e-06
4.787679199e-06
4.795054531e-06
4.800109416e-06
4.802092936e-06
3.727019465e-06
4.780429876e-06
4.777225628e-06
4.829497858e-06
4.83131885e-06
4.860069052e-06
4.884354426e-06
4.855317908e-06
4.824521355e-06
4.754152443e-06
4.792867314e-06
4.80436777e-06
4.809301089e-06
4.825617741e-06
4.803487301e-06
4.805837948e-06
4.796432581e-06
4.755825e-06
4.737745189e-06
4.731040171e-06
3.717544601e-06
4.769808223e-06
4.793720915e-06
4.767148835e-06
4.75276141e-06
4.740838424e-06
4.716121424e-06
4.754977509e-06
4.76604634e-06
4.806306995e-06
4.775184831e-06
4.787983843e-06
4.759542381e-06
4.77447411e-06
4.777564013e-06
4.750537328e-06
4.781801816e-06
4.845671977e-06
4.858967667e-06
4.84753282e-06
3.650535245e-06
4.696711537e-06
4.724997692e-06
4.703192307e-06
4.715735204e-06
4.728075722e-06
4.752839793e-06
4.741499088e-06
4.746270435e-06
4.74545613e-06
4.784997178e-06
4.780803114e-06
4.816238686e-06
4.795446653e-06
4.807459894e-06
4.803863316e-06
4.78862118e-06
4.73314359e-06
4.713367686e-06
4.707675464e-06
1.169125992e-05
1.350769393e-05
1.445166158e-05
1.465514978e-05
1.445695078e-05
1.46376073e-05
1.467572415e-05
1.491790937e-05
1.49154229e-05
1.496273442e-05
1.467697283e-05
1.459389666e-05
1.493049349e-05
1.469161671e-05
1.458623127e-05
1.464451102e-05
1.484155545e-05
1.467074319e-05
1.433233371e-05
1.41881498e-05
1.389266143e-05
1.399194143e-05
1.414517703e-05
1.388571922e-05
1.416360598e-05
1.441360335e-05
1.396730921e-05
1.379103377e-05
1.369570982e-05
1.34641674e-05
1.364429624e-05
1.36326608e-05
1.340597256e-05
1.338813049e-05
1.323129715e-05
1.289752166e-05
1.224702779e-05
1.170071769e-05
1.065266988e-05
8.800501219e-06
7.948984378e-06
9.429115201e-06
1.061052111e-05
1.151037947e-05
1.194641866e-05
1.249682701e-05
1.270906676e-05
1.292979441e-05
1.310952516e-05
1.325682221e-05
1.310993621e-05
1.311767197e-05
1.334281793e-05
1.341722697e-05
1.328449545e-05
1.314559627e-05
1.313334211e-05
1.311669483e-05
1.285615808e-05
1.298718418e-05
1.295633816e-05
1.276655102e-05
1.296880582e-05
1.270375564e-05
1.290789171e-05
1.285208717e-05
1.259424214e-05
1.261765377e-05
1.250996113e-05
1.263879938e-05
1.252254264e-05
1.253052288e-05
1.246441466e-05
1.239620471e-05
1.20594174e-05
1.177780131e-05
1.149194604e-05
1.076965311e-05
9.703234655e-06
8.30302592e-06
6.640238043e-06
7.742723816e-06
8.608762383e-06
9.60642539e-06
1.035230461e-05
1.089297171e-05
1.130187604e-05
1.169842977e-05
1.198962922e-05
1.228596844e-05
1.226335073e-05
1.253228622e-05
1.272876329e-05
1.256319816e-05
1.257491766e-05
1.268085561e-05
1.270353788e-05
1.226499033e-05
1.240265906e-05
1.225923392e-05
1.233686819e-05
1.21143273e-05
1.22277001e-05
1.218884963e-05
1.235381337e-05
1.212253709e-05
1.199710813e-05
1.191025462e-05
1.195396329e-05
1.192830084e-05
1.194033054e-05
1.170101432e-05
1.177876701e-05
1.148423048e-05
1.160773501e-05
1.139265233e-05
1.073454806e-05
1.021455436e-05
9.556944133e-06
8.347721167e-06
6.002429565e-06
6.467598376e-06
7.281052695e-06
8.01040226e-06
8.711297414e-06
9.418234236e-06
1.010216953e-05
1.063749532e-05
1.082817689e-05
1.123266785e-05
1.159054432e-05
1.177450996e-05
1.193129176e-05
1.20654218e-05
1.215718268e-05
1.216470013e-05
1.219916391e-05
1.222839126e-05
1.218793438e-05
1.196815068e-05
1.195717685e-05
1.200289151e-05
1.19692046e-05
1.189188076e-05
1.191157619e-05
1.171757077e-05
1.176944187e-05
1.172351596e-05
1.17079204e-05
1.159654033e-05
1.146586373e-05
1.151245262e-05
1.15305833e-05
1.133526408e-05
1.117743635e-05
1.097705158e-05
1.062309154e-05
1.016298117e-05
9.445980335e-06
8.411502113e-06
5.592752947e-06
5.943110505e-06
6.444541458e-06
6.95045104e-06
7.593439476e-06
8.263905742e-06
8.897504235e-06
9.538971529e-06
1.00667234e-05
1.03785238e-05
1.080929752e-05
1.11655864e-05
1.142414373e-05
1.172213751e-05
1.186726057e-05
1.196141097e-05
1.210583162e-05
1.207427338e-05
1.184911657e-05
1.192505803e-05
1.189193314e-05
1.186475602e-05
1.187018851e-05
1.17914027e-05
1.18202053e-05
1.169249691e-05
1.148659778e-05
1.157964049e-05
1.161253293e-05
1.137568591e-05
1.14275362e-05
1.139588901e-05
1.124859414e-05
1.099810819e-05
1.07786942e-05
1.07275565e-05
1.039715374e-05
9.955986586e-06
9.473185021e-06
8.637965123e-06
5.23615806e-06
5.510443596e-06
5.845449782e-06
6.329138492e-06
6.694278373e-06
7.154520193e-06
7.895197251e-06
8.397328957e-06
9.038213373e-06
9.576715288e-06
9.897655612e-06
1.042686882e-05
1.080807463e-05
1.101484614e-05
1.142654838e-05
1.153641895e-05
1.187035438e-05
1.190536063e-05
1.186594648e-05
1.197859512e-05
1.205422573e-05
1.184226166e-05
1.19220713e-05
1.176140737e-05
1.185523336e-05
1.178535331e-05
1.183123169e-05
1.149127737e-05
1.14271983e-05
1.150005206e-05
1.138463047e-05
1.124700093e-05
1.114226763e-05
1.11479965e-05
1.096262005e-05
1.060951556e-05
1.029185464e-05
1.007197731e-05
9.577179177e-06
8.990506973e-06
5.149013897e-06
5.36534105e-06
5.546790346e-06
5.874940661e-06
6.171863564e-06
6.526483303e-06
7.026228953e-06
7.473048504e-06
8.103903436e-06
8.539650972e-06
9.058947043e-06
9.512749696e-06
9.967276366e-06
1.042872352e-05
1.08115836e-05
1.10363676e-05
1.128443057e-05
1.154508141e-05
1.182826282e-05
1.179168114e-05
1.182426765e-05
1.16424583e-05
1.161900983e-05
1.161796833e-05
1.17158298e-05
1.17630909e-05
1.176414924e-05
1.172931257e-05
1.148101265e-05
1.141966483e-05
1.145207786e-05
1.146207835e-05
1.114619181e-05
1.096088819e-05
1.094078264e-05
1.075511767e-05
1.050997508e-05
1.02586139e-05
9.781320404e-06
9.21484382e-06
5.011902797e-06
5.154650024e-06
5.313806402e-06
5.516540309e-06
5.740821306e-06
6.005263868e-06
6.386147355e-06
6.810772246e-06
7.26786235e-06
7.765235746e-06
8.235332391e-06
8.736918521e-06
9.159758614e-06
9.648138328e-06
1.012430748e-05
1.048883754e-05
1.078979213e-05
1.10764391e-05
1.126584151e-05
1.142704979e-05
1.153307189e-05
1.167404007e-05
1.180190947e-05
1.182467952e-05
1.161885887e-05
1.16573313e-05
1.172525667e-05
1.180498726e-05
1.177509716e-05
1.149773242e-05
1.147300577e-05
1.15721273e-05
1.130822994e-05
1.111305222e-05
1.093340654e-05
1.079282963e-05
1.061614907e-05
1.024454529e-05
9.908265105e-06
9.637583866e-06
5.012886438e-06
5.058985719e-06
5.148173615e-06
5.336031524e-06
5.586432665e-06
5.826073077e-06
6.065276348e-06
6.281324468e-06
6.577145054e-06
6.914702952e-06
7.378897993e-06
7.890002789e-06
8.394621928e-06
8.833923662e-06
9.309664564e-06
9.82627652e-06
1.022369387e-05
1.049120802e-05
1.08801223e-05
1.117646089e-05
1.139567912e-05
1.153827272e-05
1.166726962e-05
1.169660756e-05
1.171791359e-05
1.167058488e-05
1.159420851e-05
1.176468281e-05
1.185845873e-05
1.181117001e-05
1.165371924e-05
1.169222601e-05
1.14456387e-05
1.121310151e-05
1.11434233e-05
1.096313733e-05
1.070161015e-05
1.05184255e-05
1.018279218e-05
9.732794882e-06
4.943434098e-06
5.064029015e-06
5.144587275e-06
5.237193643e-06
5.359149429e-06
5.473016001e-06
5.613020889e-06
5.870206761e-06
6.172185536e-06
6.429910371e-06
6.757151588e-06
7.207308944e-06
7.700443414e-06
8.024443314e-06
8.385423256e-06
8.904462089e-06
9.357393561e-06
9.873034761e-06
1.022907987e-05
1.046822042e-05
1.079457534e-05
1.109159423e-05
1.124012902e-05
1.148531244e-05
1.168543414e-05
1.171802868e-05
1.171711052e-05
1.172789013e-05
1.169263867e-05
1.182216401e-05
1.153963433e-05
1.14608422e-05
1.155970513e-05
1.144760364e-05
1.131958487e-05
1.121286357e-05
1.095596146e-05
1.077168059e-05
1.051944305e-05
1.00997435e-05
4.91121827e-06
4.997176321e-06
5.040688403e-06
5.079922215e-06
5.112540621e-06
5.25792276e-06
5.359232191e-06
5.613260549e-06
5.812367641e-06
6.026973693e-06
6.323473003e-06
6.561549911e-06
6.971523611e-06
7.42541049e-06
7.727239511e-06
8.225965629e-06
8.686318738e-06
9.060022932e-06
9.486693066e-06
9.93732109e-06
1.021020224e-05
1.063979131e-05
1.096020279e-05
1.130133056e-05
1.156222666e-05
1.168616348e-05
1.168981435e-05
1.149209183e-05
1.154570344e-05
1.161424236e-05
1.165374921e-05
1.173933278e-05
1.168569222e-05
1.157127777e-05
1.151785129e-05
1.140584658e-05
1.111693367e-05
1.09039301e-05
1.066898946e-05
1.042511412e-05
4.834687303e-06
4.824923365e-06
4.86764312e-06
4.922690119e-06
4.996534872e-06
5.085742726e-06
5.161414351e-06
5.299548319e-06
5.442583271e-06
5.640943072e-06
5.867385288e-06
6.1672205e-06
6.422772916e-06
6.781088344e-06
7.227933562e-06
7.595071551e-06
7.935025929e-06
8.367156647e-06
8.75381177e-06
9.247615675e-06
9.68789938e-06
1.005991101e-05
1.038706101e-05
1.070342178e-05
1.103789112e-05
1.125908902e-05
1.143991222e-05
1.155628757e-05
1.159365635e-05
1.177663517e-05
1.181725198e-05
1.171085019e-05
1.161937985e-05
1.160598603e-05
1.152037377e-05
1.149717576e-05
1.136401596e-05
1.105744344e-05
1.095906009e-05
1.078949922e-05
4.897545529e-06
4.924699141e-06
4.925225041e-06
4.947338207e-06
5.020275314e-06
5.136959705e-06
5.234439519e-06
5.274708686e-06
5.400561141e-06
5.490624153e-06
5.653410094e-06
5.824420665e-06
6.002864618e-06
6.238987007e-06
6.496617777e-06
6.815644805e-06
7.191469176e-06
7.604811464e-06
8.128055782e-06
8.561713339e-06
9.051803257e-06
9.432339359e-06
9.860347889e-06
1.026052682e-05
1.051138375e-05
1.087651086e-05
1.126749962e-05
1.149222023e-05
1.166182125e-05
1.171381859e-05
1.180682997e-05
1.204064758e-05
1.186147409e-05
1.164714568e-05
1.15440833e-05
1.150002178e-05
1.156455629e-05
1.146216426e-05
1.120306412e-05
1.089878075e-05
4.849239369e-06
4.863525066e-06
4.918105277e-06
4.98159432e-06
4.996297782e-06
4.994250537e-06
5.062630368e-06
5.148118485e-06
5.203058922e-06
5.221858245e-06
5.294828249e-06
5.465247864e-06
5.667681063e-06
5.884583884e-06
6.060239298e-06
6.351024493e-06
6.680924977e-06
7.059386669e-06
7.39398688e-06
7.904606648e-06
8.302820355e-06
8.776680655e-06
9.177407484e-06
9.609814831e-06
1.000947968e-05
1.038001746e-05
1.066179766e-05
1.096236622e-05
1.112874595e-05
1.139808687e-05
1.166013154e-05
1.157650312e-05
1.170984194e-05
1.178771334e-05
1.163328167e-05
1.162474144e-05
1.160044662e-05
1.162572238e-05
1.152403942e-05
1.137609882e-05
4.855653147e-06
4.884423862e-06
4.894825967e-06
4.850244881e-06
4.910517008e-06
4.919603954e-06
4.95101973e-06
5.001690603e-06
5.03206674e-06
5.115084921e-06
5.260061721e-06
5.354950422e-06
5.444767547e-06
5.603060321e-06
5.795695743e-06
6.024143047e-06
6.248243026e-06
6.543740888e-06
6.838957558e-06
7.171181961e-06
7.549381249e-06
7.946769412e-06
8.308444041e-06
8.748190014e-06
9.215898473e-06
9.593737275e-06
1.003292431e-05
1.031540458e-05
1.076174157e-05
1.11153579e-05
1.123494711e-05
1.160776202e-05
1.172360155e-05
1.173415314e-05
1.180913418e-05
1.171489998e-05
1.173757488e-05
1.157553644e-05
1.150993244e-05
1.124038852e-05
4.791062682e-06
4.782242936e-06
4.79961203e-06
4.830661403e-06
4.835882797e-06
4.870577302e-06
4.867907635e-06
4.894970389e-06
5.009275864e-06
5.062151337e-06
5.129164576e-06
5.166169147e-06
5.272969632e-06
5.391541486e-06
5.508954889e-06
5.679077083e-06
5.900491011e-06
6.091224068e-06
6.388173364e-06
6.613192232e-06
6.904528108e-06
7.311631439e-06
7.749861643e-06
8.120337999e-06
8.569332522e-06
9.069989107e-06
9.460927921e-06
9.895597092e-06
1.017412463e-05
1.056488394e-05
1.085136649e-05
1.110162911e-05
1.145961888e-05
1.174196005e-05
1.175521256e-05
1.169560363e-05
1.171445974e-05
1.16827022e-05
1.15904638e-05
1.162772741e-05
4.78789821e-06
4.806701657e-06
4.812621795e-06
4.840085615e-06
4.86338997e-06
4.871730867e-06
4.924524831e-06
4.932655278e-06
4.953068697e-06
4.989224189e-06
5.012306679e-06
5.076971547e-06
5.155596374e-06
5.308176305e-06
5.409229211e-06
5.510691188e-06
5.639112661e-06
5.816185238e-06
6.005839869e-06
6.292937696e-06
6.565129795e-06
6.815993324e-06
7.202591057e-06
7.542154733e-06
7.957594057e-06
8.296566724e-06
8.667699782e-06
9.156763723e-06
9.640152471e-06
9.963378153e-06
1.044674474e-05
1.073626112e-05
1.105018768e-05
1.144558121e-05
1.168130305e-05
1.181579866e-05
1.176475619e-05
1.178427183e-05
1.180267917e-05
1.160691044e-05
4.832513364e-06
4.809508889e-06
4.835256141e-06
4.844771241e-06
4.84108407e-06
4.854755896e-06
4.853083217e-06
4.867344454e-06
4.8644683e-06
4.90491547e-06
4.933643284e-06
5.010809179e-06
5.070601958e-06
5.126946763e-06
5.161714169e-06
5.222894679e-06
5.357914173e-06
5.514954719e-06
5.640480845e-06
5.818962056e-06
6.014724563e-06
6.30665941e-06
6.515132186e-06
6.882532629e-06
7.278514171e-06
7.652731552e-06
8.149079864e-06
8.492068765e-06
9.005290739e-06
9.466027013e-06
9.805394998e-06
1.019398054e-05
1.054423195e-05
1.087572203e-05
1.129647304e-05
1.150458341e-05
1.172835966e-05
1.175973143e-05
1.173582706e-05
1.180433223e-05
4.824750377e-06
4.822186397e-06
4.812855073e-06
4.808441203e-06
4.812370259e-06
4.829233027e-06
4.863437428e-06
4.880998548e-06
4.850235312e-06
4.916276217e-06
4.946460595e-06
5.001040373e-06
4.997859502e-06
5.036258492e-06
5.113718971e-06
5.206012476e-06
5.246783234e-06
5.336480974e-06
5.415601256e-06
5.588994337e-06
5.772924855e-06
5.989051522e-06
6.235857161e-06
6.519216837e-06
6.794055004e-06
7.142734154e-06
7.604471455e-06
8.011911569e-06
8.345148402e-06
8.747255863e-06
9.274778958e-06
9.741149082e-06
1.007876315e-05
1.041139298e-05
1.066626243e-05
1.10100556e-05
1.127809462e-05
1.148041358e-05
1.153666094e-05
1.161916198e-05
4.817541155e-06
4.836960815e-06
4.822334928e-06
4.829503727e-06
4.813336398e-06
4.821469568e-06
4.840267777e-06
4.880186207e-06
4.927285001e-06
4.89428197e-06
4.874425898e-06
4.908574428e-06
4.900700059e-06
4.939965977e-06
4.994596768e-06
5.04048363e-06
5.124381434e-06
5.248581411e-06
5.342712307e-06
5.446431953e-06
5.539840368e-06
5.676493565e-06
5.843599969e-06
6.025888811e-06
6.330803148e-06
6.569496268e-06
6.852831457e-06
7.194077646e-06
7.573780874e-06
8.043037374e-06
8.471430169e-06
8.905266974e-06
9.362270214e-06
9.738823469e-06
1.014913586e-05
1.052590848e-05
1.080905472e-05
1.111971564e-05
1.133842995e-05
1.133070643e-05
4.786917356e-06
4.781421214e-06
4.782106999e-06
4.81167108e-06
4.812954756e-06
4.785786599e-06
4.793251307e-06
4.788264726e-06
4.76416055e-06
4.79746419e-06
4.865007209e-06
4.864831714e-06
4.92718048e-06
4.957905635e-06
4.973391156e-06
5.033562941e-06
5.090240323e-06
5.103359204e-06
5.158874372e-06
5.205824475e-06
5.339357406e-06
5.454026307e-06
5.604355955e-06
5.763876937e-06
5.967591547e-06
6.243327309e-06
6.48414662e-06
6.81907421e-06
7.187663482e-06
7.480434785e-06
7.885770329e-06
8.341242966e-06
8.755168801e-06
9.177778479e-06
9.58235512e-06
9.989055971e-06
1.038131021e-05
1.071970294e-05
1.097665472e-05
1.119857187e-05
4.773001874e-06
4.776483921e-06
4.797895008e-06
4.793820546e-06
4.796058996e-06
4.799180017e-06
4.820508703e-06
4.803881152e-06
4.794862862e-06
4.820909929e-06
4.830262369e-06
4.867598807e-06
4.873877288e-06
4.880136445e-06
4.916631074e-06
4.953955566e-06
4.995183914e-06
5.065561143e-06
5.139727143e-06
5.183469217e-06
5.303782985e-06
5.406383742e-06
5.470709243e-06
5.515390196e-06
5.728647429e-06
5.907495371e-06
6.08783741e-06
6.285792689e-06
6.567495309e-06
6.931694432e-06
7.272267932e-06
7.589421964e-06
8.035719422e-06
8.497649921e-06
8.97524424e-06
9.39267735e-06
9.77902699e-06
1.011064365e-05
1.048479369e-05
1.089835521e-05
4.764006342e-06
4.77650079e-06
4.710902837e-06
4.684238782e-06
4.717241654e-06
4.757208986e-06
4.788067825e-06
4.783617693e-06
4.837369038e-06
4.850544612e-06
4.899905875e-06
4.889356409e-06
4.864046434e-06
4.898563119e-06
4.895082061e-06
4.899153137e-06
4.927707157e-06
4.951044101e-06
4.986498822e-06
5.047243589e-06
5.073710298e-06
5.130557917e-06
5.26437336e-06
5.408223605e-06
5.471027518e-06
5.653629775e-06
5.800431465e-06
5.998340855e-06
6.282892048e-06
6.511780334e-06
6.81559972e-06
7.181085551e-06
7.49012624e-06
7.872185816e-06
8.320965489e-06
8.752577367e-06
9.08030614e-06
9.611120592e-06
9.984125844e-06
1.033847603e-05
4.756776003e-06
4.812267053e-06
4.830264287e-06
4.824755435e-06
4.846634929e-06
4.843414781e-06
4.841734646e-06
4.872244184e-06
4.804614898e-06
4.797590613e-06
4.771092762e-06
4.772941079e-06
4.832367549e-06
4.839616747e-06
4.8489109e-06
4.871332787e-06
4.928347541e-06
4.929240093e-06
4.946593128e-06
4.982444143e-06
5.068937267e-06
5.179117357e-06
5.220273087e-06
5.310147847e-06
5.368390142e-06
5.440950864e-06
5.61551656e-06
5.750735178e-06
5.855885888e-06
6.067610225e-06
6.31828079e-06
6.626933895e-06
6.922080873e-06
7.301048743e-06
7.719787533e-06
8.170223242e-06
8.678575464e-06
9.032399494e-06
9.472465387e-06
9.892241292e-06
4.808997381e-06
4.773875985e-06
4.792904105e-06
4.829462899e-06
4.823543821e-06
4.816033871e-06
4.797084086e-06
4.756297831e-06
4.802136873e-06
4.802161558e-06
4.800926079e-06
4.814239271e-06
4.836189516e-06
4.841880451e-06
4.85096713e-06
4.869961669e-06
4.965168809e-06
4.975736183e-06
5.020257309e-06
5.054380513e-06
5.041086346e-06
5.064916266e-06
5.106662645e-06
5.086761637e-06
5.193534815e-06
5.259066731e-06
5.405318786e-06
5.538032731e-06
5.668508413e-06
5.76149987e-06
5.980795074e-06
6.179554526e-06
6.452412213e-06
6.788369413e-06
7.122383783e-06
7.541879324e-06
8.017939379e-06
8.461182859e-06
8.854836729e-06
9.236566777e-06
4.833688397e-06
4.802687002e-06
4.792610535e-06
4.749798605e-06
4.726481219e-06
4.680653579e-06
4.74160811e-06
4.743992938e-06
4.761862351e-06
4.804129726e-06
4.853453789e-06
4.825646886e-06
4.818493659e-06
4.835387961e-06
4.89348879e-06
4.84680744e-06
4.851366238e-06
4.895757206e-06
4.903857226e-06
4.890067254e-06
4.922739395e-06
4.984005457e-06
4.962377108e-06
5.048395631e-06
5.129967843e-06
5.145907301e-06
5.206391619e-06
5.262776659e-06
5.387501596e-06
5.52251467e-06
5.69984502e-06
5.949525477e-06
6.250054369e-06
6.407380242e-06
6.651179698e-06
6.964345878e-06
7.28002961e-06
7.733912391e-06
8.144872374e-06
8.67402266e-06
4.786048256e-06
4.796754604e-06
4.788509807e-06
4.83205278e-06
4.842043008e-06