/*--------------------------------*- C++ -*----------------------------------*\
  =========                 |
  \\      /  F ield         | OpenFOAM: The Open Source CFD Toolbox
   \\    /   O peration     | Website:  https://openfoam.org
    \\  /    A nd           | Version:  7
     \\/     M anipulation  |
\*---------------------------------------------------------------------------*/
FoamFile
{
    version     2.0;
    format      ascii;
    class       volVectorField;
    location    "0.006";
    object      UMean;
}
// * * * * * * * * * * * * * * * * * * * * * * * * * * * * * * * * * * * * * //

dimensions      [0 1 -1 0 0 0 0];

internalField   nonuniform List<vector> 
2400
(
(2.446056769 9.545799031 -17.60815481)
(11.55361783 10.4037324 -4.787185382)
(10.71850334 14.14250961 0.1285888971)
(11.39140457 0.2742083493 1.046494978)
(17.41238384 3.225741641 19.1517864)
(18.31941339 18.21749898 4.12261517)
(15.34046867 12.52605391 1.941249678)
(5.211734761 16.04806431 8.676808139)
(5.975926106 16.01232783 9.525974523)
(1.072963567 15.92751594 6.132545129)
(9.926997188 12.74164937 -1.475593406)
(13.14297628 15.24278547 -1.002167199)
(18.52391497 12.81995944 -0.3126791707)
(8.549426819 14.37600097 19.80507501)
(11.07738526 18.05312696 8.459015817)
(21.39674232 11.48118188 6.941197757)
(25.46802321 19.20514611 10.03473581)
(24.46026286 26.57874405 -1.808411473)
(29.79585036 22.05430793 -4.788759715)
(31.28808701 26.64366052 -0.1387661797)
(14.35476931 17.51599509 -12.7635123)
(16.63402684 16.51887216 7.503689358)
(21.35220153 17.29742575 5.574412497)
(24.30766944 6.812094368 -1.360330901)
(17.32517232 14.33209096 3.895828892)
(19.31934226 22.0668271 12.18556163)
(21.12658576 20.5228527 1.519975804)
(26.52240989 27.65138892 9.665906139)
(20.91943455 25.8827706 2.745355771)
(23.2926808 20.50057796 7.222580715)
(16.86789717 14.42913043 2.491714493)
(21.33630098 24.30537858 9.242167867)
(24.53273587 15.79963243 10.10463665)
(28.31408783 28.05857185 4.73215146)
(24.16437039 14.54076443 2.681106671)
(28.69711109 15.80814219 8.411490387)
(22.04547866 26.01789828 3.6727276)
(33.72745596 26.47645996 -14.32570002)
(45.74956877 27.86776834 3.386387439)
(51.76089968 39.40432257 -0.9152768102)
(7.031189502 11.50939751 -3.991674905)
(14.02698709 21.9979465 2.037182657)
(20.54111285 10.4027489 5.999407082)
(19.12596079 15.40047739 1.817207156)
(20.98061094 16.34701704 4.833529263)
(24.01369154 14.82373145 -2.369035901)
(29.85371408 19.77403213 0.5591368224)
(24.19768238 26.30354811 9.426461813)
(24.9328537 25.66992853 8.233729841)
(28.40540652 23.70837665 4.422944009)
(32.07896464 18.44592537 8.64348562)
(33.48643486 16.7434785 16.39785482)
(24.03653031 18.52672801 5.384794911)
(31.75490786 24.15044624 2.280821224)
(36.67839472 14.50604633 2.879482292)
(39.11507173 18.4319436 2.79053764)
(42.96985353 24.56074302 -17.38671661)
(41.86859635 24.78912132 -1.421130226)
(47.34615143 26.59447473 -4.595180504)
(53.21708983 29.32587512 -11.96909421)
(7.344679792 18.82561236 1.683911052)
(21.76167894 6.920993047 -2.230021653)
(22.60244409 13.24000742 1.416060535)
(16.41797976 15.52268831 14.0880499)
(15.15989702 14.09529573 0.1628463168)
(10.52010374 20.79924657 3.856146173)
(8.330994958 21.49871263 -2.471525433)
(20.23498403 16.36422661 6.034563125)
(28.0354539 23.43411827 3.400506686)
(29.28537626 26.17153366 7.615552464)
(29.55182513 9.822184053 1.405768739)
(35.08176276 20.16867727 5.758301826)
(29.13797143 28.20870558 10.91906601)
(28.15540543 18.41083332 -7.609551339)
(38.99614482 8.407831652 -3.106589097)
(38.14097318 18.85871895 4.356319143)
(47.55815233 18.36565232 3.333653303)
(50.47460567 27.75141109 3.627669775)
(48.48304841 15.24560559 -3.621819186)
(55.6524521 28.43468904 -11.34970092)
(15.49154559 14.19638864 7.196550416)
(20.97552102 6.828027051 0.8102778132)
(18.83868509 19.19708398 -0.8388570236)
(20.76370789 20.74945243 1.934822801)
(16.48535825 15.42183842 8.986799811)
(17.25495047 15.82526207 -3.545764969)
(15.90528499 24.38271501 -0.7038141708)
(14.03574922 9.321730416 -0.03681075331)
(21.35609244 23.19005485 -3.999460381)
(27.88709826 15.31009451 5.372646892)
(31.76285225 15.81001175 7.954906949)
(30.19002505 15.20026314 9.402621507)
(40.71303828 29.67797374 -1.750305158)
(37.7086357 15.75247521 -2.454022184)
(47.28393683 8.743802644 9.247995851)
(44.6264968 18.41695286 9.129475362)
(34.02893821 14.45853777 4.99182261)
(43.09096442 26.08699623 -8.112409598)
(52.91827294 16.70005524 -2.903935421)
(60.11680814 22.89121824 -6.986877115)
(18.03798336 5.297263948 16.55379864)
(26.60577777 15.08699808 -5.286966787)
(27.18794204 12.69710446 8.781200152)
(22.09510296 22.59550663 11.11417331)
(20.5811771 20.08768736 9.044558224)
(18.52871624 15.65194516 -0.8034661652)
(20.20621707 18.69644616 0.5682528379)
(21.4249011 15.66667451 4.268136615)
(24.36928281 12.57988942 3.692222156)
(30.0407142 7.62718407 6.487073362)
(33.7172265 19.59939207 7.263253957)
(28.08796865 12.80123481 3.316004882)
(33.80655159 19.57506021 1.047189928)
(44.01849174 9.824061385 1.307110115)
(43.08074707 13.27894649 8.113838297)
(43.42770123 18.23524813 6.549433245)
(43.03464191 23.46176144 12.57357526)
(41.29468064 20.77023955 -2.913015789)
(40.70628134 18.68788163 -2.792730892)
(38.97051836 18.46698252 6.638778947)
(3.73363572 3.457584402 -3.66211114)
(12.95487514 8.11587047 -0.5980494716)
(16.80812506 21.42484928 0.121556492)
(18.73869985 21.21615964 7.940125833)
(27.07714208 14.98814313 8.615509883)
(29.42679026 16.82533382 5.822046933)
(27.41170733 22.7084381 3.892947371)
(26.14926555 9.58327234 14.5367124)
(30.14190767 8.941910642 -0.1101591434)
(31.90384111 10.72950981 -8.808445833)
(31.84048224 15.68432462 -3.572258757)
(38.34069579 19.35794396 3.340073475)
(33.74783758 16.53231205 -7.081323834)
(36.49950828 7.680290085 -9.066688854)
(36.34969555 11.23084865 -11.3010271)
(42.85740412 19.79680521 4.533609891)
(46.75433017 23.697637 -4.85448692)
(47.24307582 17.90476317 -3.706296826)
(48.22933787 20.62270901 6.243689784)
(49.7050874 12.58379235 -5.25722339)
(13.37482917 1.545294257 -6.707188735)
(22.98076326 10.00320864 -1.818779308)
(16.51933273 14.29188812 2.691972842)
(24.33883701 12.50489871 7.825702331)
(29.34211669 19.5694378 10.43441653)
(20.20876295 19.61398286 0.5678767161)
(29.14280838 13.74301652 -13.78183576)
(38.47865008 13.42042001 -7.803433627)
(28.80064691 7.259669346 -5.320669749)
(31.07898541 11.68759376 -15.82479176)
(31.65028925 16.03104472 -10.5005258)
(31.72336903 13.08325102 -2.558346596)
(36.77441493 14.96877011 7.418271996)
(35.87896756 15.39805818 -10.6611292)
(33.93885263 8.779771267 6.048177746)
(38.37380676 14.0628386 -3.085682988)
(43.04440381 15.38406251 -1.767163446)
(50.65459414 19.52201434 4.380414534)
(50.78985793 27.12118694 -1.379152186)
(51.51096041 17.00154116 3.213592583)
(12.4898406 -0.4830340505 0.2968773895)
(13.75353789 8.724645696 9.562627526)
(26.35718688 15.70617382 0.5296232761)
(28.28960256 4.480860674 5.064907904)
(33.91428086 17.83490652 5.714043683)
(34.38057666 19.7800242 1.734922495)
(35.74702299 12.61288053 -5.288515849)
(34.97169048 11.93549537 0.3023318512)
(37.17891111 8.743548852 -16.02153859)
(33.73703225 16.64247683 -30.71021027)
(35.87416876 9.758107097 -4.992352014)
(34.51676705 16.25037831 0.9980965449)
(31.30366605 12.44824385 2.790767043)
(37.32257995 16.73364158 -5.281270375)
(41.02952205 9.696612493 -5.257727028)
(35.45595379 14.56033202 0.7193097593)
(38.71795367 14.8707695 -3.932703715)
(44.76026729 15.33286741 1.206082031)
(56.84533739 23.08302115 0.1801323944)
(61.96535005 10.40882144 0.6229879554)
(4.257721583 0.06167241323 -0.5593439414)
(12.92411295 5.294100101 0.6287471376)
(17.79062179 7.886143435 -9.641282827)
(23.39960062 0.3138125466 0.7236945347)
(21.40378257 18.47939146 11.30518937)
(29.02943385 19.40355451 9.274414011)
(32.13110376 9.119078713 8.0500291)
(33.95205103 8.048508931 5.287603434)
(40.61386082 8.791102737 -6.432930604)
(35.78750499 21.16066668 -5.020355061)
(33.57059739 7.789131596 3.195635027)
(33.32953764 19.77112596 9.248762457)
(30.52844333 14.10897471 13.02795483)
(35.41607623 10.59680299 -4.312751785)
(38.44257345 11.18973586 -0.1248354996)
(43.84799266 9.495099724 8.735094398)
(53.50207961 3.183869326 2.991656366)
(60.09264101 16.62279978 -4.802296563)
(58.29336826 15.50689784 -0.9758917571)
(58.40464502 11.93677706 3.988362885)
(15.74512361 -0.6246189041 0.1714715611)
(28.40770886 4.111533519 5.447743403)
(26.4608289 2.849534094 4.502842916)
(19.6235887 7.425209528 -8.627642886)
(23.93773825 9.856498277 2.081387559)
(29.25279238 12.95841405 2.498639599)
(29.74946596 10.17925746 6.935158551)
(34.61297626 3.381165423 2.314097944)
(27.13625839 12.58540635 -3.960366858)
(33.1142819 19.31344355 -16.39882364)
(40.83820138 5.204712745 3.53386594)
(38.36990848 19.22407893 9.642484775)
(39.93420093 19.53602834 30.94604966)
(40.19959225 10.74977269 12.25290765)
(50.32190844 4.995837854 -2.019761967)
(46.80841027 13.09896989 -2.148143015)
(42.16927857 2.104015526 -2.516935876)
(46.01329829 5.81388116 3.824255425)
(52.37788154 21.19680853 1.260100286)
(52.91726614 8.390576815 -4.148681483)
(17.14284785 -3.730069443 0.5656462579)
(19.76500042 2.766578877 4.001967525)
(24.89230953 5.387265288 0.32318429)
(17.4661279 12.40124604 -8.123047826)
(17.05916052 5.239279683 0.3621837057)
(24.5541541 2.798761283 2.051273227)
(33.21872969 8.645356448 -1.808306569)
(30.19107171 8.484218024 -1.012232143)
(34.25316337 9.644830645 7.603551608)
(44.97900989 10.87554065 -7.337589322)
(34.77814954 9.715020623 0.6250768364)
(37.11145059 20.22799528 -4.745340953)
(41.21608818 14.82611532 2.482606567)
(48.25425375 6.994772092 1.613119282)
(46.57398197 -1.282924791 6.79190604)
(54.50800737 13.5062723 -17.3024241)
(58.09222954 6.684376088 -1.26230473)
(49.45427271 6.004977748 -4.482266377)
(57.09410385 18.9558547 -3.657509984)
(58.26195252 8.416186166 8.299879771)
(14.85397682 -0.9942695418 2.716457372)
(25.52174751 -0.2500719783 6.150612577)
(21.03906615 12.15859953 -2.063595148)
(25.46910875 6.671790728 -11.18317691)
(31.18894071 3.986340921 -11.38434527)
(32.44008841 3.06064293 -4.185083914)
(33.1235318 5.084660933 5.358309029)
(36.85201032 3.161725161 -5.077545356)
(42.02653812 5.908852308 8.352857514)
(42.5783189 8.745673851 -1.933621254)
(35.16055424 17.38343916 -5.469790343)
(41.4345266 14.92880794 3.460038645)
(50.11380602 4.964451268 -2.256283059)
(55.73348632 7.905314648 -2.282995215)
(48.47268956 0.9758396343 -0.7800088945)
(50.74088867 19.30068575 -0.04550827544)
(48.52498034 9.078875404 -0.1000832618)
(45.28150082 7.118937889 -4.099709798)
(48.18918586 4.46235223 -8.290312907)
(52.77200557 10.29672624 -8.064272614)
(14.09224709 -5.165076851 2.700440717)
(23.03964299 0.1839499824 4.196978814)
(32.92474016 3.553884081 0.219680651)
(45.10740686 8.527228626 -10.58584822)
(40.29371906 0.2199848904 -13.03712577)
(37.68201612 2.32461188 0.4115872761)
(33.66995761 6.993582524 -11.54221825)
(41.0738478 -2.539644172 -1.483047747)
(36.50060664 4.000521376 -2.311369223)
(32.62286885 14.14336102 -5.173204484)
(39.54970214 14.33158428 -2.041416458)
(38.02922409 11.13791095 12.8371873)
(36.78930904 10.00486993 2.694679573)
(42.58024362 -3.86955824 7.795281122)
(49.82031257 6.226093529 -10.01762331)
(46.46446794 15.76750407 -0.638336696)
(48.86022336 9.846417533 -15.66387334)
(52.45602112 8.473668267 -6.366733687)
(43.08107161 10.87234008 -13.59548486)
(37.03585726 6.871874448 -6.529085404)
(12.82933702 -6.077441052 -16.92124734)
(26.32881729 -7.932429639 -8.728183225)
(30.6049448 -1.001455253 -7.012758283)
(24.89731554 5.546355673 -4.167463949)
(27.28763619 4.04506891 0.3957075317)
(31.04261257 -1.56258423 -4.04657587)
(40.73368256 10.43233204 -14.3083076)
(30.31902968 5.929811061 -8.743909937)
(26.67891546 7.040434551 -14.39569295)
(23.41921789 8.063393144 -14.49410385)
(37.6690864 10.67813618 -5.749832427)
(39.28573217 12.05561395 -6.273129145)
(42.71599112 10.87237962 1.481236355)
(42.34345557 -1.82144308 4.236724562)
(34.63923017 6.306061146 -1.01101209)
(41.36259155 4.968722879 -9.08818004)
(47.1816153 12.56475587 -18.13822342)
(47.97712202 10.17876729 -13.1034451)
(46.64958342 12.53282801 -0.6020920578)
(54.46718413 11.02632454 1.567273971)
(10.35980418 -3.733861717 6.176753894)
(15.54178313 -9.960439276 0.6507113935)
(17.49596231 -5.127316467 2.837345483)
(23.64026602 9.88432532 -1.134586474)
(25.42089342 -3.548643627 -0.1599017075)
(26.57987053 2.76138811 -2.809852363)
(20.67312752 5.810776212 -6.963590061)
(21.78812281 6.228286083 -11.53673342)
(29.20252212 9.684402118 3.293532728)
(42.50790879 0.3916683052 -0.6482207647)
(38.77735497 5.03329204 -9.572440605)
(44.47372204 8.113533486 -6.284605029)
(50.67984378 9.204450663 -2.689933154)
(45.79688239 3.565172429 -8.265714752)
(52.79660772 6.866259515 2.126399735)
(47.3187713 3.952177063 -3.332167766)
(39.15565646 5.718300443 -12.73135922)
(46.47081287 13.66168753 -12.2595179)
(51.56529702 10.64610443 0.4758354365)
(42.5103217 14.00329796 -2.28129269)
(14.35407674 -5.216136971 7.821806669)
(20.94986034 -6.189050251 -2.14325539)
(22.0333328 -10.04989282 9.322840206)
(24.43910392 2.208689888 5.108721894)
(28.55733079 2.023419702 0.9481473423)
(30.95333296 5.982000299 -0.3830235665)
(28.2021119 5.923012874 2.161196898)
(29.15283489 1.008340819 5.871405561)
(34.34983293 -3.931360888 -7.419652041)
(35.46896344 6.294591432 -6.891242734)
(33.7931245 7.442389143 -1.35811005)
(33.73946588 7.615986932 -1.492910796)
(37.70344172 0.9480866258 -3.075453333)
(45.73591029 6.431197723 -4.685846092)
(40.67703437 8.699186076 -0.3487614289)
(40.12294531 8.876836086 -5.391442318)
(38.62051313 4.528341539 -10.91230964)
(41.81759633 5.183591137 -7.891386672)
(49.09492375 13.48117778 -2.937351239)
(46.70975718 20.37378322 -5.050166441)
(20.39299903 -5.987880645 3.634033623)
(28.94207994 -10.11467785 15.67254552)
(19.77955299 -4.764788641 6.061377553)
(17.77556793 -0.001429895152 -5.783326224)
(25.74918728 -4.076013797 10.69875005)
(24.27893676 6.736373357 4.895739607)
(33.50829402 6.4741289 -2.99726386)
(29.34608347 1.981674668 -8.563240694)
(25.28420753 -3.270139882 0.5972223794)
(26.28586994 9.423968934 -5.698149592)
(32.34307052 -0.2770629063 -10.93458376)
(30.7942306 0.487597108 1.780531702)
(36.67895621 2.632188886 5.958323432)
(29.61051148 8.921498013 -2.048456661)
(37.30232689 0.9472300327 -18.81924539)
(51.14474937 2.094386133 -3.057396211)
(47.80432419 14.02142277 6.986725272)
(44.181685 1.026312709 -6.46174508)
(46.26615434 15.37902564 -0.8706218073)
(46.27397528 17.72515791 8.827905241)
(10.8377895 -7.741878128 -2.927702586)
(17.25031418 -0.9915901677 -6.488173024)
(17.99424473 -4.229141172 -6.017586917)
(19.26349522 -5.768750547 -2.01082231)
(16.30438114 -4.573547481 3.392692374)
(19.89952496 -2.04673724 2.655341041)
(24.6467148 5.085324564 -4.134640553)
(23.87307987 5.163312732 -1.515097283)
(26.90010999 -1.671466206 -8.213902869)
(31.74884236 6.652090581 -10.8311986)
(29.1527879 -2.692749572 -14.39355143)
(29.25470746 5.168932945 -13.80782806)
(32.49833263 1.642416474 -5.57941776)
(36.29706069 -2.70778005 -10.18913016)
(42.98761992 2.046985949 -28.61544045)
(38.73464601 1.258556699 -10.88089552)
(45.97560586 6.008682827 9.306449554)
(53.76053898 5.821805575 -15.00382498)
(50.03161585 16.739517 -8.635585099)
(57.23377619 14.91255921 4.821252238)
(12.57102629 -2.470548166 -4.60297817)
(16.82382537 -9.981328196 -7.124641794)
(21.59901682 -3.259013308 -27.13926743)
(23.97620908 -3.658166317 -14.46295421)
(15.18605459 -0.1960162422 -11.20243025)
(16.57528305 -4.485443111 -11.27547542)
(22.94154628 -3.368107884 -0.6952722578)
(32.64842689 6.617577636 6.057611882)
(31.57778958 -6.876288418 2.743609485)
(31.11410303 -0.3294290842 -12.60754061)
(37.18562205 5.116337369 -9.785673586)
(39.70851444 1.673927261 -15.09233958)
(38.79183985 1.628429396 -7.1135527)
(42.93593432 -4.676000961 -18.73890712)
(37.67121524 2.03750869 -10.36386579)
(47.21477902 -6.173869624 -10.72348061)
(54.35676105 0.08079944431 -4.510523696)
(50.49057929 3.354024924 -4.170894018)
(60.02663889 16.9342864 -5.207322289)
(60.2296257 13.38655909 -3.097321577)
(7.257593495 -2.68888798 -9.629663117)
(15.55421751 -2.78047935 -5.593888913)
(14.16235048 -9.942067078 -8.106250241)
(24.00166689 -4.219893877 -1.176413857)
(32.84790651 -1.091244053 -12.70793216)
(26.16207491 -5.174772644 -4.810436249)
(27.66843701 -10.12747505 -8.566235121)
(33.36550187 5.058120425 -9.894578597)
(40.30893133 -9.186719871 -5.883065324)
(47.58861733 6.926073672 -0.3624619361)
(35.32749438 0.8167530948 -21.83918146)
(34.57370746 1.996663851 -9.88108077)
(34.44078518 -1.159212374 -11.91544331)
(39.79169809 -3.314563312 -11.54555095)
(44.47574314 -2.97552201 -16.73811632)
(44.87896042 -11.0219566 -11.12455855)
(45.88819035 -2.033670478 -7.926950507)
(47.67710967 8.96357924 16.48851234)
(51.74195166 2.850698955 -10.78065877)
(56.51782406 12.76674089 -0.3898455133)
(9.732869933 -8.492700019 -0.2795883906)
(19.6371011 -8.491382383 -3.356136138)
(28.61183278 -12.73825059 -12.29849069)
(29.20764406 -12.51987828 -18.22407944)
(29.99479803 -8.783191483 -13.27926634)
(38.86201107 7.216675857 -7.99058831)
(29.3110875 -13.72415148 -16.06063198)
(36.37435707 -6.542014389 -17.42489453)
(36.97014736 -7.860200201 3.327136396)
(29.87622102 9.115855596 -5.437476838)
(35.0772885 9.966686994 -20.30769272)
(31.8862669 4.243151736 -19.21638813)
(27.95141654 1.822635766 2.230362624)
(32.66898688 -12.29082715 -1.969579603)
(36.36687608 -7.604252922 -10.07677211)
(39.79714048 -6.180722315 -4.24583612)
(36.09125068 -8.690105506 3.655195404)
(41.92779836 4.794682582 1.541460356)
(47.7305462 1.526891644 9.275505799)
(51.02374595 9.723343638 9.462029208)
(17.48249665 -5.398764822 -4.209623475)
(28.56479868 -16.47202888 8.230913502)
(23.50596514 -10.89240459 -1.931101406)
(24.61850607 -11.69743171 -6.91649194)
(21.57254683 -6.701713167 -9.378113927)
(21.56374804 -3.621430691 -9.215458686)
(29.20940877 -4.542826566 -8.901604643)
(25.56052197 -10.08394005 -1.697825633)
(25.73729992 -3.372087847 2.31918707)
(29.00450998 2.307508164 -8.636854965)
(37.18985145 7.830935921 -8.795427154)
(36.16601841 10.53025902 -15.37285435)
(32.44985358 1.258816644 -0.6103064296)
(29.3411426 -13.5161817 -16.37218127)
(39.89459758 -12.75668772 0.1315568583)
(45.98523711 -11.93822748 -7.643861669)
(41.73872113 -3.76904494 2.387104099)
(40.48462931 1.609014854 6.979610119)
(40.50365828 -0.6781170946 -2.015150387)
(44.22658362 5.854193534 9.993158088)
(15.75597207 -13.92254376 -12.60770345)
(16.27707687 -7.762641565 12.72944205)
(20.32859438 -10.75855981 -2.508972364)
(12.15764071 -10.72171799 0.476699049)
(14.33605742 -5.42284057 -10.02580078)
(17.91830315 -5.208823966 -2.536050176)
(16.62679807 -2.90097011 0.1359843182)
(9.847156697 -10.39276251 1.930042427)
(18.63592674 -9.569850134 3.187512935)
(29.43287659 3.991445367 -14.2454245)
(30.90409462 -2.131728203 -12.58365745)
(33.45145577 11.7981934 -9.851670309)
(40.89072249 -1.172382053 -15.08259284)
(37.0246435 -8.976688534 0.3381563766)
(29.90160747 -17.31892736 7.739139479)
(37.65821167 -8.463625801 0.7043852915)
(39.0464663 -7.689006352 11.39789442)
(39.80077739 -1.597932413 12.21326365)
(43.31058872 6.194576439 8.385142262)
(45.10235396 0.7216803381 1.690182955)
(12.03319518 -8.475394112 0.5307949163)
(17.42786666 -14.76602768 -1.665118558)
(19.41546175 -10.86747828 -12.29007356)
(24.23398857 -8.41836095 -8.908473027)
(20.53507915 -2.504117422 -5.296589181)
(18.35869376 -3.49413933 -1.634836929)
(16.84837336 -2.699275177 -8.053240808)
(19.99759017 -5.667311591 -2.988992749)
(13.26905923 -11.45640789 1.589377815)
(16.46222184 -8.600227419 -11.392193)
(22.9628668 -0.6631311986 -17.12164074)
(27.00355818 -0.3211886139 -9.151115363)
(38.34618735 -4.8435944 -13.42592811)
(43.99165015 -3.133978784 -2.267424802)
(39.19072539 -10.61294508 -14.83639122)
(32.53995504 -14.56531994 -13.71504747)
(34.09361191 -4.700734976 -0.7813261109)
(35.89815147 -7.592082915 17.34690492)
(46.04610691 1.033732064 7.176077328)
(47.91534657 2.392637246 -2.220950844)
(11.08696881 -4.40301736 -8.152430418)
(14.8753996 -10.32474859 -3.27650006)
(9.853128592 -8.337568703 -4.386111929)
(10.40822422 -13.78828311 -3.529841281)
(21.85256354 -6.930906021 -4.642751754)
(22.53584283 -2.191802008 1.918312254)
(21.84540144 -5.070910341 -3.112300577)
(22.74729925 -3.738771868 5.742230212)
(23.33505657 -7.116499873 -7.774407173)
(21.60701581 -13.8572206 -8.952181651)
(21.41889969 -2.531389792 -5.693141916)
(33.42977551 -8.834031483 5.287843632)
(26.8152678 -2.591711276 -7.115934621)
(32.9372248 -9.743597937 -12.53133834)
(38.19035572 -9.676025798 -4.24495634)
(40.15664848 -9.597866977 -2.444777772)
(39.89190189 -6.067184917 -7.941163111)
(41.88595676 -9.988989601 -2.206496585)
(42.21508597 -0.8534363562 2.306346459)
(40.47922388 2.626743384 0.3513647093)
(7.576022515 -7.509395575 3.380095785)
(10.47714366 -6.728667193 -7.875956199)
(15.74576169 -11.92356489 10.92394361)
(19.80464988 -11.47053345 10.85277401)
(14.32319303 -14.73565672 5.27556424)
(18.75428905 -4.459722865 8.787114498)
(22.60818359 -5.642034708 1.928164424)
(32.27596205 -5.531484839 11.20141527)
(28.26924725 -5.795160809 -3.301160907)
(29.59853174 -10.15771896 -17.85383972)
(32.30977584 -13.67659033 -16.77632809)
(36.58491593 -4.686878105 -2.840831819)
(34.57841258 -1.318501106 -18.86013147)
(37.05490553 -17.29032159 -7.547721152)
(35.09050751 -1.12689508 3.134297079)
(29.72123896 -9.452339444 -3.628177448)
(31.18730047 -7.693009123 -9.677246019)
(28.87643319 -13.46850714 -17.38633011)
(36.44853986 -10.41541602 -16.32933935)
(38.26691444 6.542942824 -5.995213132)
(12.43483733 0.7816665888 13.05266509)
(22.78002361 -6.00445848 3.020989626)
(18.08877703 -15.39949731 4.545992808)
(14.29073996 -8.069832706 -4.198480145)
(19.29355808 -13.80925478 -3.325577115)
(24.66437703 -12.08784812 -6.676086417)
(26.52866604 -3.751656575 -1.690137269)
(17.76272722 -10.51959319 -1.955771775)
(22.77233042 -7.018188287 -11.63681532)
(25.00052912 -9.45965903 -15.04243843)
(29.17944888 -13.97555839 -16.83646766)
(29.95956045 -10.70467692 -1.538838611)
(35.10772323 -2.698583727 -13.82683433)
(29.91726573 -13.74240146 0.3899434069)
(32.73870864 -1.32660959 -5.844119004)
(34.05447078 -5.018779924 -2.213087008)
(29.76337108 -6.453135123 6.54753746)
(31.99164065 -14.49664622 -5.256497873)
(30.97692574 -10.19811465 -4.070341516)
(34.31565224 0.9722612213 8.215043981)
(19.97137333 -1.377358999 7.875345218)
(23.63714304 -10.1549411 5.951834895)
(25.37726921 -9.756890325 11.31338974)
(20.99164977 -0.7999121514 3.507361829)
(16.57399038 -21.40815348 -4.853298555)
(22.82585407 -13.45284622 -0.5400681249)
(26.65066301 -8.511274865 3.519907857)
(31.47630991 -4.052507257 -2.840307791)
(28.71709342 -10.30133109 -4.163669339)
(33.15271556 -10.50448398 -13.81276382)
(26.66530105 -11.96620762 -12.8339647)
(32.90146218 -10.27100796 -11.63007356)
(33.3854067 -12.31529088 -2.89483374)
(42.43684029 -11.74273355 -3.787811146)
(40.74614551 -0.9565068242 -1.843351936)
(36.52703326 0.3784199377 -3.273584554)
(36.79360225 -8.641225499 -23.34998633)
(40.66188133 -13.07284799 4.625101254)
(36.16682862 -8.255430096 -2.570882151)
(40.73537307 -6.953962462 3.42869131)
(14.60492923 -7.133683624 11.98090146)
(22.1185966 -6.378540422 9.287904945)
(20.58783029 -9.775846797 3.941069939)
(26.31608592 -5.17323652 1.315500333)
(21.81687536 -12.60255305 -1.755293465)
(12.65951369 -20.45457745 7.254316817)
(22.68915228 -6.855043502 4.024499402)
(22.57878234 -4.329064181 -5.300073864)
(23.85053877 -19.24784876 -4.49499147)
(24.42039511 -3.390255761 -0.3853919355)
(25.7979519 -15.87831493 -12.93774968)
(23.28992629 -14.30015252 -0.6347696809)
(27.28217689 -11.06156292 7.816698339)
(23.77730305 -15.77830251 10.66358257)
(33.00046549 -9.808797359 -5.115955064)
(45.82922458 -0.3356364074 -3.108092601)
(45.10391925 0.4543274985 2.73239953)
(39.37123914 -11.94370128 -2.670857356)
(38.57296538 -4.42497399 -0.1683230432)
(36.70563838 -14.35546749 1.877582831)
(12.05085427 -3.416950178 -2.819486186)
(23.76659553 -12.94178216 0.9514198481)
(22.79568664 -11.0599791 -19.41279252)
(28.78886916 -7.934308695 -12.58565414)
(26.03899356 -3.74648805 8.014199306)
(27.95814009 -19.16239668 3.584497389)
(20.2950442 -12.57075645 -0.4581513004)
(18.83005561 -3.524936094 -4.901611265)
(21.045616 -14.05181902 -10.63306382)
(21.68886988 -13.63355599 -3.249768467)
(26.94923234 -8.949834089 6.966636071)
(23.70086546 -5.807124316 4.677124861)
(20.43631865 -12.36985563 -1.069904441)
(31.48455752 -20.52752258 6.249152174)
(31.89357511 -12.53974175 -2.988856753)
(23.08979262 -5.201697551 4.331460142)
(36.4226957 -9.494924381 11.33343637)
(31.34602082 -1.863921718 -5.837469677)
(33.25837801 -9.489577814 -5.435062187)
(35.24407474 -10.89495998 1.037398277)
(19.36231516 -4.616569072 5.08137386)
(20.99587063 -10.9695652 5.978980085)
(20.62141871 -7.992394008 -15.25104468)
(22.34701482 -15.34974647 -2.962252499)
(33.46020316 -6.027712721 -3.660473867)
(23.56694951 -12.59511025 2.755845687)
(17.69937642 -4.520659084 -5.977740525)
(22.48964069 -7.720748268 -8.327105784)
(25.62242396 -16.98763551 -1.065765198)
(25.06686031 -11.48559315 3.342091878)
(18.70775978 -11.13394907 0.8622502647)
(23.80588782 -11.24768354 -2.180924272)
(31.98193036 -14.89711041 -6.672598341)
(31.17233214 -22.77020852 3.849052685)
(33.80100896 -13.18366361 2.54586723)
(37.0403988 0.4409436184 4.718590643)
(26.66916788 -14.45144915 -1.004468217)
(32.58092442 3.864798685 1.747392178)
(31.02582947 -15.18906275 3.8956303)
(31.91088696 -14.76988523 0.5545962658)
(16.51773391 -12.20378554 0.8032868236)
(23.91754381 -9.601684115 0.423974215)
(26.33158124 -10.45747642 2.699325485)
(23.12492763 -12.40224465 -1.606315164)
(18.88561627 -10.91449428 1.643286782)
(19.330513 -1.608034815 2.369883059)
(14.72739356 -7.465540698 3.583663117)
(22.33661803 -17.20758099 6.962796904)
(25.61534512 -8.13183545 16.94014619)
(18.7101244 -9.259044741 9.046157802)
(27.22501531 -13.27620921 4.618713068)
(31.18864653 -17.08686203 8.257702364)
(34.62354868 -21.42973345 10.7448236)
(29.89102464 -19.42069576 -3.189885244)
(20.16055739 -11.34580025 -4.298653603)
(28.80525618 -5.721369767 2.970416415)
(33.27976049 -3.855317421 -6.959498728)
(32.8573737 -6.59047648 -3.363713963)
(43.14585517 -12.87829182 -1.139987656)
(30.79261022 -8.083679532 5.217932962)
(7.197279702 -12.78864361 -7.25918722)
(15.9374285 -8.549760932 -0.5656204546)
(14.40535343 -8.590250944 -1.779079202)
(16.51986104 -8.239986873 -1.846705385)
(16.42626269 -11.3475242 0.7407053)
(23.84001717 -7.710218538 17.64301941)
(32.52742222 -11.30724779 10.49561469)
(27.97154349 -12.90309891 6.053040519)
(24.52941182 -6.692018113 10.46534236)
(29.07187475 -17.09960984 -1.326086085)
(31.73254607 -17.3839737 6.633882356)
(30.04662759 -14.24544573 3.968038669)
(27.65285924 -13.15295882 -13.23874992)
(20.71340022 -12.23585571 5.767464208)
(25.92158628 -15.19498547 6.10166634)
(27.12470644 -11.09758659 -1.588943475)
(28.60265524 -10.90794073 -2.318238992)
(38.77345996 -12.56457923 -9.593759524)
(39.68694275 -5.782263752 0.7417163599)
(37.22910202 -7.802959903 -12.67406973)
(12.29543016 -2.271488555 6.70567314)
(14.05918106 -10.96017614 7.641876035)
(20.58882874 -12.28577079 15.33194989)
(22.37727113 -11.56020772 7.009026245)
(29.83629102 -16.34532998 12.14846267)
(24.93659436 -6.708085592 4.063217112)
(21.95972496 -11.63983866 -3.794717481)
(23.70285465 -8.886004977 16.91301784)
(25.93818296 -13.93977342 11.91447896)
(31.22052934 -13.60943167 6.684090646)
(27.74667869 -19.95566912 -7.212815855)
(23.3531838 -12.77766952 -8.739744743)
(27.25785159 -13.15892882 -10.20881821)
(30.83903717 -16.30769434 8.279611738)
(26.61332961 -5.048347953 -1.135239707)
(24.50536281 -12.83591916 -0.4533615109)
(30.03845257 -21.19797935 -5.637928521)
(36.81026329 -10.36303452 -5.649521261)
(30.2501269 -6.97890885 3.125721829)
(35.06509296 -8.600642696 -13.21532393)
(12.66354196 -2.244698978 7.732078405)
(18.19976104 -13.48157442 -10.52870223)
(20.88593005 -14.88488373 1.002907485)
(20.08657796 -12.98886829 5.988101879)
(14.74430327 -7.835935419 4.95918732)
(19.05440452 -11.04215818 -9.465733406)
(14.99807338 -5.344894756 -17.22349902)
(18.23775727 -10.71756317 3.139777752)
(25.92182605 -19.87697188 13.2636805)
(24.59778633 -19.86482984 0.2634117295)
(25.74088463 -6.393836336 -0.4607013586)
(19.83263886 -11.47434141 -0.4749560468)
(24.15396936 -22.57614237 -3.13916852)
(28.77877468 -13.66337839 4.124787301)
(32.6685451 -5.294438165 0.6674979289)
(33.66465869 -15.16864697 -3.287156217)
(29.27576181 -19.63845835 4.495849009)
(29.87005027 -14.075513 7.154923998)
(35.9843675 -8.940300999 -9.247249922)
(34.5312145 -9.199225029 -6.928995038)
(13.48415945 -5.115557216 11.585154)
(20.87367887 -17.60716009 -3.373977959)
(22.00182124 -11.3060021 -19.647855)
(17.07736592 -7.384730486 -4.001679474)
(15.7672458 -11.81433709 -5.38428098)
(19.57391396 -15.33450759 -1.677851513)
(26.78192403 -3.979331324 -3.02089063)
(23.38848209 -18.65115747 2.733255228)
(26.84841288 -17.62053344 0.7432558025)
(24.75108064 -17.34760177 -1.383740064)
(19.87652542 -0.4657984087 -2.7481063)
(28.2092464 -16.02425947 -2.110247285)
(28.12624905 -20.11647965 5.050052273)
(22.30621118 -18.86698433 -8.412457793)
(23.32591575 -10.31866817 4.283687059)
(22.9725982 -13.05597277 11.99166062)
(25.43420227 -13.68665923 1.923718934)
(25.82578511 -16.7716445 0.7268413674)
(27.07289937 -8.833850151 -4.326150367)
(28.32743614 -15.11055607 -11.33362117)
(2.915543155 -2.295981477 15.42080313)
(3.88265726 -13.54618531 -4.19049049)
(7.860855739 -16.48286068 -15.41083787)
(13.36686251 -9.511058612 -14.27093498)
(14.74445958 -13.22612919 2.67380501)
(7.189897727 -10.9491141 -4.80198553)
(10.11025845 -14.83528781 -6.506046779)
(24.23708517 -12.08721542 -0.8997880067)
(16.65615444 -23.18325501 3.811486622)
(17.01646751 -13.20888387 8.60024029)
(15.58310909 -6.33928302 1.341403681)
(18.10826586 -16.30258401 -9.919159097)
(18.4396709 -19.39389661 -3.880740105)