/*--------------------------------*- C++ -*----------------------------------*\
  =========                 |
  \\      /  F ield         | OpenFOAM: The Open Source CFD Toolbox
   \\    /   O peration     | Website:  https://openfoam.org
    \\  /    A nd           | Version:  7
     \\/     M anipulation  |
\*---------------------------------------------------------------------------*/
FoamFile
{
    version     2.0;
    format      ascii;
    class       volScalarField;
    location    "0.00036";
    object      dsmcSigmaTcRMax;
}
// * * * * * * * * * * * * * * * * * * * * * * * * * * * * * * * * * * * * * //

dimensions      [0 3 -1 0 0 0 0];

internalField   nonuniform List<scalar> 
125
(
9.55342e-16
9.42074e-16
9.94451e-16
9.71308e-16
1.0044e-15
9.44873e-16
9.80728e-16
9.59045e-16
9.73548e-16
9.71929e-16
9.53159e-16
9.91487e-16
9.61504e-16
9.63529e-16
9.503e-16
9.60156e-16
9.51304e-16
9.62345e-16
9.66194e-16
1.02e-15
9.56109e-16
9.47971e-16
9.65674e-16
9.6045e-16
9.61382e-16
9.95682e-16
9.87789e-16
9.6381e-16
9.45326e-16
9.70098e-16
9.5658e-16
9.70405e-16
9.59038e-16
9.61883e-16
9.79577e-16
9.83294e-16
9.84834e-16
9.57872e-16
9.80528e-16
9.44533e-16
9.82725e-16
9.90387e-16
9.89995e-16
9.68447e-16
9.40517e-16
9.40311e-16
1.0012e-15
9.76608e-16
9.59654e-16
9.4819e-16
9.3399e-16
9.76884e-16
9.6124e-16
9.40511e-16
9.5664e-16
9.74921e-16
9.64134e-16
9.82918e-16
1.02371e-15
9.48455e-16
9.80028e-16
9.88278e-16
9.46757e-16
9.58276e-16
9.64759e-16
9.47607e-16
9.82506e-16
9.59099e-16
9.35838e-16
1.00382e-15
9.61058e-16
9.88154e-16
9.38399e-16
9.3842e-16
9.92791e-16
9.76144e-16
9.73743e-16
9.45879e-16
9.4839e-16
9.68318e-16
9.36701e-16
9.77572e-16
9.72826e-16
9.64747e-16
9.76162e-16
1.03763e-15
9.72439e-16
9.51954e-16
9.60873e-16
9.46894e-16
9.82866e-16
9.66352e-16
9.93658e-16
9.66142e-16
9.62451e-16
9.63574e-16
9.58899e-16
9.742e-16
9.54136e-16
9.93435e-16
9.89744e-16
9.82341e-16
9.49273e-16
9.59713e-16
9.55006e-16
9.93597e-16
9.5944e-16
9.42624e-16
9.4997e-16
9.46335e-16
9.73015e-16
9.40233e-16
9.59707e-16
9.46226e-16
9.66822e-16
9.58496e-16
9.50381e-16
9.4974e-16
9.52071e-16
9.64454e-16
1.01709e-15
9.44238e-16
9.44802e-16
9.635e-16
9.49825e-16
)
;

boundaryField
{
    sides
    {
        type            symmetry;
    }
    empty
    {
        type            empty;
    }
    procBoundary0to1
    {
        type            processor;
        value           uniform 9.83881e-16;
    }
}


// ************************************************************************* //
