/*--------------------------------*- C++ -*----------------------------------*\
  =========                 |
  \\      /  F ield         | OpenFOAM: The Open Source CFD Toolbox
   \\    /   O peration     | Website:  https://openfoam.org
    \\  /    A nd           | Version:  7
     \\/     M anipulation  |
\*---------------------------------------------------------------------------*/
FoamFile
{
    version     2.0;
    format      ascii;
    class       volScalarField;
    location    "0.00036";
    object      iDof;
}
// * * * * * * * * * * * * * * * * * * * * * * * * * * * * * * * * * * * * * //

dimensions      [0 -3 0 0 0 0 0];

internalField   nonuniform List<scalar> 
125
(
1.70714e+23
1.86429e+23
1.77857e+23
1.86429e+23
1.82143e+23
1.69286e+23
1.83571e+23
1.83571e+23
1.85714e+23
1.75714e+23
1.85714e+23
1.75e+23
1.77143e+23
1.79286e+23
1.91429e+23
1.80714e+23
1.93571e+23
1.9e+23
1.8e+23
1.82857e+23
1.64286e+23
1.59286e+23
1.67857e+23
1.82857e+23
2e+23
1.80714e+23
1.75714e+23
1.68571e+23
1.75714e+23
1.56429e+23
1.83571e+23
1.95714e+23
1.89286e+23
2.01429e+23
1.84286e+23
1.61429e+23
2.05714e+23
1.93571e+23
1.67143e+23
2.07143e+23
1.9e+23
1.83571e+23
1.76429e+23
1.85714e+23
1.81429e+23
1.82143e+23
1.82143e+23
1.76429e+23
1.88571e+23
1.64286e+23
1.71429e+23
1.77143e+23
2.02143e+23
1.73571e+23
1.84286e+23
1.86429e+23
1.87857e+23
1.79286e+23
1.95714e+23
1.92143e+23
1.69286e+23
1.73571e+23
1.79286e+23
1.98571e+23
1.74286e+23
1.71429e+23
1.95e+23
1.72857e+23
1.86429e+23
1.84286e+23
2.06429e+23
2.05714e+23
1.72857e+23
1.77857e+23
2.00714e+23
1.80714e+23
1.85e+23
1.87857e+23
1.88571e+23
1.80714e+23
1.8e+23
1.65714e+23
1.87143e+23
1.77857e+23
1.70714e+23
1.81429e+23
1.67143e+23
1.67857e+23
1.87143e+23
1.64286e+23
1.65714e+23
1.69286e+23
1.9e+23
1.96429e+23
1.86429e+23
1.77143e+23
1.8e+23
1.77143e+23
1.84286e+23
1.87143e+23
1.83571e+23
1.65e+23
1.66429e+23
1.79286e+23
1.74286e+23
1.82857e+23
1.81429e+23
1.81429e+23
1.80714e+23
1.89286e+23
1.89286e+23
1.90714e+23
1.88571e+23
1.84286e+23
1.75e+23
1.94286e+23
1.79286e+23
1.85714e+23
1.63571e+23
1.88571e+23
1.60714e+23
1.84286e+23
1.92143e+23
1.90714e+23
1.99286e+23
)
;

boundaryField
{
    sides
    {
        type            symmetry;
    }
    empty
    {
        type            empty;
    }
    procBoundary0to1
    {
        type            processor;
        value           uniform 1.73571e+23;
    }
}


// ************************************************************************* //
