/*--------------------------------*- C++ -*----------------------------------*\
  =========                 |
  \\      /  F ield         | OpenFOAM: The Open Source CFD Toolbox
   \\    /   O peration     | Website:  https://openfoam.org
    \\  /    A nd           | Version:  7
     \\/     M anipulation  |
\*---------------------------------------------------------------------------*/
FoamFile
{
    version     2.0;
    format      ascii;
    class       Cloud<dsmcParcel>;
    location    "0.01/lagrangian/dsmc";
    object      positions;
}
// * * * * * * * * * * * * * * * * * * * * * * * * * * * * * * * * * * * * * //

9320
(
(0.8207665639 0.08865759536 0.0009591226818 0.08961671804) 206 406 1
(0.3322484232 0.02886803388 0.3338757884 0.3050077545) 89 176 2
(0.03118208727 0.4844089564 0.3019613914 0.1824475649) 87 173 1
(0.2797831598 0.3601084201 0.2941146437 0.06599377639) 107 211 2
(0.6184430508 0.1907784746 0.1475834107 0.04319506384) 172 337 2
(0.07452800881 0.4627359956 0.3701207049 0.09261529072) 87 114 1
(0.5763368811 0.210049695 0.2118315594 0.001781864443) 50 100 2
(0.7431063924 0.0006497607666 0.1284468038 0.1277970431) 87 173 2
(0.1358601972 0.4320699014 0.3280694529 0.1040004485) 87 114 1
(0.2062618465 0.3855193222 0.01134975454 0.3968690767) 117 231 1
(0.01293307531 0.09059818521 0.4029352771 0.4935334623) 269 471 2
(0.4859102193 0.2570448903 0.2079522752 0.04909261513) 28 56 2
(0.4445133379 0.06732580372 0.2104175273 0.2777433311) 86 112 2
(0.04017765934 0.06433314178 0.4155780285 0.4799111703) 118 233 1
(0.02694088286 0.4865295586 0.2376948759 0.2488346827) 55 109 2
(0.07105669851 0.4644716507 0.02451417196 0.4399574788) 228 391 1
(0.2359467825 0.3820266087 0.04411602179 0.337910587) 89 176 1
(0.697600042 0.02227873808 0.151199979 0.1289212409) 118 231 1
(0.5073375062 0.2463312469 0.1696340622 0.07669718466) 88 116 1
(0.4125609927 0.2937195037 0.2516049303 0.04211457333) 84 166 2
(0.03479718936 0.008259139032 0.4743422663 0.4826014053) 145 228 2
(0.4940558688 0.2529720656 0.0492442253 0.2037278403) 148 290 2
(0.2573285441 0.3713357279 0.2088292759 0.1625064521) 294 579 2
(0.5434892546 0.15921104 0.0690443327 0.2282553727) 53 105 1
(0.2472599682 0.3763700159 0.1592774033 0.2170926126) 59 58 1
(0.5623780804 0.205753703 0.01305725682 0.2188109598) 174 285 2
(0.02407219526 0.3018503314 0.186113571 0.4879639024) 84 108 2
(0.3120726056 0.3439636972 0.1276245687 0.2163391285) 298 588 1
(0.008041086246 0.3349954504 0.4959794569 0.1609840065) 25 51 2
(0.3318987637 0.3340506181 0.2356045882 0.09844602996) 260 512 2
(0.2073248008 0.3963375996 0.2045206214 0.1918169782) 57 111 2
(0.5809282461 0.2095358769 0.1879122094 0.02162366754) 19 1075 2
(0.5450472162 0.2012939072 0.0261824847 0.2274763919) 89 117 2
(0.3065081338 0.1118585952 0.3467459331 0.2348873379) 358 706 2
(0.6861802076 0.1266312346 0.1569098962 0.03027866163) 58 116 2
(0.3640582588 0.2436943865 0.3179708706 0.07427648414) 175 343 1
(0.06680387256 0.4665980637 0.4559755582 0.01062250548) 328 646 2
(0.1776997724 0.3127505854 0.09839952841 0.4111501138) 114 167 2
(0.2638333263 0.07113390505 0.2969494318 0.3680833368) 88 116 2
(0.1734075472 0.3517790539 0.06151717247 0.4132962264) 118 175 2
(0.01361074721 0.4931946264 0.1077936799 0.3854009465) 54 107 2
(0.3899798933 0.2942227564 0.3050100534 0.01078729693) 236 466 2
(0.4026546295 0.2986726853 0.1003491599 0.1983235254) 29 58 1
(0.1047418606 0.03397346448 0.4136556052 0.4476290697) 55 51 2
(0.6097356135 0.0434751278 0.1951321933 0.1516570655) 118 231 1
(0.2964371181 0.09559213534 0.351781441 0.2561893056) 148 293 2
(0.1998553358 0.1662193837 0.4000723321 0.2338529485) 142 278 1
(0.1689118418 0.4155440791 0.1266142306 0.2889298485) 19 1075 2
(0.4106579796 0.2807187924 0.01395221775 0.2946710102) 203 400 1
(0.7461888705 0.1269055648 0.02466443961 0.1022411252) 54 105 2
(0.3712064071 0.0977384539 0.2166583426 0.3143967965) 114 167 2
(0.435627668 0.282186166 0.0273521226 0.2548340434) 50 97 2
(0.3048600784 0.04598955502 0.3475699608 0.3015804058) 388 762 1
(0.004925266955 0.4975373665 0.09564402808 0.4018933384) 89 1043 2
(0.9148513103 0.04257434484 0.005152417024 0.03742192782) 179 1046 2
(0.3591261882 0.1053056847 0.2151312212 0.3204369059) 54 107 1
(0.07729639332 0.4613518033 0.1346042873 0.3267475161) 255 500 2
(0.7000123141 0.149993843 0.05659503061 0.09339881237) 59 115 2
(0.04772303876 0.3722727086 0.103865772 0.4761384806) 142 280 1
(0.2673723883 0.05799319256 0.3083206133 0.3663138059) 28 1084 1
(0.1082295661 0.4458852169 0.2224659468 0.2234192702) 80 158 2
(0.01034310022 0.4948284499 0.125547348 0.3692811019) 54 107 2
(0.7310169527 0.1344915237 0.01389514528 0.1205963784) 114 226 1
(0.5551736181 0.2102989815 0.2224131909 0.01211420943) 58 116 2
(0.3832851534 0.1104838674 0.3083574233 0.1978735559) 292 573 1
(0.1672255612 0.3651893475 0.4163872194 0.05119787184) 88 175 2
(0.2910413584 0.06269450615 0.3544793208 0.2917848146) 84 164 1
(0.5515756396 0.1933108363 0.2242121802 0.03090134394) 137 268 1
(0.2628461953 0.3685769023 0.2252157035 0.1433611989) 78 154 2
(0.3966213367 0.3016893316 0.2067697991 0.09491953253) 89 176 1
(0.4368253856 0.04652920969 0.2815873072 0.2350580975) 55 107 1
(0.2484653947 0.08411401276 0.3757673027 0.2916532899) 86 168 1
(0.1421686613 0.4289156694 0.259197864 0.1697178054) 175 287 1
(0.1496547075 0.4251726463 0.3900210141 0.03515163215) 50 99 2
(0.3985085734 0.2308525274 0.06989318591 0.3007457133) 113 165 2
(0.1566591678 0.4216704161 0.06614496133 0.3555254548) 25 50 2
(0.152806351 0.4235968245 0.3337817862 0.08981503826) 53 103 2
(0.5395369177 0.2199356714 0.2302315411 0.01029586972) 327 645 2
(0.1093850573 0.3257308827 0.1195765887 0.4453074714) 416 819 1
(0.04961578188 0.45453526 0.02065684902 0.4751921091) 55 109 1
(0.1765864067 0.07047679526 0.3412300014 0.4117067967) 89 117 2
(0.685416638 0.0009736154317 0.1563180656 0.157291681) 117 173 2
(0.3856532522 0.3071733739 0.1151744219 0.191998952) 57 55 1
(0.5704631989 0.2147684006 0.1756156333 0.0391527673) 296 584 1
(0.1774367183 0.4112816408 0.1214258024 0.2898558384) 20 40 2
(0.2470540008 0.1442214431 0.2322515565 0.3764729996) 111 219 1
(0.5206723274 0.1910466565 0.04861717974 0.2396638363) 415 817 1
(0.1128112949 0.1311739321 0.4435943526 0.3124204205) 113 221 1
(0.6307090841 0.1812134762 0.184645458 0.003431981778) 27 55 2
(0.8492291678 0.07538541609 0.001364114645 0.07402130144) 59 115 2
(0.3913905675 0.2559716883 0.3043047162 0.04833302791) 386 758 1
(0.3863749354 0.1810557287 0.1257568036 0.3068125323) 89 117 2
(0.6967324117 0.1009696867 0.1516337942 0.05066410741) 56 112 2
(0.1437625548 0.149589954 0.2785287686 0.4281187226) 79 156 1
(0.06157343321 4.966731332e-05 0.4692132834 0.4691636161) 86 171 2
(0.0897492844 0.4551253578 0.1433876792 0.3117376786) 58 57 1
(0.2461821283 0.2578114713 0.1190974646 0.3769089359) 57 113 1
(0.3701014696 0.3149492652 0.2978002079 0.01714905734) 232 458 1
(0.3469258802 0.2703788598 0.0561582001 0.3265370599) 53 105 1
(0.4026201083 0.2026740738 0.2986899459 0.09601587205) 116 227 1
(0.2539564859 0.1728907773 0.3730217571 0.2001309798) 143 280 1
(0.06410513714 0.2988028823 0.1691445492 0.4679474314) 207 350 2
(0.05921512802 0.1841004719 0.470392436 0.2862919641) 23 44 1
(0.3692498603 0.07739775394 0.2379773159 0.3153750699) 25 50 1
(0.2062975113 0.3968512444 0.008414984097 0.3884362603) 446 876 2
(0.3051092815 0.05743022978 0.3474453592 0.2900151294) 269 530 2
(0.4942880814 0.1214076677 0.2528559593 0.1314482916) 176 345 1
(0.1539352647 0.4230323676 0.3975146521 0.02551771551) 174 285 1
(0.8195935628 0.09020321858 0.04586221888 0.04434099971) 21 42 2
(0.1879831158 0.2585349217 0.4060084421 0.1474735205) 202 399 2
(0.2598135349 0.3700932326 0.1843159409 0.1857772917) 268 528 2
(0.2951755116 0.3524122442 0.2049812853 0.1474309589) 206 348 1
(0.6788424481 0.0298680776 0.1307106983 0.1605787759) 236 465 1
(0.06963304496 0.4651834775 0.08839029934 0.3767931782) 28 1084 2
(0.251344158 0.374327921 0.04035899815 0.3339689229) 419 766 1
(0.6408630003 0.1795684999 0.09609664611 0.08347185375) 113 224 1
(0.4531836552 0.2734081724 0.1660245881 0.1073835843) 169 331 2
(0.6109663983 0.1945168008 0.04196400408 0.1525527968) 80 156 2
(0.5560909861 0.221954507 0.1929129382 0.02904156878) 199 334 1
(0.4332414146 0.2833792927 0.05305644228 0.2303228504) 26 52 2
(0.8726401545 0.06367992274 0.0230547165 0.04062520624) 27 54 2
(0.09284644052 0.4207173952 0.03285938456 0.4535767797) 51 101 1
(0.3310906031 0.3344546985 0.13238864 0.2020660585) 47 91 2
(0.4379213556 0.2810393222 0.1418381651 0.1392011571) 85 110 1
(0.09081087221 0.4545945639 0.2662923158 0.1883022481) 78 154 2
(0.4310838486 0.02835462518 0.2561034505 0.2844580757) 86 112 2
(0.7294738265 0.1352630868 0.08522704537 0.05003604139) 149 294 1
(0.3145475248 0.2799464679 0.3427262376 0.06277976968) 59 115 1
(0.4655635724 0.01282074374 0.2672182138 0.2543974701) 147 288 1
(0.6121438451 0.1283534841 0.1939280775 0.06557459339) 26 50 1
(0.237931599 0.3810342005 0.1754426066 0.2055915939) 27 1083 2
(0.125477299 0.106554457 0.3307068935 0.4372613505) 109 215 1
(0.03654603358 0.4817269832 0.03130284873 0.4504241345) 28 54 2
(0.445354767 0.2773226165 0.05021263893 0.2271099776) 27 54 2
(0.2964644156 0.2088814783 0.3517677922 0.1428863138) 56 109 1
(0.3879299269 0.3060350366 0.1857695976 0.120265439) 146 230 1
(0.2456398214 0.3771800893 0.3208329168 0.05634717248) 144 285 1
(0.05118073922 0.4744096304 0.0677750108 0.4066346196) 135 208 1
(0.07059843727 0.4174288296 0.04727195181 0.4647007814) 179 1046 1
(0.9803599844 0.003243862691 0.009820007795 0.006576145104) 51 102 2
(0.804306137 0.09784693149 0.02113853812 0.07670839336) 138 273 1
(0.7005016983 0.1490129598 0.1497491509 0.0007361910925) 85 166 1
(0.3863164908 0.3068417546 0.04914330092 0.2576984537) 521 1009 2
(0.1281543803 0.4359228098 0.08261622725 0.3533065826) 114 226 1
(0.3741322015 0.3129338993 0.2343239242 0.07860997507) 23 44 2
(0.4899746233 0.2550126883 0.2022420408 0.05277064752) 179 353 1
(0.2876817019 0.3051110399 0.3561591491 0.05104810922) 266 525 2
(0.02842491902 0.1753007807 0.4857875405 0.3104867598) 328 644 1
(0.4962740112 0.2518629944 0.05529569455 0.1965672998) 177 347 2
(0.489460157 0.1213165481 0.1339533734 0.2552699215) 23 1079 1
(0.2922575344 0.002695657485 0.3538712328 0.3511755753) 45 90 2
(0.009586221348 0.3084426364 0.4952068893 0.1867642529) 116 227 1
(0.3922152909 0.3038923545 0.04433348045 0.2595588741) 199 334 1
(0.1544973949 0.09266052648 0.4227513025 0.3300907761) 200 395 2
(0.02534055837 0.4873297208 0.3298496971 0.1574800237) 263 460 1
(0.1719016099 0.281577381 0.1324718141 0.4140491951) 148 292 1
(0.4405046446 0.2797476777 0.0941504486 0.1855972291) 88 116 1
(0.338373474 0.03710223847 0.330813263 0.2937110245) 172 340 2
(0.08682391044 0.4565880448 0.118550289 0.3380377558) 147 291 1
(0.685753207 0.07382876431 0.08329463219 0.1571233965) 23 46 1
(0.2398136373 0.3735350606 0.006558120789 0.3800931814) 27 54 1
(0.3641634833 0.06807771306 0.2498405453 0.3179182583) 51 43 2
(0.1601484068 0.08376056327 0.4199257966 0.3361652333) 25 51 2
(0.644449734 0.177775133 0.09705366291 0.0807214701) 79 98 1
(0.2745597287 0.3627201357 0.3563343303 0.006385805348) 474 875 1
(0.2741910291 0.3629044855 0.2852375525 0.07766693299) 107 209 2
(0.06734379445 0.4663281028 0.4081271045 0.05820099824) 298 529 1
(0.5097626173 0.01213679996 0.2329818914 0.2451186914) 177 349 1
(0.2953913212 0.3523043394 0.1057293699 0.2465749695) 25 1081 2
(0.07996850711 0.1897505932 0.2702651533 0.4600157464) 316 622 1
(0.05056088566 0.4747195572 0.09094704326 0.3837725139) 204 344 1
(0.6715118186 0.1642440907 0.1457514314 0.0184926593) 22 42 2
(0.4329168266 0.07564071886 0.2835415867 0.2079008678) 83 162 1
(0.8461005915 0.07694970427 0.04247654982 0.03447315445) 235 461 2
(0.21470859 0.392645705 0.3857936 0.006852104967) 89 174 2
(0.05725850135 0.4713707493 0.4359026259 0.03546812347) 257 506 2
(0.5101367445 0.2449316277 0.1142954619 0.1306361658) 26 52 2
(0.687726242 0.1497440333 0.006392845724 0.156136879) 178 293 2
(0.3094442834 0.08986598573 0.2554118726 0.3452778583) 530 1026 1
(0.4192894614 0.02064734837 0.2697079209 0.2903552693) 288 567 1
(0.6749049344 0.02209005263 0.1404574802 0.1625475328) 56 53 2
(0.8154995873 0.09225020634 0.08214578954 0.01010441679) 53 105 2
(0.1244808063 0.4377595969 0.1392126597 0.2985469372) 84 164 2
(0.1295192241 0.435240388 0.3515410481 0.08369933985) 56 112 1
(0.6646941666 0.08830672915 0.1676529167 0.07934618754) 50 97 1
(0.2122971514 0.3938514243 0.2241446142 0.1697068101) 174 341 2
(0.9323982005 0.025028146 0.008772753759 0.03380089976) 175 345 1
(0.4206341062 0.2896829469 0.2870347337 0.002648213175) 179 351 2
(0.5256624992 0.06781643544 0.169352315 0.2371687504) 147 232 2
(0.6436709906 0.1781645047 0.1251319439 0.05303256081) 209 1047 2
(0.02869461611 0.04769363167 0.4856526919 0.4379590603) 57 114 2
(0.5846618797 0.2076690602 0.2071115814 0.0005574787939) 27 52 2
(0.2184729091 0.1670679442 0.3907635455 0.2236956012) 232 455 1
(0.4928590798 0.2535704601 0.1848663664 0.06870409373) 27 54 2
(0.4187653274 0.2849534882 0.2906173363 0.005663848103) 206 407 2
(0.5957278541 0.202136073 0.1807567773 0.02137929562) 84 108 1
(0.1240612636 0.08258391311 0.4379693682 0.3553854551) 50 97 1
(0.08821886888 0.4558905656 0.3544738895 0.1014166761) 179 294 1
(0.4955664221 0.07674981935 0.252216789 0.1754669696) 24 46 1
(0.8206276104 0.03012494227 0.0896861948 0.05956125253) 269 528 1
(0.2173656311 0.1240968743 0.2672203101 0.3913171844) 179 1046 1
(0.003113173385 0.4984434133 0.02817732952 0.4702660838) 80 159 1
(0.4637694051 0.2552636391 0.2681152975 0.01285165837) 118 231 1
(0.2417912074 0.3791043963 0.1974288541 0.1816755422) 113 224 1
(0.1751614003 0.1451755932 0.4124192999 0.2672437066) 52 101 1
(0.01618588732 0.4919070563 0.3741979823 0.117709074) 231 397 1
(0.3029553466 0.2608175087 0.08770481801 0.3485223267) 189 372 1
(0.3748666255 0.2152535514 0.3125666872 0.0973131358) 292 576 2
(0.2473928302 0.3406759979 0.035627587 0.3763035849) 148 292 1
(0.2546335312 0.2778431743 0.3726832344 0.09484006013) 231 456 2
(0.1119575258 0.4440212371 0.3011206636 0.1429005735) 238 470 1
(0.1495246432 0.1145167424 0.310720936 0.4252376784) 54 49 2
(0.1749064917 0.2606138017 0.4125467542 0.1519329524) 22 45 2
(0.625892994 0.187053503 0.06035650773 0.1266969953) 18 1074 2
(0.1274853308 0.4362573346 0.3358413029 0.1004160317) 29 1085 2
(0.02578026597 0.3322664382 0.487109867 0.1548434288) 178 352 2
(0.8531610011 0.06705767963 0.07341949944 0.006361819803) 12 22 1
(0.4038453422 0.0222963413 0.2757809876 0.2980773289) 46 91 1
(0.1300961783 0.1662920559 0.4349519109 0.268659855) 56 112 2
(0.2594029848 0.1535629074 0.2167356002 0.3702985076) 178 293 2
(0.4191532638 0.2205527835 0.2904233681 0.0698705846) 28 57 2
(0.1911585423 0.04919364342 0.4044207289 0.3552270854) 349 688 2
(0.06352212439 0.4682389378 0.4398789381 0.02835999975) 25 48 2
(0.06793566791 0.427023107 0.466032166 0.03900905902) 207 409 2
(0.2323768498 0.3838115751 0.3659288401 0.01788273497) 144 226 1
(0.1946371383 0.2791248932 0.1235565376 0.4026814308) 105 207 1
(0.56346609 0.002948194862 0.2153187602 0.218266955) 148 234 2
(0.04736197805 0.476319011 0.0307215206 0.4455974904) 24 46 2
(0.1711075182 0.4144462409 0.09073981929 0.3237064216) 59 58 1
(0.6051990241 0.03933290287 0.197400488 0.1580675851) 87 173 2
(0.1314896651 0.2193521795 0.4342551674 0.2149029879) 79 157 2
(0.3089275055 0.1641645616 0.1813716856 0.3455362473) 83 106 2
(0.356380187 0.3218099065 0.2357156405 0.08609426603) 14 1070 2
(0.005328338612 0.4973358307 0.2364329818 0.2609028488) 23 44 2
(0.2784283744 0.3607858128 0.2594776449 0.1013081679) 175 345 2
(0.0214563914 0.4892718043 0.03175597552 0.4575158288) 171 279 1
(0.4522060297 0.2738969852 0.2267145475 0.04718243768) 164 321 2
(0.04644279211 0.2894817261 0.1872968779 0.4767786039) 137 212 2
(0.1273843387 0.4363078307 0.224800118 0.2115077127) 25 1081 2
(0.3680128979 0.2029998132 0.3159935511 0.1129937379) 55 107 1
(0.5548190116 0.2225904942 0.03513677333 0.1874537209) 13 24 2
(0.5052602502 0.2473698749 0.2088284938 0.03854138112) 140 277 1
(0.03643948193 0.481780259 0.319300649 0.1624796101) 261 456 1
(0.589616098 0.165622404 0.205191951 0.03956954703) 23 44 1
(0.449054016 0.1906396143 0.275472992 0.08483337766) 206 404 1
(0.5532697583 0.2052933292 0.2233651209 0.01807179167) 59 117 2
(0.3848075729 0.3075962136 0.1620817348 0.1455144788) 28 57 1
(0.1990926055 0.01703300224 0.383420695 0.4004536972) 149 235 2
(0.3041067373 0.2760200776 0.3479466314 0.07192655379) 232 458 2
(0.1722722491 0.1506352047 0.4138638754 0.2632286708) 86 171 2
(0.006614783784 0.4966926081 0.3523660698 0.1443265384) 298 529 1
(0.6771862464 0.1614068768 0.1567226262 0.004684250653) 83 165 1
(0.8209118915 0.08041317298 0.009130881284 0.08954405426) 379 688 2
(0.04529611452 0.4773519427 0.2522446147 0.225107328) 13 1069 2
(0.6208391847 0.1794179624 0.01016244524 0.1895804077) 115 169 2
(0.2627176842 0.1905251423 0.3686411579 0.1781160156) 20 38 1
(0.2165967102 0.3917016449 0.292008581 0.09969306389) 202 396 2
(0.1856872907 0.3875844442 0.01957191046 0.4071563546) 54 107 1
(0.7510855211 0.1134356033 0.1244572395 0.01102163612) 165 323 1
(0.06054209786 0.1487749393 0.4697289511 0.3209540118) 54 108 2
(0.7355585697 0.1322207151 0.04597559839 0.08624511674) 146 288 2
(0.1134474712 0.3871241977 0.4432762644 0.05615206674) 238 470 2
(0.3078736688 0.004756664771 0.3460631656 0.3413065008) 202 399 2
(0.05313050822 0.4734347459 0.462070762 0.01136398391) 386 758 2
(0.2833494932 0.3583252534 0.3473900443 0.01093520914) 25 1081 2
(0.04642889204 0.476785554 0.4290653289 0.04772022509) 119 233 2
(0.6389183917 0.01663383311 0.163906971 0.1805408041) 81 102 2
(0.02666564397 0.486667178 0.2052001962 0.2814669819) 27 52 2
(0.01390884604 0.493045577 0.2204974729 0.2725481041) 45 31 1
(0.3459244222 0.3270377889 0.005215807821 0.3218219811) 55 51 1
(0.3287905172 0.3356047414 0.2955237237 0.04008101768) 76 92 1
(0.1009193062 0.386342947 0.4495403469 0.06319739989) 207 406 1
(0.4058117079 0.2970941461 0.1722487759 0.1248453702) 13 26 2
(0.04888714878 0.4755564256 0.03387874999 0.4416776756) 160 257 1
(0.1563011091 0.2323584837 0.1894909617 0.4218494454) 266 466 2
(0.003425104715 0.2361249297 0.4982874476 0.262162518) 145 284 1
(0.09860498305 0.241449505 0.2092480035 0.4506975085) 20 1076 1
(0.7872079141 0.1063960429 0.05338417369 0.05301186926) 56 112 1
(0.5558290397 0.1405162403 0.08156923985 0.2220854801) 179 1046 1
(0.3274918992 0.2236647591 0.3362540504 0.1125892913) 111 217 1
(0.1034019094 0.2207529945 0.4482990453 0.2275460508) 260 513 2
(0.1091686717 0.4454156641 0.1018777021 0.343537962) 355 699 2
(0.449749078 0.009484312473 0.2656411485 0.275125461) 233 459 1
(0.001291900378 0.4993540498 0.1876204019 0.3117336479) 320 572 1
(0.3113102382 0.3443448809 0.242829462 0.1015154189) 148 234 1
(0.136966107 0.2976030796 0.1339138669 0.4315169465) 89 1043 1
(0.09519648429 0.4524017579 0.004414925855 0.447986832) 144 282 2
(0.1224858096 0.3347947528 0.1039623424 0.4387570952) 173 341 1
(0.5784158871 0.1870183359 0.02377372058 0.2107920564) 88 116 2
(0.4383172842 0.1439945709 0.2808413579 0.136846787) 85 169 2
(0.893717642 0.053141179 0.05276534972 0.000375829285) 208 352 1
(0.3844281947 0.3077859027 0.3050196036 0.002766299067) 209 353 1
(0.5620459149 0.1161055746 0.102871468 0.2189770426) 54 49 2
(0.3595903435 0.2425103292 0.07769449905 0.3202048283) 138 214 2
(0.8761449116 0.06192754422 0.006182193494 0.05574535073) 162 317 2
(0.07553635734 0.4622318213 0.3207987031 0.1414331183) 82 104 1
(0.7363395595 0.1318302203 0.07952803859 0.05230218166) 55 107 2
(0.0682124313 0.1326305301 0.3332632543 0.4658937844) 264 462 2
(0.3427053651 0.3286473175 0.05614183369 0.2725054838) 201 397 1
(0.1181947725 0.2943406585 0.1465619552 0.4409026137) 178 351 1
(0.5869509015 0.2065245493 0.1265145406 0.08001000862) 88 175 1
(0.7287361878 0.1356319061 0.06662625548 0.0690056506) 449 825 1
(0.1040085578 0.4479957211 0.2428078151 0.205187906) 22 44 2
(0.4388125659 0.2805937171 0.09559579111 0.1849979259) 77 152 2
(0.1325779545 0.4337110227 0.03215458974 0.401556433) 27 1083 2
(0.7350158606 0.1324920697 0.02672838155 0.1057636882) 119 233 2
(0.1974065384 0.3997956447 0.4012967308 0.001501086116) 47 94 2
(0.04668846482 0.4371945931 0.03946117448 0.4766557676) 27 54 1
(0.6298520644 0.178079586 0.006994381795 0.1850739678) 142 222 2
(0.6468542323 0.1765728838 0.1033066202 0.07326626362) 449 825 1
(0.9400354832 0.00187313999 0.02810911842 0.02998225841) 169 275 2
(0.3784054969 0.3107972516 0.1859907041 0.1248065475) 89 1043 2
(0.8865599521 0.04322808243 0.05672002397 0.01349194154) 27 52 1
(0.06254035351 0.4687298232 0.2751027873 0.193627036) 262 514 2
(0.2169075357 0.1196834957 0.2718627364 0.3915462322) 327 586 2
(0.7145688287 0.05029842938 0.09241715628 0.1427155857) 141 220 2
(0.3139442957 0.3430278522 0.009370743409 0.3336571088) 22 44 2
(0.8635742271 0.06821288644 0.02015313658 0.04805974986) 296 584 1
(0.1339507604 0.2643778046 0.1686468152 0.4330246198) 177 349 1
(0.6769805622 0.1615097189 0.08708319542 0.0744265235) 445 874 2
(0.02260552363 0.4886972382 0.2548680751 0.2338291631) 105 205 2
(0.1488328962 0.2755198595 0.4255835519 0.1500636924) 117 232 2
(0.1470476764 0.4264761618 0.4100947371 0.01638142471) 166 328 1
(0.1386237041 0.4306881479 0.2510525173 0.1796356307) 142 281 1
(0.360052903 0.3197095755 0.3199735485 0.0002639730371) 269 528 1
(0.3150752572 0.3424623714 0.23646401 0.1059983614) 26 1082 2
(0.1706072907 0.4146963547 0.2371500764 0.1775462782) 145 284 2
(0.1927404814 0.4036297593 0.1611766858 0.2424530735) 233 457 2
(0.4902141933 0.01250771415 0.2423851892 0.2548929033) 83 164 1
(0.550484296 0.224757852 0.1638413727 0.06091647925) 174 341 2
(0.8151768917 0.05472320731 0.03768834686 0.09241155417) 204 402 1
(0.09809114616 0.4509544269 0.2662542218 0.1847002051) 24 49 1
(0.269792839 0.3651035805 0.3069710367 0.05813254382) 145 286 2
(0.02241512978 0.3647778147 0.4887924351 0.1240146204) 82 163 2
(0.3435843867 0.2933885389 0.3282078067 0.03481926779) 165 326 2
(0.8164472663 0.009442004743 0.08233436209 0.09177636683) 175 345 1
(0.6232982723 0.04415236984 0.144198494 0.1883508638) 56 53 2
(0.3944379447 0.3027810276 0.04411333886 0.2586676888) 42 83 2
(0.3796512049 0.2674908705 0.3101743976 0.04268352709) 55 110 2
(0.006169088394 0.4969154558 0.4538789235 0.04303653234) 24 49 1
(0.02462495931 0.4876875203 0.2870301503 0.2006573701) 82 104 1
(0.1830071695 0.4084964152 0.04984417413 0.3586522411) 54 105 2
(0.8055550027 0.09722249864 0.03146346589 0.06575903275) 24 48 2
(0.8874763645 0.02969219511 0.05626181773 0.02656962262) 111 220 2
(0.3549798983 0.1089393287 0.3225100508 0.2135707222) 42 84 2
(0.443512291 0.1230370793 0.2782438545 0.1552067752) 162 320 2
(0.2949062267 0.3525468866 0.1767664436 0.175780443) 148 293 1
(0.1652580689 0.4173709655 0.04288608236 0.3744848832) 140 276 2
(0.433934479 0.1899535735 0.2830327605 0.09307918703) 327 645 2
(0.6796230197 0.009011199811 0.1511772903 0.1601884902) 28 56 1
(0.1572550206 0.4213724897 0.2143506152 0.2070218745) 419 825 1
(0.1116572383 0.4441713809 0.07517004632 0.3690013345) 81 102 1
(0.5240280626 0.1664543133 0.2379859687 0.07153165536) 131 256 1
(0.4513017176 0.2743491412 0.1170082956 0.1573408456) 48 93 2
(0.4457211934 0.06294916692 0.2141902364 0.2771394033) 148 292 1
(0.2595885899 0.2119303366 0.1582753685 0.3702057051) 111 219 1
(0.1201583412 0.4399208294 0.437178028 0.002742801408) 267 526 2
(0.04251931115 0.1446212172 0.4787403444 0.3341191272) 114 223 1
(0.5643321713 0.1119302325 0.2178339143 0.1059036818) 231 453 1
(0.08341510834 0.1810402584 0.4582924458 0.2772521874) 20 41 2
(0.2074358991 0.1202483616 0.2760336889 0.3962820504) 88 116 2
(0.07383096451 0.4630845177 0.3929726597 0.07011185801) 379 747 1
(0.2550256685 0.2848385816 0.08764858409 0.3724871657) 23 1079 1
(0.7266337099 0.136683145 0.03755614034 0.0991270047) 22 42 2
(0.5234659097 0.02002809061 0.2382670452 0.2182389546) 269 528 1
(0.7916330161 0.1041834919 0.07289847936 0.03128501257) 327 645 1
(0.05183748323 0.4740812584 0.2180170143 0.2560642441) 167 330 1
(0.6208446657 0.1113123252 0.1895776672 0.07826534196) 84 164 1
(0.5396088702 0.1856900499 0.04450551496 0.2301955649) 290 513 2
(0.1131738911 0.4434130545 0.2754369548 0.1679760997) 89 117 1
(0.7416397828 0.1291801086 0.05834931415 0.07083079447) 88 172 2
(0.6543133983 0.1291412598 0.1728433008 0.04370204102) 88 172 1
(0.1590903347 0.008816192034 0.4204548326 0.4116386406) 112 219 1
(0.01456542795 0.492717286 0.4684733103 0.02424397577) 289 569 2
(0.679094859 0.0794331747 0.08101939579 0.1604525705) 145 286 1
(0.8340260218 0.006784794828 0.07620219427 0.0829869891) 142 280 1
(0.1472228173 0.02597803514 0.4004105562 0.4263885914) 326 642 1
(0.4603072111 0.2698463944 0.2264826034 0.04336379103) 178 352 1
(0.1141088384 0.1807349778 0.262210603 0.4429455808) 25 1081 1
(0.8344271623 0.07649130984 0.08278641886 0.006295109021) 82 163 2
(0.3484666304 0.3257666848 0.1459327617 0.1798339231) 53 47 1
(0.5780206933 0.2109896533 0.09885440297 0.1121352504) 350 631 1
(0.3895987604 0.2230094398 0.3052006198 0.08219117999) 52 101 1
(0.1525259458 0.4237370271 0.2500158338 0.1737211933) 144 226 1
(0.2795252445 0.1669870602 0.1932503175 0.3602373777) 318 568 2
(0.2155037071 0.3922481465 0.08041554212 0.3118326043) 51 43 1
(0.9060539649 0.03465183334 0.04697301753 0.01232118419) 147 291 2
(0.5251790676 0.2374104662 0.1864828792 0.05092758696) 28 57 1
(0.5335455285 0.2332272358 0.04833051593 0.1848967198) 111 220 1
(0.4392780511 0.2803609744 0.1425307699 0.1378302045) 227 445 2
(0.1004168982 0.3721275615 0.07766398944 0.4497915509) 81 160 1
(0.5418143018 0.2290928491 0.1843688724 0.04472397666) 118 234 1
(0.574168822 0.09439885139 0.212915589 0.1185167376) 200 392 1
(0.2061462488 0.004484994759 0.3924418808 0.3969268756) 87 114 2
(0.458998613 0.06911300354 0.2013876899 0.2705006935) 298 587 1
(0.2569949048 0.2734822087 0.3715025476 0.09802033887) 88 175 2
(0.4189139736 0.0789179683 0.2905430132 0.2116250449) 113 224 2
(0.4750561059 0.1014730481 0.1609988989 0.262471947) 117 231 1
(0.4507942519 0.274602874 0.1665728112 0.1080300628) 204 402 2
(0.2738553428 0.3630723286 0.2236508701 0.1394214585) 111 219 2
(0.04210738088 0.2403925077 0.4789463096 0.2385538019) 297 586 2
(0.7144954166 0.1427522917 0.09840299066 0.04434930106) 18 34 2
(0.9453055247 0.02734723765 0.00797888013 0.01936835752) 27 1083 2
(0.01573245423 0.4921337729 0.03174999058 0.4603837823) 21 40 2
(0.02234936964 0.4888253152 0.3585481539 0.1302771613) 26 53 1
(0.04868722134 0.07646731615 0.3991890732 0.4756563893) 353 695 1
(0.3041386211 0.3479306894 0.0002785279321 0.3476521615) 43 83 2
(0.5007618371 0.2496190814 0.068079654 0.1815394274) 54 105 2
(0.2622032668 0.3688983666 0.2204615513 0.1484368153) 229 452 1
(0.2907801816 0.3546099092 0.2427610437 0.1118488655) 107 209 2
(0.797977381 0.1010113095 0.02432127553 0.07669003398) 176 348 1
(0.4196512521 0.290174374 0.1405432515 0.1496311225) 413 755 1
(0.6306904151 0.1846547924 0.1403880804 0.04426671205) 144 226 1
(0.4748836381 0.07629863053 0.262558181 0.1862595504) 22 42 1
(0.06820039438 0.3233411399 0.1425586629 0.4658998028) 87 114 2
(0.2090437228 0.3515048719 0.04397326674 0.3954781386) 87 114 2
(0.3142534306 0.3428732847 0.22834907 0.1145242147) 144 285 1
(0.128211709 0.3316421868 0.4358941455 0.1042519587) 51 102 2
(0.4690405217 0.2654797392 0.1638939671 0.101585772) 135 208 1
(0.3494829179 0.1845832391 0.325258541 0.1406753019) 252 494 1
(0.2861841014 0.3569079493 0.3475307939 0.009377155419) 209 412 1
(0.5143591348 0.1860596128 0.2428204326 0.05676081978) 28 57 2
(0.07744640732 0.4612767963 0.4306597329 0.03061706342) 259 508 2
(0.5120844352 0.01466117334 0.2292966091 0.2439577824) 143 282 1
(0.0787242417 0.4606378791 0.3988255253 0.06181235385) 25 51 1
(0.04572022925 0.3168340967 0.4771398854 0.1603057887) 85 166 1
(0.361498069 0.3192509655 0.05446863528 0.2647823302) 115 169 1
(0.4719377159 0.2640311421 0.009073795097 0.254957347) 233 457 2
(0.7667004056 0.05905069795 0.1166497972 0.05759909927) 20 41 2
(0.05191422671 0.4740428866 0.4327303982 0.0413124884) 174 344 1
(0.5769176022 0.2115411989 0.1571607239 0.05438047495) 179 1046 2
(0.458855939 0.1146346478 0.2705720305 0.1559373826) 23 44 1
(0.243007483 0.3784962585 0.3070864151 0.07140984345) 18 1074 2
(0.254711323 0.3726443385 0.2914679522 0.08117638635) 117 232 1
(0.0725825572 0.4637087214 0.03744306318 0.4262656582) 6 13 1
(0.4009152504 0.2995423748 0.01398310929 0.2855592655) 357 701 2
(0.6028544487 0.09948816554 0.09908461011 0.1985727757) 173 341 1
(0.120963992 0.03915246675 0.4003655372 0.439518004) 204 344 2
(0.1189873623 0.2028402353 0.4405063188 0.2376660835) 295 579 1
(0.5878378116 0.2060810942 0.07823841129 0.1278426829) 107 153 1
(0.04799502917 0.4760024854 0.1671249674 0.308877518) 478 883 1
(0.5069652986 0.1310710995 0.1154462512 0.2465173507) 103 145 2
(0.005694098358 0.4399773315 0.4971529508 0.05717561929) 52 101 1
(0.01278281827 0.4936085909 0.09348216723 0.4001264236) 85 166 2
(0.6690704795 0.1546301302 0.1654647603 0.01083463005) 54 105 1
(0.66201538 0.16899231 0.1559388961 0.01305341392) 208 352 1
(0.4226525913 0.04758257095 0.2410911334 0.2886737044) 114 167 2
(0.5107396948 0.2446301526 0.06617551543 0.1784546372) 14 26 2
(0.5186001915 0.1294903786 0.2406999043 0.1112095257) 199 390 1
(0.5179689206 0.2410155397 0.210674522 0.03034101769) 262 514 2
(0.005327859939 0.1802071699 0.3171289001 0.49733607) 26 1082 1
(0.7890750306 0.1054624847 0.04827803812 0.05718444658) 84 164 2
(0.4900439591 0.0006275965417 0.2543504239 0.2549780204) 144 284 1
(0.3588410134 0.3205794933 0.1051564691 0.2154230242) 22 1078 2
(0.6643669841 0.1678165079 0.1343088082 0.03350769977) 87 172 2
(0.1267520156 0.4366239922 0.04821183683 0.3884121554) 263 518 2
(0.4641946951 0.2679026524 0.08016568347 0.187736969) 262 516 2