/*--------------------------------*- C++ -*----------------------------------*\
  =========                 |
  \\      /  F ield         | OpenFOAM: The Open Source CFD Toolbox
   \\    /   O peration     | Website:  https://openfoam.org
    \\  /    A nd           | Version:  7
     \\/     M anipulation  |
\*---------------------------------------------------------------------------*/
FoamFile
{
    version     2.0;
    format      ascii;
    class       vectorField;
    location    "0.01/lagrangian/dsmc";
    object      U;
}
// * * * * * * * * * * * * * * * * * * * * * * * * * * * * * * * * * * * * * //


3247
(
(-303.034195 404.3121899 402.7407804)
(-226.3506198 -83.6217145 -1.014232884)
(-171.3240052 -181.6979118 428.8164894)
(-216.8235843 -223.8808691 -604.3385506)
(-486.4690212 469.0652083 616.097713)
(536.7730054 -82.52908596 944.2321564)
(-6.917577187 503.680059 -841.2769624)
(50.62634923 195.6723022 815.8873598)
(252.5900964 115.2069333 314.5020135)
(-747.9117871 -149.9847414 188.9710486)
(-188.5859441 952.1070163 151.094558)
(-173.3434906 88.07665462 842.1870686)
(31.98524687 -85.96187538 -274.9164509)
(-314.9508098 -403.7371785 196.6066543)
(-659.2827341 480.9197924 -364.3541698)
(-50.123736 -224.7416158 -517.7167569)
(-229.7233849 -131.3296124 256.2488051)
(436.9339689 131.439272 337.2817642)
(-46.58789062 57.67733411 7.463591427)
(358.6805577 -318.9249024 -297.5106241)
(121.2383555 -397.0570454 342.425616)
(-374.1482732 335.694722 -484.0825557)
(-114.6316858 -390.3540358 -179.8870001)
(-206.6470943 -262.7540742 -360.7478513)
(-365.4059621 99.80964469 -92.07038879)
(50.08561297 311.5542035 -56.65156805)
(11.50205341 88.22773083 742.2834361)
(445.746776 -116.5939182 -544.479682)
(-229.1027598 -515.8165646 466.1924884)
(-304.9555028 -30.5987006 -220.8370411)
(-425.0036856 620.5877507 -298.8310579)
(500.3325771 848.5996503 -128.2917593)
(-538.556211 375.8285311 797.2200567)
(2.653053729 189.4559701 145.9902854)
(38.64085526 -238.709822 368.5981526)
(89.08380371 161.5676808 144.599423)
(-675.1079858 -159.8491884 -156.5617906)
(-523.6978785 250.8793757 -350.6189606)
(-112.4457385 -64.28414377 -94.77000411)
(-102.378785 292.1550741 -125.9507024)
(234.7257962 -82.36698406 697.7542444)
(-174.9482951 304.9954756 -16.03276248)
(198.3765168 50.58516586 130.3385692)
(-187.0663966 -576.0869872 -295.2592234)
(328.6628296 507.6669954 -303.2861177)
(-532.7661609 -337.900481 -5.72192346)
(-58.81595901 -51.74893918 450.0413929)
(31.97223962 -12.01869355 -466.8104945)
(-837.043259 336.3471401 124.9543081)
(682.7672819 155.7351787 -154.7281101)
(-0.07808171248 -56.65385591 -843.2687691)
(52.64934272 225.3935704 186.6954277)
(-88.90860586 87.13488509 -175.0993676)
(260.4525396 357.0981713 -134.1163977)
(922.9567062 -348.3531875 345.3894697)
(-878.2946413 -419.3551545 -417.6711934)
(64.88874041 -149.9050622 285.5469764)
(-469.3064182 123.2600183 -675.3020687)
(-145.1218949 -83.62518988 423.9886348)
(552.6970943 -104.4590293 368.3767147)
(-325.5835378 -80.84151047 72.62305726)
(36.39782878 -12.92069581 551.921859)
(-288.9677206 -234.0916946 -484.6399769)
(559.6427909 46.64537234 87.81578174)
(-407.1868509 -382.7706854 -262.772326)
(354.5964894 289.7278813 193.8437929)
(-302.0372836 329.2208342 249.5282853)
(152.8306387 151.1788685 123.9932447)
(-215.9799581 -262.3286779 -216.8672984)
(-299.6206201 -468.6230889 172.7940032)
(-277.7341728 133.6164806 178.0130386)
(-107.4649162 471.9114163 -541.3649959)
(89.65190268 -139.6450369 -230.7262573)
(-953.2001145 -4.006218036 368.6615499)
(-598.4691899 -134.9807098 -177.1808363)
(-24.51554588 233.9542074 -175.8167784)
(-107.3716566 -139.9459344 -333.6858081)
(-790.6916273 -235.5531568 -35.47628132)
(185.9619805 986.6406428 -139.3841485)
(264.4899888 159.3669423 -88.69017839)
(576.8919782 -782.2421588 -449.6030633)
(-69.91754987 -314.7593853 21.24863332)
(-370.9929819 464.4585476 -68.04177142)
(421.1561682 -321.4161948 -55.81620883)
(227.4951941 266.5669524 -196.1839463)
(-67.62881903 62.35826213 550.237837)
(267.5814114 161.5997835 78.10819807)
(612.0675985 -531.4247468 -458.3352578)
(-226.2614375 -243.1904291 174.0135792)
(54.7868623 517.2669173 -81.30145089)
(452.5157001 475.9262877 18.73857587)
(351.3710071 310.4244174 156.9349468)
(115.7408027 445.9921021 439.390662)
(-130.0614328 -230.426242 -453.2145514)
(-462.0250624 240.2350613 -285.1926907)
(218.2129394 -80.91212553 239.0794097)
(298.7674132 -3.253538808 -73.93255686)
(-394.0642387 -59.79760637 -228.8185798)
(-87.98413071 140.6684054 -280.7934414)
(-185.8167817 -114.4636616 -488.0773632)
(132.4102188 260.5223747 386.171766)
(-26.37815624 -532.1882177 -91.14117875)
(498.6101955 88.25461478 380.758517)
(-452.9668319 -379.0699721 -175.7402228)
(112.3106723 -384.6166085 -23.32296057)
(-132.5496976 -478.5886326 -272.8344725)
(191.9688447 472.040917 113.7576767)
(231.0918625 -33.34323234 280.0394093)
(-76.69384048 -132.6889063 231.7157354)
(-113.358806 289.9485797 -514.1531302)
(236.6473477 70.16587923 206.4605237)
(413.5764894 686.8133346 -481.5638017)
(-28.80391344 -232.0981052 -217.0140774)
(-656.5340055 -450.1866926 172.3909014)
(-552.4043485 -111.3303249 -590.454724)
(184.6108204 -168.729392 320.3694255)
(40.35705231 -179.9061734 -239.0090806)
(-188.0161833 319.3990008 -150.2359237)
(-84.27915489 -258.5804614 -215.1099288)
(-171.6071473 354.2099138 152.8896985)
(-31.18085201 -367.6476913 84.20521486)
(424.1542686 -294.6198077 129.662315)
(-100.6087521 98.94389041 46.68687016)
(195.947564 302.6088183 -62.71196498)
(78.93254848 -493.5079499 214.0434571)
(460.1167027 142.9249371 -226.5739559)
(-16.01316432 -94.34526435 -468.9087345)
(-319.1767836 364.7237705 30.93077533)
(-149.2327635 -104.2846266 -166.7093863)
(331.8834751 366.2657357 -379.5506549)
(-648.2194945 67.38086675 101.6531996)
(102.6465907 -635.0713398 -108.9369302)
(-434.214424 631.5990767 -235.5618172)
(-128.0678444 -146.2660827 -189.9831382)
(413.2962124 -170.1760104 -329.6948485)
(376.2068832 48.18064339 -390.191835)
(536.8067766 292.3895659 -310.5764473)
(4.42593217 464.9733901 144.7760512)
(-868.1471306 -274.0001231 641.7207786)
(-319.8790262 109.002349 226.5984289)
(-589.3411888 50.8567853 755.6122708)
(-3.76902858 219.0708217 240.68136)
(-242.3328272 -11.04217175 -296.149439)
(-122.0076008 3.968548729 581.6912495)
(384.0543241 237.3612891 116.7297824)
(430.8034418 -190.9484015 138.7222875)
(-150.4361696 -274.9279413 483.8820888)
(-355.5708607 371.6603578 629.6376864)
(54.1069856 -1118.220795 -83.74199602)
(29.9516798 -17.24719346 -145.2737349)
(289.4126903 272.1683776 -433.5826295)
(483.9731857 -315.3873482 -464.0157186)
(-109.0610699 54.60701352 -125.7912301)
(-134.265403 1.377448793 356.5970807)
(341.2394839 -173.745892 72.50470037)
(67.46111595 -269.7971362 74.37418779)
(-0.6813503158 -108.675056 -130.7059391)
(370.3655096 34.3290243 -770.9692941)
(-652.4605846 512.2319378 -104.9204315)
(171.9211405 298.1347586 348.6084346)
(-300.3393674 -569.7847723 361.5308513)
(-182.1464785 -59.47750434 56.68780603)
(-70.83541657 653.8512585 -624.9608451)
(-314.9787967 45.80864105 369.4699831)
(364.3485353 156.1496346 -108.8737739)
(-234.5689737 100.1690626 441.4565998)
(255.2030686 105.584747 328.7210206)
(19.55034395 319.4812315 -574.3195716)
(-156.0270159 -153.0812115 214.1822698)
(311.630694 53.59851792 88.94515919)
(95.89594511 -701.3967701 -474.8561255)
(-83.01559697 -46.30357148 -583.2448824)
(-106.7651391 113.0323628 -656.0262525)
(15.98157209 171.9251536 -139.2045366)
(149.9657874 229.381469 -545.5449502)
(-399.1851717 -185.2727228 -699.1087686)
(287.5656532 -412.165167 107.4731242)
(-159.5503138 727.1235133 278.2847472)
(-699.6335648 -155.3144724 -332.0192796)
(-624.2168521 125.3539202 435.6865622)
(343.2495606 4.844057959 367.8200844)
(25.04880335 73.92101624 -150.3252673)
(243.9286643 426.2572006 -602.2944996)
(-24.25843064 546.4298576 -506.8950585)
(-236.4333009 32.89478858 -240.2617391)
(-14.78980044 -170.443937 -596.0356151)
(177.8434669 -274.4403765 -420.5982392)
(320.5928374 -1.484038978 -98.42182323)
(-97.44939093 186.1686883 137.416233)
(-104.6131502 267.9975362 24.72752175)
(-316.4612031 103.5511261 82.46631361)
(244.7291456 -55.90736856 22.33186485)
(-140.9565417 -105.6660607 -25.94610652)
(-484.6089861 361.6182146 -17.82545952)
(88.54182263 85.26708423 460.5157962)
(-422.1788393 456.5005958 376.4351664)
(-519.3257228 85.23504221 -563.8894367)
(312.6354313 26.96152747 1021.522635)
(272.7478488 -20.35105453 -248.5662629)
(-208.1203017 -30.6419408 283.3386007)
(-563.2634046 -647.0622423 -122.3122539)
(-599.0206471 3.58339393 -160.3627696)
(42.32630404 -190.7729678 180.5643435)
(-107.6695929 425.9151517 41.45868915)
(-539.9798105 -378.7395751 530.0601543)
(49.57443574 133.8950772 271.8182773)
(-379.9879719 171.0922803 -94.66231069)
(321.9864113 -524.323415 115.9461086)
(17.49644738 -69.45893494 -352.9466322)
(-75.2044321 652.4574461 -699.4581668)
(95.06074711 351.1265082 499.8554239)
(124.7478421 709.5606732 755.5944037)
(-274.2870645 -125.577961 -350.413502)
(-429.4331212 -303.048688 517.2416077)
(-64.45698924 171.78754 681.3384695)
(-306.5672148 150.9924734 564.4205515)
(68.1325172 347.5097842 -439.4592475)
(-401.4905623 -129.7749029 -270.0522312)
(-63.3009699 301.6901798 104.394231)
(-294.3487922 315.6846908 -744.4745336)
(-509.8298819 298.1209995 -226.9169222)
(-1074.336974 -645.5944861 -624.351204)
(779.2344057 312.5093897 -148.8382328)
(-410.3899144 -352.6970401 249.2699588)
(344.8761202 27.26706986 276.8272178)
(-582.985068 -111.2675632 131.7386448)
(-49.9834262 189.0902869 -426.139394)
(92.98107868 127.8340809 414.225127)
(-283.993114 106.7754811 -71.27590151)
(112.0683439 130.4131432 -580.7458194)
(413.376672 -65.58286224 215.8446941)
(-180.0508414 -576.9804573 461.9341831)
(250.9826222 726.281146 -613.5616538)
(346.059881 -65.25213917 -239.0368929)
(-582.4404002 -411.0209655 -495.2739829)
(315.179481 574.7045411 -51.07711474)
(39.21934569 -539.1970246 -168.6429804)
(-166.3834583 -4.045619444 -354.072152)
(420.7256555 -570.5801608 -143.9382031)
(-259.156772 56.13664362 215.9831657)
(848.5617225 480.3183731 751.0881116)
(843.7869623 5.80359207 -13.57924033)
(-63.72106825 -220.2718271 -356.8556539)
(178.8645325 64.48807317 -57.25371111)
(-447.4580661 -85.3009846 -361.7081401)
(-0.700014577 24.94869923 504.4694058)
(12.38306314 253.8582218 -52.68493195)
(-676.8574162 160.8459927 -884.8793752)
(-42.5635814 -238.9804021 2.424539537)
(-158.8203325 362.3639201 297.7537554)
(106.3270457 -78.40732428 336.4948896)
(9.978629857 126.9272715 75.25492002)
(-652.8959132 13.42105072 -548.4619767)
(-103.0810782 316.4914138 -271.9608389)
(-226.1663348 -387.9801445 -446.7457524)
(-267.873917 -324.4652031 -271.1245907)
(62.48032798 -182.6959561 24.0076141)
(-437.0099178 186.0394485 -426.282502)
(98.85549905 24.99903545 -207.9052747)
(-214.4710212 363.9366371 77.67245768)
(-332.8811321 -44.03763247 222.3773489)
(-365.6579695 -518.5417194 -16.40435586)
(61.54626538 -107.8966741 -60.75579435)
(-382.7489633 231.3520489 81.19099605)
(-827.3261488 165.9825497 150.0397113)
(548.004539 -150.5517878 298.4219559)
(291.2063016 770.8159654 629.7392938)
(29.8706802 651.507434 -444.7251078)
(-399.4056596 -400.4088877 527.7927692)
(512.6790404 -321.0021109 596.887297)
(-50.9505345 255.7561195 -198.7324765)
(327.608448 -34.44509804 235.1232294)
(-635.8739089 -16.62935112 332.0897506)
(-308.4575656 -456.2464052 -16.249006)
(-228.7781835 -1.161823537 -149.7696674)
(-337.7910138 1090.429866 199.0240492)
(-358.6078119 202.690856 3.614058703)
(444.1195164 1003.070422 174.442214)
(396.6694184 -154.623763 -69.99236197)
(-70.50479846 61.62195518 38.66970277)
(-188.1046674 98.37953467 110.5116993)
(541.8382736 -340.3978001 344.835723)
(220.3402097 374.0445809 -488.1055142)
(-509.5985756 -36.78311366 -65.35774253)
(-417.9432697 -139.3824183 152.6942188)
(-177.2123147 277.0778774 103.5960827)
(-226.8750259 215.6992253 194.3342999)
(42.7684177 214.0258963 419.6367287)
(241.112646 -20.47729037 -412.5462311)
(-459.2552715 -150.3635492 -226.3507727)
(-237.5274067 190.2077703 801.167952)
(-228.4987117 -187.6287225 -366.5877773)
(-292.4672397 -352.4342285 443.7206858)
(731.3366682 -475.9699074 311.1543784)
(239.0295367 282.9410308 212.4405638)
(-250.3318963 -102.4884392 290.3059299)
(165.9189642 -160.7229862 686.1436578)
(150.9329308 286.45232 -39.7983793)
(-104.2069318 161.8773535 135.7079024)
(105.2166017 163.0780125 -50.48935927)
(-217.9285594 -131.5852496 -41.28861021)
(758.1254471 -284.6913794 43.91639921)
(-236.2491165 -44.57154461 144.55594)
(-503.8536511 -3.982229743 -260.1620519)
(59.687152 195.0323419 -59.01267158)
(505.2551638 -390.5943926 420.6867746)
(449.8310625 232.0932593 8.186045155)
(-418.4485783 34.38908202 -36.73622995)
(-501.3732237 -942.7619626 -93.828905)
(-29.3838951 225.9056469 -371.0753583)
(215.3303772 -829.3059916 260.7120319)
(-245.5149783 245.3945299 -311.5207788)
(-140.2962553 119.3096739 -833.8072175)
(-400.5740878 -223.5288889 771.7833151)
(94.01496433 -162.5743259 118.9252056)
(113.9967529 251.8340951 -63.5532618)
(-354.7284978 310.0275487 -552.50994)
(183.9734697 574.7218348 556.9429676)
(-455.291624 -240.3280521 -888.2233424)
(-478.4284667 -92.50812838 131.7030784)
(-364.1319646 1407.969967 717.8848097)
(-278.5794682 400.8280311 113.5901495)
(-135.4980766 472.7313417 -44.56605781)
(135.2669212 -46.66120484 -187.8523322)
(-156.7555601 275.0775129 131.7085354)
(263.3573094 25.83164501 863.811129)
(-375.7395379 -51.80145702 -173.1614422)
(-492.5988933 8.996865521 -689.0281544)
(-133.0880156 -146.7955392 -360.5765632)
(-155.6932543 -19.18367374 388.8407483)
(-170.3265028 460.6206658 519.2608451)
(1044.035951 59.12992965 309.1030129)
(-152.5528206 -505.2541055 -686.640667)
(47.80122002 -64.03945633 -226.3816461)
(-269.9764815 -61.01068711 -136.9358526)
(-472.4900326 -163.7742118 -88.75233236)
(-331.026137 156.5463336 -81.38394145)
(80.55209582 658.8971676 585.2482658)
(-364.9744621 143.6289484 322.312621)
(-69.76670878 113.0496002 539.7973391)
(452.0764397 543.7434415 -947.3361174)
(-14.87195097 -251.3630964 -1.126870594)
(118.9659428 733.0430832 -241.1021737)
(277.7162023 301.5737204 -284.6307449)
(-19.23695231 -180.2745702 -179.9299481)
(35.96448301 345.3686068 -74.04480943)
(-39.48278679 -288.7740554 361.3466633)
(-71.66265319 244.8296838 120.7650242)
(302.7405165 -61.25836309 264.7504133)
(-446.8452597 125.7572204 -417.7613852)
(-198.3693268 151.8784818 -282.4058521)
(281.1300814 23.65279335 25.84285843)
(-473.5534759 163.9520482 -610.6594332)
(-435.5975151 489.4506506 876.9973177)
(-43.50572314 -364.0491747 -807.2460479)
(-101.434775 -142.3588726 286.8017565)
(-63.74081825 -162.6891905 -243.1623562)
(109.6040604 -305.6546729 -507.8088092)
(343.4702363 -388.0563925 88.97590409)
(-991.6303922 -345.5549521 726.5012268)
(-478.2831212 -1153.683078 -44.54895489)
(237.0722678 372.2261228 -452.3368911)
(-350.1128205 531.5306097 -407.3842596)
(-168.6842322 -491.0087961 154.6917948)
(189.7851307 -138.535354 -146.5366844)
(-405.5864554 17.53161699 -21.66923485)
(97.48904272 -650.3010819 -501.0740045)
(418.3391761 707.096867 -387.584301)
(-1.502194832 -117.2552562 319.0283506)
(-529.9994585 395.5298497 174.2352651)
(371.4256647 354.3663949 -385.7028636)
(611.1990489 -497.5306301 46.56635421)
(179.3474676 271.8105739 286.5363109)
(370.6350504 255.1302047 -395.7255035)
(220.8104416 -178.5592568 100.1393666)
(-126.9189279 -414.5410754 -341.4955116)
(-477.6191981 -11.15630146 119.2738651)
(-158.1346195 225.8995883 -390.5121025)
(304.5969555 -151.6061816 383.195528)
(258.9825553 -219.7170722 75.4948213)
(-391.0101558 116.3045438 -353.3598149)
(-427.4261983 105.4313148 -858.8409838)
(-91.50642176 -94.2467942 8.910491051)
(234.517407 378.7733266 -573.3973351)
(170.9488564 204.3450786 486.3016563)
(368.206452 46.98276813 -480.8718381)
(303.5524808 299.3379336 80.10413689)
(53.24362675 -846.0118468 -223.521381)
(346.0632985 123.4946669 -409.7785168)
(377.2412037 -655.5729058 33.28086785)
(304.3865582 274.8815103 -342.9833431)
(69.09059304 59.15213979 402.0535861)
(-221.8305499 450.2128764 918.0428884)
(-57.01143366 218.0165497 92.45599074)
(-293.6368599 -435.669008 -624.2427702)
(-159.7393119 578.8477656 -373.5640698)
(-439.0872568 88.05719777 571.2258708)
(-293.9989942 63.14417191 86.51338864)
(704.0237148 -91.24963782 299.8192706)
(353.6210185 -111.0329107 -1.080074385)
(232.4784992 377.7435288 -163.5643166)
(-210.2790867 388.2301122 575.4344963)
(-80.1582675 272.394983 -105.7675297)
(-157.9622776 96.92517782 209.8466188)
(172.3210922 -142.3234765 -219.0248633)
(474.9520812 802.0009302 -84.70930808)
(-179.8783255 170.7387992 -212.8820111)
(-245.0273492 454.3953997 765.4906849)
(-452.0532702 53.58476616 123.4145325)
(89.65155871 -206.9965295 -461.4085493)
(-394.0904441 128.3299265 326.5092206)
(90.4132329 68.98945551 -358.6914905)
(-282.8540912 -372.8577204 -436.5569014)
(241.9410719 110.8550885 92.29404325)
(-122.7726412 168.8601371 -806.5604134)
(-200.1863676 -210.8075495 198.103652)
(68.40503443 66.65182504 290.4079665)
(26.08309688 14.33488237 164.7115729)
(-654.6087983 33.54597534 -485.9881135)
(-345.9957585 -222.3881157 -186.5804244)
(-60.95203214 293.232674 112.8253413)
(79.47084958 -321.2451606 -230.5793163)
(96.58208515 282.480919 143.8548847)
(818.1670363 -525.8497664 -216.842007)
(44.17792153 -565.5203077 -141.2888893)
(-306.6035556 -518.9940735 -368.9749823)
(-243.3597858 -90.63767143 13.55313331)
(299.8698524 -316.8998702 -541.3136662)
(32.04667136 -312.4275147 -157.9167608)
(-404.0225072 127.5790811 -523.8070132)
(-185.0277376 -382.8311099 181.2393009)
(385.2974129 -683.5598766 -472.0693415)
(165.9321005 135.0205962 404.0349167)
(-108.5822506 -120.262493 -517.4719358)
(-162.5768723 149.4342688 -103.5984816)
(232.5855945 435.5821044 -240.8762839)
(141.76943 338.4789199 -8.9952749)
(27.22887493 311.4718062 -97.29924166)
(47.5643765 -785.9534112 -225.6708074)
(59.44717752 -231.5578093 -207.1931171)
(-13.41506005 562.7325654 -135.8563237)
(-789.8120718 704.8387112 39.30995494)
(81.59590914 -130.0157043 286.1036696)
(-351.047309 113.7153497 -250.8016354)
(-295.1378188 -486.0857126 -409.1640374)
(-392.5991226 -745.6655878 333.7117508)
(304.4297056 106.9549379 31.13208714)
(-285.5102298 335.5427175 -596.6661982)
(-1258.297692 430.512466 -435.6323177)
(81.54233703 -65.94029753 -453.1519918)
(-292.2598833 -154.4388838 225.5859418)
(-76.69009312 194.2023454 592.1473029)
(210.8529905 434.472125 375.768972)
(267.3478666 -229.2356599 -36.52004159)
(-486.5019338 131.1241753 -79.4878447)
(105.7752774 16.07325029 -284.8707585)
(-66.06980004 -345.6210712 207.7395125)
(-580.4536817 295.9328152 14.99550387)
(20.84448103 192.6318321 -63.64398215)
(-599.8435414 485.005919 275.1477236)
(-161.0563241 -239.0733589 639.0813996)
(-236.2442844 142.8474926 -7.061216519)
(-247.0406292 410.6157497 212.5661185)
(-354.1547818 329.9065529 -407.8221821)
(318.8000567 -166.7657447 369.3148503)
(-163.0065695 -322.6986162 482.4752993)
(-208.3616733 105.8477246 226.0186758)
(301.1473241 116.6378004 454.2004679)
(-686.2839066 -18.36341256 -330.7448564)
(-129.5478709 -416.7496684 633.4525856)
(-234.8591423 36.24643335 -21.78558002)
(59.09832746 -328.0295156 -29.66039578)
(191.3960889 -117.232852 19.776416)
(306.9493595 230.3501547 109.3079353)
(-295.6433511 -16.67372854 430.0626949)
(204.061018 395.86019 -18.59349828)
(327.5170694 482.710032 170.9252347)
(161.0269355 -228.6548717 377.3723245)
(-144.7883881 553.0097737 215.7996959)
(-390.5860108 -244.3965096 290.095976)
(228.6396643 366.5902377 -240.1972302)
(149.2235754 154.6478152 -401.7146789)
(96.37508414 457.9772359 101.5862974)
(462.167425 182.6544696 -120.8039763)
(-341.7916259 232.9211239 351.22788)
(272.0609317 91.26088006 -206.2077322)
(-10.51483761 212.5544368 -520.4910007)
(-249.3062014 -117.0535754 17.26557384)
(308.1447473 706.853482 482.6376778)
(-624.8723787 232.8106413 -487.2628698)
(215.0660842 292.8488705 -451.8224191)
(-888.9267663 313.2195565 244.891696)
(-29.92005676 -34.82416871 -231.9597932)
(-176.438992 -281.122418 -153.8201273)
(581.5336566 26.72643331 252.7104765)
(2.663789497 594.2305381 379.6881076)
(156.89894 431.172591 152.7486785)
(442.7639483 -136.5488695 -309.3586791)
(50.93661661 -149.1581724 -87.61135701)
(-78.93976447 -378.177027 154.0201225)
(-28.67077907 267.9915321 1.195338194)
(-14.93338849 -339.0505756 205.9289715)
(-504.9269321 229.0596609 283.872825)
(102.5711433 178.3808261 -92.4065607)
(-413.4824415 108.0521309 -109.9433957)
(-262.6849175 -374.536621 -29.29648569)
(52.93373038 -5.585261301 -760.8722402)
(239.7727763 -37.70821323 -396.6620305)
(-84.89635054 460.8746016 -100.2192897)
(382.9078984 -52.35739797 499.3931332)
(-387.3858809 44.25368876 -12.46388725)
(119.8345602 582.8448673 71.30625575)
(317.2070411 126.0783405 302.9859628)
(-171.9050302 161.9635845 306.6605245)
(-317.1442093 311.9674946 -464.7502737)
(150.9352923 154.3329479 140.3405688)
(-663.1010188 10.39225935 598.9582798)
(27.06946315 -88.75656046 97.72246023)
(-486.7559518 -23.61865926 -575.221554)
(394.7920359 418.6540604 -356.5427178)
(-122.6291956 241.4147658 137.6600768)
(-500.5155564 -326.5374978 94.41671149)
(-620.0653088 236.0267027 -38.25395969)
(-225.6528498 -45.12671755 181.1914011)
(-40.38117549 -589.6040086 172.0233077)
(370.6749284 -287.6237082 356.4467661)
(183.9958293 154.6615985 -363.1052198)
(128.4112099 226.8542016 430.7268156)
(316.7863356 255.2581342 7.60492087)
(433.2263362 -153.6172 -734.5602493)
(-444.4636367 455.6448001 264.6087449)
(195.7565722 114.78746 115.7735332)
(245.7941063 -88.10679652 235.8251616)
(988.7299818 -441.4145208 756.7229424)
(172.5352861 -23.9852025 -44.33729397)
(-307.1543259 165.0112488 -54.7455311)
(47.19533254 156.3960421 421.897648)
(-859.9293973 340.7879714 250.3120638)
(-422.4263362 3.343803925 0.9812728921)
(-106.1197232 -307.6524757 -205.307183)
(349.389475 262.3120513 -22.74260669)
(-406.3149281 -24.00141752 478.4766811)
(104.965361 -13.26478617 3.274560922)
(-2.77606987 -102.6510495 -307.936497)
(-7.217157092 365.202436 -282.7719126)
(735.7996007 74.22167382 -540.5763136)
(-414.5361595 71.4421558 -408.6944188)
(675.1451721 164.5966246 -35.27541246)
(-64.77347169 27.54098038 -498.5193922)
(48.41083194 117.9052878 -251.9426938)
(-90.01423021 26.47508705 -338.9863929)
(71.57994876 -767.6757095 132.5650772)
(22.77337839 -480.6680014 -177.7303506)
(200.8933802 318.2116889 67.67538792)
(-117.7009858 235.8407071 31.94430904)
(173.0491614 177.7565696 162.1368459)
(349.4577661 5.613937163 -115.9824845)
(-252.7719391 -173.1477731 -233.4084339)
(26.27954947 -327.1019935 260.4764766)
(301.0660172 -227.2331687 -87.50767521)
(77.58166476 -360.265058 120.332541)
(34.39783568 285.720571 -46.50729846)
(-415.3678454 273.3169937 -116.3346424)
(190.9571596 2.252236291 4.039201672)
(321.4941101 -331.5732069 -198.2495626)
(-115.556637 347.8858248 291.1474266)
(159.564222 -568.697335 318.0151587)
(-1181.767021 -172.6131687 -325.1814151)
(72.28417575 -558.0258504 -732.4142345)
(260.1621519 -397.8092162 -95.22966593)
(-175.1593306 94.49795618 -134.7035359)
(449.9713464 -311.2889003 -274.1568224)
(-140.6384522 42.5881586 -298.0580577)
(230.5572553 35.19207906 110.6541469)
(164.1240249 296.6455078 -150.9125379)
(-200.0980243 130.983875 -100.7372072)
(-284.3461786 -150.3329047 115.4744168)
(-97.35065791 181.5565097 -109.2491992)
(619.1411651 -478.5093208 -360.1951028)
(427.8656598 44.52360256 -319.6182465)
(50.59349312 63.95284749 -416.3776267)
(-412.3636581 -33.61852443 411.4035711)
(226.0307474 -86.32153919 222.5480235)
(426.1352719 -355.3942174 -527.1103898)
(118.0526288 -275.410681 430.709895)
(785.5768814 -81.73364056 74.78176242)
(202.8167053 579.4862595 149.3453579)
(-209.878646 -245.9238614 -364.3444912)
(125.1046338 96.80074336 142.1834141)
(84.94847201 -735.0068372 -547.739845)
(254.107938 122.9853744 -152.1129438)
(606.95302 -255.8339042 646.7138239)
(71.66701957 -289.1633868 -736.6722454)
(1028.866556 667.3664148 -241.9221392)
(-517.8035193 -474.605378 382.8427577)
(-97.3561088 208.8835469 -406.9442188)
(45.79004752 -233.2932575 508.7471708)
(145.6843652 9.418819995 797.8278428)
(404.1920369 707.7924551 594.9311218)
(93.05465567 -351.3008025 327.337896)
(-724.9525624 170.7817612 161.1998011)
(-276.3527707 -258.6544967 -32.78195143)
(-130.4817149 -397.1335168 -462.8756598)
(-214.7840326 -356.640498 -148.9800964)
(262.716441 -268.9929229 481.7069312)
(-293.5197882 268.6401742 -91.73937714)
(-193.2965758 -52.85627825 -361.1131164)
(11.04616559 94.27066351 -527.0729671)
(363.6379889 -16.89891668 553.4001506)
(-464.827032 -426.4001062 -506.9076188)
(-218.8697906 -31.98014514 -488.9505258)
(348.0465016 -614.0635662 17.43458293)
(-164.3109457 -236.8059103 309.2815052)
(-475.0111157 -92.1302502 -163.179996)
(-738.5581344 -15.22022844 -376.2983758)
(-188.8247679 -555.5997292 291.6978598)
(104.2226939 712.8955323 347.4961473)
(107.9338673 186.8970088 -275.3979301)
(43.0443394 164.2263809 503.0647589)
(810.3063141 -230.0558017 728.6314362)
(30.74960984 425.663697 -190.938037)
(-152.5324943 71.42522898 -23.58619285)
(312.3213328 -49.56269295 124.4103506)
(-158.0360758 -126.4139947 -165.9237645)
(329.0397623 -39.11861794 -207.6980907)
(691.8737912 89.5399761 114.5129784)
(962.2513012 -2.717653096 399.7205521)
(465.257999 -138.0973527 93.76668665)
(-339.8144402 196.2603545 135.2216845)
(137.5802183 -160.8229869 -194.8875841)
(-350.8846568 -203.072201 -228.061079)
(-544.7587156 151.3023821 -323.7108203)
(-220.0641882 68.29122341 254.0795597)
(-44.7508163 25.52392546 -16.80550031)
(27.5159557 147.1416746 -620.8875342)
(11.78853134 296.8965399 -300.1707599)
(327.3555123 561.1115565 -101.7458246)
(-591.056313 346.2818496 -154.0359535)
(245.9766398 158.4151838 -514.9183103)
(178.653069 -100.5340579 163.997539)
(413.6097292 -370.9270422 355.4792996)
(141.2245947 526.181431 -518.8824881)
(361.5641511 -111.5709113 110.0344168)
(-619.6339027 -560.87312 223.2048465)
(690.4295774 329.9114504 127.2229053)
(-139.1223085 255.6217486 -868.1900837)
(-192.7584244 112.4540996 -74.08913811)
(87.16811091 240.589682 -231.0961332)
(-313.580883 261.2768567 263.5618406)
(555.1928955 -103.6713264 -357.1349995)
(20.65600928 454.3867119 392.0671308)
(-241.5747286 252.0662992 -197.8332743)
(-561.6797667 55.09183386 -850.1970098)
(14.84962651 136.5996524 656.1451863)
(-426.1200077 897.3660648 708.330817)
(168.6657082 186.9453689 381.5686962)
(37.29065932 -448.4012648 -376.7749978)
(-35.65697111 -257.1110753 356.1320998)
(-412.7302188 -470.6457163 10.16103872)
(103.5740757 151.2909466 161.4078903)
(506.1171759 519.6592617 471.1050756)
(175.4717796 -225.0966811 106.9635079)
(420.4103164 462.9727652 538.2392258)
(592.0373073 145.6351387 -170.4812498)
(-684.3141706 -57.16699681 455.9005822)
(-256.2519841 -49.49823918 144.490098)
(-826.8931103 540.2401459 68.19846167)
(-213.3350265 380.861374 921.0071926)
(-173.7431976 258.7439548 549.6084768)
(106.7897184 250.5765181 146.7820773)
(-182.4225258 166.7766107 15.95228972)
(117.8123341 291.3958196 -455.4096)
(-48.6984884 -262.1835613 106.6888482)
(401.6111665 353.2548279 158.629776)
(-85.6588403 36.17075781 -178.5026075)
(815.6199298 -389.5437128 526.6969134)
(127.8756279 -361.511366 -284.5129821)
(-151.6893426 112.5282195 -523.4043306)
(-76.95070432 152.3380271 -993.5825617)
(-252.1313792 266.7311286 -502.6488905)
(-431.7697678 527.8860128 -275.6600856)
(-136.4555555 13.59850575 391.3407289)
(-165.5655947 -544.1476941 -249.1489041)
(-446.5284974 -22.90982342 464.648821)
(51.47036478 -148.4788811 676.5435562)
(57.70439968 -122.6034304 -441.37306)
(-352.5694309 265.692556 -89.316075)
(940.9325731 334.289453 -322.6507885)
(-435.9784735 -212.2704426 268.7783513)
(34.68514471 41.47808147 -311.2286807)
(-158.7574857 664.1378187 906.6136028)
(196.108267 81.18096992 -874.3766925)
(5.493581437 443.0089162 -856.906437)
(524.6391654 -209.7276712 -457.1430382)
(53.49323419 -331.8419065 -487.6530735)
(319.7297274 325.3594056 295.8354872)
(-705.0028129 -429.1651712 -436.5868048)
(-122.4578825 -77.13506373 270.0949069)
(108.0813391 -549.5651839 102.4555033)
(-5.770392806 -91.64366329 44.03721082)
(-550.453272 309.0186648 27.50580447)
(208.8970051 -501.9782812 -1137.879379)
(128.3866131 -346.9524427 -27.61182375)
(-618.5976867 -190.1084479 230.4977673)
(1.160474434 300.1416619 534.7871755)
(-150.0718295 569.8028599 111.2297277)
(-356.2177665 433.4361559 581.9743862)
(69.61573853 251.0590778 -465.0705517)
(313.2415521 552.7593337 -315.2075428)
(200.4641988 122.7483732 754.4416011)
(-424.2411736 -289.5632191 96.6886047)
(476.9711054 283.3062957 -173.9644548)
(-907.8643717 73.04470348 356.2977199)
(-444.8741956 -258.618197 -416.5573457)
(239.8235082 83.25047331 -312.3810745)
(-393.725594 -95.54843841 1100.317196)
(-153.9675419 -202.6725891 65.52483446)
(309.3118168 -312.1990251 -270.5274398)
(-242.7665065 422.5849507 -172.4282181)
(-132.9127776 -485.76685 -85.65460435)
(259.3922573 -87.9584461 139.9154337)
(653.4108029 -59.84280312 -217.8278832)
(352.7985135 -275.7698761 -181.8003563)
(-203.6033832 -120.2744199 -456.9190757)
(787.397358 877.6694847 -171.4305808)
(520.8551193 43.91940196 -336.3864487)
(-11.54275516 120.8823318 49.07650216)
(432.9529982 219.0212147 -263.2135846)
(-979.0128129 234.1998951 476.1775098)
(340.1998035 39.42956807 316.9900137)
(-438.4101356 437.2072576 -664.8829798)
(524.9785813 -294.4422252 -310.0801233)
(277.1749292 -358.2139563 246.7630098)
(-326.3630248 -75.25121198 -230.0938012)
(29.57490611 608.1529458 -244.5711148)
(774.3080206 362.4474688 238.6005663)
(-302.3982191 288.0262391 -473.8509971)
(-436.0029075 78.31390705 -56.00510052)
(-78.74055704 519.7821969 -379.7412005)
(105.6805176 1283.212482 143.1612724)
(470.600335 238.5044907 624.5627678)
(155.7064341 -64.03812547 -125.5364782)
(-495.5809642 202.7754801 -47.23667701)
(126.8877551 581.2784746 45.48797807)
(-519.2575454 -350.1365583 575.4472145)
(-86.65787096 -243.816651 316.3883276)
(335.355151 -6.668144533 -481.1005159)
(-379.7424271 -568.8379793 226.127479)
(96.70841094 -51.86801427 -351.7279746)
(-118.6005716 8.104494801 -200.5963185)