/*--------------------------------*- C++ -*----------------------------------*\
  =========                 |
  \\      /  F ield         | OpenFOAM: The Open Source CFD Toolbox
   \\    /   O peration     | Website:  https://openfoam.org
    \\  /    A nd           | Version:  7
     \\/     M anipulation  |
\*---------------------------------------------------------------------------*/
FoamFile
{
    version     2.0;
    format      ascii;
    class       volScalarField;
    location    "0.8";
    object      alpha.water;
}
// * * * * * * * * * * * * * * * * * * * * * * * * * * * * * * * * * * * * * //

dimensions      [0 0 0 0 0 0 0];

internalField   nonuniform List<scalar> 
2268
(
1
1
1
1
1
1
1
1
1
1
1
1
1
1
1
0.999996
0.999951
0.984658
0.96243
0.96243
0.96243
0.983658
0.999765
1
1
1
1
1
1
1
1
1
1
1
1
1
1
1
1
1
0.99886
0.983883
0.965882
0.963504
0.977879
0.999766
1
1
1
1
1
1
1
1
1
1
1
1
1
0.999999
0.999999
1
1
1
1
1
0.998526
0.999652
0.999766
1
1
1
1
1
1
1
1
1
1
1
1
1
1
1
1
1
1
1
1
1
1
0.999766
1
1
1
1
1
1
1
1
1
1
1
1
1
1
1
1
1
1
1
1
1
0.99991
0.999689
1
1
1
1
1
1
1
1
1
1
1
1
1
1
1
1
1
1
1
1
0.999999
0.999807
0.999689
1
1
1
1
1
1
1
1
1
1
1
1
1
1
1
1
1
1
1
1
0.999998
0.999934
0.999696
1
1
1
1
1
1
1
1
1
1
1
1
1
1
1
1
1
1
1
0.999998
0.99999
0.999939
0.99981
0.998133
0.99704
0.983481
0.982196
0.982182
0.982279
0.983542
0.994628
0.997729
0.997611
0.997236
0.987528
0.976373
0.962713
0.945281
0.945338
0.955837
0.955829
0.932621
0.99818
0.99751
0.99514
0.994025
0.996108
0.997457
0.997757
0.997784
0.997785
0.997734
0.997562
0.997305
0.995873
0.993541
0.947544
0.902604
0.90137
0.930695
0.965023
0.99824
0.99824
0.998189
0.998066
0.997943
0.997851
0.997851
0.997819
0.997763
0.997604
0.99714
0.990826
0.977924
0.967105
0.964642
0.907363
0.898393
0.898564
0.933586
0.99828
0.998422
0.998269
0.998192
0.998059
0.997942
0.996642
0.997274
0.997171
0.996397
0.994645
0.947898
0.807045
0.787574
0.909963
0.939942
0.940502
0.90315
0.868737
0.998422
0.998442
0.988554
0.87589
0.823105
0.794413
0.762269
0.749313
0.828649
0.927882
0.978105
0.916535
0.778968
0.777559
0.788959
0.94079
0.94079
0.940273
0.868555
0.99799
0.947243
0.579459
0.220982
0.128494
0.0788462
0.0566735
0.0579788
0.153538
0.352214
0.66411
0.864431
0.858701
0.810636
0.786742
0.825628
0.940749
0.939977
0.895006
0.995019
0.896517
0.107169
0.059357
0.0488166
0.0465805
0.0465822
0.0465822
0.0481477
0.0557454
0.314221
0.838929
0.853011
0.846249
0.801199
0.726938
0.939513
0.939203
0.938568
0.999196
0.825125
0.0695018
0.0601261
0.0564768
0.178807
0.138173
0.0479564
0.0492751
0.0552477
0.312561
0.815884
0.846249
0.764895
0.61899
0.752812
0.936344
0.938234
0.939121
0.975088
0.965142
0.958053
0.962703
0.982429
1
1
1
1
1
1
1
1
1
1
1
1
0.999999
0.999996
0.999984
0.999935
0.999845
0.999782
0.293755
0.284094
0.284613
0.301396
0.348498
0.430626
0.544334
0.658595
0.766128
0.864315
0.944967
0.991182
1
1
0.999996
0.999993
0.99999
0.999969
0.999937
0.99985
0.999614
0.999257
0.999649
0.000887566
0.000629702
0.000650094
0.000607574
0.000551836
0.00122449
0.0102055
0.0338226
0.0746468
0.131096
0.195513
0.267011
0.374973
0.537576
0.69153
0.771525
0.799565
0.817251
0.836576
0.826071
0.774813
0.769985
0.973693
6.91224e-05
4.62039e-05
5.03171e-05
4.60074e-05
3.89895e-05
3.47191e-05
3.52714e-05
3.71394e-05
3.67175e-05
3.01373e-05
2.09764e-05
1.06633e-05
-1.08158e-06
-5.5565e-08
-1.02575e-09
1.14218e-07
0.0219173
0.0924585
0.135706
0.137691
0.0989232
0.243131
0.885288
4.86948e-06
3.47081e-06
3.96667e-06
3.59917e-06
2.92711e-06
2.416e-06
2.21099e-06
2.00539e-06
1.71483e-06
1.16313e-06
6.49495e-07
2.69785e-07
1.8375e-09
1.87095e-09
1.87736e-09
8.83765e-09
1.01453e-07
1.50953e-06
1.98596e-05
0.000248242
0.00249383
0.130832
0.797346
3.22785e-07
2.53113e-07
3.01774e-07
2.75496e-07
2.16565e-07
1.71359e-07
1.45295e-07
1.2017e-07
8.77038e-08
4.97911e-08
2.26924e-08
7.94858e-09
1.54493e-09
1.25343e-09
4.63508e-09
5.98323e-08
7.95565e-07
8.75277e-06
7.69215e-05
0.000528779
0.00287831
0.0594958
0.613615
2.03884e-08
1.75753e-08
2.17352e-08
2.01515e-08
1.57185e-08
1.20664e-08
9.72196e-09
7.29585e-09
4.85601e-09
2.48563e-09
1.00516e-09
3.07569e-10
1.02087e-10
3.73205e-10
1.79938e-09
2.87161e-08
4.09006e-07
4.49818e-06
3.84701e-05
0.000304482
0.00140397
0.00859461
0.317486
1.22273e-09
1.15732e-09
1.48064e-09
1.40279e-09
1.10032e-09
8.33462e-10
6.5056e-10
4.95159e-10
3.18811e-10
1.5436e-10
6.28489e-11
1.83069e-11
0
5.56032e-12
3.01677e-10
7.25951e-09
1.1673e-07
1.39659e-06
1.33859e-05
0.00010138
0.000577357
0.0032726
0.137748
7.75086e-11
8.59233e-11
1.11956e-10
1.12734e-10
9.48685e-11
7.38568e-11
5.64857e-11
4.12781e-11
2.18359e-11
5.42986e-12
0
0
-7.68204e-11
0
5.04943e-12
1.15953e-09
2.24121e-08
3.06934e-07
3.38556e-06
2.79737e-05
0.000172574
0.00104161
0.0158011
5.16463e-12
6.16561e-12
8.50122e-12
8.4456e-12
6.58204e-12
4.11841e-12
1.44516e-12
-4.32943e-14
0
0
-4.12771e-11
-7.91294e-11
-1.17653e-10
-1.17453e-10
-1.031e-13
1.36915e-10
3.16815e-09
5.15753e-08
6.2984e-07
5.74214e-06
4.08118e-05
0.000226609
0.00137843
3.89155e-13
6.34004e-13
7.8147e-13
5.69946e-13
2.39961e-13
1.91865e-13
2.24952e-28
-5.60553e-12
-1.70189e-11
-3.2757e-11
-5.232e-11
-6.86445e-11
-8.04349e-11
-8.52566e-11
-4.28955e-11
9.52259e-28
3.30463e-10
6.59228e-09
9.1314e-08
9.26636e-07
7.40351e-06
4.28874e-05
0.000241502
8.77392e-15
1.46849e-14
1.67832e-14
0
-4.0284e-13
-2.01542e-12
-4.58431e-12
-8.2934e-12
-1.32337e-11
-1.97221e-11
-2.70116e-11
-3.35253e-11
-3.79269e-11
-4.09164e-11
-4.01441e-11
3.61616e-27
2.86048e-11
6.5933e-10
1.05452e-08
1.16016e-07
9.56368e-07
5.38135e-06
2.97056e-05
-5.24657e-14
-2.52245e-14
-7.71123e-14
-2.60618e-13
-6.31414e-13
-1.20476e-12
-2.05299e-12
-3.24648e-12
-4.87882e-12
-7.02696e-12
-9.51186e-12
-1.19378e-11
-1.38069e-11
-1.5434e-11
-1.70961e-11
-3.80069e-12
6.70757e-14
6.89219e-11
1.10687e-09
1.35291e-08
1.22021e-07
6.85003e-07
3.32203e-06
-2.79446e-14
-2.36374e-14
-4.89635e-14
-1.10429e-13
-2.09809e-13
-3.52638e-13
-5.58204e-13
-8.54363e-13
-1.27649e-12
-1.85948e-12
-2.58154e-12
-3.36063e-12
-4.07094e-12
-4.7871e-12
-5.65364e-12
-4.41114e-12
3.78568e-13
7.66844e-12
1.23585e-10
1.68676e-09
1.66454e-08
9.38532e-08
3.87298e-07
-8.126e-15
-7.2198e-15
-1.39886e-14
-2.86162e-14
-4.96407e-14
-7.75996e-14
-1.17016e-13
-1.75605e-13
-2.6326e-13
-3.93455e-13
-5.68262e-13
-7.75998e-13
-9.96607e-13
-1.24564e-12
-1.55874e-12
-1.62382e-12
0
1.40648e-12
1.42993e-11
1.99102e-10
2.11454e-09
1.25063e-08
5.22308e-08
-1.99172e-15
-1.72951e-15
-3.18278e-15
-6.08256e-15
-9.79832e-15
-1.42699e-14
-2.039e-14
-2.98357e-14
-4.47438e-14
-6.89103e-14
-1.04186e-13
-1.4997e-13
-2.05507e-13
-2.74851e-13
-3.65259e-13
-4.38828e-13
-4.23676e-14
1.62462e-13
2.08294e-12
2.4092e-11
2.5126e-10
1.51687e-09
6.554e-09
-4.32241e-16
-3.57702e-16
-6.26959e-16
-1.12452e-15
-1.68513e-15
-2.27475e-15
-3.04651e-15
-4.30483e-15
-6.41483e-15
-1.01847e-14
-1.61598e-14
-2.45572e-14
-3.6011e-14
-5.17386e-14
-7.32284e-14
-9.68677e-14
-5.55285e-14
4.92829e-15
2.79469e-13
3.21245e-12
3.39543e-11
1.70738e-10
7.52777e-10
-8.2321e-17
-6.41465e-17
-1.07315e-16
-1.81366e-16
-2.53846e-16
-3.17379e-16
-3.95327e-16
-5.3499e-16
-7.86702e-16
-1.28566e-15
-2.14144e-15
-3.43379e-15
-5.39168e-15
-8.33614e-15
-1.25878e-14
-1.79965e-14
-1.58974e-14
-5.77974e-18
2.34453e-14
3.03583e-13
3.58853e-12
2.45219e-11
1.02098e-10
-1.35521e-17
-9.8635e-18
-1.57793e-17
-2.52722e-17
-3.32844e-17
-3.87332e-17
-4.47803e-17
-5.7736e-17
-8.32938e-17
-1.39742e-16
-2.44013e-16
-4.12061e-16
-6.9197e-16
-1.15121e-15
-1.85533e-15
-2.84123e-15
-3.14548e-15
-1.02053e-31
1.17238e-15
2.55526e-14
3.09029e-13
2.25653e-12
1.12507e-11
-1.91378e-18
-1.29287e-18
-1.97991e-18
-3.02302e-18
-3.77801e-18
-4.12523e-18
-4.43902e-18
-5.43989e-18
-7.66367e-18
-1.31522e-17
-2.40104e-17
-4.25666e-17
-7.62435e-17
-1.36265e-16
-2.3417e-16
-3.82032e-16
-4.89673e-16
6.81078e-33
5.06974e-17
1.93119e-15
2.34483e-14
1.79167e-13
9.61037e-13
-2.32503e-19
-1.4508e-19
-2.12634e-19
-3.10847e-19
-3.71162e-19
-3.83381e-19
-3.85971e-19
-4.49327e-19
-6.15773e-19
-1.07622e-18
-2.04574e-18
-3.79146e-18
-7.21435e-18
-1.38087e-17
-2.52483e-17
-4.36958e-17
-6.23307e-17
-4.66629e-18
8.649e-34
1.29859e-16
1.63702e-15
1.46661e-14
1.07571e-13
-2.4526e-20
-1.40853e-20
-1.97283e-20
-2.76735e-20
-3.1706e-20
-3.11758e-20
-2.95225e-20
-3.26526e-20
-4.33755e-20
-7.67914e-20
-1.51179e-19
-2.91346e-19
-5.85783e-19
-1.19541e-18
-2.31761e-18
-4.23713e-18
-6.57091e-18
-1.85635e-18
9.32432e-34
9.06914e-18
1.66922e-16
2.84668e-15
4.61709e-14
-2.27151e-21
-1.19779e-21
-1.59961e-21
-2.15371e-21
-2.37207e-21
-2.22878e-21
-1.99352e-21
-2.09458e-21
-2.68707e-21
-4.78822e-21
-9.69841e-21
-1.9308e-20
-4.07467e-20
-8.81279e-20
-1.80305e-19
-3.46542e-19
-5.74224e-19
-2.45796e-19
8.2592e-20
1.91135e-18
9.6494e-17
3.0849e-15
5.0052e-14
-1.8666e-22
-9.02616e-23
-1.14627e-22
-1.47991e-22
-1.56675e-22
-1.40881e-22
-1.19309e-22
-1.18981e-22
-1.46785e-22
-2.61332e-22
-5.40275e-22
-1.10246e-21
-2.42209e-21
-5.51017e-21
-1.18211e-20
-2.37298e-20
-4.11922e-20
-1.8784e-20
3.888e-20
7.73863e-19
7.24585e-17
3.01792e-15
4.90561e-14
-1.37324e-23
-6.08797e-24
-7.33219e-24
-9.06116e-24
-9.20746e-24
-7.92018e-24
-6.35458e-24
-6.00329e-24
-7.08702e-24
-1.25004e-23
-2.61336e-23
-5.41525e-23
-1.22643e-22
-2.90714e-22
-6.48425e-22
-1.345e-21
-2.347e-21
-2.89969e-22
1.08249e-20
3.86522e-19
5.43285e-17
2.59237e-15
4.171e-14
-9.11196e-25
-3.70579e-25
-4.22215e-25
-4.98337e-25
-4.84881e-25
-3.98268e-25
-3.02431e-25
-2.69848e-25
-3.03078e-25
-5.24603e-25
-1.0973e-24
-2.28394e-24
-5.2699e-24
-1.28635e-23
-2.94753e-23
-6.17645e-23
-9.49404e-23
1.87414e-22
3.96955e-21
2.69691e-19
4.07458e-17
1.95797e-15
3.09103e-14
-5.48608e-26
-2.04961e-26
-2.20432e-26
-2.47888e-26
-2.30269e-26
-1.80084e-26
-1.29124e-26
-1.08377e-26
-1.15043e-26
-1.93364e-26
-3.99798e-26
-8.2537e-26
-1.91331e-25
-4.73806e-25
-1.09392e-24
-2.17169e-24
-8.07687e-25
5.99402e-23
2.15614e-21
2.05801e-19
2.89894e-17
1.32561e-15
2.10578e-14
-3.0119e-27
-1.03579e-27
-1.0497e-27
-1.12194e-27
-9.91701e-28
-7.35799e-28
-4.96487e-28
-3.90061e-28
-3.88434e-28
-6.26721e-28
-1.26374e-27
-2.55031e-27
-5.84128e-27
-1.43844e-26
-3.21631e-26
-4.50649e-26
4.97082e-25
2.25977e-23
1.27701e-21
1.46075e-19
1.91607e-17
8.25771e-16
1.31497e-14
-1.51416e-28
-4.80538e-29
-4.58286e-29
-4.64434e-29
-3.89279e-29
-2.72912e-29
-1.72579e-29
-1.26199e-29
-1.16944e-29
-1.78896e-29
-3.46614e-29
-6.72497e-29
-1.49148e-28
-3.54517e-28
-6.8488e-28
1.65262e-27
1.52959e-25
9.20312e-24
6.6016e-22
9.1839e-20
1.1686e-17
4.67991e-16
7.10736e-15
-6.9966e-30
-2.05512e-30
-1.8427e-30
-1.76661e-30
-1.39922e-30
-9.22927e-31
-5.44419e-31
-3.68271e-31
-3.14825e-31
-4.5067e-31
-8.25565e-31
-1.51113e-30
-3.16541e-30
-6.93316e-30
-7.05013e-30
4.54094e-28
3.7976e-26
2.90656e-24
2.67623e-22
5.02466e-20
6.37797e-18
2.27665e-16
3.05096e-15
-2.98195e-31
-8.1329e-32
-6.85206e-32
-6.20145e-32
-4.62556e-32
-2.85803e-32
-1.56492e-32
-9.72924e-33
-7.604e-33
-1.00477e-32
-1.71036e-32
-2.89162e-32
-5.54637e-32
-9.63408e-32
8.40959e-31
7.44055e-29
6.52814e-27
5.83773e-25
7.61107e-23
2.09229e-20
2.6696e-18
8.48946e-17
9.70589e-16
-1.17613e-32
-2.98923e-33
-2.36584e-33
-2.01747e-33
-1.41246e-33
-8.13991e-34
-4.11637e-34
-2.33661e-34
-1.65436e-34
-1.98988e-34
-3.09065e-34
-4.71303e-34
-7.78079e-34
1.11369e-33
2.00137e-31
1.4873e-29
1.05455e-27
8.62718e-26
1.47309e-23
4.77359e-21
6.06065e-19
2.09108e-17
2.72306e-16
-4.30692e-34
-1.02429e-34
-7.61644e-35
-6.10881e-35
-4.00174e-35
-2.14192e-35
-9.95358e-36
-5.12499e-36
-3.25732e-36
-3.51685e-36
-4.89071e-36
-6.5332e-36
-5.96003e-36
3.20867e-34
2.80469e-32
2.2929e-30
1.70863e-28
1.40691e-26
2.21507e-24
6.00037e-22
8.39628e-20
4.4255e-18
1.08295e-16
-1.46933e-35
-3.28547e-36
-2.29644e-36
-1.72953e-36
-1.05685e-36
-5.23227e-37
-2.22333e-37
-1.03181e-37
-5.83516e-38
-5.57798e-38
-6.81204e-38
-7.50782e-38
2.57192e-37
3.26282e-35
3.24045e-33
2.92632e-31
2.43726e-29
2.17227e-27
2.84438e-25
5.67776e-23
1.0456e-20
1.20091e-18
6.62665e-17
-4.68917e-37
-9.90957e-38
-6.51642e-38
-4.60087e-38
-2.61457e-38
-1.19248e-38
-4.61118e-39
-1.91721e-39
-9.56669e-40
-7.99096e-40
-8.39627e-40
-5.8183e-40
2.27326e-38
2.574e-36
2.79824e-34
2.74772e-32
2.48608e-30
2.20222e-28
2.4588e-26
4.88123e-24
1.34853e-21
2.93038e-19
2.62587e-17
-1.40758e-38
-2.82517e-39
-1.74953e-39
-1.15594e-39
-6.0899e-40
-2.54859e-40
-8.92673e-41
-3.30641e-41
-1.44449e-41
-1.04137e-41
-9.19769e-42
5.85602e-43
7.20354e-40
9.51462e-38
1.1086e-35
1.15421e-33
1.11771e-31
1.09032e-29
1.33943e-27
3.05755e-25
1.21912e-22
3.69047e-20
3.79197e-18
-4.00455e-40
-7.65949e-41
-4.46965e-41
-2.75748e-41
-1.34231e-41
-5.13389e-42
-1.62156e-42
-5.32301e-43
-2.02178e-43
-1.24396e-43
-8.99737e-44
7.77847e-44
1.27861e-41
1.8691e-39
2.30314e-37
2.33844e-35
2.02198e-33
1.85967e-31
2.96127e-29
1.08983e-26
7.12031e-24
3.52832e-21
4.96434e-19
-1.09092e-41
-1.98873e-42
-1.09306e-42
-6.27831e-43
-2.81362e-43
-9.79597e-44
-2.77845e-44
-8.04632e-45
-2.64089e-45
-1.37319e-45
-7.96094e-46
3.27142e-46
6.22585e-44
1.24656e-41
1.87046e-39
8.28783e-38
2.22318e-37
2.35338e-35
5.90204e-33
2.40747e-28
2.81607e-25
1.77114e-22
3.46398e-20
-2.88265e-43
-4.98363e-44
-2.57358e-44
-1.37105e-44
-5.63513e-45
-1.7793e-45
-4.51483e-46
-1.14903e-46
-3.24259e-47
-1.41328e-47
-6.45748e-48
1.80447e-51
3.63429e-48
3.8384e-46
5.92668e-46
2.1466e-43
1.5346e-40
8.58145e-38
3.7482e-34
4.03212e-29
7.1065e-27
5.24726e-24
1.5713e-21
-7.49971e-45
-1.21629e-45
-5.86334e-46
-2.88437e-46
-1.08343e-46
-3.09259e-47
-6.99843e-48
-1.56064e-48
-3.77286e-49
-1.36998e-49
-4.87558e-50
-1.8865e-57
3.49925e-51
2.38376e-50
1.81057e-49
3.96094e-47
4.32561e-44
4.14943e-41
2.02512e-37
9.20944e-32
3.39813e-29
3.89973e-27
1.18222e-24
-1.95028e-46
-2.90807e-47
-1.29791e-47
-5.87104e-48
-2.00967e-48
-5.17368e-49
-1.04182e-49
-2.03184e-50
-4.19907e-51
-1.26592e-51
-3.48539e-52
1.98254e-71
1.00969e-53
1.68806e-53
7.28113e-53
2.47313e-55
5.48225e-53
1.22728e-49
7.66822e-41
1.78647e-34
1.41744e-31
8.10032e-30
3.46885e-28
-5.13157e-48
-6.83216e-49
-2.79944e-49
-1.16145e-49
-3.61595e-50
-8.38274e-51
-1.50018e-51
-2.557e-52
-4.51627e-53
-1.13007e-53
-2.40666e-54
0
3.78255e-55
3.62108e-56
2.00003e-56
2.15185e-59
7.84976e-67
0
-6.65326e-65
1.25369e-46
2.71189e-39
4.73086e-35
3.18317e-33
0.999716
0.999647
0.99961
0.999572
0.999659
0.999607
0.999528
0.999573
0.998909
0.974421
0.840039
0.764354
0.986858
0.651302
0.114514
0.0157539
0.801682
0.190297
0.000474687
0.000474832
0.687421
0.14694
0.000731386
0.000474659
0.719787
0.478177
0.079053
0.00196815
0.595177
0.59269
0.519708
0.15419
0.310736
0.533631
0.507803
0.481975
0.0126659
0.243304
0.473625
0.459014
0.000794053
0.00295838
0.107249
0.326305
0.000119289
0.000378937
0.000532984
0.0126616
1.11958e-05
4.29958e-05
0.000168851
0.000115191
1.17122e-06
3.13798e-06
4.69675e-06
1.63219e-05
1.36373e-07
2.7321e-07
5.02021e-07
1.38236e-06
1.57199e-08
3.26604e-08
6.08019e-08
1.45637e-07
1.6837e-09
3.64575e-09
6.85749e-09
1.56957e-08
1.74389e-10
3.75292e-10
7.0748e-10
1.56169e-09
2.47276e-11
4.94687e-11
9.46226e-11
1.67392e-10
2.16168e-12
4.60553e-12
9.73933e-12
2.01749e-11
2.67147e-13
5.46331e-13
1.13017e-12
2.2857e-12
1.29456e-13
2.58816e-13
5.28247e-13
9.57822e-13
1.42383e-13
2.6509e-13
5.22056e-13
8.41897e-13
1.40498e-13
2.66575e-13
5.26865e-13
8.62084e-13
1.20172e-13
2.33793e-13
4.72236e-13
8.09123e-13
8.98277e-14
1.77899e-13
3.84783e-13
7.08627e-13
6.26778e-14
1.28385e-13
3.0572e-13
6.03756e-13
4.04775e-14
8.71763e-14
2.21645e-13
4.59857e-13
2.2454e-14
5.0071e-14
1.27747e-13
2.63325e-13
9.62628e-15
2.12886e-14
5.22113e-14
9.50105e-14
2.93206e-15
6.15388e-15
1.38083e-14
2.3821e-14
8.77406e-16
2.02822e-15
4.65522e-15
9.43287e-15
5.13323e-16
1.82855e-15
5.61189e-15
9.97992e-15
4.60159e-16
2.33228e-15
8.73889e-15
1.26671e-14
2.6404e-16
1.74068e-15
8.23824e-15
1.03479e-14
4.46115e-17
3.96285e-16
2.52735e-15
2.6666e-15
6.54785e-18
5.53582e-17
2.8242e-16
1.94523e-16
5.74062e-19
6.25085e-18
2.8868e-17
1.45521e-17
3.02245e-20
3.09273e-19
1.16291e-18
4.06279e-19
3.2184e-23
9.75444e-22
5.98078e-21
1.45313e-21
1.04201e-26
1.13222e-24
1.21917e-23
1.99368e-24
4.31924e-33
5.24974e-29
5.10022e-27
3.34937e-28
0.999572
0.851082
0.232408
0.125532
0.220469
0.486995
0.534365
0.204671
0.0559228
0.128064
0.626714
0.794867
0.70825
0.24824
0.260091
0.627037
0.867609
0.926881
0.937432
0.999392
0.985097
0.929271
0.868427
0.796142
0.581005
0.552116
0.498186
0.06562
0.230949
0.717421
0.767683
0.454072
0.0844375
0.084469
0.0851438
0.238797
0.457256
0.829419
0.76938
0.661441
0.52806
0.445073
0.365912
0.166221
0.392044
0.491657
0.0764393
0.294956
0.71058
0.71665
0.272506
0.084469
0.0844111
0.0849257
0.0864265
0.0876039
0.206676
0.0316802
0.0249696
0.0135483
0.0129844
0.0201129
0.0439144
0.22981
0.446118
0.091637
0.467
0.7032
0.653983
0.106243
0.0844125
0.084909
0.121719
0.0876266
0.0874131
0.0906199
0.000474832
0.000479485
0.000618112
0.00244861
0.00748166
0.0563676
0.209194
0.201897
0.158635
0.614759
0.6995
0.622215
0.0920452
0.0855276
0.171082
0.220436
0.192008
0.0990691
0.0929662
0.000479485
0.000521422
0.00072255
0.00148525
0.0238386
0.0949701
0.0802409
0.0129103
0.145278
0.562911
0.69234
0.45672
0.114299
0.105953
0.221309
0.221908
0.221102
0.217096
0.0939421
0.000521297
0.000723298
0.00109719
0.0108224
0.039434
0.0385914
0.00318525
0.00280478
0.029101
0.354619
0.682859
0.149949
0.163767
0.186534
0.221802
0.220475
0.217621
0.22059
0.204663
0.000933723
0.000985749
0.001244
0.0123746
0.0150744
0.00109884
0.000582972
0.000397872
0.00783388
0.35694
0.643017
0.0688091
0.114737
0.212544
0.201862
0.121879
0.190522
0.224844
0.224844
0.191606
0.00103235
0.000759896
0.00175242
0.000438896
0.000240017
0.000128026
7.23055e-05
0.0146203
0.590027
0.447211
0.0683632
0.0830957
0.203646
0.016817
0.000411883
0.0180867
0.188397
0.224889
0.4351
0.143146
0.000697201
0.000422704
0.000138768
9.0626e-05
6.50375e-05
5.77204e-05
0.0221849
0.590027
0.169741
0.0700746
0.0483993
0.0369178
7.83332e-06
3.56933e-05
0.000410628
0.0107747
0.224679
0.415798
0.38397
0.22103
0.000138758
9.06638e-05
6.50375e-05
5.77249e-05
5.77466e-05
0.290241
0.590027
0.0444861
0.0604915
0.0139014
3.1478e-06
3.57201e-06
2.97238e-06
1.24294e-05
0.00547704
0.214555
0.189012
0.381695
0.383029
0.349259
0.102344
0.0199624
0.0501112
0.267176
0.442921
0.256812
0.0115023
0.00507578
0.0142268
3.1291e-06
3.02225e-06
2.97238e-06
3.38098e-05
0.00334261
0.0552122
0.000286176
0.0930449
0.343476
0.38367
0.3849
0.377493
0.379956
0.379826
0.263078
0.000477373
0.00283238
0.00510116
0.00578582
3.1339e-06
3.05072e-06
3.02935e-06
3.13742e-06
0.000552228
0.000474678
2.31978e-05
6.01061e-05
0.0256849
0.139634
0.229811
0.235948
0.179175
0.0651569
1.13209e-05
0.000386937
0.00334977
0.00536088
0.0036939
3.13123e-06
3.13456e-06
3.13781e-06
3.71579e-06
8.96307e-05
9.25458e-05
3.65292e-06
8.53663e-06
1.82331e-06
0.000136931
0.000772194
0.0011839
1.7133e-07
1.68905e-07
3.14764e-07
0.000492879
0.00285652
0.0016866
3.18595e-07
3.32893e-06
5.13322e-06
3.6922e-06
5.74468e-05
5.81714e-05
6.86989e-05
3.56441e-07
7.59964e-07
6.66171e-07
5.69344e-07
1.87917e-07
1.76355e-07
1.68905e-07
1.18095e-06
0.000121948
0.000614292
0.000326382
2.79555e-08
6.88473e-08
1.29873e-05
5.38098e-05
3.21438e-05
9.11911e-05
5.74474e-05
0.00403961
3.66708e-08
7.3834e-08
1.51561e-07
1.15009e-07
7.59233e-07
7.71643e-07
3.04427e-07
2.29457e-06
0.000138185
0.000320856
4.17241e-09
4.75574e-09
2.64236e-08
1.70685e-05
6.02607e-05
5.99482e-05
5.1032e-06
1.43707e-05
0.0203356
3.84425e-09
7.59605e-09
1.26174e-08
1.48319e-08
7.77316e-08
1.94941e-07
6.47094e-08
6.51912e-08
0.000127729
9.76098e-06
3.83657e-09
3.22504e-09
2.87947e-09
2.49889e-06
5.89013e-05
6.02493e-05
4.21147e-06
0.000615784
0.0223985
4.69957e-10
9.00483e-10
1.25512e-09
1.80526e-09
4.18907e-10
1.55784e-09
4.31435e-09
1.10438e-06
4.09637e-05
4.00617e-06
3.40216e-09
3.37198e-09
2.93683e-09
2.97998e-09
1.16076e-05
5.94287e-05
4.01996e-06
0.00165773
0.0224621
6.51134e-11
1.2884e-10
2.23214e-10
3.10281e-10
6.91986e-11
8.80699e-11
2.11228e-08
2.70993e-06
3.94286e-07
6.54295e-07
4.12912e-08
5.89005e-09
2.78755e-09
2.89789e-09
6.23956e-06
2.31816e-05
3.94039e-06
0.00240888
0.0222805
8.05275e-12
2.29263e-11
6.50472e-11
7.43843e-11
4.6022e-11
5.47348e-11
8.80749e-11
1.83685e-06
3.11647e-07
4.96832e-08
3.83279e-08
1.42401e-08
2.1784e-09
2.70397e-09
2.45272e-05
3.93943e-06
3.95072e-06
0.00274864
0.0216707
2.61412e-12
8.41762e-12
2.57622e-11
3.38835e-11
3.41414e-11
1.01286e-09
1.27175e-07
8.49811e-08
2.85421e-08
2.38357e-09
2.7385e-08
1.77147e-08
1.35024e-09
1.30092e-06
2.45467e-05
7.55488e-06
3.9395e-06
0.00207931
0.00463223
5.19093e-12
1.69767e-11
3.08947e-11
3.25431e-11
3.31093e-11
5.43492e-09
8.15697e-08
1.68221e-08
1.53752e-09
1.17072e-09
9.73211e-09
7.71951e-09
1.02069e-09
4.75363e-06
2.45467e-05
2.4347e-05
5.00554e-06
0.000352725
5.17252e-06
1.123e-11
3.23207e-11
4.03909e-11
3.9314e-11
4.18594e-11
2.83841e-09
2.97449e-09
1.10851e-09
9.48429e-10
1.04243e-09
1.85912e-09
1.15574e-09
9.92407e-10
5.22895e-06
2.44439e-05
2.40843e-05
5.35778e-06
2.98008e-06
4.48116e-06
1.11816e-11
4.99965e-11
5.86082e-11
5.27933e-11
1.46966e-10
3.12857e-10
3.87234e-10
6.03573e-10
8.27542e-10
9.78576e-10
1.02942e-09
9.58151e-10
9.80228e-10
7.97687e-07
2.40875e-05
1.09725e-05
1.81173e-06
2.13437e-06
2.98008e-06
1.1148e-11
5.60892e-11
7.45388e-11
9.12651e-11
2.31895e-10
3.38091e-10
4.08185e-10
5.14952e-10
6.57249e-10
7.6536e-10
1.04425e-09
9.41786e-10
9.58151e-10
1.17976e-08
1.48851e-05
3.32347e-06
1.35823e-06
1.73789e-06
3.75673e-06
9.29591e-12
5.37049e-11
7.57348e-11
1.35813e-10
3.50042e-10
4.04975e-10
4.10609e-10
4.44724e-10
5.23095e-10
7.18979e-10
1.05559e-09
9.23676e-10
1.53236e-09
3.79558e-06
1.01551e-06
7.65137e-07
9.6713e-07
1.29636e-06
6.03713e-06
4.48616e-12
4.36554e-11
7.29028e-11
1.06868e-10
3.8877e-10
1.23949e-09
1.70565e-09
1.37183e-09
7.62045e-10
8.03841e-10
1.05559e-09
9.15115e-10
9.23674e-10
2.87432e-06
2.82544e-06
6.6746e-07
7.5089e-07
6.75829e-05
8.12762e-05
1.36224e-12
2.61314e-11
6.90905e-11
5.40694e-11
7.26512e-10
4.0467e-09
6.81481e-09
5.29279e-09
1.88499e-09
8.19986e-10
9.01587e-10
9.15042e-10
9.15115e-10
9.76381e-07
5.49079e-07
4.08978e-07
9.42089e-07
0.000276081
0.000256386
3.78927e-13
1.03367e-11
5.24354e-11
5.18013e-11
7.07112e-10
5.78853e-09
6.89042e-09
6.89042e-09
3.39636e-09
1.04988e-09
9.15042e-10
9.15115e-10
1.2894e-07
2.73746e-07
1.25663e-08
3.03476e-08
0.000113979
0.000282384
9.02342e-05
2.22536e-13
3.08636e-12
2.59777e-11
7.04975e-11
5.88516e-10
3.01292e-09
4.93432e-09
6.11163e-09
1.09047e-08
1.29099e-08
7.27806e-09
9.58564e-09
1.03222e-08
7.49468e-09
7.57428e-09
1.25395e-08
0.000284186
0.000282655
3.002e-05
2.73928e-13
1.89122e-12
2.75879e-11
2.29566e-10
2.63863e-10
2.29683e-09
2.79985e-09
8.71065e-09
1.53561e-08
1.53561e-08
1.53561e-08
8.78025e-09
7.49115e-09
7.51124e-09
7.25414e-09
2.96448e-05
0.000296695
0.000289486
1.69414e-05
4.81705e-13
2.5822e-12
2.91066e-11
2.61332e-10
1.62663e-10
2.94074e-09
8.0702e-09
1.17637e-08
1.29011e-08
1.05905e-08
5.58552e-09
4.91916e-09
1.56887e-08
7.25803e-09
8.60876e-09
0.000237783
0.000297344
0.000128643
1.829e-06
1.15373e-12
6.94089e-12
2.52685e-11
2.0366e-10
1.60682e-10
4.22281e-09
1.35098e-08
1.14373e-08
4.75498e-09
4.41503e-09
4.3913e-09
4.41503e-09
4.39669e-09
5.56871e-09
1.10801e-05
0.000297334
0.000297334
5.97252e-05
5.00616e-07
1.91588e-12
2.10266e-11
5.49701e-11
1.60136e-10
1.60049e-10
1.16048e-09
7.98472e-09
6.15134e-09
4.99878e-09
3.9712e-08
4.22797e-06
3.69361e-06
1.21951e-08
4.67682e-08
0.000226053
0.000294586
0.000297034
2.51564e-05
2.99624e-08
1.61969e-12
2.53075e-11
1.09916e-10
2.36052e-10
1.85426e-10
1.87281e-10
2.67527e-10
2.00722e-10
1.83512e-06
5.89749e-06
6.0757e-06
3.93109e-06
1.6225e-07
6.54439e-05
0.000286386
0.000291828
2.95051e-05
2.70684e-08
2.736e-09
4.27673e-13
1.6576e-11
1.42697e-10
2.74723e-10
2.40629e-10
1.92e-10
1.90638e-10
1.90251e-10
4.93435e-06
6.0757e-06
6.06566e-06
2.00323e-06
3.9327e-07
5.20059e-05
0.000233682
8.58509e-05
9.46176e-10
-1.13076e-10
1.23755e-10
2.80021e-14
3.51089e-12
6.96274e-11
2.70052e-10
3.51229e-10
2.29386e-10
1.90008e-10
1.90514e-10
9.23309e-07
3.33883e-06
1.69048e-06
8.08642e-07
1.69015e-05
7.21711e-06
3.15774e-10
7.37523e-11
4.89265e-11
9.10269e-11
1.45561e-10
2.12412e-15
2.52512e-13
1.30867e-11
1.83762e-10
3.51186e-10
3.40524e-10
4.90614e-10
3.76122e-10
4.02551e-10
6.35596e-09
1.08654e-08
1.80735e-07
1.24382e-07
3.08441e-10
5.10541e-11
5.97962e-11
8.53938e-11
9.03466e-11
1.45576e-10
5.14047e-17
1.16839e-14
8.7947e-13
4.00405e-11
2.41326e-10
2.77779e-10
2.31516e-09
3.39126e-09
2.48286e-09
2.4196e-09
1.5985e-08
3.79146e-08
1.80364e-08
8.75112e-10
1.224e-11
5.68991e-11
8.54694e-11
1.36354e-10
1.36043e-10
1.72977e-19
1.37843e-16
2.29583e-14
2.46428e-12
6.49484e-11
1.27868e-10
2.34669e-09
3.55955e-09
2.59011e-09
2.3947e-09
5.04804e-09
2.77507e-09
2.42559e-12
1.1683e-12
1.23122e-11
5.84018e-11
1.8365e-11
1.88523e-11
2.52451e-06
2.93104e-22
2.54863e-19
1.39391e-16
3.308e-14
3.84621e-12
2.65258e-11
5.15459e-10
1.28106e-09
1.08021e-09
8.81848e-10
2.92684e-10
1.66871e-11
2.7158e-12
1.14714e-12
6.51422e-13
1.60166e-12
8.78719e-31
1.5242e-09
4.46449e-06
)
;

boundaryField
{
    leftWall
    {
        type            zeroGradient;
    }
    rightWall
    {
        type            zeroGradient;
    }
    lowerWall
    {
        type            zeroGradient;
    }
    atmosphere
    {
        type            inletOutlet;
        inletValue      uniform 0;
        value           nonuniform List<scalar> 
46
(
-5.13157e-48
-6.83216e-49
-2.79944e-49
-1.16145e-49
-3.61595e-50
-8.38274e-51
-1.50018e-51
-2.557e-52
-4.51627e-53
-1.13007e-53
-2.40666e-54
0
3.78255e-55
3.62108e-56
0
0
0
0
0
0
0
0
0
0
0
0
0
0
0
0
0
0
2.65258e-11
5.15459e-10
1.28106e-09
1.08021e-09
8.81848e-10
2.92684e-10
1.66871e-11
0
0
0
0
0
0
4.46449e-06
)
;
    }
    defaultFaces
    {
        type            empty;
    }
}


// ************************************************************************* //
