/*--------------------------------*- C++ -*----------------------------------*\
  =========                 |
  \\      /  F ield         | OpenFOAM: The Open Source CFD Toolbox
   \\    /   O peration     | Website:  https://openfoam.org
    \\  /    A nd           | Version:  7
     \\/     M anipulation  |
\*---------------------------------------------------------------------------*/
FoamFile
{
    version     2.0;
    format      ascii;
    class       volScalarField;
    location    "0.8";
    object      epsilon;
}
// * * * * * * * * * * * * * * * * * * * * * * * * * * * * * * * * * * * * * //

dimensions      [0 2 -3 0 0 0 0];

internalField   nonuniform List<scalar> 
2268
(
0.0191641
0.0525133
0.0884346
0.125633
0.162258
0.197719
0.231957
0.264803
0.295841
0.324414
0.349749
0.371121
0.388028
0.400343
0.408724
0.413767
0.413208
0.405908
0.388616
0.35662
0.298438
0.199371
0.0673988
0.0256768
0.0395581
0.0560567
0.0726797
0.0890662
0.104892
0.119973
0.134099
0.147039
0.15853
0.168306
0.176125
0.181792
0.185241
0.186759
0.186867
0.185311
0.182357
0.178011
0.171374
0.159109
0.134219
0.095156
0.034013
0.0371351
0.0504684
0.0641124
0.0770563
0.0891262
0.100357
0.110715
0.120099
0.12837
0.135392
0.14105
0.145275
0.148122
0.149896
0.151073
0.152103
0.153859
0.157349
0.163046
0.169099
0.167496
0.153838
0.0390389
0.0366396
0.0493195
0.0622607
0.0740242
0.0846018
0.0942276
0.103008
0.110932
0.117934
0.123953
0.128956
0.132961
0.136116
0.138796
0.141589
0.145338
0.15146
0.161916
0.178784
0.202202
0.223715
0.230157
0.0414296
0.0368931
0.0498878
0.0627853
0.0740023
0.0837475
0.0924494
0.100331
0.107446
0.113781
0.119333
0.124133
0.128269
0.131966
0.135686
0.14016
0.146572
0.15692
0.174295
0.202993
0.247004
0.302176
0.348281
0.0418713
0.0376563
0.0515326
0.0646032
0.0754734
0.0846313
0.0926903
0.0999643
0.106552
0.112481
0.117798
0.122587
0.126992
0.131308
0.136087
0.142216
0.151207
0.165678
0.18999
0.231291
0.300283
0.408675
0.561199
0.0413353
0.0389809
0.0540246
0.0672772
0.0778394
0.0865121
0.0940689
0.100886
0.107091
0.112749
0.117949
0.122818
0.127552
0.132508
0.138333
0.146073
0.157568
0.176054
0.207138
0.260975
0.357505
0.542975
0.963025
0.0411884
0.0411216
0.0572597
0.0705556
0.0807733
0.0890099
0.0961528
0.102605
0.108514
0.113981
0.11913
0.124127
0.129213
0.134809
0.141665
0.150998
0.164978
0.187423
0.224949
0.289742
0.408339
0.668457
1.67443
2.49825
5.33694
6.78622
7.3036
7.18551
6.80997
6.5229
6.54296
6.8557
7.23625
7.47118
7.2447
6.26786
4.83091
3.57216
2.72894
2.0906
1.20282
0.289508
3.82732
5.32823
5.46905
5.15637
4.67019
4.13389
3.67324
3.38372
3.2535
3.20957
3.1686
3.00973
2.62984
2.11307
1.65342
1.32738
1.06722
0.743426
0.296668
5.7033
5.81868
5.96685
5.86144
5.49987
4.9148
4.21799
3.59975
3.15173
2.88268
2.70574
2.49411
2.14998
1.71879
1.34362
1.09308
0.914005
0.711399
0.437377
7.03457
6.47761
7.09012
7.46553
7.39596
6.84158
5.82038
4.67405
3.73936
3.15457
2.7873
2.46233
2.0731
1.62758
1.24756
1.00947
0.866046
0.733913
0.575623
7.70429
7.07526
8.52348
9.71399
10.2406
9.99095
8.57185
6.54882
4.8068
3.74279
3.0952
2.58513
2.10144
1.61614
1.2151
0.97403
0.849256
0.761932
0.667637
7.60065
7.34124
9.90101
12.3698
13.9956
14.7788
12.9342
9.39384
6.33408
4.59409
3.55657
2.77205
2.15734
1.62727
1.20846
0.962578
0.846307
0.784873
0.735433
6.87224
7.07756
10.3414
13.9199
16.8889
19.0029
18.1316
13.2793
8.22037
5.62742
4.09749
2.97514
2.21745
1.64568
1.2164
0.967224
0.85248
0.802854
0.791191
6.08563
6.47839
9.25737
12.4151
15.2706
16.7321
17.8191
16.2806
10.3608
6.67856
4.60925
3.16962
2.27408
1.67002
1.23674
0.987645
0.870333
0.821255
0.8468
0.0467495
0.0472405
0.0639353
0.076719
0.0861499
0.0936536
0.10019
0.106138
0.111664
0.116912
0.122047
0.127282
0.132928
0.13951
0.147949
0.159744
0.177578
0.206024
0.252521
0.328939
0.453068
0.653491
1.04792
0.0742533
0.0604389
0.0750187
0.0864074
0.0947341
0.101452
0.107313
0.112606
0.117667
0.1227
0.127877
0.133451
0.139867
0.147902
0.158859
0.174905
0.199884
0.240113
0.305104
0.406919
0.552854
0.728979
0.926163
0.114503
0.0761424
0.0895071
0.0997062
0.107182
0.113165
0.117468
0.121202
0.125428
0.130083
0.13518
0.141002
0.148257
0.158195
0.172808
0.195612
0.232844
0.294865
0.397158
0.555723
0.764838
0.969347
1.13513
0.132258
0.0886987
0.0951017
0.102373
0.110341
0.118256
0.12515
0.130246
0.134503
0.138842
0.143747
0.149731
0.158084
0.170953
0.19154
0.225908
0.285045
0.388494
0.566306
0.837912
1.13281
1.31695
1.43177
0.151855
0.0978447
0.0961158
0.100243
0.106611
0.114535
0.123235
0.131617
0.138557
0.144724
0.150921
0.158236
0.169165
0.187324
0.217883
0.271112
0.368117
0.547495
0.878393
1.32461
1.53219
1.62147
1.68881
0.169072
0.103713
0.09771
0.0993815
0.103677
0.109766
0.117032
0.125091
0.13369
0.142645
0.152176
0.163629
0.180234
0.207099
0.252665
0.333361
0.479018
0.719387
1.02902
1.32016
1.6062
1.72623
1.8505
0.180923
0.107696
0.0993223
0.0993941
0.102158
0.106628
0.112421
0.11939
0.127633
0.137318
0.148818
0.163471
0.184664
0.218408
0.274877
0.370518
0.524113
0.733599
0.95027
1.15543
1.46632
1.71864
1.93575
0.187846
0.109955
0.100066
0.099248
0.10117
0.104618
0.109286
0.115148
0.122424
0.131513
0.143131
0.158863
0.181796
0.217687
0.275796
0.368847
0.506909
0.680303
0.856531
1.06467
1.43393
1.75437
1.97313
0.191663
0.110432
0.0995225
0.0982369
0.0998174
0.102804
0.106834
0.111895
0.118232
0.12633
0.137013
0.15188
0.173867
0.207739
0.260943
0.342705
0.459288
0.604762
0.765902
0.990101
1.41969
1.83351
2.00647
0.1935
0.109548
0.0978989
0.0963288
0.0978004
0.100657
0.104426
0.109043
0.114706
0.121871
0.131331
0.144484
0.16386
0.193464
0.238877
0.306848
0.402176
0.523365
0.668869
0.882471
1.29444
1.83619
2.09779
0.193829
0.107731
0.095527
0.0937422
0.095171
0.0980313
0.10175
0.106187
0.111461
0.11794
0.126301
0.137707
0.154127
0.178718
0.215943
0.27066
0.347056
0.446365
0.571761
0.756168
1.10076
1.65879
2.15674
0.192827
0.105256
0.092657
0.0906926
0.0920778
0.0949672
0.0987204
0.103129
0.108233
0.114293
0.121843
0.131805
0.145693
0.165861
0.195601
0.238786
0.299146
0.379087
0.482585
0.630967
0.890139
1.34463
1.93204
0.19058
0.102311
0.0894704
0.0873547
0.0886761
0.091572
0.095369
0.0998129
0.104877
0.110729
0.117762
0.126675
0.138612
0.155322
0.179242
0.213352
0.260745
0.324149
0.407321
0.522427
0.704027
1.01009
1.481
0.187193
0.099043
0.0861045
0.0838665
0.0851028
0.0879669
0.0917785
0.0962598
0.10134
0.107114
0.113856
0.12208
0.132631
0.146791
0.166352
0.193554
0.230863
0.280737
0.346258
0.434337
0.56201
0.759975
1.06231
0.182827
0.0955715
0.0826681
0.0803384
0.0814739
0.0842666
0.088048
0.0925351
0.097633
0.103385
0.109979
0.117782
0.127406
0.13978
0.156202
0.178323
0.208026
0.247301
0.298474
0.365521
0.456674
0.586516
0.773641
0.177679
0.0920022
0.0792512
0.0768613
0.077887
0.0805741
0.0842783
0.088724
0.0938078
0.0995431
0.106056
0.113607
0.122635
0.133804
0.148046
0.166551
0.190713
0.222037
0.262205
0.313559
0.380129
0.46857
0.587445
0.171968
0.0884302
0.0759318
0.073512
0.0744244
0.0769794
0.0805639
0.0849181
0.0899408
0.0956308
0.102075
0.109462
0.118106
0.128481
0.141248
0.157257
0.177511
0.203105
0.235222
0.275285
0.325335
0.388395
0.468036
0.165914
0.0849434
0.0727783
0.0703555
0.0711552
0.073559
0.076989
0.081206
0.0861178
0.0917193
0.0980759
0.105328
0.113707
0.123554
0.13534
0.149666
0.167244
0.188854
0.215311
0.247508
0.286532
0.33379
0.390675
0.159736
0.0816237
0.0698508
0.0674465
0.068136
0.0703757
0.0736252
0.0776674
0.0824233
0.0878908
0.0941253
0.101239
0.109409
0.118888
0.130018
0.143229
0.159023
0.177949
0.200572
0.227466
0.259252
0.296631
0.340133
0.153644
0.0785468
0.0672009
0.0648292
0.0654107
0.0674785
0.0705292
0.0743686
0.0789324
0.0842255
0.0903013
0.0972571
0.105237
0.114439
0.12512
0.137595
0.152226
0.169406
0.189528
0.212981
0.240154
0.271448
0.307096
0.147827
0.075778
0.0648703
0.0625367
0.0630112
0.0649022
0.0677425
0.0713599
0.0757053
0.0807927
0.0866782
0.0934534
0.101245
0.110218
0.120576
0.132564
0.146454
0.162538
0.181103
0.202429
0.226796
0.254486
0.285667
0.142452
0.0733692
0.0628894
0.0605915
0.0609574
0.0626683
0.0652911
0.0686749
0.0727848
0.0776447
0.0833162
0.089891
0.0974883
0.106256
0.116369
0.12803
0.141459
0.156886
0.17454
0.194643
0.217424
0.243131
0.271947
0.137648
0.0713571
0.0612771
0.0590049
0.0592578
0.0607858
0.0631875
0.0663313
0.0701957
0.0748145
0.0802563
0.0866161
0.0940128
0.102587
0.112502
0.123936
0.137085
0.152145
0.169314
0.188789
0.21078
0.235532
0.263264
0.13351
0.0697625
0.0600403
0.0577783
0.0579113
0.0592529
0.0614313
0.0643324
0.0679464
0.0723167
0.0775192
0.0836544
0.0908445
0.0992311
0.108973
0.120243
0.133223
0.148098
0.165052
0.184271
0.205962
0.230374
0.257753
0.130098
0.068592
0.0591757
0.0569038
0.0569077
0.0580589
0.0600125
0.0626696
0.0660314
0.0701493
0.0751066
0.0810103
0.0879883
0.0961867
0.105768
0.116906
0.129781
0.144577
0.161474
0.180654
0.202321
0.226722
0.254112
0.12744
0.0678396
0.0586703
0.0563658
0.0562298
0.0571858
0.0589128
0.0613255
0.0644341
0.0682974
0.073005
0.0786706
0.085429
0.0934335
0.102853
0.11387
0.126669
0.141436
0.158355
0.177605
0.199383
0.223919
0.251457
0.125538
0.0674888
0.0585043
0.056143
0.0558556
0.056611
0.0581093
0.0602767
0.0631314
0.0667375
0.0711904
0.0766097
0.0831373
0.0909348
0.100181
0.111067
0.123787
0.138538
0.155502
0.17486
0.196793
0.221504
0.249201
0.124377
0.0675163
0.0586533
0.0562108
0.0557604
0.0563098
0.0575771
0.0594982
0.0620972
0.0654426
0.0696338
0.0747953
0.0810756
0.0886446
0.0976914
0.108419
0.121035
0.135745
0.152739
0.172194
0.194273
0.219144
0.246957
0.123932
0.0678962
0.0590916
0.0565444
0.0559202
0.0562588
0.0572929
0.0589664
0.0613072
0.0643867
0.0683066
0.073195
0.0792053
0.086515
0.0953234
0.105846
0.118307
0.132923
0.149898
0.169404
0.19159
0.216579
0.244458
0.12418
0.0686057
0.0597969
0.0571225
0.0563151
0.0564389
0.0572383
0.0586629
0.0607427
0.0635498
0.0671866
0.0717825
0.077494
0.0845045
0.0930224
0.103276
0.115506
0.129948
0.146819
0.166299
0.188524
0.213578
0.241483
0.125115
0.0696326
0.0607554
0.057932
0.0569328
0.0568391
0.0574035
0.0585786
0.0603944
0.0629221
0.0662623
0.0705435
0.0759226
0.0825862
0.0907497
0.100653
0.112554
0.126709
0.143357
0.162698
0.184864
0.209914
0.23781
0.126776
0.0709843
0.0619691
0.0589735
0.0577741
0.0574609
0.0577908
0.0587166
0.0602666
0.0625083
0.0655383
0.0694813
0.0744916
0.0807554
0.0884914
0.0979489
0.1094
0.123125
0.139394
0.158435
0.180403
0.205348
0.233189
0.129283
0.0727015
0.0634651
0.0602687
0.0588582
0.0583225
0.0584186
0.0590967
0.0603805
0.0623312
0.0650389
0.0686212
0.0732263
0.0790358
0.0862671
0.0951734
0.106038
0.119164
0.134852
0.15338
0.174949
0.199634
0.227339
0.132876
0.0748773
0.0653091
0.0618697
0.0602288
0.0594635
0.0593253
0.059758
0.0607773
0.0624352
0.0648118
0.0680146
0.0721816
0.0774852
0.0841359
0.0923844
0.102519
0.11486
0.129756
0.147524
0.168421
0.192582
0.219962
0.137986
0.0776883
0.067623
0.0638687
0.0619599
0.0609478
0.0605709
0.060761
0.0615206
0.0628884
0.064931
0.0677421
0.0714453
0.0761991
0.082201
0.0896922
0.0989584
0.11034
0.124202
0.140915
0.160811
0.184113
0.210855
0.14534
0.0814428
0.0706072
0.0664044
0.0641541
0.0628597
0.0622333
0.062184
0.0626935
0.0637815
0.0654964
0.067914
0.0711397
0.0753128
0.0806117
0.0872599
0.0955367
0.105774
0.118352
0.133689
0.152194
0.174204
0.199881
0.156131
0.0866469
0.0745534
0.0696522
0.066925
0.0652846
0.0643895
0.0641071
0.0643853
0.0652164
0.0666252
0.0686654
0.0714195
0.0750017
0.0795644
0.0853071
0.0924853
0.101412
0.112469
0.126096
0.142774
0.162961
0.186987
0.172221
0.0940539
0.0798116
0.0737685
0.0703419
0.0682599
0.0670725
0.0665725
0.066655
0.067274
0.0684248
0.0701345
0.0724576
0.0754752
0.0793015
0.0841022
0.090101
0.0975828
0.106903
0.118501
0.132892
0.150636
0.172247
0.196164
0.104545
0.0866331
0.0787602
0.0743277
0.0716903
0.0701949
0.0695117
0.0694594
0.0699431
0.0709245
0.0724032
0.0744025
0.0769568
0.0801122
0.0839738
0.0887455
0.0946814
0.102093
0.111376
0.123029
0.137651
0.155899
0.22982
0.118516
0.0948081
0.0842782
0.0785318
0.0752513
0.0734579
0.0726488
0.0725464
0.073002
0.0739486
0.0753684
0.0772651
0.0796176
0.0823328
0.085326
0.0888546
0.0931778
0.0985551
0.1053
0.113824
0.124663
0.138487
0.270503
0.134396
0.103122
0.0894202
0.082253
0.0783453
0.0763057
0.0754363
0.075363
0.0758923
0.0769463
0.0785232
0.0806661
0.0833703
0.0863951
0.0886864
0.0909661
0.0936269
0.0968892
0.100958
0.106095
0.112659
0.121136
0.306273
0.147022
0.108961
0.0927379
0.0845373
0.0802083
0.0780216
0.0771359
0.0771132
0.0777369
0.0789384
0.0807687
0.0834117
0.0872065
0.0932112
0.0948423
0.0957639
0.0966922
0.0977946
0.0991504
0.100844
0.102989
0.105747
2.20892
2.07071
2.02622
2.5857
1.1672
1.32151
1.57061
2.09098
1.32176
1.47967
1.70168
2.01589
1.65734
1.87649
2.19508
2.64403
2.01241
2.32397
2.75338
3.29382
2.26875
2.63791
3.10591
3.65749
2.40375
2.80467
3.30863
3.91566
2.39757
2.77403
3.26385
3.87685
2.30015
2.58457
2.9764
3.48609
2.23444
2.38915
2.63389
2.9786
2.28251
2.32632
2.41838
2.58773
2.25368
2.37174
2.404
2.44167
1.89591
2.1479
2.35617
2.4515
1.37129
1.60682
1.86267
2.10549
0.965446
1.12144
1.30006
1.49602
0.703471
0.798817
0.907855
1.03067
0.541505
0.601208
0.668284
0.742969
0.440844
0.481033
0.525575
0.574692
0.377376
0.406874
0.439359
0.475114
0.337122
0.360724
0.386671
0.415287
0.311751
0.332146
0.354569
0.379355
0.296018
0.314754
0.33535
0.358132
0.286445
0.304398
0.324108
0.345882
0.280649
0.298273
0.317571
0.338823
0.276996
0.294479
0.313547
0.33445
0.274398
0.291775
0.31063
0.331178
0.272168
0.289399
0.307983
0.3281
0.26989
0.286917
0.305161
0.324766
0.267304
0.284086
0.301947
0.320995
0.26422
0.280746
0.298221
0.316717
0.260444
0.276731
0.293853
0.311854
0.255739
0.27182
0.288649
0.306242
0.249812
0.265718
0.282315
0.299598
0.242326
0.258064
0.274472
0.291526
0.232944
0.248461
0.264676
0.281541
0.221427
0.236562
0.252467
0.269095
0.207577
0.222088
0.237468
0.253673
0.191264
0.204761
0.219244
0.234692
0.172458
0.184339
0.197304
0.211375
0.15143
0.160838
0.171313
0.182937
0.129257
0.13522
0.141982
0.149647
0.108392
0.110329
0.112534
0.115047
4.58938
5.28157
6.64492
7.94734
9.13126
10.3643
12.5396
15.1036
13.1355
8.13964
5.24269
3.40217
2.34232
1.70985
1.28193
1.04467
0.920099
0.852802
0.920138
3.47546
4.05317
4.54379
4.99029
5.6556
7.07388
9.52492
13.0937
14.707
10.2938
6.17194
3.69587
2.42036
1.76497
1.41245
1.26298
1.12857
0.968542
1.08658
2.67006
3.43161
3.80156
4.20041
5.21341
7.38208
9.86204
13.3055
15.4858
11.8467
6.77636
3.86741
2.4867
1.84382
1.67149
1.72727
1.6087
1.23885
1.34881
3.35216
4.64085
4.84516
5.3223
6.91083
9.07311
11.1873
13.975
15.7962
12.0473
6.75927
3.88221
2.59532
2.00668
1.99912
2.21009
2.22003
1.75083
1.74569
4.08388
5.01815
5.47636
6.49092
8.11198
9.96608
12.0655
14.5343
15.5699
10.977
6.24118
3.82041
2.74418
2.2197
2.29401
2.55115
2.63636
2.32347
1.81409
4.34241
5.47461
6.4404
7.42834
8.95275
10.8096
12.9447
15.1954
14.7936
9.52517
5.61015
3.79977
2.92157
2.49289
2.65936
3.00868
3.11655
2.79698
1.96123
4.74727
6.16128
7.39828
8.39387
9.79981
11.6091
13.7058
15.4164
13.346
8.0398
5.06161
3.8806
3.15937
2.85288
3.15815
3.65508
3.78618
3.41209
2.64522
4.79266
6.56586
8.06318
9.12481
10.3498
11.862
13.2999
13.7269
10.5078
6.53693
4.59181
3.97552
3.45897
3.32212
3.83019
4.57359
4.65067
4.11173
3.74029
4.2835
6.11279
8.12098
9.45885
10.4591
11.2647
11.5713
10.809
7.97468
5.44503
4.2148
3.93139
3.72356
3.90454
4.80338
6.19139
5.84328
4.80594
4.97554
3.55623
4.96287
6.98026
9.06319
9.99531
9.99079
9.81736
8.89291
6.69117
4.75603
3.92749
3.80503
3.91211
4.56426
6.12305
6.97301
7.1335
5.45586
6.1461
2.91782
3.81212
5.1452
6.84935
8.23513
8.67246
8.50744
7.15818
5.33573
4.14918
3.70844
3.70359
4.05095
5.09348
6.06415
6.78422
7.43503
5.7794
7.138
2.53736
2.97833
3.73386
4.72005
5.71097
6.37244
6.18253
5.17764
4.24923
3.71649
3.58669
3.67114
4.10701
5.03119
6.01969
7.43115
7.71627
6.28403
7.89964
2.4642
2.5299
2.85578
3.35925
3.91313
4.3016
4.28665
3.90243
3.5913
3.53918
3.5332
3.64132
4.12065
5.02623
6.40343
7.89238
7.8071
6.66869
8.43095
2.39471
2.3822
2.43143
2.62501
2.90929
3.15333
3.246
3.22582
3.28939
3.44553
3.39841
3.59527
4.1231
5.09462
6.57031
7.60929
7.23478
6.30077
8.64234
1.83485
2.19523
2.23783
2.31149
2.49704
2.69828
2.83372
2.86488
3.10077
3.18518
3.25985
3.50765
4.02877
4.94586
6.10928
6.67745
6.24586
5.61374
8.55702
1.25779
1.55669
1.768
1.84503
1.98683
2.19287
2.43425
2.66296
2.89071
2.99189
3.11901
3.34926
3.78897
4.51915
5.29768
5.61199
5.31341
4.90588
8.22213
0.881142
1.06609
1.24668
1.43183
1.67279
1.96831
2.30487
2.55102
2.71713
2.82496
2.94473
3.1225
3.46199
3.98936
4.50633
4.73823
4.63534
4.35154
7.55088
0.664877
0.785678
0.919518
1.08866
1.33066
1.66481
2.04602
2.35467
2.54739
2.65885
2.74495
2.87701
3.13391
3.51786
3.89836
4.13195
4.18307
3.98288
6.90416
0.540814
0.631
0.738875
0.887063
1.10878
1.42277
1.79626
2.13021
2.35133
2.47019
2.54298
2.65077
2.8569
3.15998
3.47987
3.74296
3.89231
3.77261
6.47062
0.468133
0.543317
0.637112
0.768322
0.963663
1.24018
1.576
1.89684
2.13003
2.26406
2.34778
2.45501
2.63935
2.89989
3.19472
3.49066
3.70409
3.68133
6.2065
0.425334
0.492797
0.578351
0.696455
0.866985
1.1034
1.39182
1.67997
1.90815
2.05739
2.16298
2.28415
2.46373
2.70411
2.98557
3.29961
3.55063
3.67508
6.09419
0.400478
0.463862
0.54428
0.652418
0.802252
1.00317
1.2461
1.49563
1.708
1.8657
1.99197
2.12993
2.31146
2.53982
2.80631
3.11421
3.38348
3.71965
6.16795
0.38632
0.447443
0.524322
0.624657
0.757828
0.929679
1.13379
1.34668
1.53879
1.69724
1.83695
1.98715
2.16966
2.38622
2.6323
2.91362
3.19404
3.73465
6.49743
0.378167
0.437775
0.511752
0.605523
0.725121
0.873748
1.04653
1.22812
1.39966
1.55309
1.69813
1.85357
2.0331
2.23645
2.4606
2.71296
2.99903
3.63689
7.01447
0.372955
0.431141
0.50224
0.589996
0.69813
0.828101
0.976109
1.1322
1.28495
1.43004
1.57402
1.72856
1.90154
2.09144
2.29627
2.52611
2.81157
3.44989
7.27532
0.368795
0.425305
0.493229
0.575104
0.67313
0.787751
0.916045
1.05166
1.18802
1.3233
1.46215
1.61165
1.77596
1.95304
2.14159
2.35218
2.62544
3.227
7.10531
0.364662
0.419137
0.483515
0.559482
0.648293
0.749901
0.862162
0.981155
1.10336
1.2285
1.35998
1.50204
1.65658
1.82122
1.99467
2.18525
2.43452
2.98077
6.63945
0.360117
0.412269
0.472835
0.542912
0.623205
0.71351
0.812382
0.917566
1.02745
1.14259
1.26555
1.39878
1.54269
1.69437
1.85134
2.01926
2.23546
2.7134
6.04496
0.35506
0.404768
0.461467
0.525848
0.598314
0.678697
0.766158
0.859593
0.958554
1.06399
1.1778
1.30118
1.43342
1.57073
1.70892
1.8515
2.02945
2.44274
5.43682
0.34953
0.396874
0.449894
0.508996
0.574427
0.646138
0.723789
0.807059
0.896185
0.992227
1.09648
1.20918
1.32858
1.44989
1.56764
1.68368
1.8252
2.19187
4.87063
0.343548
0.388795
0.438547
0.492996
0.55231
0.616573
0.685823
0.760249
0.84045
0.927411
1.02187
1.12325
1.22892
1.33328
1.43048
1.52166
1.63628
1.96906
4.35546
0.337018
0.380574
0.427637
0.478223
0.53244
0.590483
0.652646
0.719419
0.791542
0.869801
0.954424
1.04418
1.13575
1.22322
1.30088
1.37051
1.46973
1.77518
3.88565
0.329686
0.372031
0.417082
0.464684
0.514882
0.567926
0.624259
0.684512
0.749411
0.81948
0.894474
0.97267
1.05041
1.12204
1.18203
1.23431
1.32363
1.60435
3.46175
0.321133
0.362753
0.406491
0.452011
0.499265
0.548498
0.600205
0.655038
0.71362
0.776174
0.842031
0.90911
0.97366
1.03059
1.07501
1.1157
1.19596
1.44774
3.08032
0.310809
0.352127
0.395209
0.439511
0.484845
0.531387
0.579598
0.630075
0.683292
0.739182
0.796698
0.85346
0.905752
0.948971
0.979737
1.0119
1.08327
1.30173
2.72429
0.298061
0.33939
0.382387
0.426258
0.470611
0.515482
0.561224
0.608323
0.657107
0.707294
0.757514
0.805021
0.845878
0.876237
0.895349
0.918481
0.977842
1.16079
2.38225
0.282117
0.323619
0.367
0.411165
0.455421
0.499559
0.543726
0.588264
0.633396
0.678706
0.722539
0.761626
0.791563
0.809472
0.816934
0.827987
0.869164
1.01898
2.05891
0.262129
0.303548
0.347675
0.392891
0.43806
0.4825
0.52593
0.568512
0.610454
0.651276
0.688975
0.719452
0.737689
0.742248
0.736105
0.731175
0.752561
0.873759
1.74487
0.236813
0.277148
0.321993
0.369158
0.416828
0.463386
0.507253
0.548388
0.587254
0.623398
0.654262
0.674257
0.677844
0.666039
0.643344
0.620951
0.624454
0.721176
1.43456
0.204461
0.241093
0.284865
0.334533
0.387485
0.440807
0.487937
0.528505
0.564293
0.595172
0.617572
0.622911
0.603458
0.570392
0.529265
0.490508
0.478743
0.555369
1.11933
0.164211
0.191239
0.227467
0.27525
0.33592
0.408667
0.468509
0.510868
0.544068
0.569312
0.581005
0.563199
0.495123
0.434209
0.378817
0.333127
0.314519
0.377202
0.885286
0.11986
0.129308
0.143577
0.167624
0.216222
0.329359
0.448968
0.498704
0.531108
0.552062
0.552595
0.499768
0.289147
0.219522
0.186158
0.16526
0.15723
0.192929
0.800591
)
;

boundaryField
{
    leftWall
    {
        type            epsilonWallFunction;
        value           nonuniform List<scalar> 
50
(
0.0191641
0.0256768
0.034013
0.0390389
0.0414296
0.0418713
0.0413353
0.0411884
0.0467495
0.0742533
0.114503
0.132258
0.151855
0.169072
0.180923
0.187846
0.191663
0.1935
0.193829
0.192827
0.19058
0.187193
0.182827
0.177679
0.171968
0.165914
0.159736
0.153644
0.147827
0.142452
0.137648
0.13351
0.130098
0.12744
0.125538
0.124377
0.123932
0.12418
0.125115
0.126776
0.129283
0.132876
0.137986
0.14534
0.156131
0.172221
0.196164
0.22982
0.270503
0.306273
)
;
    }
    rightWall
    {
        type            epsilonWallFunction;
        value           nonuniform List<scalar> 
50
(
0.289508
0.296668
0.437377
0.575623
0.667637
0.735433
0.791191
0.8468
0.920138
1.08658
1.34881
1.74569
1.81409
1.96123
2.64522
3.74029
4.97554
6.1461
7.138
7.89964
8.43095
8.64234
8.55702
8.22213
7.55088
6.90416
6.47062
6.2065
6.09419
6.16795
6.49743
7.01447
7.27532
7.10531
6.63945
6.04496
5.43682
4.87063
4.35546
3.88565
3.46175
3.08032
2.72429
2.38225
2.05891
1.74487
1.43456
1.11933
0.885286
0.800591
)
;
    }
    lowerWall
    {
        type            epsilonWallFunction;
        value           nonuniform List<scalar> 
62
(
0.0191641
0.0525133
0.0884346
0.125633
0.162258
0.197719
0.231957
0.264803
0.295841
0.324414
0.349749
0.371121
0.388028
0.400343
0.408724
0.413767
0.413208
0.405908
0.388616
0.35662
0.298438
0.199371
0.0673988
0.0673988
0.095156
0.153838
0.230157
0.348281
0.561199
0.963025
1.67443
2.20892
2.07071
2.02622
2.5857
2.49825
3.82732
5.7033
7.03457
7.70429
7.60065
6.87224
6.08563
2.49825
5.33694
6.78622
7.3036
7.18551
6.80997
6.5229
6.54296
6.8557
7.23625
7.47118
7.2447
6.26786
4.83091
3.57216
2.72894
2.0906
1.20282
0.289508
)
;
    }
    atmosphere
    {
        type            inletOutlet;
        inletValue      uniform 0.1;
        value           nonuniform List<scalar> 
46
(
0.306273
0.147022
0.108961
0.0927379
0.0845373
0.0802083
0.0780216
0.0771359
0.0771132
0.0777369
0.0789384
0.0807687
0.0834117
0.0872065
0.1
0.1
0.1
0.1
0.1
0.1
0.1
0.1
0.1
0.1
0.1
0.1
0.1
0.1
0.1
0.1
0.1
0.1
0.1
0.448968
0.498704
0.531108
0.552062
0.552595
0.499768
0.1
0.1
0.1
0.1
0.1
0.1
0.800591
)
;
    }
    defaultFaces
    {
        type            empty;
    }
}


// ************************************************************************* //
