/*--------------------------------*- C++ -*----------------------------------*\
  =========                 |
  \\      /  F ield         | OpenFOAM: The Open Source CFD Toolbox
   \\    /   O peration     | Website:  https://openfoam.org
    \\  /    A nd           | Version:  7
     \\/     M anipulation  |
\*---------------------------------------------------------------------------*/
FoamFile
{
    version     2.0;
    format      ascii;
    class       volVectorField;
    location    "0.002";
    object      fD;
}
// * * * * * * * * * * * * * * * * * * * * * * * * * * * * * * * * * * * * * //

dimensions      [1 -1 -2 0 0 0 0];

internalField   uniform (0 0 0);

boundaryField
{
    flow
    {
        type            zeroGradient;
    }
    obstacle
    {
        type            calculated;
        value           nonuniform List<vector> 
40
(
(1.166114844 -2.939224408 -1.035192845)
(9.469072507 -4.072965124 0.5725938563)
(7.899958413 -8.013206931 -2.654001098)
(0 0 0)
(0 0 0)
(0 0 0)
(5.100661433 -4.243473473 -0.5216265415)
(3.654135053 -5.780857883 1.871141651)
(2.291509913 -1.92723675 1.083388579)
(1.243439202 -1.543571557 0.9884400794)
(0 0 0)
(0 0 0)
(1.313992905 -1.61456053 1.404988562)
(2.871276638 -1.830769557 1.759117549)
(0 0 0)
(4.927556695 -2.550296478 3.267120818)
(0 0 0)
(7.303072976 -5.884577076 -1.847278802)
(2.603038495 -2.295710081 -0.7860295437)
(1.677356524 -4.599282971 -1.644590591)
(0.9699033293 -1.45225903 0.3429017925)
(1.570848284 -1.2584615 0.108650102)
(1.730521465 -1.866094716 0.2297031127)
(2.563756446 -4.980485 -2.538112563)
(0 0 0)
(0 0 0)
(0 0 0)
(0 0 0)
(0 0 0)
(2.285087883 -3.781193803 -2.488963101)
(0 0 0)
(1.852377563 -2.523182954 -1.57951028)
(1.179530437 -1.691536238 -1.016082256)
(0 0 0)
(-0.6571815273 -0.7649876463 1.175392786)
(1.15236009 -1.842987055 -0.1876579605)
(0 0 0)
(0 0 0)
(0.6761993274 -1.388660022 -3.032805055)
(1.291346854 -0.1905143654 -1.160934274)
)
;
    }
    frontAndBack
    {
        type            empty;
    }
}


// ************************************************************************* //
