/*--------------------------------*- C++ -*----------------------------------*\
  =========                 |
  \\      /  F ield         | OpenFOAM: The Open Source CFD Toolbox
   \\    /   O peration     | Website:  https://openfoam.org
    \\  /    A nd           | Version:  7
     \\/     M anipulation  |
\*---------------------------------------------------------------------------*/
FoamFile
{
    version     2.0;
    format      ascii;
    class       volScalarField;
    location    "0.002";
    object      iDofMean;
}
// * * * * * * * * * * * * * * * * * * * * * * * * * * * * * * * * * * * * * //

dimensions      [0 -3 0 0 0 0 0];

internalField   nonuniform List<scalar> 
2400
(
1.686651129e+20
1.662490653e+20
1.662698933e+20
1.499824003e+20
1.506280682e+20
1.597299025e+20
1.620834661e+20
1.633123179e+20
1.547936675e+20
1.557934113e+20
1.57397167e+20
1.448170573e+20
1.498157764e+20
1.381104425e+20
1.425259777e+20
1.362984069e+20
1.373606347e+20
1.457543171e+20
1.391518423e+20
1.288003282e+20
1.775794953e+20
1.641870937e+20
1.551893994e+20
1.549602914e+20
1.499407444e+20
1.530024598e+20
1.533565357e+20
1.547311835e+20
1.480870527e+20
1.512320801e+20
1.478787727e+20
1.375064306e+20
1.415678899e+20
1.435673775e+20
1.474830408e+20
1.35777707e+20
1.401932421e+20
1.260926887e+20
1.24593073e+20
1.181780502e+20
1.698106527e+20
1.623542301e+20
1.496491524e+20
1.557934113e+20
1.526900398e+20
1.513362201e+20
1.460250811e+20
1.439422815e+20
1.395684023e+20
1.491492805e+20
1.4083891e+20
1.397350262e+20
1.508363482e+20
1.423176978e+20
1.406514581e+20
1.200109139e+20
1.216354976e+20
1.177198343e+20
1.133251271e+20
1.149288828e+20
1.746010918e+20
1.557725833e+20
1.484203006e+20
1.601256345e+20
1.444421534e+20
1.46420813e+20
1.35590255e+20
1.322161196e+20
1.4115133e+20
1.383187225e+20
1.375480866e+20
1.448378853e+20
1.421094178e+20
1.430675056e+20
1.334033154e+20
1.385270025e+20
1.208648617e+20
1.324035716e+20
1.209273457e+20
1.172824464e+20
1.62791618e+20
1.528358358e+20
1.51919404e+20
1.399641342e+20
1.51606984e+20
1.432549576e+20
1.4115133e+20
1.368191068e+20
1.40859738e+20
1.366733108e+20
1.347987911e+20
1.289252962e+20
1.381729265e+20
1.451711332e+20
1.341531233e+20
1.292168882e+20
1.273007125e+20
1.207815497e+20
1.167200905e+20
1.126794592e+20
1.658949894e+20
1.413804379e+20
1.390268744e+20
1.476913208e+20
1.443588414e+20
1.432341296e+20
1.405681461e+20
1.377563666e+20
1.443796694e+20
1.366108268e+20
1.359026749e+20
1.327784755e+20
1.291960602e+20
1.362984069e+20
1.258010968e+20
1.319036997e+20
1.24572245e+20
1.217604655e+20
1.146997748e+20
1.048897887e+20
1.568556391e+20
1.485869246e+20
1.454418972e+20
1.51627812e+20
1.352361791e+20
1.427759137e+20
1.447962293e+20
1.401099302e+20
1.430466776e+20
1.328826155e+20
1.363817189e+20
1.422760418e+20
1.286961883e+20
1.274465085e+20
1.311955478e+20
1.154704107e+20
1.151788188e+20
1.133042991e+20
1.105550036e+20
1.072641802e+20
1.665614853e+20
1.523984479e+20
1.490867965e+20
1.499615723e+20
1.396308863e+20
1.482953327e+20
1.330075835e+20
1.386727984e+20
1.396100583e+20
1.372564947e+20
1.307789879e+20
1.35631911e+20
1.373606347e+20
1.252803969e+20
1.236349852e+20
1.237807812e+20
1.169908544e+20
1.19052826e+20
1.156786907e+20
1.081806121e+20
1.547520115e+20
1.530024598e+20
1.432133016e+20
1.46233361e+20
1.503781323e+20
1.539813756e+20
1.451086492e+20
1.30404084e+20
1.367774508e+20
1.372773227e+20
1.341114673e+20
1.351736951e+20
1.371315267e+20
1.233433933e+20
1.232184253e+20
1.237599532e+20
1.153870987e+20
1.132626431e+20
1.069517603e+20
1.067018243e+20
1.435048935e+20
1.417345139e+20
1.387144544e+20
1.35319491e+20
1.370690427e+20
1.397558542e+20
1.368607628e+20
1.402140701e+20
1.384436905e+20
1.381729265e+20
1.394850903e+20
1.35756879e+20
1.269258086e+20
1.214480456e+20
1.197818059e+20
1.289669522e+20
1.181780502e+20
1.173032744e+20
1.107424556e+20
1.097427118e+20
1.443171854e+20
1.30112492e+20
1.329034435e+20
1.384228625e+20
1.395684023e+20
1.321536356e+20
1.312996878e+20
1.384853465e+20
1.336532514e+20
1.233433933e+20
1.292168882e+20
1.338198753e+20
1.220312295e+20
1.24655557e+20
1.280505204e+20
1.228435213e+20
1.125336632e+20
1.209898297e+20
1.196984939e+20
1.157828306e+20
1.41068018e+20
1.352778351e+20
1.4125547e+20
1.387561104e+20
1.315287957e+20
1.256553008e+20
1.437340015e+20
1.406306301e+20
1.366108268e+20
1.339864993e+20
1.323202596e+20
1.316121077e+20
1.260926887e+20
1.286337043e+20
1.210939697e+20
1.24488933e+20
1.090345599e+20
1.144498389e+20
1.216979816e+20
1.166576065e+20
1.458376291e+20
1.426717737e+20
1.447545733e+20
1.296126201e+20
1.225311014e+20
1.29945868e+20
1.253637089e+20
1.35548599e+20
1.444213254e+20
1.280713484e+20
1.41234642e+20
1.274048525e+20
1.167409185e+20
1.168242305e+20
1.217396376e+20
1.167825745e+20
1.156370347e+20
1.147414308e+20
1.127002872e+20
1.176781783e+20
1.457543171e+20
1.424843217e+20
1.321328076e+20
1.35569427e+20
1.280921764e+20
1.350278991e+20
1.327576475e+20
1.314663118e+20
1.280505204e+20
1.387977664e+20
1.274465085e+20
1.318620437e+20
1.290294362e+20
1.122837273e+20
1.196984939e+20
1.107216276e+20
1.13700031e+20
1.065560284e+20
1.163868425e+20
1.232809093e+20
1.437964855e+20
1.4125547e+20
1.399433062e+20
1.366733108e+20
1.320911516e+20
1.311122358e+20
1.266342166e+20
1.328201315e+20
1.231767693e+20
1.266967006e+20
1.335074554e+20
1.280088644e+20
1.244472771e+20
1.169908544e+20
1.184488142e+20
1.163660145e+20
1.24572245e+20
1.149705388e+20
1.30008352e+20
1.123670393e+20
1.584802228e+20
1.491909365e+20
1.30216632e+20
1.313205158e+20
1.405473181e+20
1.331950354e+20
1.316537637e+20
1.283421123e+20
1.285295643e+20
1.240098891e+20
1.170949944e+20
1.258219248e+20
1.210523137e+20
1.327784755e+20
1.188237181e+20
1.226977254e+20
1.239057492e+20
1.257802688e+20
1.309247839e+20
1.213439056e+20
1.504822723e+20
1.347987911e+20
1.40818082e+20
1.431508176e+20
1.315912797e+20
1.262176567e+20
1.274673365e+20
1.258844088e+20
1.230309733e+20
1.222603375e+20
1.202400218e+20
1.30404084e+20
1.174490703e+20
1.253637089e+20
1.186362661e+20
1.173241024e+20
1.295917921e+20
1.305082239e+20
1.230726293e+20
1.160744226e+20
1.460042531e+20
1.449628533e+20
1.391934983e+20
1.405681461e+20
1.415678899e+20
1.384436905e+20
1.222811655e+20
1.224686174e+20
1.197609779e+20
1.280921764e+20
1.266550446e+20
1.294043401e+20
1.253012249e+20
1.177198343e+20
1.200525699e+20
1.205524418e+20
1.279255524e+20
1.264884207e+20
1.151371628e+20
1.201775378e+20
1.434215816e+20
1.35694395e+20
1.340489833e+20
1.383603785e+20
1.351945231e+20
1.263009687e+20
1.289252962e+20
1.279672084e+20
1.233225653e+20
1.224477894e+20
1.318412157e+20
1.269882926e+20
1.206149258e+20
1.226977254e+20
1.179489423e+20
1.276339605e+20
1.208440337e+20
1.182197062e+20
1.125128353e+20
1.166784345e+20
1.424634937e+20
1.325285396e+20
1.212189376e+20
1.290919202e+20
1.292168882e+20
1.308831279e+20
1.291544042e+20
1.370690427e+20
1.261551727e+20
1.19365246e+20
1.216563256e+20
1.209065177e+20
1.215730136e+20
1.117213714e+20
1.178448023e+20
1.156995187e+20
1.271340886e+20
1.274881645e+20
1.198234619e+20
1.216771536e+20
1.4104719e+20
1.430258496e+20
1.381312705e+20
1.30404084e+20
1.365483428e+20
1.344863712e+20
1.341322953e+20
1.273840245e+20
1.272174005e+20
1.207190657e+20
1.199067739e+20
1.198651179e+20
1.318828717e+20
1.186570941e+20
1.257177848e+20
1.127419432e+20
1.260510328e+20
1.221978535e+20
1.128460832e+20
1.170533384e+20
1.396725422e+20
1.481911927e+20
1.426509457e+20
1.275923045e+20
1.382145825e+20
1.275923045e+20
1.3002918e+20
1.234058772e+20
1.239890611e+20
1.142623869e+20
1.206357538e+20
1.235308452e+20
1.260302048e+20
1.258635808e+20
1.272174005e+20
1.156786907e+20
1.203233338e+20
1.145123229e+20
1.147622588e+20
1.150538508e+20
1.344030592e+20
1.363192349e+20
1.420677618e+20
1.35361147e+20
1.378605066e+20
1.255303329e+20
1.24572245e+20
1.263634527e+20
1.310080958e+20
1.178448023e+20
1.239682331e+20
1.275714765e+20
1.266967006e+20
1.220312295e+20
1.285712203e+20
1.180739102e+20
1.163868425e+20
1.205940978e+20
1.237391252e+20
1.088262799e+20
1.433590976e+20
1.358818469e+20
1.478371167e+20
1.391101863e+20
1.282379724e+20
1.345488552e+20
1.367357948e+20
1.312163758e+20
1.322161196e+20
1.238432652e+20
1.222811655e+20
1.272382285e+20
1.367982788e+20
1.319453557e+20
1.282796283e+20
1.24947149e+20
1.214272176e+20
1.230726293e+20
1.255303329e+20
1.13720859e+20
1.496074964e+20
1.557517553e+20
1.417969979e+20
1.402765541e+20
1.383187225e+20
1.425468057e+20
1.443380134e+20
1.309456119e+20
1.342989192e+20
1.266133887e+20
1.241348571e+20
1.289461242e+20
1.303416e+20
1.272382285e+20
1.259677208e+20
1.215730136e+20
1.195943539e+20
1.267800126e+20
1.240723731e+20
1.168242305e+20
1.594591386e+20
1.489410005e+20
1.337990473e+20
1.30404084e+20
1.217812935e+20
1.385061745e+20
1.376105706e+20
1.159911106e+20
1.211356257e+20
1.317995597e+20
1.198859459e+20
1.280296924e+20
1.285087363e+20
1.241973411e+20
1.221145415e+20
1.223853054e+20
1.240932011e+20
1.231142853e+20
1.236558132e+20
1.265300767e+20
1.600839785e+20
1.4125547e+20
1.30008352e+20
1.312788598e+20
1.323202596e+20
1.307165039e+20
1.365275148e+20
1.338823593e+20
1.320703236e+20
1.157828306e+20
1.30154148e+20
1.223019934e+20
1.228851773e+20
1.256553008e+20
1.277381004e+20
1.217812935e+20
1.198859459e+20
1.262593127e+20
1.211147977e+20
1.328201315e+20
1.456293491e+20
1.493159045e+20
1.396100583e+20
1.423801817e+20
1.450045093e+20
1.443171854e+20
1.398808222e+20
1.345905112e+20
1.321536356e+20
1.24718041e+20
1.255928168e+20
1.388602504e+20
1.333824874e+20
1.295501361e+20
1.250929449e+20
1.284670803e+20
1.233850492e+20
1.19094482e+20
1.215938416e+20
1.291960602e+20
1.405681461e+20
1.492117645e+20
1.537522676e+20
1.476913208e+20
1.347154792e+20
1.413387819e+20
1.415887179e+20
1.349445871e+20
1.306331919e+20
1.296542761e+20
1.276131325e+20
1.326118515e+20
1.236974692e+20
1.321536356e+20
1.314871398e+20
1.372773227e+20
1.331533794e+20
1.284045963e+20
1.294459961e+20
1.264259367e+20
1.5196106e+20
1.485452686e+20
1.418803098e+20
1.386311424e+20
1.405889741e+20
1.377147106e+20
1.454627252e+20
1.424634937e+20
1.397975102e+20
1.452961012e+20
1.334241434e+20
1.393184663e+20
1.278422404e+20
1.346113392e+20
1.448378853e+20
1.362567509e+20
1.331742074e+20
1.321536356e+20
1.204899578e+20
1.282171444e+20
1.496908084e+20
1.35444459e+20
1.437548295e+20
1.360692989e+20
1.501698523e+20
1.400891022e+20
1.452752732e+20
1.376105706e+20
1.361734389e+20
1.29966696e+20
1.35423631e+20
1.364025468e+20
1.392768103e+20
1.386103144e+20
1.406722861e+20
1.281754884e+20
1.286961883e+20
1.280713484e+20
1.230309733e+20
1.265092487e+20
1.483994726e+20
1.595216226e+20
1.597715585e+20
1.482953327e+20
1.502531643e+20
1.399849622e+20
1.460459091e+20
1.406722861e+20
1.318620437e+20
1.324035716e+20
1.399641342e+20
1.228226934e+20
1.308831279e+20
1.366108268e+20
1.468790289e+20
1.35486115e+20
1.294668241e+20
1.322161196e+20
1.319453557e+20
1.284670803e+20
1.486494086e+20
1.506280682e+20
1.479829127e+20
1.493783885e+20
1.430675056e+20
1.276964445e+20
1.416095459e+20
1.46233361e+20
1.368815908e+20
1.350070711e+20
1.306748479e+20
1.374439467e+20
1.366733108e+20
1.344655432e+20
1.475246968e+20
1.360276429e+20
1.284254243e+20
1.315704517e+20
1.252387409e+20
1.277381004e+20
1.40776426e+20
1.469831689e+20
1.569181231e+20
1.539188916e+20
1.395059183e+20
1.495866684e+20
1.481287087e+20
1.348404471e+20
1.428175697e+20
1.344863712e+20
1.424634937e+20
1.370065587e+20
1.351112111e+20
1.4104719e+20
1.29904212e+20
1.363608909e+20
1.310914078e+20
1.306123639e+20
1.259677208e+20
1.35840191e+20
1.544604195e+20
1.589800947e+20
1.468998569e+20
1.440672494e+20
1.436923455e+20
1.483994726e+20
1.483994726e+20
1.479620847e+20
1.483578166e+20
1.416512019e+20
1.398599942e+20
1.383603785e+20
1.333616594e+20
1.395475743e+20
1.366524828e+20
1.3023746e+20
1.368191068e+20
1.403806941e+20
1.294459961e+20
1.280505204e+20
1.68102757e+20
1.678111651e+20
1.668947332e+20
1.554809913e+20
1.441297334e+20
1.523984479e+20
1.440672494e+20
1.4115133e+20
1.447129173e+20
1.535856437e+20
1.365275148e+20
1.385270025e+20
1.438797975e+20
1.46462469e+20
1.351320391e+20
1.416303739e+20
1.478787727e+20
1.384853465e+20
1.24843009e+20
1.347779631e+20
1.559392072e+20
1.618751862e+20
1.6277079e+20
1.498990884e+20
1.562307992e+20
1.468790289e+20
1.459209411e+20
1.510029722e+20
1.405056621e+20
1.437131735e+20
1.51815264e+20
1.476288368e+20
1.480245687e+20
1.474622128e+20
1.345696832e+20
1.360484709e+20
1.418178258e+20
1.450045093e+20
1.422968698e+20
1.449211973e+20
1.579803509e+20
1.691233288e+20
1.522526519e+20
1.496074964e+20
1.599590105e+20
1.522526519e+20
1.444004974e+20
1.523359639e+20
1.513153921e+20
1.51940232e+20
1.505447562e+20
1.442547014e+20
1.429217096e+20
1.46254189e+20
1.502948203e+20
1.385061745e+20
1.380479585e+20
1.423176978e+20
1.405264901e+20
1.443588414e+20
1.714144084e+20
1.731639601e+20
1.646244816e+20
1.521693399e+20
1.618751862e+20
1.637913618e+20
1.592300306e+20
1.547103555e+20
1.585010508e+20
1.605421944e+20
1.621459501e+20
1.5175278e+20
1.525234159e+20
1.398183382e+20
1.476913208e+20
1.479204287e+20
1.35423631e+20
1.489201725e+20
1.460250811e+20
1.497324644e+20
1.68352693e+20
1.84536046e+20
1.764964395e+20
1.706229445e+20
1.566890151e+20
1.551477434e+20
1.563765952e+20
1.597090745e+20
1.600006665e+20
1.563141112e+20
1.651243536e+20
1.569181231e+20
1.563974232e+20
1.440255934e+20
1.482953327e+20
1.494617004e+20
1.399224782e+20
1.51773608e+20
1.522734799e+20
1.473372448e+20
1.030043541e+20
9.510498041e+19
1.064862552e+20
1.053295014e+20
1.089700093e+20
1.071219537e+20
1.083642493e+20
1.085487548e+20
1.056847756e+20
1.141594273e+20
1.194605287e+20
1.16658878e+20
1.182552397e+20
1.245320032e+20
1.266048198e+20
1.294776612e+20
1.287104093e+20
1.284278926e+20
1.254957005e+20
1.219890852e+20
1.298048997e+20
1.368668906e+20
1.284722341e+20
1.261159299e+20
1.301709323e+20
1.328812364e+20
1.354078212e+20
1.364903401e+20
1.448014946e+20
1.383457967e+20
1.382459295e+20
1.394966085e+20
1.479105796e+20
1.534508378e+20
1.519300711e+20
1.477177068e+20
1.516606336e+20
1.765964574e+20
1.753177301e+20
1.90995069e+20
1.091076965e+20
1.026392984e+20
1.103642622e+20
1.027901557e+20
1.08260877e+20
1.121859007e+20
1.038309099e+20
1.097780229e+20
1.089791337e+20
1.110415342e+20
1.187875118e+20
1.187832357e+20
1.209418239e+20
1.179945892e+20
1.109121085e+20
1.104984717e+20
1.219522329e+20
1.223269174e+20
1.254242065e+20
1.239826063e+20
1.312331894e+20
1.303273423e+20
1.319404678e+20
1.188009084e+20
1.272210244e+20
1.311420852e+20
1.267415173e+20
1.358752878e+20
1.361439002e+20
1.351139055e+20
1.390345545e+20
1.43394347e+20
1.516284044e+20
1.576601452e+20
1.432187966e+20
1.587594545e+20
1.591716045e+20
1.550882732e+20
1.702933289e+20
1.83217376e+20
1.113232934e+20
1.069115513e+20
1.061260032e+20
1.096399876e+20
1.075732335e+20
1.095240824e+20
1.07100145e+20
1.070560723e+20
1.080726325e+20
1.126895634e+20
1.191240202e+20
1.151447081e+20
1.097173662e+20
1.237291629e+20
1.253336872e+20
1.164134583e+20
1.22750073e+20
1.264651758e+20
1.211822327e+20
1.210283521e+20
1.275051112e+20
1.223969198e+20
1.288165977e+20
1.170899372e+20
1.177463205e+20
1.3388944e+20
1.369580984e+20
1.335175876e+20
1.387024132e+20
1.336282781e+20
1.393500042e+20
1.353337179e+20
1.37479273e+20
1.563379909e+20
1.476016566e+20
1.525244377e+20
1.602248032e+20
1.616889642e+20
1.704626907e+20
1.650694258e+20
1.145421795e+20
1.06280184e+20
1.100252015e+20
1.00869642e+20
1.054458362e+20
1.090912664e+20
1.068386063e+20
1.139268024e+20
1.153909715e+20
1.17032343e+20
1.238575736e+20
1.165910792e+20
1.162972207e+20
1.164347852e+20
1.095947528e+20
1.141312981e+20
1.208962678e+20
1.207189084e+20
1.187037759e+20
1.17641768e+20
1.197584556e+20
1.217868872e+20
1.184118964e+20
1.216773237e+20
1.278460049e+20
1.396614057e+20
1.388895913e+20
1.392324478e+20
1.457577063e+20
1.417080063e+20
1.385088046e+20
1.366859946e+20
1.416785425e+20
1.452750677e+20
1.516850665e+20
1.56864229e+20
1.602248033e+20
1.684015318e+20
1.742168783e+20
1.860093679e+20
1.063068476e+20
1.018816575e+20
1.096861407e+20
1.080182206e+20
9.876280089e+19
1.025124637e+20
1.056834765e+20
1.156170459e+20
1.163638022e+20
1.163196818e+20
1.197297356e+20
1.070766686e+20
1.1620615e+20
1.078558627e+20
1.099645368e+20
1.11849138e+20
1.194413826e+20
1.173846545e+20
1.175360415e+20
1.231659832e+20
1.193469145e+20
1.266915487e+20
1.288411952e+20
1.173379041e+20
1.262710541e+20
1.241602751e+20
1.287238391e+20
1.314674137e+20
1.36040526e+20
1.360261328e+20
1.450281028e+20
1.392579713e+20
1.513341879e+20
1.512112705e+20
1.613491369e+20
1.545569979e+20
1.537670308e+20
1.682616869e+20
1.69277158e+20
1.884879744e+20
1.071429219e+20
1.145510972e+20
1.12801261e+20
1.058416384e+20
9.979426603e+19
1.065592929e+20
1.083642492e+20
1.074292428e+20
1.054194581e+20
1.069882733e+20
1.081538422e+20
1.118225743e+20
1.100133459e+20
1.112507305e+20
1.157193014e+20
1.120587241e+20
1.078257668e+20
1.090608434e+20
1.126506221e+20
1.149036786e+20
1.181122912e+20
1.132952349e+20
1.298496885e+20
1.278516976e+20
1.237461329e+20
1.248660177e+20
1.28723839e+20
1.331075527e+20
1.339471973e+20
1.299793687e+20
1.310431564e+20
1.39867822e+20
1.461452824e+20
1.491066168e+20
1.54979016e+20
1.507116135e+20
1.664331341e+20
1.719535986e+20
1.778581572e+20
1.750123361e+20
1.134970866e+20
1.082584685e+20
1.025870571e+20
1.037717516e+20
9.674284804e+19
1.089397809e+20
1.017168044e+20
1.056731458e+20
1.024788567e+20
1.050061841e+20
1.088268591e+20
1.092914245e+20
1.08920498e+20
1.112507304e+20
1.120676837e+20
1.133395283e+20
1.112987186e+20
1.047807019e+20
1.153912233e+20
1.144713487e+20
1.202184134e+20
1.163697989e+20
1.201091172e+20
1.277029177e+20
1.291959626e+20
1.30285112e+20
1.305536744e+20
1.317749396e+20
1.242300172e+20
1.309437243e+20
1.320683695e+20
1.444019263e+20
1.447009471e+20
1.480003255e+20
1.51821182e+20
1.448062026e+20
1.590330264e+20
1.632831992e+20
1.658052412e+20
1.846133744e+20
1.124937974e+20
1.123623569e+20
1.104702186e+20
1.053935185e+20
1.008472202e+20
9.788133267e+19
1.019347535e+20
1.092292425e+20
1.05021482e+20
1.033581549e+20
1.030613463e+20
1.043873222e+20
1.172762303e+20
1.127875963e+20
1.089707421e+20
1.157381252e+20
1.154287153e+20
1.026997491e+20
1.113875626e+20
1.173055114e+20
1.170713343e+20
1.204692171e+20
1.202567016e+20
1.216277303e+20
1.316708857e+20
1.212112799e+20
1.266398596e+20
1.217547131e+20
1.272278697e+20
1.179900941e+20
1.302019555e+20
1.468148095e+20
1.370245741e+20
1.449782575e+20
1.5043282e+20
1.484318484e+20
1.538501767e+20
1.557315596e+20
1.562362958e+20
1.892287053e+20
1.142495535e+20
1.170134302e+20
1.094742277e+20
1.103655149e+20
1.125801379e+20
1.046332619e+20
1.118732284e+20
1.040707071e+20
1.030094916e+20
1.070328146e+20
1.050355298e+20
1.039353312e+20
1.161833823e+20
1.187056763e+20
1.16019751e+20
1.10847782e+20
1.168366687e+20
1.143105198e+20
1.060016855e+20
1.121896076e+20
1.1527992e+20
1.178826795e+20
1.158783641e+20
1.189744854e+20
1.191212777e+20
1.192452818e+20
1.225227299e+20
1.176287388e+20
1.201984206e+20
1.226554855e+20
1.277835071e+20
1.415913123e+20
1.415715551e+20
1.440068789e+20
1.509228292e+20
1.553535422e+20
1.595873416e+20
1.669751112e+20
1.806808545e+20
1.988582317e+20
1.183045139e+20
1.189075325e+20
1.063379162e+20
1.035583612e+20
1.054673252e+20
1.060399139e+20
1.101950211e+20
1.039609511e+20
9.708406898e+19
1.062533413e+20
1.041381736e+20
1.042743244e+20
1.092847806e+20
1.182239721e+20
1.128072518e+20
1.101957361e+20
1.1094673e+20
1.157529986e+20
1.038330358e+20
1.180740974e+20
1.13682173e+20
1.182486988e+20
1.13221844e+20
1.154285596e+20
1.160463733e+20
1.236561735e+20
1.270464907e+20
1.206271184e+20
1.230153692e+20
1.263304597e+20
1.357749052e+20
1.411405522e+20
1.459313064e+20
1.421990353e+20
1.51276726e+20
1.60874416e+20
1.554854078e+20
1.685134079e+20
1.792130519e+20
2.011089176e+20
1.177610655e+20
1.165925186e+20
1.014003445e+20
1.068445733e+20
1.183176635e+20
1.114284727e+20
1.130719479e+20
1.012170492e+20
1.043802983e+20
9.808000737e+19
1.021191224e+20
1.023307629e+20
1.174356033e+20
1.143015234e+20
1.148872872e+20
1.12105299e+20
1.131994562e+20
1.159894708e+20
1.123408152e+20
1.152879716e+20
1.07775347e+20
1.161989896e+20
1.126315072e+20
1.109651566e+20
1.251960883e+20
1.214381256e+20
1.222685851e+20
1.186025705e+20
1.224984979e+20
1.230464401e+20
1.239455331e+20
1.354662948e+20
1.387631264e+20
1.388531757e+20
1.447160461e+20
1.533759158e+20
1.628300854e+20
1.617728716e+20
1.866367475e+20
2.094564087e+20
1.188897658e+20
1.185497577e+20
1.104914099e+20
1.068872513e+20
1.08411299e+20
1.048280291e+20
1.086257885e+20
1.064853414e+20
1.054194587e+20
9.284640156e+19
1.007506547e+20
1.018109739e+20
1.106963763e+20
1.044839337e+20
1.110507774e+20
1.06143737e+20
1.038834964e+20
1.087534288e+20
1.132940669e+20
1.141831294e+20
1.093730964e+20
1.185659166e+20
1.110080786e+20
1.071216707e+20
1.181463077e+20
1.221690732e+20
1.228022891e+20
1.121701502e+20
1.209995711e+20
1.305006409e+20
1.207647453e+20
1.243564126e+20
1.349650585e+20
1.385563656e+20
1.408504206e+20
1.517004281e+20
1.577581015e+20
1.609617697e+20
1.756846803e+20
1.988012505e+20
1.180745934e+20
1.188654416e+20
1.122714791e+20
1.107282786e+20
1.139984021e+20
1.080957895e+20
1.065552723e+20
1.087024124e+20
1.064143981e+20
1.014428777e+20
1.024556306e+20
1.016075769e+20
1.017714517e+20
1.07075961e+20
1.045333333e+20
1.072149558e+20
1.059250304e+20
1.119458012e+20
1.07693709e+20
1.130062305e+20
1.127380483e+20
1.147349107e+20
1.035550648e+20
1.061793968e+20
1.112965217e+20
1.166743626e+20
1.206420657e+20
1.206271184e+20
1.212838503e+20
1.368601699e+20
1.206070224e+20
1.230571686e+20
1.260048358e+20
1.348057648e+20
1.47274983e+20
1.527167056e+20
1.527138319e+20
1.697999833e+20
1.715917692e+20
1.899124585e+20
1.140405345e+20
1.123834017e+20
1.080756016e+20
1.076981345e+20
1.07036012e+20
1.042653681e+20
1.124834851e+20
1.088999741e+20
1.033411379e+20
1.044048754e+20
1.139193546e+20
1.006583965e+20
1.016348458e+20
1.067777624e+20
1.099645367e+20
1.110340803e+20
1.074972435e+20
1.166042969e+20
1.174883791e+20
1.161045947e+20
1.122780906e+20
1.068288905e+20
1.050309089e+20
1.133208406e+20
1.139714381e+20
1.178085926e+20
1.238188633e+20
1.224979012e+20
1.231187434e+20
1.35687305e+20
1.245238569e+20
1.254170227e+20
1.297494075e+20
1.376119697e+20
1.5541458e+20
1.446413991e+20
1.468658068e+20
1.621084985e+20
1.657205588e+20
1.939010208e+20
1.147093949e+20
1.143406417e+20
1.113390616e+20
1.081889332e+20
1.073153679e+20
1.102165885e+20
1.116988694e+20
1.158365587e+20
1.040486518e+20
1.007524871e+20
1.05529076e+20
1.103762039e+20
1.041620571e+20
1.022359808e+20
1.032853128e+20
1.114066787e+20
1.155695106e+20
1.149962888e+20
1.122931526e+20
1.188426841e+20
1.08840513e+20
1.07780542e+20
1.106883124e+20
1.130232813e+20
1.214212063e+20
1.238830194e+20
1.29206712e+20
1.246762122e+20
1.180275621e+20
1.36208579e+20
1.289138694e+20
1.317276478e+20
1.293482034e+20
1.376389524e+20
1.476288798e+20
1.49997472e+20
1.564000293e+20
1.67674337e+20
1.644503465e+20
1.791718366e+20
1.07540057e+20
1.104893004e+20
1.20514893e+20
1.151027822e+20
1.10259341e+20
1.129000475e+20
1.076668127e+20
1.125658261e+20
1.03849663e+20
1.012869831e+20
1.049457938e+20
1.042743238e+20
1.04048218e+20
1.018230915e+20
1.024532979e+20
1.04094451e+20
1.09679573e+20
1.113782686e+20
1.203958004e+20
1.190108133e+20
1.097604275e+20
1.125387937e+20
1.073676621e+20
1.119818206e+20
1.161963686e+20
1.180606435e+20
1.234884773e+20
1.330050445e+20
1.242558603e+20
1.220560228e+20
1.224997219e+20
1.296064297e+20
1.37131563e+20
1.321884391e+20
1.35160867e+20
1.467563594e+20
1.642713034e+20
1.628077257e+20
1.728902099e+20
1.853541054e+20
1.134761846e+20
1.197283096e+20
1.189467356e+20
1.101307851e+20
1.075517447e+20
1.038541929e+20
1.14445027e+20
1.171316803e+20
1.097750863e+20
9.937170592e+19
1.057309803e+20
1.066020782e+20
1.088749633e+20
1.126958433e+20
1.028461935e+20
1.024643358e+20
1.08881731e+20
1.205060824e+20
1.090997557e+20
1.123577365e+20
1.151588799e+20
1.15100932e+20
1.083023643e+20
1.107915798e+20
1.14071435e+20
1.157417742e+20
1.225227299e+20
1.357215252e+20
1.251086979e+20
1.271905587e+20
1.226048698e+20
1.389397872e+20
1.44219501e+20
1.423879157e+20
1.534817687e+20
1.526892413e+20
1.587558688e+20
1.616889645e+20
1.740475158e+20
1.874338531e+20
1.07978996e+20
1.168661114e+20
1.20726806e+20
1.233823289e+20
1.154596444e+20
1.124023084e+20
1.112411757e+20
1.118633881e+20
1.120302844e+20
1.035140496e+20
1.064937338e+20
1.199358128e+20
1.050499944e+20
1.062272433e+20
1.179148942e+20
1.043971866e+20
1.123077527e+20
1.156584101e+20
1.182033185e+20
1.185064275e+20
1.147473371e+20
1.116359465e+20
1.113770396e+20
1.192720454e+20
1.193462711e+20
1.176069528e+20
1.329172116e+20
1.297760192e+20
1.274087752e+20
1.333155139e+20
1.291241693e+20
1.335837137e+20
1.339754241e+20
1.360469708e+20
1.525017477e+20
1.566444914e+20
1.463669231e+20
1.53857636e+20
1.634906279e+20
1.862087969e+20
1.185344349e+20
1.181498919e+20
1.194341362e+20
1.230195661e+20
1.201227278e+20
1.15778273e+20
1.14445027e+20
1.068146088e+20
1.154573004e+20
9.963895461e+19
1.080865408e+20
1.150317104e+20
1.129959102e+20
1.14232709e+20
1.156961898e+20
1.118258501e+20
1.144666129e+20
1.127261576e+20
1.168449336e+20
1.220371216e+20
1.165145438e+20
1.159549766e+20
1.113770388e+20
1.243305688e+20
1.216211991e+20
1.208332024e+20
1.311890337e+20
1.191407422e+20
1.358337774e+20
1.398574885e+20
1.334090308e+20
1.370041768e+20
1.419192653e+20
1.391769686e+20
1.486905651e+20
1.550788719e+20
1.531850012e+20
1.60346451e+20
1.67075455e+20
1.972058281e+20
1.203528957e+20
1.149088724e+20
1.167852244e+20
1.140358294e+20
1.164481327e+20
1.252569437e+20
1.144014372e+20
1.144097289e+20
1.171155352e+20
1.125113981e+20
1.17037667e+20
1.192352259e+20
1.142708985e+20
1.099203096e+20
1.185851287e+20
1.234695256e+20
1.224684824e+20
1.151145248e+20
1.181318246e+20
1.231419647e+20
1.177007495e+20
1.156133584e+20
1.150912475e+20
1.200655393e+20
1.27446017e+20
1.172288755e+20
1.223448302e+20
1.242661774e+20
1.287526406e+20
1.318820137e+20
1.381670672e+20
1.331594701e+20
1.35794216e+20
1.451941194e+20
1.399520692e+20
1.462344883e+20
1.521872325e+20
1.60710047e+20
1.61288924e+20
1.855535334e+20
1.152737443e+20
1.085951973e+20
1.136912953e+20
1.145266281e+20
1.152017788e+20
1.067757007e+20
1.130283584e+20
1.210389965e+20
1.195697214e+20
1.103066023e+20
1.096120462e+20
1.02782755e+20
1.12472254e+20
1.186827383e+20
1.205727171e+20
1.290119147e+20
1.194413835e+20
1.189217225e+20
1.106964545e+20
1.134145429e+20
1.204362892e+20
1.146373073e+20
1.090648838e+20
1.233882958e+20
1.270710298e+20
1.149856215e+20
1.184818424e+20
1.227285448e+20
1.246435127e+20
1.175730759e+20
1.304122554e+20
1.409284292e+20
1.347243372e+20
1.376929179e+20
1.459410691e+20
1.46454222e+20
1.526861162e+20
1.743589352e+20
1.702933284e+20
1.797131396e+20
1.169667948e+20
1.120466726e+20
1.160223377e+20
1.167672273e+20
1.208318602e+20
1.05888428e+20
1.10957842e+20
1.180097281e+20
1.079178643e+20
1.184799362e+20
1.144129004e+20
1.112349852e+20
1.155231191e+20
1.13751004e+20
1.091556341e+20
1.155984007e+20
1.189016662e+20
1.113546197e+20
1.146762831e+20
1.165369246e+20
1.174828749e+20
1.180046849e+20
1.169852456e+20
1.081631306e+20
1.211712141e+20
1.224967404e+20
1.171094677e+20
1.280846266e+20
1.205343879e+20
1.238022877e+20
1.291767454e+20
1.410610077e+20
1.296424197e+20
1.422799848e+20
1.535362142e+20
1.509313511e+20
1.538224637e+20
1.693524788e+20
1.669625456e+20
1.955819141e+20
1.11072471e+20
1.164451998e+20
1.096013755e+20
1.258789966e+20
1.229807462e+20
1.125754348e+20
1.112629714e+20
1.118194856e+20
1.225545416e+20
1.142930513e+20
1.061796584e+20
1.186024394e+20
1.12403951e+20
1.152649323e+20
1.128303633e+20
1.139217115e+20
1.190659283e+20
1.149253472e+20
1.125076344e+20
1.119013874e+20
1.139968798e+20
1.148569181e+20
1.217325462e+20
1.19619199e+20
1.204462358e+20
1.235301471e+20
1.217602984e+20
1.350039642e+20
1.253671336e+20
1.266953496e+20
1.325941174e+20
1.460723844e+20
1.404749306e+20
1.495923059e+20
1.474927649e+20
1.573586357e+20
1.567326184e+20
1.653808765e+20
1.604138893e+20
1.865221838e+20
1.108007475e+20
1.166767012e+20
1.120383744e+20
1.196479969e+20
1.209178148e+20
1.20063152e+20
1.129629737e+20
1.193268009e+20
1.199898073e+20
1.144266753e+20
1.118330025e+20
1.161842875e+20
1.188699663e+20
1.173064406e+20
1.189780234e+20
1.203723081e+20
1.203330864e+20
1.192527822e+20
1.126029597e+20
1.12381754e+20
1.205573298e+20
1.246906429e+20
1.278081047e+20
1.249752825e+20
1.236461358e+20
1.220682528e+20
1.229039466e+20
1.296222572e+20
1.264525633e+20
1.330288139e+20
1.394025794e+20
1.411670686e+20
1.449951635e+20
1.419022252e+20
1.511133896e+20
1.579629104e+20
1.513834755e+20
1.756734797e+20
1.669625456e+20
1.855250437e+20
1.225266889e+20
1.137303198e+20
1.225068739e+20
1.343932735e+20
1.223790581e+20
1.251487388e+20
1.260181196e+20
1.257804588e+20
1.23129396e+20
1.152284184e+20
1.127079239e+20
1.247721166e+20
1.233551968e+20
1.279498095e+20
1.16759319e+20
1.150395043e+20
1.158276354e+20
1.210736168e+20
1.0807501e+20
1.074339794e+20
1.176039173e+20
1.181510926e+20
1.315223115e+20
1.309016898e+20
1.276460118e+20
1.172036704e+20
1.20794551e+20
1.327743988e+20
1.354202804e+20
1.407436522e+20
1.324889696e+20
1.394966082e+20
1.478570848e+20
1.461385153e+20
1.444165961e+20
1.427461738e+20
1.67708059e+20
1.689888814e+20
1.765597164e+20
1.940149779e+20
1.202274846e+20
1.191179878e+20
1.181202759e+20
1.189651484e+20
1.176944866e+20
1.220973862e+20
1.238386286e+20
1.162536301e+20
1.155899591e+20
1.127786461e+20
1.155570294e+20
1.18828434e+20
1.196668337e+20
1.17329378e+20
1.240856667e+20
1.143408855e+20
1.282880242e+20
1.153273495e+20
1.162968134e+20
1.143992935e+20
1.124233412e+20
1.245198338e+20
1.289395852e+20
1.237602451e+20
1.412455858e+20
1.255465553e+20
1.241746656e+20
1.308267345e+20
1.325258011e+20
1.434803331e+20
1.379567661e+20
1.546633179e+20
1.450486574e+20
1.417673115e+20
1.496433607e+20
1.510961507e+20
1.550696701e+20
1.594794097e+20
1.752330487e+20
1.86094838e+20
1.092958131e+20
1.155612846e+20
1.100040101e+20