/*--------------------------------*- C++ -*----------------------------------*\
  =========                 |
  \\      /  F ield         | OpenFOAM: The Open Source CFD Toolbox
   \\    /   O peration     | Website:  https://openfoam.org
    \\  /    A nd           | Version:  7
     \\/     M anipulation  |
\*---------------------------------------------------------------------------*/
FoamFile
{
    version     2.0;
    format      ascii;
    class       volScalarField;
    location    "0.002";
    object      internalT;
}
// * * * * * * * * * * * * * * * * * * * * * * * * * * * * * * * * * * * * * //

dimensions      [1 2 -2 0 0 0 0];

internalField   nonuniform List<scalar> 
2400
(
297.3515534
295.1163869
297.2790782
296.1244048
296.5654918
298.0965383
301.4490625
299.1642608
297.1015232
296.1653942
294.4816812
296.426323
299.0147353
293.2110554
295.1709949
297.8284618
299.712684
314.0200358
333.3887103
419.720283
295.7063031
295.5089251
295.6090986
294.8284682
296.1833437
293.4745992
293.0300514
292.4365505
295.2203277
297.4667771
302.2171453
298.3415299
299.7240552
303.0738752
299.3556669
304.5596341
304.208369
320.7952744
354.5944262
413.4098335
297.0918102
296.9326021
295.9732028
297.2969953
299.6984654
299.817934
299.5090329
299.9412545
301.7940979
300.2466018
298.8454762
298.7435053
300.3378516
304.868898
304.6357202
308.8662694
310.9246958
319.7354014
354.0914496
398.3654195
302.210687
300.8199794
300.745979
297.4369046
298.0030738
298.2733476
296.6407915
296.6017713
296.6561647
297.5144171
299.9812386
301.1217024
298.6826207
303.4964419
301.0874555
296.8516827
307.8258472
319.0751689
333.301568
354.5404465
300.3795069
301.409752
304.4739282
309.1219512
305.9141231
306.0701608
305.0236324
306.5620252
307.5488996
309.7436895
304.1079186
301.9414889
304.2473233
304.5595286
301.8057161
306.7543645
312.7848401
322.7944115
329.3403541
363.5709824
307.4060668
309.6216752
306.0947574
309.5963798
308.1257489
306.0021832
302.4491985
295.9258937
297.6043199
297.6649319
295.5211668
297.0864943
295.188534
290.7550573
292.5239767
299.9209645
301.1349926
309.708446
313.7543867
333.7951228
298.5025106
299.8409572
299.9547109
295.6623437
298.0941034
296.8621082
302.4281853
307.5611034
305.5013186
304.5080866
304.5027451
304.8266719
304.92236
308.4639162
305.8069101
302.8461064
300.2056797
303.5192951
304.8463689
313.4840571
294.1079061
297.9792346
301.4172648
298.5017097
299.2961785
300.4065228
297.1422086
293.9027578
293.2812282
290.8202011
292.3484529
289.3670993
291.7986197
291.8759191
289.4615703
297.2033383
299.6662217
301.6286409
306.0167401
312.8249371
297.9185653
294.5351068
292.7507494
294.3907459
286.5992462
289.7853895
289.9048849
289.2640397
293.4642487
296.2150756
297.9044922
299.2543484
298.7968972
301.4680495
307.5334209
304.6585011
301.206526
300.7650666
304.7791672
308.7141734
294.6873549
299.8263935
300.1079757
299.0395906
302.7657936
304.929799
299.6359142
300.4720725
300.5112149
301.6041062
302.2908524
302.4181227
303.5874887
302.6963646
303.8111468
304.2415215
305.3459677
302.4353026
302.0465216
304.9771199
304.1826541
301.5415006
299.5179067
298.3696118
296.2726948
294.5424201
296.5786778
300.8147645
301.0949204
298.4981861
300.0003807
301.711076
298.9965472
301.4087721
300.9888923
298.5616228
300.4293045
298.6851098
299.4580048
295.9227616
296.0503143
294.392515
294.3953691
299.0574328
297.1876342
301.815509
304.047988
301.8360124
301.2399291
298.3065956
296.8887804
293.5553155
295.6526155
294.6981521
297.7725493
301.3847927
301.3041873
301.062964
311.0486307
306.2830956
297.2013923
297.8628039
296.7995319
302.6606755
304.4969582
304.0137619
304.0134081
301.9461569
301.6744709
303.0182278
300.6890154
301.2520813
306.0720014
307.3745248
303.8216612
301.7109028
300.6565418
297.3476375
300.7724495
307.7716047
297.8780757
295.3919325
296.9568409
295.3047598
296.8936999
300.0567218
301.2577797
299.4381689
304.194566
306.0063292
302.1681684
303.4086414
304.8069222
298.2095636
300.9183247
297.5688016
299.7424295
302.8233142
299.4009067
296.320146
301.3614452
304.2147412
300.1545046
300.4745795
293.4274845
291.6686667
294.3026701
292.549172
292.3610677
291.7803536
294.7109013
294.8816734
290.7880989
292.0586362
293.940356
298.833727
299.1958555
300.1389518
301.4806435
302.8091831
307.7849173
305.0844487
304.9784707
303.3970907
304.3950048
303.8210465
301.1643371
299.597834
301.849395
301.0707829
300.5058058
298.6750138
301.9184703
302.1303731
303.2137588
305.4147334
306.2027363
307.2033407
304.2666239
305.0553403
297.5692578
299.9287108
299.544416
298.4074572
295.525753
293.3297624
293.7265692
291.795501
290.7904986
292.3868797
293.2152107
294.9250294
295.4549426
296.1412984
294.1962386
292.3393197
293.2808294
294.7137705
294.8877651
299.1380269
296.7510761
288.6809422
288.1895034
290.6034989
291.2278199
294.4650281
296.5297565
298.2456692
297.6415927
297.8968573
298.5326865
299.3972784
298.5878837
299.4160549
298.509161
300.774323
300.5563222
304.2351297
304.289002
303.895598
302.9775235
304.6755613
304.5248502
300.7026346
300.1118556
296.9439053
294.2743444
293.6222935
294.8586581
297.3523824
297.5161783
297.2074315
293.583775
291.3753327
293.7677841
298.7399616
298.4295814
296.8841196
301.6770795
300.4386991
296.7439654
301.557157
298.5803271
301.9740609
303.7760538
304.0870872
306.6129726
309.2361479
310.4566952
309.2755679
305.635556
301.9764338
304.8074148
301.9901141
301.1147154
298.9657957
299.4281
300.2588771
294.9114851
296.6519838
300.5466287
298.9269847
299.6535608
300.5382844
301.6210988
296.1303876
292.6692994
292.335128
288.5253314
289.8042
289.3660298
290.3192504
291.8182145
298.4253955
300.0307258
299.7947589
298.0098076
298.6015725
296.6276404
298.2092996
303.0211595
302.3907524
301.5547988
302.3063869
301.5972414
301.6599515
305.4368365
301.9869903
301.8681683
304.2344456
307.7334555
303.7653884
305.585358
303.7447456
299.9678574
301.9293915
304.5120258
302.5878654
303.5946773
300.0192206
305.353225
303.3096913
301.4934868
302.5727044
300.5796248
300.8841352
300.5109564
297.6896587
302.5039419
303.4425403
303.7083811
305.3587332
303.5208607
302.7130224
304.8318334
304.9201466
299.7996088
298.0859014
303.4549882
304.4165937
291.5720059
292.3491549
292.2724856
294.0634713
292.5228055
294.4468175
294.2128273
299.690489
297.5369253
297.4027657
297.0526648
298.5353367
297.5795545
300.7766152
299.4055795
301.5261202
302.1415876
303.5273289
303.356582
307.1784004
297.0667355
300.8248063
298.1244133
300.9819687
303.104055
304.9186367
301.5719138
298.7680987
297.6705201
297.7952926
296.797737
298.2469023
302.6700986
300.7928782
300.4600312
303.3194816
302.4036903
301.3833821
302.3168213
303.0571788
296.1866061
294.2446772
299.1951681
303.4846581
299.4582318
303.7327044
305.0801405
303.0814482
301.3739035
300.7159121
305.3992186
302.9527647
299.6341048
299.6262442
297.4875136
295.8578717
295.473592
296.9829111
299.8711487
297.9653351
309.5629631
314.1427976
310.0340214
306.5645436
300.2567722
296.8125175
294.755245
292.9172265
298.6984517
296.6108204
296.7151894
296.6003907
297.6452382
297.6151051
301.5988057
301.5513822
306.5664145
303.051736
302.6691358
299.1473514
297.9261906
298.0517668
299.875073
298.4020231
300.8403365
301.3164615
304.7701256
303.4753244
303.2627714
301.0448581
296.7897652
301.9790509
304.3442546
304.8521556
303.162883
300.5675597
302.5067796
302.1787598
300.2921347
304.4626181
301.2331632
304.080921
304.3525803
304.2814802
306.124934
302.6387748
301.5658398
304.4071624
303.2848623
305.1541952
307.6783293
305.7499266
301.6316974
299.9201424
303.6458328
300.8728081
305.4389536
306.05844
306.081393
304.6828832
303.5149222
300.0163809
299.5507387
302.0266082
301.1438551
297.1515621
297.1971642
300.4226462
301.9242091
301.2840067
300.2631167
301.4187103
304.5619308
301.8153113
302.5718269
304.1296037
302.0632817
307.7497356
305.3195564
304.6944482
300.7796757
298.8668654
299.8619341
296.7062742
299.7230133
299.2284886
299.4430226
299.3347056
299.6766685
298.0868221
298.7135012
298.1150946
299.4679969
301.4799717
297.6367295
298.2456016
301.1033984
302.9986027
305.3651242
302.6905772
296.3710301
297.3148291
299.5185601
299.4306712
298.0921202
303.7001158
305.6185713
302.4424533
304.3157774
304.2052678
305.3772896
301.0738527
301.491119
300.3566251
303.485605
302.1024573
300.9628413
294.7202487
295.1290153
295.1708465
301.1952097
305.7088437
309.5230045
308.7783748
308.0380576
307.7709164
305.6072004
307.2948579
303.0938626
305.0073997
301.6516214
302.5865258
297.435499
293.9225709
293.7325976
292.6288671
295.2782054
297.2961763
297.7458308
299.8841736
304.1242426
299.9534259
297.618198
294.7191604
293.5042497
296.9282524
293.8387336
299.181445
298.9632337
298.8513588
299.4055144
295.8248133
293.5893098
297.7128117
300.6278721
301.3173175
299.2171312
296.3844478
297.842996
297.3015934
299.179521
298.5718977
295.2802887
296.3229727
295.2201578
294.5380045
297.8441768
299.2529424
297.4863497
299.1434148
300.5540775
303.3680875
302.4449203
298.8026572
299.123649
298.1697246
297.9217138
297.5316473
297.9567633
297.6838422
295.4467812
299.0157432
301.525719
296.9198329
306.1868743
305.3642141
305.3055785
297.7999588
300.2538942
297.4176056
298.8757769
299.8487082
305.1312617
306.4611767
305.4273316
303.7798079
301.6058215
301.4152809
299.4529402
300.4224606
293.9713031
292.4608683
291.0297221
289.6108285
285.7899358
285.5122579
289.1498263
296.0448929
296.8561888
302.4227555
304.0922739
301.2987614
298.4180343
300.1342348
302.0297248
301.1598351
300.4665083
304.9728414
307.0362036
301.4560648
295.7975447
295.0807767
297.4447313
300.82382
298.5715565
297.3521773
294.4642019
292.8323738
294.9231033
295.6363197
291.9891106
292.4692622
294.2931486
294.0095217
295.8208197
298.8685945
299.4590551
299.9298015
297.8732265
297.2723662
304.543584
304.4635193
303.2703016
299.4903771
301.7263974
304.96607
304.7604397
304.2227691
303.1959587
305.2644423
302.6763249
299.7678208
302.7571857
301.5210528
299.9978124
295.4342582
297.631168
298.3220102
301.9599848
303.7869916
292.93441
297.7211811
301.2420819
300.5774898
302.3127077
300.1125497
298.7212228
299.5694332
299.9717139
300.1636053
302.3884736
302.665266
306.5755034
302.9177794
299.3203531
301.1665028
299.793811
298.9339392
298.9521692
297.4250331
548.1293343
600.1577636
641.1710888
656.2218882
671.9384633
681.7179038
673.1278264
695.8922755
712.0238933
712.1633966
712.520106
694.4464641
677.7520618
679.6653318
702.6312719
708.8251805
702.5508129
685.7567036
674.3449254
690.3007345
684.2316173
679.3407886
678.3728116
672.3738859
674.0190221
697.681073
718.1661799
703.3420284
676.8409255
671.5075136
680.8380387
680.8073616
701.4153724
696.7931194
662.964123
660.177077
663.4871623
668.0847735
666.5325248
699.3785991
506.5945951
584.1461457
610.5321794
643.653387
677.7629751
702.5574403
711.8814606
737.3381186
771.6287526
771.4802601
765.2564859
759.7568111
768.137785
748.8771993
782.2443254
775.2514271
780.2086519
780.3597354
784.4092514
755.4899026
753.2346875
759.4667448
764.0475954
764.5601876
765.2546284
755.6596132
760.4472887
746.7877224
744.5822141
748.0896894
751.4521141
732.9998398
732.3716789
735.0311785
716.8456656
702.1298198
723.4548531
722.6010889
725.1379155
730.0871443
440.8350775
503.2797887
529.9809746
617.2347013
626.9375547
667.6787867
694.2847287
727.002808
728.4739685
746.9427527
752.8657143
767.5843077
764.7499143
766.4487876
761.0664584
782.5606268
782.1799497
789.4302617
802.7491544
811.5985121
806.1296619
802.3476444
810.4172278
817.7080082
794.6193872
783.233698
780.8490068
786.9887343
810.8128305
782.0050652
781.4251494
777.6148085
786.4351923
791.8736426
769.8101275
756.8627442
753.9879546
743.7618466
752.0693074
739.0195717
397.9278683
437.6490279
500.1434277
540.6726626
580.2243603
608.6676119
631.5952695
675.5145927
667.5774422
703.3498766
712.9466483
727.0392021
757.3685914
760.3254047
775.9032607
776.1263167
789.4496504
791.8815715
775.9204015
806.0247072
812.9754479
820.147744
822.9680997
814.8024743
832.0248097
803.3471876
794.4023933
811.5456791
794.6263117
781.8706358
781.6948258
788.3299509
779.0967641
810.3114453
795.5831847
773.6033551
778.4441489
768.0871454
776.286882
768.1382262
401.6325348
428.4528788
461.9025715
487.368845
527.2461589
559.54783
579.9795097
624.4240868
637.7425366
655.1003018
683.5303346
720.3107147
713.7294568
726.5019392
736.9525216
750.2525067
756.1947705
766.0532642
797.9918443
794.0178325
797.3952785
808.1565339
807.3005175
811.1057808
809.3399545
803.8149749
814.6818119
785.8407579
806.8423162
785.6704378
793.8164851
816.88399
814.5442198
797.5870394
800.1937927
790.5425297
784.908569
788.462392
804.0881853
786.1685127
371.1087766
382.5618889
405.6622448
437.7536855
474.5570482
501.5474535
543.8423621
558.8775843
592.1846132
622.5419121
621.4085684
644.7981052
663.7567678
678.0831119
685.2424502
709.5316746
734.8079231
726.636383
761.3415325
749.0284456
769.1906456
781.5079468
788.5850428
789.7095439
796.1188687
796.4459598
803.2791117
809.8691901
812.0651423
822.5586096
812.8428147
826.7859963
805.4895823
801.3889371
801.9820115
812.2577165
795.7217337
780.3003958
796.2044052
784.2018788
336.0758604
356.3851839
369.0588519
406.5302635
423.508976
447.310234
481.9262005
514.8014469
536.5702287
572.0912715
596.9873346
623.6145926
626.1793212
628.4579972
655.0563921
668.3095483
692.5994037
707.6159758
713.0554277
744.8244043
752.9633941
735.2390544
753.6974303
765.8787295
782.7510378
770.9663896
780.0973637
799.3830173
804.8808898
797.9485768
819.3536681
795.3828703
805.6231729
792.3581926
790.0090618
778.6976768
789.7756398
792.2528861
774.7858355
774.1979623
323.1074271
339.4447434
356.8475462
382.6428305
393.9738335
420.9272037
446.5531868
467.503321
487.4600718
504.5038411
550.2425759
571.3811003
583.3368527
618.4226498
619.5045174
648.143609
650.5807014
656.933793
684.1765395
718.4793795
739.4289786
730.1339136
729.5290921
761.4143489
745.689249
749.8651264
763.6437586
764.4274878
776.6440255
766.6607376
773.9691835
801.2924898
800.5869648
810.6724934
798.41624
782.7877679
796.5288677
803.8546758
804.0448469
792.7741063
313.9758254
325.766433
342.7711668
347.9374035
367.2028199
394.5367555
416.8560992
430.9708684
460.4274305
463.6377597
491.9698092
502.7716326
551.7254001
568.864479
584.3765553
611.8915595
626.5369571
648.1069183
655.775328
666.8768245
694.5627615
713.5595248
726.07254
727.0896808
728.194243
747.8750013
748.5424113
759.1454234
751.4186193
761.719986
757.2135111
771.1397277
773.4831036
775.5229325
791.6142262
782.4384369
781.0212911
778.5694783
782.4482185
762.9833495
318.5605354
316.996673
328.4198777
339.3404845
346.5450577
352.3360572
372.0130879
403.8516025
425.6545664
425.9328653
453.6075931
475.9131976
502.3909556
516.7548319
543.0172496
563.8755026
580.1920502
599.5593884
618.601757
629.4055813
653.6620743
662.7936757
678.5608925
688.1471061
708.9700884
715.4206665
729.7893235
738.9563291
739.9454471
740.2508135
740.0539321
731.2574282
746.7821234
754.7141177
762.2883537
773.0005078
766.6825882
746.9734131
748.5895103
766.1723047
305.9868738
314.2837998
312.3341648
321.5002919
333.6594886
336.78456
347.5407185
356.5757333
385.4805907
414.1325618
430.8167365
442.9551008
467.6680689
486.9705289
501.9781384
522.3723942
556.9858076
560.2720193
581.5401013
589.6668769
599.1772872
629.1418847
634.9568453
656.432385
670.9309615
686.84766
699.1009552
698.7408676
714.5773823
705.8453932
732.8292346
741.365441
755.7124708
747.5854517
755.2085107
747.2554364
765.1933248
758.5556762
728.9025507
726.7492195
303.8292306
310.1554647
316.6764792
322.4548615
336.5478877
337.4729026
341.8470552
355.4404092
353.9981559
372.02236
387.9102032
414.3908154
427.4668709
440.7802596
459.3450317
476.5284966
493.3677769
515.0223817
525.1431861
554.1052884
568.7380938
590.0651756
615.0405404
625.4975713
652.1597345
664.0903801
667.1511343
668.3068296
671.786941
695.8835327
710.6700871
706.3771045
725.8544388
734.0508156
728.8474213
733.9437816
753.8773395
737.4192299
736.3448904
723.8503311
308.1121195
305.7435605
307.7697248
310.9183818
313.6540678
331.5317333
333.2947051
343.7933192
350.9498553
348.5801386
361.3633674
371.9845481
395.6445134
404.9520902
420.4314175
442.6972338
459.3173245
473.1612028
486.630641
493.6840824
507.1436831
547.2663939
551.3063388
575.0211879
594.4689399
618.463236
641.2456805
662.6513925
670.837691
675.5157676
675.9095309
683.2773337
690.5551326
698.7197396
706.7869097
727.1100625
717.0784708
749.0738892
749.1681307
737.4222718
297.1305343
304.8531898
306.9864848
309.4482732
310.317341
314.8344102
319.1161102
325.3753848
336.3020862
349.3477115
348.7340166
359.4164454
376.2247163
382.5065233
393.8542747
408.6671688
425.807269
443.8572604
477.2890561
482.5076795
490.0564446
508.1464699
522.791686
542.6703574
562.4471436
579.3095144
591.5294513
619.0315823
636.7921826
649.0171438
663.1226304
667.2643079
672.7884766
687.6212124
699.4761619
699.757988
714.284992
700.1412989
718.4552921
716.3744418
303.6681509
308.6403707
308.9016606
313.7095979
317.7297477
314.4629952
321.3012584
325.3105296
325.790575
335.1389048
340.7048486
342.532446
359.3354415
368.1026043
380.5841262
391.5768854
400.6631491
425.2120602
429.7919634
438.3937861
479.1377654
479.9047744
501.9463241
527.582516
540.7837901
549.3963972
554.965996
572.458912
598.062774
613.3128312
626.2161309
637.2433267
647.2602222
653.3498293
664.426593
679.7486883
689.1067685
678.1501119
673.3153637
682.4130446
302.500305
300.4957861
301.0402566
301.48135
307.4157484
310.2548852
316.5779028
318.48511
319.730676
328.6918189
334.6065407
336.2164684
336.4435233
349.7743953
358.7867311
381.261613
393.0143976
401.8814723
414.6278786
421.5156213
430.4372499
454.7983066
469.9939136
498.1577403
511.6251076
529.6618852
537.5199438
546.6825995
566.606742
589.0369614
605.3908906
617.0531473
630.9811147
633.8642828
634.4639212
639.4568327
661.7970515
669.4387338
665.8023784
687.1379332
299.3629725
305.4888281
310.3728431
309.098004
307.9631737
314.1217313
317.9033793
326.3353421
324.5966634
327.2379951
327.7766841
339.0322836
346.7656056
343.4481904
348.936341
360.8287113
368.156314
380.590177
399.8969038
408.2596927
419.3849863
420.0909662
436.4207185
456.2635388
482.1394144
501.3392085
519.3354745
530.063773
534.2367172
547.2067468
570.2340101
581.0371184
602.788243
624.8386525
632.2284513
641.65464
642.6420448
660.3801308
668.6408798
676.7834723
304.0536304
303.3087216
306.7203148
308.4924789
307.1541669
307.2109301
303.6522234
309.0435481
316.0706461
315.0401517
319.8517811
322.0516269
325.9248901
333.0414272
338.1705321
339.0974597
352.1635645
362.0666785
371.8531469
385.3106189
404.7755346
406.8978193
416.725514
433.2002366
443.429226
450.7184969
474.4262897
503.2931434
527.649044
535.3843513
545.0008404
555.1937183
581.8528216
597.1555095
600.2807953
605.6333081
613.3633246
626.3829114
641.7309902
652.0500589
307.2784794
306.7659936
300.3927961
304.2705598
302.1867831
312.7738409
309.1308907
312.4534321
304.3237645
304.5660679
307.7367217
312.7371941
317.823598
324.9206595
324.8984246
330.3200731
337.5402039
343.9913383
358.6024007
356.1904585
368.3165423
388.5236461
398.5087087
401.7956377
424.0963676
432.7184978
452.9922451
473.9422547
493.7494515
510.5166749
525.4564394
545.1459656
552.5859069
565.0506585
577.5236918
588.8431272
610.4236377
615.7956745
610.2284714
620.3911444
297.0999933
297.9040761
299.4735189
303.4519435
302.7043146
296.7245855
299.5662793
298.7457047
297.9596724
304.4168593
307.0131569
306.3733054
310.3312778
317.341473
323.6869668
326.1796191
327.7517401
334.9460095
337.4036142
345.7526122
354.4447089
366.9974028
378.8415543
388.4811199
396.4885872
414.4726994
426.9941505
448.8865434
450.3418221
482.3435251
496.6044424
506.8115571
534.9387556
551.9170351
559.635804
570.3204776
580.461929
587.7927691
596.1495972
593.7914213
296.0461297
293.0638172
296.3653405
296.004452
297.8180764
298.1379917
301.6344058
305.7240027
303.6336119
301.6434567
302.1713825
303.4461749
306.9781986
303.2878018
308.8075661
314.900085
314.5117749
320.4895489
329.7879119
338.1725362
340.7774841
358.2827847
364.7139038
370.6718544
381.8674375
383.7302742
401.0635907
410.8434025
428.998841
431.6804757
454.0973907
475.1115824
484.4393358
504.2191142
518.0008529
546.1753749
543.8282567
558.6504435
563.6348821
578.4907177
300.9889058
303.5144325
300.9431689
303.2724003
305.1679431
310.159852
307.5684416
309.2988002
311.1430491
305.5447766
304.8549507
307.9331279
308.8982356
312.144282
309.2278854
309.5941474
312.65015
317.4096543
325.1570625
326.6390074
331.8188747
333.9176093
342.4863273
355.3973513
355.3564514
367.9713839
381.4158158
383.9692514
393.5802206
420.9582358
437.5734815
440.8412736
464.6652621
478.1481519
497.0337662
512.8358629
521.3284073
533.1449568
563.7548519
567.8820765
306.738002
304.2795334
302.1375794
307.0342714
304.6370383
303.4571022
303.5498947
297.4728378
296.0583314
296.3273339
300.3166103
298.6002644
294.2046774
296.425079
302.1094487
307.6690344
302.9195086
309.8638678
306.3265772
320.1190877
326.2251742
324.6607782
329.7958901
327.7584504
340.3803349
347.810904
362.7151742
378.4957061
384.666643
384.4308455
411.9929237
421.8728103
424.8847399
445.3696854
464.0707428
474.9036805
494.4814477
500.507017
511.4742773
532.8478309
306.9443769
310.2063901
307.774178
311.6306095
310.2065155
303.4620363
301.0953838
299.1261371
298.8767749
293.6287493
293.6280625
293.0299581
295.4798335
302.1041394
294.0037
292.1591849
294.411393
302.9981182
312.1644958
308.5923827
306.3206701
316.4819008
326.1360671
328.124239
339.4676203
333.86734
342.6625433
346.9582877
372.7981542
371.6716241
372.0933805
400.4421681
416.3836885
428.079324
443.3720563
461.1073659
470.2755726
480.5345209
481.2356357
503.448831
300.0857829
296.9751132
294.5975674
293.1152352
294.5279069
299.7469352
299.339339
299.5389812
296.4442707
297.2624529
300.6833638
299.2580452
301.7013516
299.4522392
301.9869904
305.5403125
302.8337376
304.990432
302.0198647
304.5343992
311.9568493
308.454216
311.0765788
315.4019236
320.5529499
325.0512242
323.5991331
333.7829043
343.7256395
363.559742
382.9967655
387.4173779
393.982156
401.267227
410.220119
418.9828994
444.9033683
466.8598109
479.5409411
486.2857451
300.6786458
300.4813601
300.9342312
295.4631974
291.5204858
292.9086867
297.1467106
296.3713311
300.76492
301.3400915
299.3030117
302.4199477
298.8645693
303.2841269
305.1070426
300.5695635
304.2411263
302.9737405
303.932862
309.5348599
308.6209049
311.1297649
316.130335
320.1302459
320.1730528
323.3736754
335.4516209
330.5445117
329.8789278
338.2177838
348.4553519
355.6288475
370.41668
380.559332
396.0411277
411.4343542
421.6684433
441.4983189
460.3540483
465.9064477
299.6040367
294.6167333
296.160932
303.3874512
309.6342837
308.4491965
306.3119323
306.4549704
305.3823969
306.6129138
311.2870917
308.6911002
305.8718104
300.4727201
305.1108427
305.3281808
309.2129152
309.9536742
309.6313391
312.9926193
308.7008463
309.7967611
310.3884627
313.7490891
320.4081894
323.5817006
325.5964572
326.5838068
323.3868107
328.3665044
336.2858002
340.0392363
345.7856018
354.8799785
372.4521084
380.7704574
398.9522078
410.7669772
437.2145936
458.5564937
303.4486043
304.0612005
308.0571276
306.9790798
303.1271327
302.0014732
299.1055486
301.1096409
302.048381
299.3142009
302.1253971
303.4183538
302.7100249
306.3508806
306.5014408
302.7261934
300.8852982
301.7250581
305.2067382
303.034204
307.7370652
308.2368004
318.5278243
317.5976493
318.9044216
318.8984178
314.8239264
315.5415938
320.9875431
317.6139486
324.1185457
324.2399366
337.1434286
340.9381527
349.6069035
367.2340701
374.2490169
391.7578347
407.9056172
424.9338614
307.0380453
306.0092692
301.6984423
297.095121
300.2368125
297.8366045
306.0679464
306.4491863
303.9748733
304.6548026
304.3691342
306.5423076
304.6556142
303.8759668
302.567804
299.7510978
304.8257116
302.8197867
304.6361298
298.4199809
298.6176249
298.6049235
301.3242851
299.4157893
304.0172966
305.2490731
308.4316995
309.0184381
314.242266
317.6622091
322.7668356
329.4641344
331.9255388
341.6467961
346.6515397
353.3432601
360.5588072
368.2379391
386.1546015
406.8744977
302.9731135
305.189278
306.3065194
308.31263
309.6911211
308.697407
303.840753
304.6824515
306.3177763
303.2989709
302.429672
298.4184969
301.8971041
300.0475728
301.3010689
300.9218431
303.8509261
301.6563901
296.0368968
295.9197379
300.800841
304.2184209
301.4499548
302.670772
303.681998
312.9357499
313.0663544
325.6566011
326.1606831
331.7558048
330.2128335
332.0890841
330.2960058
331.623962
335.4215654
337.0589295
351.2871835
356.3611932
362.2728963
378.3966396
300.4806006
303.8327603
305.9771093
306.0446049
300.0834998
300.8825272
300.7321455
297.3162077
294.6425938
298.7887272
299.3883994
299.2975623
300.1404157
294.9494159
295.4948031
298.0747148
294.4042903
290.6666389
290.153764
292.443561
300.0840564
307.9008719
305.9717277
304.3382025
310.3286492
316.450504
317.9140626
317.6334855
319.1507626
314.0325389
311.8277147
320.0850575
322.0702162
326.9356116
333.4670607
335.7243903
336.2771018
346.7323241
354.6810343
363.6806955
298.1343687
294.564072
299.597264
298.9175604
299.3027525
296.0260791
294.2502659
298.9708594
298.3090163
299.5106467
300.277512
301.7377567
301.6879291
302.5234596
296.4747543
296.6822786
297.4275221
297.6907969
299.7123794
298.8470258
299.242566
298.949065
307.8076036
309.6090078
303.335759
301.5005426
299.7475243
303.5381862
309.6808928
312.5769397
311.8477476
308.1647273
311.7813174
312.9856638
320.7275602
330.7367768
332.4392406
333.4983204
344.9623922
350.6634981
297.4342416
298.2351897
298.1465972
298.7355538
297.6577867
299.4073525
301.1052894
301.5857361
298.4369946
297.4274064
294.2308031
296.1034186
299.4281831
302.0488861
303.3501434
304.8540545
305.9456505
305.0250583
305.2028871
302.9422808
305.8903773
305.8065241
299.6746731
299.2015959
297.5074158
299.2923343
301.370284
297.5402118
299.086356
303.2064201
305.8883272
313.4410386
311.0503314
314.6855344
316.2876395
319.005536
326.4643765
332.9376585
335.1122945
349.3367357
295.9831474
297.6046386
294.8523486
296.2359179
297.6226792
298.7768819
295.1093897
290.4943331
293.017116
294.0001673
300.2829454
300.7590772
297.048435
300.284143
299.1218993
301.4046605
300.3654156
299.5003628
297.4874598
296.7760195
298.1205056
294.6312196
299.2389158
295.2152995
302.7174557
299.1786334
300.7745343
305.7813191
308.19152
308.2660874
308.196839
306.400228
311.2590062
312.9798036
313.5605603
317.871197
325.6590334
331.3829919
331.5947018
334.5614815
295.1204165
294.5677718
295.9725755
293.5335231
296.2260324
295.996397
296.8268875
300.3122031
303.206063
303.3869494
300.2102081
301.1321093
300.9039875
304.5300279
299.682216
302.4406936
299.6585269
301.1962443
303.7851139
301.5076959
299.8743168
301.8368342
300.1194504
300.033796
302.5011029
302.7218985
299.074218
300.9747019
299.1330591
297.5895465
300.1964023
302.6192816
303.5625024
310.5780264
309.2893673
313.2278578
315.3860055
321.7182996
325.0380483
323.3289398
304.4220681
304.8927819
305.7532097
305.5632756
306.2672134
303.839444
304.9335278
306.0312114
302.0328526
305.3485117
305.6095157
300.4161588
302.3638515
301.1820836
306.0316054
301.1830596
303.4918126
300.6739627
295.9773028
298.3588073
300.0582101
305.6516934
308.7467576
306.6620066
302.1711244
301.8049223
304.3633222
301.8522103
306.4429048
305.179608
307.1180692
313.0687514
313.7213103
314.163629
314.9291074
307.5695897
307.9276124
315.5222743
319.4964654
319.9584288
302.7989878
303.5681924
301.8401504
297.3604457
299.5980313
302.4610567
305.6894999
304.1456025
308.8192376
307.6800333
306.21967
307.8002888
305.4429871
303.0866063
300.693524
299.3680979
295.5611622
301.5602428
303.2542303
302.7024281
301.7955264
297.1096542
293.2573218
294.368449
298.1735681
299.1755795
293.9080411
296.8429458
302.1106975
304.6937418
307.0225331
305.058505
304.5122811
299.2387193
300.7612048
303.7496647
300.7373448
300.2756158
305.114803
308.693905
293.9522516
295.8601975
296.6237845
296.6908913
293.117198
290.5992427
291.2528394
297.5042909
293.109263
293.2037869
298.4398169
297.0410787
293.90128
299.7185142
300.0834696
303.393014
301.8277136
298.2115096
297.7411325
295.986646
296.5158406
296.9450056
300.9515211
302.5436599
300.8372106
302.070203
303.876552
304.7312497
300.7200813
298.6174557
298.806046
297.1194138
300.6763279
300.24695
293.8460772
298.8742372
297.1187073
292.9039314
299.8247326
303.2174146
301.2780108
304.3559192
304.8301347
302.4162353
305.9986035
304.0476987
302.8032297
300.2274368
293.376315
296.7155055
296.3954897
299.0020488
302.449878
298.109802
295.6128968
297.105496
297.3500515
299.2212014
300.0734672
302.2738196
301.496817
302.5005484
301.3020552
298.1651574
303.2015254
303.0209701
304.4836048
301.8849682
297.7839681
300.8822986
303.3433234
301.9125715
299.9383138
303.5860189
308.9649226
304.0754121
305.585776
307.2556073
302.4487916
307.3502869
298.7307051
298.7277808
297.1329079
302.1697707
302.96457
301.8914063
301.9617992
301.9338893
304.2400888
302.6366682
303.1227811
298.6405004
295.2043645
296.1334698
301.4528811
300.9696621
298.743562
297.7347019
299.9388858
298.8858411
296.4775387
293.9462303
296.8527327
296.4555902
297.2816458
298.9710105
303.0624531
298.5116756
304.3213508
298.726955
294.3898865
294.7462221
297.936298
300.1897629
301.2503914
303.9021638
312.4684208
309.7212441
308.2315301
303.0713147
)
;

boundaryField
{
    flow
    {
        type            calculated;
        value           nonuniform List<scalar> 
160
(
297.3515534
295.7063031
297.0918102
302.210687
300.3795069
307.4060668
298.5025106
294.1079061
297.9185653
294.6873549
304.1826541
296.0503143
297.2013923
297.8780757
301.3614452
307.7849173
297.5692578
296.7510761
302.9775235
296.7439654
300.5466287
303.0211595
305.353225
291.5720059
297.0667355
296.1866061
309.5629631
297.9261906
301.2331632
303.5149222
300.7796757
296.3710301
301.1952097
304.1242426
299.179521
295.4467812
293.9713031
295.7975447
304.543584
292.93441
699.3785991
730.0871443
739.0195717
768.1382262
786.1685127
784.2018788
774.1979623
792.7741063
762.9833495
766.1723047
726.7492195
723.8503311
737.4222718
716.3744418