/*--------------------------------*- C++ -*----------------------------------*\
  =========                 |
  \\      /  F ield         | OpenFOAM: The Open Source CFD Toolbox
   \\    /   O peration     | Website:  https://openfoam.org
    \\  /    A nd           | Version:  7
     \\/     M anipulation  |
\*---------------------------------------------------------------------------*/
FoamFile
{
    version     2.0;
    format      ascii;
    class       volScalarField;
    location    "0.002";
    object      internalE;
}
// * * * * * * * * * * * * * * * * * * * * * * * * * * * * * * * * * * * * * //

dimensions      [1 -1 -2 0 0 0 0];

internalField   nonuniform List<scalar> 
2400
(
0.2084269009
0.2332540819
0.4990306396
0.5844759581
0.4919179395
0.8398673933
0.2116296992
0.4316506705
0.4742422748
0.5652765036
0.6392061445
0.4253865267
0.1349676306
0.6181050865
0.3299618605
0.296807189
0.4990732616
0.4068986856
0.7480155802
0.4159362644
0.4474960121
0.3821068867
0.1972257867
0.2448789175
0.0305024948
0.6864593375
0.03899463261
0.5462139977
0.5627921858
0.3414421074
0.6786237869
0.2225437083
0.4882134111
0.2315987235
0.3883495996
0.5279438209
0.4462995626
0.1915102959
0.260583487
0.3073544647
0.7440059622
0.3549894142
0.1739598109
0.5050148705
0.8498070766
0.3796448185
0.1620379079
0.7768716982
0.7512675413
0.09515617665
0.5058333568
0.3313864936
0.7184808583
0.5951547922
0.3133342521
0.1883339442
0.3051127163
0.3703868815
0.2495236618
0
0.4011908564
0.3416195914
0.6015134303
0.2710496907
0.4781646496
0.3734991274
0.4223314921
0.1055206026
0.3650853917
0.3394299078
0.2318237943
0.3106697486
0.1081044124
0.3492371067
0.3238552456
0.2227217745
0.4790016513
0.4066073232
0.2734154131
0.2314803057
0.597382371
0.391748782
0.4176348018
0.4754585387
0.3425498426
0.2675639392
0.287654447
0.222394489
0.2404475615
0.3030178937
0.3282676444
0.2770961041
0.2945740256
0.3958015462
0.4654689993
0.775938345
0.5512136912
0.8968044394
0.8325587482
0.2265530616
0.1364278174
0.1698744197
0.3509211411
0.4531499363
0.2841899299
0.4101588169
0.5120020027
0.531976677
0.2989647767
0.4457748056
0.3702056345
0.5152801943
0.5529250882
0.4414329703
0.4778364303
0.8546330279
0.1186060103
1.076603478
0.4154771443
0.3324921023
0.5548962296
0.4507689805
0.2402258886
0.1967599157
0.3321220803
0.7648953539
0.4456548375
0.4382159364
0.2796725238
0.3695257448
0.3055546706
0.6305412394
0.3531272264
0.3156445793
0.1498465702
0.1656989048
0.3046346978
0.4850061588
0.4550767555
0.2554764358
0.1653986702
0.1987449773
0.3520266469
0.9822591405
0.3256222755
0.4938832185
0.1326280361
0.8685493802
0.1565685494
0.4494414974
0.475210945
0.5233928821
0.4974952149
0.3218098605
0.2372017515
0.2517637682
0.3516740115
0.8081317125
0.3409722811
0.9522580562
0.6103765584
0.3344093562
0.3951572174
0.9031270274
0.8089459366
0.4947003089
0.4868413608
0.3514536833
0.6309699938
0.6597674737
0.22879228
0.599712241
0.1116490312
0.6120473484
0.1835402437
0.6362544085
0.1676977647
0.5369716931
0.4553306748
0.5485781921
0.42241172
0.1343096953
0.2584083821
0.5983177163
0.2351941282
0.5786261157
0.66231947
0.2520244194
0.04614100852
0.7906412483
0.2474734219
0.3429660292
0.4179876333
0.7748195055
0.4526095072
0.2170396139
0.2066957274
0.7286487604
0.6846282276
0.2264900921
0.5846791603
0.5570115867
0.7173609704
0.2169739613
0.6080000409
0.1126816915
0.8278413744
0.4771594676
0.306226968
1.0577073
0.8354412707
0.3684656473
0.6254124879
0.07604831302
0.08966136564
0.53819457
0.202241681
0.4808039984
0.2815201045
0.4638981207
0.5926225872
0.6179907956
0.1881126012
0.5688721313
0.3895384203
0.2700892126
0.6471002012
0.539498041
0.6285191668
0.3276268797
0.5540846143
0.416249895
0.2551204726
0.08307235342
0.341182752
0.4939131142
0.2857276292
0.2612719025
0.2028023132
0.6680402078
0.4286662367
0.47556866
0.4820080002
0.6425062405
0.4751293929
0.2601302657
0.4094425672
0.4840254827
0.2768529243
0.490905413
0.0989475623
0.5732667135
0.468408321
0.3564767379
0.3123616974
0.7390581136
0.7047065118
0.3767329229
0.05976114588
0.3025049851
0.399770672
0.1539430418
0.179742346
0.5669252104
0.6504657637
0.3115276541
0.3881465598
0.3350808754
0.212246817
0.1555002259
0.2599376701
0.2856941803
0.3088450372
0.6288582945
0.9745329428
0.2143309988
0.4471867837
0.2596951075
0.4471498035
0.3670073383
0.7782054495
0.5190997266
0.4919394508
0.2734313147
0.7271935031
0.4043420779
0.7323741592
0.08406627366
0.2753957543
0.6476868385
0.5676936729
0.7544438094
0.3196150213
0.3446999905
0.6486423499
0.3923765186
0.2165465218
0.1612880235
0.2539367928
0.3735908432
0.1402584981
0.5156042164
0.4159021086
0.2566014317
0.5074763336
0.3088063049
0.5725586752
0.4768211704
0.6439090278
0.2472772869
0.5142192662
0.4545256623
0.3721486845
0.03756090335
0.2690589112
0.515341835
0.2979548723
0.2419502213
0.9873792561
0.2338953575
0.4442509317
0.1258422427
0.4052849844
0.1622172213
0.1145273798
0.5337629912
0.3045410602
0.3202155831
0.1777475542
0.3218107013
0.3666201688
0.381871174
0.314279066
0.2182708876
0.188083308
0.3588607321
0.2493325009
0.315812526
0.2525085963
0.1503056163
0.4717332596
0.393749182
0.1261031024
0.2213486689
0.3590821592
0.9292108712
0.237150589
0.7153372307
0.404197022
0.841243667
0.4384619996
0.3360085529
0.3475527286
0.5852843859
0.4263543498
0.5793812785
0.2812190168
0.5135953706
0.2002920118
0.2702478331
0.4211531636
0.2431999961
0.6232153363
0.5176339655
0.3278535491
0.4713086426
0.4377649346
0.4442871528
0.4079363958
0.3090847724
0.1372700159
0.3016957556
0.197724587
0.5769712531
0.3056764296
0.2140348869
0.1500867447
0.1956005707
0.4449958465
0.3607903835
0.4751108158
0.3290117561
0.519565253
0.3423010349
0.9863076992
0.6973897275
0.3785000079
0.4697476263
0.3021351328
0.1796294628
0.1842077854
0.1150512778
0.1466660108
0.3360593814
0.486830565
0.1332429977
0.13054595
0.4049284862
0.1452228972
0.139593047
0.3313050387
0.6812984354
0.8853806762
0.1117497251
0.4346591469
0.401045754
0.544933838
0.6170718854
0.1414942328
0.7071904666
0.5158224279
0.6413250702
0.5169701805
0.52615408
0.4665665732
0.2494542342
0.4581803405
0.4476592905
0.2660857817
0.03772671181
0.2758472629
0.1600123203
0.305966435
0.7135954836
0.3134825049
1.155644441
0.3703914547
0.1285921831
0.7692393715
0.1519171746
0.3345253396
0.1409948427
0.3699187626
0.5971961187
0.1978801796
0.4714282734
0.4154123775
0.2546666559
0.319762715
0.5857131618
0.3614446003
0.1011806259
0.8236549103
0.5589194738
0.5219104006
0.2360031604
0.1599488705
0.5394357444
0.453232262
0.6797956529
0.2446240802
0.2619621986
0.2722898572
0.7672475591
0.3323244118
0.1896648446
0.5307535553
0.2263571875
0.09311432811
0.2251879155
0.3804500407
0.8980359781
0.6409203414
0.1583539773
0.2674058987
0.5073838967
0.7180137888
0.1540825642
0.4350200379
0.2242606788
0.4271687642
0.5810494015
0.2939520832
0.5530858501
0.5308476332
0.6209224691
0.03156722587
0.3637989663
0.853879131
0.205289409
0.6056559464
0.5651194928
0.5473897083
0.3489645004
0.8337941583
0.362125595
0.2745566162
0.5482367796
0.6642939165
0.3289043628
0.5724873045
1.213119881
0.4605210388
0.6394239416
0.2509235558
0.4618927716
0.5064340304
0.2944898985
0.5175902489
0.1286185909
0.2590708355
0.7639704008
0.5708583286
0.4009211406
0.3815697974
0.9577628742
0.5186000835
0.3108589862
0.4317789421
0.5839755025
0.4826772028
0.1533742352
0.3540454474
0.308484872
0.6822301819
0.6263547193
0.5647108809
0.4550750587
0.6174717639
0.4241262594
0.3484775469
0.3371707794
0.6047008023
0.4025324156
0.09880745922
0.2774928904
0.5079161323
0.5428126875
0.2920817281
0.2769666549
0.3146688805
0.4057766036
0.9699990505
0.459429245
0.2238087886
0.1422990812
0.241034968
0.1739277619
0.5491196895
0.5726661876
0.4119569903
0.3301950039
0.3028836646
0.417222254
0.3718660805
0.3141030238
0.2869403961
0.6008107357
0.6502219087
0.4798434258
0.3958673573
0.2606971689
0.2677860796
0.3054346809
0.2418657644
0.1605813634
0.2284213802
0.3381218535
0.2296141632
1.010002332
0.4146382789
0.2413284183
0.1595252196
0.2468988204
0.2464246978
0.6733839054
0.4369765897
0.5279001395
0.3409103252
0.4508371846
0.5542347211
0.08306320016
0.3170799092
0.2553589479
0.1201972412
0.2368689983
0.02896792629
0.2767154705
0.4240935658
0.2257968735
0.5706025908
0.2424116346
0.5506496101
0.5986006776
0.1758633767
0.2144658855
0.4395879026
0.4312303985
0.4010860069
0.4739996268
0.1696575443
0.1516719004
0.3011756053
0.5588615119
0.8557355402
0.2055041358
0.6070042573
0.4657428097
0.4190830061
0.3354401009
0.4365470044
0.3628366066
0.5521690373
0.493839784
0.1916141768
0.3170139817
0.201331012
0.3183828729
0.2795854833
0.472885698
0.2602286399
0.7019784497
0.568405907
0.8973826983
0.116210773
0.2171816726
0.5367525161
0.05621684075
0.3200405753
0.4010515515
0.1250265132
0.2943456513
0.6407131625
0.3978957183
0.5696368115
0.774843819
0.293400347
0.4637535503
0.1513142491
0.2953853519
0.3969273125
0.3445945362
0.4168840147
0.782438454
0.7706172374
0.4964499281
0.6234559726
0.5182620636
0.3652933253
0.2152046348
0.3822929295
0.3001733647
0.3191132772
0.4262821975
0.3367933051
0.275968392
0.6271166725
0.4216807908
0.2751774128
0.2935912522
0.412482407
0.6362333756
0.4706947371
0.4528773029
0.6785908652
0.5301035386
0.3720823075
0.178825225
0.2609702054
0.4645246481
0.5209234887
0.2203780221
0.2372796258
0.2258345282
0.1683566402
0.6687123843
0.08884818454
0.4971267012
0.4090525375
0.06282679548
0.3923759998
0.8054212425
0.3319285454
0.1230892858
0.4623038993
0.5717652937
0.5548654636
0.5068988466
0.2563383972
0.3456232767
0.2627278331
0.7433872688
0.512723583
0.2119472142
0.579997044
0.1502939214
0.3205564613
0.3309226465
0.5557286364
0.626225604
0.2843148686
0.2980587364
0.2626937314
0.3651407676
0.3816406298
0.2782537576
0.2462545435
0.265872235
0.3115088486
0.1970843487
0.4795610134
0.5874704886
0.7331138663
0.6215774897
0.5657460847
0.2491125644
0.4309130158
0.6524439134
0.4155036562
0.7610056819
0.1337288929
0.3221561627
0.164169854
0.6044900429
0.1858498879
0.7452181303
0.1954064158
0.8382757898
0.4232808675
0.5233938951
0.09067948238
0.6323918565
0.7722250021
0.4091394737
0.6405050509
0.4002697958
0.6281641039
0.3365982741
0.3267593064
0.6369430157
0.4382038682
0.5010713661
0.1143007121
0.1783019288
0.4975375071
0.380697133
0.3120619647
0.2387981046
0.3973021267
0.3057857344
0.1755489462
0.5907705264
0.4803622649
0.2328105175
0.2619256913
0.3896593774
0.5919167856
0.6040261317
0.4498041839
0.4351593833
0.310555646
0.2044452598
0.4244659389
0.7091262404
0.28487726
0.3274661002
0.04351796039
1.036620606
0.553041894
0.3308560012
0.1242901488
0.1768042002
0.3263162197
0.4383037772
0.1072122015
0.1192953241
0.5503801241
0.4013264129
0.2803724606
0.4173242919
0.1992457665
0.5164522778
0.7804416869
0.2504709525
0.2656426566
0.2767751346
0.3593087314
0.4107409474
0.9136471675
0.918678063
0.3033269564
0.6346549626
0.3193141785
0.2740498982
0.2521411105
0.5881419411
0.4636579242
0.3348740562
0.468843377
0.8057148259
0.5087147227
0.1924408603
0.2900485644
0.5739018157
0.33114408
0.8919033338
0.4339487423
0.2131769308
0.3682786566
0.3196274982
0.9436260193
0.3649122982
0.3804544512
0.4157198613
0.2560773122
0.1500893588
0.4664215777
0.6161197173
0.8501510908
0.4006818915
0.34734353
0.08811417249
0.3099144867
0.3640203815
0.5440778583
0.341811302
0.4148703692
0.04920610253
0.5159169553
0.3651936796
0.5644594214
0.6675004665
0.9274595116
0.4938755056
0.524755341
0.5189831965
0.3103434627
0.3863070638
0.1401282896
0.4383940227
0.1266838599
0.4391014774
0.01486213184
0.1883399086
0.3258420739
0.4685145173
0.6581684225
0.1926992171
0.4982550397
0.2311382293
0.3377346836
0.7928964598
0.2280705967
0.3169283314
0.2838402279
0.797484306
0.2093154987
0.7070548901
0.2218939227
0.2704175319
0.3743654855
0.2416465055
0.3678810749
0.1756820296
0.2786380935
0.2675932392
0.502121273
0.2037667428
0.2774398102
0.3028294424
0.1028506893
0.361576399
1.042680904
0
0.2973568043
0.3844376856
0.1915144673
0.1456026508
0.2881578549
0.6017874392
0.3157482529
0.2108143104
0.3475611999
0.6289387537
0.9185876145
0.4538201311
0.2702544552
0.08344913015
0.09090621596
0.438791622
0.5049681935
0.3280981473
0.6168629835
0.3905732461
0.4978010715
0.3791758755
0.95388609
0.160124544
0.1905562939
0.3214389977
0.2036463966
0.2783430545
0.2693796851
0.5341098153
0.2400341146
0.4161315255
0.3193837738
0.6413899641
0.4328835523
0.1657401677
0.07349971932
0.2991162681
0.6191585044
0.2989305008
0.1424770363
0.2599340557
0.75085824
0.5374487112
0.107422608
0.374765028
0.3718530682
0.3626102305
0.7998253127
0.554005949
0.3569273766
0.1929659692
0.3837698478
0.2375106591
0.211607331
0.4982896336
0.389133968
0.2983626694
0.4085140563
0.206337241
0.3636553742
0.6815468381
0.4979868121
0.2207642113
0.5998390113
0.917814469
0.2020647018
0.2706527972
0.08517611035
1.080760445
0.2144430589
0.661991067
1.431740739
0.1079820173
0.1422109088
0.4474361929
0.7016203387
0.3052309885
0.054211399
0.0680832458
0.4712271574
0.3988667317
0.2247187134
0.1644020093
0.3040507408
0.3822987163
0.2897635505
0.1937079636
0.05409170646
0.4023994225
0.7263688378
0.441458331
0.7646259587
0.2456232001
0.558312056
0.397661128
0.3112517226
0.4093123782
0.1836462409
0.2715188516
0.2281994189
0.9712596938
0.3052962542
0.2195146981
0.3695687513
0.8329694799
0.5930449519
0.6566198969
0.1603185767
0.2557090487
0.5236739139
0.6127229523
0.2356857102
0.4607065964
0.5079183911
1.145232727
0.2445142152
0.4202201096
0.2411920596
0.2861880017
0.4279280774
0.2502911458
0.2524442375
0.04650359272
0.7317167672
0.1813398896
0.4852511458
0.2008955122
0.2947512195
0.31125962
0.1815956058
0.7165364894
0.5093381833
0.383703747
0.4820269224
0.5403143773
0.1874510187
0.501230642
0.43521222
1.300322439
0.5418831181
0.6946102967
0.2527443221
0.4277521703
0.3957706904
0.6725539003
0.6181521094
0.2320180489
0.09571552165
0.4049568845
0.1699701848
0.1221598362
0.4753140353
0.3079722248
0.3711025714
0.5585421234
0.1014862301
0.4419795195
0.1061830166
0.2409170161
0.3508320656
0.1914461549
0.6978043124
0.712217683
0.3400310574
0.1369987311
0.7527349597
0.239108177
0.3094774058
1.104665916
0.702936137
0.6409857684
0.4714752353
0.6484664371
0.6338616818
0.2880188432
0.06492102658
0.7392701664
0.8304255856
0.5286053102
0.1080279061
0.2675425239
0.5250307093
0.2378099734
0.4490056333
0.5095166214
0.4985864942
0.2517658087
0.4084991537
0.4577906824
0.09523256799
1.002730472
0.204406201
0.7013780998
0.5270032009
0.1804429963
0.6860046625
0.1223129103
0.1113402387
0.01674367544
0.1707185629
0.217849903
0.3230499518
0.1687776774
0.5222920296
0.4477641285
0.36562155
0.3420748216
0.703197667
0.8316385165
0.1347388495
0.5028729639
0.5386040022
0.4480214982
0.5138383863
0.2978966211
0.48277556
0.4796502485
0.6220288437
0.3518342218
0.3656906359
0.5865300228
0.2170662897
0.6531170458
0.1390538158
0.43790658
0.53085169
0.1073950965
0.6438335786
0.9378258741
0.2385854768
0.6833954632
0.2983821069
1.094655273
0.1040844023
1.35701053
0
0.3271117953
0.4924768856
0.4700308146
1.374567406
0.4082858782
0.5807041987
0.2101191209
0.4633637448
0.09155470259
0.2594943135
0.5137572703
0.1670480221
0.1810315434
0.2504041198
0.5311921164
0.3199065002
0.9945094803
0.4745930078
1.424940309
0.1996737594
0.9282177739
0.5336795037
0.8432844533
0.2211796236
0.4859407065
0.1344622917
0.2180572129
0.8198222133
0.3028107015
0.6384040178
0.1007138491
0.1732029262
0.5031711142
0.5976297392
0.2479217314
0.2626097958
0.2132159579
0.2075863451
0.2631665598
0.5683951008
0.6781749266
0.7665517045
0.4383055853
0.6224516686
0.124321
0.7024274916
0.1216105712
0.5155184948
0.2993842062
0.3464841509
0.428742319
0.2970528027
0.3454615858
0.3971203677
0.580758817
0.1658933566
0.4759148936
0.4601920086
0.1883784671
0.3700856783
0.4304537897
0.2110440265
0.5865716726
0.3125582424
0.1093408681
0.4015587077
0.3503487466
0.5144153102
0.2958918497
0.2064112262
1.197023951
0.1340198799
0.3291796863
0.1804634489
0.4759079854
0.3489823122
0.6574534369
0.5533503046
0.3936217846
0.3620025766
0.2925314183
1.339033158
0.4373457335
0.2025472717
0.1431118694
0.1490045843
0.9943490927
0.1477851287
0.1491234936
0.342417094
0.002347337192
0.3719986813
0.5407083553
0.8203187062
0.07104164884
0.2364278881
0.3234163333
0.2133316608
0.2117208745
0.7010640065
0.9568562402
0.2462018992
0.392796121
0.3758791053
0.6754571191
0.8928618625
0.5304238446
0.8348148726
0.224640351
0.4644732668
0.4576824169
0.5118071373
0.3825427112
0.1719379504
0.454133963
0.6445317807
0.2578786337
0.4505539125
0.3996672728
0
0.7658742196
0.4489678178
0.3012520686
0.384019112
0.9342066767
0.5695918684
0.4330528656
0.2060198175
0.2765810026
0.1096319136
0.5455302867
0.252572497
0.458610327
0.2841207643
0.08385055145
0.5062135885
0.9461536687
0.3627709534
0.4105659647
0.4700538679
0.1883608317
0.3128363216
0.628680787
0.3260776832
0.5151751413
0.7264293408
0.543077524
0.6679523365
0.2075097417
0.4525392033
0.2668451598
0.3064508993
0.5991866509
0.8847586292
0.8867936133
0.7437094602
0.7801617678
0.1832102829
0.2132584285
0.08933497803
0.3877294039
0.4489094795
0.568129244
0.2353221888
0.6381038377
0.4135987127
0.4146752691
0.2645142844
0.1357109252
0.1945542629
0.3244436279
0.3033654884
0.2105581516
0.1136367007
0.3667727981
0.2214190632
0.3705606478
0.2308090837
0.5624067979
0.4191382432
0.1417614174
0.1704692928
0.4728079343
0.8734248634
0.5244704084
0.2425808629
0.4214493683
0.7687078501
0.7221489919
0.552040571
0.419613434
0.9280673706
0.6890780965
0.329863013
0.5381820277
0.4499411054
0.2505428976
0.2718798669
0.391784802
0.716767775
0.3770083398
0.3937334552
0.1364720616
0.0529655709
0.1969913114
0.3381865156
0.2896003813
0.1798822616
0.0242258109
0.58895651
0.3027079894
0.5565420498
0.2275379009
0.4483085771
0.1220430293
0.4661095393
0.1241917244
0.3870428558
0.1169244485
0.184982707
0.3537445638
0.3960883131
0.3692144128
1.024073078
1.04678262
0.4688741402
0.4316067008
0.4340529026
0.6703216377
0.3583354831
0.1163880955
0.8443931966
0.4691899099
0.2625382413
0.2523445797
0.1270538071
0.8549149561
0.4181727659
0.2617538631
0.3022673617
0.1761515597
0.3915863426
0.1164189713
0.8561195418
0.3884877119
0.5406774176
0.8523182011
0.4338713912
0.3410363145
0.2016807171
0.3749563115
0.6269646307
0.4091278346
0.1563616495
0.1262617014
0.4012925524
0.4258551123
0.545006502
0.1247269613
0.0639681077
0.6351979115
0.4015989891
0.2920664349
0.6628000528
0.5733030815
0.5905028267
0.4739599293
0.09858634137
0.5444803008
0.8071705145
0.4156893929
0.4173155641
0.2926427014
0.0563251908
0.5907163483
0.2127298373
0.4371088971
0.161036518
0.314601411
0.162473303
0.4328823241
0.1235876435
0.1138118412
0.4826699884
0.06416467873
0.2539545303
0.8020744013
0.04619809527
0.1529764179
0.08286753398
0.9174738527
0.7714006877
0.308538149
0.6994712463
0.2707192545
0.3141335362
0.5895227753
0.4652068593
0.5935586396
0.3131716261
0.4105680422
0.1586922561
0.2271244738
0.8479629746
0.3906901507
0.4507100933
0.256906062
0.6694469555
0.4857496316
0.08749196188
0.08331515587
0.4695035441
0.9232359358
0.4661803932
0.9278554043
0.04714584836
0.6902271807
0.2611243776
0.2545069053
0.1712751167
0.2333894787
0.3664283081
0.2897970346
0.6119478978
0.06133241246
0.4244892406
0.4631671281
0.4253400797
0.7367141085
0.2544425313
0.5623496636
0.2500764345
0.004492534939
0.8469149899
0.2474713566
0.5213127372
0.3065682108
0.4511200861
0.7413756787
0.1732754914
0.2594795698
0.1664474648
0.3320595265
0.6961415493
0.3956540316
0.5512733954
0.1955710883
0.1573637844
0.8713157516
0.3404395943
0.5687107022
0.2777617815
0.4268884051
0.0533499797
0.4343098226
0.03337630111
0.8880352205
0.1204659681
0.5111971812
0.3156819378
0.1193123207
0.3384273933
0.918638422
0.5144838133
0.6617561289
0.7308490469
0.2924006414
0.4867225855
0.9334942635
0.2264600708
0.5579154211
0.5860746176
1.298448347
0.3152184952
0.5037336884
0.6468866777
0.3216200658
0.5105683513
0.3654050801
0.1303258649
0.4422310389
0.4482138313
0.1936873227
0.4377475539
0.3856017381
0.4575581659
0.7476167297
0.2642803323
0.2811128126
0.3323278013
0.7391457204
0.4078243864
0.4501097295
0.3990081168
0.4383393147
0.1229958137
0.1898384665
0.5566144235
0.6069034131
0.4886222427
0.3616330119
0.215695771
0.1740354435
0.5051053165
0.3012224098
0.8421337691
0.3529403806
0.8233539645
0.1023517174
0.1105561509
0.4158669423
0.3246577884
0.2144611166
0.3018092541
0.5954924902
0.316376358
0.4603556434
0.1731922265
1.103556289
0.4541038768
0.1023086092
0.6850148025
0.3106024889
0.4990882939
0.4350011962
0.5285264111
0.1151796896
0.5580223511
0.6293436525
0.4819964013
1.004406262
0.7034534092
0.221576442
0.3812447548
0.3345237407
0.4655477088
0.4816195934
0.4725505673
0.5117793505
0.501676334
0.149753685
0.3651037718
0.2463649064
0.452342821
0.1014310872
0.5679524091
1.014589873
0.5443460422
0.3570122046
0.5175987162
0.2512615159
0.1998937814
0.325528197
0.3291076527
0.3094076046
0.1590890846
0.5285377289
0.2993060942
0.5673053888
0.2230758178
0.2827973135
0.5196881184
0.4457005164
0.3604777296
0.4352301683
0.4916373011
0.4920830351
0.1027269666
0.42366125
0.2926609969
0.2545723367
0.263526767
0.2026270579
0.3546407953
0.4658488115
0.5974755661
0.4653355741
0.2645411689
0.5423735851
0.4313682295
0.4785930923
0.5738064707
0.179138187
0.3422229391
0.4052815865
0.08666960722
0.08511500343
0.2779741755
0.2337768249
0.2160204657
0.4391184212
0.6226395448
0.6583461736
0.2152921878
0.3598522502
0.4335014276
0.3148229483
0.5164821546
0.2725678622
0.3367849708
0.2744638752
0.4390335571
0.3305481816
1.268321089
0.4442005058
0.3751340261
0.09323247233
0.5598115526
0.5737315279
0.4086814117
0.3345480974
0.2621397615
0.4479768917
0.3825997874
0.7140929538
0.2501343435
0.1111395293
0.2136203609
0.02618717826
0.1121088131
0.5669987271
0.6416728474
0.500491526
0.6684283847
0.2271317866
0.1191225252
0.2415269884
0.8275735864
0.2296279334
0.35794001
0.342616528
0.3763919116
0.5268279718
0.4948321478
0.5453155079
0.3494366331
0.6533574629
0.08534720412
0.1163443305
0.6808743522
0.3736522076
0.4841595141
0.2828213833
0.4761436565
0.478616476
0.3428821685
0.4741023732
0.9413553036
0.4519979854
0.2785015425
0.1839312269
0.4253026648
0.1624661793
0.1751628488
0.0216822463
0.480339638
0.63789797
0
0.4667348178
0.6462455356
0.5425534219
0.3619745491
0.3611956078
0.4341923432
0.3380163873
0.04075028454
0.6999672803
0.104478479
0.3299633153
0.1024126387
0.4116971247
0.3449247318
1.828984553
0.4837217524
0.2124928918
0.6147327907
0.7874059271
0.5534685
0.2745229743
0.2326305505
0.4787599184
0.3002674013
0.4150858887
0.5253299669
0.7407708601
0.968612612
0.2997588053
0.343280297
0.4899174964
0.07812158353
0.3013043315
0.53179675
0.4256818847
0.1428221711
0.2923293291
0.8329672172
0.9311958043
0.3635549155
0.125870911
0.2275786743
0.7108222545
0.190190277
0.7387581203
0.1343486809
0.6194036392
0.5887324864
0.5321134022
0.2293794124
0.3163321004
0.5483113177
0.6840365933
0.6727298997
0.5476302517
0.6549436098
0.4425725505
0.05947805206
0.4790645631
0.6711264595
0.9229881229
0.2245314676
0.8832226304
0.3637964906
0.5642861099
0.1581969599
0.6697007668
0.2779533687
0.2155236802
0.3842606652
0.4518503451
0.09900556519
0.5643050477
0.1495251093
0.3855282794
0.3539317392
0.4718235682
1.015978622
0.4113640697
0.3167606003
0.06738097026
0.469240141
0.4002643603
0.4451489338
0.5897222953
0.5060672475
0.8608866117
0.2933428991
0.1497970404
0.5680506493
0.1335332644
0.5191550659
0.7988287575
0.8494890159
0.4047050575
0.4857147127
0.3668829193
0.1148700659
0.5051828999
0.3915831161
0.451672922
0.7615048213
0.1543614436
0.08846468086
0.5192389188
0.8550815335
0.9708884873
0.3100314047
0.4871096968
0.4612654336
0.4448559091
0.5171353312
0.7679740905
0.3565569218
0.615352138
0.2903420528
0.1430526997
0.1958275464
0.4109238329
0.5163702877
0.1962475295
0.2967006913
0.5195807222
0.3264989442
0.4548792878
0.1911759813
0.5485321283
0.3081300308
0.543638684
0.2090030471
0.588058172
0.2028226523
0.3513701456
0.1747472891
0.2789737712
0.9836443977
0.5057053215
0.7729506788
0.3402401065
0.5975046542
0.4022451953
0.4372229901
0.6841451589
0.4582421325
0.3004025871
0.1438008454
0.6826446727
0.2911738264
0.2752319563
0.2297086328
0.2691385055
0.2707642448
0.7401616494
0.5289589343
0.2989214966
0.2242211534
0.3871602027
0.1032665302
0.580020614
0.5793088907
0.2920223378
0.397573354
0.5846518183
0.3401431683
0.4564906956
0.522849033
0.1977714915
0.3913216984
0.3355077635
0.3951487555
0.2556447408
0.3207165479
1.006902984
1.376686087
0.4507082075
0.2250358669
0.3196240053
0.3986941714
0.8360189868
0.4429951636
0.4826996264
0.6437854563
0.4471753586
0.3235972223
0.5665339202
0.2493672133
0.619130813
0.2229866696
0.2222897951
0.5542220977
0.6176933713
0.5589506133
0.5027497938
0.3596046073
0.375138015
0.77878753
0.5424383858
0.5504016709
0.2226302608
0.8740978597
1.061033647
0.2623569398
0.2801850634
0.4137350004
0.5428788005
0.1906193319
0.5298451089
0.3522302177
0.6152899817
0.4202116503
0.2162666997
0.4956766347
0.8248039679
0.9043283293
0.3784689335
0.6082013841
0.5295223328
0.8227674636
0.3857845292
0.2486098201
0.30771982
0.3225015884
0.3315772117
0.120124594
0.4279718211
0.4246259
0.1692643651
0.6902215621
0.7110600683
0.1928341383
0.3422244766
0.6518283771
0.9100331234
0.1588085627
0.3245170852
0.9405787912
0.3691262429
0.7495683196
0.8895987611
0.8078452892
0.348013
0.04140308225
0.01990801044
0.2288485417
0.8740189999
0.5840905009
0.3469551929
0.2746577817
0.3663990565
0.2448238956
0.432758337
0.1811429224
0.2369983323
0.235880135
0.394986078
0.5747792766
0.5305624448
0.08236951009
0.9374096843
0.4515305769
0.6979682217
0.3084725712
0.7260888773
0.1574324898
0.2280594418
0.3892855327
0.5101406874
0.2935221315
0.3386112156
0.5488549373
0.2532835519
0.5965490528
0.4554854114
0.4804944778
0.2621856553
0.5550223381
0.8944427043
0.1529111914
0.3783523582
0.2321236671
0.9566093929
0.6108570467
0.08760302575
0.437130106
0.2398319552
0.1567824466
0.846964034
0.4588942325
0.4782009631
0.6073417903
0.1235957019
0.6802305635
0.65912685
1.340893127
0.1423183192
0.3190256707
0.2060917044
0.416675492
0.179291424
0.41166039
0.592156667
0.1379347758
0.3603989523
0.2527315707
0.1993629777
0.6138722235
0.2482150391
0.5081718056
0.4369036727
0.3795242023
0.428895561
0.5685137655
0.3819747264
0.2299247266
0.4514997962
0.2050252693
0.2055812422
0.4155346252
0.09674183687
0.9772414349
0.242851313
0.01836486066
0.1021024866
0.3015877212
0.04782346133
1.055639294
0.5890503082
0.4695265383
0.4735560124
0.2796404941
0.3754344333
0.3262132707
0.221315487
0.6854928167
0.5102144157
0.6934086261
0.3915755727
0.292823768
0.1734109844
0.1273838953
0.30448405
0.5465306506
0.7168858004
0.3769350846
0.1309113632
0.574357276
0.1482866908
0.738326408
0.5824689998
0.3694062915
0.4985277724
0.569998712
0.1483684696
0.1625652038
0.4038410487
0.2322167275
0.253596497
0.2241204634
0.9671528693
0.4666782516
0.4322943838
0.1659928769
0.3160538075
0.3471180949
0.5509017786
0.2351868816
0.7464223972
0.1186640712
0.5374240785
0.4158694791
0.06327748078
0.3014315371
0.3310022163
0.1256183067
0.6013571297
0.2835882812
0.3033322213
0.2421275133
0.08062402419
0.3321345667
0.1927477805
0.2616302039
0.6968530844
0.2582508373
0.5780396086
0.2558700554
0.1818200635
0.446110327
0.4524065225
0.5284352238
0.1254062811
0.5365251462
0.3443633772
0.1968938137
0.173681383
0.794692169
0.06708417235
0.8148517647
0.2929348604
0.8947981654
0.2079258724
0.1868329474
0.6521832384
0.188846293
0.4528414445
0.3846402154
0.4701541282
0.1832018927
0.1350255154
0.1837787101
0.8301483207
0.9540182298
0.6960741946
0.1859503552
0.8420633256
0.1709117866
0.5453504711
0.2326601648
0.8263396118
0.4734295241
0.2676060698
0.4332849647
0.5487919351
0.3018036219
0.5809603807
0.3473828464
0.04399015723
0.8491416746
1.045648726
0.6762156269
0.1810682821
0.2073145983
0.3831126954
0.7285243319
0.4412468097
0.2004295376
0.2115674804
0.5504684158
0.2370985361
0.2923758056
0.1577940603
0.5489482455
0.4056234654
0.5228911313
0.7498327416
0.28180818
0.3631161877
0.2507616045
0.4643370834
0.4783420773
0.4095347926
0.09378827798
0.2779760096
0.1163586782
0.928787985
0.4541389144
0.4594316605
0.4059530325
0.9554753263
0.2350524136
0.2764149506
0.4316880109
0.5781816822
0.1171678791
0.129793802
0.1370317228
0.399123436
0.4915490312
0.2645096132
0.4892715686
0.286281481
0.3981438754
0.8656307225
0.5360751779
0.5302426538
0.7001890908
0.5067540031
0.3474621075
0.9173984219
0.7369831217
0.4446755609
0.7122861023
0.8035805894
0.9870728049
0.4314328099
0.4386641375
0.1835087115
0.5653397771
0.1824354142
0.4859473018
0.2534375964
0.512631694
0.5295181327
0.3827900124
0.2384849156
1.333538712
0.3913085481
0.1137407932
0.2754411468
0.7785296035
0.7890371569
0.3993788853
0.8621003592
0.2078538737
0.4208728318
0.4006814216
0.2163175868
0.6279011117
0.1514062453
0.5155514141
0.6502703849
0.4423754214
0.1248683199
0.1541463853
0.280651158
0.2056347862
0.3201423832
0.4299995863
0.4694844197
0.7335455414
0.9417584252
0.2743967135
0.2495361192
0.3405932393
0.4127549641
0.398663344
0.02892674643
0.6294396286
0.2920153645
0.2614832906
0.384925355
0.1537111824
0.2630577288
0.1563142137
0.6389083671
0.8373399723
0.4400224136
0.7187640536
0.2774502989
0.4819352867
0.2414310801
0.08383188613
0.1991440413
0.260374903
0.2703537625
0.1594992498
0.2666001811
0.3787166607
0.4141780557
0.1802055142
0.2757833283
0.6124399129
0.7792261988
0.6399012525
0.253740411
0.2001665053
0.3148110458
0.6874298262
0.3217434259
0.3447790908
0.5721083499
0.5995337409
0.2404249484
0.4661200094
0.001018242276
0.4705714579
0.3411534841
0.2847665308
0.2273749119
0.5535546513
0.4016749263
0.5604623949
1.282907967
0.280015438
0.7295567484
0.5250311658
0.2804480711
0.7104532631
0.4403890472
0.3931947676
0.0860895098
0.6865078426
0.2926423011
0.479402808
0.09577405266
0.6799443636
0.3305771346
0.4078426051
0.1879295468
0.6810676417
0.1981125989
0.3264674888
0.5110166875
0.351565198
0.6546750086
0.4341484422
0.7357036723
0.2733264691
0.7948540933
0.5659235348
0.2225914577
0.2810278938
0.3256427267
0.7471461769
0.1385821906
0.4898834754
0.6667177048
0.5331309462
0.5350723325
0.6678642843
0.2626459419
0.4579164882
0.4708886306
0.1639131698
0.3305986821