/*--------------------------------*- C++ -*----------------------------------*\
  =========                 |
  \\      /  F ield         | OpenFOAM: The Open Source CFD Toolbox
   \\    /   O peration     | Website:  https://openfoam.org
    \\  /    A nd           | Version:  7
     \\/     M anipulation  |
\*---------------------------------------------------------------------------*/
FoamFile
{
    version     2.0;
    format      ascii;
    class       volScalarField;
    location    "0.002";
    object      internalEMean;
}
// * * * * * * * * * * * * * * * * * * * * * * * * * * * * * * * * * * * * * //

dimensions      [1 -1 -2 0 0 0 0];

internalField   nonuniform List<scalar> 
2400
(
0.3179680925
0.3332745824
0.3459344113
0.2996705644
0.3128683316
0.3371094568
0.3417260714
0.3503866472
0.3502960996
0.3396004889
0.341415631
0.3018379088
0.3235539342
0.3235253717
0.3553301463
0.3177437025
0.2987306834
0.3406042263
0.3380700627
0.3395260558
0.369997795
0.3422309541
0.3112342417
0.3141186217
0.3271409346
0.3284574031
0.3225726321
0.3118154654
0.317780331
0.3236407463
0.3380381485
0.2885902593
0.3098858307
0.3036818655
0.3448577793
0.3257970658
0.3181386705
0.2954257355
0.3034005635
0.3053108624
0.3796894122
0.3644030103
0.33699863
0.3283729204
0.3163902238
0.2994387394
0.3076919136
0.3021734267
0.3084743449
0.3178485074
0.2916357894
0.2941067246
0.3214241759
0.3333452833
0.3354658966
0.2722378234
0.2737246675
0.2907666608
0.2682484337
0.291872018
0.3659293989
0.3423228916
0.3084519075
0.3393447467
0.3113783981
0.2934612531
0.2687707022
0.2832093788
0.3252297395
0.3085663129
0.3009371967
0.3215235994
0.3271490072
0.3337244382
0.3031559227
0.329444903
0.2896882373
0.3317425452
0.2941986335
0.3005051255
0.3566476668
0.2977310718
0.314586696
0.2921704345
0.326514717
0.282123506
0.3004473438
0.2883204044
0.2972272354
0.2929148757
0.3087143886
0.3058125044
0.3064605942
0.3390669445
0.3216782996
0.3105087324
0.3015185947
0.2824574464
0.3121611687
0.2795701185
0.3361238123
0.2927597906
0.2926412682
0.3185184978
0.2999107034
0.2934505511
0.2812372762
0.2836483553
0.3074290793
0.2704898782
0.2814397076
0.2901744853
0.2903251571
0.3030422822
0.2817921702
0.3077314064
0.2914033565
0.2869328321
0.27363556
0.2944745045
0.3104935914
0.2949071681
0.3115023033
0.3346584853
0.2823072348
0.297967141
0.3121257733
0.3036659047
0.3167340249
0.2765722557
0.2703700376
0.3032353093
0.2893325535
0.3118164532
0.2831629364
0.2638298887
0.2898098782
0.2771512035
0.2530145014
0.2877256434
0.305838684
0.3165367803
0.3169054039
0.3191876929
0.2849238408
0.2960043891
0.2916586455
0.2898894193
0.3050795035
0.2822721701
0.2822249251
0.302578865
0.3214049467
0.2681696549
0.2692447132
0.2699217329
0.2583902908
0.2900978205
0.2810585519
0.2874120101
0.3000470673
0.340601764
0.3032309085
0.3224415593
0.3091539107
0.3187211532
0.3045772443
0.290735676
0.3073535754
0.29115268
0.29742497
0.298332395
0.2967425241
0.2563941768
0.2686379824
0.2895294882
0.2440406059
0.2622171739
0.2646670649
0.2895519894
0.278579247
0.2941235965
0.2897974411
0.3069114555
0.2907073866
0.2949401992
0.2748902975
0.3175301273
0.2915616971
0.2988854167
0.307613104
0.2947217247
0.2875716334
0.2841131654
0.2717102661
0.2928561973
0.2826810458
0.2830190169
0.2974826104
0.2793760452
0.2979793423
0.2881385876
0.2812250504
0.3047895189
0.2903495024
0.2698882893
0.2752179791
0.2892773929
0.2873381215
0.2981472481
0.294289517
0.3130377044
0.2882069661
0.2916398342
0.2877937482
0.3016185113
0.2648880223
0.3043365362
0.2978318029
0.2895002656
0.2855723665
0.2678295993
0.2970456645
0.3099865412
0.27717556
0.2525627574
0.3017082115
0.3079666466
0.3366217156
0.3132153227
0.2976001889
0.3043365947
0.2766685741
0.3110489604
0.3020636006
0.2902901134
0.2651991508
0.2880084086
0.302757552
0.3155748511
0.318112919
0.302337707
0.2987147606
0.2764860689
0.254686277
0.2776921562
0.2878932437
0.3297289645
0.3030429371
0.2883827541
0.3280066225
0.2945805812
0.2663426487
0.2605313775
0.2744395764
0.2550958498
0.2733141288
0.2637992661
0.2764053607
0.3030644181
0.3188972961
0.3195695493
0.2830087861
0.2771334476
0.2820065434
0.2820046855
0.2724818397
0.2868667093
0.2753795963
0.2879825781
0.2739763223
0.3084559374
0.3169649819
0.2674067893
0.2850511665
0.2579422002
0.2716404693
0.2565212173
0.3100300319
0.3233927401
0.2860236718
0.2947636147
0.2767830237
0.2852107998
0.283931916
0.2633008219
0.246156877
0.2871784592
0.2746852081
0.272988529
0.3101369123
0.2996255152
0.3132173692
0.2858228573
0.2762682512
0.265006755
0.3035354101
0.2818744214
0.3475651854
0.286200734
0.3417310363
0.327817132
0.235170812
0.2716943111
0.2904819357
0.2662949267
0.2801432774
0.2789826662
0.3072849779
0.2931606547
0.2788376966
0.2954445227
0.2913072141
0.3190032586
0.2838742217
0.3031245047
0.2807278412
0.3050151605
0.3109432635
0.2996399899
0.3138291854
0.277894172
0.2876093471
0.2916096641
0.2843321071
0.2751715816
0.2709456514
0.286474051
0.2725044943
0.2763150998
0.2676937522
0.3063049467
0.2710297974
0.2901785719
0.2613812428
0.2836359665
0.2886472325
0.3089825326
0.2919132532
0.3031916145
0.2976876118
0.2886182863
0.2966006814
0.2815412826
0.3242097236
0.3053015622
0.2649239237
0.281966389
0.2720809224
0.2972204005
0.2854678013
0.3012403995
0.2919171053
0.256930434
0.2798670878
0.2776572993
0.3002852961
0.2911838047
0.2806605027
0.3005427134
0.3052367781
0.2838951568
0.2860282762
0.2879354027
0.306227278
0.2718171628
0.3024103033
0.3007146228
0.27932663
0.2715501771
0.2968983344
0.2859757204
0.2957832512
0.28115505
0.2746737365
0.2998313034
0.2877466612
0.2783910969
0.2693687965
0.2647385078
0.2891679273
0.2765057158
0.258981593
0.2802400843
0.2669624691
0.2997414759
0.2877051938
0.3225729387
0.2775238059
0.2542045289
0.2748387564
0.2736898013
0.2753766084
0.270692199
0.2671636922
0.2660024267
0.2995107559
0.294851996
0.2798100479
0.2951586386
0.2941272956
0.3023107094
0.2953393435
0.2858182985
0.3073532052
0.2902430526
0.3025971824
0.2825364447
0.3028210238
0.2752373162
0.2621272748
0.2725197652
0.3197579346
0.274495158
0.2753042476
0.2640356484
0.2824336885
0.2644908275
0.2627141185
0.2759961805
0.2812192226
0.3099295976
0.3225580353
0.2885276083
0.3066844925
0.2817182333
0.2908349266
0.2799596873
0.2879236445
0.2651249678
0.2634206053
0.2736879614
0.2819023775
0.2735889871
0.2858367275
0.2957710846
0.2882744998
0.2646461602
0.2637365587
0.2746253325
0.2836179709
0.2866381887
0.3129767745
0.2922086799
0.3096966289
0.2830336318
0.257115714
0.3096119269
0.298174491
0.2799509149
0.2771175754
0.3035148855
0.3087918994
0.2911438128
0.2986735254
0.2860145376
0.2781269115
0.2783246451
0.2808231152
0.2650407439
0.3260408896
0.2979758426
0.3280435265
0.3137879662
0.2981847035
0.3144003842
0.3317939809
0.2948635953
0.2878652721
0.2762934292
0.2921542595
0.2665767521
0.3258874108
0.3474792333
0.2981209444
0.2967718998
0.2812684607
0.3031336615
0.2926086534
0.2830664733
0.3260260414
0.3468344621
0.3180280323
0.2894885203
0.3026759744
0.3201967951
0.3250653179
0.3035721949
0.3069731536
0.2885991019
0.2855293062
0.2870836607
0.2904470507
0.3202244833
0.3124793924
0.2841398419
0.277765816
0.2785124809
0.2829739263
0.3173100008
0.3493353879
0.3246946932
0.2818464725
0.2474497338
0.2403910264
0.3057133939
0.2901966444
0.2659218888
0.2682589009
0.2964268202
0.2794604816
0.3073380769
0.2965386978
0.2751999227
0.2692432755
0.2728825534
0.2870890294
0.275690831
0.2920988697
0.3069502327
0.3514212191
0.3110518425
0.2670480711
0.276189466
0.2727625514
0.2588874006
0.2810378042
0.3147348477
0.2976481995
0.2628804298
0.3001467
0.2855521864
0.2846835817
0.3041634198
0.2912614692
0.2857084299
0.2870921437
0.3056773423
0.2771576285
0.3239142542
0.2994022436
0.3309331811
0.3031417599
0.2893695266
0.3108845383
0.3195737498
0.2986885964
0.3015167912
0.295125088
0.2784192249
0.2915455667
0.2976428963
0.3089785084
0.3178447957
0.2851231694
0.3041146713
0.2994970026
0.2842828461
0.2827177076
0.3395777451
0.3080921978
0.3066855765
0.3263384696
0.3090314374
0.2846403059
0.301963782
0.3000561444
0.2896459424
0.3015152453
0.2941538011
0.2980418901
0.2997164962
0.2703337384
0.3265624832
0.3184817867
0.3071564876
0.3197938691
0.2954297837
0.3175536543
0.3019278646
0.3130798021
0.3304642275
0.2893105723
0.2984287322
0.3018441394
0.2752076463
0.3221876242
0.3225971596
0.3214754177
0.3096496391
0.3112944478
0.3117280264
0.2708267688
0.2829902059
0.3361411752
0.3170710484
0.3055921388
0.2894100881
0.2621604814
0.280392444
0.3206825943
0.2951547426
0.3131771998
0.2780360255
0.3128593538
0.3076646673
0.3252650396
0.2943355201
0.2919717893
0.2796584713
0.3055988874
0.3004707997
0.2907014436
0.2813768679
0.3184774531
0.2782341683
0.2983892322
0.28315571
0.2649724256
0.2931367917
0.2808466681
0.3365984596
0.3341128118
0.2962701823
0.3195549155
0.28552019
0.3193778778
0.299005612
0.2743868936
0.2866484091
0.3115198534
0.2810318625
0.2929259243
0.2934017597
0.3289404235
0.310695867
0.311793576
0.3207154093
0.2970894474
0.293938635
0.2876565788
0.3049836748
0.2983986901
0.3015716145
0.3063039089
0.271688618
0.2996908015
0.303027263
0.2856448518
0.3199507482
0.2885536856
0.3111912911
0.3179890423
0.299270945
0.3296012358
0.3065278395
0.3090165823
0.306611013
0.302286642
0.2805027644
0.2768208498
0.3031573395
0.3354906441
0.3256249625
0.2709214382
0.3121937921
0.3053656111
0.2777910443
0.2979534872
0.2980185555
0.3246138157
0.2969289125
0.3020780714
0.3177217675
0.3051978132
0.3090407113
0.2891658088
0.305336998
0.3026252185
0.3021923206
0.3148300211
0.3407412638
0.317669857
0.303489643
0.2802135737
0.2962023249
0.3136688132
0.3100552156
0.3048565081
0.3024673231
0.3001239109
0.306384315
0.299883174
0.289504811
0.3043909715
0.28003632
0.3032555071
0.3110903421
0.2976045761
0.2968885426
0.3391321033
0.3589146152
0.3634045175
0.3134811275
0.3125696162
0.3378382936
0.3035076556
0.3121535674
0.3268495741
0.3173034476
0.2864925429
0.3011952413
0.3251510133
0.3317244257
0.3083177024
0.3135444568
0.3552812777
0.3177092042
0.2838140407
0.2903157462
0.329711857
0.3451243992
0.3317540842
0.312458312
0.3297714238
0.2954999951
0.3101451135
0.3341592472
0.2928111436
0.3169839185
0.3191438215
0.3330746757
0.3490189652
0.3302429286
0.3168657249
0.3029890293
0.3017276842
0.3138985109
0.3135621666
0.31973771
0.3325167535
0.3549973694
0.3199007814
0.3013820206
0.3360275266
0.3189340018
0.3183487739
0.3126760857
0.3102961647
0.3073009453
0.2858522418
0.3119503684
0.3234841884
0.3237883327
0.3412708105
0.2937387039
0.3116814761
0.3260898646
0.2929924293
0.2907827027
0.3724559623
0.3416911725
0.3275756005
0.3056909513
0.3190755297
0.3536649026
0.3497051891
0.3329354933
0.3316273578
0.3374387717
0.3415779671
0.3263595974
0.331590263
0.3026550711
0.3185940979
0.3179302901
0.2977999835
0.3291832466
0.3404649766
0.3276766733
0.3599349079
0.4030844402
0.3568329177
0.3347194747
0.3217310917
0.3409943163
0.340112895
0.3501607257
0.3369214445
0.3390771977
0.3535744828
0.3343465306
0.3227567415
0.3104543435
0.3111693486
0.3201143713
0.2903371852
0.3199065356
0.3293324652
0.2962778068
0.3139143847
0.2918623832
0.3430921171
0.347152203
0.3870733711
0.3691117814
0.3745629975
0.4082220342
0.3924864698
0.400022791
0.415771407
0.4368868152
0.4446497478
0.4735218818
0.488788997
0.4874989566
0.4638791699
0.4938549707
0.5069694059
0.4783578178
0.4768285864
0.5152323922
0.5008496121
0.499058493
0.5519968535
0.5285482793
0.5233719239
0.5558514901
0.5338581271
0.5580209532
0.5578352055
0.515563681
0.5685814717
0.584293259
0.592882492
0.5375591102
0.5507769166
0.6243473103
0.6508158766
0.6729176289
0.2985487253
0.3066322492
0.3095625388
0.3067026126
0.3279982451
0.3533896056
0.3548981158
0.4177329225
0.3948212993
0.3725945009
0.4093893888
0.4117284593
0.4445442513
0.4401512789
0.3970248057
0.4328248906
0.4632356737
0.4684406403
0.4629631396
0.4451681409
0.4800286707
0.5334364318
0.5381278642
0.4785348196
0.5090991942
0.4911233633
0.4779091013
0.5613708746
0.5163994817
0.5014602369
0.5801824889
0.5359550493
0.571178958
0.5811622488
0.5541255666
0.6185826748
0.5843636263
0.5511941406
0.5733022453
0.6221765235
0.3034707747
0.2858908336
0.3121072763
0.3077328496
0.347668045
0.3436537106
0.340042772
0.3376270067
0.3494647869
0.3836531909
0.3879403948
0.4035232289
0.3942014154
0.4447446105
0.4798239287
0.4338817563
0.4833832969
0.466331192
0.4578261978
0.4680602228
0.4639964752
0.4894660895
0.5123551266
0.4532747885
0.431700627
0.5062094068
0.5199127116
0.4877051477
0.5162815887
0.4954398308
0.5204668491
0.5444642595
0.5220275117
0.5619618332
0.5256596967
0.5380822848
0.5631155018
0.5767458268
0.5845405297
0.4965748326
0.290196537
0.2857011045
0.3281041473
0.2813183404
0.3085090182
0.333803325
0.3462542523
0.3403472468
0.3587354176
0.3954700411
0.420154717
0.3829026213
0.4098451318
0.433671138
0.4078648858
0.4248542523
0.4647111194
0.4449058994
0.4257101088
0.4311139716
0.4384788096
0.4613620509
0.4625500538
0.4567849297
0.4971546562
0.5294992259
0.5122405752
0.525145746
0.5304707936
0.4996910286
0.4804784775
0.5202269709
0.5476511829
0.5230636606
0.532150038
0.5781768222
0.5705885964
0.5777117393
0.5713805649
0.5540962877
0.2711659785
0.2934395487
0.3195875999
0.3319563441
0.3092202331
0.2949271376
0.3277320951
0.3624061367
0.35799349
0.364898251
0.3889468681
0.3427067114
0.3817048932
0.3766646392
0.3856250398
0.4047438112
0.4553871464
0.4369973945
0.4111101968
0.4328692517
0.4440217612
0.4660745281
0.4666318484
0.4420853301
0.4493717146
0.463851438
0.4807104603
0.5506467262
0.5023803979
0.4880980111
0.5003901143
0.4665680475
0.4855569883
0.521446946
0.5749631658
0.5577111403
0.5150722815
0.5416745793
0.5207882949
0.5799750576
0.3135450917
0.3045254146
0.3346972201
0.3169042053
0.3040598267
0.3037055238
0.3113896092
0.3253567412
0.3184381154
0.3229513787
0.3412776103
0.3440776043
0.3507127143
0.365626185
0.3816196503
0.3895873947
0.3681038341
0.392990557
0.4109674572
0.3969091289
0.3882330475
0.3701116702
0.4581201259
0.4485123005
0.4265307803
0.4473108371
0.4928147177
0.4959618807
0.4927234674
0.4742792601
0.4835136108
0.4721253709
0.4637949507
0.4972122652
0.510483355
0.5094052163
0.5458218962
0.5627123524
0.5592064459
0.5314366503
0.3104648297
0.3013015219
0.3047121405
0.3322664081
0.2794623142
0.2965568587
0.2861565161
0.3099826584
0.3089490118
0.3278831695
0.3476000128
0.3583122221
0.3826799553
0.3784322532
0.3977261763
0.3908058831
0.3798439361
0.3581570334
0.3956390639
0.4071497296
0.4137164986
0.3801773606
0.417330218
0.4551495015
0.4496775666
0.461694923
0.4505679498
0.4769175612
0.4698773365
0.4503599744
0.4613288301
0.5066485695
0.4630362259
0.4758466383
0.4956747009
0.4452048765
0.5207545876
0.5052726142
0.5139170001
0.5293487858
0.3136571283
0.3091606061
0.2989821075
0.2903623432
0.2629946967
0.2634827117
0.2945401279
0.3227405143
0.3295874556
0.3196343855
0.3243892111
0.3032990777
0.3659442531
0.3360743551
0.3631656042
0.3549767571
0.3716534163
0.3468137003
0.35720182
0.4246622849
0.4103909085
0.4048949035
0.41227732
0.4190472153
0.4439480643
0.3777652428
0.4210337584
0.4141872787
0.4510750761
0.3913352635
0.4332307177
0.5046722786
0.4681961177
0.4988485567
0.4939334005
0.4893395182
0.4884058179
0.4827400324
0.487897571
0.5481994603
0.3043687814
0.3175644262
0.3136336246
0.3275689762
0.3078031266
0.298823163
0.3258057051
0.313832278
0.3155417549
0.3268254936
0.3334156083
0.2850874984
0.348561025
0.3496548809
0.3462725329
0.3274777621
0.3977625344
0.3914021838
0.3317518394
0.3430589223
0.3816567838
0.371837321
0.3932312709
0.3912465963
0.428270506
0.3730047168
0.3944585918
0.3789727307
0.4043850961
0.4393920121
0.425526347
0.4754003315
0.4627605818
0.4826831234
0.4861200347
0.4937080332
0.4900107283
0.5226334933
0.5332410164
0.5328682057
0.3203033398
0.3345318072
0.2939995008
0.2983064754
0.3037486102
0.2651288584
0.2995813322
0.3074385049
0.2830399477
0.3322922768
0.3230874898
0.2926130316
0.3230138369
0.3440824863
0.3413135262
0.3266215857
0.3352209495
0.3606687035
0.3119038215
0.4027040109
0.360462258
0.3981798083
0.3663566563
0.3742285806
0.4080643053
0.4160981058
0.4085704895
0.3741854084
0.4063333367
0.4335967265
0.4400976021
0.459040281
0.5118970565
0.4630500356
0.4929776023
0.5200805439
0.4702489454
0.4975536877
0.5490867567
0.5477385528
0.305349212
0.3264677653
0.2603961153
0.2829826369
0.3384313608
0.2883051241
0.2938143992
0.2706429452
0.3071359465
0.2841543982
0.3027948429
0.3248177553
0.3534343245
0.3221968806
0.3255506482
0.3372494058
0.3647658226
0.3602693818
0.3515077291
0.4056145299
0.3335195106
0.3890288869
0.3818366657
0.349279289
0.3918718107
0.3897500699
0.4038645224
0.3797245013
0.3824255143
0.4181830402
0.3966910859
0.4363718231
0.4379286746
0.4492635261
0.4526856082
0.4932591602
0.4943471586
0.4858111283
0.5087870854
0.6051081342
0.3309126259
0.3320678535
0.2968117382
0.2881491661
0.2966245016
0.2804564483
0.3059517211
0.2986325978
0.318280114
0.2762685226
0.3076686966
0.3010538585
0.3309819313
0.2950649259
0.3238023396
0.3362925328
0.3140215641
0.327833227
0.3554965251
0.3624035363
0.3423172279
0.374554934
0.3473689032
0.3164725671
0.3561528131
0.3904868275
0.4128951729
0.3856035956
0.3917490732
0.4280097996
0.373321155
0.3773813915
0.3947761607
0.4165334759
0.4467000581
0.4786460103
0.5173376243
0.4394420963
0.4647996348
0.5928787419
0.32741634
0.317176663
0.2979545807
0.2947680334
0.3359077545
0.3035138591
0.3014825578
0.2999300334
0.285222798
0.2937519935
0.294235875
0.3212746508
0.3139580627
0.3170318809
0.2951535981
0.2950305449
0.3229633205
0.3143918442
0.3361757542
0.3437834841
0.3337061598
0.3460119354
0.3268149314
0.3430354518
0.3478931156
0.3626756385
0.3494876619
0.3638541022
0.3731300149
0.4102913319
0.3847932318
0.3643180155
0.3897132779
0.4007357009
0.4429347699
0.4501488751
0.4510348984
0.4748859213
0.4580992012
0.5305139765
0.3052322953
0.3212558282
0.2872356509
0.3055189438
0.2950579252
0.2975784366
0.3312736726
0.3212740058
0.2936042634
0.3062797489
0.3451601525
0.3242572977
0.3173894254
0.3069825556
0.3374761232
0.3112972521
0.3215458162
0.341295077
0.344814032
0.3409456214
0.3218401716
0.3181938429
0.3217976544
0.3435077426
0.3306417843
0.3640789654
0.3880788175
0.3718030132
0.3662681417
0.3978584162
0.3731529207
0.3690284609
0.3751951235
0.3890405436
0.4408282928
0.4283725271
0.4089259524
0.4533958729
0.4082727866
0.5022949686
0.2793897728
0.2788995013
0.3006130062
0.2829756293
0.2977485455
0.2998839636
0.3098052852
0.3252334994
0.2757700963
0.305278288
0.3294242323
0.3466473682
0.3289186067
0.3173223877
0.2954824835
0.3293688495
0.3410351217
0.3322095373
0.3144475506
0.3522975782
0.3150138975
0.3307566596
0.3337915921
0.33045714
0.3489576186
0.3498332604
0.397822938
0.3967106868
0.3286009928
0.4081218778
0.3942287195
0.3842860169
0.3899760472
0.3786139565
0.4175965721
0.4301690104
0.4228413575
0.4254394752
0.4002514079
0.4779390743
0.2867597367
0.3075263075
0.3474460635
0.2911992689
0.2933470953
0.29689574
0.297520091
0.3086336581
0.2863869833
0.3095093127
0.3179660009
0.2934108377
0.3163035941
0.2866442764
0.2742779973
0.2868780789
0.2901939115
0.3110705668
0.3503323318
0.3433593041
0.3372753418
0.322494943
0.3283229502
0.357530735
0.3473302494
0.3224608095
0.3721570341
0.3982674958
0.3492905436
0.3473126094
0.3735931585
0.3665116552
0.3744050863
0.3732971431
0.3596932689
0.4131772184
0.4430164687
0.4241822632
0.4092358073
0.4619266343
0.2880291647
0.3106520078
0.32084796
0.2949029572
0.2945974175
0.2812093831
0.3021369979
0.3318302181
0.3108078973
0.2873388345
0.2976948241
0.2868582907
0.3258132995
0.3218402251
0.2870168262
0.3098170959
0.3275319939
0.3776331756
0.3200512186
0.3504328401
0.3561605282
0.3566729368
0.310649303
0.3469140287
0.3293336226
0.3201051845
0.3428305238
0.3815974163
0.3551016332
0.3555114314
0.3419655336
0.3817134405
0.3640280432
0.4171173656
0.4232415599
0.4217438524
0.428569367
0.4396639983
0.4559937734
0.4723456025
0.2680967634
0.3040158338
0.3305295487
0.3379661189
0.3242780885
0.2941465875
0.2748843897
0.2941231104
0.3041794663
0.3069062258
0.3142754145
0.3590552322
0.308016527
0.3052205109
0.3832633962
0.2872493074
0.3393535026
0.3556371991
0.3389905485
0.3593783431
0.3504203404
0.3178550525
0.3214399031
0.3395012467
0.3554390556
0.3144742272
0.3809954903
0.3635906133
0.360776203
0.3896273899
0.3589961335
0.3623818855
0.3573649631
0.4098882147
0.4035221137
0.4046223963
0.3613950609
0.4071212535
0.4475812885
0.4639627934
0.298084235
0.3066965369
0.3393404239
0.3407809831
0.3322254831
0.3103930148
0.3009214582
0.2602057854
0.272204387
0.2655449689
0.3223034697
0.3205919094
0.3404935554
0.3323948065
0.3602947823
0.3320574455
0.3022626622
0.3270868918
0.3779423756
0.3380976632
0.3203974627
0.3437369469
0.3384863051
0.3634743146
0.3591019405
0.3552666657
0.3955577049
0.3319231098
0.3822755642
0.3889597331
0.3398445764
0.3573669636
0.3995381422
0.3873943937
0.3933655532
0.3954978595
0.3681224175
0.4076455781
0.4153431536
0.462640036
0.2894694134
0.2895951712
0.3224634787
0.3053715758
0.2913076231
0.3322554631
0.3016016545
0.2961081369
0.297013191
0.2848637755
0.3077303361
0.3352694388
0.3252325518
0.3289044821
0.372061494
0.3526266217
0.3233985736
0.3276467063
0.3111323057
0.3481910182
0.3289304853
0.3281045943
0.342329136
0.3582441495
0.3716566367
0.3429755934
0.3377946033
0.3679027045
0.3641039475
0.3853314542
0.3959482791
0.3551326703
0.3701677753
0.3902602742
0.3681095068
0.3884467736
0.3928696242
0.414967142
0.3902512544
0.4242512024
0.2850267487
0.285549012
0.3051641432
0.3084394561
0.3075637753
0.2608151293
0.2707645714
0.2974891922
0.3065861319
0.2756928674
0.2861416097
0.2820487758
0.3259128458
0.3499025438
0.3659668883
0.3708287355
0.3165005311
0.3246419109
0.3271292484
0.3249295837
0.3481239568
0.3358258464
0.3634485221
0.3713407825
0.3549876517
0.330658243
0.3385822405
0.3695174895
0.3483690893
0.3183751421
0.3747049342
0.3969950641
0.3533673292
0.3632937054
0.4071293828
0.3760407757
0.3962379667
0.4406050468
0.4189975125
0.4524234801
0.2884732248
0.2918757556
0.3197850074
0.3051263326
0.3115398138
0.2687699626
0.2790475579
0.2834701813
0.2693232272
0.3260811647
0.3198870979
0.2850599801
0.3378949375
0.346001941
0.3035407625
0.3229803487
0.314663792
0.3089414568
0.3479580471
0.3556953355
0.3494257087
0.3450081216
0.3487541258
0.3169140311
0.3301288514
0.3493525492
0.339404479
0.3462135214
0.3284888367
0.3126221404
0.354151025
0.3799893485
0.3521136739
0.3614824444
0.3750568105
0.3657439047
0.3970333839
0.4322355344
0.4106243556
0.4640538961
0.2812111372
0.2912155319
0.2921420551
0.3334746657
0.3099524441
0.3039531896
0.2680485219
0.2879550744
0.3244578526
0.2934097535
0.2714228662
0.2950079725
0.3056714926
0.3396474915
0.3031147989
0.3128684245
0.3348841271
0.3389868221
0.3062780095
0.3052770519
0.3312706168
0.3412658777
0.3427764031
0.351578231
0.3347960654
0.346037292
0.325938857
0.3686241228
0.3481303568
0.3294558187
0.3747940054
0.4093478314
0.3597066161
0.3555651993
0.3720988337
0.4113713828
0.4025251921
0.4395035205
0.4278253104
0.4987674939
0.2734086527
0.2863662341
0.2946196804
0.2932055215
0.3376185419
0.292946142
0.2825106114
0.2928273539
0.3236903077
0.2792085498
0.2785055355
0.3195318631
0.32888542
0.320593606
0.3048052746
0.3112026411
0.3198110115
0.3176094481
0.3098164529
0.3227301409
0.3254613671
0.3355760268
0.338366359
0.3200441435
0.3337040061
0.3171867702
0.3472694677
0.3428320304
0.333172971
0.3449120189
0.37376494
0.3775041815
0.3626109312
0.3579495093
0.3668425948
0.4233511654
0.3934587494
0.4516041961
0.4140922834
0.4820239946
0.3209220162
0.2783768882
0.3086164635
0.3238386353
0.3098145946
0.3249263183
0.3238625151
0.3094634932
0.3073951031
0.3025185828
0.3113319597
0.344644178
0.3502282622
0.3815051364
0.324886957
0.3056272785
0.2894462748
0.2958641577
0.2931187255
0.2935769471
0.3082509022
0.3214345131
0.364784675
0.3382525994
0.3363553024
0.2998246706
0.3409815081
0.3682375532
0.382819815
0.3893186164
0.3465158097
0.3830007378
0.3892305661
0.3679705364
0.3858571624
0.3633832499
0.4390547747
0.426467085
0.4335189798
0.4597858403
0.3255642692
0.3174349191
0.2800085221
0.2930293679
0.2711802512
0.3197250411
0.3051761341
0.2824145863
0.2757780303
0.2983939029
0.3068390022
0.323466095
0.3207385071
0.3303903768
0.3309542119
0.3216881071
0.3273023677
0.2963030577
0.3220088726
0.2999309274
0.3084894938
0.330445479
0.3394863579
0.3340905611
0.4009525696
0.3417204506
0.3182831535
0.3319331656
0.34069797
0.3957149073
0.3602812725
0.4183074393
0.4013960199
0.3819528029
0.3632379245
0.4008936426
0.4056901816
0.4025240306
0.4457387619
0.4203300211
0.2578640127
0.3024988583
0.2691175752
0.2801546231
0.2776963787
0.3071839794
0.286927834
0.2402140347
0.2849699554
0.2828701661
0.2985431295
0.3177307821
0.3039262766
0.3149465256
0.3243837819
0.3039745023
0.3154584175
0.3228847633
0.298883279
0.325785567
0.3119908485
0.2968916696
0.317041826
0.3683282184
0.3318955658
0.3320640544
0.3082091614
0.3286860109
0.3868012826
0.3752831428
0.3784992036
0.4071934865
0.3996023939
0.3751563264
0.4118618046
0.3707192225
0.4189300888
0.402855816
0.4259912242
0.4661211625
0.284093002
0.2819673761
0.2738006324
0.3055674393
0.3257608849
0.3088594224
0.2952817701
0.2996078755
0.2926342227
0.2787816981
0.2922906456
0.3146717026
0.2852275433
0.3260291561
0.317564541
0.3351100346
0.3128410771
0.2835590072
0.3245306495
0.2749912314
0.3143788906
0.3398599144
0.3606390165
0.3408092886
0.3067529195
0.3109106405
0.3219259398
0.3144796278
0.3609693713
0.3856919949
0.3970670864
0.4046616572
0.3612250585
0.3758303928
0.3694576416
0.3719003117
0.4151999939
0.4262949767
0.4202108244
0.4302223776
0.3046772961
0.2769270179
0.2944520922
0.2981072789
0.3000102885
0.3143550865
0.2951118895
0.2926697212
0.3135795163
0.3299746411
0.3163484836
0.3414396803
0.297832405
0.3596391111
0.3569576529
0.3195897294
0.3151346878
0.2969325359
0.3231395933
0.3234542925
0.3136776534
0.3057481403
0.3255535874
0.3282305049
0.3275436394
0.3563958448
0.323193188
0.3286052773
0.349462941
0.3856736366
0.4063112395
0.378584407
0.3847834568
0.3592803706
0.379755276
0.3804829696
0.4368242438
0.4054308796
0.4661513467
0.4618679804
0.2869059801
0.280654102
0.2902676217
0.2856705609
0.3105181882
0.3024478009
0.3053299886
0.2893317508
0.3171698713
0.3501405032
0.3285601117
0.3553645005
0.3112101334
0.3072918007
0.3669769162
0.3407930082
0.3274699906
0.3389937193
0.3749126234
0.3054454533
0.2924186331
0.3162068186
0.3020845432
0.311920478
0.3428468881
0.3472728174
0.3309171036
0.3710767128
0.3456029523
0.3615578986
0.3989502498
0.3765659362
0.348204452
0.3578179273
0.3656877804
0.4138096855
0.4538070192
0.4258171843
0.4369473565
0.44984847
0.2607362475
0.2864513668
0.2881875902
0.3142423256
0.2963660491
0.2948870935
0.28642385
0.3074886923
0.3254510192
0.3555881691
0.311985344
0.3503321718
0.2682012223
0.3041371468
0.3497209363
0.3176235474
0.3095536802
0.320578165
0.2948750638
0.3092312184
0.3106136872
0.3335161519
0.3138182495
0.3213438367
0.3550894231
0.3517865092
0.3366209934
0.356009665
0.368749021
0.3678862971
0.3579966984
0.3704384333
0.3665211816
0.3623700763
0.3518657013
0.4057430622
0.4187361656
0.4476716677
0.4526636734
0.4591422576
0.2494323758
0.2933022534
0.3094104448
0.3120070795
0.31977293
0.2753550306
0.2843296092
0.3070193659
0.3554402947
0.3427895132
0.3345463215
0.3011659794
0.2949476604
0.3024982804
0.3137818567
0.3224210317
0.3205871175
0.296168659
0.2955724117
0.3209174586
0.2949563175
0.3202309953
0.3489269085
0.3158693692
0.326699991
0.3366189139
0.3295906485
0.3383880083
0.3703538293
0.3407048972
0.3994672293
0.3556248969
0.4036976108
0.3793421774
0.3597860699
0.3787513086
0.4321703577
0.4174149533
0.4980455529
0.5005558267
0.2822918625
0.2915950729
0.2951573741
0.3017708846
0.3042143463
0.2561463504
0.3062349235
0.2978186889
0.3349508417
0.3403894664
0.3321553119
0.2704698579
0.2980998013
0.2978645787
0.3250821057
0.3410208027
0.3134584101
0.3195616928
0.3143166607
0.3029218669
0.2869842894
0.29097327
0.2900193468
0.3147130345
0.3513017388
0.3550603929
0.3185175695
0.3279150924
0.3488961254
0.381949843
0.3990296466
0.3614652572
0.3713770009
0.3815983967
0.3540541041
0.3913443184
0.4261745248
0.4520801526
0.4786717781
0.4647086789
0.2873702517
0.3224458787
0.2898705786
0.2821509907
0.3073252194
0.2822391071
0.2996450099
0.326757598
0.3258865546
0.3311285773
0.3113869142
0.2822209602
0.3045947085
0.3025717336
0.2979248486
0.3181373593
0.3024556843
0.3185230061
0.3353367332
0.2955654639
0.3073523504
0.3061648762
0.3239921412
0.351512258
0.3257842512
0.326351219
0.3279790857
0.3386591791
0.357221108
0.3822110736
0.3626007545
0.3355111203
0.3789678603
0.3753479631
0.3816689662
0.4204938975
0.4259543674
0.43120162
0.4519668691
0.4361166424
0.2724348799
0.289356229
0.3041143007
0.2902559107
0.3053693052
0.3194209744
0.3338128593
0.309825405
0.3486062377
0.3414926879
0.3511213204
0.3135309342
0.3607400217
0.3157405278
0.2870866995
0.2951502377
0.3221992275
0.3239954725
0.3044292787
0.3439976392
0.3233670464
0.3526798232
0.3662292568
0.344082066
0.3251652642
0.3015516224
0.3102739575
0.3125524401
0.360033916
0.3593706963
0.3769314078
0.3472266896
0.4200476595
0.438070703
0.4401976399
0.3968821079
0.4239727961
0.4009119276
0.4460475562
0.4352850611
0.2611008529
0.2917726815
0.3029427534
0.2906885694
0.2812033628
0.3173845671
0.30657725
0.3112988335
0.3209200133
0.3814107948
0.3696474233
0.3510047532
0.3636827727
0.3481137979
0.3306328181
0.3216774005
0.3179718244
0.3022368836
0.3242355817
0.3228328103
0.3117545658
0.3189375008
0.3456974843
0.3399221677
0.3067302867
0.3138364144
0.2880445991
0.3257141696
0.3641821818
0.3822533039
0.3627816433
0.3513859687
0.3612879939
0.3865032301
0.3982309067
0.3984933613
0.4368414051
0.4695839726
0.4589582441
0.4713918401
0.2984342857
0.3147760366
0.3027327438
0.3129167402
0.2914037494
0.2925043043
0.3013324408
0.328511707
0.3261868206
0.3820290553
0.3722557695
0.3423379753
0.3322526925
0.3253581802
0.3325118921
0.3210101851
0.3407435241
0.3486708188
0.3474007206
0.3226333514
0.3409529436
0.350009157
0.3179428584
0.3110917469
0.299316729
0.3618111558
0.3633420912
0.3447628283
0.3691706857
0.3673212346
0.3772208506
0.3528959207