/*--------------------------------*- C++ -*----------------------------------*\
  =========                 |
  \\      /  F ield         | OpenFOAM: The Open Source CFD Toolbox
   \\    /   O peration     | Website:  https://openfoam.org
    \\  /    A nd           | Version:  7
     \\/     M anipulation  |
\*---------------------------------------------------------------------------*/
FoamFile
{
    version     2.0;
    format      ascii;
    class       volScalarField;
    location    "0.002";
    object      linearKEMean;
}
// * * * * * * * * * * * * * * * * * * * * * * * * * * * * * * * * * * * * * //

dimensions      [1 -1 -2 0 0 0 0];

internalField   nonuniform List<scalar> 
2400
(
0.4965409637
0.5018185239
0.5634292134
0.5322583305
0.5412926909
0.5701689086
0.557957494
0.5667638667
0.5625015614
0.5744567961
0.593307885
0.6094463083
0.6197756584
0.6246356548
0.6248110892
0.6040832232
0.6250084604
0.6396593269
0.6702727204
0.6844062171
0.5239162897
0.5176618952
0.5208865666
0.538489535
0.5555621356
0.5726536411
0.6193555842
0.6210042656
0.6083573119
0.6206792043
0.6519410282
0.6177859868
0.6759928395
0.6670522818
0.7215388794
0.6879307864
0.6946612524
0.6919699094
0.7295849428
0.7430101402
0.5058878023
0.521978436
0.5218731244
0.5481514793
0.5756655884
0.5832104995
0.5939542117
0.5954502853
0.6021953751
0.6449480459
0.6635057522
0.640464617
0.6843427388
0.6729690475
0.6993056613
0.6917772014
0.6751711799
0.6921992133
0.7111311884
0.7422996584
0.5167411554
0.4882790915
0.5230801348
0.5623072235
0.5210515993
0.5666447483
0.5480842856
0.5768986548
0.61180999
0.6106678739
0.6444705232
0.6535604408
0.6611514313
0.7111571808
0.7199138939
0.7552788773
0.720326689
0.8077555184
0.7932345294
0.7973933866
0.4801996703
0.4754271742
0.5258947582
0.5202476713
0.5674625615
0.5309552346
0.5386302493
0.5613930555
0.5886439182
0.5944686172
0.6054791258
0.616960145
0.6805061814
0.7075296113
0.7140694173
0.7004902561
0.738997273
0.7775340308
0.8160096735
0.8225422947
0.5128945955
0.4524236965
0.481078122
0.5111594942
0.5340649174
0.5267908008
0.5524656963
0.582940892
0.5907348113
0.5933374123
0.6392225394
0.6429812876
0.6621048308
0.7035454054
0.6557628092
0.6938752629
0.6862394761
0.7336091167
0.7722795325
0.7538897143
0.5121513275
0.4964766193
0.5347466144
0.554996729
0.5475746337
0.564679228
0.5642598575
0.5844541197
0.6013670817
0.6403567609
0.6523220844
0.656931725
0.6616850054
0.6674581745
0.7077360532
0.6543142741
0.7029321663
0.7039212333
0.7413120438
0.764878893
0.5395922282
0.5238452737
0.5513416614
0.5458609453
0.5240045614
0.5461201473
0.5389744439
0.5795258619
0.6115816499
0.6447067795
0.6405542404
0.6634963694
0.7046592184
0.6934156207
0.7211289434
0.6899189709
0.7263647846
0.7544060909
0.757365564
0.7560206066
0.4972919896
0.5018193928
0.535985666
0.5117235653
0.557485781
0.582258494
0.5742710397
0.5651907107
0.6064921825
0.6477145859
0.628763393
0.6775631438
0.6770290379
0.6877155179
0.6933288727
0.7092459288
0.7036320702
0.7217846615
0.7577119874
0.7623433697
0.4617695053
0.4896088991
0.4922819246
0.5090905342
0.5380229346
0.5711263877
0.5600240377
0.5888629987
0.6142483378
0.6177942115
0.633496827
0.6409599828
0.6782816229
0.6984936651
0.7000895683
0.745973464
0.7045780566
0.7232401908
0.7188032251
0.7489361279
0.4676799342
0.4672876151
0.4888724241
0.5135666458
0.5236008982
0.5457890135
0.5312639844
0.5867358299
0.5818158886
0.5849099905
0.6186904372
0.6661450487
0.6391868014
0.6902115236
0.7219329653
0.7205502472
0.706950421
0.7589386304
0.7786824763
0.7957300913
0.4628985612
0.4949746417
0.5080743074
0.5283851178
0.533365349
0.5337305879
0.6029673899
0.6073330262
0.6504101768
0.6484164361
0.6515593895
0.6718112833
0.6599838391
0.6902950973
0.6940379094
0.7547760674
0.7059093118
0.7278373803
0.7579856101
0.7782344474
0.4596502482
0.498491492
0.5229122014
0.5106296309
0.5269470082
0.5822124534
0.5918979258
0.6275439173
0.6754302405
0.6443144639
0.6831460161
0.6620790326
0.6857936176
0.7475282619
0.7661960509
0.7569558738
0.7557240791
0.7709561897
0.7705749948
0.8104951876
0.4527167476
0.5088998891
0.5062469411
0.5488143505
0.543764557
0.5567415538
0.5517272519
0.5972386311
0.610934337
0.6510236039
0.6438134041
0.6846919369
0.6868723372
0.6779523773
0.7411529113
0.7212573263
0.7233599463
0.7313853993
0.7680403558
0.7963655326
0.4877129129
0.5220416049
0.5307944694
0.53722446
0.5354130256
0.5499304345
0.5469107546
0.5914218763
0.5832001045
0.594396714
0.6376391151
0.6759635618
0.6617664839
0.6394268624
0.6458023554
0.6912355424
0.7361712297
0.7190801815
0.8229857195
0.8018326528
0.4948756272
0.5155144048
0.5113941752
0.5411009241
0.5472091905
0.5422694423
0.5537451279
0.5885480304
0.5841328735
0.6015167037
0.5879732268
0.6221992266
0.6468614794
0.7039303943
0.7137081683
0.7276122662
0.7215841056
0.7543128375
0.8236464011
0.8307591596
0.4944993075
0.4925283276
0.5181374034
0.5251877981
0.5184853037
0.5334026635
0.5672068014
0.5733208898
0.5838720906
0.6351930033
0.6328108266
0.6625774481
0.6326308806
0.7175278937
0.6575669945
0.6945820233
0.7735530917
0.8165483284
0.8203315456
0.832598438
0.4633462147
0.5071654934
0.5115750839
0.5382123311
0.5589148958
0.5532736839
0.5450158023
0.5819872711
0.5641735257
0.6272164304
0.6185108633
0.6743471011
0.6744934612
0.6670799424
0.7075251784
0.7295327074
0.7523839952
0.7638991512
0.7725322125
0.7968297807
0.4560354771
0.4875483941
0.4755496402
0.5050332467
0.4865686814
0.508374647
0.5405042735
0.6089686357
0.6098927433
0.6096147742
0.6382004762
0.6323007668
0.6551817804
0.6646360556
0.676552938
0.7427628058
0.7239377819
0.7667268038
0.7880613552
0.8300596687
0.4473873673
0.4468362902
0.446602847
0.5008962115
0.5085537953
0.5432836967
0.5568671276
0.5967436313
0.5941027231
0.6104004286
0.6261817091
0.6534259904
0.6573460368
0.6584002808
0.7094775215
0.7328515117
0.7736727327
0.7733044618
0.7713449073
0.8091961668
0.4521925833
0.4960215933
0.5046350834
0.495003934
0.5384572947
0.5375523241
0.5776514159
0.5825174242
0.5834990947
0.6055872318
0.6511397909
0.662378987
0.7366204198
0.7234711645
0.7718442834
0.7456086921
0.7898499159
0.7979888797
0.7997176884
0.8029323837
0.4737872957
0.5020379278
0.5125978631
0.4982175943
0.5266498721
0.5493048079
0.5923503316
0.6075060299
0.6259190227
0.6237336825
0.6690366234
0.6688997192
0.7110032712
0.7289323174
0.742558825
0.7106851751
0.7144052483
0.7521911775
0.7786533611
0.8051268429
0.4585712909
0.4838913835
0.5202766086
0.532337787
0.5416291282
0.5251777358
0.5514589056
0.5839930129
0.6314971325
0.5930920437
0.6286417083
0.6603287021
0.6638832915
0.6848456527
0.7220195912
0.7348403067
0.7418717395
0.739399367
0.8077937751
0.7803616867
0.4569543712
0.4745125277
0.4981373303
0.5106420243
0.5198832091
0.5488291277
0.5773554938
0.5637989379
0.5917266929
0.5952352109
0.6207976844
0.6529641794
0.6860502189
0.7008972988
0.7152132147
0.7541731134
0.7549333668
0.773625728
0.7878317249
0.787711071
0.4943961696
0.5193369481
0.485330524
0.5047268369
0.5117547591
0.5522436859
0.5889775005
0.5743750716
0.6169561252
0.6002181526
0.5897245615
0.6080457712
0.6612595539
0.6978545675
0.6691071146
0.7216811174
0.7311309536
0.7677754935
0.7879664775
0.7698712736
0.48340127
0.469958267
0.4757002917
0.5083060705
0.4921492603
0.5409140888
0.5732844112
0.5495656521
0.5783196971
0.617849771
0.6184986143
0.64375939
0.6637937745
0.6826896801
0.6985096173
0.7226201932
0.773652263
0.796038947
0.7940389179
0.8153169255
0.4856584652
0.4764856455
0.4866356073
0.5220380399
0.5319068595
0.5450169232
0.5803446903
0.6247841225
0.6214248713
0.5783648662
0.6326954045
0.6136733094
0.6475899426
0.6939281447
0.7247095088
0.7027676776
0.6926318466
0.7510536042
0.7410516144
0.7807912485
0.4552286184
0.5033254929
0.4846150084
0.535758319
0.5410123243
0.5780466549
0.6002879752
0.597852756
0.6005863772
0.6242817015
0.6288299407
0.6663497586
0.6813989481
0.6858085982
0.6955553507
0.7056393767
0.7391432651
0.7463577683
0.767809963
0.7919626501
0.4515434221
0.4672972463
0.5050928621
0.5239730743
0.5098327447
0.5652220204
0.5844668839
0.6160429041
0.6142148483
0.5944717804
0.6086061055
0.6739353435
0.6962722417
0.7225564413
0.7328978094
0.7564250581
0.7566900425
0.8015307476
0.809987652
0.8597599558
0.4819069002
0.4980119501
0.5002440534
0.5113544298
0.5328717841
0.5542288653
0.5790026968
0.5973149663
0.6143178146
0.6307340979
0.6570247176
0.6880430825
0.6795701961
0.6983456584
0.7473164977
0.8033208935
0.7755391649
0.800977097
0.7868821253
0.7940999796
0.4868877744
0.4549887239
0.503035653
0.4812070959
0.5392029472
0.5440034125
0.5658300921
0.5884571183
0.6013134095
0.6110730155
0.6553046347
0.6668474523
0.6818170575
0.6886883143
0.7267251662
0.7207612437
0.7139370175
0.7285967039
0.7790368648
0.7850909089
0.4959995218
0.5151362797
0.5742973465
0.5488127177
0.5822501384
0.5895108065
0.5974277241
0.5896337127
0.5944493822
0.6105044394
0.6532864436
0.6238592604
0.6659624386
0.7384451969
0.7596988317
0.7236341276
0.7136198248
0.7622580759
0.7687602737
0.7303635741
0.4773585324
0.4978461623
0.5100941055
0.5653380431
0.5734963309
0.523999389
0.5545731033
0.5805096218
0.5831704207
0.6178121131
0.6105230113
0.6577402116
0.6871248889
0.6764499553
0.7089254862
0.7067521034
0.6921308561
0.7422230748
0.7476771241
0.7696040934
0.4591105011
0.4930815175
0.5546793061
0.5575557121
0.5350268163
0.5822683072
0.5996538958
0.5935389323
0.6085453757
0.6166363148
0.6509818238
0.6180849499
0.6305137748
0.6879840993
0.6464724731
0.6857278329
0.6757782714
0.7335532728
0.7297961409
0.7621472811
0.4852143828
0.5347596525
0.5430986329
0.5329450766
0.5290648566
0.5651322205
0.5892562916
0.6121822475
0.6379014408
0.653629612
0.6596493612
0.6681784907
0.6784995248
0.7003429347
0.7023302419
0.7324987928
0.7631133456
0.7913949505
0.7870297591
0.8151411539
0.5045825983
0.5590516662
0.5741039637
0.5364825768
0.5453148362
0.5480966529
0.5574071891
0.5711924205
0.5848215308
0.6494438651
0.6190030853
0.6377063934
0.68684153
0.7146047922
0.7123795895
0.7596602114
0.7814224382
0.7737091464
0.7577007244
0.7903277475
0.4786936776
0.5246958211
0.5665433907
0.5526171279
0.5760855924
0.5689151638
0.5690435632
0.6010157578
0.5853171228
0.6527871934
0.6500095075
0.68041457
0.6960384147
0.6835262252
0.6735054863
0.6763380509
0.6996846911
0.7415460554
0.7788826828
0.783401409
0.4744151855
0.5464529456
0.5364840509
0.5547852263
0.599594543
0.5653699654
0.5592955216
0.5972574162
0.605362179
0.6361344746
0.6334687406
0.6491522158
0.653204978
0.663841388
0.6839531351
0.6480147626
0.6905426665
0.7314324977
0.7310992064
0.7672200565
0.5036989964
0.5227749772
0.5492487533
0.536871548
0.5845792896
0.5975096528
0.612438473
0.6168337636
0.6496290626
0.6379284402
0.6382109017
0.628437625
0.673829972
0.643524078
0.6665589461
0.7031206653
0.6900000658
0.7348788425
0.7673086789
0.8063596282
0.5019036581
0.5590853675
0.5637561149
0.5695607263
0.5541382987
0.5706111817
0.5599281162
0.5783931408
0.6010294816
0.610602323
0.6405440237
0.6309789961
0.6299495676
0.6265360934
0.6115298793
0.6366763205
0.6077268328
0.6583702332
0.658897172
0.6472066978
0.6982350944
0.6963286887
0.7626256229
0.8131593967
0.8434932157
0.8222305732
0.8074013254
0.8556747377
0.8881073414
0.9211365021
0.9680371633
0.9700240752
0.9877233323
1.008377387
1.054175057
1.096157063
1.059249928
1.069843621
1.000045389
1.04160692
1.100159834
1.169375104
1.080006789
1.088631212
1.112421033
1.157733558
1.17731235
1.19524296
1.175874878
1.159891225
1.26199501
1.213527546
1.184417121
1.172884204
1.263887077
1.278837788
1.251211135
1.420201051
1.374599767
1.366621082
0.7543594194
0.778020753
0.8159010182
0.8476793196
0.9054887174
0.9561285322
0.9303986187
1.005893917
1.02454794
1.049904045
1.105547305
1.074815307
1.095894809
1.067579409
1.069974142
1.069427532
1.121578231
1.1363606
1.206145668
1.224615433
1.219975174
1.203177785
1.199369198
1.212880399
1.2570647
1.251714864
1.266572889
1.3183007
1.31388765
1.315181189
1.281575611
1.354000533
1.427351294
1.533241213
1.415791718
1.42958305
1.513086749
1.47469571
1.499305224
1.509190614
0.783778147
0.7993006359
0.8830479966
0.9180655824
0.9044853401
0.9596006624
0.9204418465
0.9860182824
1.033876432
1.110988664
1.135555449
1.1305414
1.134455259
1.178078201
1.226992327
1.172507122
1.214420656
1.34043214
1.270209864
1.29986978
1.31177659
1.2558322
1.349861478
1.263529646
1.249761742
1.338890336
1.430643141
1.394903526
1.446337842
1.41147538
1.526215876
1.511894299
1.492586022
1.489261277
1.459203592
1.508149899
1.534529055
1.57264239
1.601276053
1.496264947
0.8767134566
0.8282042725
0.8796445384
0.8526396968
0.8967048637
0.9657809288
1.007983668
1.071958248
1.082772332
1.138012964
1.164964481
1.161763798
1.19846655
1.222898485
1.197002867
1.258182452
1.289635508
1.324543429
1.304599796
1.280191985
1.313506524
1.333066119
1.354043471
1.406716985
1.484921495
1.543281791
1.539984816
1.570822387
1.604648436
1.582339027
1.520755482
1.51529214
1.52149674
1.514224445
1.570074006
1.595268993
1.636977999
1.720438692
1.684434662
1.657815195
0.8025266252
0.801832807
0.8635003734
0.909814967
0.8940289079
0.9490273429
0.9596502681
1.028593099
1.045472887
1.069905881
1.126329378
1.102632141
1.136993155
1.065117458
1.140677525
1.19318356
1.224029832
1.259760942
1.264217243
1.286432639
1.361091394
1.425461063
1.430513037
1.38759869
1.497352122
1.449954167
1.506111261
1.505440739
1.526208832
1.529799501
1.55732955
1.51635721
1.619374268
1.62180671
1.679127326
1.640933272
1.653504844
1.673157179
1.707031603
1.771698632
0.7796275319
0.8368966389
0.8759041573
0.8774533065
0.8415966191
0.8815078982
0.9385747035
0.9810066651
0.9831610149
0.9717442568
0.9900826405
1.043177449
1.081962163
1.160401163
1.185193721
1.166451568
1.179234088
1.214908164
1.265401334
1.375944498
1.379933651
1.292315803
1.415515826
1.475935363
1.478272978
1.516433522
1.556698191
1.556933642
1.579393783
1.507599074
1.527609501
1.551949904
1.659029669
1.69039659
1.73144356
1.695204359
1.752032121
1.704165675
1.732517561
1.719150558
0.7848767232
0.7752907585
0.7823367611
0.8632080036
0.8721142263
0.9226726942
0.8916247328
0.8951472268
0.9719293281
1.028362386
1.08893128
1.105254402
1.069664702
1.112255559
1.149681389
1.165910838
1.223258899
1.260833332
1.305346609
1.306984063
1.408217537
1.388288499
1.404578634
1.444244257
1.567331599
1.569547942
1.623591861
1.668573244
1.642183125
1.617268985
1.642586206
1.659201034
1.717076728
1.71243304
1.816261858
1.741002962
1.749685074
1.788226911
1.810843786
1.85062769
0.8216261826
0.8205477659
0.8367366646
0.8027299166
0.7804191659
0.8281491216
0.8881945511
0.9596889979
0.9852641674
0.9431408933
1.021573435
1.055902368
1.150766173
1.137025684
1.16177238
1.254965363
1.254091542
1.245905591
1.334573664
1.392550581
1.400125916
1.438150682
1.433696531
1.447960725
1.570437057
1.558447699
1.56116934
1.589921402
1.628479697
1.565711277
1.633310047
1.768917229
1.672992256
1.68647354
1.687898
1.739886781
1.747198165
1.761766022
1.738758563
1.9105266
0.7961779319
0.7797510165
0.7898269933
0.839071447
0.9037569738
0.8851826568
0.9460131075
0.9224071052
0.9786098193
0.9835697944
1.00086311
1.044661399
1.148163323
1.209931488
1.15247585
1.245693714
1.300877949
1.272124701
1.23019048
1.310761425
1.366073138
1.413198332
1.454323216
1.43659478
1.436813378
1.494604921
1.527749328
1.553466188
1.579553549
1.601647995
1.557570791
1.638508983
1.716128679
1.758292941
1.781409187
1.738568127
1.842605555
1.888430049
1.975098373
2.023339605
0.8163943293
0.8258806155
0.8550042952
0.8504952195
0.8520696533
0.8456471502
0.9285572262
0.9499777694
0.9428285454
1.01336433
1.092131853
1.113143805
1.113582288
1.16041904
1.201474291
1.190540584
1.232847621
1.228201368
1.228040245
1.292503892
1.295361798
1.37388781
1.340194254
1.432542776
1.489425376
1.525047166
1.542592877
1.484944116
1.507842861
1.604028946
1.692317133
1.700297478
1.777013936
1.748247496
1.8296934
1.831890778
1.830103602
1.92986164
1.902742263
1.946576662
0.7811404837
0.8149588153
0.8135633923
0.8527325138
0.9058870866
0.9234634867
0.9645405181
0.9569666839
0.9879357678
0.9673231965
0.9825577313
0.9949794805
1.079610154
1.081879341
1.125220434
1.164027667
1.194365113
1.234370584
1.249608845
1.25966868
1.262105298
1.327034695
1.360908982
1.389740176
1.480705846
1.474165696
1.505110305
1.551830021
1.59764649
1.596459718
1.587283899
1.67952042
1.67427016
1.664156898
1.724618361
1.774392334
1.8345642
1.88199587
2.069260815
2.093874537
0.8071206531
0.8602972077
0.8339456022
0.8843979789
0.9143726629
0.917141396
0.9512987504
0.9572341306
0.9677858822
0.9145415856
0.9618450666
0.9863218639
1.016614595
1.013832813
1.112116286
1.129526511
1.132246368
1.161129342
1.197902799
1.232638187
1.206260768
1.266794098
1.323727504
1.288390751
1.325941072
1.421619987
1.464282047
1.447475408
1.52134471
1.523556616
1.517159912
1.528285842
1.647240321
1.726125734
1.721690889
1.819693244
1.832604358
1.838815656
1.993548305
2.099202973
0.8578877136
0.8688950097
0.8655854705
0.8670073953
0.9140045836
0.8918689353
0.9208742424
0.9616508788
0.9569326552
0.9844230596
0.975523416
0.9803246194
1.009944736
1.089426874
1.085955174
1.129814827
1.143725124
1.136609062
1.137880505
1.176348023
1.183205673
1.262918236
1.212665041
1.311887468
1.359667703
1.373200645
1.418304215
1.445120094
1.508082045
1.558869179
1.529347241
1.612327771
1.614959508
1.703644173
1.757230876
1.777030243
1.826808634
1.899394097
1.922962527
1.966925259
0.8224490021
0.8148383059
0.8175844294
0.820195703
0.8445856185
0.8283594876
0.873053519
0.873270989
0.9034260322
0.9276548054
0.9996187877
0.9715116482
1.039111622
1.062283734
1.052377631
1.060416192
1.111007961
1.166056161
1.198422969
1.255249629
1.268434147
1.262066435
1.288091509
1.263271783
1.297782558
1.367673518
1.434123013
1.465625747
1.483501388
1.637096946
1.635613416
1.579940282
1.600837469
1.627479623
1.767328305
1.689084993
1.692611441
1.748418924
1.870955548
2.050454521
0.8228875387
0.8094460419
0.8399305875
0.854556358
0.8868308613
0.913952511
0.9512581729
1.014466875
0.9872309713
1.026018965
1.028107462
1.034008657
1.034253925
1.035979666
1.075358285
1.087266502
1.151449536
1.150501312
1.155073645
1.175063432
1.159781601
1.193517501
1.221602483
1.294486276
1.365805069
1.408134663
1.449337733
1.417152648
1.470253878
1.438955494
1.536456924
1.558889474
1.573566759
1.663120671
1.652643967
1.69579643
1.716687992
1.791319526
1.804114336
1.837473053
0.7750530194
0.8497528997
0.8968420395
0.9052894843
0.9071456638
0.9690255718
0.9303600799
0.9533939273
0.9120297271
0.9442575991
0.9422654123
1.018733712
1.004739683
1.046631078
1.089596073
1.052121017
1.147732537
1.164085162
1.223123704
1.257796316
1.183901328
1.260208662
1.262236659
1.304858087
1.337020809
1.361351217
1.354627514
1.424319442
1.393897739
1.437180206
1.48840436
1.527508682
1.509735018
1.493978147
1.61077363
1.71047602
1.809803382
1.801069125
1.846814842
1.949490956
0.8271325769
0.8403076513
0.7887377667
0.8172406131
0.8635563389
0.8501070687
0.8966390433
0.9379811872
0.9529685659
0.9705016008
1.042526242
1.029933045
1.050761154
1.074852077
1.019258656
1.043136448
1.118137595
1.198898233
1.134619221
1.162934693
1.203092151
1.229194418
1.209838633
1.217911338
1.273914918
1.341946102
1.364158414
1.468921779
1.507571854
1.51033505
1.458363655
1.520096327
1.569710926
1.550082437
1.60950628
1.617135652
1.577370845
1.69063105
1.775752064
1.787853878
0.7424199104
0.8358981374
0.8945834649
0.9169455838
0.9169584093
0.9577479541
0.9471508823
0.9907585596
1.020257185
0.982341726
1.03101102
1.085223585
1.004602847
1.037590592
1.085984506
1.081779439
1.103794258
1.157005262
1.163144106
1.164147146
1.166500579
1.195586092
1.206008446
1.239323125
1.297816405
1.29323017
1.374123372
1.38064431
1.389699037
1.38749601
1.399602204
1.464639392
1.47687573
1.531215694
1.558188276
1.625260205
1.574522485
1.66006355
1.778912382
1.968421136
0.8257668922
0.8817362229
0.8697372605
0.9170716822
0.9561282636
0.9789491745
0.9540034457
0.9219819803
0.9982000749
0.944454482
0.9874287131
1.025452087
1.020866238
1.009231315
1.043135277
1.019208463
1.057656415
1.082442992
1.118252172
1.189160485
1.209967264
1.211681508
1.251015904
1.298814226
1.288752273
1.327526474
1.321998625
1.301825052
1.410982973
1.468023564
1.457381988
1.485312996
1.577653675
1.575265957
1.65038872
1.606000644
1.725899546
1.753289027
1.781368923
1.875925469
0.8594731674
0.8409458097
0.8649740963
0.8785689904
0.8909772015
0.9513255513
0.9261644823
0.9456743979
0.9197266152
0.9906978967
1.012944072
0.9844938236
1.008457666
1.025686597
1.053396571
1.088996505
1.117036961
1.128606255
1.164985833
1.154956632
1.168138975
1.155908876
1.140050616
1.190858708
1.227605523
1.267713767
1.296105907
1.358084646
1.395077367
1.395152064
1.395790047
1.364091145
1.462900948
1.507912767
1.517402297
1.542681503
1.547789574
1.610357874
1.673311042
1.843823738
0.8196520557
0.7818752102
0.8445330562
0.8570486314
0.8652792437
0.8598453371
0.9082329249
0.9463192079
0.9584501017
0.9249146
0.92672873
0.9240532402
0.9917204915
1.038399694
1.084004922
1.133200612
1.136268083
1.12432925
1.156540571
1.101094654
1.124322537
1.197987463
1.160269966
1.214779042
1.266088195
1.23359513
1.279760746
1.346799803
1.346631443
1.359061366
1.388972479
1.448322904
1.429459605
1.509916131
1.520869248
1.535956161
1.609434391
1.728906694
1.680199856
1.696493318
0.8376576193
0.8173957749
0.8637262571
0.869244041
0.8791432222
0.8675297331
0.8651022723
0.957777852
0.927145043
1.011917792
1.056960495
1.041427251
1.06386071
1.024558641
1.019029334
1.095831197
1.11833656
1.091950985
1.135439155
1.173509491
1.206684228
1.228560155
1.246590413
1.191930455
1.260804619
1.284991747
1.256390691
1.292211028
1.315834646
1.321342458
1.399436529
1.464790392
1.413021549
1.441435481
1.511004522
1.5514015
1.527490884
1.509787272
1.556448586
1.707770059
0.7727015388
0.7972942952
0.7940206949
0.8792250863
0.8982348832
0.8923432593
0.8759981793
0.9479126442
1.010807839
0.976581644
0.9878667934
1.042665589
1.010682844
1.039275671
1.048493239
1.064695702
1.104998404
1.113102757
1.065617192
1.103089388
1.132731316
1.135132338
1.180778804
1.23839244
1.241931129
1.276535354
1.254530911
1.349147313
1.331468407
1.323327406
1.382527253
1.410050303
1.441312465
1.480533989
1.526352169
1.526832211
1.596113369
1.614057764
1.641065646
1.808481579
0.786223249
0.817900243
0.8258878095
0.8435484616
0.8835692689
0.9083764229
0.9041281154
0.9266508966
0.9453680483
0.9324782711
0.9555422002
1.010329505
1.029631012
1.035860138
1.049679626
1.091714181
1.083921934
1.124111505
1.108347104
1.134793678
1.149347362
1.178554065
1.203365364
1.258190427
1.254477379
1.270299316
1.279137378
1.256911416
1.361558273
1.445092312
1.550992287
1.591283709
1.609064847
1.536713418
1.586711992
1.623749809
1.644049591
1.696513326
1.71386434
1.786171393
0.8279716086
0.8233734762
0.8567874518
0.9152222547
0.8966892178
0.907091186
0.8920000873
0.9323541698
0.9692907128
1.000740386
1.02296199
1.068987833
1.076420402
1.07419448
1.033706669
1.044653169
1.095249865
1.118284192
1.069207863
1.102827657
1.125775939
1.152917099
1.209499436
1.227483741
1.226214045
1.214655307
1.313760777
1.412097497
1.384280255
1.399813062
1.389600769
1.398169296
1.472186985
1.460713296
1.520949197
1.453151952
1.570229359
1.597507381
1.668899405
1.811317189
0.8431638382
0.8113210784
0.8473000285
0.8214745055
0.8524933652
0.88359818
0.9254093799
0.9588638926
0.9437670433
0.9278349591
0.9590711412
0.9765389871
1.018753858
1.03345286
1.03701742
1.03567607
1.131393948
1.153991756
1.126199351
1.183955601
1.16689701
1.194043478
1.241062352
1.238773974
1.288129081
1.274991199
1.311338124
1.316694307
1.32213604
1.358425435
1.37114615
1.427524591
1.421753626
1.458709989
1.518215734
1.497358161
1.548882908
1.543249288
1.599385142
1.673288993
0.7447863253
0.7767468389
0.7729154352
0.8036691031
0.8536136075
0.8670651379
0.9038813499
0.8650496432
0.8999955105
0.9413251776
0.9330209772
0.957374371
1.007560318
1.025377509
1.024110284
1.052784864
1.086644387
1.096562317
1.108863289
1.139154054
1.138565025
1.120529322
1.10725911
1.236070136
1.20417135
1.254397793
1.254557802
1.3646215
1.381122593
1.391015306
1.39574422
1.449087509
1.443757463
1.428701574
1.511554205
1.4771563
1.559432882
1.529623389
1.548196641
1.646814002
0.7929148495
0.7922239074
0.8161443298
0.8633880919
0.8763916082
0.8999516446
0.8942129658
0.9262808393
0.9573889944
0.9934670929
1.034036899
1.045572818
0.9987881659
1.014822817
1.047156003
1.110793983
1.091661487
1.093934026
1.09557348
1.078011526
1.156341632
1.188499751
1.247161595
1.22913146
1.174052617
1.224714028
1.240024276
1.293849233
1.361107914
1.348204878
1.413076929
1.392430102
1.394109708
1.419632463
1.417568223
1.448389173
1.470932183
1.483040976
1.522890717
1.634363349
0.8281672725
0.8506183629
0.8410799742
0.8494675597
0.8706694009
0.9473817498
0.9239691458
0.940555649
0.9386269186
0.9587604228
0.984261893
0.9837724062
1.017752626
1.040195713
1.07203548
1.075425254
1.109993903
1.099846737
1.194380793
1.230596345
1.209035482
1.217760298
1.183683637
1.177400209
1.258793798
1.337534301
1.303571865
1.347614782
1.365541671
1.406401274
1.495023879
1.503968235
1.421034606
1.457544944
1.44243751
1.443416007
1.468971529
1.548793099
1.614811921
1.702437608
0.8047701353
0.8223199477
0.838635146
0.8885569326
0.8948740347
0.9192657944
0.9506570917
0.9722088058
1.017840587
0.9920410774
0.9860167744
1.02119752
1.045528631
1.029927854
1.09016223
1.104560166
1.094863533
1.083386775
1.075520811
1.074110335
1.045701129
1.080066455
1.144221481
1.162787371
1.224177612
1.189935443
1.217659612
1.321995008
1.305023513
1.335218215
1.346160018
1.314813874
1.340232345
1.373225049
1.407698982
1.495954633
1.528651059
1.53746333
1.626625501
1.677896503
0.8212250665
0.8565087257
0.9107285656
0.8894424019
0.889677813
0.9508982003
0.9138527198
0.9341455684
0.9954250901
0.9995319905
1.006325468
1.063854795
1.056203036
1.100617032
1.100072546
1.045679833
1.086837979
1.065715645
1.073462301
1.139653477
1.148799023
1.154795321
1.151565173
1.196783809
1.251636302
1.293704805
1.343685723
1.332698124
1.373247694
1.388718768
1.362035874
1.394906394
1.329779983
1.432752252
1.443273784
1.456853162
1.489298872
1.594494519
1.589070977
1.684939471
0.7462960742
0.8036174524
0.8355403887
0.8323297902
0.8415334353
0.8605705284
0.9000593061
0.9267676812
0.9515964604
1.017401426
0.9811970844
0.9660300584
0.9872905777
1.003617662
1.060394864
1.015582118
1.056998034
1.06987328
1.055591911
1.135899075
1.12141596
1.184657477
1.222183614
1.204828376
1.203353575
1.252637942
1.251363845
1.207911495
1.228229858
1.188020018
1.296530645
1.276225654
1.380348633
1.383307834
1.444547191
1.476307454
1.534494506
1.505337558
1.60782207
1.608198987
0.7766731815
0.7798449465
0.8120535483
0.8171163752
0.864603461
0.8196638821
0.8980365816
0.9082743822
0.9802689004
1.00482791
0.9730538939
0.9014983547
0.9405647446
0.9822533338
1.028319202
1.059435844
1.048972461
1.079035444
1.136345606
1.099428721
1.118278192
1.099694273
1.129420004
1.148425531
1.172194829
1.211769858
1.20018006
1.230828322
1.268602737
1.317120416
1.354676649
1.313228297
1.380680009
1.377597963
1.392866521
1.427530403
1.41817955
1.479624786
1.453593009
1.477408227
0.7881350242
0.8124406807
0.8551075876
0.8276106195
0.8480981413
0.8403642741
0.9191437516
0.9531827913
0.9537061432
0.9896484836
0.9775561797
0.9157110507
1.004121759
0.9929597569
1.04892789
1.048338801
1.038375167
1.04878653
1.093284614
1.075776013
1.143023473
1.179084987
1.16874026
1.176052409
1.139960769
1.174579406
1.160442801
1.183489634
1.270417629
1.354918555
1.324719281
1.340376999
1.366427042
1.409435933
1.377362865
1.415212854
1.402145334
1.369613282
1.396133127
1.463195317
0.812247383
0.8123437817
0.8469546374
0.8718767537
0.9062415349
0.8896303788
0.9048812341
0.9013867019
0.9219397865
0.9212965591
0.9439904641
0.8890111581
0.9526381729
0.9716028098
0.9763724889
1.042076906
1.066805588
1.098736632
1.104984095
1.134360776
1.144933537
1.126144218
1.193999565
1.153577276
1.187794459
1.202841683
1.249479924
1.21968638
1.224867158
1.225972028
1.24254331
1.254810705
1.334440274
1.354670814
1.342350768
1.330853794
1.314381859
1.33362042
1.432589048
1.453889426
0.7889597506
0.7597343429
0.7980928087
0.8107570264
0.8696672027
0.8704118577
0.9123849983
0.9355430811
0.9579519715
0.9509022291
0.9493286297
0.9825467524
1.038948809
1.041393995
1.010981253
1.008494883
1.040231676
1.068848437
1.063683597
1.033800927
1.063443886
1.05919879
1.112963892
1.138945362
1.105211495
1.097925056
1.087512536
1.171577524
1.216290905
1.265643978
1.214734391
1.165326756
1.174767421
1.252860462
1.250617191
1.345220525
1.352449673
1.384807594
1.398372026
1.368253711
0.7834796468
0.7991011317
0.8010319195
0.8667228359
0.8484178236
0.8766423491
0.8810014413
0.8891613255
0.9332956169
0.9648951043
1.010702799
1.003796567
0.9765788524
0.9695573581
1.017569411
1.000664034
1.025369581
1.071286375
1.047011061
1.041755898
0.9964242337
1.0841527
1.061109881
1.086641357
1.119587765
1.18563101
1.18626936
1.16180718
1.179171988
1.126667846
1.155506807
1.135753326
1.15485439
1.145372295
1.224732038
1.170700186
1.184871944
1.172866714
1.245610933
1.294007694
0.7740249048
0.7364802586
0.7303152311
0.7866421056
0.7964260113
0.8235201342
0.8193403703
0.8537555746
0.8914840473
0.9327077417
0.9391776412
0.9058985799
0.8792058775
0.9123842303
0.9503892947
0.9264668842
0.9587128301
0.9858883964
0.9485715843
1.000210591
0.9213994006
0.968745053
1.000175992
0.9671925067
1.007912827
1.020847635
1.021342161
1.013985824
1.011483187
1.034942319
1.010058561
0.9952591015
1.06128845
1.068107906
1.061955464
1.108165933
1.128644289
1.138932374
1.167027176
1.246623838
0.7465292793
0.812432147
0.7733606609
0.8092852464
0.8037124692
0.8471320592
0.8426140946
0.8260898775
0.8672414438
0.8390325132
0.8383946821
0.8946389029
0.8932797191
0.878993681
0.8930136432
0.8939063523
0.8814470596
0.8959782216
0.8952534748
0.8753367365
0.8910241973
0.8570063041
0.8701116609
0.929137641
0.9665190216
0.925210707
0.9522962979
0.941143951
0.9839433773
0.9474381199
0.9638722072
0.9167525804
0.9287468828
0.9439983172
0.9659430447
1.008377856
0.9951753802