/*--------------------------------*- C++ -*----------------------------------*\
  =========                 |
  \\      /  F ield         | OpenFOAM: The Open Source CFD Toolbox
   \\    /   O peration     | Website:  https://openfoam.org
    \\  /    A nd           | Version:  7
     \\/     M anipulation  |
\*---------------------------------------------------------------------------*/
FoamFile
{
    version     2.0;
    format      ascii;
    class       volVectorField;
    location    "0.002";
    object      momentumMean;
}
// * * * * * * * * * * * * * * * * * * * * * * * * * * * * * * * * * * * * * //

dimensions      [1 -2 -1 0 0 0 0];

internalField   nonuniform List<vector> 
2400
(
(0.0001041041542 0.000148429192 -4.631590016e-05)
(0.0001904357525 0.0001613742939 -5.008840695e-05)
(0.0001926949621 0.000164274932 -1.110959192e-05)
(0.0001769411776 0.0001482292329 -3.083155559e-05)
(0.0002147437838 0.0001540974515 1.313114293e-06)
(0.0002374486917 0.0002289660195 7.664679281e-06)
(0.0001648948577 0.0001998709713 -1.601981355e-05)
(0.0001238486054 0.0001847352528 -2.088138042e-05)
(8.300556439e-05 0.0002379121813 2.295217908e-05)
(6.122299608e-05 0.0001905787062 3.315413606e-05)
(9.343697342e-05 0.0002160487756 -3.659030967e-05)
(0.0001157013798 0.0001628422364 -2.243784009e-06)
(0.000166550914 0.0002479311106 1.37529987e-05)
(0.000138805111 0.0001800214471 8.675835872e-05)
(0.0001623975186 0.0001939646014 7.727528435e-05)
(0.00018933714 0.000219056367 3.594088775e-06)
(0.0002223065485 0.0002130436142 7.184637725e-05)
(0.0002139967697 0.0002024600219 -4.9441156e-05)
(0.0002504920737 0.0001975546688 6.75426457e-06)
(0.0002646585905 0.0001898611301 1.703252751e-05)
(0.0001642545619 0.0001416823941 -9.841801231e-05)
(0.0001556273856 0.0001742522367 7.253551118e-05)
(0.0001554710974 0.0002048085565 1.267761167e-05)
(0.0002269061608 0.0001805447738 -4.516506513e-05)
(0.0001530563109 0.0002279321061 -5.999365646e-05)
(0.0001713189733 0.0001834186495 3.302263522e-05)
(0.0002100819658 0.0002908213376 -4.535108021e-05)
(0.0002505552057 0.0002604331709 -1.221255162e-05)
(0.0002401733477 0.000264801188 -7.50073355e-06)
(0.0002543221774 0.0002123008336 -1.537273879e-05)
(0.0001908724506 0.0001946408625 -5.750033863e-05)
(0.0002338576319 0.0002199228608 5.109096435e-05)
(0.000264491811 0.0002201075664 2.887895069e-05)
(0.0003175347718 0.0002058167094 4.660643148e-05)
(0.0002885964114 0.0002196090113 2.981045028e-05)
(0.000273598487 0.0002212173228 -7.739788563e-05)
(0.0002758942052 0.0002158685219 3.467989998e-05)
(0.0003340960551 0.0002049506769 -5.688965526e-05)
(0.0004039348817 0.0001726267867 -2.796151165e-06)
(0.0004122830603 0.0002299855855 3.131542292e-05)
(0.0001515618608 0.0001346679038 -5.154530828e-05)
(0.0001987323691 0.0001999055461 2.126013602e-05)
(0.0002299163056 0.0001915735551 2.279309148e-05)
(0.0002013324114 0.0001918796009 2.361055008e-06)
(0.0001884345511 0.0001898658785 -6.083115942e-05)
(0.0001812578009 0.0002603287653 -4.652679272e-05)
(0.0002296954945 0.000179868917 9.835831874e-06)
(0.0002674415296 0.0002400806786 2.48672249e-05)
(0.0002966386588 0.0002305165962 3.858807877e-05)
(0.0003228651848 0.000255082934 -5.951067403e-06)
(0.0003085617228 0.0002344224638 -4.802621986e-05)
(0.0002829945592 0.0001813305933 -2.279440092e-05)
(0.0002782491455 0.0001999548139 2.652683123e-05)
(0.0003032479353 0.0001731833091 -7.621870064e-05)
(0.0003167305665 0.0002252704607 -7.488026003e-05)
(0.0004173639707 0.0001859230071 -1.881100613e-05)
(0.0004284003849 0.0002091415285 -6.311493204e-05)
(0.0004056134965 0.0002062606755 -4.412362814e-05)
(0.0004219386797 0.000142490185 -4.178778396e-05)
(0.000447180665 0.0002047886883 -1.609627865e-05)
(0.0001404743225 0.0001350896114 -3.169679515e-05)
(0.0002286528547 0.0001412943507 -6.356318137e-05)
(0.000230812097 0.0001848864296 -5.747473972e-06)
(0.000235536628 0.0002170741578 5.357790411e-05)
(0.0002451196096 0.0002020603368 -4.692889587e-05)
(0.0002246747437 0.0002431548577 -6.889123689e-05)
(0.0002267879895 0.0001828696348 -0.00011127131)
(0.0002716071194 0.0001562499703 6.226437389e-05)
(0.0003666268614 0.0001778824993 -1.082489885e-05)
(0.0003479515045 0.0003185265712 2.976305449e-05)
(0.0003212314032 0.0001963709379 -3.109136723e-05)
(0.0003367180348 0.0002297942888 -2.035278343e-05)
(0.0003056863919 0.0001849975526 -4.114142421e-06)
(0.0003014865755 0.000204150603 -0.0001191978714)
(0.0003695839156 0.0001289017496 -3.011439817e-05)
(0.0004028448792 0.0001866215462 -5.266840775e-05)
(0.0004475954698 0.0001732288536 -3.506057202e-05)
(0.0005314442882 0.0002081456359 -7.155091059e-05)
(0.0004955239229 0.0001330166183 -2.890113039e-05)
(0.0004860920206 0.0001965228065 -0.0001057284409)
(0.0002266536451 0.0001250788303 2.469167058e-05)
(0.0002199225997 0.0001382649275 -5.990563368e-05)
(0.0002188955519 0.0001854637396 -8.061363873e-05)
(0.0002294611028 0.0001925559416 -2.648425671e-05)
(0.0002585757922 0.000209923016 -5.014005005e-07)
(0.0002801594383 0.0002198259052 -2.402190674e-05)
(0.0002757526062 0.0002043601878 1.113373738e-05)
(0.0002737552661 0.0001042996056 -5.85583303e-06)
(0.000240181178 0.0002066100538 -5.163432547e-05)
(0.0003130517357 0.0002454283201 -1.437851268e-05)
(0.0003521286313 0.0002059374502 3.91691021e-05)
(0.0003457014473 0.0002031157633 2.82666104e-05)
(0.0003945077345 0.0002299028017 9.463645362e-06)
(0.0003785016771 0.0002007409643 -7.594275047e-05)
(0.0004242422946 0.0001055844602 4.259160356e-05)
(0.0004027878516 0.000176970944 4.721618546e-05)
(0.0003966551369 0.0001072897467 3.34677839e-05)
(0.0004232282561 0.0002112819 -7.418161228e-05)
(0.0004656522673 0.0001359735466 -1.819242498e-05)
(0.0005235198597 0.0001304016382 -1.801812718e-05)
(0.0001871736585 9.26163267e-05 -1.016413193e-05)
(0.0002288522665 0.0001520131028 1.658592937e-06)
(0.0002702184183 0.0001348240471 3.022877408e-06)
(0.0002627150539 0.0002401891158 -3.916775308e-05)
(0.0002392228267 0.0001771194557 -1.567505719e-05)
(0.0002223615682 0.0002136914273 -6.20462234e-05)
(0.0002667482832 0.0001933517639 -8.698618945e-05)
(0.0002386443911 0.0001744782576 5.12422583e-05)
(0.0002511984954 0.0001379129868 4.235201242e-05)
(0.0002884405766 0.0001579713316 1.909188707e-05)
(0.0003991344514 0.0002314327781 6.177963285e-05)
(0.0003625687852 0.0001776132961 1.145397916e-05)
(0.0004185616115 0.0002039937903 6.646886266e-06)
(0.0004613278933 0.0001461674626 1.879750474e-05)
(0.0004193307822 0.0001234730807 1.872386481e-05)
(0.0004152612097 0.0001689394411 -3.235813835e-06)
(0.0004159907834 0.0001501152903 1.807296153e-05)
(0.0004514651993 0.0001645997772 -2.324467568e-05)
(0.0004601613559 0.0001172302864 1.609236691e-05)
(0.0004352438995 9.798251018e-05 8.327350112e-05)
(0.0001656637934 0.0001324382435 -9.486014119e-05)
(0.0002234815005 9.898295374e-05 -4.344437715e-05)
(0.0002347428071 0.000171472174 -5.279426631e-05)
(0.0002375697618 0.0002418149487 -3.71992336e-05)
(0.0002478843931 0.0001671137019 -4.484127217e-05)
(0.0002908235928 0.0001737234681 1.518944888e-05)
(0.0003016726008 0.0001823546165 -2.173265558e-05)
(0.0002916104643 0.0002119509162 5.728529903e-05)
(0.0003356660105 9.313812281e-05 3.47031999e-05)
(0.0003454065777 0.0001412648423 -1.746775329e-05)
(0.0003856498756 0.0001829243105 2.563140495e-05)
(0.0004495137218 0.0001643220129 9.093035097e-05)
(0.0003852049201 0.0001707958411 3.88131667e-05)
(0.0004039049132 0.0001748758155 -3.484170435e-05)
(0.0003839759655 0.0001528819442 2.066803137e-05)
(0.0004138792008 0.0001395928576 4.890375583e-05)
(0.0004830886164 0.0001276150843 -7.663062637e-06)
(0.0004513472698 0.0001253802311 -1.980477179e-05)
(0.0004312256418 0.0001435672962 -2.803210398e-05)
(0.0004688347522 6.596484447e-05 2.105036745e-05)
(0.0001996218844 7.586702919e-05 1.404997627e-05)
(0.0002740879547 0.0001262293718 9.191874531e-06)
(0.0002323441504 0.000140857378 2.057698373e-06)
(0.000296288974 0.0001958074726 2.328143989e-05)
(0.0003530934538 0.0001758104483 -3.07183325e-05)
(0.0002947764419 0.0001777741068 -7.134673704e-05)
(0.0002869144559 0.000165016764 -9.731939365e-05)
(0.0004196738653 0.000151491954 -5.743114356e-05)
(0.0003699545745 0.0001338056562 -1.531164832e-05)
(0.0003414062026 0.0001572577148 -6.25967044e-05)
(0.0003287364709 0.0001290940654 -1.20566194e-05)
(0.0003585736609 0.0001595344105 7.043188543e-05)
(0.0004399092644 0.0001493208249 -1.683999806e-05)
(0.0004550610583 0.0001958524818 1.391114419e-05)
(0.0004393876563 0.0001569139435 5.044078268e-05)
(0.0004756963786 0.0001049639236 1.151748517e-05)
(0.000464674823 0.0001251143027 7.775413508e-06)
(0.0004683861022 0.0001278835435 7.235403524e-05)
(0.0005139079039 0.0001841807424 2.136900636e-09)
(0.0004897457104 6.627594361e-05 4.30984582e-06)
(0.0002225545261 6.109437743e-05 3.627045169e-05)
(0.0002348503082 0.0001064840489 4.505805369e-05)
(0.0003050252702 0.0001501497396 8.889499066e-06)
(0.0002913710998 9.156726232e-05 -4.264758874e-05)
(0.0003246613782 0.0001718765281 2.360934614e-06)
(0.0003463189985 0.0002039665045 4.086060655e-05)
(0.0004077129079 0.0001564424899 -5.896715319e-05)
(0.0003270485753 0.0001307599048 -4.343936456e-05)
(0.0003880634368 0.0001104785467 -5.454120252e-05)
(0.0004116820448 0.0001791010341 -2.965882231e-05)
(0.0004022245609 0.0001205781817 2.165180425e-05)
(0.0004107400646 0.0001239161992 1.063963378e-05)
(0.0003966185967 0.0001321545643 -1.850085688e-05)
(0.0004311092047 0.0001538458658 -2.033429975e-05)
(0.0005139520707 0.0001476321866 2.804054123e-05)
(0.0004644823617 0.000133967227 -4.503606942e-06)
(0.0004361847814 0.0001513518256 -5.847779072e-06)
(0.0004545935386 0.0001117068083 4.691932468e-05)
(0.0005126013461 0.0001057087443 5.213568061e-05)
(0.0005176419336 9.277540963e-05 5.036635908e-05)
(0.0002318180265 2.727422104e-05 -2.32656108e-05)
(0.0002580556523 8.836776164e-05 -2.392574417e-05)
(0.0002633956456 0.0001581250778 -8.858328738e-05)
(0.0002583410528 8.039742805e-05 -5.947634518e-05)
(0.0002730784599 0.0001503760503 1.389693973e-05)
(0.0003284964805 0.0001372470502 1.766246693e-05)
(0.0003293617352 9.624517656e-05 -9.048776758e-06)
(0.0004053868358 0.0001496440345 7.538709523e-06)
(0.0003947372273 8.851567528e-05 5.961067043e-06)
(0.0003805673566 0.0001955631696 1.109617959e-05)
(0.0003712377703 0.000140465286 7.673455499e-06)
(0.0003787756115 0.0001041958501 -6.084865082e-06)
(0.0004197241313 0.0001062014913 1.433579116e-05)
(0.0004161114854 0.0001230399306 -5.152391006e-05)
(0.0004220299885 0.0001010128839 -1.007450119e-06)
(0.0004672438492 0.0001821477074 6.233046176e-05)
(0.0004985045375 0.0001108883001 6.576881095e-05)
(0.0005165253006 0.0001228470911 -2.238179222e-05)
(0.0004936950841 8.615772316e-05 2.573411858e-05)
(0.000508096082 8.753871278e-05 5.829128425e-05)
(0.0002036047113 6.261524254e-05 6.752731285e-05)
(0.0002454298076 6.320556087e-05 2.069418813e-05)
(0.0002940604405 0.0001040006448 1.095348861e-05)
(0.0002974757001 0.0001043323019 -2.627802723e-05)
(0.0002955669006 0.0001059315065 -2.173168004e-05)
(0.0003494732124 0.0001468148994 0.0001017101753)
(0.0003454092057 0.000104281943 4.506034956e-05)
(0.0003277385736 8.985685429e-05 2.024055463e-05)
(0.0003197402056 0.0001794319753 1.937475766e-05)
(0.0003275617557 0.0001154385645 -6.667566326e-05)
(0.0003708680737 0.0001036559486 2.19655708e-05)
(0.0004158659345 8.193563471e-05 -4.14957912e-05)
(0.0004128203448 0.0001097243325 6.330887797e-05)
(0.0004255333979 0.000162392902 4.088224037e-05)
(0.0004557441163 8.763661613e-05 3.142701716e-05)
(0.0004528944313 0.0001429810778 1.008744308e-05)
(0.0004959110555 7.84090268e-05 -1.991933598e-05)
(0.0005294420852 8.134668791e-05 1.579434767e-05)
(0.0005575075117 9.373655016e-05 -1.773557987e-06)
(0.000525708243 9.502365002e-05 4.336758466e-06)
(0.00027346563 4.480012637e-05 6.894176606e-05)
(0.0002807717077 6.048713325e-05 6.162835176e-05)
(0.0002638825588 0.0001118187456 3.165891653e-05)
(0.0002591018129 9.602733558e-05 1.23719255e-05)
(0.0002928964947 7.22354551e-05 3.958386125e-05)
(0.0002799155193 7.486446041e-05 4.572912375e-05)
(0.0003712485134 0.0001064848068 -1.375164476e-05)
(0.000376215186 0.0001308953538 1.395154887e-05)
(0.000407763654 0.0001101733943 6.036360929e-05)
(0.0004437445678 0.0001169902414 -2.564795867e-05)
(0.0004084420294 0.0001186046776 -3.046620557e-05)
(0.0003828986082 7.44611791e-05 -0.0001268215843)
(0.0004104575676 0.000102918865 -3.724352685e-05)
(0.0004358564255 0.0001190431423 3.186268337e-05)
(0.0004431550519 8.537748157e-05 -5.982080125e-06)
(0.0005158530249 9.301314879e-05 -2.017499847e-05)
(0.0005067099784 8.353766099e-05 -9.042452536e-06)
(0.0004871251992 5.102818174e-05 -4.263976422e-05)
(0.0005416329119 0.0001067824865 -3.587073554e-05)
(0.0005526157625 0.0001205755344 -2.560837471e-05)
(0.0002609187999 5.567475502e-05 -9.274253847e-06)
(0.0002766915297 7.411781232e-05 -1.860074087e-05)
(0.0002710931878 0.0001108080184 3.802465666e-06)
(0.0003030887644 5.683663896e-05 6.747606052e-05)
(0.000345385236 0.0001038718374 1.470322777e-06)
(0.0003702379531 8.708289643e-05 -9.445156655e-06)
(0.000373683252 2.651116468e-05 3.041702907e-06)
(0.0004342461141 0.0001069653335 -3.837807308e-05)
(0.0004247001284 9.677405488e-05 2.080845956e-05)
(0.0004268111219 0.0001183642947 -4.333731433e-05)
(0.0004062818333 0.0001518514565 -4.082373906e-05)
(0.0004007501692 7.608859117e-05 -2.369591578e-05)
(0.0004184590022 3.904179078e-05 -2.639087368e-05)
(0.0005105870001 0.0001081455343 1.735105515e-05)
(0.0004969450793 9.87240663e-05 -3.02638939e-05)
(0.0004888223797 0.0001026540387 2.338689409e-05)
(0.0004847486078 8.161499267e-05 -7.885577521e-06)
(0.0005130637855 2.814321424e-05 -3.153790135e-05)
(0.0005335831255 8.702578968e-05 2.306860514e-06)
(0.0005620651563 6.788658889e-05 -7.796673345e-05)
(0.0002235739468 9.00569331e-06 -4.37500595e-05)
(0.0003289278158 0.000106821827 -1.530661985e-05)
(0.0003159601203 7.506202422e-05 1.34909213e-05)
(0.0003847705906 3.482064008e-05 -3.970882119e-05)
(0.0003495842507 6.669172039e-05 -4.493205652e-05)
(0.0004188934962 5.833101971e-05 -2.247073883e-05)
(0.000394381552 5.703326154e-05 -2.486245179e-05)
(0.0004288616725 4.582751984e-05 -6.525960712e-08)
(0.0003965360659 0.0001213861205 -4.452735119e-05)
(0.000406879681 0.0001412474993 1.173073532e-05)
(0.0004501550496 9.866250824e-05 -5.246085561e-05)
(0.0004629954382 0.0001296343513 -7.610735319e-06)
(0.0004162122173 2.541430178e-05 -5.659201531e-06)
(0.0004187908282 5.901139577e-06 3.28941668e-05)
(0.0004898428828 0.0001083012919 -5.396966648e-05)
(0.0005022147752 8.897057673e-05 1.369740784e-05)
(0.0004842771446 9.256865716e-05 -3.116383805e-05)
(0.0004868501732 9.266207161e-06 -3.090489145e-05)
(0.0004891359982 8.336485113e-05 -9.072450414e-05)
(0.0005235559254 4.018456305e-05 -5.241604988e-05)
(0.0001883039257 -1.037525503e-05 1.079676277e-05)
(0.0002641098382 3.40053457e-05 7.876415947e-06)
(0.0002932558989 8.648021577e-05 -3.805355088e-05)
(0.000255788914 4.163900193e-05 3.940837133e-05)
(0.0003072730802 5.449799146e-05 -6.898287303e-05)
(0.0003390715262 -9.643247729e-06 4.478209876e-06)
(0.0003546148796 7.177342893e-05 2.646711046e-05)
(0.0003653801137 7.991423509e-05 2.247660343e-05)
(0.0003417075221 0.0001226777054 -1.893481268e-05)
(0.000328857009 0.0001028756538 -2.196677576e-05)
(0.0004226675053 5.660781879e-05 -2.084330234e-05)
(0.0004298035532 8.646389378e-05 -8.764791734e-05)
(0.0004610522765 9.868730685e-05 -4.836151555e-05)
(0.0004165023813 4.312089229e-05 6.768028577e-05)
(0.0004174594795 6.368456864e-05 4.546155926e-05)
(0.0004434416328 3.140615907e-05 -3.451192483e-05)
(0.0004822493903 0.000119823489 -2.466873688e-05)
(0.0004691125166 3.918988318e-05 -0.0001174250303)
(0.0004820473127 2.877730491e-05 -8.820263288e-05)
(0.0005122737991 3.89984346e-05 -6.440974762e-05)
(0.0002475896065 -9.997286582e-06 9.619271986e-05)
(0.0002570209619 2.552481301e-05 1.490091089e-05)
(0.0003042931505 4.059001398e-05 -3.503272126e-05)
(0.0003409992637 4.05749999e-05 -9.460927673e-06)
(0.0003454298715 3.195284395e-06 -2.915602611e-05)
(0.0003434376552 3.384737468e-05 -9.342152304e-06)
(0.000324900993 3.831218615e-05 -3.069572075e-05)
(0.0002805799799 7.909016245e-05 7.404790042e-06)
(0.0003460784172 0.0001000640415 4.417379691e-05)
(0.0004212210086 4.210506609e-05 -2.610322323e-05)
(0.0003949357269 5.223234229e-05 -3.589336157e-05)
(0.0004514208823 4.721196352e-05 -4.635702959e-05)
(0.0004574900158 9.057290125e-05 -7.615098528e-06)
(0.0004575708662 6.343456582e-05 3.471398566e-06)
(0.0005238370475 1.990117593e-05 3.243006488e-05)
(0.0005090153729 5.588787882e-05 -5.377535909e-05)
(0.0005266888827 6.183866755e-05 -3.345638327e-05)
(0.0005630946226 6.787113054e-05 -7.000314152e-05)
(0.0005419966036 5.046851387e-05 -5.289813329e-05)
(0.0004942400728 3.513412269e-05 -8.048454372e-05)
(0.0002183701684 3.783357809e-05 5.832985849e-05)
(0.0002353365391 2.539440067e-05 4.445991224e-05)
(0.0002729888429 -3.349387759e-05 2.335616503e-05)
(0.0003027212185 3.979651003e-05 4.113781594e-05)
(0.0003542757688 -3.144135996e-06 1.239647552e-05)
(0.0003753828948 5.141957349e-05 3.102712102e-05)
(0.0003530756933 5.886785726e-05 -4.144297308e-05)
(0.0003974398351 6.485120156e-05 1.505324099e-05)
(0.000379598537 2.952357416e-05 1.831793939e-05)
(0.0004018971967 7.670316912e-05 4.45834736e-05)
(0.0003971832838 3.887192197e-05 3.703456407e-05)
(0.0003984675416 4.67762492e-05 3.701949312e-05)
(0.0004477828841 3.111875571e-05 1.142889438e-05)
(0.0004882975806 5.418638926e-05 -5.953299609e-05)
(0.000480374449 4.189157993e-05 -1.381882396e-05)
(0.0004617828863 4.993528362e-05 -4.45133081e-05)
(0.0005064957508 3.173852553e-05 -5.244307596e-05)
(0.0005264402199 4.665829014e-05 -4.582626473e-05)
(0.000577209097 6.868170606e-05 -6.862729317e-05)
(0.0005500319372 4.692441785e-05 -3.530760439e-05)
(0.0002951829991 -3.60812633e-05 -2.05581201e-05)
(0.0003528982643 5.284712827e-06 5.711436537e-05)
(0.0002854487702 1.959701226e-05 3.78921171e-06)
(0.0002922398035 -7.375902719e-06 8.179059958e-06)
(0.000358304402 -5.962079682e-05 3.513514506e-05)
(0.0003568907504 2.13195067e-05 3.691702883e-05)
(0.0003829593779 7.111501358e-05 -5.442123821e-06)
(0.0003566502201 6.723470007e-05 -5.222858015e-05)
(0.0003638282665 5.136319001e-05 3.504567816e-05)
(0.0003706198429 5.826635292e-05 -7.836408135e-06)
(0.0003644469587 1.765327927e-05 1.989346262e-05)
(0.0004163382573 4.590947321e-06 7.206765445e-05)
(0.0004589752217 3.737361909e-05 2.90138432e-05)
(0.0004268644452 3.593300912e-05 1.099512649e-05)
(0.0004671755619 2.261842613e-05 -3.641166452e-05)
(0.0005353083201 3.163662565e-05 -2.639534531e-05)
(0.0005197323958 -1.864840103e-05 -1.365946206e-05)
(0.0005509892355 5.186456395e-05 1.166295147e-05)
(0.0005257274644 4.570291118e-05 -4.498923588e-05)
(0.0005638746231 6.987029856e-05 -5.211520513e-05)
(0.0002359513123 -4.133596423e-05 -4.063259552e-05)
(0.0002751557709 3.134522199e-05 -7.643622921e-06)
(0.0002962617958 7.306881956e-06 1.055200587e-05)
(0.0003229513949 -2.94771506e-05 -5.48346058e-05)
(0.0002691891013 -7.316559398e-05 -1.795473507e-05)
(0.0002939700291 6.143374113e-06 4.281636794e-05)
(0.0003454666478 5.850276449e-05 -2.935923239e-05)
(0.0003642752332 6.130907334e-05 -7.363275276e-05)
(0.0003656389741 5.762588052e-05 -2.907158005e-05)
(0.0003777279367 5.968612879e-05 -6.393756712e-05)
(0.0003865712351 2.46820755e-06 1.411989405e-05)
(0.0003854007743 -2.639797486e-05 -3.58324381e-05)
(0.0004228707831 2.818021399e-05 -9.878266715e-06)
(0.0004606451979 3.128880902e-06 -4.594860858e-06)
(0.0004860728112 -1.17916508e-05 -4.316884543e-05)
(0.0004699774242 4.451408008e-05 7.00340212e-06)
(0.0005230980898 -3.894171791e-05 -2.103513509e-05)
(0.0005253129562 2.21856554e-05 -7.371912181e-05)
(0.0005646447628 5.413874352e-05 -6.718974656e-05)
(0.0006402242733 3.215150315e-05 4.02215004e-06)
(0.0002296206188 -1.214453985e-05 -8.659350126e-06)
(0.0002649860157 -1.522029319e-05 2.735926786e-05)
(0.0002581996497 -8.275279247e-06 -9.696230049e-06)
(0.0003218488781 -5.005757619e-05 -3.992177721e-05)
(0.0003388740998 -4.598343428e-05 -2.874379779e-05)
(0.0003119519645 -3.805745776e-06 -6.350184085e-05)
(0.0003276213017 1.362238886e-05 -3.252418373e-05)
(0.0003677303215 5.65336624e-05 -1.903815596e-05)
(0.0003865036815 4.694610463e-06 -2.042493767e-05)
(0.0004427101191 4.268782612e-05 -9.433283227e-05)
(0.0004622751091 2.398820617e-05 -3.963722158e-05)
(0.0004779503084 -7.980535759e-06 -4.450506714e-05)
(0.0004346546368 3.932383211e-05 3.848967188e-07)
(0.0004594113697 -3.249591985e-05 -6.195024533e-05)
(0.0004679994528 4.727454351e-06 1.354037352e-05)
(0.0004847649076 -1.744915732e-05 -3.166943594e-06)
(0.0005138411054 -4.506689148e-05 -4.672881532e-05)
(0.0005160932794 -2.211135666e-05 -9.413329742e-06)
(0.0005602746131 3.597909237e-05 -1.150994384e-05)
(0.000578424566 -1.315784428e-05 -3.103269545e-05)
(0.0001948240487 -2.181364037e-05 -2.500912406e-05)
(0.0002800444886 -2.066321071e-05 4.743283675e-05)
(0.0003036125036 -2.635702945e-05 2.227484272e-05)
(0.0003314673064 -9.12717226e-05 4.792338175e-06)
(0.000336593823 1.797480254e-05 2.675314866e-05)
(0.0003055637835 -5.933322898e-05 7.319617553e-05)
(0.0003758498339 -5.858737933e-06 1.460238229e-05)
(0.0003950052889 2.515906988e-05 3.346547449e-05)
(0.0004055296496 -1.302425485e-05 -2.619652739e-05)
(0.000437801352 1.269314323e-05 -4.90705399e-06)
(0.000423174411 3.04967184e-05 -5.548866355e-05)
(0.0003956315968 -1.193689796e-05 -4.095431622e-05)
(0.0004511018465 3.069849043e-05 -5.68205166e-05)
(0.0004488942237 -4.705149881e-05 -4.620552216e-05)
(0.0004886382427 -1.731316145e-05 -3.156195434e-05)
(0.0005063447249 -4.084057398e-05 1.427531748e-05)
(0.000508470767 -3.368973383e-05 -1.685431825e-05)
(0.0005144463974 2.458141362e-06 0.0001151755459)
(0.0005070814156 -1.38520703e-05 6.571693426e-06)
(0.0005380009425 -3.683672288e-05 0.0001073328215)
(0.0002818398153 -4.933883115e-05 2.738014917e-05)
(0.0002655832161 -5.691876731e-05 2.292301375e-05)
(0.0003260776821 -6.282625561e-05 -6.366179985e-05)
(0.0003377530278 -8.591980513e-05 -7.284302103e-05)
(0.0003531147032 -5.283162442e-05 -5.304386986e-05)
(0.0003977814429 1.387549022e-06 9.732292363e-06)
(0.0003397097454 -6.608700741e-05 -0.0001017097689)
(0.0004180270364 -7.913770468e-07 -3.982088983e-05)
(0.0004176221996 1.702179887e-05 6.370550077e-06)
(0.0004104024244 4.410792481e-06 5.946776888e-05)
(0.0004550922533 3.310817159e-05 -2.992675686e-05)
(0.0004550675906 9.203139783e-06 3.704453083e-06)
(0.0004627573016 -2.181151577e-05 4.048162113e-05)
(0.0004678169994 -3.019030181e-05 3.001360699e-05)
(0.0004375047765 -4.654067719e-05 1.975277964e-06)
(0.0004513183039 -1.883938369e-05 -2.027226388e-05)
(0.0004655743553 -7.569673152e-05 -4.579416171e-07)
(0.0004954527851 -2.267200231e-06 3.987643872e-06)
(0.0004851576791 -2.557952224e-05 8.470674225e-05)
(0.0005237308015 -7.123131866e-05 6.498497736e-05)
(0.0002854397081 -1.224273816e-05 -2.803570511e-06)
(0.0003429223139 -6.136388255e-05 4.723565808e-05)
(0.0003423977986 -0.0001023772857 -5.481956292e-05)
(0.0003028689013 -4.910202304e-05 -3.927741105e-05)
(0.0002688550789 -5.573242883e-05 1.58173601e-05)
(0.0002979395676 -3.952878408e-05 3.76430303e-05)
(0.0003422575307 -4.391874233e-05 -3.695674043e-06)
(0.000355388381 -4.865054798e-05 3.306765916e-05)
(0.0003985377843 -4.146073871e-06 1.633402596e-05)
(0.0003881708378 2.957187447e-06 6.061303113e-05)
(0.0004159749957 -8.593081158e-06 2.711887317e-05)
(0.0004830394417 2.252587818e-05 -6.066461986e-05)
(0.0004251786766 -9.12007549e-06 6.090500201e-05)
(0.0004427137254 -4.933107232e-05 5.635609977e-05)
(0.0005107984033 -2.825905732e-05 0.0001155165015)
(0.0005079698967 -5.37247439e-05 1.065859261e-05)
(0.0004534768303 -5.565234981e-05 1.330444077e-05)
(0.0004832437772 -3.318322179e-05 -1.375502728e-05)
(0.0005247983002 -2.359599083e-05 6.659825202e-06)
(0.0005238440623 -6.612952073e-05 -1.665327106e-05)
(0.0002667272412 -3.912803284e-05 -1.312311981e-05)
(0.0002592639341 -2.93686913e-05 2.464423597e-05)
(0.0002430195555 -7.406963291e-05 -4.866349045e-05)
(0.0002280687205 -3.615393831e-05 -3.597731452e-05)
(0.0002355237169 -6.093843442e-05 3.398181961e-05)
(0.0002623939689 -7.443830363e-05 6.092548884e-05)
(0.0003230592317 -0.00010972284 -7.75449113e-06)
(0.0002943282391 -3.213988565e-05 3.882253445e-05)
(0.0003531274111 -4.556696231e-05 1.217304974e-05)
(0.0003913900842 -1.325035762e-05 3.733203622e-05)
(0.0004144886926 -5.867007211e-05 -4.336784859e-05)
(0.0004297937284 -2.270332078e-06 -7.531213701e-05)
(0.0004745901468 -9.772156811e-06 -5.411355464e-05)
(0.0004690947122 -5.134028052e-05 4.249172624e-05)
(0.000435979926 -5.072103556e-05 7.09173556e-05)
(0.0004799649028 -4.126665641e-05 9.308234161e-05)
(0.0005156519117 -6.519085091e-05 0.000140595815)
(0.000497426832 -1.757291799e-05 4.280306335e-05)
(0.0005151370383 -2.238969532e-05 1.275871133e-05)
(0.0005406574484 -8.579987485e-05 -1.865830417e-05)
(0.0002347757363 -5.727279277e-05 4.02484227e-05)
(0.0002695364299 -3.524688561e-05 1.843258733e-05)
(0.0002709453256 -5.491401293e-05 -1.487619441e-05)
(0.0002590674675 -4.707187596e-05 4.152018229e-06)
(0.0003146115593 -6.916093193e-05 5.516781798e-05)
(0.0003153906736 -7.860288901e-05 8.847533506e-05)
(0.0002931563045 -9.333591246e-05 1.790618183e-05)
(0.0002807252852 -2.586979647e-05 1.774569504e-05)
(0.0002736846444 -6.190676722e-05 9.22870638e-06)
(0.0002992001412 -5.820744013e-05 -1.607419213e-05)
(0.0003368174825 -9.030884372e-05 -6.273695735e-05)
(0.0003651541184 -4.057197103e-05 -6.810191004e-07)
(0.0004448853346 -6.869082338e-05 -4.585733734e-05)
(0.0004529137457 -1.716888685e-05 6.485804655e-06)
(0.0004448965329 -4.809117512e-05 -7.445402399e-05)
(0.0004071007617 -4.636714224e-05 4.961559581e-05)
(0.0004251235672 -5.00642942e-05 9.899446283e-05)
(0.000459282142 -9.489781022e-05 8.930833526e-05)
(0.0005178184468 -3.506290155e-05 -2.168230624e-05)
(0.0005502092938 -7.351810125e-05 -2.899860367e-05)
(0.0002077337702 -5.338630571e-05 -3.852401304e-05)
(0.0002493092107 -2.744096363e-05 -2.429113187e-05)
(0.000229639619 -4.289690216e-05 8.51662958e-06)
(0.0002677659635 -9.268327089e-05 -2.505381187e-05)
(0.0003106271893 -0.0001308671501 1.611795932e-05)
(0.0003266801432 -7.107996077e-05 1.416477201e-05)
(0.0002620399212 -2.100329822e-05 -1.663049171e-05)
(0.0002752433929 -6.445803518e-05 -2.81986185e-05)
(0.0003048890235 -8.628914438e-05 -1.151841845e-05)
(0.0003472335417 -8.496163965e-05 -8.414996061e-05)
(0.0003675191973 -0.0001114503401 -2.169840481e-05)
(0.0004365963739 -0.0001152813586 -4.660518307e-05)
(0.0003964269999 -3.393787164e-05 -4.163198601e-05)
(0.0004181351613 -7.446512692e-06 -1.158419088e-05)
(0.0004256876228 -6.370469129e-05 2.789505815e-05)
(0.000480560742 -6.569082886e-05 9.780667445e-07)
(0.0005524213646 -0.0001093037679 -6.082860114e-06)
(0.0005548720576 -0.0001007176681 5.400427536e-06)
(0.000576948398 -7.381041464e-05 -2.105935923e-05)
(0.0005887297985 -0.0001224219773 -6.335609124e-05)
(0.0001804559715 -2.711528448e-05 2.718360621e-05)
(0.0002149387278 -6.6864507e-05 1.786191057e-05)
(0.0002988536461 -8.087206256e-05 7.851512787e-05)
(0.0003262037033 -9.98401622e-05 5.348484943e-05)
(0.0003068623307 -0.0001644756468 5.957045207e-07)
(0.0002731150778 -2.971917769e-05 -1.39284897e-05)
(0.000336307525 -4.841926254e-05 1.003119147e-05)
(0.000405506768 -9.611321786e-05 4.561002512e-05)
(0.0004093696166 -9.034097608e-05 4.791188215e-05)
(0.0003888872418 -9.032898947e-05 -1.408961334e-05)
(0.000390304994 -0.0001827086784 -3.553428511e-05)
(0.0003851115656 -4.47469779e-05 -6.44988557e-05)
(0.0003314963723 -5.598596663e-05 -7.299967717e-05)
(0.0004099699267 -8.709113918e-05 -9.385864528e-05)
(0.0004822904846 -2.398923472e-05 2.96652043e-05)
(0.00046466761 -8.999525812e-05 -2.287804595e-05)
(0.0004724289129 -0.000141401259 1.602303975e-05)
(0.0005031006666 -0.0001367625419 -3.397294229e-05)
(0.0004878666695 -9.289871752e-05 3.448163393e-06)
(0.0005165301521 -0.0001172575608 -1.84226852e-05)
(0.0002613311773 3.004763516e-07 4.498104871e-05)
(0.0002833179457 -6.713745219e-05 -1.454311364e-05)
(0.0002644191448 -0.0001395713717 4.853550933e-05)
(0.0003265695454 -0.0001169070364 -2.150058064e-05)
(0.0003178801053 -9.531113342e-05 4.595623891e-05)
(0.0003420850966 -9.016676304e-05 -7.92338295e-06)
(0.0003675037687 -6.795030609e-05 -1.963813906e-05)
(0.000335810886 -0.0001357445641 -2.066619948e-05)
(0.0003618350562 -0.0001027992441 2.334302672e-05)
(0.0003950311598 -6.842306581e-05 4.347173986e-05)
(0.0004088059274 -0.0001388177908 -2.357265774e-05)
(0.0003860547752 -8.112941255e-05 -0.0001090710798)
(0.0004230123026 -6.797096381e-05 -6.037433391e-05)
(0.0004348467264 -0.000145857617 -1.031614882e-06)
(0.0004570123135 -4.737130535e-05 3.202699743e-06)
(0.0004978685468 -0.000116389855 4.275796834e-06)
(0.0004649151529 -0.0001079747506 1.117873149e-05)
(0.0004719250402 -0.0001326480686 -2.107763591e-05)
(0.0005304801886 -0.0001122028146 3.615211089e-05)
(0.0005187048688 -0.0001026004458 1.846380818e-05)
(0.0002569636351 -1.707307741e-05 8.507432532e-06)
(0.0002813269367 -9.497990441e-05 -6.201493962e-05)
(0.0003294341884 -0.0001362129021 -1.44205275e-06)
(0.0002894622481 -0.000117727349 9.45477958e-06)
(0.0002888589846 -0.0001149948628 1.58312095e-05)
(0.0003460546282 -0.0001101795926 1.09769477e-06)
(0.0003762008947 -0.0001118026918 8.291586074e-06)
(0.0003952049344 -0.0001028319476 -4.461602365e-06)
(0.0003611757888 -0.0001000941795 2.510887671e-05)
(0.0004117734491 -0.000142324541 -1.939610601e-05)
(0.000402934858 -0.0001008783928 -8.568760826e-05)
(0.000406064845 -0.0001092131696 -6.408880034e-05)
(0.000436537137 -0.0001221913628 6.308360026e-05)
(0.0004822346584 -0.000128108654 3.003575657e-05)
(0.0005077498761 -9.042927102e-05 4.530232874e-05)
(0.0005321097473 -8.646235455e-05 5.198570884e-05)
(0.000514297412 -8.762971028e-05 -6.447276687e-05)
(0.0005585319963 -0.0001503671446 -3.588971478e-05)
(0.0005199224644 -0.0001285070846 1.318660561e-07)