/*--------------------------------*- C++ -*----------------------------------*\
  =========                 |
  \\      /  F ield         | OpenFOAM: The Open Source CFD Toolbox
   \\    /   O peration     | Website:  https://openfoam.org
    \\  /    A nd           | Version:  7
     \\/     M anipulation  |
\*---------------------------------------------------------------------------*/
FoamFile
{
    version     2.0;
    format      ascii;
    class       volScalarField;
    location    "0.002";
    object      overallT;
}
// * * * * * * * * * * * * * * * * * * * * * * * * * * * * * * * * * * * * * //

dimensions      [1 2 -2 0 0 0 0];

internalField   nonuniform List<scalar> 
2400
(
289.5963278
298.714352
294.3899771
291.3893538
292.8146847
295.0235983
296.4237896
296.9508597
295.7831904
296.4805227
300.3214377
296.9997655
300.7993532
299.4976902
302.145955
312.5004842
333.0237554
383.9412968
516.6995845
949.3760503
291.4686599
301.8736061
297.5682545
299.2716502
301.6053944
299.0019294
298.5016242
296.8343708
297.3155419
296.8537654
301.4553412
303.1624374
302.1915983
308.7831586
306.0257231
319.2058861
347.9201928
416.5160805
574.9901156
863.8608448
293.9836187
308.0373541
301.8156349
301.772393
301.8367144
300.1484121
298.2219693
299.8437967
300.8455158
301.5859962
300.9320017
298.421476
299.772537
306.0364691
312.6282411
319.5024595
344.2981203
398.0527972
547.3958005
711.5536685
295.4817973
301.9321656
297.6358525
298.4121746
296.3308181
298.8332522
297.7360375
297.7541379
298.5912563
299.4152597
302.0787046
303.0894639
303.0197442
308.8045903
303.359799
316.9049093
345.6634296
393.686813
475.9069693
581.089212
296.3001914
305.5239734
302.1948252
303.0315377
303.2888857
301.6819846
302.8093406
304.1466111
302.6586634
303.0025239
298.7969665
297.8405294
302.8623337
307.1538145
309.0834851
334.0141832
354.6857045
383.3841566
424.9558787
529.6197322
301.167816
311.2445729
306.8755081
307.3105916
307.5821454
304.2258668
303.8032509
300.980359
301.7657853
302.3148044
300.3245137
298.7188576
300.5702179
304.8926285
308.2116542
324.0726056
328.9026702
354.4996373
372.720468
459.0463443
294.5958678
303.0743557
299.7417962
298.871004
299.2293567
297.6751963
298.5642111
301.7984779
301.5880859
300.7415685
305.9096158
305.7613146
305.804228
315.5688719
314.8596832
326.9889077
329.7930161
333.5674352
344.5697678
403.210644
293.7112693
305.4094581
299.8920931
297.7650336
300.4767661
300.2030873
299.0718398
296.8515026
295.6094262
298.2480483
298.8601167
297.1494089
298.8168036
302.6751539
302.4390697
310.5638613
315.635496
316.9843013
342.716719
375.9271732
292.6496591
300.3603393
294.2258418
295.3815594
292.3773616
294.7589442
294.0830734
294.6137993
297.3192274
299.9512773
298.3909852
300.3368926
303.9088083
308.6583938
313.9483233
314.2204519
309.8425904
318.1442102
328.686182
346.4934953
291.6197412
302.9592144
301.1084739
302.0822292
302.766249
304.8771297
304.5578338
306.1539446
303.4466306
302.3988625
301.4726933
303.0583391
302.6666336
304.8861661
302.4861097
307.6671625
310.8043192
315.0235685
319.5673139
334.6140299
297.5071664
306.6598888
303.4575598
305.5476034
302.3715395
302.4662843
301.6091922
300.0417189
301.43859
302.4382818
301.6434396
301.0382521
300.8473699
304.2598482
301.7268509
304.4488049
306.6556229
307.0418898
315.285653
325.3650784
291.7629055
303.2455292
300.5829966
301.9194275
305.2273568
303.2311041
303.8073957
304.820538
302.9534729
299.3711203
301.5324051
300.6344656
302.9716432
303.9913849
300.5821881
303.0760682
306.0292849
307.7419321
325.7329002
333.3394514
296.1016325
304.7132877
299.1114528
301.5614652
303.4522004
304.8048018
305.6912102
303.9095547
302.718318
303.8346119
301.4628872
299.8893344
300.009386
300.9278725
300.7026863
297.400886
299.9494216
301.3369917
311.8645615
319.8683699
294.0580595
301.0508873
297.1265278
302.0735482
300.957855
300.1345301
298.884294
299.0283338
301.2558583
303.4978733
303.1509724
311.198827
305.7764205
299.286878
302.9624692
302.2854708
307.4873641
311.1377499
310.9478685
312.2303243
292.5636479
304.3464625
300.9874019
296.8933088
295.25719
296.6109751
296.8671771
298.0630444
297.187479
296.3619717
298.3370083
301.9138864
300.8054244
302.4619549
303.8209492
303.6461582
306.9537386
304.4090582
311.9156946
316.3366729
295.5850143
303.4847096
297.428822
298.5553837
299.8563547
298.5960794
298.2008772
299.9689048
298.8134969
299.13108
300.658255
298.0898275
301.2127475
297.8115641
299.8540656
302.4084938
304.6898906
305.1011769
310.6355099
312.8899642
293.6532628
303.1186795
299.63872
298.9997935
298.9927787
297.5138392
299.1606873
299.0803531
301.3053964
300.9059413
297.852434
299.1538334
298.5124382
302.8248678
305.0101668
300.8404579
299.6622447
298.5042978
302.1101971
310.3017205
288.2317561
296.3809242
292.4473027
293.8878231
295.6643487
297.8389566
298.5418693
300.7847079
298.5662777
299.6093634
301.6774111
302.7906227
304.691407
302.6234383
301.2461733
302.3226169
301.2821713
304.4691577
302.5356188
304.9544722
295.1234163
305.422767
303.6701382
300.277177
298.1541218
297.6183951
295.0518598
293.9379389
293.7264416
295.9422845
298.2567191
297.0202767
298.071061
298.9999221
299.2528282
302.7781618
301.0116891
302.3755685
307.7927482
308.9722331
295.6775771
306.7957005
300.0978561
300.5280918
301.8930124
299.4028696
300.5161408
301.6102934
303.5571329
304.0361793
300.8026083
301.1835538
302.3502156
301.8610947
301.890521
301.919809
304.6145559
306.7365776
306.65012
307.0787367
295.7406199
305.1013688
301.4920893
302.8927924
304.4219523
303.3808878
301.8724168
301.3797761
297.0172687
296.6946349
297.7253226
297.479576
299.10648
299.5079713
298.580798
298.7328333
300.3856845
302.4157145
302.0003362
296.418479
298.0571604
308.0039094
303.4406874
303.3924341
302.5495104
303.2659973
303.9550288
302.1730972
304.1578872
306.3275526
305.947354
301.9578799
301.7744287
301.5664637
299.8223169
301.331876
301.9538748
302.640718
305.5899038
301.1991932
300.3427273
306.3468112
299.6155267
299.9450128
300.4588227
299.7662987
301.6035352
302.5564025
304.0595483
302.9037473
303.6529479
304.1671007
302.8079733
305.3941729
303.134361
301.5474602
298.47458
301.0680027
303.4848473
302.9642568
287.7308757
300.5616378
295.9144201
299.2263752
297.3714556
300.0022059
299.5368937
299.8886591
297.7878496
298.051519
298.0864021
300.8902011
301.1314578
300.0650996
300.387727
301.2830881
303.6215718
302.5378614
301.6116682
304.1653782
291.9821991
303.888129
299.0392649
302.3815309
304.6233007
303.9233048
301.6941725
299.5960546
300.5092172
301.8151433
300.7624623
298.5647833
300.6435824
302.7355244
302.3202052
303.0575096
302.1214598
300.8943835
298.7786753
305.0532213
290.9956069
297.6113754
295.3282471
296.7380999
294.6993825
299.1564757
302.1798284
301.9587361
301.949728
301.0780937
302.8021412
302.4309901
301.3368778
300.7862963
298.0974423
297.1954183
300.0880458
301.0424693
303.9810842
299.5559155
299.7789866
310.2352511
304.7150101
304.5290337
299.0573881
296.5668314
295.454815
296.0673654
297.9300726
296.6878081
295.9355032
297.1767994
297.6794374
297.3052011
301.0360689
303.0300714
306.9253708
305.8604899
303.957011
304.1947585
295.4254585
307.1038423
301.5406022
299.2672473
300.383795
301.0455277
300.5557385
298.9510038
299.2796046
300.1361348
298.7146
297.4329142
301.2256496
304.0034455
305.8204939
303.4465433
303.8047714
301.6274269
298.4668624
299.5888499
296.002446
303.7158882
300.2887818
302.0461426
304.126191
303.0264335
303.4212262
304.0927783
302.9994557
303.242625
302.519883
305.4414649
303.4452775
300.853211
299.0387599
297.8446798
299.6751732
302.4725989
302.6017455
303.7658397
297.0548981
307.141175
302.5807003
304.7572094
303.5194325
302.3312404
302.7981821
304.3226229
303.5425474
305.1972632
304.981162
301.8529483
303.7234265
302.2801946
303.1526055
302.5564685
301.8420299
303.9754601
303.4135399
303.1129916
291.2150895
301.4448373
298.1786702
299.3486484
300.3400512
300.2566286
302.4101009
300.7723787
302.9152496
300.4293988
300.6676014
300.9835767
300.7939264
299.4916337
299.1459135
298.6896017
301.7525743
300.9105639
299.2189973
299.3312717
295.1338481
303.8579706
300.2606361
300.7751614
299.0880586
302.8118041
302.7805826
300.035205
301.1195775
302.5740743
302.9934112
296.4668442
297.3339996
297.4875336
301.429892
301.1914568
301.7168017
300.7784474
304.3110437
301.9832462
294.81234
307.1343553
303.2049765
303.1615629
301.9031728
301.0023249
301.8803473
302.366707
299.2880139
299.6566691
297.9980342
300.6063423
299.779568
298.3075919
298.4016456
296.6872063
295.653841
296.5293547
295.1932286
298.1947559
296.6991864
304.6730716
299.8210695
298.7475003
299.2918407
300.2418491
296.4506854
294.8935655
293.9656894
296.6736435
299.9091405
297.8326417
297.2256094
299.3722847
299.208376
298.5701228
299.6767167
300.3820926
301.9146513
300.0204372
296.1094551
302.334561
295.584533
297.4563264
295.5692444
292.3235766
297.1759978
301.1550872
300.082883
299.2268463
300.0953627
301.1701956
299.7248655
296.6600436
298.6130841
298.778853
297.0121775
297.0171507
297.8666824
295.8760411
291.7022897
304.9406346
302.3707456
299.6411822
305.5805213
306.3694349
303.3409893
298.6175968
300.2876533
299.8449607
296.9338499
297.3345354
301.4782397
300.9664611
300.3638416
301.6503462
303.8107567
300.8485742
299.2120692
300.8471063
290.9416155
298.468637
294.6994395
296.4593679
296.3730348
293.4726255
295.5419227
298.5278378
295.5102269
299.2082066
301.1765372
300.6274903
299.4764581
300.3573509
298.2494409
299.7268074
298.5414596
301.2184733
301.9038484
298.9877376
290.8665543
301.2475647
296.3660658
297.9060798
296.522949
295.9797631
296.7469686
294.8742319
296.1165831
295.7144827
295.9254912
295.1390112
294.8184302
293.5989472
293.4164686
294.1131571
294.2373819
295.7658471
294.2778728
294.990401
293.8399336
303.8080888
297.0131601
295.278001
297.3186158
298.2505877
298.0895112
300.479419
301.7292438
301.3609173
298.0141486
296.069078
298.1518872
297.6207035
295.4471221
295.7853325
295.1686733
294.9531638
296.4105651
296.6117038
292.128417
303.212393
302.5398429
302.0529028
302.1657506
300.4454551
299.2177227
297.9472639
299.1729897
295.9281129
299.7549741
298.7621675
299.7898413
300.2270174
300.4488672
301.7005506
300.1940192
299.1878462
298.2505039
300.3118819
1047.786556
996.4321818
963.142974
942.9606017
920.0946319
905.501807
890.7865203
872.319752
861.943895
856.3172089
849.9471268
826.0115734
816.7936347
803.5286333
811.6241796
815.7416205
799.8242009
799.8007547
782.055737
785.7606789
789.2993679
777.1672916
786.7963047
777.6200812
770.0031135
777.0889196
779.5606948
777.1519495
758.5644242
757.8080251
770.852582
757.2698162
769.295713
762.5348403
732.9704903
740.8630913
741.4858491
757.2197699
738.9102178
740.6681311
1012.710614
1020.749844
992.5357779
976.8625271
963.8657565
965.349337
944.9823007
945.2454568
960.0336822
939.2480731
927.8180744
916.2198569
915.4130799
893.6794902
909.6037708
893.3272153
895.8746484
882.2701182
899.335278
879.5584773
874.0102546
876.8148376
866.4614112
861.5500297
858.2903665
848.2932082
846.0490818
845.4676509
832.3179318
836.260263
842.2593249
822.0848328
815.9571835
824.593998
815.5753016
803.0700926
810.052109
791.314612
778.6700863
751.8623569
870.9883095
922.4099866
917.4446652
958.6573413
932.5674288
935.3239488
932.5858343
943.7902441
933.3176771
934.4924572
919.470809
916.5250564
910.3212527
912.2708196
906.7032222
918.0790593
910.6562952
912.5949023
910.8038356
918.8235486
919.1130873
916.3928094
908.3313896
896.7484528
891.8727145
889.1658609
898.6905217
887.8786926
893.7272239
881.8804808
870.6661412
853.9434698
860.6595962
875.1628154
858.5072476
834.5696588
835.1882763
819.3497733
792.5921183
753.3124514
726.5641002
765.5546071
842.1765377
875.4881448
886.5939105
891.1088823
897.467867
908.5260331
890.2142641
899.6594306
901.8718584
900.7944069
910.624991
899.2279347
911.3977092
914.0038849
914.4445869
908.1543076
899.0491139
916.1629234
919.9472509
917.1354556
921.4873227
911.7929164
920.5439006
906.7633478
890.6133861
894.6388076
896.6779591
887.9316422
887.7228245
882.3782822
868.3071345
864.4323275
863.0797476
834.4827308
831.8611223
816.1373905
797.816351
765.9811652
634.4603672
693.1000067
763.6384122
791.8270969
815.109942
833.9477976
850.4333145
860.1595979
857.9415503
863.1293889
866.7941732
876.9916861
863.2849863
874.7698068
874.3704925
882.0612083
888.1265643
892.7005192
894.8016107
888.2186929
900.8332804
901.3888639
899.3610813
901.9178422
890.7973215
888.6139531
904.3776427
885.09223
892.9435626
887.2031965
885.7338344
893.4426727
876.0510796
873.1328006
861.4675861
841.2897643
835.1364477
821.8555704
813.8252892
785.7663117
528.9573916
594.3562842
648.6147886
701.0985362
730.8583577
764.4868946
821.5700047
801.1732064
817.163026
825.5245873
815.4484151
834.3729478
835.2533541
840.1584608
847.4899193
849.6277608
858.933804
849.7424431
854.5837173
853.087303
868.3024326
861.6283098
868.6953111
867.5281155
865.6930095
869.3007267
881.2754975
882.9026702
892.6543433
891.0151227
884.7670515
892.3099153
877.6223846
865.2286422
847.4508911
852.9152648
833.017542
828.2324508
812.7984267
787.7938727
456.3585864
518.1641892
543.8646664
627.2208969
660.1568049
682.5993575
734.5748491
761.5076457
778.4080305
788.7701617
790.7342595
812.6202467
799.5896346
808.210462
813.9923456
823.1843571
833.8965909
841.2134102
837.0085129
849.3684796
856.3144085
849.5583506
860.6655802
858.9056385
862.7594608
855.2094113
846.9530406
860.6173412
875.2464744
861.8343263
879.2705613
867.546547
873.6387278
866.6067001
847.5059346
839.0086203
832.2416379
828.8972136
802.5613765
780.8652104
419.3600492
454.9704169
513.3048794
531.541389
592.3935397
627.5733127
657.3693257
693.0581549
728.6912766
743.5792608
761.8479916
777.0440456
773.0258917
786.5476524
795.7669764
801.77444
798.9618121
802.5652289
809.6275461
823.7697281
827.2931415
822.6215595
830.1985954
849.0822181
837.4150746
835.5371392
846.8384241
842.2938724
850.4646527
837.656088
841.7488172
855.2712768
848.5214379
863.3698822
850.0904276
831.0862191
830.3320726
832.9118742
815.2308047
800.4332608
381.4250189
424.0651394
466.4592603
474.3330049
505.2595424
554.647125
578.1201142
614.3125339
656.3483601
673.7659096
700.8819639
710.2945649
745.1172064
752.1028459
755.3909137
771.0435129
779.900081
783.6902389
790.4784945
791.9453143
798.0325923
805.5679444
806.8795538
817.4538976
803.6268139
825.190103
828.2779656
826.6942144
818.8083127
819.0471382
822.6966964
820.4641872
825.248979
824.6801453
837.6434734
825.1285183
815.9968784
811.3397112
806.9917163
780.6093303
358.6480592
381.543111
412.6984826
435.7552681
457.5552192
473.6072412
518.4051075
552.4213415
596.8378009
611.3845375
643.6212468
661.3821512
702.2784874
711.5685171
729.6026498
735.4208679
752.7944161
765.3693178
764.2041654
762.3919788
772.8283231
776.5815469
779.4520816
787.5203309
794.0203653
800.8463257
813.5745735
812.2404303
808.5377487
810.2156033
800.1906622
803.0522868
811.3958303
811.7417662
810.2097205
806.1448008
808.6417135
783.0741684
770.9348771
778.1245984
336.7913366
365.7143655
392.6940989
400.0335399
409.7845273
429.6649512
460.9080322
496.1662422
535.2635084
557.2216662
594.6553222
610.9890797
645.7396842
675.7831471
685.7462502
691.090476
729.1599571
721.6845414
733.0310566
739.3246988
743.7237699
758.8927142
749.8087379
763.8481633
773.5488619
777.5912263
789.8993283
779.0834548
782.6666003
782.0445831
798.2738822
796.6359448
805.5019899
804.2576163
803.4141952
799.0966111
791.4699732
779.0957654
763.0354614
758.4562128
328.6696402
339.1596192
356.5179952
383.7580097
388.1794789
411.2889844
441.7919077
468.367985
478.4860032
514.2639274
528.8264534
575.5643182
590.2303531
614.4467903
640.2648057
661.9056102
676.9043324
688.7884249
699.1489494
714.93652
729.4479557
742.0751335
737.7287642
745.7403706
755.8783292
759.7919511
761.5800253
756.1819551
758.5063627
773.8814934
772.8766765
777.3043147
782.9267107
789.5519371
777.322391
783.0912148
781.8024153
768.2180075
767.3535919
750.8417823
323.9539315
327.0275532
345.79734
358.6050721
359.1364717
374.186994
407.5186543
426.3733926
451.1883108
456.132123
488.5566456
513.8296793
548.3712504
555.8934362
585.2993158
612.2708588
636.3180981
643.354711
655.9242833
658.4639963
676.9637885
700.6557013
694.4631691
705.9394234
712.4016859
724.6911697
741.4144783
744.3986339
750.5799642
752.8197169
755.4026328
754.1985217
761.234578
757.9017729
759.5239705
762.818499
769.4659565
770.2864345
776.0575399
759.5215921
314.3316174
320.507262
331.5793436
350.8100234
343.8415921
355.9436745
369.7858806
386.343283
412.7269432
425.9142536
447.7427336
473.391425
507.8233256
523.4274336
533.0388919
562.5642095
583.2721792
606.152446
629.525012
639.4116279
657.7729821
675.6536856
674.7038405
687.638365
695.2022419
699.2307588
712.2414816
717.3717083
719.7885129
729.4367832
741.5875441
746.3031575
751.7434887
750.0972579
749.9403003
754.0555501
754.5492312
750.7711356
756.1428338
748.4017667
314.8995712
317.4268784
326.0288253
331.2270224
339.4973128
350.2024442
360.0211153
358.1173666
372.8739645
392.6216105
415.0022109
422.6670539
455.0143435
477.5227377
498.3689435
524.6669747
538.9583229
564.6191276
579.2117681
595.7573253
640.837804
646.2271161
667.4983349
674.7198468
686.2115722
685.9464317
696.8834769
703.8154081
704.7399299
711.3421986
710.1811038
720.5855982
724.2454146
737.4027606
736.2699323
732.8991347
739.4763193
732.9953043
724.7863163
724.0919775
307.4956774
309.9140191
313.9545141
314.2405651
328.9996705
329.20741
341.5743965
344.9835226
350.8197166
368.1004566
394.1374814
399.4156781
412.6020369
445.5847759
455.4511579
491.142575
504.305868
524.8500687
555.9956538
557.4641666
585.661234
602.0986093
623.0056316
640.0542915
656.1206208
664.395493
676.5623806
678.1207342
692.2082885
712.5695467
705.8649634
710.1664113
715.635137
719.4721278
719.6638226
722.097704
724.7480946
722.4007014
729.7795851
732.9722494
313.5156459
314.7335513
318.230959
314.9658884
324.3577979
332.9179062
336.4281159
346.8584842
353.5082067
361.9248566
367.0108048
384.2731657
396.8146647
414.580568
420.3511711
446.5051979
463.3249749
482.4640383
514.5402919
530.1648903
545.1613764
562.7087396
581.8089187
594.5774911
622.0400505
641.0217633
650.2761967
667.3659364
669.223422
673.512834
691.8395308
689.1029619
700.233839
705.4296982
708.2318782
709.9734777
705.4155909
713.1352645
710.8406901
711.717859
302.1877714
309.6323153
312.5453029
315.7043716
325.2821294
320.4736962
323.9008617
332.133971
339.8129481
341.4404532
349.4628541
356.2374997
375.4588876
389.3998138
401.2224351
417.55879
435.3085488
456.980725
467.075176
499.8424279
526.1060117
545.7945461
554.8580494
580.8779249
594.6586793
613.0399714
619.447213
637.1866823
659.013297
660.3314859
672.0107342
675.7453262
682.966209
689.3499429
688.4766801
693.4188585
697.2816954
700.8210855
701.0919051
702.5541014
310.2859398
315.166094
317.6281898
318.1717085
317.8095456
325.883935
325.7298471
326.8320755
325.4037889
322.8140828
321.973791
341.1064821
347.3266457
367.6414578
381.521171
396.430208
409.7330511
427.9076302
444.803137
458.3302422
482.5201348
503.0084335
521.56418
532.6346912
561.7562223
569.3547232
598.38371
605.6261988
627.9043826
644.3409271
657.7574649
659.9801728
662.5697501
670.5165694
671.4325055
678.3004268
689.61235
697.7959372
685.6992869
691.0027619
306.9108423
305.9497461
306.2674428
313.2080137
313.3315924
311.2234409
312.1306649
314.1692349
313.0757937
320.6093838
320.3519993
327.9416793
339.0425085
346.6312315
368.6145693
382.1118284
385.2193845
389.1150391
402.2284056
418.6436669
436.6324311
451.7368249
472.4255788
492.3422777
514.7753999
539.8574734
556.5963102
577.7946017
592.0855775
619.4572281
626.2427967
637.4910088
649.5710373
658.2695862
665.2331649
675.3156583
674.4956967
669.7686813
668.6177504
669.1326267
298.3871631
295.1976313
302.8272093
305.6896608
311.1732705
311.4253941
312.1316895
317.9279443
315.3156242
318.9127616
319.3413323
322.6153058
332.3902371
330.8218119
342.0084473
353.3153469
367.5421904
375.7755198
385.3372509
405.9185565
409.5552649
439.5701495
441.1598675
456.1237227
477.1251533
488.8252705
518.4776688
528.4992582
561.4971214
574.0038925
594.1609611
606.7821499
617.6304179
626.3178724
636.6386642
657.3116461
655.5830109
663.8922456
661.1229174
661.2680127
305.332744
303.4290603
303.9351422
306.6501073
307.1987662
316.6286192
314.7037195
315.8879487
318.7156087
317.0026353
317.6853538
321.1039709
321.6127141
335.0990684
330.1978776
340.5480645
350.5930882
359.7482841
364.9879543
372.310697
388.5370689
398.6882794
422.514365
430.1564767
454.6342821
467.8374311
484.0400203
503.397416
516.5174103
538.9223216
564.3946743
583.9845404
602.4482775
617.0230289
613.7659243
630.054152
636.5407425
643.0194567
656.6473913
661.5727596
304.0997395
304.1470334
300.9820431
309.1475918
303.8706223
309.9602886
309.3210717
309.6821546
315.317014
314.0503447
316.9181866
311.4413436
312.1392275
319.862895
327.5618636
331.2795034
335.3768385
347.1317113
354.6601929
362.4428976
372.9801701
383.7260922
396.7797083
399.4871962
412.2059722
436.754663
452.953599
469.7413997
488.2420074
498.6934414
525.0466278
548.9636078
550.8438226
576.9910623
597.3571673
607.7761785
619.3209815
621.2636545
631.8310792
638.8911133
300.7291486
307.7415232
305.3442439
311.2896609
308.7032155
303.6770982
303.3090943
304.5342523
307.1134626
307.7382348
309.864273
309.9658271
311.962122
318.785195
321.2662117
325.3966112
329.0648355
336.115103
341.7041409
342.4480245
348.2486634
361.099963
375.8130475
389.9449094
406.4099333
407.7874634
424.8470327
444.8600833
464.5550167
480.9532959
496.0534023
524.3075023
539.250634
549.6986663
573.0962236
586.9690939
605.9284444
606.2388805
612.566193
623.1672539
301.3752775
301.8989648
300.2050977
300.2293331
300.2458314
306.4729604
304.808855
303.3112982
303.3309489
305.0304266
307.9697857
305.0459847
308.2718459
307.3345153
309.4726746
320.3559112
325.1858167
325.4224075
328.016987
335.2568656
345.034089
342.8655495
352.709858
366.6064077
382.4109725
383.2723846
403.1416056
421.9740784
432.1904052
448.1872749
465.3216197
483.8342567
503.4296337
524.9098869
535.901122
552.5015018
581.9262076
587.2890327
595.3733636
607.3250591
302.1134844
302.1088501
303.4270854
301.8711582
302.3664964
297.7067247
302.1012259
301.2761368
304.3659855
304.6707679
306.9958093
310.4819299
306.9090288
310.3376664
314.1081971
309.4074098
316.1990626
325.8479996
323.2242137
328.1173758
335.1221101
342.510374
346.289306
350.7882056
365.1991271
365.1637748
381.0071284
390.229163
399.3083221
419.5350507
435.8488483
451.7335822
467.4300612
492.7228819
506.6767342
524.5367811
549.2334521
565.8330833
582.0157518
591.3815224
302.6076768
303.7281217
304.3472529
302.7657361
305.5441714
309.0270729
306.0084077
304.5163602
303.9080944
305.3261399
307.482138
307.8196461
307.9212726
307.5896935
307.5440069
312.757137
315.5526093
320.6065002
322.789679
329.8321971
325.1944446
332.0375792
331.8481516
332.5345883
338.6842812
351.8629755
353.0987331
370.7586399
376.7581785
390.3189525
404.1597515
416.455581
431.625496
453.48217
471.4083605
500.3962892
514.6428878
535.0471921
565.2929945
568.2264142
300.366706
303.2409301
306.3360707
306.2379058
299.8860236
300.5553711
300.8863229
303.9130542
305.133178
304.5762463
306.2363432
308.1758184
308.7651256
309.1095155
311.6546236
310.7789215
310.1490391
315.3184572
319.7170548
317.0799602
319.8731849
320.0440382
337.3196531
336.245827
334.0244745
340.3608637
340.7469385
353.6267924
362.2341662
365.2608241
390.5271994
395.274226
411.3914212
421.855138
444.4594452
463.6053432
478.4024406
497.4887919
520.2555593
543.0383104
305.7530199
304.7293227
304.0074361
301.8923797
304.4093013
302.9395918
306.924021
305.4440153
305.6295076
306.924427
308.7180932
306.9426971
301.7454287
301.728882
301.1049869
302.6337523
306.6135016
309.1182328
310.8377028
314.0913089
307.9572678
308.8512796
312.3741147
321.7397356
324.5917267
328.2777726
337.5083142
336.282431
344.016041
359.8806627
362.6387961
380.9469812
387.1444025
404.7996022
407.0438377
429.8066185
450.5020293
470.619128
496.4666801
518.3600166
302.201875
303.5844027
303.3348791
306.1453486
304.9360432
306.8587939
302.8291439
303.0833582
305.3358195
304.3829084
300.9816406
300.7622005
305.5911937
304.1235345
303.6240234
303.4538042
300.9952337
301.1698113
299.4752691
305.1732849
311.2246182
315.3079565
309.556003
315.5736052
322.1287161
328.9381801
327.7944119
345.3878142
350.0615926
357.2528528
356.0963077
369.1388767
372.7241752
381.0628667
392.3606563
396.7417706
424.9394191
436.1487924
458.0758869
476.9731405
301.0571513
301.269318
300.1029923
303.2326881
301.7026994
299.693168
301.7492581
301.6237203
297.3651616
296.9627558
297.4962383
297.1178909
297.3761101
293.3823574
297.2564479
294.7384112
295.7963331
296.5119719
301.2160818
300.5536988
310.7650239
317.3752849
316.1424747
315.6070994
320.6058428
329.3889335
339.3693049
333.4973322
335.4684833
340.4828104
342.1871884
352.6483745
360.4549676
367.5123906
379.1162636
385.1873241
390.9511511
410.5840347
432.8463667
451.7885372
302.0622447
297.1246499
300.1732701
299.7030605
295.7220119
295.1542196
296.045634
296.4524699
297.228381
300.9373389
303.3719194
304.6991715
307.584521
306.2481765
303.5123164
306.0724097
300.8437552
299.9047861
304.0201497
304.9590029
303.6111072
309.8569231
319.3492715
322.24944
319.9827507
323.1981121
322.8745436
327.6676305
331.0776446
334.9411156
332.813094
336.8002666
350.3964996
356.8878956
364.4820202
375.053994
382.7570934
391.8057782
414.6638369
431.7222781
297.058583
298.9970718
297.4980131
296.8681622
299.1729486
301.1154996
302.3669854
301.8463375
300.010885
298.7194106
298.0418811
300.4333748
299.8255507
303.0227114
305.2359698
304.8465854
308.4372527
306.0452408
306.4017337
307.8363303
310.6057493
309.5133361
308.6188566
309.0595516
311.7415439
313.0337836
314.8906867
316.7339451
317.5526439
329.1560468
326.5066856
334.1538195
338.6934279
345.6012503
350.6998383
358.9360001
370.1122666
376.5861497
392.2547441
417.9804968
296.5851251
298.729569
299.5468359
303.4134708
299.8871626
298.5820028
298.2657205
297.7836631
301.8713342
301.4888389
300.6355882
298.9920636
297.1500724
300.0127935
301.4941757
304.3173082
302.136962
305.8087212
304.9616236
303.9864582
304.6565202
303.2940889
304.1981453
303.7634308
308.5326733
306.5063797
307.5116638
312.7101022
320.4518339
326.3469373
327.0980896
325.4758191
334.1450948
338.055618
346.7809737
348.5913432
364.7598945
368.902505
375.693617
388.8594462
296.9522012
298.2939547
298.9418591
295.7520302
298.5272784
300.4731592
302.5525135
299.0777142
297.5008936
299.4776449
299.1385705
299.345646
298.8309022
299.5215742
296.1956158
297.004432
300.4411096
299.8348855
307.5073941
308.2961214
304.1991472
309.0371556
307.6221203
307.5051351
311.4971756
309.8060366
307.316667
309.4052025
308.7454973
315.3714082
322.3131583
321.8747176
324.1615078
333.4508889
330.4567694
342.1324836
347.0709705
351.5422498
358.9280494
367.5827933
302.5610912
302.562098
303.6561312
303.1152453
301.5675868
300.0898256
298.4682868
300.0637752
295.7024095
296.4115565
296.107733
295.9287203
298.9193078
299.9219312
302.6907805
298.9517852
302.4494124
301.0686353
300.2882658
299.6482224
301.2702289
301.6006395
304.5711965
304.0466727
304.4820876
309.480874
312.3524402
308.3679824
310.5877352
311.685244
310.2704716
320.7773421
318.4529343
325.5738523
329.0155161
325.8730442
337.3419899
340.4972851
349.5672568
358.1658354
299.68239
299.3739912
298.717061
297.3205129
298.2845293
299.7491576
301.4718638
302.9192134
304.3420979
302.7807724
303.0989154
303.4284143
301.0844144
296.9671184
297.8808637
299.9904458
300.0403426
302.2269662
298.8489018
299.5085181
299.7400772
299.608846
299.1387114
301.899557
303.2039173
302.357196
306.3928545
308.3077356
307.3438969
308.1244692
311.4736427
312.3187606
315.8492736
318.8279869
317.9323476
322.1556182
320.3111335
330.335468
333.5262212
342.1480995
292.532183
294.430075
296.2486787
298.1425874
296.9157691
294.2474394
295.4755052
301.0578946
298.4461148
299.6454773
300.1795512
298.6541443
300.1215592
304.3227327
304.5162976
305.0178753
302.7189829
298.3278766
300.471424
301.1460349
297.1569699
298.446632
303.0285537
301.3020139
303.1941573
301.7989313
299.9976515
303.4098429
307.6441161
305.7157192
306.9458584
306.5399996
314.1566743
316.2300483
316.2790335
315.6891162
318.3722073
316.212309
320.2797141
330.5793031
297.3857826
298.7275127
300.5489206
297.4081714
298.9522923
300.1536928
300.993021
299.7839317
296.6357181
297.0842972
299.7119327
299.8056697
299.8670862
299.7461224
298.7796341
296.1778902
298.6889562
298.5564653
296.4193105
297.2778065
297.7681801
297.3711802
295.5633801
296.5855409
301.5509147
304.3980124
303.3337697
306.0832615
302.8741293
309.7993638
305.2885021
305.7250519
306.2349454
311.5606605
313.4750538
315.1092986
322.1034665
323.0006289
328.8408352
326.9801858
300.9951149
300.2290499
299.8590305
299.9629348
300.0951911
299.7694422
300.3190596
300.1927346
298.2900528
297.8039155
299.1566011
299.3048496
297.9803132
294.4341327
292.7557461
296.810387
295.9114962
296.5682619
298.1906068
299.7376573
296.6824933
294.1450512
295.4766278
297.5739045
300.7852606
300.278095
301.2548778
299.540747
304.0368182
305.2292806
302.6423418
304.7272058
304.7998859
306.5914511
309.9830906
306.9230024
312.4298327
316.7908303
318.9889722
319.2187515
)
;

boundaryField
{
    flow
    {
        type            calculated;
        value           nonuniform List<scalar> 
160
(
289.5963278
291.4686599
293.9836187
295.4817973
296.3001914
301.167816
294.5958678
293.7112693
292.6496591
291.6197412
297.5071664
291.7629055
296.1016325
294.0580595
292.5636479
295.5850143
293.6532628
288.2317561
295.1234163
295.6775771
295.7406199
298.0571604
300.3427273
287.7308757
291.9821991
290.9956069
299.7789866
295.4254585
296.002446
297.0548981
291.2150895
295.1338481
294.81234
296.6991864
296.1094551
291.7022897
290.9416155
290.8665543
293.8399336
292.128417
740.6681311
751.8623569
753.3124514
765.9811652
785.7663117
787.7938727
780.8652104
800.4332608
780.6093303
778.1245984
758.4562128
750.8417823
759.5215921
748.4017667