/*--------------------------------*- C++ -*----------------------------------*\
  =========                 |
  \\      /  F ield         | OpenFOAM: The Open Source CFD Toolbox
   \\    /   O peration     | Website:  https://openfoam.org
    \\  /    A nd           | Version:  7
     \\/     M anipulation  |
\*---------------------------------------------------------------------------*/
FoamFile
{
    version     2.0;
    format      ascii;
    class       volScalarField;
    location    "0.002";
    object      p;
}
// * * * * * * * * * * * * * * * * * * * * * * * * * * * * * * * * * * * * * //

dimensions      [1 -1 -2 0 0 0 0];

internalField   nonuniform List<scalar> 
2400
(
0.3021734629
0.4146726787
0.4064621993
0.3954428087
0.3977558873
0.3990003722
0.3990082887
0.4005362121
0.3970061383
0.3976192462
0.4115519127
0.4025223974
0.4096266728
0.4046838401
0.4116033224
0.4320088055
0.4753591189
0.5920036143
0.933874957
2.418426544
0.3087290725
0.4156216297
0.4100427708
0.412522425
0.4239272559
0.4182762186
0.4177941508
0.4173005001
0.4209443262
0.4133591287
0.422449771
0.4219210542
0.4173313348
0.4327243619
0.4297492221
0.4581912133
0.531082453
0.6874456924
1.108981725
2.109375053
0.311133147
0.4377598095
0.4253557561
0.4229759255
0.4217311492
0.415591155
0.408911139
0.4108957376
0.4114478558
0.4176845047
0.4215552338
0.4151295957
0.4211754379
0.434171015
0.4546920635
0.4671367937
0.5237042913
0.6505015301
1.029513795
1.528389783
0.3106593111
0.4130357462
0.4079212388
0.4165786122
0.4094805073
0.4165643291
0.4157911152
0.418358845
0.4181936748
0.419656791
0.4220298626
0.4231839232
0.4267344273
0.432967647
0.4216502806
0.4622863538
0.5170020358
0.6410710857
0.8546972991
1.165074062
0.3144318197
0.4283361696
0.417139511
0.4099607867
0.4172533214
0.4170117289
0.4206515538
0.4204607134
0.4183813351
0.4134464118
0.4101308068
0.4127231834
0.4217143821
0.4325681408
0.4310217431
0.4817174694
0.5327495611
0.592493719
0.6986513128
0.9613490454
0.3207940121
0.4284985371
0.4254025146
0.4165365441
0.4162357735
0.4114465361
0.4079231528
0.40849686
0.4076573258
0.4082572306
0.404904332
0.3973990445
0.4038222226
0.4301457099
0.441600277
0.4774639945
0.4853292668
0.5379918772
0.584068855
0.7928722905
0.3129816365
0.4158219984
0.4137519521
0.4182963091
0.417218487
0.4089697415
0.4020827247
0.4099833542
0.4067476971
0.4040996801
0.4168344514
0.4203902905
0.4211498037
0.4338268241
0.4371626773
0.4678355695
0.4833428454
0.494223863
0.5200575759
0.6682760268
0.3161027712
0.4269202178
0.4115481182
0.4005808419
0.4093359462
0.409306742
0.4114740201
0.41043714
0.4122218539
0.4270066623
0.4288394346
0.4308347746
0.4290812317
0.4329762011
0.4353463344
0.4501971622
0.4592319625
0.4603664114
0.5221848861
0.6005766017
0.3112108047
0.4220026181
0.4116783154
0.4159044648
0.4142084133
0.4229599814
0.422614425
0.425810883
0.4256210385
0.4303748404
0.4189298722
0.4218698796
0.4283416804
0.4383802617
0.4442319435
0.4447287915
0.4345324124
0.4631376266
0.4839584073
0.5263882356
0.3139301298
0.4229861378
0.4259984875
0.4349792134
0.4334049572
0.4340529335
0.4352663507
0.4367689067
0.4236990718
0.4218335682
0.412556382
0.4253574622
0.4257818638
0.4317897762
0.4236297969
0.4393218853
0.443519106
0.4592438318
0.4735562663
0.5046276985
0.3140393544
0.4267431293
0.4205942179
0.4262096394
0.4225779201
0.4268200392
0.4211145101
0.4203687711
0.4231571648
0.4294139844
0.427750129
0.4225094066
0.4201757129
0.430339821
0.4256683669
0.4284402372
0.4405792632
0.4432749905
0.4609491381
0.4905283532
0.3068898208
0.4263596074
0.4225151297
0.4171876403
0.4310244614
0.4219506549
0.4144950167
0.4189453294
0.4129215429
0.4095838135
0.4159657456
0.4204690636
0.4264747968
0.4304243393
0.4213047853
0.4267580515
0.4254699443
0.4255345073
0.4603223264
0.4823267743
0.3155397098
0.4245415865
0.4193126661
0.4122049453
0.4153242674
0.4218000601
0.4295760004
0.4319997845
0.4328051954
0.4256910348
0.4191214173
0.412682142
0.405842109
0.4032958737
0.4064782007
0.400818373
0.4075984526
0.418556315
0.4424167624
0.45556787
0.3149818952
0.4182485978
0.4058341052
0.4221657551
0.4156579153
0.4101163962
0.4090396727
0.4108241836
0.4111816633
0.4192559176
0.4197793543
0.4381253245
0.4267872139
0.4147429369
0.4158146457
0.4206176546
0.429977179
0.4373864036
0.4422538821
0.4434756492
0.3055356179
0.4181084579
0.4187762349
0.4024825505
0.4105901842
0.4074477022
0.4028946469
0.4036040352
0.399185113
0.393092714
0.3982655387
0.419013712
0.4165491053
0.4228341085
0.4303295199
0.4230647379
0.4323068583
0.41875856
0.4404134736
0.4485717235
0.3073303298
0.414209081
0.401280484
0.4068327776
0.4077936269
0.4097616609
0.4090915562
0.4179701521
0.4127726423
0.4157723631
0.4174729099
0.4108281918
0.4169295575
0.4076029098
0.4029650793
0.4050150864
0.4107868074
0.4100257153
0.4359426217
0.4396848626
0.3066501008
0.414219066
0.4110915133
0.4092069355
0.4148492521
0.4114418005
0.4214571431
0.4240241398
0.4333685591
0.4295703363
0.4194591516
0.416942518
0.4122130933
0.4305003221
0.440202938
0.4333840697
0.4319486033
0.4223077706
0.4285902069
0.4444288679
0.3062357799
0.4154420135
0.4090254655
0.4102921715
0.4101688907
0.4114492856
0.407718862
0.4112893001
0.4048306549
0.4101959235
0.4150613251
0.4229931964
0.4295991942
0.4235096667
0.4231209068
0.4253056346
0.4225141602
0.4326492009
0.4256814272
0.4313946955
0.3086422738
0.421117867
0.4207215854
0.4208950373
0.4156295348
0.4186221221
0.4136691014
0.4124404272
0.4098216166
0.4151646181
0.42284501
0.4162069532
0.4196678406
0.4233972046
0.419759894
0.4219908844
0.4171214068
0.4183288914
0.4281410866
0.4304349318
0.3206238348
0.4346691933
0.4202961158
0.417320607
0.4175625941
0.412191822
0.4132403135
0.4170964513
0.4156157475
0.4180796682
0.4125464893
0.4157278218
0.4160229812
0.4152807337
0.4162817716
0.4194133772
0.4258067417
0.4318973814
0.4370089034
0.4349443152
0.3152484486
0.4253447772
0.4203211509
0.422656086
0.4235184874
0.4230786952
0.4191635052
0.4190122993
0.4117804214
0.4061201833
0.4168534141
0.4155909178
0.4232770851
0.4224350427
0.420252611
0.4180044355
0.4237108993
0.4294394112
0.4327341667
0.4190007334
0.3150038314
0.4283744756
0.4194782044
0.4136054478
0.4102453366
0.4187620794
0.4170083017
0.4154776163
0.4208801623
0.4231560507
0.4187264347
0.4122740737
0.4093742711
0.4076877193
0.4096588008
0.4145120713
0.4172378604
0.4156935854
0.4170653604
0.4058013141
0.3185236251
0.4211659893
0.4100712506
0.4098800167
0.4152156802
0.4129526499
0.4171337536
0.425525377
0.4234048214
0.4167311231
0.4235764101
0.4254615407
0.4151787142
0.4195407843
0.4132926054
0.3993936289
0.3909532612
0.4049300575
0.4124680379
0.409809763
0.3074330462
0.4298135942
0.4191360813
0.4295653037
0.428580299
0.4324787821
0.4320759304
0.4197685412
0.4152933498
0.4165884328
0.4186277404
0.4165713239
0.4207954979
0.4172284975
0.421111493
0.4190566344
0.4288148052
0.4207179857
0.4125478675
0.4096367862
0.3064752772
0.4126853711
0.4071851462
0.4143465095
0.4183089059
0.4134431629
0.4082090549
0.4110565427
0.4165778105
0.4220446045
0.41551785
0.405527039
0.4077763933
0.4137509812
0.4109722935
0.4109260962
0.4076408563
0.4086071112
0.4054394092
0.423869733
0.3039052064
0.4097941218
0.3996625069
0.3956048982
0.3945550978
0.4067125486
0.4169326796
0.4116451233
0.4160058706
0.4125309862
0.4116276232
0.4151834559
0.4173705956
0.4130765175
0.4104360419
0.4074626353
0.4162335772
0.4171234112
0.4272026716
0.4142047808
0.3134941687
0.4224092874
0.4153127385
0.417421059
0.4071813405
0.401112008
0.3970561185
0.3999414589
0.396241877
0.3973002895
0.3988414379
0.4027219153
0.4055240063
0.4086317146
0.4137042642
0.4265821268
0.43055876
0.4322403041
0.4185883311
0.4312451331
0.316649461
0.438662331
0.4289749703
0.4175812692
0.4224393573
0.4195220597
0.4126475026
0.4118816764
0.4140779581
0.4217524696
0.4214186559
0.4078014065
0.4139431939
0.4228040457
0.4309811751
0.4269835954
0.4271496757
0.4173006097
0.412301821
0.4121469333
0.3137955057
0.4148677282
0.4112186457
0.4180108564
0.425476735
0.4293065947
0.4310752846
0.4298039844
0.4270658737
0.4175437443
0.4138523361
0.4268456488
0.4233166672
0.4200263546
0.4057566375
0.4024577262
0.4045936295
0.4188619007
0.4194863834
0.4188352934
0.3148451042
0.4309953287
0.4252129207
0.4259449804
0.4231945456
0.4277006596
0.4309944029
0.4300870603
0.4289210014
0.4394240522
0.4421409281
0.4284714175
0.4287437932
0.4254082054
0.4273543475
0.424276623
0.4199848293
0.4131990706
0.411225398
0.4173213603
0.3043727615
0.411699125
0.404943366
0.4106858343
0.4140882428
0.409764143
0.4202771369
0.4165213274
0.4205227022
0.4128425306
0.4118589342
0.4201765175
0.4171422441
0.4109144713
0.414730306
0.4144082559
0.422666736
0.4203578002
0.4152901641
0.4210099453
0.3180048234
0.4306200042
0.4217909024
0.4129694464
0.4085316692
0.4153710012
0.4135416644
0.4057435039
0.4093399717
0.4151871986
0.4191039118
0.4005011562
0.4059060087
0.4124431008
0.4210737507
0.4186983583
0.4234531162
0.4306868208
0.4385313909
0.430939999
0.3151205173
0.4285261208
0.4180725565
0.4209041344
0.4227175246
0.4167041303
0.4215630301
0.4223242525
0.4147240553
0.4094149864
0.4075810961
0.4136200414
0.4182813065
0.4179102016
0.4235489724
0.4245720747
0.4142217319
0.4135724675
0.4110552058
0.414356509
0.3149871179
0.4240412069
0.423666533
0.4249083599
0.426413605
0.4244297414
0.4110359295
0.3966284885
0.3962718752
0.4108044894
0.4190028761
0.4139342389
0.4159751375
0.4173416839
0.4069727159
0.4035287954
0.4122109037
0.4158984323
0.412594433
0.4066374762
0.3153286821
0.4127526711
0.3981524038
0.4074616908
0.4018722326
0.3961027006
0.4106426776
0.4279129238
0.428569654
0.4256205296
0.4259106346
0.4238943764
0.4163033776
0.4063610187
0.4102037075
0.4111141296
0.4108325558
0.4095408915
0.4073361433
0.4071567507
0.3102038329
0.4334665082
0.4307700892
0.4195219317
0.4229449599
0.4252182842
0.4102484084
0.4080725849
0.4037222879
0.3974703409
0.3933622242
0.3964909869
0.4117358771
0.4119055438
0.4124083585
0.420709776
0.4250210017
0.4193180977
0.4154025336
0.4190693495
0.3089020703
0.410240668
0.4055779535
0.4122143724
0.4177740919
0.4098697215
0.4130415059
0.4164565383
0.4092794232
0.4181105827
0.4206880669
0.4201207686
0.4171456341
0.4110716465
0.4033041677
0.4090853979
0.4078680653
0.4108127484
0.4102344265
0.4115318742
0.3060607822
0.4180170869
0.4030644102
0.4077903523
0.4054098214
0.409695086
0.4151301667
0.4070612251
0.4081619394
0.4015690161
0.4063779846
0.4021088653
0.3985078352
0.3970312632
0.3934327307
0.3894560757
0.3931359819
0.3990206724
0.3999865073
0.3969306188
0.3079326198
0.4200506241
0.4084188632
0.4029800375
0.4058661669
0.39953891
0.3980091942
0.4086068127
0.4131369453
0.4150386022
0.4088385806
0.4061459837
0.4123914141
0.4148933758
0.4111428112
0.4125101544
0.4098388417
0.4070950127
0.4094569677
0.4079703497
0.3020712011
0.4164280996
0.4170874924
0.4150995032
0.4175510796
0.4127621173
0.4142843113
0.4103176767
0.4131999786
0.4000617086
0.413212592
0.4093848427
0.4098896076
0.4098665774
0.4166563617
0.4156246841
0.4139905554
0.4109633465
0.4077744213
0.4134821058
4.619807003
4.94988235
4.849833465
4.614856846
4.462170557
4.385429952
4.315181037
4.248282872
4.187980746
4.127427341
3.905130783
3.803662423
3.731293861
3.663445639
3.536385945
3.627351672
3.511394406
3.468945931
3.36500672
3.349466081
3.193746578
3.251315557
3.344582731
3.218220001
3.215760333
3.255568059
3.129004802
3.086546578
3.040419738
3.159464779
3.145636848
2.995828086
2.981360208
2.968403354
2.891314522
2.875344978
2.730572267
2.668021555
2.362737907
1.924634534
3.108778167
3.55631375
3.682613293
3.957425079
3.934573794
4.061367451
3.941789977
3.989741388
4.018227312
3.937909665
3.832870081
3.816654312
3.782605781
3.567966681
3.575914299
3.565326198
3.489275884
3.49907712
3.514922645
3.448808097
3.33661139
3.361021408
3.415977858
3.287619944
3.281621703
3.202702587
3.216898367
3.17714097
3.050711035
3.164257855
3.171582662
3.032018646
2.962728272
2.993910587
2.861204154
2.787377143
2.707816042
2.449979859
2.278227477
1.79001071
2.215632463
2.664827204
2.859321622
3.289112188
3.361189849
3.418728461
3.529315421
3.654737597
3.608006159
3.67531931
3.572569957
3.617107692
3.565094759
3.518156326
3.49206784
3.577179524
3.533209144
3.354405656
3.294929323
3.324175561
3.337679671
3.338423377
3.286902571
3.128086223
3.296646525
3.151626827
3.216245403
3.186349293
3.154689463
3.137082476
3.104484276
2.979854231
3.025394416
2.91501677
2.869182297
2.732601685
2.580708878
2.466348317
2.203476418
1.819404135
1.6601781
1.845603686
2.254905957
2.545543352
2.730039743
2.903539772
3.076449728
3.199106551
3.175767303
3.27530663
3.375954019
3.348627056
3.377683146
3.336005576
3.342636952
3.410473317
3.402481654
3.316213244
3.285983951
3.31388799
3.347072325
3.27389201
3.353296462
3.266554153
3.298968299
3.142786111
3.13081338
3.151505291
3.189870399
3.073973929
3.041017519
3.028502615
2.996830446
2.865791341
2.821368933
2.598858286
2.534067714
2.478872471
2.116061988
1.8216593
1.275368057
1.489534073
1.795991236
1.953413049
2.211932027
2.41785915
2.683970166
2.801065165
2.891623748
2.928210616
3.048929519
3.134124786
3.107292786
3.186401267
3.170652788
3.212990119
3.262887205
3.260692054
3.120193119
3.178106751
3.219150601
3.194694207
3.192872507
3.153509555
3.061747514
3.055860289
3.036022609
3.034908491
3.003503879
3.001137951
2.998671134
2.989252838
2.877863054
2.884060852
2.688333905
2.58922346
2.535430628
2.298505356
2.133932737
1.895842613
0.9670535956
1.179983589
1.375756341
1.620060423
1.748572165
1.9419498
2.317596262
2.322311856
2.476837027
2.5998806
2.645309754
2.839326534
2.88270591
2.94199392
3.065856196
3.012427861
3.143022964
3.084668689
2.994621859
3.032194414
3.13641452
2.976543953
3.059628335
2.999228876
3.01252181
3.0087157
3.098196194
2.919090429
2.974598824
2.986620377
2.899749814
2.88323235
2.874429243
2.786136756
2.638439061
2.583694807
2.428085065
2.395242316
2.194845533
2.002583343
0.8094133266
0.9917138826
1.0513035
1.296613421
1.425177241
1.546911307
1.803439486
1.962205299
2.137896883
2.208776607
2.282523396
2.487931604
2.526301067
2.735417896
2.826552478
2.92919611
2.942661702
3.024006848
3.003636909
2.963432115
2.972998545
2.904623418
2.96088917
2.940488428
2.93284758
2.962198379
2.901884156
2.936404232
2.972987027
2.853102455
2.915657767
2.873213928
2.83690777
2.779583029
2.611933856
2.631012703
2.508748468
2.440229998
2.24998965
2.054470222
0.7036869453
0.7878809585
0.9542703049
0.9996698363
1.212709737
1.336921063
1.427161343
1.628154173
1.84288328
2.006386875
2.113701938
2.234384832
2.2840202
2.409944104
2.593603115
2.644624059
2.7143657
2.770983782
2.779480423
2.818018605
2.846864447
2.88377726
2.943088554
3.002419803
2.950065631
2.917663168
2.989205851
2.91425886
2.923630559
2.808819255
2.828237561
2.824061303
2.754134442
2.772361576
2.665789592
2.558951022
2.506905661
2.419144914
2.286943053
2.134008336
0.6138894432
0.7246741108
0.8212337889
0.8648277001
0.9532111476
1.117494491
1.227772559
1.339671995
1.498176539
1.603306618
1.754696017
1.90426772
2.078612388
2.173204223
2.256502691
2.408846343
2.511164311
2.569647186
2.662045591
2.729366041
2.738596241
2.761407797
2.802857411
2.8520459
2.720507974
2.830852418
2.844613188
2.850871708
2.822698439
2.781762291
2.810710889
2.768604642
2.734094535
2.701601347
2.661157907
2.55124889
2.491957111
2.4500399
2.314945488
2.165012073
0.5570585977
0.628430021
0.7108241997
0.7630340678
0.8121909116
0.8494320035
0.9650836078
1.078219797
1.251484767
1.359637585
1.491048965
1.604389849
1.798980762
1.856722857
1.967720555
2.057482934
2.238408071
2.388145362
2.440060021
2.468540996
2.564991602
2.635345208
2.606902113
2.687044784
2.723543316
2.740006738
2.784214663
2.767054242
2.723629153
2.805881371
2.688466905
2.694209036
2.700554905
2.690030419
2.660395789
2.561706067
2.498348405
2.363946012
2.266257312
2.178035261
0.5045570911
0.5753223379
0.648530487
0.6588781215
0.6707369428
0.7445227697
0.8293711561
0.9448486336
1.067575831
1.153025872
1.296866149
1.362253104
1.529628534
1.705968235
1.783293293
1.852189909
2.058868399
2.087495137
2.191080825
2.302117999
2.365607069
2.459334966
2.452941395
2.592233654
2.632147663
2.66567454
2.740528855
2.617738087
2.628848228
2.644975498
2.690905895
2.687375278
2.683367805
2.694133981
2.632775397
2.627144657
2.464140031
2.335381634
2.276091577
2.24037142
0.4754696903
0.4905205253
0.5304202066
0.6026185503
0.6033268327
0.6777673564
0.7640314142
0.8269536398
0.8616936245
0.95355372
1.005069133
1.180866269
1.270744214
1.396002906
1.560639868
1.707226728
1.800324601
1.900899907
1.993853127
2.10773969
2.241528344
2.34645816
2.323492857
2.422902696
2.521536229
2.54104426
2.576350219
2.56051712
2.559537088
2.65659045
2.6100724
2.605570422
2.583622771
2.57330092
2.519631897
2.537168411
2.462696507
2.393081131
2.375005257
2.280674133
0.4708488751
0.4878477017
0.5307874882
0.5563398164
0.5578596455
0.5758036672
0.663243784
0.708956001
0.795701569
0.8204985108
0.9218513622
1.006580114
1.114492652
1.169957992
1.301612459
1.419853649
1.553925309
1.647962545
1.781032327
1.856079229
2.024344959
2.110300823
2.160916782
2.228442316
2.290663993
2.373701957
2.521894247
2.517149179
2.546340378
2.547988657
2.583374642
2.626144154
2.63420468
2.55191303
2.463975144
2.439102518
2.554638639
2.470082761
2.505283479
2.334206613
0.4465459212
0.4482536231
0.4788104103
0.5267367879
0.508724364
0.5355256069
0.5807140726
0.6311835223
0.6914298234
0.7118643486
0.781304838
0.8719946503
0.9896752035
1.069793523
1.103115305
1.229913597
1.33018773
1.454269908
1.539834105
1.650569195
1.800150735
1.969194675
1.989880821
2.095806117
2.142474218
2.212443697
2.333409926
2.379863215
2.382233258
2.431608812
2.484594899
2.501153263
2.538973497
2.524672089
2.503778528
2.526327168
2.487577338
2.502043771
2.433799764
2.404808732
0.4457770909
0.4487765579
0.4726177202
0.4830552883
0.5141719307
0.5480400851
0.564081173
0.5522638329
0.5933302187
0.6510704511
0.7194807144
0.7477262762
0.8165444638
0.8845623477
0.9542703668
1.051656303
1.115555795
1.213063544
1.310404839
1.409651035
1.566994176
1.650668031
1.77652007
1.848461339
1.969074657
2.006522388
2.124300927
2.209135824
2.262973572
2.36995156
2.364412024
2.485745085
2.487699411
2.569669757
2.525828538
2.469505755
2.44181139
2.421626246
2.404681012
2.314213554
0.432302454
0.4427907451
0.4563503603
0.4592693138
0.483770894
0.4817799522
0.5003448003
0.5164021194
0.5382231785
0.5804193519
0.6463203693
0.6549004457
0.694496894
0.7842942801
0.8182646676
0.9078592152
0.949300237
1.033297848
1.168791475
1.183642535
1.331905532
1.430904827
1.564835279
1.663249384
1.788361262
1.849710559
1.977702549
2.026341838
2.124096475
2.253372576
2.232187259
2.306725237
2.43114742
2.500491317
2.49051488
2.469979741
2.450535938
2.396771906
2.402207529
2.3970743
0.4495386906
0.4468137968
0.4469373596
0.4368534068
0.463852407
0.485881944
0.5004074423
0.5165684043
0.5309112427
0.551602179
0.5657760431
0.6102875388
0.6371743062
0.7035554809
0.7301807539
0.8010340764
0.8425688744
0.9134579819
1.018113238
1.118004197
1.188989515
1.275454805
1.38277514
1.453191114
1.581080264
1.68602428
1.762048356
1.905385778
1.98078222
2.065692085
2.218761718
2.211725049
2.274715907
2.317804101
2.372428639
2.403252402
2.372641157
2.378730393
2.390170781
2.332541475
0.4239428051
0.4389143763
0.4516974878
0.4583560267
0.481443371
0.464912176
0.4794126654
0.4897085458
0.5082899774
0.5158889008
0.5275185857
0.5457320122
0.5923221091
0.6281692318
0.6564865042
0.7002846009
0.7493215879
0.8168374827
0.8527619643
0.9474311155
1.00596268
1.103642902
1.14159037
1.262053043
1.377621318
1.535319439
1.59799955
1.695777632
1.866994138
1.906468769
1.994909343
2.04804133
2.108867676
2.189955982
2.267831522
2.315881146
2.376585305
2.378002336
2.357252974
2.35652691
0.4377195408
0.4502669817
0.4573421296
0.4562514929
0.4573435823
0.4705067827
0.4750578247
0.4791514603
0.4733983105
0.4695230018
0.4631773163
0.5150490193
0.5305496242
0.5704251129
0.6103910136
0.651565646
0.6802819071
0.7243729603
0.7470601273
0.8028325632
0.8982194494
0.9751910041
1.0622343
1.14265912
1.246594988
1.305440857
1.447616077
1.520282681
1.627098655
1.754864493
1.906257593
1.951334299
1.992617974
2.05774918
2.089995663
2.167669628
2.240167017
2.299110013
2.229862213
2.274203742
0.434642408
0.4357316977
0.4377019648
0.4546684214
0.4531180567
0.456132459
0.4570970787
0.4614690783
0.457270504
0.4677728797
0.4629806908
0.4791546279
0.4967557651
0.5116211034
0.5688041295
0.6061917873
0.6241287531
0.6467416432
0.6910465618
0.742783535
0.7934079314
0.8249420785
0.877431877
0.9428479049
1.049259828
1.150083639
1.236157726
1.315708951
1.428469932
1.557971693
1.630688133
1.755273477
1.847849726
1.913320435
1.988913186
2.086731644
2.11510643
2.15020388
2.156400107
2.151168949
0.419293733
0.4125373393
0.4269738734
0.4327356523
0.4407673695
0.4335964627
0.4342947179
0.4372785263
0.4321482793
0.4440903254
0.4490653967
0.4612976168
0.4881032286
0.4943647286
0.5190958799
0.5489701083
0.5826247372
0.5966004601
0.6173795473
0.6631764877
0.6799291264
0.774842561
0.7859994373
0.8460649235
0.9121915324
0.9733248222
1.080039403
1.123557577
1.273866642
1.368001997
1.47636423
1.561200422
1.662260961
1.727572639
1.836650706
1.945854747
2.005758775
2.065416581
2.107340107
2.135288994
0.4153477336
0.4080443777
0.4099923403
0.413585382
0.4119903269
0.4298357751
0.4327740949
0.4349100235
0.4446936421
0.4499416094
0.4493063244
0.4552629226
0.4612165698
0.4877754179
0.4726248597
0.4993449016
0.5329745444
0.5650645125
0.5762470423
0.6030827531
0.6561389199
0.6823183559
0.7395097266
0.7486837757
0.850273054
0.895460896
0.9514051667
1.044208225
1.104009901
1.173259714
1.298101253
1.399181888
1.49580011
1.588639754
1.619386135
1.742053577
1.849224591
1.919261384
1.969803148
2.074863832
0.4126051963
0.4126784771
0.4028123052
0.4142909783
0.4092866111
0.4291054861
0.4267946134
0.4278143605
0.4463187225
0.4471298213
0.456740895
0.4450192573
0.4462202597
0.4720610537
0.4860810146
0.4868474566
0.4983486298
0.5249454459
0.5483225135
0.5527726925
0.5757104062
0.6100794535
0.6752845013
0.6978487259
0.7199232395
0.793546263
0.8453009613
0.8999670228
0.974946795
1.036911168
1.128140076
1.242733472
1.282310708
1.428758209
1.520017792
1.596071284
1.65925023
1.750329862
1.878288891
1.921261551
0.399915233
0.4199382157
0.4190775578
0.4307286864
0.4262812998
0.4193425115
0.4253200695
0.4413970349
0.4394334508
0.4415505795
0.4378378217
0.4340834541
0.439872128
0.4480119397
0.4656872427
0.4802788637
0.4927224826
0.4937403097
0.503343758
0.5159475678
0.5458926312
0.5703478592
0.5932029896
0.6353113204
0.6725228577
0.6926923657
0.7453859689
0.819173338
0.8497553156
0.933856097
1.011504455
1.101517592
1.166530762
1.22428929
1.366442456
1.472029902
1.618132259
1.672186576
1.751818776
1.830234812
0.4188712228
0.4182814871
0.4134663099
0.4193303868
0.4202417504
0.4324908001
0.4195822166
0.4131503798
0.4178118066
0.4206870079
0.4291883335
0.4260682559
0.434543373
0.4319703225
0.43222196
0.4558111851
0.4755458135
0.4784690656
0.4911043753
0.5020637463
0.5156118904
0.5193904472
0.5542359086
0.5853486093
0.6292724239
0.6355653398
0.6902698108
0.7358793101
0.7825040387
0.8054031601
0.8635815306
0.9413694793
1.03009698
1.140217679
1.221148774
1.31746774
1.459881511
1.519783878
1.60745596
1.682895472
0.4215154295
0.4182441413
0.4266733473
0.4269385579
0.4276222442
0.4066881167
0.4174538728
0.415712837
0.424672001
0.4276054415
0.4396797975
0.4395006204
0.4338677376
0.4411935966
0.4562738758
0.4441702732
0.460011764
0.4844299137
0.4780973445
0.482880031
0.5024295318
0.5211597958
0.5178748297
0.5340385535
0.5796728311
0.5626032727
0.6110150419
0.6434423058
0.6705497649
0.7312592854
0.7847562248
0.8534017696
0.9335564966
1.03582449
1.096672358
1.185217498
1.278722109
1.346852077
1.428340744
1.54797659
0.4188226072
0.4231745259
0.4229353271
0.4114065543
0.417898555
0.4356119365
0.4305179098
0.4231898961
0.4220819532
0.4161783273
0.4237584035
0.4335007362
0.4323948225
0.4408665015
0.4397390641
0.4512433185
0.4520181614
0.4720480439
0.4777720554
0.4990454027
0.4870481501
0.5061100447
0.5030200005
0.5008820468
0.5029399678
0.5387348015
0.5346135412
0.5884996791
0.6262434047
0.6684094881
0.7097633724
0.7512447685
0.8036932849
0.8820299832
0.9438260218
1.056355815
1.138680234
1.262220835
1.387714737
1.416981866
0.4211393365
0.4326386071
0.4334203575
0.4319664459
0.4143602882
0.4085820647
0.4134919677
0.4185584105
0.4235228135
0.4301203536
0.4254368942
0.4332749494
0.4364721299
0.4257146342
0.4366529179
0.4402826712
0.4363747643
0.4524279578
0.4614210967
0.4539535607
0.4539746725
0.4580235877
0.4900897566
0.4896033517
0.4851089663
0.5083166767
0.5232971985
0.5554603285
0.5805751859
0.6026199843
0.6739870037
0.6915834802
0.7315120432
0.7739757451
0.8640207467
0.934213277
0.99303821
1.080292581
1.199833144
1.305030159
0.4156526736
0.4106646247
0.4187315285
0.4153585971
0.4220658246
0.4227764593
0.4281300305
0.427569878
0.4349244056
0.4367305773
0.4481349325
0.4333638814
0.4213529384
0.4203574079
0.4222415728
0.4313363353
0.4413755042
0.4434927987
0.4477521343
0.4640037132
0.4409903659
0.4458285782
0.4518231087
0.4888094851
0.4928759991
0.5046928267
0.5307781199
0.5263669667
0.5457423101
0.5886815393
0.6028393221
0.6514931175
0.6707010035
0.7215564702
0.7238407395
0.8025900415
0.8820262083
0.9574142111
1.05161594
1.156315653
0.4138468043
0.4172630466
0.4219345225
0.4302680162
0.4266986872
0.4373227167
0.4292871652
0.4251671287
0.4287139172
0.4267122
0.4174197544
0.4268974412
0.4368675079
0.4360275827
0.4296770421
0.4280460913
0.4209828657
0.4214684589
0.4203924752
0.4406967007
0.4520676207
0.4606876328
0.4481160416
0.4632995035
0.4776406052
0.4893285973
0.4836841155
0.5281811586
0.5475009462
0.5645504575
0.5708771645
0.6042477363
0.6170722202
0.6383937416
0.6794532448
0.6996658143
0.7857140487
0.8322787488
0.9140227739
0.9872700137
0.4339953269
0.4278984639
0.4208529183
0.4288332358
0.4300669316
0.4244739036
0.4229401802
0.4344233977
0.4260878822
0.4196231952
0.4148652164
0.4142183354
0.4111220058
0.4055581837
0.4121381497
0.4037960694
0.4061151196
0.4142365242
0.4277152193
0.4245562433
0.4453364994
0.4538139405
0.4561555044
0.4552086028
0.4690996783
0.4869172262
0.5133313868
0.4930492016
0.4953695321
0.5164357518
0.5243127558
0.5490048021
0.5735158799
0.6035393196
0.6387295691
0.6484218849
0.6830585036
0.7379184312
0.8013396463
0.8781526742
0.4256900949
0.4183482736
0.4196761304
0.4245697674
0.4079452908
0.4118156423
0.4210112227
0.4124235782
0.4132309377
0.4184535014
0.4251479446
0.423469283
0.4307114513
0.423607844
0.4251924852
0.4314551356
0.4156559242
0.4139531696
0.420513574
0.4227232049
0.4159978792
0.4351577185
0.4520360469
0.4561184601
0.4554353895
0.4656714484
0.467564525
0.4784828454
0.4814870253
0.489471588
0.4904265976
0.5170373071
0.5579676309
0.5731282367
0.5821999199
0.6021494443
0.6266115096
0.6657308661
0.7508291065
0.8080393089
0.4201296268
0.4170716845
0.4131927201
0.4070420603
0.4134614876
0.4145618282
0.4159574614
0.4102969178
0.4099255066
0.4105568569
0.4095958785
0.412119109
0.4086417022
0.4165216323
0.4218053582
0.4163536718
0.4295935457
0.4209936497
0.4178035292
0.4280759055
0.438597985
0.438451828
0.4444795171
0.4495759637
0.4577963392
0.4598117677
0.4628506962
0.4725002332
0.4786790906
0.4988722064
0.4880964784
0.4904242265
0.5013367013
0.53015722
0.5468473899
0.574978893
0.5953099344
0.6129209446
0.668759735
0.7310088757
0.3973702691
0.4041574732
0.4090861242
0.4194082461
0.4080243741
0.3995378965
0.401895615
0.4075663078
0.418033877
0.4127102638
0.4066336074
0.4014323135
0.4020205468
0.4117768303
0.4163284327
0.4222775874
0.4144025426
0.4340605152
0.4372396284
0.4384199857
0.4369357073
0.4361770753
0.4316601747
0.4324188126
0.4394018296
0.4394637702
0.4350059901
0.4446768571
0.4645704512
0.4800890284
0.4831108612
0.4825976891
0.496692976
0.5020328232
0.5203284072
0.5266017586
0.5742086814
0.5743757268
0.5996732293
0.651721224
0.4078643124
0.4130763754
0.410719936
0.4100439573
0.4144958047
0.4244631846
0.4267017677
0.4137236903
0.4096726603
0.4172044277
0.4231075046
0.42119525
0.4206123844
0.4120647672
0.4100139908
0.4141884391
0.432295001
0.4225875007
0.440413265
0.4397824789
0.4317926713
0.4411085912
0.4360333716
0.4322043729
0.4403076735
0.4315777488
0.4268585308
0.4308038803
0.4315259734
0.4559926655
0.472381651
0.4687464706
0.4767147821
0.5020121444
0.4936778191
0.5241563538
0.5372225329
0.5529124709
0.5728828259
0.5993043487
0.4197776925
0.4210018208
0.4253230595
0.4208840916
0.4183577504
0.4156779118
0.4133231512
0.411746576
0.3982631433
0.3960838614
0.3971997819
0.4034960489
0.4065772563
0.4168087091
0.4199308038
0.4149808981
0.4195008802
0.4219038235
0.4237319456
0.4192322327
0.4191023046
0.4126618605
0.4172296658
0.4217425561
0.4238701934
0.4380226892
0.4478234883
0.4436279311
0.4387286955
0.4453839494
0.4367081146
0.4635282292
0.4650785984
0.4868692869
0.4990946919
0.4992988519
0.5364581816
0.530348305
0.5449205545
0.5673131065
0.415116435
0.4077819292
0.4057808467
0.411006547
0.4097286439
0.4126966167
0.4164135833
0.4274832267
0.4271646963
0.4258460243
0.4238487521
0.4271065541
0.4189262763
0.4046976859
0.4145033728
0.4174902235
0.4149369082
0.4131072646
0.4035211803
0.4092959342
0.4078241296
0.4184783102
0.41636398
0.4269230612
0.4260922013
0.4244622842
0.4429848128
0.4395034297
0.4351473823
0.4327292398
0.4479886329
0.4545562726
0.4667857598
0.4760774971
0.4688834337
0.4749496179
0.4764473233
0.5094007227
0.5286376177
0.5430261454
0.391574211
0.3993821125
0.4104528562
0.4177036877
0.4204894595
0.4114808801
0.4083586521
0.4111506564
0.4099200362
0.415035571
0.4089004151
0.4075212954
0.4196870132
0.4241068682
0.4312459065
0.4213216675
0.4242227379
0.4111330192
0.4221669495
0.4235070362
0.4097344942
0.4105934077
0.4293886937
0.4225857835
0.4355931107
0.4273499642
0.4186277427
0.4319650196
0.445724845
0.4385889289
0.4370486836
0.4394058108
0.4453432339
0.456663699
0.4709632399
0.4685983936
0.4775671071
0.4688083016
0.4716000076
0.5052619304
0.4170191075
0.4132494214
0.4164630371
0.4101442753
0.4068674733
0.4158993863
0.4208252742
0.4241936851
0.4242817234