/*--------------------------------*- C++ -*----------------------------------*\
  =========                 |
  \\      /  F ield         | OpenFOAM: The Open Source CFD Toolbox
   \\    /   O peration     | Website:  https://openfoam.org
    \\  /    A nd           | Version:  7
     \\/     M anipulation  |
\*---------------------------------------------------------------------------*/
FoamFile
{
    version     2.0;
    format      ascii;
    class       volScalarField;
    location    "0.002";
    object      rhoNMean;
}
// * * * * * * * * * * * * * * * * * * * * * * * * * * * * * * * * * * * * * //

dimensions      [0 -3 0 0 0 0 0];

internalField   nonuniform List<scalar> 
2400
(
7.694903181e+19
9.974527361e+19
1.006617054e+20
9.937036968e+19
9.92349877e+19
9.864138981e+19
9.861014782e+19
9.81831739e+19
9.750626402e+19
9.70688761e+19
9.798530793e+19
9.803737792e+19
9.824565788e+19
9.65169342e+19
9.717301608e+19
9.70897041e+19
9.692308013e+19
9.958906364e+19
1.058687045e+20
1.344863712e+20
7.746973171e+19
9.833938387e+19
9.937036968e+19
9.886008377e+19
1.005992214e+20
1.000889355e+20
1.001514195e+20
1.008283294e+20
1.020675952e+20
1.009949534e+20
1.016718633e+20
9.974527361e+19
9.948492365e+19
1.002659735e+20
1.002555595e+20
1.008803994e+20
1.020155252e+20
1.036609369e+20
1.112631555e+20
1.312372038e+20
7.719896776e+19
1.005159095e+20
1.007762594e+20
1.005263235e+20
1.007241894e+20
1.002139035e+20
9.959947763e+19
9.927664369e+19
9.92662297e+19
1.000160376e+20
1.009949534e+20
1.008283294e+20
1.018905572e+20
1.024945691e+20
1.035776249e+20
1.035984529e+20
1.034838989e+20
1.046398527e+20
1.102634117e+20
1.202816778e+20
7.732393574e+19
9.883925577e+19
9.996396757e+19
1.008908134e+20
1.004638395e+20
1.008387434e+20
1.009012274e+20
1.015052393e+20
1.010053674e+20
1.010886794e+20
1.007241894e+20
1.006929474e+20
1.010366094e+20
1.004013555e+20
1.001722475e+20
1.013802713e+20
1.009637114e+20
1.047127507e+20
1.08420134e+20
1.152621307e+20
7.75738717e+19
1.006408774e+20
1.004846675e+20
9.931829969e+19
1.002243175e+20
1.010990934e+20
1.011095074e+20
1.006617054e+20
1.012136473e+20
1.003180435e+20
1.006096354e+20
1.012969593e+20
1.011615773e+20
1.014323413e+20
9.944326766e+19
9.906836373e+19
1.008491574e+20
1.012657173e+20
1.035463829e+20
1.087429679e+20
7.822995357e+19
9.937036968e+19
1.002347315e+20
9.866221781e+19
9.81311039e+19
9.833938387e+19
9.696473612e+19
9.721467207e+19
9.695432212e+19
9.681894015e+19
9.662107418e+19
9.60066483e+19
9.616285827e+19
9.912043372e+19
1.003701135e+20
1.016614493e+20
1.011824053e+20
1.013802713e+20
1.026716071e+20
1.058478765e+20
7.763635568e+19
9.86726318e+19
1.000264516e+20
1.006512914e+20
1.007346034e+20
9.932871368e+19
9.839145386e+19
9.966196162e+19
9.853724983e+19
9.81415179e+19
9.839145386e+19
9.938078367e+19
9.955782164e+19
9.809986191e+19
9.86726318e+19
9.876635779e+19
1.001618335e+20
1.012344753e+20
1.015156533e+20
1.045357127e+20
7.802167361e+19
9.963071963e+19
9.973485961e+19
9.759999e+19
9.841228185e+19
9.879759978e+19
9.92245737e+19
9.948492365e+19
1.004742535e+20
1.020051112e+20
1.024424991e+20
1.03213135e+20
1.024008431e+20
1.012032333e+20
1.013594433e+20
1.020675952e+20
1.019426272e+20
1.019009712e+20
1.03004855e+20
1.040670828e+20
7.795918962e+19
1.004638395e+20
1.010053674e+20
1.017551752e+20
1.012761313e+20
1.02775747e+20
1.03108995e+20
1.034318289e+20
1.02796575e+20
1.03067339e+20
1.015781373e+20
1.014948253e+20
1.009532974e+20
1.012969593e+20
1.011095074e+20
1.004742535e+20
9.972444561e+19
1.017343472e+20
1.017135192e+20
1.025778811e+20
7.852154552e+19
1.004325975e+20
1.022446331e+20
1.035984529e+20
1.036817649e+20
1.03129823e+20
1.024112571e+20
1.020675952e+20
1.004846675e+20
1.008595714e+20
9.929747169e+19
1.015156533e+20
1.020988372e+20
1.020884232e+20
1.017343472e+20
1.026611931e+20
1.021613212e+20
1.02848645e+20
1.035463829e+20
1.03140237e+20
7.761552769e+19
9.968278962e+19
9.952657965e+19
9.947450966e+19
9.988065558e+19
1.004534255e+20
1.000160376e+20
1.016510353e+20
1.015989653e+20
1.019530412e+20
1.023383591e+20
1.018072452e+20
1.007450174e+20
1.018072452e+20
1.020155252e+20
1.006304634e+20
1.026716071e+20
1.027028491e+20
1.024633271e+20
1.02984027e+20
7.693861781e+19
9.989106958e+19
1.004325975e+20
9.945368166e+19
1.005159095e+20
1.004742535e+20
9.887049777e+19
9.890173976e+19
9.834979786e+19
9.886008377e+19
9.890173976e+19
9.973485961e+19
1.003388715e+20
1.005054955e+20
1.008908134e+20
1.016093793e+20
9.967237562e+19
9.87247018e+19
9.937036968e+19
9.942243967e+19
7.737600573e+19
9.942243967e+19
1.010157814e+20
9.92454017e+19
9.935995568e+19
1.000576935e+20
1.014115133e+20
1.025153971e+20
1.033172749e+20
1.012969593e+20
1.005263235e+20
9.997438156e+19
9.931829969e+19
9.847476584e+19
9.858931982e+19
9.856849182e+19
9.857890582e+19
9.972444561e+19
1.003701135e+20
1.006200494e+20
7.826119557e+19
9.938078367e+19
9.889132576e+19
9.973485961e+19
9.914126172e+19
9.895380975e+19
9.965154762e+19
9.959947763e+19
9.950575165e+19
1.006096354e+20
1.000785215e+20
1.002972155e+20
1.008803994e+20
1.001305915e+20
9.896422375e+19
9.974527361e+19
9.960989163e+19
1.000368656e+20
1.005263235e+20
9.949533765e+19
7.718855377e+19
9.947450966e+19
1.005888075e+20
9.898505175e+19
1.003076295e+20
9.840186785e+19
9.773537198e+19
9.688142414e+19
9.624617025e+19
9.509021647e+19
9.591292231e+19
9.898505175e+19
9.812068991e+19
9.898505175e+19
1.004117695e+20
9.985982759e+19
1.003180435e+20
9.87142878e+19
1.000368656e+20
9.985982759e+19
7.743848972e+19
9.920374571e+19
9.940161167e+19
9.97765156e+19
9.950575165e+19
1.005679795e+20
1.000264516e+20
1.008387434e+20
1.007346034e+20
1.011095074e+20
1.005367375e+20
9.995355357e+19
1.004117695e+20
1.000993495e+20
9.806861992e+19
9.765205999e+19
9.797489393e+19
9.778744197e+19
1.002763875e+20
1.001097635e+20
7.631377793e+19
9.828731388e+19
9.934954168e+19
9.899546575e+19
9.972444561e+19
9.92349877e+19
1.008179154e+20
1.010470234e+20
1.018072452e+20
1.014844113e+20
1.009532974e+20
1.000056236e+20
9.933912768e+19
1.014739973e+20
1.021196652e+20
1.024112571e+20
1.02942371e+20
1.016093793e+20
1.011407493e+20
1.013073733e+20
7.850071752e+19
9.97973436e+19
1.003284575e+20
1.003701135e+20
9.948492365e+19
9.930788569e+19
9.847476584e+19
9.848517984e+19
9.800613593e+19
9.878718578e+19
9.896422375e+19
1.004325975e+20
1.007762594e+20
1.006512914e+20
1.011199214e+20
1.015468953e+20
1.014115133e+20
1.02869473e+20
1.023071171e+20
1.022238051e+20
7.711565578e+19
9.970361761e+19
1.005367375e+20
1.016197933e+20
1.014115133e+20
1.017239332e+20
1.013698573e+20
1.015573093e+20
1.013177873e+20
1.019322132e+20
1.025153971e+20
1.015364813e+20
1.009637114e+20
1.008491574e+20
1.003701135e+20
1.000576935e+20
9.97973436e+19
9.900587974e+19
9.943285366e+19
9.907877773e+19
7.872982548e+19
1.014635833e+20
1.010990934e+20
1.009012274e+20
1.005992214e+20
1.007658454e+20
1.009637114e+20
1.018801432e+20
1.006929474e+20
1.007554314e+20
1.004117695e+20
1.001514195e+20
1.002034895e+20
9.967237562e+19
9.970361761e+19
9.996396757e+19
1.001097635e+20
1.005679795e+20
1.006512914e+20
1.003180435e+20
7.805291561e+19
9.963071963e+19
1.005679795e+20
1.005471515e+20
1.001514195e+20
9.942243967e+19
9.856849182e+19
9.87247018e+19
9.853724983e+19
9.7631232e+19
9.954740764e+19
9.958906364e+19
1.008595714e+20
1.019113852e+20
1.022758751e+20
1.015885513e+20
1.016302073e+20
1.019946972e+20
1.025674671e+20
1.02796575e+20
7.740724773e+19
9.952657965e+19
9.971403161e+19
9.850600784e+19
9.800613593e+19
9.966196162e+19
9.969320362e+19
9.954740764e+19
9.972444561e+19
9.959947763e+19
9.951616565e+19
9.928705769e+19
9.908919173e+19
9.839145386e+19
9.899546575e+19
9.97661016e+19
1.006512914e+20
9.947450966e+19
9.842269585e+19
9.732922605e+19
7.767801168e+19
9.892256776e+19
9.954740764e+19
9.955782164e+19
1.001201775e+20
1.000264516e+20
9.993272557e+19
1.007866734e+20
1.005159095e+20
9.97661016e+19
1.010470234e+20
1.015781373e+20
9.946409566e+19
9.892256776e+19
9.912043372e+19
9.665231618e+19
9.515270045e+19
9.677728415e+19
9.843310985e+19
9.828731388e+19
7.80841576e+19
1.017239332e+20
1.017551752e+20
1.02796575e+20
1.03265205e+20
1.03140237e+20
1.03254791e+20
1.013386153e+20
1.009532974e+20
1.010886794e+20
1.014844113e+20
9.975568761e+19
1.004221835e+20
1.008699854e+20
1.013177873e+20
1.007970874e+20
1.019634552e+20
1.009428834e+20
9.945368166e+19
9.819358789e+19
7.691778982e+19
9.770412998e+19
9.842269585e+19
9.894339575e+19
9.913084772e+19
9.874552979e+19
9.797489393e+19
9.919333171e+19
9.97765156e+19
1.003909415e+20
9.919333171e+19
9.830814187e+19
9.86830458e+19
9.856849182e+19
9.805820592e+19
9.826648588e+19
9.778744197e+19
9.846435184e+19
9.906836373e+19
1.002034895e+20
7.655329988e+19
9.898505175e+19
9.888091177e+19
9.804779192e+19
9.802696392e+19
9.948492365e+19
1.005783935e+20
9.898505175e+19
9.966196162e+19
9.916208971e+19
9.902670774e+19
9.954740764e+19
9.994313957e+19
9.92141597e+19
9.958906364e+19
9.900587974e+19
9.944326766e+19
9.946409566e+19
1.008803994e+20
9.97973436e+19
7.742807572e+19
9.945368166e+19
9.988065558e+19
9.972444561e+19
9.888091177e+19
9.801654993e+19
9.718343008e+19
9.715218809e+19
9.649610621e+19
9.697515012e+19
9.778744197e+19
9.802696392e+19
9.866221781e+19
9.962030563e+19
9.966196162e+19
1.016302073e+20
1.015260673e+20
1.017343472e+20
9.946409566e+19
1.015573093e+20
7.80737436e+19
1.014635833e+20
1.026611931e+20
1.008699854e+20
1.019634552e+20
1.009949534e+20
1.003805275e+20
1.008075014e+20
1.011095074e+20
1.019842832e+20
1.017447612e+20
1.003284575e+20
1.002243175e+20
1.009220554e+20
1.014844113e+20
1.012761313e+20
1.015468953e+20
1.003284575e+20
1.004638395e+20
1.007346034e+20
7.769883967e+19
9.901629374e+19
1.000889355e+20
1.007346034e+20
1.017760032e+20
1.025258111e+20
1.024841551e+20
1.024424991e+20
1.021509072e+20
1.001514195e+20
1.002243175e+20
1.012865453e+20
1.006408774e+20
1.009116414e+20
9.929747169e+19
9.853724983e+19
9.905794973e+19
1.010990934e+20
1.011824053e+20
1.000681075e+20
7.789670564e+19
1.000889355e+20
1.011095074e+20
1.006304634e+20
1.004638395e+20
1.013073733e+20
1.018384872e+20
1.014948253e+20
1.019842832e+20
1.034005869e+20
1.039317008e+20
1.027132631e+20
1.024320851e+20
1.018280732e+20
1.019738692e+20
1.019217992e+20
1.008283294e+20
9.927664369e+19
9.857890582e+19
1.000681075e+20
7.739683373e+19
9.836021186e+19
9.873511579e+19
9.878718578e+19
9.972444561e+19
9.862056181e+19
1.000056236e+20
9.998479556e+19
9.983899959e+19
9.901629374e+19
9.878718578e+19
1.004742535e+20
1.001514195e+20
9.981817159e+19
1.000785215e+20
1.003909415e+20
1.013073733e+20
1.016510353e+20
1.019217992e+20
1.026403651e+20
7.826119557e+19
1.011928193e+20
1.015781373e+20
9.915167572e+19
9.87142878e+19
9.954740764e+19
9.954740764e+19
9.847476584e+19
9.916208971e+19
9.974527361e+19
1.007137754e+20
9.887049777e+19
9.98077576e+19
1.010678514e+20
1.016406213e+20
1.008908134e+20
1.014844113e+20
1.023383591e+20
1.023175311e+20
1.018280732e+20
7.855278751e+19
1.007450174e+20
1.012761313e+20
1.018176592e+20
1.02806989e+20
1.017968312e+20
1.019842832e+20
1.022758751e+20
1.012240613e+20
1.001514195e+20
9.988065558e+19
1.000993495e+20
1.005367375e+20
1.004846675e+20
1.017447612e+20
1.027132631e+20
1.013906853e+20
1.011928193e+20
1.014427553e+20
1.010261954e+20
7.819871158e+19
9.97765156e+19
1.018489012e+20
1.020988372e+20
1.018801432e+20
1.016406213e+20
9.983899959e+19
9.837062586e+19
9.875594379e+19
1.007866734e+20
1.010782654e+20
1.002139035e+20
1.005471515e+20
1.005992214e+20
9.882884178e+19
9.849559384e+19
9.952657965e+19
9.940161167e+19
9.809986191e+19
9.757916201e+19
7.766759768e+19
9.806861992e+19
9.749585002e+19
9.896422375e+19
9.840186785e+19
9.864138981e+19
1.002347315e+20
1.024841551e+20
1.02848645e+20
1.03004855e+20
1.02900715e+20
1.024424991e+20
1.012136473e+20
9.969320362e+19
9.960989163e+19
9.952657965e+19
1.003909415e+20
9.998479556e+19
9.906836373e+19
1.000785215e+20
7.768842567e+19
1.016406213e+20
1.02994441e+20
1.007970874e+20
1.003805275e+20
1.003076295e+20
9.838103986e+19
9.879759978e+19
9.737088204e+19
9.549636239e+19
9.637113823e+19
9.713136009e+19
9.972444561e+19
1.003492855e+20
1.005783935e+20
1.014948253e+20
1.008387434e+20
1.010782654e+20
1.006096354e+20
1.007970874e+20
7.743848972e+19
9.823524389e+19
9.886008377e+19
9.918291771e+19
9.972444561e+19
9.935995568e+19
9.97869296e+19
1.004846675e+20
1.006200494e+20
1.019426272e+20
1.018280732e+20
1.013698573e+20
1.006512914e+20
9.907877773e+19
9.877677179e+19
9.917250371e+19
9.938078367e+19
9.960989163e+19
9.954740764e+19
1.002451455e+20
7.708441379e+19
9.915167572e+19
9.874552979e+19
9.97973436e+19
9.948492365e+19
1.005679795e+20
1.008075014e+20
9.952657965e+19
9.956823564e+19
9.833938387e+19
9.858931982e+19
9.808944791e+19
9.778744197e+19
9.803737792e+19
9.765205999e+19
9.695432212e+19
9.793323794e+19
9.864138981e+19
9.92558157e+19
9.796447994e+19
7.779256566e+19
1.002868015e+20
1.010157814e+20
9.97973436e+19
9.985982759e+19
9.850600784e+19
9.81727599e+19
9.931829969e+19
9.949533765e+19
1.006200494e+20
1.004117695e+20
1.001930755e+20
1.012240613e+20
1.018593152e+20
1.018384872e+20
1.009324694e+20
1.011303354e+20
1.007346034e+20
1.013177873e+20
1.012553033e+20
7.503285616e+19
9.828731388e+19
9.956823564e+19
9.92141597e+19
1.001201775e+20
9.943285366e+19
1.001722475e+20
1.001097635e+20
1.002139035e+20
9.886008377e+19
1.004325975e+20
1.001201775e+20
1.005471515e+20
9.947450966e+19
1.001930755e+20
9.966196162e+19
9.97973436e+19
9.943285366e+19
9.918291771e+19
9.908919173e+19
2.423152348e+20
2.843994585e+20
2.982462798e+20
2.947241509e+20
2.97728156e+20
3.011641756e+20
3.017177162e+20
3.108291947e+20
3.153518734e+20
3.138827484e+20
3.004011662e+20
3.015118985e+20
2.971521489e+20
2.994479713e+20
2.896564817e+20
2.961917936e+20
2.941332043e+20
2.868758937e+20
2.854395656e+20
2.856139412e+20
2.691841818e+20
2.795534912e+20
2.819846242e+20
2.749456215e+20
2.792787728e+20
2.840865735e+20
2.762161982e+20
2.705332849e+20
2.708534827e+20
2.806662984e+20
2.742179909e+20
2.68466672e+20
2.651022983e+20
2.666299374e+20
2.686067033e+20
2.620767014e+20
2.492478213e+20
2.366319809e+20
2.17404147e+20
1.814652584e+20
1.667759216e+20
1.963552705e+20
2.138625449e+20
2.390612652e+20
2.468210466e+20
2.579150395e+20
2.594574027e+20
2.666194493e+20
2.680811515e+20
2.713569141e+20
2.679168762e+20
2.708782083e+20
2.702976908e+20
2.609804507e+20
2.604319847e+20
2.656620791e+20
2.597439418e+20
2.667166637e+20
2.60857565e+20
2.595900832e+20
2.531824961e+20
2.548959778e+20
2.646926499e+20
2.570920096e+20
2.582669292e+20
2.548990789e+20
2.579940872e+20
2.525301934e+20
2.480465364e+20
2.560622232e+20
2.544497958e+20
2.491370718e+20
2.461788383e+20
2.452191339e+20
2.351227421e+20
2.319590992e+20
2.260081576e+20
2.119772809e+20
2.026273266e+20
1.691719451e+20
1.386106684e+20
1.605988284e+20
1.761420404e+20
2.008217055e+20
2.142439349e+20
2.223267458e+20
2.342080094e+20
2.432304304e+20
2.442578575e+20
2.512465039e+20
2.510914494e+20
2.579060665e+20
2.563297298e+20
2.524244667e+20
2.519731744e+20
2.56929323e+20
2.568576371e+20
2.442518325e+20
2.428172604e+20
2.431255199e+20
2.430997393e+20
2.436469786e+20
2.445227797e+20
2.38630879e+20
2.495797009e+20
2.378352327e+20
2.383741852e+20
2.4162583e+20
2.407715731e+20
2.395639396e+20
2.417397922e+20
2.385309808e+20
2.407625829e+20
2.268573798e+20
2.264659131e+20
2.232932499e+20
2.101824589e+20
2.053905741e+20
1.947237741e+20
1.727474048e+20
1.271564505e+20
1.358281796e+20
1.526091079e+20
1.678102105e+20
1.812692789e+20
1.94832111e+20
2.073348962e+20
2.177999486e+20
2.214626684e+20
2.302007257e+20
2.379003149e+20
2.385721511e+20
2.415535167e+20
2.436161616e+20
2.416885548e+20
2.455650966e+20
2.469902303e+20
2.436843e+20
2.425789471e+20
2.4254908e+20
2.445643416e+20
2.415240653e+20
2.4603552e+20
2.423007883e+20
2.439298774e+20
2.332983164e+20
2.375100962e+20
2.402675897e+20
2.394923164e+20
2.322530888e+20
2.298184142e+20
2.321010385e+20
2.339554864e+20
2.305000494e+20
2.250367197e+20
2.151080739e+20
2.115821049e+20
2.116836063e+20
1.88711429e+20
1.725764659e+20
1.169772459e+20
1.240742226e+20
1.348296118e+20
1.422247017e+20
1.590927755e+20
1.722174764e+20
1.886021785e+20
1.994267822e+20
2.084510597e+20
2.117049389e+20
2.232958447e+20
2.31295096e+20
2.337100568e+20
2.370443397e+20
2.377364876e+20
2.399295583e+20
2.42121058e+20
2.41697936e+20
2.355725407e+20
2.420446949e+20
2.404247224e+20
2.401453922e+20
2.407101825e+20
2.37316655e+20
2.346426676e+20
2.341804946e+20
2.280686539e+20
2.310802474e+20
2.289093768e+20
2.276398245e+20
2.293452389e+20
2.292373936e+20
2.272954983e+20
2.261963027e+20
2.157946023e+20
2.14297796e+20
2.114158095e+20
1.972236179e+20
1.884150458e+20
1.748129097e+20
1.104454154e+20
1.161926525e+20
1.229306998e+20
1.338491284e+20
1.404511892e+20
1.496677639e+20
1.667418923e+20
1.747206902e+20
1.85490047e+20
1.959818496e+20
2.027912584e+20
2.140516395e+20
2.19878702e+20
2.247264757e+20
2.323630631e+20
2.313714575e+20
2.417456038e+20
2.397706899e+20
2.365972872e+20
2.380816709e+20
2.431239476e+20
2.356067501e+20
2.403289224e+20
2.36275194e+20
2.392300241e+20
2.374193487e+20
2.404454572e+20
2.269542717e+20
2.276559639e+20
2.30949907e+20
2.251786715e+20
2.23112377e+20
2.249016485e+20
2.222972969e+20
2.177138031e+20
2.126497743e+20
2.049996131e+20
2.016846779e+20
1.929595878e+20
1.835592515e+20
1.092644604e+20
1.147405074e+20
1.153018338e+20
1.21280434e+20
1.262040752e+20
1.334696263e+20
1.4465276e+20
1.534828906e+20
1.647952877e+20
1.714284416e+20
1.797179898e+20
1.919831785e+20
1.999342293e+20
2.134867108e+20
2.225406736e+20
2.290077916e+20
2.296489372e+20
2.35443254e+20
2.365615402e+20
2.335422072e+20
2.327385876e+20
2.272493053e+20
2.30108702e+20
2.312662644e+20
2.318802538e+20
2.354155438e+20
2.357565039e+20
2.359365969e+20
2.335095321e+20
2.284868947e+20
2.297395532e+20
2.272752684e+20
2.235910476e+20
2.197609209e+20
2.135623404e+20
2.167423643e+20
2.111525116e+20
2.071246543e+20
1.984779628e+20
1.894851162e+20
1.054080677e+20
1.072693263e+20
1.119112267e+20
1.147826961e+20
1.212079151e+20
1.265229298e+20
1.295488934e+20
1.398182597e+20
1.500591155e+20
1.609389585e+20
1.695554322e+20
1.770335762e+20
1.839171789e+20
1.942414817e+20
2.056923871e+20
2.118450151e+20
2.189602241e+20
2.230875969e+20
2.253727384e+20
2.28318221e+20
2.327627956e+20
2.362045819e+20
2.375617148e+20
2.396227466e+20
2.377925698e+20
2.367388118e+20
2.399498764e+20
2.36051918e+20
2.353702668e+20
2.298812967e+20
2.309619182e+20
2.295025436e+20
2.26559956e+20
2.23484537e+20
2.182854808e+20
2.146960665e+20
2.128986007e+20
2.055863558e+20
2.013429988e+20
1.91878249e+20
1.042793674e+20
1.072061894e+20
1.083616848e+20
1.121366552e+20
1.155885783e+20
1.223787168e+20
1.297014576e+20
1.317402128e+20
1.378876785e+20
1.426881488e+20
1.51271802e+20
1.62524665e+20
1.722487515e+20
1.80042677e+20
1.87988975e+20
1.989088928e+20
2.061830467e+20
2.129311285e+20
2.190336087e+20
2.258443331e+20
2.2878053e+20
2.307142899e+20
2.358521957e+20
2.353577174e+20
2.307552893e+20
2.338654295e+20
2.337487675e+20
2.368719896e+20
2.367012114e+20
2.350288654e+20
2.349839067e+20
2.349911994e+20
2.303312766e+20
2.282065164e+20
2.219741611e+20
2.164814255e+20
2.150465758e+20
2.129841662e+20
2.036434971e+20
1.979038262e+20
1.046974046e+20
1.072061895e+20
1.098026929e+20
1.105255577e+20
1.106676293e+20
1.109631956e+20
1.134751537e+20
1.198755815e+20
1.274960792e+20
1.339803189e+20
1.402006712e+20
1.480270535e+20
1.559471052e+20
1.5982257e+20
1.668881716e+20
1.753653827e+20
1.868119539e+20
1.974776897e+20
2.051995306e+20
2.100883096e+20
2.1798363e+20
2.239185275e+20
2.230000515e+20
2.279559072e+20
2.318802532e+20
2.313575249e+20
2.319443483e+20
2.327460142e+20
2.309251746e+20
2.371791176e+20
2.317374012e+20
2.293301965e+20
2.289136887e+20
2.29285826e+20
2.288070689e+20
2.240211263e+20
2.16293783e+20
2.121311107e+20
2.088796006e+20
2.006815718e+20
1.022727891e+20
1.041756258e+20
1.052571601e+20
1.054895443e+20
1.05488814e+20
1.096972088e+20
1.119713054e+20
1.161438749e+20
1.217475349e+20
1.279672394e+20
1.334480667e+20
1.364673833e+20
1.449275559e+20
1.541338725e+20
1.598044956e+20
1.669470063e+20
1.766981562e+20
1.82319841e+20
1.902811284e+20
1.987156319e+20
2.039549187e+20
2.107052237e+20
2.149935987e+20
2.247323384e+20
2.264304253e+20
2.303745263e+20
2.334056714e+20
2.277102723e+20
2.299431192e+20
2.300246467e+20
2.315008138e+20
2.33532862e+20
2.317354909e+20
2.317412552e+20
2.282217782e+20
2.282510494e+20
2.206174434e+20
2.133617481e+20
2.097969791e+20
2.081458817e+20
9.975411523e+19
9.910364084e+19
1.002878016e+20
1.027901556e+20
1.034043946e+20
1.066025746e+20
1.088437376e+20
1.101731454e+20
1.111569481e+20
1.133910898e+20
1.168918474e+20
1.25224108e+20
1.317223128e+20
1.384670177e+20
1.485607487e+20
1.574224796e+20
1.631466024e+20
1.7111107e+20
1.771619886e+20
1.856856907e+20
1.940658316e+20
2.015059352e+20
2.053514168e+20
2.12482777e+20
2.213680817e+20
2.234683316e+20
2.263150629e+20
2.27620579e+20
2.27100327e+20
2.329828697e+20
2.321448554e+20
2.288661781e+20
2.279374215e+20
2.254947511e+20
2.254042293e+20
2.252434112e+20
2.22848562e+20
2.197526715e+20
2.182932961e+20
2.148552064e+20
1.019488103e+20
1.035547814e+20
1.035830483e+20
1.032169365e+20
1.037482159e+20
1.03583683e+20
1.051168088e+20
1.066609495e+20
1.112564411e+20
1.125893454e+20
1.164543855e+20
1.19834114e+20
1.241520641e+20
1.290737859e+20
1.356067506e+20
1.417850257e+20
1.492078658e+20
1.57714939e+20
1.677962834e+20
1.749735153e+20
1.855566115e+20
1.903667388e+20
1.981443763e+20
2.03481581e+20
2.09743445e+20
2.16121046e+20
2.260100885e+20
2.282100041e+20
2.294650132e+20
2.294382167e+20
2.314613845e+20
2.373245394e+20
2.360283749e+20
2.318087121e+20
2.24573932e+20
2.245841985e+20
2.300269416e+20
2.28073458e+20
2.285396873e+20
2.183594417e+20
9.927337218e+19
9.810397508e+19
9.966265767e+19
1.008269637e+20
1.006215873e+20
1.011815543e+20
1.042232175e+20
1.070670477e+20
1.080063027e+20
1.081018057e+20
1.101504591e+20
1.149639118e+20
1.203612482e+20
1.255068801e+20
1.276679489e+20
1.339255444e+20
1.399857686e+20
1.47452057e+20
1.525680736e+20
1.606826104e+20
1.694217803e+20
1.811552496e+20
1.857349867e+20
1.935505079e+20
1.980063119e+20
2.056609352e+20
2.132012406e+20
2.201630689e+20
2.226035467e+20
2.249161734e+20
2.266770567e+20
2.267317043e+20
2.286194724e+20
2.309587558e+20
2.314340606e+20
2.315470935e+20
2.305812568e+20
2.309962196e+20
2.256323091e+20
2.262795853e+20
1.001512511e+20
1.005452633e+20
1.014427271e+20
1.020326201e+20
1.051987152e+20
1.061264775e+20
1.058905282e+20
1.052670489e+20
1.063038499e+20
1.09426911e+20
1.12180728e+20
1.137548367e+20
1.139976874e+20
1.163889088e+20
1.198100384e+20
1.241797897e+20
1.280181655e+20
1.336184516e+20
1.398183205e+20
1.457191925e+20
1.516044734e+20
1.579130128e+20
1.654175335e+20
1.732420261e+20
1.821068102e+20
1.870469759e+20
1.943945988e+20
2.021856066e+20
2.112582235e+20
2.210066294e+20
2.235225594e+20
2.319684636e+20
2.323239236e+20
2.345744428e+20
2.332988198e+20
2.327968456e+20
2.287797345e+20
2.279196284e+20
2.294429525e+20
2.229320434e+20
1.007365024e+20
1.014291777e+20
1.024705056e+20
1.030675636e+20
1.02039852e+20
1.020796481e+20
1.011610346e+20
1.031377797e+20
1.049219876e+20
1.065985366e+20
1.079070688e+20
1.07426961e+20
1.085562152e+20
1.115030519e+20
1.139974942e+20
1.165066082e+20
1.188547362e+20
1.233319236e+20
1.301904706e+20
1.322809393e+20
1.399844887e+20
1.479938821e+20
1.563287919e+20
1.639804649e+20
1.721446201e+20
1.776328747e+20
1.862111697e+20
1.916656508e+20
1.982718303e+20
2.053163186e+20
2.091958771e+20
2.163509948e+20
2.280711601e+20
2.332253059e+20
2.323187994e+20
2.301874733e+20
2.314958768e+20
2.291083122e+20
2.252512449e+20
2.273906843e+20
1.008201098e+20
1.008504236e+20
1.000758879e+20
9.922653569e+19
1.002025545e+20
1.018740598e+20
1.039180896e+20
1.037743663e+20
1.031532054e+20
1.037590269e+20
1.042279089e+20
1.066585771e+20
1.072812269e+20
1.102987915e+20
1.130152553e+20
1.152025157e+20
1.158511005e+20
1.202104926e+20
1.247807603e+20
1.324370584e+20
1.369100369e+20
1.40441682e+20
1.475598191e+20
1.532558995e+20
1.600949967e+20
1.663409928e+20
1.730338117e+20
1.818504423e+20
1.889681469e+20
1.974581297e+20
2.079209301e+20
2.104646109e+20
2.153128677e+20
2.211370407e+20
2.264250818e+20
2.303934801e+20
2.299715121e+20
2.302410579e+20
2.342697628e+20
2.298550428e+20
1.020324176e+20
1.012923815e+20
1.033923269e+20
1.035796998e+20
1.033614162e+20
1.022527738e+20
1.029155234e+20
1.020621709e+20
1.035180169e+20
1.040708162e+20
1.034875909e+20
1.042856243e+20
1.050272267e+20
1.065598486e+20
1.072720465e+20
1.079485073e+20
1.105947427e+20
1.137193405e+20
1.1641597e+20
1.190948765e+20
1.200368504e+20
1.252152699e+20
1.278081047e+20
1.345592005e+20
1.434705174e+20
1.541795393e+20
1.616227547e+20
1.690752936e+20
1.81124625e+20
1.856903966e+20
1.909523546e+20
1.961861647e+20
2.035575893e+20
2.112613562e+20
2.198099538e+20
2.230735116e+20
2.285302906e+20
2.295138631e+20
2.305155754e+20
2.318350803e+20
1.015203227e+20
1.016712019e+20
1.006480535e+20
1.009229901e+20
1.009224313e+20
1.018415986e+20
1.021636001e+20
1.031597316e+20
1.010085555e+20
1.015208258e+20
1.012105498e+20
1.036189376e+20
1.04708481e+20
1.043004273e+20
1.054462377e+20
1.071334493e+20
1.07614573e+20
1.084341925e+20
1.077294559e+20
1.104602878e+20
1.164540231e+20
1.219210944e+20
1.2746374e+20
1.335177398e+20
1.381581822e+20
1.431649124e+20
1.507962285e+20
1.587987973e+20
1.642875424e+20
1.73271074e+20
1.850902435e+20
1.918906963e+20
1.961219399e+20
2.011833031e+20
2.062258103e+20
2.127596425e+20
2.185526193e+20
2.213049527e+20
2.194364905e+20
2.23174206e+20
1.004334255e+20
1.013765638e+20
1.020042964e+20
1.030035458e+20
1.024266515e+20
1.029561005e+20
1.032969349e+20
1.030170487e+20
1.024899119e+20
1.022334863e+20
1.018499153e+20
1.013815814e+20
1.004509273e+20
1.012037575e+20
1.033662031e+20
1.046882784e+20
1.067346029e+20
1.101604383e+20
1.123646465e+20
1.151438617e+20
1.169381881e+20
1.175654624e+20
1.188300527e+20
1.216029336e+20
1.280209991e+20
1.336121843e+20
1.392453936e+20
1.435762547e+20
1.506938272e+20
1.587405938e+20
1.657295044e+20
1.754512572e+20
1.843532862e+20
1.900529232e+20
1.958267282e+20
2.027891111e+20
2.078127608e+20
2.149839499e+20
2.17855778e+20
2.165930812e+20
1.012485979e+20
1.007346729e+20
1.006904361e+20
1.004108531e+20
9.974054402e+19
9.805445886e+19
9.856744134e+19
9.713412396e+19
9.687402629e+19
9.734507544e+19
9.832779338e+19
9.961881792e+19
1.012022609e+20
1.025456477e+20
1.032506448e+20
1.049327956e+20
1.04740003e+20
1.047215844e+20
1.058706134e+20
1.064852554e+20
1.081384731e+20
1.136612553e+20
1.156815851e+20
1.194332248e+20
1.222086817e+20
1.261388739e+20
1.310873751e+20
1.340813837e+20
1.419845447e+20
1.481326927e+20
1.555299555e+20
1.628034911e+20
1.704315023e+20
1.768043983e+20
1.858632064e+20
1.926949727e+20
1.989852916e+20
2.037963397e+20
2.102062683e+20
2.158665914e+20
9.760122377e+19
9.74199939e+19
9.706672476e+19
9.697526764e+19
9.671061475e+19
9.700488012e+19
9.812064518e+19
9.835241567e+19
9.948298101e+19
1.003850212e+20
9.975234545e+19
9.995780973e+19
1.012022594e+20
1.008252749e+20
9.946035811e+19
1.001356009e+20
1.026984689e+20
1.054901165e+20
1.065974677e+20
1.084547575e+20
1.114671126e+20
1.118433567e+20
1.125577132e+20
1.12973687e+20
1.182463055e+20
1.213625113e+20
1.24733782e+20
1.297247659e+20
1.336112319e+20
1.376029848e+20
1.44883523e+20
1.491614096e+20
1.560416498e+20
1.621527723e+20
1.695976266e+20
1.781649152e+20
1.877604108e+20
1.940771016e+20
1.985485284e+20
2.075618406e+20
9.88448843e+19
9.830390896e+19
9.718327688e+19
9.662317282e+19
9.772059117e+19
9.888762961e+19
9.87091082e+19
9.749631831e+19
9.851014974e+19
9.938284126e+19
1.008628236e+20
1.007261952e+20
9.972236284e+19
1.019148446e+20
1.021875156e+20
1.016143476e+20
1.011027892e+20
1.022149822e+20
1.02653386e+20
1.024862031e+20
1.031757702e+20
1.044375631e+20
1.107990007e+20
1.129984846e+20
1.133339581e+20
1.158677997e+20
1.193205179e+20
1.228566827e+20
1.26710999e+20
1.306439909e+20
1.36090354e+20
1.420420699e+20
1.463057636e+20
1.556769136e+20
1.604371742e+20
1.660107512e+20
1.710616659e+20
1.806519671e+20
1.910542688e+20
1.961089739e+20
9.766393e+19
9.93667108e+19
9.993814517e+19
1.002934877e+20
1.003422314e+20
9.996967024e+19
1.01073855e+20
1.037524144e+20
1.018155634e+20
1.008415698e+20
9.888864093e+19
9.786735206e+19
9.865228197e+19
9.835940891e+19
9.936791209e+19
1.00089027e+20
1.013374481e+20
9.983843875e+19
1.008779531e+20
1.023781206e+20
1.051003308e+20
1.056942309e+20
1.050678058e+20
1.067249238e+20
1.079966249e+20
1.097681687e+20
1.125602935e+20
1.163089392e+20
1.170713492e+20
1.221342127e+20
1.266005699e+20
1.314624956e+20
1.36021565e+20
1.40580071e+20
1.50051703e+20
1.589242566e+20
1.683039464e+20
1.7551965e+20
1.812312805e+20
1.885734435e+20
1.003811708e+20
9.927200568e+19
9.852892408e+19
9.958929937e+19
1.001058546e+20
1.007379179e+20
9.852385154e+19
9.784753843e+19
9.8277997e+19
9.822476599e+19
9.937096912e+19
9.990131158e+19
1.006672208e+20
1.000912502e+20
9.955280412e+19
9.997258946e+19
1.012787833e+20
1.022149822e+20
1.029989401e+20
1.022220023e+20
1.017353772e+20
1.028392772e+20
1.055105583e+20
1.057950482e+20
1.075841386e+20
1.090624262e+20
1.095995163e+20
1.108631633e+20
1.153915175e+20
1.156052721e+20
1.202389974e+20
1.243961865e+20
1.294418166e+20
1.35979514e+20
1.427287867e+20
1.487477206e+20
1.570513496e+20
1.648914185e+20
1.731019122e+20
1.771633098e+20
1.007365024e+20
9.991389523e+19
1.01294388e+20
1.010083462e+20
1.000413881e+20
9.789215287e+19
9.900333868e+19
9.886826851e+19
1.002678777e+20
1.009195171e+20
1.020293865e+20
1.007826933e+20
1.006330679e+20
1.014331397e+20
1.032390898e+20
1.020335214e+20
1.027806011e+20
1.028652799e+20
1.03034687e+20
1.027143772e+20
1.031515627e+20
1.038641334e+20
1.023743902e+20
1.041956621e+20
1.062341799e+20
1.036811394e+20
1.075790748e+20
1.083773281e+20
1.089952352e+20
1.117999798e+20
1.150340717e+20
1.198355675e+20
1.270747135e+20
1.322019305e+20
1.368486764e+20
1.430895104e+20
1.460204749e+20
1.503754904e+20
1.5601048e+20
1.66095056e+20
9.958690024e+19
9.893527572e+19