/*--------------------------------*- C++ -*----------------------------------*\
  =========                 |
  \\      /  F ield         | OpenFOAM: The Open Source CFD Toolbox
   \\    /   O peration     | Website:  https://openfoam.org
    \\  /    A nd           | Version:  7
     \\/     M anipulation  |
\*---------------------------------------------------------------------------*/
FoamFile
{
    version     2.0;
    format      ascii;
    class       volScalarField;
    location    "0.002";
    object      rhoNMean;
}
// * * * * * * * * * * * * * * * * * * * * * * * * * * * * * * * * * * * * * //

dimensions      [0 -3 0 0 0 0 0];

internalField   nonuniform List<scalar> 
2400
(
8.433255645e+19
8.312453267e+19
8.313494667e+19
7.499120017e+19
7.531403411e+19
7.986495127e+19
8.104173306e+19
8.165615894e+19
7.739683373e+19
7.789670564e+19
7.869858349e+19
7.240852865e+19
7.490788819e+19
6.905522127e+19
7.126298886e+19
6.814920343e+19
6.868031734e+19
7.287715856e+19
6.957592117e+19
6.440016412e+19
8.878974763e+19
8.209354686e+19
7.759469969e+19
7.748014571e+19
7.497037218e+19
7.650122989e+19
7.667826786e+19
7.736559173e+19
7.404352635e+19
7.561604006e+19
7.393938637e+19
6.875321532e+19
7.078394495e+19
7.178368876e+19
7.37415204e+19
6.788885348e+19
7.009662107e+19
6.304634437e+19
6.229653651e+19
5.90890251e+19
8.490532634e+19
8.117711503e+19
7.48245762e+19
7.789670564e+19
7.634501992e+19
7.566811005e+19
7.301254054e+19
7.197114073e+19
6.978420113e+19
7.457464025e+19
7.041945501e+19
6.986751312e+19
7.541817409e+19
7.115884888e+19
7.032572903e+19
6.000545693e+19
6.081774879e+19
5.885991715e+19
5.666256355e+19
5.74644414e+19
8.73005459e+19
7.788629164e+19
7.421015032e+19
8.006281724e+19
7.222107668e+19
7.32104065e+19
6.77951275e+19
6.610805981e+19
7.057566499e+19
6.915936125e+19
6.877404332e+19
7.241894265e+19
7.10547089e+19
7.153375281e+19
6.67016577e+19
6.926350123e+19
6.043243086e+19
6.620178579e+19
6.046367285e+19
5.864122319e+19
8.139580899e+19
7.641791791e+19
7.595970199e+19
6.99820671e+19
7.580349202e+19
7.162747879e+19
7.057566499e+19
6.840955339e+19
7.042986901e+19
6.83366554e+19
6.739939557e+19
6.446264811e+19
6.908646326e+19
7.258556662e+19
6.707656163e+19
6.460844409e+19
6.365035626e+19
6.039077486e+19
5.836004524e+19
5.633972961e+19
8.29474947e+19
7.069021896e+19
6.951343718e+19
7.384566038e+19
7.217942069e+19
7.161706479e+19
7.028407304e+19
6.88781833e+19
7.218983469e+19
6.83054134e+19
6.795133747e+19
6.638923776e+19
6.459803009e+19
6.814920343e+19
6.29005484e+19
6.595184984e+19
6.228612251e+19
6.088023277e+19
5.734988742e+19
5.244489433e+19
7.842781954e+19
7.42934623e+19
7.272094859e+19
7.581390602e+19
6.761808953e+19
7.138795684e+19
7.239811465e+19
7.005496508e+19
7.152333881e+19
6.644130775e+19
6.819085943e+19
7.113802088e+19
6.434809413e+19
6.372325425e+19
6.55977739e+19
5.773520535e+19
5.758940938e+19
5.665214955e+19
5.527750181e+19
5.363209011e+19
8.328074264e+19
7.619922395e+19
7.454339825e+19
7.498078617e+19
6.981544313e+19
7.414766633e+19
6.650379174e+19
6.933639921e+19
6.980502913e+19
6.862824734e+19
6.538949394e+19
6.781595549e+19
6.868031734e+19
6.264019845e+19
6.18174926e+19
6.189039059e+19
5.849542721e+19
5.952641302e+19
5.783934533e+19
5.409030603e+19
7.737600573e+19
7.650122989e+19
7.16066508e+19
7.311668052e+19
7.518906614e+19
7.69906878e+19
7.255432462e+19
6.520204198e+19
6.838872539e+19
6.863866134e+19
6.705573363e+19
6.758684754e+19
6.856576336e+19
6.167169663e+19
6.160921264e+19
6.187997659e+19
5.769354936e+19
5.663132156e+19
5.347588014e+19
5.335091216e+19
7.175244677e+19
7.086725693e+19
6.935722721e+19
6.765974552e+19
6.853452136e+19
6.987792711e+19
6.843038138e+19
7.010703507e+19
6.922184524e+19
6.908646326e+19
6.974254514e+19
6.787843948e+19
6.34629043e+19
6.07240228e+19
5.989090296e+19
6.448347611e+19
5.90890251e+19
5.865163718e+19
5.537122779e+19
5.487135588e+19
7.215859269e+19
6.5056246e+19
6.645172175e+19
6.921143124e+19
6.978420113e+19
6.607681782e+19
6.564984389e+19
6.924267323e+19
6.682662568e+19
6.167169663e+19
6.460844409e+19
6.690993766e+19
6.101561475e+19
6.232777851e+19
6.402526019e+19
6.142176067e+19
5.626683162e+19
6.049491484e+19
5.984924696e+19
5.789141532e+19
7.053400899e+19
6.763891753e+19
7.062773498e+19
6.937805521e+19
6.576439787e+19
6.282765041e+19
7.186700075e+19
7.031531503e+19
6.83054134e+19
6.699324965e+19
6.61601298e+19
6.580605387e+19
6.304634437e+19
6.431685214e+19
6.054698484e+19
6.224446652e+19
5.451727995e+19
5.722491945e+19
6.084899078e+19
5.832880324e+19
7.291881455e+19
7.133588685e+19
7.237728665e+19
6.480631005e+19
6.12655507e+19
6.497293402e+19
6.268185444e+19
6.77742995e+19
7.221066268e+19
6.403567419e+19
7.061732098e+19
6.370242625e+19
5.837045924e+19
5.841211523e+19
6.086981878e+19
5.839128723e+19
5.781851734e+19
5.737071542e+19
5.635014361e+19
5.883908915e+19
7.287715856e+19
7.124216086e+19
6.606640382e+19
6.77847135e+19
6.404608819e+19
6.751394955e+19
6.637882376e+19
6.573315588e+19
6.402526019e+19
6.93988832e+19
6.372325425e+19
6.593102184e+19
6.45147181e+19
5.614186365e+19
5.984924696e+19
5.536081379e+19
5.685001552e+19
5.327801418e+19
5.819342127e+19
6.164045463e+19
7.189824274e+19
7.062773498e+19
6.99716531e+19
6.83366554e+19
6.604557582e+19
6.555611791e+19
6.331710832e+19
6.641006575e+19
6.158838464e+19
6.334835032e+19
6.675372769e+19
6.40044322e+19
6.222363853e+19
5.849542721e+19
5.922440708e+19
5.818300727e+19
6.228612251e+19
5.74852694e+19
6.500417601e+19
5.618351964e+19
7.924011139e+19
7.459546824e+19
6.510831599e+19
6.566025789e+19
7.027365904e+19
6.659751772e+19
6.582688186e+19
6.417105617e+19
6.426478215e+19
6.200494457e+19
5.85474972e+19
6.29109624e+19
6.052615684e+19
6.638923776e+19
5.941185904e+19
6.134886269e+19
6.195287458e+19
6.28901344e+19
6.546239193e+19
6.067195281e+19
7.524113613e+19
6.739939557e+19
7.040904102e+19
7.15754088e+19
6.579563987e+19
6.310882836e+19
6.373366825e+19
6.294220439e+19
6.151548666e+19
6.113016873e+19
6.012001091e+19
6.520204198e+19
5.872453517e+19
6.268185444e+19
5.931813306e+19
5.866205118e+19
6.479589605e+19
6.525411197e+19
6.153631465e+19
5.80372113e+19
7.300212654e+19
7.248142663e+19
6.959674917e+19
7.028407304e+19
7.078394495e+19
6.922184524e+19
6.114058273e+19
6.123430871e+19
5.988048896e+19
6.404608819e+19
6.332752232e+19
6.470217007e+19
6.265061245e+19
5.885991715e+19
6.002628493e+19
6.027622089e+19
6.396277621e+19
6.324421034e+19
5.756858138e+19
6.008876892e+19
7.171079078e+19
6.784719749e+19
6.702449164e+19
6.918018924e+19
6.759726154e+19
6.315048436e+19
6.446264811e+19
6.39836042e+19
6.166128263e+19
6.122389471e+19
6.592060784e+19
6.349414629e+19
6.030746288e+19
6.134886269e+19
5.897447113e+19
6.381698023e+19
6.042201686e+19
5.91098531e+19
5.625641763e+19
5.833921724e+19
7.123174686e+19
6.626426978e+19
6.060946882e+19
6.45459601e+19
6.460844409e+19
6.544156393e+19
6.457720209e+19
6.853452136e+19
6.307758637e+19
5.968262299e+19
6.082816278e+19
6.045325885e+19
6.078650679e+19
5.58606857e+19
5.892240113e+19
5.784975933e+19
6.356704428e+19
6.374408225e+19
5.991173095e+19
6.083857678e+19
7.0523595e+19
7.151292481e+19
6.906563526e+19
6.520204198e+19
6.827417141e+19
6.72431856e+19
6.706614763e+19
6.369201226e+19
6.360870027e+19
6.035953287e+19
5.995338694e+19
5.993255895e+19
6.594143584e+19
5.932854706e+19
6.285889241e+19
5.637097161e+19
6.302551638e+19
6.109892673e+19
5.64230416e+19
5.852666921e+19
6.983627112e+19
7.409559634e+19
7.132547285e+19
6.379615224e+19
6.910729126e+19
6.379615224e+19
6.501459001e+19
6.170293862e+19
6.199453057e+19
5.713119347e+19
6.031787688e+19
6.176542261e+19
6.301510238e+19
6.29317904e+19
6.360870027e+19
5.783934533e+19
6.016166691e+19
5.725616144e+19
5.738112942e+19
5.752692539e+19
6.720152961e+19
6.815961743e+19
7.10338809e+19
6.768057352e+19
6.893025329e+19
6.276516643e+19
6.228612251e+19
6.318172635e+19
6.550404792e+19
5.892240113e+19
6.198411657e+19
6.378573824e+19
6.334835032e+19
6.101561475e+19
6.428561015e+19
5.903695511e+19
5.819342127e+19
6.029704888e+19
6.186956259e+19
5.441313997e+19
7.167954878e+19
6.794092347e+19
7.391855837e+19
6.955509317e+19
6.411898618e+19
6.727442759e+19
6.836789739e+19
6.56081879e+19
6.610805981e+19
6.192163258e+19
6.114058273e+19
6.361911427e+19
6.839913939e+19
6.597267783e+19
6.413981417e+19
6.247357448e+19
6.07136088e+19
6.153631465e+19
6.276516643e+19
5.686042951e+19
7.480374821e+19
7.787587764e+19
7.089849893e+19
7.013827707e+19
6.915936125e+19
7.127340286e+19
7.216900669e+19
6.547280593e+19
6.714945962e+19
6.330669433e+19
6.206742855e+19
6.447306211e+19
6.517079998e+19
6.361911427e+19
6.298386039e+19
6.078650679e+19
5.979717697e+19
6.339000631e+19
6.203618656e+19
5.841211523e+19
7.97295693e+19
7.447050027e+19
6.689952366e+19
6.520204198e+19
6.089064677e+19
6.925308723e+19
6.880528531e+19
5.799555531e+19
6.056781283e+19
6.589977985e+19
5.994297295e+19
6.40148462e+19
6.425436815e+19
6.209867055e+19
6.105727074e+19
6.119265272e+19
6.204660056e+19
6.155714265e+19
6.18279066e+19
6.326503833e+19
8.004198924e+19
7.062773498e+19
6.500417601e+19
6.56394299e+19
6.61601298e+19
6.535825195e+19
6.826375741e+19
6.694117966e+19
6.603516182e+19
5.789141532e+19
6.5077074e+19
6.115099672e+19
6.144258867e+19
6.282765041e+19
6.386905022e+19
6.089064677e+19
5.994297295e+19
6.312965636e+19
6.055739883e+19
6.641006575e+19
7.281467457e+19
7.465795223e+19
6.980502913e+19
7.119009087e+19
7.250225463e+19
7.215859269e+19
6.99404111e+19
6.729525559e+19
6.607681782e+19
6.23590205e+19
6.279640842e+19
6.94301252e+19
6.66912437e+19
6.477506806e+19
6.254647247e+19
6.423354016e+19
6.169252462e+19
5.954724102e+19
6.079692079e+19
6.459803009e+19
7.028407304e+19
7.460588224e+19
7.687613382e+19
7.384566038e+19
6.735773958e+19
7.066939097e+19
7.079435895e+19
6.747229356e+19
6.531659596e+19
6.482713805e+19
6.380656623e+19
6.630592577e+19
6.18487346e+19
6.607681782e+19
6.574356988e+19
6.863866134e+19
6.657668972e+19
6.420229816e+19
6.472299807e+19
6.321296834e+19
7.598052999e+19
7.42726343e+19
7.094015492e+19
6.931557122e+19
7.029448704e+19
6.88573553e+19
7.273136259e+19
7.123174686e+19
6.989875511e+19
7.26480506e+19
6.67120717e+19
6.965923315e+19
6.392112021e+19
6.730566959e+19
7.241894265e+19
6.812837544e+19
6.658710372e+19
6.607681782e+19
6.024497889e+19
6.410857218e+19
7.48454042e+19
6.772222951e+19
7.187741475e+19
6.803464945e+19
7.508492615e+19
7.004455108e+19
7.263763661e+19
6.880528531e+19
6.808671944e+19
6.498334802e+19
6.771181551e+19
6.820127342e+19
6.963840516e+19
6.930515722e+19
7.033614303e+19
6.408774418e+19
6.434809413e+19
6.403567419e+19
6.151548666e+19
6.325462434e+19
7.419973632e+19
7.976081129e+19
7.988577927e+19
7.414766633e+19
7.512658215e+19
6.999248109e+19
7.302295453e+19
7.033614303e+19
6.593102184e+19
6.620178579e+19
6.99820671e+19
6.141134668e+19
6.544156393e+19
6.83054134e+19
7.343951446e+19
6.774305751e+19
6.473341206e+19
6.610805981e+19
6.597267783e+19
6.423354016e+19
7.432470429e+19
7.531403411e+19
7.399145636e+19
7.468919423e+19
7.153375281e+19
6.384822223e+19
7.080477294e+19
7.311668052e+19
6.844079538e+19
6.750353555e+19
6.533742395e+19
6.872197333e+19
6.83366554e+19
6.72327716e+19
7.37623484e+19
6.801382146e+19
6.421271216e+19
6.578522587e+19
6.261937045e+19
6.386905022e+19
7.038821302e+19
7.349158445e+19
7.845906153e+19
7.695944581e+19
6.975295914e+19
7.479333421e+19
7.406435434e+19
6.742022357e+19
7.140878483e+19
6.72431856e+19
7.123174686e+19
6.850327937e+19
6.755560554e+19
7.0523595e+19
6.495210602e+19
6.818044543e+19
6.554570391e+19
6.530618196e+19
6.298386039e+19
6.792009548e+19
7.723020976e+19
7.949004734e+19
7.344992846e+19
7.203362472e+19
7.184617275e+19
7.419973632e+19
7.419973632e+19
7.398104236e+19
7.417890832e+19
7.082560094e+19
6.99299971e+19
6.918018924e+19
6.66808297e+19
6.977378713e+19
6.83262414e+19
6.511872999e+19
6.840955339e+19
7.019034706e+19
6.472299807e+19
6.402526019e+19
8.40513785e+19
8.390558253e+19
8.344736661e+19
7.774049566e+19
7.206486671e+19
7.619922395e+19
7.203362472e+19
7.057566499e+19
7.235645866e+19
7.679282184e+19
6.826375741e+19
6.926350123e+19
7.193989873e+19
7.32312345e+19
6.756601954e+19
7.081518694e+19
7.393938637e+19
6.924267323e+19
6.242150449e+19
6.738898157e+19
7.796960362e+19
8.093759308e+19
8.138539499e+19
7.494954418e+19
7.81153996e+19
7.343951446e+19
7.296047055e+19
7.550148608e+19
7.025283105e+19
7.185658675e+19
7.5907632e+19
7.381441839e+19
7.401228435e+19
7.37311064e+19
6.728484159e+19
6.802423546e+19
7.090891292e+19
7.250225463e+19
7.114843488e+19
7.246059864e+19
7.899017543e+19
8.456166441e+19
7.612632596e+19
7.480374821e+19
7.997950525e+19
7.612632596e+19
7.220024869e+19
7.616798195e+19
7.565769605e+19
7.597011599e+19
7.527237812e+19
7.21273507e+19
7.146085482e+19
7.312709452e+19
7.514741014e+19
6.925308723e+19
6.902397927e+19
7.115884888e+19
7.026324504e+19
7.217942069e+19
8.57072042e+19
8.658198003e+19
8.231224082e+19
7.608466997e+19
8.093759308e+19
8.18956809e+19
7.961501532e+19
7.735517774e+19
7.925052539e+19
8.02710972e+19
8.107297505e+19
7.587639001e+19
7.626170794e+19
6.990916911e+19
7.384566038e+19
7.396021436e+19
6.771181551e+19
7.446008627e+19
7.301254054e+19
7.486623219e+19
8.417634648e+19
9.226802299e+19
8.824821973e+19
8.531147227e+19
7.834450755e+19
7.75738717e+19
7.818829758e+19
7.985453727e+19
8.000033325e+19
7.815705559e+19
8.256217678e+19
7.845906153e+19
7.819871158e+19
7.201279672e+19
7.414766633e+19
7.473085022e+19
6.99612391e+19
7.588680401e+19
7.613673996e+19
7.366862242e+19
5.150217705e+19
4.755249021e+19
5.32431276e+19
5.266475072e+19
5.448500465e+19
5.356097687e+19
5.418212463e+19
5.427437739e+19
5.284238781e+19
5.707971364e+19
5.973026437e+19
5.832943898e+19
5.912761986e+19
6.226600161e+19
6.330240991e+19
6.473883059e+19
6.435520466e+19
6.421394629e+19
6.274785024e+19
6.099454262e+19
6.490244987e+19
6.843344531e+19
6.423611707e+19
6.305796497e+19
6.508546614e+19
6.644061821e+19
6.770391058e+19
6.824517005e+19
7.240074728e+19
6.917289835e+19
6.912296477e+19
6.974830425e+19
7.39552898e+19
7.672541892e+19
7.596503553e+19
7.385885342e+19
7.583031682e+19
8.829822868e+19
8.765886504e+19
9.549753451e+19
5.455384827e+19
5.13196492e+19
5.518213109e+19
5.139507786e+19
5.413043848e+19
5.609295036e+19
5.191545493e+19
5.488901143e+19
5.448956684e+19
5.552076712e+19
5.939375588e+19
5.939161783e+19
6.047091195e+19
5.899729458e+19
5.545605425e+19
5.524923586e+19
6.097611643e+19
6.11634587e+19
6.271210327e+19
6.199130317e+19
6.561659469e+19
6.516367113e+19
6.597023391e+19
5.940045418e+19
6.361051218e+19
6.557104259e+19
6.337075864e+19
6.793764388e+19
6.807195009e+19
6.755695277e+19
6.951727723e+19
7.169717349e+19
7.581420221e+19
7.883007258e+19
7.16093983e+19
7.937972725e+19
7.958580225e+19
7.754413659e+19
8.514666443e+19
9.160868801e+19
5.56616467e+19
5.345577565e+19
5.306300159e+19
5.481999378e+19
5.378661676e+19
5.47620412e+19
5.35500725e+19
5.352803614e+19
5.403631624e+19
5.634478171e+19
5.956201011e+19
5.757235405e+19
5.485868311e+19
6.186458145e+19
6.266684359e+19
5.820672916e+19
6.137503652e+19
6.323258788e+19
6.059111636e+19
6.051417607e+19
6.375255561e+19
6.119845992e+19
6.440829884e+19
5.854496861e+19
5.887316027e+19
6.694472002e+19
6.847904919e+19
6.675879378e+19
6.935120661e+19
6.681413906e+19
6.967500208e+19
6.766685895e+19
6.873963651e+19
7.816899547e+19
7.380082828e+19
7.626221887e+19
8.01124016e+19
8.08444821e+19
8.523134535e+19
8.253471292e+19
5.727108973e+19
5.314009198e+19
5.501260073e+19
5.043482102e+19
5.272291811e+19
5.454563321e+19
5.341930313e+19
5.696340119e+19
5.769548577e+19
5.851617152e+19
6.192878678e+19
5.829553961e+19
5.814861036e+19
5.82173926e+19
5.479737638e+19
5.706564905e+19
6.044813389e+19
6.035945421e+19
5.935188797e+19
5.882088399e+19
5.98792278e+19
6.089344362e+19
5.920594818e+19
6.083866184e+19
6.392300246e+19
6.983070286e+19
6.944479566e+19
6.961622392e+19
7.287885317e+19
7.085400313e+19
6.92544023e+19
6.834299729e+19
7.083927126e+19
7.263753387e+19
7.584253324e+19
7.843211452e+19
8.011240167e+19
8.420076589e+19
8.710843914e+19
9.300468393e+19
5.315342379e+19
5.094082873e+19
5.484307037e+19
5.400911029e+19
4.938140044e+19
5.125623184e+19
5.284173824e+19
5.780852294e+19
5.81819011e+19
5.815984092e+19
5.986486778e+19
5.35383343e+19
5.8103075e+19
5.392793136e+19
5.498226841e+19
5.592456899e+19
5.972069129e+19
5.869232727e+19
5.876802077e+19
6.15829916e+19
5.967345726e+19
6.334577435e+19
6.442059759e+19
5.866895207e+19
6.313552707e+19
6.208013757e+19
6.436191955e+19
6.573370684e+19
6.802026301e+19
6.80130664e+19
7.25140514e+19
6.962898567e+19
7.566709397e+19
7.560563524e+19
8.067456843e+19
7.727849897e+19
7.688351539e+19
8.413084346e+19
8.463857899e+19
9.424398718e+19
5.357146094e+19
5.72755486e+19
5.640063049e+19
5.292081918e+19
4.989713302e+19
5.327964645e+19
5.41821246e+19
5.371462139e+19
5.270972906e+19
5.349413667e+19
5.407692112e+19
5.591128715e+19
5.500667296e+19
5.562536527e+19
5.785965072e+19
5.602936206e+19
5.391288339e+19
5.453042171e+19
5.632531107e+19
5.745183928e+19
5.905614559e+19
5.664761746e+19
6.492484424e+19
6.392584878e+19
6.187306647e+19
6.243300884e+19
6.436191949e+19
6.655377637e+19
6.697359863e+19
6.498968437e+19
6.552157818e+19
6.993391102e+19
7.307264121e+19
7.455330841e+19
7.748950802e+19
7.535580676e+19
8.321656706e+19
8.597679932e+19
8.892907859e+19
8.750616807e+19
5.674854329e+19
5.412923424e+19
5.129352853e+19
5.188587581e+19
4.837142402e+19
5.446989045e+19
5.085840222e+19
5.283657289e+19
5.123942835e+19
5.250309205e+19
5.441342957e+19
5.464571226e+19
5.446024898e+19
5.562536519e+19
5.603384185e+19
5.666976416e+19
5.564935929e+19
5.239035095e+19
5.769561164e+19
5.723567437e+19
6.010920669e+19
5.818489943e+19
6.005455862e+19
6.385145883e+19
6.459798132e+19
6.5142556e+19
6.52768372e+19
6.588746979e+19
6.211500862e+19
6.547186213e+19
6.603418476e+19
7.220096317e+19
7.235047357e+19
7.400016277e+19
7.591059099e+19
7.240310128e+19
7.95165132e+19
8.164159961e+19
8.290262059e+19
9.230668719e+19
5.624689871e+19
5.618117843e+19
5.523510932e+19
5.269675926e+19
5.042361009e+19
4.894066634e+19
5.096737673e+19
5.461462125e+19
5.251074102e+19
5.167907745e+19
5.153067315e+19
5.219366111e+19
5.863811515e+19
5.639379815e+19
5.448537107e+19
5.78690626e+19
5.771435765e+19
5.134987456e+19
5.569378129e+19
5.865275569e+19
5.853566716e+19
6.023460853e+19
6.012835078e+19
6.081386516e+19
6.583544286e+19
6.060563993e+19
6.331992978e+19
6.087735656e+19
6.361393487e+19
5.899504705e+19
6.510097774e+19
7.340740475e+19
6.851228704e+19
7.248912874e+19
7.521640999e+19
7.421592421e+19
7.692508835e+19
7.786577982e+19
7.811814791e+19
9.461435265e+19
5.712477673e+19
5.850671509e+19
5.473711386e+19
5.518275746e+19
5.629006896e+19
5.231663094e+19
5.593661419e+19
5.203535357e+19
5.150474578e+19
5.351640729e+19
5.251776488e+19
5.196766561e+19
5.809169117e+19
5.935283815e+19
5.80098755e+19
5.542389098e+19
5.841833436e+19
5.715525988e+19
5.300084274e+19
5.609480378e+19
5.763996e+19
5.894133973e+19
5.793918203e+19
5.948724271e+19
5.956063883e+19
5.962264088e+19
6.126136493e+19
5.881436938e+19
6.00992103e+19
6.132774275e+19
6.389175357e+19
7.079565614e+19
7.078577756e+19
7.200343943e+19
7.546141458e+19
7.76767711e+19
7.979367079e+19
8.348755561e+19
9.034042724e+19
9.942911585e+19
5.915225695e+19
5.945376627e+19
5.31689581e+19
5.177918058e+19
5.273366258e+19
5.301995694e+19
5.509751053e+19
5.198047553e+19
4.854203449e+19
5.312667066e+19
5.20690868e+19
5.213716219e+19
5.464239032e+19
5.911198606e+19
5.640362592e+19
5.509786805e+19
5.547336502e+19
5.787649928e+19
5.191651791e+19
5.903704871e+19
5.684108649e+19
5.912434939e+19
5.661092198e+19
5.771427978e+19
5.802318664e+19
6.182808677e+19
6.352324534e+19
6.031355918e+19
6.150768459e+19
6.316522983e+19
6.788745262e+19
7.057027611e+19
7.296565319e+19
7.109951767e+19
7.5638363e+19
8.043720798e+19
7.774270392e+19
8.425670395e+19
8.960652594e+19
1.005544588e+20
5.888053276e+19
5.829625928e+19
5.070017225e+19
5.342228666e+19
5.915883173e+19
5.571423634e+19
5.653597397e+19
5.06085246e+19
5.219014913e+19
4.904000369e+19
5.105956121e+19
5.116538143e+19
5.871780167e+19
5.715076171e+19
5.74436436e+19
5.605264949e+19
5.659972811e+19
5.799473541e+19
5.617040761e+19
5.764398581e+19
5.388767349e+19
5.809949479e+19
5.631575359e+19
5.54825783e+19
6.259804417e+19
6.071906279e+19
6.113429253e+19
5.930128524e+19
6.124924894e+19
6.152322005e+19
6.197276653e+19
6.773314742e+19
6.938156319e+19
6.942658784e+19
7.235802307e+19
7.668795789e+19
8.141504271e+19
8.088643579e+19
9.331837374e+19
1.047282044e+20
5.944488292e+19
5.927487883e+19
5.524570497e+19
5.344362566e+19
5.420564949e+19
5.241401457e+19
5.431289427e+19
5.324267069e+19
5.270972936e+19
4.642320078e+19
5.037532737e+19
5.090548697e+19
5.534818814e+19
5.224196684e+19
5.552538872e+19
5.307186848e+19
5.19417482e+19
5.437671439e+19
5.664703347e+19
5.709156472e+19
5.46865482e+19
5.92829583e+19
5.55040393e+19
5.356083537e+19
5.907315383e+19
6.10845366e+19
6.140114453e+19
5.608507511e+19
6.049978556e+19
6.525032043e+19
6.038237265e+19
6.21782063e+19
6.748252927e+19
6.927818278e+19
7.042521029e+19
7.585021403e+19
7.887905074e+19
8.048088485e+19
8.784234013e+19
9.940062523e+19
5.903729669e+19
5.943272081e+19
5.613573953e+19
5.53641393e+19
5.699920106e+19
5.404789476e+19
5.327763616e+19
5.435120622e+19
5.320719905e+19
5.072143887e+19
5.122781532e+19
5.080378844e+19
5.088572587e+19
5.353798051e+19
5.226666663e+19
5.360747791e+19
5.296251522e+19
5.59729006e+19
5.384685448e+19
5.650311526e+19
5.636902413e+19
5.736745535e+19
5.177753238e+19
5.308969839e+19
5.564826086e+19
5.833718128e+19
6.032103284e+19
6.031355918e+19
6.064192516e+19
6.843008497e+19
6.030351118e+19
6.152858429e+19
6.300241792e+19
6.740288241e+19
7.36374915e+19
7.635835281e+19
7.635691597e+19
8.489999165e+19
8.579588458e+19
9.495622926e+19
5.702026725e+19
5.619170084e+19
5.403780078e+19
5.384906727e+19
5.351800601e+19
5.213268404e+19
5.624174253e+19
5.444998707e+19
5.167056895e+19
5.22024377e+19
5.69596773e+19
5.032919825e+19
5.081742289e+19
5.33888812e+19
5.498226837e+19
5.551704013e+19
5.374862175e+19
5.830214845e+19
5.874418955e+19
5.805229737e+19
5.613904529e+19
5.341444523e+19
5.251545445e+19
5.66604203e+19
5.698571907e+19
5.890429628e+19
6.190943164e+19
6.124895061e+19
6.155937172e+19
6.784365252e+19
6.226192843e+19
6.270851136e+19
6.487470375e+19
6.880598484e+19
7.770729002e+19
7.232069954e+19
7.34329034e+19
8.105424925e+19
8.286027939e+19
9.695051039e+19
5.735469747e+19
5.717032085e+19
5.566953082e+19
5.40944666e+19
5.365768397e+19
5.510829424e+19
5.58494347e+19
5.791827934e+19
5.202432589e+19
5.037624357e+19
5.276453799e+19
5.518810194e+19
5.208102854e+19
5.111799038e+19
5.16426564e+19
5.570333934e+19
5.778475532e+19
5.74981444e+19
5.61465763e+19
5.942134204e+19
5.442025649e+19
5.3890271e+19
5.534415618e+19
5.651164065e+19
6.071060314e+19
6.194150968e+19
6.460335601e+19
6.23381061e+19
5.901378106e+19
6.810428948e+19
6.445693469e+19
6.586382391e+19
6.467410169e+19
6.881947621e+19
7.381443991e+19
7.499873598e+19
7.820001464e+19
8.383716849e+19
8.222517323e+19
8.958591828e+19
5.377002852e+19
5.524465018e+19
6.025744651e+19
5.755139109e+19
5.512967051e+19
5.645002377e+19
5.383340633e+19
5.628291307e+19
5.192483148e+19
5.064349154e+19
5.247289689e+19
5.213716189e+19
5.2024109e+19
5.091154573e+19
5.122664895e+19
5.204722551e+19
5.483978648e+19
5.568913431e+19
6.019790018e+19
5.950540664e+19
5.488021374e+19
5.626939687e+19
5.368383107e+19
5.59909103e+19
5.80981843e+19
5.903032174e+19
6.174423867e+19
6.650252224e+19
6.212793015e+19
6.102801141e+19
6.124986096e+19
6.480321483e+19
6.856578151e+19
6.609421956e+19
6.758043352e+19
7.337817969e+19
8.213565172e+19
8.140386285e+19
8.644510496e+19
9.267705268e+19
5.673809229e+19
5.986415482e+19
5.94733678e+19
5.506539255e+19
5.377587233e+19
5.192709645e+19
5.722251349e+19
5.856584016e+19
5.488754314e+19
4.968585296e+19
5.286549017e+19
5.33010391e+19
5.443748163e+19
5.634792164e+19
5.142309673e+19
5.12321679e+19
5.444086552e+19
6.025304122e+19
5.454987783e+19
5.617886827e+19
5.757943997e+19
5.7550466e+19
5.415118215e+19
5.539578991e+19
5.70357175e+19
5.787088711e+19
6.126136493e+19
6.786076258e+19
6.255434897e+19
6.359527935e+19
6.130243492e+19
6.946989361e+19
7.210975049e+19
7.119395787e+19
7.674088435e+19
7.634462064e+19
7.937793441e+19
8.084448225e+19
8.702375791e+19
9.371692654e+19
5.398949802e+19
5.843305571e+19
6.036340298e+19
6.169116445e+19
5.772982218e+19
5.62011542e+19
5.562058785e+19
5.593169403e+19
5.601514222e+19
5.175702478e+19
5.324686689e+19
5.996790641e+19
5.25249972e+19
5.311362166e+19
5.895744708e+19
5.219859328e+19
5.615387635e+19
5.782920507e+19
5.910165926e+19
5.925321375e+19
5.737366854e+19
5.581797326e+19
5.568851982e+19
5.963602271e+19
5.967313556e+19
5.88034764e+19
6.645860581e+19
6.48880096e+19
6.370438761e+19
6.665775694e+19
6.456208466e+19
6.679185686e+19
6.698771203e+19
6.802348541e+19
7.625087383e+19
7.83222457e+19
7.318346157e+19
7.6928818e+19
8.174531395e+19
9.310439845e+19
5.926721745e+19
5.907494593e+19
5.971706809e+19
6.150978303e+19
6.00613639e+19
5.788913649e+19
5.722251349e+19
5.340730439e+19
5.77286502e+19
4.981947731e+19
5.404327042e+19
5.751585521e+19
5.649795511e+19
5.711635452e+19
5.784809488e+19
5.591292506e+19
5.723330646e+19
5.636307882e+19
5.842246681e+19
6.101856081e+19
5.82572719e+19
5.79774883e+19
5.568851938e+19
6.216528438e+19
6.081059953e+19
6.041660122e+19
6.559451686e+19
5.957037108e+19
6.79168887e+19
6.992874423e+19
6.67045154e+19
6.850208842e+19
7.095963267e+19
6.958848428e+19
7.434528255e+19
7.753943593e+19
7.65925006e+19
8.017322552e+19
8.353772749e+19
9.860291403e+19
6.017644785e+19
5.745443619e+19
5.839261218e+19
5.70179147e+19
5.822406636e+19
6.262847184e+19
5.720071858e+19
5.720486446e+19
5.855776758e+19
5.625569905e+19
5.851883349e+19
5.961761295e+19
5.713544925e+19
5.496015479e+19
5.929256433e+19
6.173476279e+19
6.123424122e+19
5.755726238e+19
5.906591229e+19
6.157098234e+19
5.885037477e+19
5.78066792e+19
5.754562373e+19
6.003276964e+19
6.372300851e+19
5.861443774e+19
6.11724151e+19
6.21330887e+19
6.43763203e+19
6.594100687e+19
6.908353359e+19
6.657973504e+19
6.7897108e+19
7.25970597e+19
6.997603459e+19
7.311724416e+19
7.609361626e+19
8.03550235e+19
8.0644462e+19
9.27767667e+19
5.763687216e+19
5.429759867e+19
5.684564767e+19
5.726331405e+19
5.760088942e+19
5.338785037e+19
5.651417919e+19
6.051949825e+19
5.978486069e+19
5.515330115e+19
5.480602309e+19
5.139137749e+19
5.623612699e+19
5.934136914e+19
6.028635857e+19
6.450595734e+19
5.972069173e+19
5.946086124e+19
5.534822727e+19
5.670727147e+19
6.02181446e+19
5.731865365e+19
5.453244189e+19
6.169414789e+19
6.353551488e+19
5.749281076e+19
5.924092118e+19
6.13642724e+19
6.232175637e+19
5.878653794e+19
6.520612771e+19
7.04642146e+19
6.736216862e+19
6.884645895e+19
7.297053456e+19
7.322711101e+19
7.634305809e+19
8.717946762e+19
8.51466642e+19
8.985656978e+19
5.848339739e+19
5.602333631e+19
5.801116887e+19
5.838361366e+19
6.041593009e+19
5.294421399e+19
5.547892099e+19
5.900486404e+19
5.395893214e+19
5.923996812e+19
5.720645022e+19
5.56174926e+19
5.776155955e+19
5.687550201e+19
5.457781705e+19
5.779920034e+19
5.94508331e+19
5.567730987e+19
5.733814157e+19
5.826846232e+19
5.874143743e+19
5.900234243e+19
5.849262281e+19
5.408156528e+19
6.058560705e+19
6.124837019e+19
5.855473385e+19
6.404231332e+19
6.026719397e+19
6.190114384e+19
6.45883727e+19
7.053050387e+19
6.482120987e+19
7.11399924e+19
7.676810708e+19
7.546567555e+19
7.691123183e+19
8.46762394e+19
8.348127279e+19
9.779095707e+19
5.553623548e+19
5.82225999e+19
5.480068775e+19
6.293949829e+19
6.149037309e+19
5.628771739e+19
5.563148569e+19
5.590974282e+19
6.127727079e+19
5.714652564e+19
5.308982919e+19
5.930121968e+19
5.62019755e+19
5.763246616e+19
5.641518163e+19
5.696085577e+19
5.953296416e+19
5.746267362e+19
5.625381721e+19
5.595069372e+19
5.69984399e+19
5.742845905e+19
6.08662731e+19
5.980959949e+19
6.022311789e+19
6.176507355e+19
6.088014922e+19
6.750198211e+19
6.268356679e+19
6.334767478e+19
6.629705869e+19
7.30361922e+19
7.023746528e+19
7.479615294e+19
7.374638243e+19
7.867931783e+19
7.836630919e+19
8.269043825e+19
8.020694464e+19
9.32610919e+19
5.540037377e+19
5.83383506e+19
5.601918718e+19
5.982399845e+19
6.045890739e+19
6.003157598e+19
5.648148684e+19
5.966340047e+19
5.999490365e+19
5.721333763e+19
5.591650125e+19
5.809214374e+19
5.943498317e+19
5.865322029e+19
5.948901168e+19
6.018615406e+19
6.01665432e+19
5.962639112e+19
5.630147984e+19
5.6190877e+19
6.027866488e+19
6.234532144e+19
6.390405234e+19
6.248764126e+19
6.182306789e+19
6.103412642e+19
6.145197329e+19
6.481112861e+19
6.322628166e+19
6.651440693e+19
6.970128969e+19
7.058353432e+19
7.249758174e+19
7.095111261e+19
7.555669481e+19
7.898145519e+19
7.569173776e+19
8.783673984e+19
8.348127279e+19
9.276252184e+19
6.126334444e+19
5.686515992e+19
6.125343694e+19
6.719663675e+19
6.118952905e+19
6.257436941e+19
6.300905979e+19
6.289022941e+19
6.156469801e+19
5.761420919e+19
5.635396194e+19
6.238605828e+19
6.167759839e+19
6.397490473e+19
5.837965948e+19
5.751975215e+19
5.791381772e+19
6.053680842e+19
5.403750499e+19
5.371698969e+19
5.880195863e+19
5.907554632e+19
6.576115573e+19
6.545084488e+19
6.38230059e+19
5.86018352e+19
6.039727549e+19
6.63871994e+19
6.771014018e+19
7.03718261e+19
6.624448482e+19
6.974830408e+19
7.392854241e+19
7.306925763e+19
7.220829805e+19
7.137308688e+19
8.385402952e+19
8.449444071e+19
8.827985821e+19
9.700748894e+19
6.011374228e+19
5.955899389e+19
5.906013795e+19
5.948257422e+19
5.88472433e+19
6.10486931e+19
6.191931429e+19
5.812681506e+19
5.779497956e+19
5.638932304e+19
5.777851472e+19
5.9414217e+19
5.983341683e+19
5.8664689e+19
6.204283335e+19
5.717044276e+19
6.414401212e+19
5.766367474e+19
5.814840669e+19
5.719964675e+19
5.621167062e+19
6.225991689e+19
6.44697926e+19
6.188012253e+19
7.062279288e+19
6.277327766e+19
6.208733281e+19
6.541336725e+19
6.626290054e+19
7.174016656e+19
6.897838303e+19
7.733165894e+19
7.252432868e+19
7.088365576e+19
7.482168037e+19
7.554807533e+19
7.753483504e+19
7.973970483e+19
8.761652434e+19
9.304741902e+19
5.464790653e+19
5.778064231e+19
5.500200505e+19
5.33476002e+19
5.931999823e+19