/*--------------------------------*- C++ -*----------------------------------*\
  =========                 |
  \\      /  F ield         | OpenFOAM: The Open Source CFD Toolbox
   \\    /   O peration     | Website:  https://openfoam.org
    \\  /    A nd           | Version:  7
     \\/     M anipulation  |
\*---------------------------------------------------------------------------*/
FoamFile
{
    version     2.0;
    format      ascii;
    class       volScalarField;
    location    "0.25/particle";
    object      rhoN;
}
// * * * * * * * * * * * * * * * * * * * * * * * * * * * * * * * * * * * * * //

dimensions      [0 -3 0 0 0 0 0];

internalField   nonuniform List<scalar> 
800
(
2.02000000000002e+22
2.14799999999998e+22
2.02600000000002e+22
2.04600000000004e+22
2.138e+22
1.994e+22
2.054e+22
2.146e+22
2.158e+22
2.112e+22
2.022e+22
1.984e+22
2.078e+22
2.056e+22
2.05e+22
2.186e+22
2.064e+22
2.086e+22
2.082e+22
2.126e+22
1.996e+22
2.11e+22
1.98e+22
2.024e+22
1.998e+22
2.024e+22
2.016e+22
2.008e+22
1.99e+22
2.062e+22
1.894e+22
1.98e+22
2.014e+22
1.942e+22
1.88600000000005e+22
2.03e+22
1.99e+22
1.944e+22
1.936e+22
1.96e+22
2.054e+22
1.916e+22
2.044e+22
1.908e+22
1.826e+22
1.952e+22
1.856e+22
1.986e+22
1.9e+22
1.992e+22
1.798e+22
1.862e+22
1.824e+22
1.956e+22
1.966e+22
1.846e+22
1.878e+22
1.948e+22
1.872e+22
1.98e+22
1.814e+22
1.934e+22
1.856e+22
1.798e+22
1.85e+22
1.776e+22
1.852e+22
1.738e+22
1.812e+22
1.778e+22
1.824e+22
1.866e+22
1.728e+22
1.752e+22
1.76e+22
1.746e+22
1.624e+22
1.702e+22
1.744e+22
1.744e+22
1.734e+22
1.76000000000013e+22
1.82599999999996e+22
1.74800000000003e+22
1.75199999999997e+22
1.78400000000003e+22
1.76599999999997e+22
1.62600000000003e+22
1.73799999999997e+22
1.77400000000003e+22
1.65399999999997e+22
1.74000000000003e+22
1.65999999999997e+22
1.68000000000003e+22
1.70999999999997e+22
1.66800000000003e+22
1.62799999999997e+22
1.71000000000003e+22
1.64399999999997e+22
1.61800000000003e+22
1.63399999999997e+22
1.65200000000003e+22
1.59399999999997e+22
1.61400000000003e+22
1.53999999999997e+22
1.57600000000003e+22
1.68199999999997e+22
1.62200000000003e+22
1.57599999999997e+22
1.59800000000003e+22
1.67399999999997e+22
1.49000000000003e+22
1.57999999999997e+22
1.62000000000003e+22
1.53799999999997e+22
1.60200000000003e+22
1.53199999999997e+22
1.60000000000003e+22
1.59399999999997e+22
1.53200000000003e+22
1.50599999999997e+22
1.61200000000003e+22
1.47599999999997e+22
1.55800000000003e+22
1.41599999999997e+22
1.50600000000003e+22
1.55599999999997e+22
1.51000000000003e+22
1.55399999999997e+22
1.49000000000003e+22
1.50199999999997e+22
1.51600000000003e+22
1.53599999999997e+22
1.49800000000003e+22
1.45999999999997e+22
1.44400000000003e+22
1.41599999999997e+22
1.44200000000003e+22
1.44799999999997e+22
1.45200000000003e+22
1.49599999999997e+22
1.41000000000003e+22
1.43799999999997e+22
1.39000000000008e+22
1.452e+22
1.41800000000003e+22
1.41399999999997e+22
1.518e+22
1.334e+22
1.40000000000002e+22
1.37399999999997e+22
1.444e+22
1.434e+22
1.46200000000003e+22
1.40599999999997e+22
1.442e+22
1.43e+22
1.40200000000003e+22
1.38999999999997e+22
1.344e+22
1.368e+22
1.38600000000002e+22
1.40199999999997e+22
1.37e+22
1.33e+22
1.36000000000002e+22
1.31199999999997e+22
1.28e+22
1.402e+22
1.33000000000002e+22
1.30799999999997e+22
1.444e+22
1.32e+22
1.33800000000002e+22
1.30599999999997e+22
1.34e+22
1.404e+22
1.26800000000002e+22
1.25399999999998e+22
1.244e+22
1.306e+22
1.30600000000002e+22
1.32199999999997e+22
1.296e+22
1.274e+22
1.32200000000002e+22
1.34199999999997e+22
1.232e+22
1.264e+22
1.22800000000002e+22
1.24999999999998e+22
1.254e+22
1.204e+22
1.22800000000002e+22
1.32399999999997e+22
1.196e+22
1.292e+22
1.19000000000002e+22
1.20799999999998e+22
1.312e+22
1.228e+22
1.26800000000002e+22
1.14999999999998e+22
1.218e+22
1.194e+22
1.20000000000002e+22
1.19000000000007e+22
1.21799999999998e+22
1.14000000000002e+22
1.16199999999998e+22
1.21200000000002e+22
1.12199999999998e+22
1.12000000000002e+22
1.17399999999998e+22
1.25600000000002e+22
1.13599999999998e+22
1.15600000000002e+22
1.22799999999998e+22
1.11000000000002e+22
1.21799999999998e+22
1.25000000000002e+22
1.22799999999998e+22
1.12000000000002e+22
1.16199999999998e+22
1.08400000000002e+22
1.19399999999998e+22
1.17400000000002e+22
1.09199999999998e+22
1.10400000000002e+22
1.14599999999998e+22
1.04600000000002e+22
1.09999999999998e+22
1.14600000000002e+22
1.08199999999998e+22
1.07600000000002e+22
1.08599999999998e+22
1.07600000000002e+22
1.09599999999998e+22
1.07800000000002e+22
1.10999999999998e+22
1.09400000000002e+22
1.02599999999998e+22
9.86000000000018e+21
9.87999999999981e+21
1.10400000000002e+22
1.03799999999998e+22
1.10400000000002e+22
1.06399999999998e+22
1.19800000000002e+22
1.02999999999998e+22
1.02600000000002e+22
1.03199999999998e+22
9.52000000000017e+21
1.08799999999998e+22
1.02600000000002e+22
1.00999999999998e+22
9.88000000000018e+21
1.02799999999998e+22
1.02200000000002e+22
9.69999999999981e+21
1.02600000000002e+22
1.07999999999998e+22
9.62000000000017e+21
1.00799999999998e+22
9.96000000000018e+21
1.00999999999998e+22
9.88000000000018e+21
9.77999999999981e+21
9.48000000000052e+21
8.97999999999999e+21
9.20000000000016e+21
9.47999999999982e+21
9.29999999999999e+21
1.036e+22
1.01600000000002e+22
1.01599999999998e+22
9.61999999999999e+21
9.73999999999999e+21
8.44000000000015e+21
1.01399999999998e+22
1.056e+22
9.35999999999999e+21
9.38000000000017e+21
8.81999999999983e+21
9.83999999999999e+21
1.024e+22
9.60000000000017e+21
8.97999999999983e+21
9.53999999999999e+21
8.85999999999999e+21
9.10000000000016e+21
8.73999999999983e+21
8.75999999999999e+21
9.11999999999999e+21
9.08000000000016e+21
9.81999999999981e+21
9.95999999999999e+21
8.85999999999999e+21
9.72000000000017e+21
8.99999999999983e+21
8.53999999999999e+21
9.19999999999999e+21
9.66000000000035e+21
9.09999999999966e+21
8.43999999999999e+21
9.81999999999999e+21
9.86000000000036e+21
9.45999999999964e+21
9.13999999999999e+21
8.89999999999999e+21
9.64000000000035e+21
9.65999999999964e+21
1.038e+22
9.61999999999999e+21
9.26000000000034e+21
9.03999999999966e+21
8.97999999999999e+21
9.25999999999999e+21
8.98000000000033e+21
8.47999999999968e+21
8.47999999999999e+21
9.41999999999999e+21
1.01600000000004e+22
9.65999999999964e+21
9.17999999999999e+21
9.81999999999999e+21
8.94000000000032e+21
9.25999999999965e+21
8.55999999999999e+21
9.83999999999999e+21
9.14000000000033e+21
9.21999999999965e+21
9.13999999999999e+21
9.47999999999999e+21
9.14000000000033e+21
9.91999999999963e+21
9.15999999999999e+21
9.63999999999999e+21
9.34000000000034e+21
9.89999999999963e+21
9.39999999999999e+21
1.006e+22
9.46000000000034e+21
1.01999999999996e+22
8.93999999999999e+21
9.85999999999999e+21
9.52000000000035e+21
9.87999999999963e+21
9.47999999999999e+21
9.65999999999999e+21
9.50000000000034e+21
9.45999999999964e+21
9.71999999999999e+21
9.49999999999999e+21
8.46000000000031e+21
9.15999999999966e+21
9.41999999999999e+21
9.13999999999999e+21
8.94000000000032e+21
9.17999999999965e+21
8.91999999999999e+21
8.95999999999999e+21
8.76000000000096e+21
8.56000000000031e+21
8.55999999999968e+21
8.19999999999999e+21
8.77999999999999e+21
8.92000000000032e+21
9.65999999999964e+21
9.37999999999999e+21
9.63999999999999e+21
9.22000000000033e+21
9.29999999999965e+21
9.07999999999999e+21
9.99999999999999e+21
8.52000000000031e+21
9.91999999999963e+21
9.35999999999999e+21
9.21999999999999e+21
9.50000000000034e+21
9.89999999999963e+21
9.17999999999999e+21
9.49999999999999e+21
9.52000000000035e+21
8.99999999999966e+21
9.21999999999999e+21
9.73999999999999e+21
9.16000000000033e+21
9.63999999999964e+21
8.67999999999999e+21
9.15999999999999e+21
9.04000000000033e+21
8.57999999999968e+21
9.03999999999999e+21
9.23999999999999e+21
8.58000000000031e+21
9.31999999999965e+21
9.05999999999999e+21
8.21999999999999e+21
9.16000000000033e+21
8.57999999999968e+21
8.13999999999999e+21
9.33999999999999e+21
9.36000000000034e+21
9.15999999999966e+21
9.59999999999999e+21
9.01999999999999e+21
8.68000000000031e+21
8.67999999999967e+21
9.27999999999999e+21
9.41999999999999e+21
9.50000000000034e+21
9.43999999999964e+21
8.65999999999999e+21
8.67999999999999e+21
8.72000000000032e+21
9.13999999999966e+21
8.79999999999999e+21
8.97999999999999e+21
9.36000000000034e+21
9.49999999999964e+21
9.31999999999999e+21
9.27999999999999e+21
9.08000000000033e+21
9.17999999999965e+21
9.63999999999999e+21
9.39999999999999e+21
9.06000000000033e+21
8.99999999999966e+21
9.29999999999999e+21
9.15999999999999e+21
8.3600000000003e+21
9.13999999999966e+21
9.63999999999999e+21
9.21999999999999e+21
8.46000000000031e+21
9.37999999999965e+21
9.63999999999999e+21
8.59999999999999e+21
9.30000000000034e+21
9.51999999999964e+21
9.71999999999999e+21
8.57999999999999e+21
9.80000000000035e+21
9.37999999999965e+21
9.97999999999999e+21
9.35999999999999e+21
9.46000000000034e+21
9.33999999999965e+21
8.43999999999999e+21
9.33999999999999e+21
8.78000000000032e+21
8.53999999999968e+21
9.47999999999999e+21
9.25999999999999e+21
8.90000000000032e+21
8.83999999999967e+21
9.39999999999999e+21
9.65999999999999e+21
9.60000000000035e+21
8.95999999999966e+21
8.53999999999999e+21
9.05999999999999e+21
9.22000000000033e+21
9.03999999999966e+21
8.91999999999999e+21
9.27999999999999e+21
9.22000000000033e+21
1.00599999999996e+22
8.95999999999999e+21
9.36000000000034e+21
9.19999999999999e+21
8.83999999999967e+21
8.75999999999999e+21
9.45999999999999e+21
8.82000000000032e+21
8.73999999999967e+21
8.99999999999999e+21
8.42000000000031e+21
8.49999999999999e+21
9.29999999999965e+21
9.07999999999999e+21
8.77999999999999e+21
8.3200000000003e+21
8.47999999999968e+21
8.91999999999999e+21
8.3400000000003e+21
8.80000000000064e+21
9.00000000000033e+21
9.49999999999964e+21
9.69999999999999e+21
8.80000000000032e+21
9.49999999999999e+21
9.37999999999965e+21
9.05999999999999e+21
9.39999999999999e+21
9.12000000000033e+21
1.02999999999996e+22
8.45999999999999e+21
8.88000000000032e+21
8.93999999999999e+21
9.61999999999964e+21
9.03999999999999e+21
8.85999999999999e+21
9.32000000000034e+21
9.55999999999964e+21
8.59999999999999e+21
8.58000000000031e+21
8.21999999999999e+21
8.83999999999967e+21
9.09999999999999e+21
8.91999999999999e+21
8.80000000000032e+21
8.09999999999969e+21
8.49999999999999e+21
8.4000000000003e+21
8.65999999999999e+21
9.41999999999964e+21
8.61999999999999e+21
8.83999999999999e+21
9.04000000000033e+21
9.51999999999964e+21
8.73999999999999e+21
9.34000000000034e+21
8.83999999999999e+21
8.31999999999969e+21
8.47999999999999e+21
7.99999999999999e+21
8.1600000000003e+21
7.71999999999971e+21
7.43999999999999e+21
7.50000000000027e+21
7.09999999999999e+21
7.69999999999971e+21
6.45999999999999e+21
6.73999999999999e+21
7.16000000000026e+21
7.69999999999971e+21
7.73999999999999e+21
6.04000000000022e+21
6.95999999999999e+21
6.65999999999975e+21
6.61999999999999e+21
6.47999999999999e+21
5.70000000000021e+21
5.79999999999978e+21
5.34e+21
6.52000000000024e+21
6.39999999999999e+21
5.91999999999978e+21
5.79999999999999e+21
5.26e+21
5.74000000000021e+21
5.2599999999998e+21
5.34e+21
5.6200000000002e+21
6.39999999999999e+21
5.93999999999978e+21
6.03999999999999e+21
5.87999999999999e+21
6.24000000000023e+21
5.75999999999978e+21
5.83999999999999e+21
5.80000000000021e+21
5.48e+21
5.2799999999998e+21
5.66e+21
5.74e+21
5.32000000000019e+21
5.53999999999979e+21
5.68e+21
6.16000000000022e+21
5.95999999999999e+21
5.3999999999998e+21
5.85999999999999e+21
5.79999999999999e+21
5.6000000000002e+21
6.33999999999976e+21
5.87999999999999e+21
6.18000000000022e+21
5.97999999999999e+21
5.43999999999979e+21
6.15999999999999e+21
6.09999999999999e+21
5.20000000000019e+21
6.21999999999977e+21
5.56e+21
5.28000000000019e+21
5.81999999999999e+21
5.71999999999978e+21
5.46e+21
6.17999999999999e+21
5.6200000000002e+21
5.65999999999979e+21
6.07999999999999e+21
5.4800000000002e+21
5.83999999999999e+21
5.2599999999998e+21
5.91999999999999e+21
5.87999999999999e+21
5.5000000000002e+21
5.57999999999979e+21
5.5e+21
4.92000000000018e+21
5.54e+21
5.75999999999978e+21
5.18e+21
5.95999999999999e+21
5.3800000000002e+21
6.27999999999976e+21
5.28e+21
5.76000000000021e+21
6.24000000000046e+21
5.86000000000021e+21
6.17999999999977e+21
5.77999999999999e+21
5.6200000000002e+21
5.81999999999999e+21
5.2399999999998e+21
5.28e+21
5.48e+21
5.88000000000021e+21
5.77999999999978e+21
5.18e+21
5.6200000000002e+21
6.11999999999999e+21
5.85999999999978e+21
6.17999999999999e+21
5.44e+21
5.6200000000002e+21
5.63999999999979e+21
5.95999999999999e+21
6.60000000000024e+21
5.56e+21
5.71999999999978e+21
6.07999999999999e+21
5.34e+21
5.94000000000021e+21
5.45999999999979e+21
6.17999999999999e+21
5.6400000000002e+21
5.68e+21
5.61999999999979e+21
5.44e+21
5.76e+21
5.6200000000002e+21
5.99999999999977e+21
5.66e+21
6.06000000000022e+21
6.21999999999999e+21
5.87999999999978e+21
5.48e+21
5.56e+21
5.30000000000019e+21
5.09999999999981e+21
6.11999999999999e+21
5.92000000000021e+21
5.26e+21
5.77999999999978e+21
6.29999999999999e+21
5.58e+21
5.96000000000022e+21
6.25999999999976e+21
5.6e+21
5.86000000000021e+21
5.52e+21
5.93999999999978e+21
5.66e+21
5.85999999999999e+21
5.76000000000021e+21
5.93999999999978e+21
5.56e+21
5.32000000000019e+21
5.34e+21
5.3799999999998e+21
5.32e+21
5.93999999999999e+21
6.04000000000022e+21
5.71999999999978e+21
5.42e+21
6.20000000000022e+21
5.6e+21
5.2999999999998e+21
6.59999999999999e+21
6.21999999999999e+21
5.86000000000021e+21
6.01999999999977e+21
4.88e+21
6.60000000000024e+21
5.54e+21
5.15999999999981e+21
6.03999999999999e+21
5.76e+21
6.04000000000022e+21
5.57999999999979e+21
5.87999999999999e+21
5.90000000000021e+21
5.4e+21
5.95999999999978e+21
6.47999999999999e+21
5.95999999999999e+21
5.72000000000021e+21
5.85999999999978e+21
5.66e+21
5.92000000000021e+21
5.79999999999999e+21
5.91999999999978e+21
5.99999999999999e+21
6.07999999999999e+21
5.26000000000019e+21
5.59999999999979e+21
6.19999999999999e+21
5.98000000000022e+21
6.29999999999999e+21
5.43999999999979e+21
6.07999999999999e+21
6.05999999999999e+21
6.04000000000022e+21
5.95999999999978e+21
5.2e+21
5.72000000000021e+21
5.54e+21
6.05999999999977e+21
5.76e+21
6.23999999999999e+21
5.4800000000002e+21
5.87999999999978e+21
5.66e+21
5.66000000000021e+21
5.44e+21
6.09999999999977e+21
4.62e+21
4.96e+21
5.90000000000021e+21
5.59999999999979e+21
5.42e+21
5.5200000000002e+21
5.76000000000042e+21
5.4200000000002e+21
3.27999999999988e+21
2.6e+21
2.8200000000001e+21
2.44e+21
2.37999999999991e+21
2.38e+21
2.52e+21
2.8800000000001e+21
2.5799999999999e+21
2.74e+21
2.7000000000001e+21
2.78e+21
2.47999999999991e+21
3.04e+21
2.84e+21
2.60000000000009e+21
2.5399999999999e+21
2.62e+21
2.7200000000001e+21
2.62e+21
2.6399999999999e+21
2.96e+21
2.64e+21
2.8200000000001e+21
2.6199999999999e+21
2.84e+21
1.90000000000007e+21
2.6e+21
2.5399999999999e+21
2.76e+21
2.36e+21
2.92000000000011e+21
2.95999999999989e+21
2.74e+21
2.52000000000009e+21
2.84e+21
2.5599999999999e+21
2.7e+21
2.96e+21
2.7800000000001e+21
2.89999999999989e+21
2.82e+21
3.12000000000011e+21
2.82e+21
2.6399999999999e+21
2.6e+21
2.74e+21
2.6400000000001e+21
2.93999999999989e+21
2.66e+21
2.60000000000009e+21
2.4e+21
2.5799999999999e+21
2.5e+21
2.9e+21
2.56000000000009e+21
2.43999999999991e+21
2.88e+21
2.10000000000008e+21
2.82e+21
2.37999999999991e+21
)
;

boundaryField
{
    partSide
    {
        type            symmetry;
    }
    partBound
    {
        type            zeroGradient;
    }
    nullDims
    {
        type            empty;
    }
}


// ************************************************************************* //
