/*--------------------------------*- C++ -*----------------------------------*\
  =========                 |
  \\      /  F ield         | OpenFOAM: The Open Source CFD Toolbox
   \\    /   O peration     | Website:  https://openfoam.org
    \\  /    A nd           | Version:  7
     \\/     M anipulation  |
\*---------------------------------------------------------------------------*/
FoamFile
{
    version     2.0;
    format      ascii;
    class       volScalarField;
    location    "0.007";
    object      dsmcSigmaTcRMax;
}
// * * * * * * * * * * * * * * * * * * * * * * * * * * * * * * * * * * * * * //

dimensions      [0 3 -1 0 0 0 0];

internalField   nonuniform List<scalar> 
1000
(
9.17175e-16
9.16324e-16
9.2558e-16
9.32433e-16
9.09874e-16
9.30822e-16
9.68774e-16
9.20531e-16
9.09741e-16
9.06619e-16
9.20101e-16
9.11261e-16
9.23838e-16
9.15552e-16
9.1285e-16
9.11287e-16
9.30638e-16
9.32686e-16
9.1803e-16
9.89653e-16
9.58698e-16
9.19321e-16
9.14218e-16
9.65433e-16
9.12228e-16
9.30549e-16
9.22089e-16
9.04642e-16
9.41699e-16
9.32446e-16
9.36079e-16
9.59201e-16
9.51331e-16
9.15416e-16
9.67006e-16
9.52337e-16
9.40613e-16
9.13249e-16
1.01396e-15
9.60199e-16
9.87434e-16
9.22145e-16
9.34404e-16
9.05295e-16
9.11011e-16
9.1414e-16
9.56672e-16
9.71093e-16
9.24009e-16
9.42961e-16
9.18206e-16
9.24759e-16
9.22231e-16
9.07974e-16
9.26464e-16
9.23542e-16
9.21139e-16
9.47445e-16
9.31985e-16
9.27466e-16
9.21027e-16
9.43271e-16
8.91758e-16
9.12885e-16
9.31469e-16
9.31567e-16
9.21983e-16
8.9992e-16
9.48162e-16
9.82849e-16
8.98556e-16
9.24412e-16
9.0381e-16
9.14901e-16
9.33911e-16
9.45204e-16
9.21644e-16
9.67326e-16
8.97042e-16
9.29771e-16
9.06278e-16
9.61096e-16
9.23133e-16
9.78539e-16
9.43865e-16
9.21823e-16
9.32365e-16
9.24174e-16
9.23519e-16
9.70178e-16
9.46856e-16
9.31085e-16
9.25634e-16
9.18484e-16
9.76312e-16
9.22577e-16
9.20527e-16
9.2569e-16
9.16115e-16
9.24408e-16
9.10919e-16
9.40737e-16
9.81776e-16
9.52848e-16
9.25722e-16
9.97484e-16
9.04627e-16
9.4158e-16
9.27851e-16
9.51035e-16
9.11196e-16
9.12521e-16
9.39591e-16
9.17069e-16
9.77262e-16
9.03706e-16
9.09203e-16
9.27112e-16
8.97181e-16
9.58703e-16
9.32682e-16
9.04165e-16
9.38741e-16
9.00585e-16
9.01043e-16
9.15618e-16
8.97812e-16
9.47897e-16
9.27213e-16
8.97396e-16
9.42321e-16
9.18481e-16
9.69633e-16
9.38489e-16
9.0835e-16
9.26391e-16
9.20454e-16
9.10235e-16
9.37517e-16
9.31185e-16
9.23524e-16
9.09613e-16
9.38555e-16
9.60366e-16
9.25314e-16
9.18394e-16
9.44495e-16
9.41694e-16
9.43907e-16
9.34007e-16
9.34399e-16
9.30797e-16
9.27558e-16
9.32179e-16
9.67365e-16
9.2631e-16
9.31301e-16
9.82488e-16
9.30968e-16
8.93158e-16
9.44766e-16
9.54109e-16
9.45575e-16
9.25173e-16
9.30506e-16
9.2358e-16
9.23365e-16
1.0153e-15
9.22358e-16
9.17873e-16
9.57923e-16
9.55451e-16
9.4181e-16
9.17387e-16
9.35222e-16
9.05126e-16
9.63268e-16
9.2978e-16
9.14225e-16
9.32605e-16
9.49475e-16
9.03285e-16
9.16416e-16
9.26616e-16
9.07005e-16
9.18778e-16
9.2764e-16
8.9454e-16
9.10994e-16
9.20037e-16
9.17489e-16
8.97458e-16
9.32883e-16
9.33714e-16
9.45061e-16
9.15013e-16
9.45188e-16
9.24622e-16
8.93339e-16
9.20266e-16
9.23708e-16
9.04492e-16
8.98687e-16
9.09347e-16
9.0224e-16
9.12081e-16
9.37093e-16
9.50897e-16
9.03706e-16
9.15541e-16
9.10854e-16
9.07632e-16
9.14413e-16
8.96801e-16
9.27604e-16
8.94857e-16
9.09766e-16
9.51146e-16
9.13694e-16
9.45168e-16
9.36878e-16
9.04399e-16
9.28102e-16
9.07989e-16
9.29112e-16
9.36782e-16
9.24455e-16
9.27065e-16
9.26415e-16
8.9693e-16
9.05123e-16
9.28178e-16
9.03983e-16
9.31182e-16
9.22468e-16
9.54634e-16
9.26419e-16
9.18847e-16
9.18557e-16
9.21025e-16
9.24543e-16
8.92883e-16
9.25401e-16
9.1646e-16
9.56521e-16
9.1498e-16
9.42291e-16
9.46597e-16
9.21647e-16
9.60785e-16
9.1847e-16
9.16874e-16
9.12792e-16
9.76469e-16
9.33078e-16
9.34259e-16
8.91257e-16
9.12563e-16
9.39504e-16
9.30537e-16
9.35464e-16
9.15231e-16
9.12171e-16
9.42887e-16
9.27737e-16
9.19428e-16
9.05557e-16
9.2677e-16
9.09577e-16
9.0575e-16
9.0275e-16
9.45834e-16
9.34671e-16
9.49437e-16
9.14139e-16
9.1129e-16
9.03263e-16
9.33307e-16
1.02317e-15
9.53538e-16
9.19892e-16
9.35221e-16
9.11558e-16
9.33409e-16
9.24356e-16
9.49319e-16
9.47736e-16
9.0467e-16
9.0164e-16
9.206e-16
9.42409e-16
9.45308e-16
9.14447e-16
9.20121e-16
9.09027e-16
9.03606e-16
9.265e-16
9.07114e-16
8.84505e-16
9.11353e-16
9.06673e-16
9.22239e-16
9.08941e-16
9.21853e-16
9.18118e-16
9.04143e-16
9.33804e-16
9.47556e-16
9.65875e-16
9.46917e-16
9.55734e-16
9.1432e-16
8.95206e-16
9.00892e-16
9.51892e-16
9.38991e-16
9.00796e-16
9.01508e-16
8.84356e-16
9.00013e-16
9.75733e-16
8.9928e-16
9.63459e-16
9.38181e-16
9.257e-16
9.25497e-16
9.37256e-16
9.09814e-16
9.22196e-16
8.98871e-16
9.15305e-16
9.22829e-16
9.01188e-16
9.01258e-16
9.17096e-16
8.9594e-16
9.0799e-16
8.88994e-16
8.9767e-16
9.04621e-16
9.28703e-16
9.36205e-16
9.0861e-16
9.35109e-16
9.22866e-16
8.85161e-16
9.90354e-16
9.15896e-16
9.17023e-16
9.19333e-16
9.15675e-16
9.02453e-16
8.90946e-16
8.87507e-16
9.42252e-16
9.18789e-16
8.80191e-16
9.84506e-16
9.05609e-16
8.92237e-16
9.29364e-16
9.3309e-16
9.26827e-16
9.02089e-16
9.36558e-16
9.31237e-16
9.17935e-16
9.15185e-16
9.32686e-16
9.04622e-16
9.30593e-16
9.24206e-16
9.05432e-16
8.72054e-16
8.92021e-16
9.02282e-16
9.57469e-16
9.46665e-16
9.33411e-16
9.42079e-16
9.10361e-16
8.95419e-16
9.1117e-16
9.23161e-16
9.28619e-16
9.2094e-16
9.16787e-16
9.21294e-16
9.10623e-16
8.9936e-16
8.95182e-16
9.33662e-16
9.21615e-16
8.8385e-16
8.92281e-16
9.13352e-16
9.22656e-16
9.20672e-16
9.03319e-16
9.01759e-16
9.09156e-16
9.02187e-16
9.34252e-16
8.94879e-16
8.96137e-16
8.84345e-16
9.01127e-16
9.02887e-16
9.10655e-16
9.25983e-16
9.18943e-16
9.05197e-16
9.37583e-16
8.71407e-16
8.94577e-16
9.00252e-16
9.09432e-16
8.9435e-16
8.9792e-16
9.41095e-16
9.04152e-16
8.89699e-16
9.18587e-16
8.72979e-16
8.8413e-16
9.23019e-16
8.84918e-16
8.78079e-16
8.7117e-16
8.90895e-16
9.19829e-16
9.31483e-16
9.03659e-16
8.90773e-16
8.9375e-16
9.00322e-16
8.78427e-16
9.27397e-16
8.75597e-16
8.7521e-16
8.77038e-16
8.85924e-16
8.82657e-16
9.08978e-16
8.95801e-16
8.9778e-16
8.85039e-16
9.58074e-16
8.98232e-16
8.80262e-16
8.70908e-16
8.76019e-16
8.88528e-16
8.74167e-16
8.91567e-16
8.72072e-16
8.73814e-16
8.70499e-16
8.89201e-16
8.92441e-16
8.73822e-16
9.22984e-16
8.86064e-16
8.91337e-16
9.23345e-16
8.71808e-16
9.08057e-16
8.98595e-16
8.94405e-16
8.90658e-16
8.69386e-16
9.30354e-16
8.70329e-16
8.98441e-16
9.19487e-16
9.32091e-16
8.79799e-16
8.63542e-16
8.86158e-16
8.77412e-16
8.59197e-16
8.67478e-16
9.31744e-16
8.80779e-16
8.6046e-16
8.46869e-16
8.93124e-16
8.51994e-16
8.51484e-16
8.50643e-16
8.49133e-16
8.74581e-16
8.5419e-16
8.69712e-16
8.33065e-16
8.57354e-16
8.46458e-16
8.59552e-16
8.46052e-16
8.60663e-16
8.225e-16
8.85568e-16
8.09048e-16
9.1068e-16
8.74723e-16
8.51067e-16
8.43162e-16
8.31552e-16
8.20301e-16
8.2393e-16
8.50199e-16
8.89764e-16
8.51716e-16
8.65039e-16
8.30191e-16
8.30858e-16
8.44676e-16
8.02087e-16
8.66982e-16
8.70949e-16
8.44708e-16
8.26253e-16
8.33441e-16
8.47504e-16
8.11178e-16
8.23104e-16
8.52113e-16
8.65133e-16
8.59784e-16
8.41737e-16
8.40738e-16
8.61825e-16
8.2025e-16
8.69144e-16
8.19969e-16
8.04743e-16
8.71022e-16
8.56915e-16
8.43219e-16
8.40847e-16
8.50958e-16
8.32396e-16
8.14394e-16
8.79878e-16
8.51894e-16
8.44636e-16
8.76746e-16
8.37872e-16
8.20173e-16
8.08247e-16
8.17055e-16
8.67192e-16
8.16301e-16
8.20952e-16
8.31399e-16
8.40061e-16
8.41783e-16
8.27998e-16
8.6227e-16
8.33255e-16
8.67575e-16
8.28102e-16
8.19309e-16
8.44026e-16
8.30598e-16
8.74952e-16
8.09436e-16
8.42209e-16
8.54953e-16
8.70503e-16
8.78465e-16
8.16636e-16
8.26458e-16
8.76516e-16
8.31439e-16
8.38264e-16
8.4396e-16
8.53527e-16
8.14511e-16
8.20859e-16
8.94e-16
8.13457e-16
8.21701e-16
8.43783e-16
8.27439e-16
8.17001e-16
8.58586e-16
8.58369e-16
8.20483e-16
8.11126e-16
8.21206e-16
8.39172e-16
8.43198e-16
8.46753e-16
8.07649e-16
8.37254e-16
8.16073e-16
8.31793e-16
8.23008e-16
8.61237e-16
8.18528e-16
8.41924e-16
8.51865e-16
8.44374e-16
8.33582e-16
8.40467e-16
8.88334e-16
8.45347e-16
8.41037e-16
8.37848e-16
8.14786e-16
8.14005e-16
8.26447e-16
8.38645e-16
8.33255e-16
8.35824e-16
8.38153e-16
8.65173e-16
7.93935e-16
8.17909e-16
8.39061e-16
8.40193e-16
8.12694e-16
8.07676e-16
8.49354e-16
8.25743e-16
8.04562e-16
8.38112e-16
8.66109e-16
8.4947e-16
8.09088e-16
8.27714e-16
8.40867e-16
8.3733e-16
8.44757e-16
8.23719e-16
8.16987e-16
8.23305e-16
8.26869e-16
8.25913e-16
8.3349e-16
8.57294e-16
8.30994e-16
8.29407e-16
8.49278e-16
8.19122e-16
8.16419e-16
8.48813e-16
8.15212e-16
8.47405e-16
8.29969e-16
8.15288e-16
8.33262e-16
8.20907e-16
8.13923e-16
8.28763e-16
8.11823e-16
8.17857e-16
8.56697e-16
8.1309e-16
8.11458e-16
8.70684e-16
8.02738e-16
8.25082e-16
8.47989e-16
8.14811e-16
8.40271e-16
8.3301e-16
8.13047e-16
8.9282e-16
8.22895e-16
8.19119e-16
8.98166e-16
8.11642e-16
8.18635e-16
8.18165e-16
8.12142e-16
8.11148e-16
8.56168e-16
7.93148e-16
8.21046e-16
8.24776e-16
8.40615e-16
8.30137e-16
8.26793e-16
8.23687e-16
8.07512e-16
8.21649e-16
8.23984e-16
8.20953e-16
8.29197e-16
8.12548e-16
8.37678e-16
7.87206e-16
8.55349e-16
8.12474e-16
8.33044e-16
8.10979e-16
8.27268e-16
7.98734e-16
8.13791e-16
7.8622e-16
7.936e-16
8.28791e-16
8.33946e-16
8.11934e-16
8.18435e-16
7.93703e-16
7.84842e-16
8.21775e-16
8.30371e-16
7.95349e-16
8.32319e-16
7.98151e-16
7.99918e-16
7.92364e-16
7.75325e-16
8.02042e-16
8.39942e-16
8.05339e-16
8.16748e-16
8.13094e-16
7.93179e-16
8.1907e-16
7.82876e-16
8.3151e-16
8.01668e-16
8.05359e-16
8.05534e-16
8.01577e-16
7.74818e-16
7.9649e-16
7.95645e-16
7.80045e-16
7.95807e-16
7.8696e-16
7.86479e-16
8.05511e-16
7.81984e-16
7.80227e-16
7.94305e-16
7.91218e-16
7.94189e-16
7.85917e-16
7.84747e-16
7.57052e-16
7.85108e-16
8.01613e-16
8.24895e-16
7.76572e-16
7.84407e-16
8.12044e-16
7.93638e-16
7.61689e-16
7.78903e-16
7.42691e-16
8.05036e-16
7.88339e-16
8.34641e-16
8.11964e-16
7.75099e-16
7.917e-16
7.82801e-16
8.08182e-16
7.73221e-16
7.40321e-16
7.57666e-16
7.58446e-16
7.61137e-16
7.66433e-16
7.54308e-16
7.94298e-16
7.82805e-16
7.87455e-16
7.8705e-16
7.53837e-16
7.83945e-16
8.30426e-16
7.56755e-16
7.63353e-16
7.73112e-16
7.50735e-16
7.43742e-16
7.66974e-16
7.46962e-16
7.6686e-16
7.56974e-16
7.53735e-16
7.80189e-16
7.45515e-16
7.88916e-16
7.66807e-16
7.59289e-16
7.9869e-16
7.98711e-16
7.45672e-16
7.55596e-16
7.42959e-16
7.44535e-16
7.70545e-16
7.66443e-16
7.80517e-16
7.89372e-16
7.41359e-16
7.49819e-16
7.48142e-16
7.63728e-16
7.72445e-16
7.4819e-16
7.16202e-16
7.34052e-16
7.66874e-16
7.42122e-16
7.48055e-16
7.80565e-16
7.90155e-16
7.80134e-16
7.69987e-16
7.49305e-16
7.62476e-16
8.17111e-16
7.53513e-16
7.24473e-16
7.55136e-16
7.72983e-16
8.11634e-16
7.36053e-16
7.33362e-16
7.52108e-16
7.61484e-16
7.3614e-16
7.3256e-16
7.88511e-16
7.49348e-16
7.58195e-16
7.62344e-16
7.84379e-16
7.55495e-16
7.20542e-16
7.44731e-16
7.85767e-16
7.56587e-16
7.70648e-16
7.48453e-16
7.26662e-16
7.49633e-16
7.77159e-16
7.36909e-16
7.61922e-16
7.55622e-16
7.63853e-16
7.5155e-16
7.42442e-16
7.64069e-16
7.57961e-16
7.73545e-16
7.64057e-16
7.68242e-16
7.77364e-16
7.5005e-16
7.62865e-16
7.4561e-16
7.62846e-16
7.42663e-16
7.40163e-16
7.46159e-16
7.55235e-16
7.88773e-16
7.39775e-16
7.47073e-16
7.5625e-16
7.50764e-16
7.38267e-16
7.691e-16
7.28262e-16
7.52146e-16
7.60156e-16
7.85084e-16
7.45097e-16
7.61212e-16
7.64373e-16
7.36536e-16
7.95034e-16
7.24714e-16
7.38195e-16
7.32859e-16
7.72119e-16
7.78068e-16
7.18039e-16
7.19617e-16
7.98002e-16
7.48565e-16
7.37382e-16
7.63254e-16
7.46584e-16
7.56597e-16
7.49981e-16
7.48848e-16
7.31937e-16
7.3846e-16
7.4242e-16
7.32702e-16
7.3808e-16
7.35648e-16
7.50992e-16
7.58172e-16
7.3672e-16
7.67876e-16
7.79546e-16
7.59195e-16
7.34269e-16
7.47638e-16
7.41964e-16
7.40916e-16
7.36917e-16
7.16244e-16
7.55545e-16
7.09085e-16
7.45371e-16
7.46552e-16
7.36086e-16
7.30638e-16
7.18686e-16
7.59716e-16
7.38983e-16
7.45023e-16
7.62688e-16
7.23089e-16
7.46474e-16
7.56366e-16
7.48337e-16
7.27338e-16
7.23944e-16
7.11568e-16
7.54932e-16
7.67757e-16
7.27418e-16
7.37015e-16
7.24296e-16
7.24061e-16
7.43796e-16
7.21485e-16
6.75438e-16
7.43683e-16
7.12899e-16
6.88095e-16
7.27046e-16
7.1648e-16
7.28328e-16
6.97037e-16
6.93807e-16
7.78222e-16
7.08731e-16
7.52434e-16
6.98354e-16
7.20671e-16
7.07972e-16
7.31814e-16
6.82542e-16
7.20808e-16
6.73485e-16
6.80967e-16
7.09409e-16
6.78353e-16
6.54712e-16
6.7047e-16
6.45122e-16
6.58834e-16
6.94106e-16
6.74044e-16
6.79393e-16
6.56333e-16
6.36907e-16
6.68857e-16
7.00026e-16
6.60408e-16
6.46877e-16
6.48132e-16
6.75819e-16
6.38133e-16
6.39681e-16
6.4256e-16
6.59316e-16
6.61283e-16
6.46123e-16
6.6401e-16
6.83169e-16
6.7938e-16
6.5526e-16
6.86081e-16
6.5107e-16
6.51922e-16
6.57679e-16
6.32672e-16
6.40659e-16
6.7693e-16
6.69161e-16
6.46192e-16
6.60539e-16
6.71733e-16
)
;

boundaryField
{
    sides
    {
        type            symmetry;
    }
    empty
    {
        type            empty;
    }
}


// ************************************************************************* //
