/*--------------------------------*- C++ -*----------------------------------*\
  =========                 |
  \\      /  F ield         | OpenFOAM: The Open Source CFD Toolbox
   \\    /   O peration     | Website:  https://openfoam.org
    \\  /    A nd           | Version:  7
     \\/     M anipulation  |
\*---------------------------------------------------------------------------*/
FoamFile
{
    version     2.0;
    format      ascii;
    class       volScalarField;
    location    "0.007";
    object      iDofMean;
}
// * * * * * * * * * * * * * * * * * * * * * * * * * * * * * * * * * * * * * //

dimensions      [0 -3 0 0 0 0 0];

internalField   nonuniform List<scalar> 
1000
(
1.17214e+20
6.86214e+19
6.89357e+19
7.09214e+19
1.23993e+20
1.25407e+20
7.73571e+19
8.60143e+19
9.00143e+19
1.45129e+20
9.41357e+19
9.43929e+19
1.43271e+20
8.65929e+19
8.64571e+19
8.65929e+19
8.29286e+19
8.39071e+19
8.77286e+19
8.85571e+19
8.90214e+19
9.65857e+19
1.50764e+20
1.02793e+20
1.03236e+20
1.03464e+20
1.47036e+20
9.49214e+19
9.00429e+19
8.72357e+19
8.49929e+19
1.3495e+20
1.12743e+20
9.94214e+19
8.53571e+19
8.55429e+19
1.35136e+20
8.51143e+19
8.72929e+19
1.37221e+20
8.75071e+19
9.19071e+19
1.46014e+20
9.65714e+19
9.71643e+19
9.58286e+19
9.62286e+19
1.4685e+20
1.0235e+20
1.41264e+20
1.97871e+20
9.91929e+19
1.51286e+20
1.04579e+20
1.03129e+20
1.511e+20
1.51579e+20
2.0155e+20
1.51636e+20
1.03064e+20
1.09043e+20
1.62936e+20
1.194e+20
1.26036e+20
1.23343e+20
1.2325e+20
1.75057e+20
1.20486e+20
1.16164e+20
1.66921e+20
1.16879e+20
1.18093e+20
1.2095e+20
1.235e+20
1.25036e+20
1.24443e+20
1.74379e+20
1.75771e+20
1.19521e+20
1.181e+20
1.17014e+20
1.16107e+20
1.64257e+20
1.66936e+20
1.74743e+20
1.23186e+20
1.23e+20
1.19343e+20
1.21264e+20
1.21879e+20
1.1865e+20
1.14686e+20
1.16057e+20
1.62014e+20
1.40357e+20
1.32143e+20
1.13329e+20
1.20029e+20
1.18421e+20
1.62643e+20
1.12093e+20
1.22536e+20
1.22779e+20
1.17764e+20
1.15921e+20
1.17021e+20
1.17564e+20
1.14421e+20
1.577e+20
1.307e+20
1.21786e+20
1.26543e+20
1.467e+20
1.73286e+20
1.45086e+20
1.43229e+20
1.42436e+20
1.42093e+20
1.88757e+20
1.74021e+20
1.234e+20
1.74279e+20
1.257e+20
1.2535e+20
1.2155e+20
1.69621e+20
1.68371e+20
1.664e+20
1.17629e+20
1.25936e+20
2.30936e+20
1.29229e+20
1.30279e+20
1.20543e+20
2.18457e+20
1.20057e+20
1.68564e+20
1.68364e+20
1.264e+20
1.70293e+20
1.2425e+20
1.28079e+20
1.35707e+20
1.36114e+20
1.86529e+20
1.313e+20
1.33429e+20
1.25607e+20
1.22871e+20
1.23457e+20
1.73786e+20
1.233e+20
1.24029e+20
1.242e+20
1.73943e+20
1.93464e+20
1.75057e+20
1.4805e+20
2.00143e+20
1.53893e+20
1.298e+20
1.77157e+20
1.28507e+20
1.27636e+20
1.27536e+20
1.76907e+20
1.74279e+20
1.24371e+20
1.26086e+20
1.27107e+20
1.32514e+20
1.86707e+20
1.35143e+20
1.35514e+20
1.82714e+20
1.32629e+20
1.83414e+20
1.35336e+20
1.35129e+20
1.38779e+20
1.87421e+20
1.84e+20
2.28993e+20
1.29907e+20
1.28329e+20
1.31171e+20
1.79893e+20
1.22857e+20
1.74321e+20
1.24207e+20
1.272e+20
1.29029e+20
2.31943e+20
1.83543e+20
1.34679e+20
1.35793e+20
1.84179e+20
1.34593e+20
1.36993e+20
1.43771e+20
1.48721e+20
1.56579e+20
2.084e+20
1.60564e+20
1.58371e+20
1.58436e+20
1.59657e+20
2.07036e+20
2.58664e+20
2.07757e+20
1.47221e+20
1.389e+20
1.3735e+20
1.40193e+20
1.894e+20
1.89121e+20
1.90271e+20
1.8655e+20
1.38e+20
1.90007e+20
1.441e+20
1.45607e+20
1.49921e+20
1.511e+20
1.54129e+20
1.53486e+20
1.50536e+20
2.0105e+20
1.52786e+20
2.00593e+20
1.51771e+20
1.52907e+20
1.50707e+20
2.05514e+20
1.69257e+20
1.71593e+20
1.81007e+20
1.82107e+20
1.87264e+20
1.86536e+20
1.84029e+20
1.62257e+20
1.61836e+20
2.09429e+20
1.63593e+20
2.22607e+20
1.72993e+20
1.73557e+20
2.19364e+20
2.20257e+20
1.66729e+20
2.023e+20
1.49379e+20
1.41229e+20
1.41221e+20
1.38614e+20
1.35e+20
1.36879e+20
1.3625e+20
1.338e+20
1.34479e+20
1.34714e+20
1.36743e+20
1.3695e+20
1.87664e+20
1.38879e+20
1.39171e+20
1.37643e+20
1.395e+20
1.40571e+20
1.42043e+20
1.42907e+20
1.43736e+20
1.43971e+20
1.44293e+20
1.44293e+20
1.44393e+20
1.43221e+20
1.4225e+20
1.42629e+20
1.41529e+20
2.92064e+20
1.43229e+20
1.42514e+20
1.42193e+20
1.40857e+20
1.412e+20
1.40621e+20
1.38629e+20
1.92529e+20
1.4125e+20
1.42143e+20
1.43064e+20
1.41029e+20
1.90279e+20
1.41229e+20
1.43214e+20
1.97157e+20
1.97857e+20
1.47529e+20
2.46779e+20
1.47379e+20
1.48686e+20
1.4935e+20
1.99886e+20
1.49179e+20
1.56171e+20
1.59307e+20
1.58064e+20
1.54886e+20
1.53971e+20
1.52986e+20
1.53229e+20
1.52271e+20
1.477e+20
1.51121e+20
1.51943e+20
2.03293e+20
1.54471e+20
1.55936e+20
1.54936e+20
1.54257e+20
1.52457e+20
1.52507e+20
2.04429e+20
1.50586e+20
2.44564e+20
1.48107e+20
2.12221e+20
1.62879e+20
2.10236e+20
1.43143e+20
1.45036e+20
1.959e+20
1.45443e+20
1.96007e+20
1.46671e+20
1.47529e+20
1.4735e+20
1.96336e+20
1.44643e+20
2.46614e+20
1.51143e+20
1.51057e+20
2.05364e+20
1.59979e+20
1.5975e+20
1.59129e+20
1.59614e+20
1.49607e+20
1.46457e+20
1.47093e+20
1.46436e+20
1.45607e+20
1.93807e+20
1.42971e+20
1.94843e+20
1.46521e+20
1.49471e+20
1.52843e+20
1.50686e+20
1.476e+20
1.49993e+20
2.02871e+20
1.593e+20
2.11114e+20
2.05857e+20
2.06486e+20
1.58736e+20
1.59979e+20
1.60364e+20
1.57414e+20
1.5985e+20
2.08507e+20
1.61386e+20
1.626e+20
2.11443e+20
1.59243e+20
1.5435e+20
1.52986e+20
1.52379e+20
1.49729e+20
1.48157e+20
1.46643e+20
1.45407e+20
1.45729e+20
1.46529e+20
1.46314e+20
1.96957e+20
1.97471e+20
1.98714e+20
2.06943e+20
1.59407e+20
1.59493e+20
2.09536e+20
1.59336e+20
1.99636e+20
1.47414e+20
1.98829e+20
2.02757e+20
2.00879e+20
1.49229e+20
1.4965e+20
1.48757e+20
1.96771e+20
1.46914e+20
1.98029e+20
1.46436e+20
1.44536e+20
1.9495e+20
2.46236e+20
2.05314e+20
1.544e+20
2.04229e+20
1.55686e+20
2.05493e+20
1.90693e+20
2.24836e+20
1.57136e+20
1.60429e+20
1.66371e+20
2.11421e+20
1.61214e+20
1.50257e+20
1.45136e+20
1.43471e+20
1.42657e+20
1.74729e+20
2.08114e+20
1.38993e+20
1.32836e+20
1.28986e+20
1.28864e+20
1.296e+20
1.29007e+20
1.36993e+20
1.37429e+20
1.8835e+20
1.88979e+20
1.39e+20
1.39807e+20
1.52336e+20
1.5435e+20
1.42636e+20
1.29907e+20
1.799e+20
1.29507e+20
1.76843e+20
1.28143e+20
1.27379e+20
1.76471e+20
1.27243e+20
1.29486e+20
1.30643e+20
1.30843e+20
1.305e+20
1.30586e+20
1.27993e+20
1.28829e+20
1.86964e+20
2.41457e+20
1.41764e+20
1.49664e+20
1.49979e+20
1.41214e+20
1.4e+20
1.3985e+20
1.38221e+20
1.31179e+20
2.32371e+20
2.32329e+20
1.83071e+20
1.43707e+20
1.42243e+20
1.44543e+20
1.95236e+20
1.45736e+20
1.47407e+20
1.53171e+20
1.59879e+20
1.596e+20
1.406e+20
1.90771e+20
1.90193e+20
1.40457e+20
1.90886e+20
1.42364e+20
1.41236e+20
1.38429e+20
1.35271e+20
1.31429e+20
1.31714e+20
1.509e+20
1.78821e+20
1.41229e+20
1.92193e+20
1.42093e+20
2.37171e+20
1.3345e+20
1.33636e+20
1.38743e+20
1.9565e+20
1.46679e+20
1.47843e+20
1.47479e+20
1.96971e+20
1.50921e+20
1.46936e+20
1.44821e+20
1.49064e+20
1.53593e+20
1.61014e+20
1.56221e+20
2.03336e+20
1.51307e+20
1.4955e+20
2.01414e+20
1.57364e+20
1.58929e+20
2.05879e+20
1.47136e+20
1.43086e+20
1.37129e+20
1.38629e+20
1.38629e+20
1.41421e+20
1.41021e+20
1.39736e+20
2.41607e+20
1.42229e+20
1.45429e+20
1.42364e+20
2.90793e+20
1.91814e+20
1.417e+20
1.40043e+20
1.38443e+20
2.38936e+20
1.37679e+20
1.83286e+20
1.33243e+20
1.34664e+20
1.88086e+20
1.42529e+20
1.45329e+20
1.46993e+20
1.55579e+20
1.5515e+20
2.03286e+20
1.45786e+20
1.44314e+20
2.40164e+20
1.64286e+20
1.57943e+20
1.38614e+20
1.90293e+20
1.90129e+20
1.4805e+20
1.55514e+20
1.56629e+20
1.52036e+20
1.42836e+20
1.43836e+20
1.93586e+20
1.93179e+20
1.42964e+20
1.43486e+20
1.93293e+20
1.671e+20
1.88293e+20
1.57693e+20
1.58293e+20
2.1395e+20
1.67e+20
2.18e+20
1.74607e+20
1.84371e+20
1.74836e+20
1.75164e+20
1.59757e+20
1.56021e+20
1.55371e+20
1.5675e+20
1.56486e+20
1.56679e+20
2.083e+20
2.58979e+20
1.65843e+20
2.17486e+20
1.66743e+20
1.68357e+20
1.72386e+20
1.7265e+20
1.72186e+20
1.69329e+20
1.68879e+20
1.68293e+20
1.673e+20
1.68714e+20
1.66343e+20
2.16036e+20
1.66629e+20
1.63771e+20
1.5865e+20
2.09086e+20
1.55843e+20
2.51029e+20
2.007e+20
1.54914e+20
1.51129e+20
1.50321e+20
1.9895e+20
1.481e+20
1.47686e+20
1.49064e+20
2.00379e+20
1.45564e+20
1.43e+20
1.39779e+20
1.40421e+20
1.42293e+20
1.91814e+20
1.46457e+20
1.48936e+20
1.51136e+20
2.59393e+20
1.63443e+20
1.64979e+20
1.58786e+20
2.06543e+20
1.5415e+20
1.4705e+20
2.03329e+20
1.5675e+20
2.05221e+20
1.53307e+20
1.51486e+20
1.51914e+20
2.09321e+20
1.64636e+20
1.66021e+20
1.61993e+20
2.10629e+20
2.11421e+20
1.64721e+20
1.65514e+20
1.54657e+20
1.55386e+20
1.53986e+20
1.52314e+20
1.42143e+20
1.41843e+20
1.40529e+20
1.41614e+20
1.423e+20
1.43407e+20
1.93636e+20
1.94229e+20
1.41021e+20
1.89171e+20
2.393e+20
1.39271e+20
1.38336e+20
1.88164e+20
1.3745e+20
1.42521e+20
1.92829e+20
1.43371e+20
1.42879e+20
2.43429e+20
1.43843e+20
1.95286e+20
1.49693e+20
1.48071e+20
1.41436e+20
1.91764e+20
1.44807e+20
1.47179e+20
1.4875e+20
1.49871e+20
2.02229e+20
1.53343e+20
1.52243e+20
1.505e+20
1.70229e+20
1.75536e+20
1.97271e+20
1.47993e+20
1.48657e+20
1.47764e+20
1.455e+20
1.453e+20
1.46243e+20
1.60871e+20
1.63464e+20
1.61243e+20
1.62814e+20
1.59979e+20
1.84164e+20
2.23607e+20
1.50679e+20
2.011e+20
2.01893e+20
2.0655e+20
1.53321e+20
2.52479e+20
1.53393e+20
3.05021e+20
1.82993e+20
1.44271e+20
1.58629e+20
1.6035e+20
1.62121e+20
1.58564e+20
1.491e+20
1.521e+20
1.53586e+20
1.569e+20
1.56607e+20
1.57036e+20
1.57129e+20
1.58164e+20
1.74136e+20
1.7305e+20
1.72164e+20
1.70993e+20
1.6035e+20
2.09514e+20
1.77229e+20
1.80671e+20
1.66114e+20
2.0705e+20
1.73793e+20
1.63429e+20
1.64086e+20
1.62864e+20
1.64264e+20
2.26593e+20
1.84686e+20
1.82429e+20
1.79036e+20
1.70307e+20
2.2e+20
2.12286e+20
2.13686e+20
1.69736e+20
1.71657e+20
1.70014e+20
1.642e+20
2.13307e+20
1.57571e+20
1.48957e+20
1.45107e+20
1.42279e+20
1.41343e+20
1.40243e+20
1.49207e+20
1.49536e+20
1.9965e+20
2.14329e+20
2.14336e+20
1.64457e+20
1.58236e+20
1.56429e+20
2.03443e+20
1.53714e+20
1.56621e+20
1.62321e+20
1.63143e+20
1.77129e+20
1.77543e+20
1.66243e+20
2.09064e+20
1.51579e+20
1.98471e+20
1.47814e+20
1.49421e+20
1.99093e+20
1.97607e+20
1.45329e+20
1.9655e+20
1.56993e+20
1.60657e+20
1.59307e+20
1.5475e+20
1.42564e+20
1.41143e+20
1.39807e+20
1.39493e+20
1.39386e+20
2.01671e+20
1.62214e+20
2.00814e+20
1.36657e+20
1.363e+20
2.37493e+20
1.36943e+20
1.36421e+20
1.92086e+20
1.96636e+20
1.97693e+20
1.47664e+20
1.4925e+20
1.48779e+20
1.46243e+20
1.43443e+20
1.37629e+20
1.37814e+20
1.41743e+20
1.44393e+20
1.38514e+20
1.39729e+20
1.40521e+20
1.89393e+20
1.90171e+20
1.46514e+20
2.46479e+20
1.48286e+20
1.99486e+20
2.03686e+20
1.60279e+20
2.2255e+20
1.90636e+20
1.56429e+20
2.06643e+20
2.11821e+20
2.1325e+20
1.62664e+20
1.561e+20
2.06621e+20
2.07193e+20
1.55071e+20
1.47057e+20
1.92771e+20
1.99021e+20
1.5295e+20
1.49971e+20
1.96229e+20
1.42264e+20
1.41164e+20
1.42136e+20
1.42979e+20
1.87521e+20
1.34664e+20
1.86236e+20
1.86464e+20
1.86993e+20
1.36221e+20
1.85729e+20
2.37064e+20
1.31493e+20
1.30893e+20
1.32071e+20
1.37757e+20
1.9005e+20
1.43457e+20
1.95807e+20
1.4775e+20
1.46443e+20
1.46171e+20
1.47593e+20
2.001e+20
1.4935e+20
1.66786e+20
1.76086e+20
1.7295e+20
1.58679e+20
1.59593e+20
1.60793e+20
1.588e+20
2.05007e+20
1.54321e+20
1.55343e+20
1.54114e+20
1.5045e+20
1.50636e+20
1.51857e+20
1.51193e+20
1.507e+20
2.00564e+20
1.56264e+20
1.57921e+20
1.5725e+20
2.06057e+20
1.97071e+20
1.40671e+20
1.63264e+20
1.63907e+20
1.3705e+20
1.38593e+20
1.89293e+20
1.44921e+20
1.43386e+20
1.49736e+20
1.46393e+20
1.46514e+20
1.95136e+20
1.45929e+20
1.28929e+20
1.26836e+20
1.25029e+20
1.71129e+20
1.6895e+20
1.19436e+20
1.18071e+20
1.16421e+20
1.681e+20
1.69829e+20
1.20643e+20
1.302e+20
2.326e+20
1.41343e+20
2.43236e+20
1.40286e+20
1.30279e+20
1.82729e+20
1.3125e+20
1.26386e+20
1.80636e+20
1.312e+20
1.29021e+20
1.78129e+20
1.23764e+20
1.17257e+20
1.16886e+20
1.16079e+20
1.15157e+20
1.64279e+20
1.39221e+20
1.41771e+20
1.64021e+20
1.14114e+20
1.64207e+20
1.14857e+20
1.14057e+20
1.15807e+20
1.14729e+20
1.13514e+20
1.12286e+20
1.60757e+20
1.11421e+20
1.22957e+20
1.23286e+20
1.17629e+20
1.051e+20
1.56214e+20
1.02979e+20
1.50679e+20
1.00393e+20
1.48529e+20
1.97857e+20
9.63286e+19
9.16643e+19
9.05929e+19
8.94714e+19
1.39086e+20
9.12286e+19
8.99929e+19
1.38979e+20
8.57143e+19
8.49143e+19
8.45071e+19
8.47929e+19
8.33286e+19
8.21571e+19
8.29929e+19
1.37121e+20
1.36707e+20
1.82507e+20
9.22929e+19
1.00971e+20
1.15636e+20
1.16693e+20
1.01093e+20
9.73429e+19
1.3095e+20
1.28671e+20
1.53771e+20
1.38686e+20
8.47857e+19
8.47429e+19
1.343e+20
1.33771e+20
8.44429e+19
8.52071e+19
8.83786e+19
8.53643e+19
8.71286e+19
1.38536e+20
8.64071e+19
8.46429e+19
8.52429e+19
8.18286e+19
8.02e+19
7.87643e+19
7.39071e+19
1.20071e+20
6.81929e+19
6.83429e+19
6.87929e+19
)
;

boundaryField
{
    sides
    {
        type            calculated;
        value           nonuniform List<scalar> 2(6.87929e+19 1.17214e+20);
    }
    empty
    {
        type            empty;
    }
}


// ************************************************************************* //
