/*--------------------------------*- C++ -*----------------------------------*\
  =========                 |
  \\      /  F ield         | OpenFOAM: The Open Source CFD Toolbox
   \\    /   O peration     | Website:  https://openfoam.org
    \\  /    A nd           | Version:  7
     \\/     M anipulation  |
\*---------------------------------------------------------------------------*/
FoamFile
{
    version     2.0;
    format      ascii;
    class       volScalarField;
    location    "0.007";
    object      internalE;
}
// * * * * * * * * * * * * * * * * * * * * * * * * * * * * * * * * * * * * * //

dimensions      [1 -1 -2 0 0 0 0];

internalField   nonuniform List<scalar> 
1000
(
0.160188
0
0.205788
0.020316
0.495333
0.542444
0.109146
0.118443
0.0499999
0.184642
0.0819412
0.0219397
0.0186352
0.230336
0.207003
0.0572041
0.0156936
0.00673259
0.0571284
0.0338882
0.108743
0.20862
0.180154
0.153128
0.048477
0.267512
0.111958
0.00782484
0.0257095
0.234315
0
0.104409
0.404451
0.0485484
0.107117
0
0
0.300602
0.386931
0.0398819
0.613182
0.502962
0
0.0937517
0
0.0942154
0.0792268
0.496588
0.553746
0.167382
0.119456
0.315689
0.248567
0.185531
0.0424616
0.167753
0.0178318
0
0.107065
1.14997
0.07518
0.46656
0.714451
0.203523
0.150294
0.0382544
0.579836
0
0.0912448
0.0385564
0.24819
0.102874
0.158129
0.294232
0.0388015
0.401057
0.464692
0.174881
0.0729951
0.153321
0.0605241
0.0402577
0.112212
0.477084
0.317784
0.0361631
0.0662942
0.254907
0.189672
0.123232
0.166769
0
0.134554
0.169569
0.573415
0.582531
0.447234
0.808481
0.617681
0.0543235
0.104439
0.443708
0.0922923
0.027833
0.108479
0.267239
0.00511406
0.235305
0.450883
0
0.0974452
0.0623193
0.42422
0.0429745
0.728491
0.0222518
0.361676
0.0674094
0.0547814
0.176571
0
0.159915
0
0.162428
0.187707
0
0.442925
0.0427191
0.176238
0.394828
0.263765
0.0720061
0.28461
0.0563067
0.018106
0
0.0125679
0.44019
0.204697
0.767128
0.369382
0.367479
0.305495
0.311972
0.00164126
0.108799
0.797432
0.156837
0.00911048
0.0438044
0.536892
0
0.0455073
0.0816751
0.236485
0.35303
0.372438
0
0.21731
0.397256
0.0767291
0.169785
0.0169843
0
0.233183
0.369193
0.300041
0.300168
0.0970326
0.273211
0.641546
0
0.0294641
0.0550013
0.424259
0.730934
0.0731158
0.508665
0.2421
0.226843
0.545397
0.0488757
0.274142
0.00139361
0.532123
0.256783
0.82565
0.138701
0.284965
0.434782
0.0214054
0.572435
0.128788
0.106909
0.275808
0.12015
0.011829
0.194126
0.37438
0.378925
0.101387
0.179476
0.0813941
0.668945
0
0.00612543
0.233062
0.848134
0.0556874
0
0.0900795
0.0117911
0.0766026
0.71978
0.151716
0.0175632
0.30322
0
0.243047
0.173328
0.28757
0.34584
0.329816
0.422849
0.305585
0
0.327659
0
0.0274306
0.395872
0.448666
0.253056
0.0684676
0.333003
0.563429
0
0.324403
0.0379322
1.34193
0.207358
0.11747
0.283909
0.676225
0.167221
0.179651
0.149992
0.247491
0
0.221273
0.214064
0.208912
0.3132
0.55547
0.236001
0.348826
0.302491
0.128628
0.242517
0.0392542
0.499098
0.179753
0.699438
0.232067
0.0479044
0.0689862
0
0.709277
0.744617
0.389194
0.254663
0.460691
0.152053
0.0799737
0.665382
0.500915
0.144197
0.18608
0.235106
0.311782
0.314893
0.173656
0.575487
0.0174594
0.588552
0.431241
0.221482
0.104642
0.290172
0
0.192817
0.258115
0.40726
0.0409431
0.256758
0.312988
0.260963
0.0595784
0.635128
0.559608
0.264136
0.470049
0.275338
0.725866
0.179802
0.410762
0.122289
0.434497
0.343258
0.536623
1.03976
0.457835
0.248712
0.213724
0.227423
0.0866973
0.24632
0.246083
0.16051
0.177734
0.525175
0.342646
0.373193
0.00547416
0.0392248
0.254093
0.25309
0.17326
0.260082
0.211925
0.105799
0.565172
0.00403535
0.164091
0
0.429344
0.100465
0.16176
0.0928394
0.0262617
0.280238
0.343033
0.007699
0
0
0.259979
0.195459
0.130807
0.129135
0.489683
0.070808
0.0131255
0.0835764
0.0843022
0.455177
0.503258
0.0433084
0.649132
0.215133
0.409001
0.149034
0.112834
0.293805
0.248326
0.0585077
0.091906
1.01533
0.0799944
0.598047
0.419914
0.222145
0.111619
0.217309
0.329015
0.0853823
0.431781
0.549932
0.158514
0.0896611
0.607105
0.0279243
0.147394
0.130222
0.0542301
0.390323
0.278515
0.00790854
0.581948
0.139582
0.0897118
0.520269
0.0249471
0.117932
0.137985
0.559493
0.235946
0.247636
0.11388
0.45148
0.464417
0
0.169052
0.0189461
0
0.042635
0.110459
0.1581
0.011587
0.155235
0.273136
0.089612
0.146655
0.404935
0.0106675
0
0.792967
0.295916
0.125803
0.224919
0
0.106474
0.42268
0.0141053
0.253564
0.639394
1.25074
0.433885
0.269817
0.507206
0.227421
0.480574
0.478836
0.84443
0.39012
0.116367
0.112252
0.180604
0.162594
0.24536
0.00696941
0.339104
0.745065
0.19212
0.107005
0.442957
0.118503
0.122878
0.422291
0.212811
0.0379537
0.387463
0.239183
0.0702661
0.206729
0.121465
0
0.256158
0.148609
0.273661
0.532262
0.143096
0.829069
0.545473
0.135511
0.661957
0.183868
1.06557
0.115927
0.422415
0.352228
0.257321
0.197369
0.232878
0.370968
0.27591
0.119171
0.0794897
0.00695478
0.357542
0.0874749
0.546654
0.0945199
0.143756
0.290517
0.483047
0.0345707
0.216013
0.164854
0.494527
0
0.585317
0.307461
0.141475
0.318202
0.425652
0.0171353
0.311962
0.0656649
0.36828
0.0202483
0.104674
0.266586
0.151559
0.124257
0.448978
0.126014
0.216463
0.840445
0
0.279679
0.23221
0.243863
0.150039
0.0362221
0.212963
0.064436
0.315266
0.353416
0.188978
0.45974
0.398797
0.204126
0.206911
0
0.421977
0.431724
0.114764
0.390256
0.154321
0.626962
0
0.201973
0.820213
0.508238
0
0.167947
0.0547755
0.497251
0.0472783
0.0766737
0.219016
0.0964192
0
0.593701
0.616366
0.242937
0.187598
0.273074
0
0.380974
0
0.495377
0.182861
0.647764
0.239745
0.365354
0.131584
0.19156
0.420887
0.270062
0.0826744
0.225276
0.315643
0.388073
0.465159
0.300869
0.955156
0.197309
0.160046
0.504171
0.237557
0.272742
0
0.0113764
0.527319
0.145768
0.428009
0.170209
0.555146
0.283089
0.125704
0.0709931
0.463073
0.390204
0.27321
0.32947
0.314444
0.158593
0.29438
0.405261
1.02365
0.273882
1.05514
0.243114
0.395576
0.605041
0.936239
0.306271
0.481886
0.30238
0.388146
0.145822
0.0137817
0.116636
0.25497
0.372423
0.109389
0.172789
0.269921
0.269766
0.11458
0.205672
0.474038
0.0626589
0.666424
0
0.370884
0.0684244
0.582221
0.559081
0.381301
0.445296
0.103614
0.234276
0.450763
0.0707537
0.20197
0.589305
0.256267
0.353915
0.0914202
0.199973
0.103049
0.576667
0
0.340643
0.105823
0.0341529
0.046289
0.243089
0.237827
0.0253492
0.144792
0.930586
0.263145
0.460684
0.0695917
0.606057
0.298718
0.678907
0.188761
0.204544
0.264219
0.193625
0.471359
0.360087
0.0845118
0.174777
0.11373
0.410432
0.291779
0.562922
0.857619
0.30048
0.341678
0.102088
0
0.0625751
0.455787
0.795589
0.235079
0.218245
0.183311
0.384262
0.0947516
0.197602
0.223446
0.798774
0.181521
0.229719
0.0583276
0.40724
0.448441
0.179175
0.159506
0.475235
0.568406
0.539215
0.474134
0.204068
0.131228
0.185716
0.558545
0.204605
0.218356
0.118842
0.311462
0.00423265
0.628586
0.0393539
0.303726
0.126258
0.189509
0.217401
0.159999
0.209946
0.223213
0.192762
0.443101
0.18449
0.0995195
0.17665
0
0.785074
0.179928
0.23772
0.217266
0.114316
0.273168
0.114937
0.257375
0.065022
0.426157
0.918471
0.308426
0.139986
0.254176
0.24678
0.123986
0
0.0343332
0.0761598
0
0.849316
0.252537
0.198653
0.221115
0.195231
0.525606
0.27645
0.0713953
0.121381
0.114701
0.480491
0.484093
0.104868
0.540829
0.674498
0.613309
0.216454
0.906538
0.436364
0.579088
0.042286
0
0.356239
0.237646
0.00959545
0.380751
0.297292
0.202726
0.151571
0.15776
0.658801
0
0.213399
0.332512
0.294515
0.0983595
0.59284
0.113369
0.31785
0.333932
0.0484604
0
0.195039
0.428668
0.138828
0.0735489
0.0188186
0.126282
0
0.287202
0.0335047
0.124889
0.318698
0.13594
0.237167
0.0237919
0.223478
0.143938
0.00958102
0.169705
0.307041
0.537353
0.277262
0.416039
0.202289
0.20355
0.443112
0.425259
0.295473
0.705092
0.0909907
0.399708
0.398686
0.194456
0.497807
0.00423524
1.48374
0.186257
0
0.860942
0.128531
0.046393
0.474596
0.180595
0.243492
0.274974
0.5827
0.194882
0.402119
0.343798
0.392627
0.346115
0
0.311379
0
0.365858
0.0192706
0.0922945
0.299201
0.0605499
0.00655695
0.0323298
0.287487
0.1939
0
0.0941872
0.293667
0.152299
0.16462
0.319936
0.428452
0.109425
0.259294
0.232344
0.245244
0.0669012
0.0237168
0.12863
0.808672
0.0238891
0
0.0307109
0
0.0894223
0.101979
0.193104
0.559156
0.314201
0.0770366
0.524524
0.137763
0.837683
1.0476
0.254271
0.174383
0.159257
0.131029
0.350982
0.754563
0.0119825
0.334669
0.240052
0.391077
0.080832
0.308664
0.466395
0.660462
0.201512
0.108184
0.700021
0.302741
0.090178
0.365732
1.13453
0.224952
0.0624144
0.228869
0.141706
0.118566
0.0699498
0
0.426037
0.0925199
0.247815
0.178189
0.195933
0.226521
0.660703
0.390767
0.453715
0.624336
0.179383
0.166735
0.0422528
0.0572553
0.318215
0.166886
0.388502
0.305407
0.161667
0.134477
0.290152
0.0963919
0.180395
0.111358
0.0568705
0
0.125502
0.426513
0.113828
0.283147
0.237374
0.0219967
0.0434073
0.404758
0
0.270601
0
0
0.0717384
0.0518435
0.0788952
0.197429
0
0
0.596423
0.176544
0.0210569
0.394507
0.0514762
0.501558
0.354052
0
0.496775
0.764687
0.762959
0.0683553
0
0.27575
0.340925
0.218165
0
0.225927
0.152754
0.669702
0.233567
0.0166677
0.114465
0.331199
0.0683894
0
0.0985888
0.139039
0
0.330973
0.0796051
0.625951
0.0129852
0.130889
0.0849444
0.251608
0
0
0.542976
0.0624071
0.087189
0.11013
0.076714
0
0.198089
0.0943811
0.0727667
0.203183
0.0363297
0.228195
0.548004
0.23473
0.0361603
0
0.128549
0.0477144
0.00584694
0
0.009406
0
0
0
0.0497102
)
;

boundaryField
{
    sides
    {
        type            zeroGradient;
    }
    empty
    {
        type            empty;
    }
}


// ************************************************************************* //
