/*--------------------------------*- C++ -*----------------------------------*\
  =========                 |
  \\      /  F ield         | OpenFOAM: The Open Source CFD Toolbox
   \\    /   O peration     | Website:  https://openfoam.org
    \\  /    A nd           | Version:  7
     \\/     M anipulation  |
\*---------------------------------------------------------------------------*/
FoamFile
{
    version     2.0;
    format      ascii;
    class       volScalarField;
    location    "0.007";
    object      internalEMean;
}
// * * * * * * * * * * * * * * * * * * * * * * * * * * * * * * * * * * * * * //

dimensions      [1 -1 -2 0 0 0 0];

internalField   nonuniform List<scalar> 
1000
(
5.17418
5.23108
5.17052
5.21454
5.20147
5.24212
5.23943
5.25657
5.22958
5.2554
5.26181
5.27214
5.22269
5.21057
5.20469
5.20577
5.24102
5.23466
5.22696
5.24063
5.23287
5.2412
5.2884
5.24341
5.23526
5.2377
5.25302
5.22438
5.20687
5.25602
5.26146
5.24607
5.20087
5.22297
5.24868
5.26431
5.27485
5.24549
5.23606
5.23078
5.24352
5.26591
5.2121
5.23494
5.24069
5.23995
5.21445
5.23067
5.26013
5.283
5.22425
5.2504
5.23954
5.24592
5.24628
5.23317
5.2447
5.25422
5.27894
5.26105
5.19903
5.21399
5.20538
5.21213
5.20916
5.23504
5.20665
5.20576
5.22755
5.26978
5.25559
5.23098
5.22929
5.1808
5.20516
5.22793
5.22834
5.18679
5.18959
5.28457
5.27676
5.21775
5.21931
5.21101
5.25754
5.23737
5.21691
5.22895
5.23809
5.22099
5.23791
5.22957
5.20309
5.21728
5.23583
5.26787
5.1909
5.20562
5.22425
5.21649
5.20176
5.21392
5.18827
5.21501
5.22386
5.16564
5.19641
5.18947
5.20011
5.18242
5.20786
5.21
5.19328
5.2263
5.21125
5.17592
5.18326
5.21014
5.1962
5.13973
5.13055
5.12473
5.13706
5.17985
5.17741
5.18168
5.16875
5.14529
5.15084
5.13934
5.15485
5.13261
5.17546
5.1961
5.18058
5.15036
5.12177
5.13539
5.12428
5.15099
5.14742
5.15772
5.15777
5.13902
5.1475
5.11929
5.15471
5.16674
5.14139
5.1329
5.15512
5.12479
5.11904
5.1429
5.12888
5.12354
5.0906
5.09358
5.09176
5.03078
5.0784
5.08144
5.06011
5.0744
5.10428
5.08952
5.13444
5.05075
5.08683
5.07645
5.07429
5.01486
5.04203
5.02329
5.04715
5.06896
5.03428
5.04689
5.09435
5.03579
4.9925
4.99217
4.9708
4.98035
4.97939
5.01075
5.01441
4.97615
4.97559
5.01133
4.98524
5.00684
4.95948
4.99085
4.93275
4.95543
4.95363
4.95076
5.0132
4.99579
4.95731
4.93634
4.95154
4.95943
4.94833
4.95642
4.93017
4.91182
4.89572
4.93086
4.94067
4.88769
4.93995
4.92036
4.89852
4.90738
4.91074
4.91503
4.89297
4.89425
4.86861
4.86982
4.81529
4.83457
4.83629
4.83681
4.82361
4.81557
4.84579
4.82535
4.80612
4.83019
4.81582
4.80225
4.82564
4.79532
4.75298
4.79244
4.76911
4.76013
4.75338
4.73487
4.74352
4.70284
4.72101
4.71374
4.71108
4.69196
4.69327
4.70543
4.68643
4.7054
4.71197
4.6926
4.71284
4.65566
4.65598
4.70625
4.61298
4.66428
4.63584
4.66839
4.6525
4.65146
4.63705
4.56881
4.59872
4.60852
4.60664
4.6044
4.5967
4.5878
4.55237
4.57928
4.61539
4.56295
4.59619
4.58492
4.56985
4.53711
4.51817
4.48574
4.46472
4.48036
4.48552
4.45503
4.44449
4.44412
4.43636
4.44335
4.48086
4.41149
4.39943
4.44481
4.43879
4.43293
4.40269
4.37359
4.37076
4.34468
4.3501
4.34958
4.27805
4.32308
4.33117
4.31564
4.32542
4.27889
4.25271
4.26515
4.2692
4.26204
4.21666
4.2171
4.22217
4.19409
4.19353
4.22859
4.18656
4.21072
4.16974
4.17824
4.17407
4.17808
4.1917
4.18426
4.16201
4.13493
4.12786
4.14165
4.12972
4.05531
4.04286
4.05748
4.03463
4.04582
4.00662
4.0214
3.99756
4.0136
4.0205
4.00181
4.00523
3.98906
3.95357
3.99292
3.95293
3.92887
3.96098
3.89909
3.91552
3.90127
3.90819
3.89438
3.86018
3.8243
3.83385
3.86001
3.80473
3.83018
3.8035
3.76859
3.76237
3.75964
3.75215
3.74118
3.71835
3.71745
3.68721
3.66775
3.6539
3.68959
3.68458
3.68194
3.66686
3.62624
3.61077
3.65208
3.64303
3.58821
3.55852
3.57051
3.55074
3.58033
3.54748
3.5578
3.51586
3.52398
3.53709
3.52971
3.48919
3.4574
3.45202
3.44787
3.40159
3.41747
3.41371
3.39706
3.37471
3.40084
3.34536
3.34923
3.3231
3.32324
3.32204
3.32263
3.29747
3.2908
3.27183
3.20906
3.20924
3.21089
3.21105
3.21774
3.16717
3.17339
3.1838
3.16509
3.16181
3.12804
3.13095
3.08437
3.09314
3.07625
3.03553
3.05692
3.03177
3.03812
3.03302
3.04057
3.00368
2.99477
2.99272
2.9417
2.95484
2.92155
2.88817
2.87196
2.86344
2.86775
2.83847
2.82871
2.81881
2.80931
2.79976
2.77317
2.76486
2.75738
2.7365
2.71226
2.71033
2.69711
2.69187
2.69948
2.69018
2.68829
2.68863
2.7084
2.65431
2.62791
2.5747
2.56696
2.55116
2.53644
2.53082
2.53431
2.54745
2.50477
2.46798
2.44873
2.42436
2.40597
2.40169
2.38071
2.3477
2.33308
2.34194
2.32708
2.30626
2.29188
2.28452
2.29713
2.27685
2.2668
2.25097
2.25071
2.21835
2.21159
2.22439
2.19297
2.17365
2.18765
2.15239
2.12006
2.10149
2.11422
2.08357
2.07848
2.07625
2.03227
2.00696
2.00656
2.01108
1.98407
1.97733
2.00003
1.98516
2.00926
1.9818
1.99794
1.97053
1.96786
1.94041
1.94915
1.96114
1.95924
1.96794
1.96698
1.95712
1.96159
1.94803
1.94364
1.94662
1.93918
1.94224
1.94999
1.96014
1.93934
1.93892
1.95182
1.92094
1.91284
1.93207
1.91021
1.91106
1.91635
1.89422
1.89223
1.87918
1.88289
1.9003
1.8833
1.85948
1.8658
1.86946
1.86689
1.86095
1.87616
1.85881
1.84132
1.85754
1.87126
1.85201
1.83854
1.83883
1.83309
1.83579
1.82604
1.82656
1.83063
1.82402
1.81419
1.79827
1.80556
1.82921
1.79963
1.78994
1.79829
1.79403
1.79532
1.8033
1.77968
1.79681
1.77253
1.76789
1.75143
1.74056
1.73627
1.73129
1.73559
1.75158
1.74417
1.7215
1.71612
1.72573
1.75848
1.75651
1.72924
1.73054
1.74245
1.72589
1.73402
1.72758
1.72521
1.70565
1.70521
1.68987
1.68083
1.64736
1.6541
1.64954
1.65747
1.66019
1.67186
1.65789
1.67143
1.67602
1.66272
1.65128
1.67437
1.66847
1.66415
1.65521
1.64965
1.65033
1.65227
1.66232
1.6683
1.64827
1.64542
1.64426
1.6601
1.62886
1.6351
1.64536
1.62992
1.62059
1.61398
1.60937
1.6277
1.60276
1.59969
1.57123
1.55217
1.56487
1.56317
1.57043
1.5857
1.58297
1.5818
1.56847
1.55158
1.55365
1.54464
1.54681
1.5413
1.52578
1.5151
1.51266
1.51707
1.53212
1.53907
1.5397
1.5504
1.52632
1.52354
1.52122
1.52571
1.5
1.50863
1.49887
1.49318
1.46364
1.48012
1.48412
1.45301
1.46853
1.46284
1.47638
1.45844
1.46144
1.46411
1.45565
1.46177
1.4653
1.446
1.46163
1.46373
1.46233
1.4511
1.42723
1.42208
1.42905
1.4226
1.41337
1.41086
1.41744
1.41483
1.40085
1.38882
1.39383
1.3854
1.39209
1.38226
1.39999
1.40737
1.40177
1.40925
1.40288
1.37919
1.36435
1.34806
1.34854
1.32836
1.32126
1.32522
1.34464
1.34372
1.29802
1.30227
1.31689
1.31865
1.29134
1.29647
1.29257
1.29328
1.29767
1.29415
1.28475
1.29225
1.28982
1.29528
1.28548
1.28863
1.26114
1.26095
1.24585
1.24323
1.24946
1.24082
1.25137
1.23935
1.25315
1.27368
1.26687
1.24155
1.23599
1.23761
1.22924
1.2386
1.24239
1.24873
1.2329
1.22991
1.229
1.2431
1.2396
1.22601
1.19931
1.18555
1.19377
1.18208
1.18176
1.16963
1.16847
1.16253
1.16267
1.14878
1.15834
1.15317
1.14689
1.13454
1.14223
1.13688
1.13511
1.12164
1.12512
1.11682
1.09536
1.09593
1.09897
1.0825
1.07884
1.07143
1.08097
1.07964
1.08057
1.08606
1.08312
1.0601
1.0677
1.07916
1.07553
1.0612
1.07552
1.07128
1.06459
1.07258
1.0673
1.06585
1.06674
1.06938
1.05493
1.05991
1.04639
1.04289
1.04264
1.03016
1.03112
1.02051
1.01873
1.01323
1.00905
1.00056
1.01649
1.01675
0.987424
0.994706
0.981522
0.975251
0.980209
0.969575
0.979705
0.975553
0.97236
0.98837
0.993863
0.983888
0.968319
0.968544
0.953547
0.950774
0.954153
0.949611
0.954925
0.947597
0.947139
0.949286
0.937884
0.924386
0.931459
0.924955
0.927091
0.916268
0.904983
0.915052
0.906566
0.898637
0.905384
0.899583
0.906536
0.89262
0.906915
0.905072
0.901767
0.893401
0.882079
0.866777
0.862187
0.871321
0.861204
0.855406
0.845517
0.833248
0.833877
0.834404
0.846664
0.851327
0.851945
0.838539
0.859321
0.855902
0.846158
0.849234
0.832436
0.842682
0.825066
0.825031
0.811761
0.806119
0.80001
0.809722
0.808405
0.808785
0.794684
0.784995
0.7859
0.781245
0.769017
0.759997
0.758192
0.751904
0.754431
0.754562
0.762821
0.732776
0.733117
0.749067
0.735402
0.732836
0.73513
0.730464
0.728084
0.724805
0.731696
0.74148
0.730416
0.708988
0.700055
0.706366
0.710249
0.702461
0.693722
0.695663
0.67775
0.689748
0.693347
0.679676
0.671738
0.678143
0.683768
0.672803
0.665594
0.661236
0.664833
0.646711
0.646706
0.653258
0.650885
0.638211
0.643506
0.645193
0.637877
0.634706
0.615359
0.613453
0.61364
0.605951
0.615246
0.609776
0.612156
0.596041
0.604831
0.594958
0.597525
0.595731
0.590006
0.586803
0.590225
0.592434
0.586356
0.584366
0.576928
0.586942
0.580156
0.563946
0.568597
0.552691
0.555862
0.54594
0.551852
0.536067
0.529149
0.530299
0.52691
0.517758
0.528096
0.515555
0.520255
0.515462
0.498194
0.510472
0.513747
0.504652
0.509609
0.510611
0.513314
0.505662
0.504615
0.517457
0.51322
0.502968
0.498106
0.509724
0.511501
0.509634
0.504586
0.503155
0.50715
0.508731
0.512802
0.520648
0.513408
0.503206
0.516841
0.52154
0.515574
0.50334
0.510875
0.507036
0.511627
0.503422
0.504193
0.512407
0.505241
0.50848
0.502189
0.506415
0.509612
0.505
)
;

boundaryField
{
    sides
    {
        type            symmetry;
    }
    empty
    {
        type            empty;
    }
}


// ************************************************************************* //
