/*--------------------------------*- C++ -*----------------------------------*\
  =========                 |
  \\      /  F ield         | OpenFOAM: The Open Source CFD Toolbox
   \\    /   O peration     | Website:  https://openfoam.org
    \\  /    A nd           | Version:  7
     \\/     M anipulation  |
\*---------------------------------------------------------------------------*/
FoamFile
{
    version     2.0;
    format      ascii;
    class       volScalarField;
    location    "0.007";
    object      linearKEMean;
}
// * * * * * * * * * * * * * * * * * * * * * * * * * * * * * * * * * * * * * //

dimensions      [1 -1 -2 0 0 0 0];

internalField   nonuniform List<scalar> 
1000
(
0.972175
1.01766
1.05626
1.09552
1.1079
1.12259
1.14377
1.16289
1.18238
1.19246
1.22014
1.22313
1.24824
1.2765
1.28296
1.28899
1.31541
1.32859
1.34788
1.35768
1.36608
1.37076
1.39676
1.41072
1.42063
1.4307
1.43789
1.44583
1.4671
1.46871
1.49373
1.5033
1.50629
1.52236
1.51413
1.54722
1.56311
1.56647
1.5607
1.5959
1.60147
1.60724
1.6261
1.63965
1.65448
1.6513
1.66147
1.68169
1.68162
1.70384
1.71427
1.70315
1.73223
1.73203
1.74115
1.74184
1.7584
1.77183
1.77568
1.793
1.81056
1.81449
1.81247
1.81469
1.8278
1.82091
1.83822
1.85612
1.8674
1.86348
1.89404
1.88898
1.89254
1.91104
1.91641
1.90021
1.91304
1.91658
1.94879
1.94161
1.95827
1.95863
1.97263
2.00119
1.98253
1.99904
1.98924
2.00236
2.01219
2.01798
2.02786
2.03188
2.03926
2.05206
2.05236
2.06572
2.07042
2.08608
2.09053
2.09214
2.0837
2.09864
2.11415
2.14408
2.13706
2.12193
2.15174
2.12738
2.13158
2.13678
2.14229
2.14551
2.1667
2.17595
2.16472
2.16709
2.19782
2.20464
2.19511
2.21809
2.21488
2.22332
2.22899
2.22158
2.2353
2.22722
2.24882
2.24511
2.26114
2.25853
2.27118
2.26691
2.27905
2.29608
2.30443
2.29574
2.30345
2.31373
2.31468
2.31406
2.30866
2.33568
2.32292
2.34492
2.3447
2.33726
2.36267
2.33636
2.35234
2.36874
2.37186
2.37591
2.39257
2.37732
2.40479
2.39927
2.40466
2.40976
2.4113
2.40791
2.39325
2.42257
2.41248
2.4236
2.42566
2.41295
2.41107
2.42648
2.44979
2.42348
2.45646
2.47911
2.46262
2.45135
2.454
2.46471
2.4651
2.45702
2.48934
2.47744
2.49399
2.50144
2.47697
2.49653
2.50285
2.47162
2.48415
2.49649
2.49043
2.49472
2.50751
2.48669
2.51316
2.51409
2.52382
2.5171
2.51388
2.52971
2.52283
2.53222
2.53758
2.50169
2.51961
2.54251
2.5427
2.52403
2.5334
2.55475
2.54916
2.52742
2.53334
2.54719
2.57349
2.53887
2.55733
2.5681
2.56048
2.55056
2.54243
2.57554
2.58592
2.57521
2.56586
2.56394
2.5766
2.57914
2.56684
2.55416
2.55599
2.56555
2.55627
2.57403
2.59587
2.57362
2.5768
2.60892
2.5715
2.58977
2.57092
2.60622
2.58233
2.56851
2.56969
2.60027
2.60288
2.59002
2.59669
2.60648
2.60217
2.60245
2.60538
2.59947
2.60734
2.5814
2.61717
2.60697
2.59884
2.59094
2.57553
2.61739
2.61259
2.60737
2.60599
2.58231
2.6043
2.59084
2.60029
2.59415
2.58664
2.61749
2.58578
2.56073
2.59451
2.60357
2.59735
2.58498
2.60401
2.59808
2.58494
2.58154
2.5775
2.59069
2.60366
2.57005
2.58132
2.57156
2.57736
2.57911
2.58695
2.57333
2.57563
2.571
2.56169
2.56042
2.57354
2.54
2.54681
2.5651
2.53046
2.5594
2.54255
2.53978
2.54011
2.56056
2.51821
2.52067
2.5264
2.52013
2.51936
2.51546
2.52251
2.52995
2.53265
2.51028
2.50609
2.50727
2.51713
2.49717
2.48906
2.49532
2.50664
2.50363
2.46802
2.47401
2.50748
2.50227
2.50696
2.49988
2.48723
2.47045
2.46303
2.44026
2.46928
2.44743
2.44779
2.47294
2.4295
2.4506
2.44375
2.45317
2.44919
2.42671
2.41177
2.41991
2.4287
2.4368
2.41382
2.402
2.40309
2.39196
2.40659
2.38701
2.38657
2.36335
2.38804
2.37928
2.37609
2.37553
2.3608
2.36794
2.3673
2.3635
2.34867
2.37248
2.33417
2.33642
2.3376
2.31726
2.29792
2.32223
2.32314
2.28901
2.30034
2.32019
2.29124
2.28968
2.28905
2.28443
2.29093
2.25988
2.26787
2.27427
2.26156
2.23023
2.2291
2.21964
2.21404
2.20707
2.21186
2.19833
2.19794
2.19063
2.20571
2.17634
2.19105
2.15695
2.18405
2.16132
2.14527
2.13821
2.13222
2.12805
2.12362
2.09879
2.11452
2.11771
2.09433
2.08617
2.08498
2.08328
2.09242
2.06745
2.07729
2.05529
2.0644
2.04017
2.01344
2.05025
2.02627
2.02662
2.01399
2.01357
2.02063
2.00662
2.00949
1.99511
1.99109
1.98229
1.96235
1.94868
1.95875
1.94039
1.93996
1.94622
1.92398
1.91903
1.9306
1.92549
1.90193
1.90886
1.87897
1.89673
1.87411
1.8572
1.84565
1.83608
1.8531
1.84253
1.84611
1.83549
1.84712
1.8563
1.83733
1.83461
1.83325
1.82596
1.82449
1.80583
1.79149
1.78164
1.76194
1.77147
1.76175
1.74996
1.75169
1.74681
1.75265
1.75689
1.73641
1.72271
1.71599
1.71213
1.7165
1.69213
1.69376
1.68898
1.67485
1.66544
1.67156
1.66366
1.63896
1.65106
1.63924
1.64148
1.62482
1.62139
1.62959
1.61511
1.60981
1.59361
1.57573
1.57653
1.58948
1.55867
1.55481
1.55393
1.56395
1.55738
1.54324
1.53873
1.53591
1.51862
1.52822
1.50361
1.51165
1.49629
1.49351
1.49566
1.48395
1.50438
1.50997
1.48947
1.4829
1.48829
1.48231
1.47756
1.48712
1.49086
1.47018
1.46515
1.45841
1.48958
1.47441
1.46166
1.4547
1.46992
1.45658
1.4437
1.44395
1.44225
1.44433
1.44904
1.44673
1.45502
1.44259
1.45516
1.44752
1.43888
1.42792
1.44761
1.42734
1.42299
1.42732
1.42396
1.42826
1.41756
1.40475
1.40548
1.40697
1.4075
1.39266
1.39719
1.39538
1.38134
1.3941
1.40104
1.39686
1.38865
1.38208
1.38338
1.37309
1.38014
1.37961
1.36962
1.3406
1.36201
1.37097
1.38864
1.36782
1.36674
1.36467
1.36515
1.36709
1.36708
1.35113
1.3527
1.35181
1.34201
1.34464
1.34009
1.34596
1.3336
1.32331
1.32857
1.32328
1.31886
1.31755
1.29863
1.30147
1.31654
1.30135
1.29445
1.31179
1.30109
1.30477
1.28189
1.29601
1.29542
1.29492
1.28601
1.29333
1.27315
1.27267
1.29271
1.28663
1.27537
1.28939
1.27956
1.24561
1.24274
1.24179
1.23918
1.24194
1.23767
1.23938
1.23292
1.25813
1.25635
1.26013
1.23342
1.20581
1.23175
1.2224
1.23097
1.22764
1.21101
1.2031
1.20273
1.21741
1.2182
1.21428
1.21335
1.20381
1.19294
1.20669
1.21038
1.19516
1.18482
1.2011
1.1875
1.20149
1.18237
1.16467
1.18201
1.16394
1.15952
1.15028
1.16578
1.16668
1.15146
1.15712
1.15865
1.15792
1.15505
1.16207
1.16051
1.15039
1.14126
1.13858
1.1406
1.13355
1.14141
1.14525
1.12027
1.11639
1.13403
1.13197
1.12052
1.1173
1.11697
1.11513
1.11835
1.10423
1.10205
1.09262
1.09475
1.09397
1.08456
1.08622
1.0943
1.10629
1.09077
1.09899
1.08667
1.08581
1.05913
1.06931
1.07204
1.06359
1.06465
1.06543
1.05641
1.06851
1.0558
1.04793
1.06265
1.04171
1.04168
1.02735
1.03408
1.02748
1.03973
1.04525
1.02531
1.02516
1.04438
1.02758
1.01815
1.02043
1.02389
1.02362
1.01844
1.02606
1.02168
1.0054
0.992162
1.0021
1.00074
0.997156
0.999887
0.994235
0.993119
0.984244
0.990485
0.984403
0.987394
0.982733
0.969294
0.959311
0.964651
0.969836
0.969056
0.970611
0.96189
0.974795
0.946233
0.951033
0.950072
0.959337
0.960438
0.958073
0.950252
0.933937
0.934543
0.931942
0.939832
0.932824
0.949072
0.938894
0.929422
0.930505
0.936074
0.923301
0.916618
0.912227
0.905648
0.902475
0.910064
0.898281
0.908174
0.894544
0.879365
0.884488
0.880011
0.86791
0.872138
0.876223
0.859462
0.859582
0.862089
0.865681
0.865545
0.865472
0.866497
0.871996
0.867122
0.862785
0.863291
0.847201
0.837826
0.842972
0.836742
0.834653
0.838859
0.836887
0.832037
0.829238
0.827842
0.826876
0.820777
0.812423
0.804213
0.798424
0.803322
0.795767
0.79763
0.798819
0.785742
0.792678
0.780934
0.777755
0.801993
0.792228
0.776219
0.774449
0.769905
0.769895
0.761174
0.771419
0.755903
0.733684
0.74988
0.745888
0.743381
0.747321
0.743662
0.732149
0.736771
0.73312
0.725533
0.725626
0.723265
0.722771
0.717146
0.711972
0.712865
0.706543
0.711893
0.718534
0.703372
0.702242
0.699339
0.706655
0.701909
0.7059
0.69938
0.70811
0.715752
0.704807
0.688308
0.69164
0.688214
0.692579
0.700503
0.688566
0.691967
0.673225
0.679711
0.684644
0.676681
0.675224
0.683027
0.683007
0.691524
0.672439
0.6683
0.672753
0.667542
0.661975
0.662395
0.654062
0.660631
0.662293
0.663982
0.670364
0.671064
0.667841
0.652009
0.658437
0.667704
0.665604
0.644808
0.638781
0.650859
0.652879
0.649409
0.650076
0.652983
0.642466
0.632491
0.63028
0.63034
0.633489
0.63521
0.622963
0.621302
0.620129
0.622646
0.618847
0.61379
0.615798
0.620057
0.635006
0.621622
0.620528
0.615451
0.609357
0.592577
0.598627
0.601757
0.601282
0.607423
0.59788
0.603786
0.606561
0.59679
0.58442
0.591644
0.597772
0.595285
0.583384
0.598539
0.587108
0.577172
0.564219
0.5784
0.565774
0.569293
0.573104
0.5595
0.560765
0.58164
0.569212
0.561144
0.561789
0.549205
0.542438
0.550899
0.548555
0.539976
0.53045
0.541997
0.534596
0.534234
0.526681
0.525193
0.520606
0.5161
0.520047
0.514091
0.509053
0.524774
0.522673
0.504928
0.49836
0.496119
0.489722
0.485061
0.472889
0.47931
0.474452
0.469852
0.472171
0.469504
0.460429
0.465844
0.463927
0.455548
0.449959
0.446243
0.451614
0.451558
0.451062
0.445951
0.430778
0.44053
0.437206
0.431797
0.428706
0.425643
0.423209
0.422269
0.413074
0.409974
0.412689
0.39791
0.40581
0.402378
0.403176
0.395779
0.389718
0.389167
0.382908
0.374585
0.375704
0.364368
0.359436
0.363478
0.357461
0.353454
0.355639
0.337275
0.336341
0.333134
0.331624
0.319515
0.311221
0.302328
0.293553
0.283239
)
;

boundaryField
{
    sides
    {
        type            calculated;
        value           nonuniform List<scalar> 2(0.283239 0.972175);
    }
    empty
    {
        type            empty;
    }
}


// ************************************************************************* //
