/*--------------------------------*- C++ -*----------------------------------*\
  =========                 |
  \\      /  F ield         | OpenFOAM: The Open Source CFD Toolbox
   \\    /   O peration     | Website:  https://openfoam.org
    \\  /    A nd           | Version:  7
     \\/     M anipulation  |
\*---------------------------------------------------------------------------*/
FoamFile
{
    version     2.0;
    format      ascii;
    class       volVectorField;
    location    "0.007";
    object      momentumMean;
}
// * * * * * * * * * * * * * * * * * * * * * * * * * * * * * * * * * * * * * //

dimensions      [1 -2 -1 0 0 0 0];

internalField   nonuniform List<vector> 
1000
(
(-0.00234904 -7.09918e-06 2.2896e-06)
(-0.00233268 -1.21499e-05 2.46066e-06)
(-0.00231366 -2.24952e-05 9.22969e-06)
(-0.00229811 -1.95712e-05 3.37369e-05)
(-0.00227916 -3.18652e-06 3.04442e-05)
(-0.00226116 -2.94333e-05 -1.56582e-05)
(-0.00224247 -1.14019e-05 1.3008e-05)
(-0.00222409 -5.02538e-06 1.66392e-05)
(-0.00220638 -7.22007e-06 9.14993e-06)
(-0.00218781 -1.8818e-06 3.05136e-05)
(-0.00216894 -1.98239e-06 -1.71415e-05)
(-0.00215134 8.17502e-06 5.54452e-06)
(-0.00213219 1.16724e-05 -1.78081e-05)
(-0.00211553 2.81093e-06 -5.18597e-06)
(-0.0021006 -1.22411e-05 4.97526e-05)
(-0.00208113 -4.20692e-05 1.67238e-05)
(-0.00206583 -3.18316e-06 2.87673e-05)
(-0.00204924 -2.81819e-05 3.11357e-05)
(-0.0020316 -5.25155e-05 3.89006e-05)
(-0.0020151 1.14193e-05 6.62459e-05)
(-0.00199853 -8.66178e-06 3.57078e-05)
(-0.00198408 -2.71208e-05 1.59657e-05)
(-0.00196932 -8.48937e-06 4.18587e-05)
(-0.00194936 -2.88646e-06 2.72272e-05)
(-0.00193621 -2.84107e-05 7.45589e-06)
(-0.00192147 -9.47226e-06 -1.91304e-05)
(-0.0019079 -4.28005e-06 -3.02133e-05)
(-0.00189094 -5.6327e-05 -4.74378e-05)
(-0.0018763 2.70504e-05 -4.47427e-05)
(-0.00185778 1.64161e-05 2.50051e-06)
(-0.00184268 5.66094e-06 7.93069e-05)
(-0.0018245 -2.41781e-05 3.37633e-05)
(-0.00181001 3.70183e-05 2.33453e-05)
(-0.0017957 6.0969e-06 3.58393e-05)
(-0.00177754 -5.89269e-05 1.9346e-05)
(-0.00176428 -7.66516e-05 -3.67066e-06)
(-0.0017497 -6.30876e-05 -1.24759e-05)
(-0.00173525 1.33606e-06 -4.27855e-05)
(-0.00172062 1.7823e-05 -6.38434e-05)
(-0.00170609 7.92915e-05 -8.38655e-05)
(-0.00169105 7.36228e-05 -2.17368e-05)
(-0.00167352 -4.14223e-05 -2.97078e-05)
(-0.00165882 -4.5834e-05 -8.88042e-05)
(-0.00164474 -3.94561e-05 -0.000105111)
(-0.00163111 -7.69176e-05 -6.6075e-05)
(-0.00161742 -7.58827e-05 -2.6178e-05)
(-0.00160424 -0.000104362 -2.54364e-05)
(-0.00159233 -0.000111759 -3.95592e-05)
(-0.00157832 -1.51453e-05 -8.94827e-05)
(-0.00156308 1.80752e-05 -7.31593e-05)
(-0.00154509 -3.87916e-05 -4.42857e-05)
(-0.00152888 -0.000128664 -9.75953e-05)
(-0.00151334 -0.00013276 -7.69571e-05)
(-0.00149781 -9.23159e-05 -2.98234e-05)
(-0.00148322 -4.381e-05 -3.838e-05)
(-0.00146593 -7.63204e-05 1.69428e-05)
(-0.00145327 -7.01497e-05 -1.68802e-05)
(-0.00143766 -1.55279e-05 2.9163e-05)
(-0.00142485 -7.21084e-06 -5.7001e-05)
(-0.00141093 1.01126e-05 -4.45405e-05)
(-0.00139479 -1.17376e-06 -2.70384e-05)
(-0.00138338 3.0081e-05 -1.72678e-05)
(-0.00136962 4.35551e-05 -4.61452e-05)
(-0.00135554 1.08905e-05 -9.74533e-06)
(-0.00133941 5.35348e-05 3.71085e-05)
(-0.00132789 6.68199e-05 -5.14673e-05)
(-0.00131245 -2.97174e-05 -2.10708e-05)
(-0.00129818 -4.50083e-05 2.71957e-05)
(-0.00128595 -4.90459e-05 -1.7579e-05)
(-0.00127278 -3.09753e-05 8.92139e-06)
(-0.00126239 -8.5549e-05 -3.79401e-05)
(-0.00124891 -8.64302e-05 -2.99105e-05)
(-0.00123315 -4.29694e-05 -4.14845e-05)
(-0.00122043 -9.03891e-05 4.40936e-05)
(-0.00120766 -0.000101378 0.00010484)
(-0.00119472 -5.58989e-05 5.34888e-05)
(-0.00118138 -4.36703e-05 5.34726e-05)
(-0.00116794 -0.00011272 4.27976e-05)
(-0.00115494 -9.41605e-05 1.56291e-05)
(-0.0011418 -2.86199e-05 -6.80644e-06)
(-0.00112991 6.14808e-06 -2.09313e-05)
(-0.00111746 5.36936e-06 -4.89193e-05)
(-0.00110539 -2.07044e-05 -9.55165e-05)
(-0.00109232 -5.66619e-05 -0.000143014)
(-0.00108043 -6.88292e-05 -0.000224972)
(-0.00106864 -4.6723e-05 -0.000197473)
(-0.00105446 -8.79758e-05 -0.000231363)
(-0.00104197 3.86134e-06 -0.000188609)
(-0.00102854 4.93392e-05 -0.000161296)
(-0.00101782 3.46862e-05 -0.000149626)
(-0.00100683 3.31188e-05 -8.2809e-05)
(-0.000996769 2.01327e-05 -1.27149e-05)
(-0.000985013 -2.91553e-05 -0.000103926)
(-0.000971053 -2.48853e-05 -0.000194873)
(-0.000959765 -6.67095e-05 -0.000181091)
(-0.000950281 -7.37452e-05 -0.000161376)
(-0.000942271 -7.21847e-05 -0.000123266)
(-0.000929114 -7.08165e-05 -9.75564e-05)
(-0.000916346 -0.000128913 -1.17542e-05)
(-0.000902341 -0.000167067 -8.35614e-05)
(-0.00088815 -0.000146028 -0.000140971)
(-0.000877302 -0.000129271 -0.000119802)
(-0.000867268 -0.0001111 -9.2051e-05)
(-0.000856997 -8.3382e-05 4.18374e-06)
(-0.000843896 -5.21109e-05 6.51888e-05)
(-0.000830776 -6.32234e-06 1.05167e-05)
(-0.000819425 2.31679e-05 8.66415e-06)
(-0.000808049 5.97149e-05 -1.5032e-05)
(-0.000794907 -1.14395e-05 3.32877e-05)
(-0.000783222 -4.33617e-05 4.27524e-05)
(-0.000773269 -0.000120802 5.51879e-05)
(-0.000764678 -6.14895e-05 0.000100551)
(-0.000753289 -1.23597e-05 9.16807e-05)
(-0.000743363 2.10717e-05 0.000106796)
(-0.000730397 3.19655e-05 6.11147e-05)
(-0.000718326 3.43022e-06 2.96467e-05)
(-0.000709568 -3.85908e-05 0.000126247)
(-0.000700065 -3.60308e-05 8.36755e-05)
(-0.000692251 3.21954e-05 7.5761e-05)
(-0.000680402 3.81291e-05 0.000135528)
(-0.000668776 -2.89291e-05 1.91953e-05)
(-0.000658773 1.28783e-05 2.503e-05)
(-0.000649078 7.73841e-05 -1.65912e-05)
(-0.000641399 9.67718e-07 2.43307e-05)
(-0.000631025 4.45814e-05 3.9952e-05)
(-0.000618839 4.97228e-05 1.58939e-05)
(-0.000608005 5.72203e-05 3.2933e-05)
(-0.000597261 0.000106372 -3.58802e-06)
(-0.000588331 3.54256e-06 -6.72015e-06)
(-0.000577543 5.78929e-05 -9.01791e-05)
(-0.00056568 8.51354e-05 -0.000147147)
(-0.000556396 5.30913e-05 -0.000166496)
(-0.000544439 2.54171e-05 -8.00411e-05)
(-0.000532631 -1.05594e-05 -0.00012169)
(-0.000524593 -5.54536e-05 -0.000134862)
(-0.000515428 -6.75505e-05 -0.000185186)
(-0.000507444 -2.18462e-05 -0.000164056)
(-0.000499258 -4.47587e-05 -0.000120526)
(-0.000489596 -5.59728e-05 -0.000178335)
(-0.000485722 4.30411e-05 -0.000161448)
(-0.000480462 6.08274e-05 -0.000163744)
(-0.000472667 3.22541e-05 -0.000146308)
(-0.000462437 0.00013263 -0.000124958)
(-0.000453708 9.9454e-05 -0.000108395)
(-0.000442476 -3.89547e-06 -0.000157426)
(-0.000433147 2.38847e-05 -9.44136e-05)
(-0.000425614 -8.81814e-05 -0.000107041)
(-0.000416461 -9.2764e-05 -8.48892e-05)
(-0.000409813 -0.000216249 -6.07436e-05)
(-0.00040319 -0.000127082 -8.33793e-05)
(-0.000394578 -1.68891e-05 8.53149e-06)
(-0.000383983 7.17303e-05 -5.44547e-05)
(-0.000375661 6.94475e-05 -8.89558e-05)
(-0.000366411 5.70259e-05 -1.12998e-05)
(-0.000358944 -2.40849e-05 8.56566e-05)
(-0.000346842 -4.82992e-05 4.72267e-05)
(-0.000338292 2.7891e-05 -2.14373e-06)
(-0.000333785 -6.82892e-06 -5.63803e-05)
(-0.000323319 -5.50811e-05 -2.7567e-05)
(-0.000315565 -0.00011413 -6.39429e-05)
(-0.000305269 -5.84543e-05 -7.28184e-07)
(-0.000299686 -2.07215e-05 -3.20816e-05)
(-0.000288487 -0.000106014 -2.61867e-05)
(-0.000283966 -4.48824e-05 -0.000138562)
(-0.000276826 -9.00489e-05 -0.000182033)
(-0.000268184 -0.000162302 -0.000172954)
(-0.000265392 -0.000115677 -0.000228795)
(-0.000258118 -0.00014366 -0.000169757)
(-0.000251479 -0.000199577 -0.000110666)
(-0.000242566 -0.00018958 -0.000127216)
(-0.000237492 -0.000208776 -0.000146285)
(-0.000230587 -0.000166099 -0.000150134)
(-0.000225883 -0.000117318 -0.000125365)
(-0.000221254 -5.65687e-05 2.97841e-05)
(-0.000216155 -8.40044e-05 -1.81547e-05)
(-0.000211495 -6.57583e-05 4.72626e-06)
(-0.000208539 -0.000108538 3.17766e-05)
(-0.000203632 -0.000117389 8.45444e-05)
(-0.000197881 -9.34618e-05 5.00001e-05)
(-0.000192531 -7.98912e-05 9.69941e-05)
(-0.000190623 -8.24189e-05 0.000133536)
(-0.000184081 -0.000117511 0.000155834)
(-0.000178769 -6.08487e-05 7.5968e-05)
(-0.000173841 3.11448e-05 -1.89708e-05)
(-0.00016766 -1.08385e-05 5.81013e-05)
(-0.00016242 4.72451e-05 -3.57005e-05)
(-0.000158969 0.000198056 -5.18548e-05)
(-0.000155017 0.000127396 -5.52012e-05)
(-0.000144201 3.1146e-05 -5.36092e-05)
(-0.000137199 4.95679e-05 -4.4128e-05)
(-0.000131223 4.05654e-05 5.72019e-05)
(-0.000121481 5.90163e-05 4.90676e-05)
(-0.000117423 5.7961e-05 -5.45674e-05)
(-0.000115149 0.000181682 4.88967e-05)
(-0.000110791 0.000132823 3.04031e-05)
(-0.000107189 0.000194354 0.000109749)
(-0.000102607 0.000159179 -1.23833e-06)
(-9.65037e-05 0.000135518 -8.79525e-05)
(-8.97944e-05 0.000102966 -0.000122278)
(-8.50879e-05 0.000116057 -0.000136247)
(-7.91477e-05 0.000188607 -7.09254e-05)
(-7.62826e-05 0.000280426 -0.000105324)
(-7.04387e-05 0.000234293 -9.11905e-05)
(-6.83869e-05 0.000224554 -2.56686e-05)
(-6.3748e-05 0.000120523 -1.20829e-05)
(-5.83362e-05 9.86281e-05 -0.000155145)
(-5.30784e-05 8.33319e-05 -5.6688e-05)
(-4.85547e-05 -1.56905e-06 -3.76255e-05)
(-4.75241e-05 1.37415e-05 -2.64365e-05)
(-4.5125e-05 3.89841e-05 -1.93333e-05)
(-4.00267e-05 -1.14139e-06 0.000183028)
(-4.08317e-05 -5.21956e-05 0.000241505)
(-3.74669e-05 -0.00010504 0.000247696)
(-3.49265e-05 -0.000146719 0.000182809)
(-2.98828e-05 -0.000144314 0.000153382)
(-2.85372e-05 -6.58917e-05 0.000252359)
(-2.61173e-05 1.37385e-05 0.000133189)
(-2.8317e-05 -7.68641e-05 7.05747e-05)
(-2.61135e-05 -6.34484e-05 0.00017268)
(-1.96152e-05 -5.66374e-05 0.000159219)
(-1.53565e-05 -8.26216e-05 7.93494e-05)
(-1.10991e-05 -0.000114204 0.000155247)
(-8.44268e-06 -0.000153893 0.000174256)
(-2.99153e-06 -5.49152e-05 9.60551e-05)
(2.3026e-06 -8.5796e-05 2.46477e-05)
(5.19749e-06 -3.71298e-05 -4.85474e-05)
(6.56216e-06 -4.81426e-05 1.06431e-05)
(8.00321e-06 -2.33845e-05 -2.7849e-05)
(7.32448e-06 1.18642e-05 6.75576e-05)
(6.55971e-06 1.9566e-05 3.35487e-05)
(9.09762e-06 -1.89275e-06 -1.96709e-05)
(1.20652e-05 -8.08714e-05 -3.40398e-05)
(1.40457e-05 -0.000184408 2.2415e-05)
(1.43182e-05 -0.000244016 -4.89148e-06)
(1.62763e-05 -0.000229851 -0.00010796)
(1.7468e-05 -0.000177054 -0.000208062)
(1.90719e-05 -0.000122333 -0.000211286)
(2.03425e-05 3.88618e-06 -0.000187319)
(2.00001e-05 2.0433e-05 -0.000198657)
(1.81872e-05 -2.03022e-05 -0.000325266)
(1.89379e-05 -7.51824e-05 -0.000185918)
(2.21081e-05 8.79384e-06 -7.4856e-05)
(2.29923e-05 3.38105e-05 -6.11037e-06)
(2.46355e-05 -1.89846e-05 1.42594e-05)
(3.06104e-05 -2.94384e-05 3.50862e-05)
(3.21287e-05 -5.60742e-05 -3.05319e-05)
(3.65775e-05 5.95459e-05 -0.000132091)
(3.5703e-05 2.35214e-05 -6.86106e-05)
(3.7252e-05 3.73464e-05 -0.000111389)
(4.10241e-05 2.30496e-05 -5.85513e-05)
(4.1318e-05 8.35397e-05 -9.91166e-05)
(4.39705e-05 6.36009e-05 -2.97187e-06)
(4.37814e-05 2.96025e-05 -8.01885e-05)
(4.71118e-05 -3.70775e-05 -1.81594e-05)
(4.64685e-05 9.22893e-06 -1.27349e-05)
(5.25414e-05 9.6843e-05 6.31002e-05)
(5.43371e-05 0.000185494 0.000141151)
(5.60773e-05 0.000177707 2.6203e-05)
(5.7089e-05 0.000157474 2.17445e-05)
(6.1012e-05 3.66094e-05 -7.37168e-05)
(6.54542e-05 0.00010928 -5.61587e-05)
(6.74442e-05 7.18077e-05 -1.96933e-05)
(6.89274e-05 7.8039e-05 -9.03102e-05)
(7.20254e-05 0.000154263 -8.74775e-05)
(7.30262e-05 0.000268008 7.79075e-06)
(7.40151e-05 0.000300905 2.20315e-05)
(7.7604e-05 0.000274396 4.39138e-05)
(7.80384e-05 0.000307068 8.34206e-05)
(7.93583e-05 0.000373926 0.000105262)
(8.07839e-05 0.000276744 9.08509e-05)
(8.20638e-05 0.000285748 9.29808e-05)
(8.40128e-05 0.000246024 0.00019623)
(8.99761e-05 0.000128915 0.000172662)
(9.15229e-05 -9.18064e-06 9.22612e-05)
(9.16889e-05 -5.15718e-05 3.32323e-05)
(9.36299e-05 -1.59357e-05 6.48866e-05)
(9.5556e-05 7.88717e-05 -2.27073e-05)
(9.73578e-05 5.75787e-05 -9.51436e-05)
(9.86119e-05 4.92931e-05 -0.000102136)
(0.000102045 -1.05045e-05 -0.000154312)
(0.000104125 -4.47192e-05 -0.000188238)
(0.000105158 -6.80495e-05 -0.00014614)
(0.000108743 -0.000153266 -0.000110932)
(0.00011139 -0.00017231 -0.00012418)
(0.00011511 -0.00012735 -9.65322e-05)
(0.000118383 -0.00013747 -9.63997e-05)
(0.000122816 -0.000110559 -0.000101002)
(0.000126482 -7.82607e-05 -9.07951e-05)
(0.000128469 -6.1504e-05 -0.000152965)
(0.000129033 -0.000120329 -0.00012632)
(0.000133304 -0.000157828 -0.000104708)
(0.000131915 -9.93084e-05 -0.000158119)
(0.000135062 -0.000118107 -0.000157758)
(0.000139167 -0.000177227 -0.00016721)
(0.000142055 -0.000179073 -9.39528e-05)
(0.000144577 -0.000193182 -3.79283e-05)
(0.000148485 -0.000171097 -7.18226e-05)
(0.000152151 -0.000166766 -0.000146358)
(0.000155935 6.98932e-06 -0.0001255)
(0.000155159 -0.000125328 -3.0986e-05)
(0.000158075 -0.000138342 -3.42061e-05)
(0.000158566 -0.000143585 1.18401e-05)
(0.000164721 -0.000102521 8.16508e-05)
(0.000168737 -0.000131878 0.000139668)
(0.000170545 -0.000271991 0.000127177)
(0.000174541 -0.000282427 0.000196744)
(0.000178368 -0.000250409 0.000157787)
(0.000182697 -0.000121807 0.000177908)
(0.000188106 -5.93969e-05 0.000147704)
(0.00019281 -1.44926e-05 0.000226291)
(0.000199181 1.79818e-05 0.000101997)
(0.000202831 -2.51239e-05 0.00012965)
(0.000207924 6.57557e-05 9.64074e-05)
(0.000209907 9.65593e-05 0.000130822)
(0.000217926 8.03412e-05 0.00017178)
(0.000224017 2.49695e-05 0.000235382)
(0.000231185 4.76595e-05 0.000235003)
(0.000235547 2.58737e-05 0.000172976)
(0.000239458 0.000130837 0.000151079)
(0.000245379 0.000162654 0.000159269)
(0.000252524 0.000120574 6.22802e-05)
(0.000261354 0.000169702 0.000102311)
(0.000267086 0.000157525 2.06375e-05)
(0.000273622 0.000149514 -3.15402e-06)
(0.000278948 0.000221376 -2.12809e-05)
(0.000284849 0.000219507 -8.44583e-05)
(0.000294184 0.000159985 -0.000109718)
(0.000299426 0.000188251 -7.64236e-05)
(0.000305038 0.00014302 -0.000170269)
(0.000311081 5.77089e-05 -0.000326232)
(0.000315511 6.41792e-06 -0.000303799)
(0.000325253 -6.51434e-07 -0.000239438)
(0.000332755 5.7246e-05 -0.000282982)
(0.000340289 8.91204e-05 -0.000144816)
(0.000348402 1.49873e-05 -7.87579e-05)
(0.000353032 -7.63942e-05 -9.08765e-05)
(0.000360794 -6.6378e-05 -9.65793e-05)
(0.000365082 -9.45986e-05 -1.06224e-06)
(0.000372734 -0.000100016 3.60758e-05)
(0.000379033 -0.000165367 4.00382e-05)
(0.000382231 -0.000152906 5.39043e-06)
(0.000389337 -3.21492e-05 0.000124579)
(0.000397323 1.76244e-07 0.00013721)
(0.000408641 -3.64737e-05 0.000111037)
(0.000416377 -4.45471e-05 9.68101e-05)
(0.000424586 4.40935e-06 1.56058e-05)
(0.000431871 2.65506e-06 3.74245e-05)
(0.000438661 -3.3324e-05 7.30863e-06)
(0.000443005 1.21212e-05 -5.21676e-05)
(0.000450605 5.33632e-05 -0.000190194)
(0.000464491 7.3589e-06 -7.50509e-05)
(0.000469108 2.07096e-05 -7.02203e-05)
(0.00047651 0.000102536 -8.52511e-05)
(0.000482913 9.39455e-05 -0.000113111)
(0.000490222 0.00010525 1.51806e-05)
(0.000496597 0.000105592 -9.31252e-05)
(0.000501305 4.96083e-05 -3.49208e-05)
(0.000510795 -3.8265e-05 -6.49844e-05)
(0.000521572 -0.000106963 -6.71077e-05)
(0.000527297 -7.80086e-05 -8.26915e-05)
(0.000534679 -0.000214536 -7.90861e-05)
(0.000541014 -0.00015336 7.01319e-06)
(0.000549447 -0.000173504 1.4206e-05)
(0.000557178 -0.000181015 -2.16881e-05)
(0.000565768 -0.000130763 -2.73771e-05)
(0.000572467 -0.000117526 8.07493e-05)
(0.000581174 -8.1599e-05 2.44686e-05)
(0.000588383 -1.5342e-06 1.27516e-06)
(0.000597484 1.49956e-05 3.29394e-05)
(0.000606316 0.000102825 4.27049e-05)
(0.000615889 8.32838e-05 -3.40604e-05)
(0.000624342 6.06723e-05 -5.04903e-05)
(0.000634836 0.000109098 -9.87884e-05)
(0.000643527 0.000126475 -0.000106072)
(0.000653605 8.66095e-05 4.58676e-06)
(0.000664139 -2.29387e-05 -5.18344e-05)
(0.000673114 -3.66303e-05 1.16768e-06)
(0.000683466 -5.47047e-05 0.000118006)
(0.0006948 -2.91312e-05 0.000154746)
(0.000701574 4.63653e-05 8.39972e-05)
(0.000708696 8.52626e-05 2.95238e-05)
(0.000716135 3.61453e-05 1.04934e-05)
(0.000726954 2.69894e-07 -6.59433e-06)
(0.000737207 0.000124433 9.41159e-05)
(0.000746323 0.000135075 1.97563e-05)
(0.00075709 0.000148125 -1.57113e-06)
(0.000768144 5.07099e-05 1.90984e-05)
(0.000775882 6.79421e-05 9.31875e-05)
(0.000785532 4.70314e-05 7.39898e-05)
(0.000798367 -9.37419e-06 5.56028e-05)
(0.000806144 6.98908e-05 3.8981e-05)
(0.000818272 -4.06443e-06 -2.6914e-05)
(0.000826928 -1.58281e-05 -6.31805e-05)
(0.000838509 -1.8691e-05 2.70867e-05)
(0.000848474 3.99589e-06 2.43652e-05)
(0.000857675 2.12469e-05 -1.70893e-05)
(0.000869163 -5.97531e-05 5.27477e-05)
(0.000878666 -2.21434e-05 3.57414e-05)
(0.000888092 7.66992e-05 1.13361e-05)
(0.000901541 8.12645e-05 -8.0097e-06)
(0.000912867 0.000100303 6.40466e-06)
(0.000924648 7.34614e-05 -1.35483e-05)
(0.000934702 0.000169577 8.0923e-05)
(0.000944073 -4.56488e-06 0.000111653)
(0.000954939 7.28766e-05 0.000191948)
(0.000964981 8.69436e-05 0.000120027)
(0.000976047 0.000106632 7.83434e-05)
(0.000987711 4.94433e-05 6.21208e-05)
(0.000997836 6.54866e-05 3.8266e-05)
(0.00100791 5.56727e-05 -1.47969e-05)
(0.00101788 8.92981e-06 -9.35617e-05)
(0.00102868 0.000110116 -2.10513e-05)
(0.00103911 0.000152149 -7.12582e-05)
(0.00105091 9.69637e-05 -8.33064e-05)
(0.00106111 4.20985e-05 -4.7896e-05)
(0.00107213 5.01924e-05 -6.25529e-05)
(0.00108395 1.18564e-05 -4.3623e-05)
(0.00109365 -3.59924e-05 -2.2192e-05)
(0.001102 1.46062e-05 -2.83961e-05)
(0.00111394 -4.11544e-05 -1.93811e-05)
(0.00112276 -0.000107258 -4.32912e-05)
(0.00113412 -5.60794e-05 4.21888e-07)
(0.00114028 -6.0949e-07 8.03254e-05)
(0.00114971 -0.000112094 -4.94584e-05)
(0.00116065 -9.77044e-05 -4.01566e-05)
(0.00116763 -2.34294e-05 -1.14815e-05)
(0.00117758 5.27544e-05 -5.53107e-05)
(0.00118862 3.476e-05 -1.56452e-05)
(0.00119813 -1.33727e-05 -6.04546e-05)
(0.00120791 8.63209e-06 -6.30008e-05)
(0.00121796 -3.20828e-05 -7.96441e-05)
(0.00122779 -5.11666e-05 -9.35536e-05)
(0.00123745 -3.53988e-05 -0.00014657)
(0.00124849 -6.78576e-05 -9.98112e-05)
(0.00125355 2.42557e-05 -0.000105856)
(0.00126355 -7.43961e-06 -8.48205e-05)
(0.00127677 6.30892e-05 -6.65055e-05)
(0.00128721 2.00393e-05 -2.96754e-05)
(0.00129677 -9.37299e-06 -0.000128817)
(0.00130623 2.75303e-05 -3.89004e-05)
(0.00131696 2.88036e-05 -5.64453e-05)
(0.00132943 6.65467e-05 3.59375e-05)
(0.00133894 3.48049e-05 -8.91289e-06)
(0.00134956 6.45941e-05 -7.30611e-05)
(0.00135596 3.70897e-05 -0.000126329)
(0.00136472 4.48614e-05 -8.79197e-05)
(0.00137638 3.87339e-05 1.89473e-05)
(0.00138647 0.000115025 -3.58018e-05)
(0.00139522 5.09029e-05 -3.06205e-05)
(0.001404 -3.65427e-05 -0.000108869)
(0.00141752 -4.258e-05 -0.000109473)
(0.00143092 -2.10673e-05 -9.3469e-05)
(0.00144066 -6.61046e-06 -8.21131e-05)
(0.00145358 6.86057e-05 -4.98097e-05)
(0.00146552 5.74668e-06 -1.27582e-05)
(0.00147615 -6.25709e-05 -4.99274e-05)
(0.00148576 -3.76556e-05 -1.99e-05)
(0.00149666 -3.57088e-05 -2.84756e-05)
(0.00150602 -6.92864e-05 -4.48042e-05)
(0.00151511 -7.38296e-05 -4.40073e-05)
(0.0015286 -2.86363e-05 -8.04941e-05)
(0.00153666 -4.14995e-05 -6.90596e-05)
(0.00154909 1.57404e-05 -7.90743e-05)
(0.00155906 -5.81018e-05 -4.60207e-05)
(0.00157073 -3.24408e-05 -9.74059e-05)
(0.00158087 -1.46829e-05 -0.000102885)
(0.00159327 -8.49786e-05 -0.000106383)
(0.00160584 -6.38091e-05 -3.22031e-05)
(0.00161548 -0.0001096 4.69438e-05)
(0.001626 -0.000137956 6.0651e-05)
(0.00163712 -0.000123985 7.51319e-05)
(0.00164728 -0.000161093 3.73751e-06)
(0.00165575 -9.70169e-05 -2.43776e-05)
(0.00166861 -5.85427e-05 6.25214e-05)
(0.00167864 -7.62996e-05 5.5813e-05)
(0.00168822 -6.46011e-05 3.86452e-05)
(0.00169716 -3.10775e-05 4.64307e-05)
(0.00170666 1.7914e-06 4.72098e-05)
(0.00171826 9.6511e-06 -5.00954e-06)
(0.00172782 -2.80932e-05 -3.63638e-05)
(0.00174044 4.33108e-05 -3.18357e-05)
(0.0017486 2.89852e-05 2.75921e-05)
(0.0017575 1.18377e-05 -1.86321e-05)
(0.00177006 -2.83118e-05 -1.05659e-05)
(0.00178123 -8.56057e-05 -3.39327e-06)
(0.00179189 -4.60282e-05 6.07511e-06)
(0.00180283 -1.10207e-05 3.99416e-05)
(0.00181407 -3.49805e-05 -1.79935e-06)
(0.00182669 -1.38099e-05 -2.66823e-05)
(0.00183741 5.00582e-06 -1.79924e-05)
(0.00184656 -5.31391e-05 -2.92294e-06)
(0.00185662 3.02012e-05 1.12599e-05)
(0.00186833 1.97828e-05 -6.32365e-05)
(0.00187713 8.17916e-06 -2.74935e-05)
(0.00188628 -1.20214e-05 -6.32813e-05)
(0.00189794 -2.20207e-05 -2.66437e-05)
(0.00190643 -1.57328e-05 -2.30537e-05)
(0.00191556 -1.16732e-05 -3.76951e-06)
(0.00192779 -3.84532e-05 -1.79908e-06)
(0.00194264 -5.67841e-05 -5.58736e-05)
(0.00194346 -2.65337e-05 -4.82064e-05)
(0.00193432 -2.03362e-06 8.02821e-06)
(0.00192468 -2.37241e-05 -1.14068e-05)
(0.00191597 -5.32502e-05 2.1516e-05)
(0.00190901 6.90456e-06 4.0956e-06)
(0.00189916 -3.16696e-05 -2.76239e-06)
(0.00189123 -2.30317e-05 3.10765e-05)
(0.00188369 2.36684e-05 3.0805e-05)
(0.0018739 -1.10499e-06 1.87859e-05)
(0.00186219 4.19259e-05 3.75771e-05)
(0.00185565 1.15535e-05 -1.51309e-05)
(0.00184362 -2.75795e-05 2.97294e-05)
(0.00183827 -3.67172e-05 2.81482e-06)
(0.00182913 -3.53552e-05 2.9776e-05)
(0.00182028 -7.01954e-05 3.43121e-05)
(0.00181039 -2.03448e-05 3.12934e-05)
(0.0018009 -1.01566e-05 2.98008e-05)
(0.0017887 -3.55638e-05 8.70506e-07)
(0.00178082 -5.8349e-05 -2.99062e-05)
(0.00177266 -3.30803e-05 1.40055e-06)
(0.00176165 -4.72837e-05 1.78071e-05)
(0.00175436 9.90221e-06 3.47524e-05)
(0.00174639 -1.84734e-05 1.15164e-05)
(0.00173653 1.44985e-05 4.70962e-05)
(0.00172962 -2.15256e-05 -7.36953e-07)
(0.00172233 -4.04058e-05 -1.30902e-05)
(0.00171093 -6.22578e-05 1.34283e-05)
(0.0017043 9.35102e-06 2.34149e-05)
(0.00169284 4.09362e-05 1.83141e-05)
(0.00168436 -4.83913e-05 2.34483e-05)
(0.0016727 -3.58037e-05 9.76559e-06)
(0.00166239 -3.56771e-05 1.99305e-05)
(0.00165308 6.5929e-06 1.93371e-05)
(0.00164365 3.75496e-05 -1.03525e-05)
(0.00163318 -1.37333e-05 -4.90746e-05)
(0.00162095 -6.88425e-05 -3.07834e-05)
(0.00161031 -7.47482e-05 1.58406e-05)
(0.00159975 -1.41886e-05 7.36324e-06)
(0.00159044 -3.7317e-05 4.99698e-05)
(0.00158037 -2.26106e-05 1.8337e-05)
(0.00157351 -4.36913e-05 1.06572e-05)
(0.00156355 -3.92047e-05 4.94923e-06)
(0.00155543 -2.8226e-05 3.94783e-05)
(0.00154474 4.57483e-06 5.19831e-05)
(0.00153626 -5.13681e-05 2.79464e-05)
(0.00152804 -2.37235e-05 4.66093e-05)
(0.00151982 -2.49681e-05 3.98326e-05)
(0.00151116 -6.2097e-05 7.79275e-05)
(0.00150115 -6.03469e-05 9.38617e-05)
(0.00148996 -7.83959e-06 7.86993e-05)
(0.00147647 2.08856e-05 5.62728e-05)
(0.00146626 -4.72887e-06 8.44993e-05)
(0.00145709 1.62842e-05 8.22658e-05)
(0.00144882 9.97518e-06 9.06733e-05)
(0.00143699 6.97586e-05 4.60841e-05)
(0.001427 2.1212e-05 3.84111e-05)
(0.00141787 -1.02421e-05 9.9941e-06)
(0.00140962 -6.29017e-05 2.58181e-05)
(0.00139875 -2.34834e-05 3.17597e-05)
(0.0013893 2.59875e-05 3.79447e-05)
(0.00138077 4.28284e-05 3.65528e-05)
(0.00137038 5.77696e-05 3.24166e-05)
(0.00136035 5.04829e-05 4.35631e-05)
(0.00135108 1.63382e-05 3.32124e-05)
(0.00134274 -9.03709e-06 2.92116e-05)
(0.00133342 -3.28586e-05 7.07134e-06)
(0.00132212 -4.50796e-05 3.21445e-05)
(0.00131071 2.38751e-05 4.45694e-05)
(0.0012992 7.11348e-07 6.13955e-06)
(0.00128911 -6.77781e-05 4.2152e-05)
(0.00127931 -1.23314e-05 8.4313e-05)
(0.00126909 4.42333e-05 3.71385e-05)
(0.00125876 1.62086e-05 9.0881e-06)
(0.00124959 -5.76436e-06 1.01945e-05)
(0.00123835 2.06968e-05 8.77178e-06)
(0.0012274 -2.40057e-05 1.79352e-05)
(0.00121774 -5.1928e-05 2.13325e-05)
(0.00121119 -2.59243e-05 -2.1706e-05)
(0.001203 2.16513e-05 -2.20069e-07)
(0.00119261 2.58935e-05 1.57419e-05)
(0.00118426 2.12841e-05 5.61038e-06)
(0.00117539 2.31255e-05 2.5151e-05)
(0.00116862 2.79021e-05 6.89947e-05)
(0.00116038 3.08209e-05 8.24042e-05)
(0.00115279 2.38551e-05 6.45652e-05)
(0.00114591 2.43625e-05 7.13545e-05)
(0.00113803 -1.43573e-05 5.17098e-05)
(0.00112709 -2.70271e-05 4.71241e-05)
(0.00112194 1.71542e-05 4.81626e-05)
(0.00111283 -1.4856e-05 4.40213e-05)
(0.00110355 -2.77969e-05 -3.93543e-05)
(0.00109727 -2.47811e-05 -3.70478e-05)
(0.00108891 1.0624e-05 -2.46661e-05)
(0.0010784 -2.30299e-05 2.78561e-05)
(0.00107156 -1.55219e-05 3.44372e-05)
(0.00106281 3.68738e-05 1.62182e-05)
(0.0010525 4.35867e-05 5.00276e-06)
(0.00104425 2.95666e-05 4.24598e-05)
(0.00103901 3.77664e-05 1.79108e-05)
(0.00102919 -1.68319e-05 8.73886e-06)
(0.00102095 -4.42245e-05 -9.22185e-06)
(0.00101126 3.0288e-05 -2.84467e-05)
(0.00100345 -1.85966e-05 -3.87924e-05)
(0.000996467 -3.14443e-05 -3.74157e-05)
(0.000988768 -2.07949e-05 -3.97837e-05)
(0.000982093 1.99497e-05 2.50677e-05)
(0.000973494 2.60816e-05 -3.29879e-06)
(0.000966512 -3.31401e-06 -9.4895e-05)
(0.000959116 1.75046e-07 -6.60946e-05)
(0.000953245 -6.38368e-06 -5.45623e-05)
(0.000944298 -3.45103e-05 -5.56371e-05)
(0.000936298 -1.68372e-05 -2.75326e-05)
(0.000927561 1.97953e-05 -2.22393e-05)
(0.000921544 5.57121e-05 -1.21204e-05)
(0.000915764 7.72675e-05 -1.11368e-05)
(0.000907558 7.23498e-05 -3.45706e-05)
(0.00090204 8.07641e-06 -4.04565e-05)
(0.000896043 2.44178e-05 -3.40632e-05)
(0.000890788 5.59676e-05 1.82519e-05)
(0.000882751 2.23839e-05 6.31679e-06)
(0.000877298 8.59841e-05 9.54645e-06)
(0.000872834 5.2126e-05 -1.23226e-05)
(0.000867868 2.7518e-05 -1.14406e-05)
(0.000862924 2.03827e-05 -9.33179e-06)
(0.000859985 2.1763e-05 -2.32109e-05)
(0.000856537 3.11366e-06 -1.06688e-05)
(0.000852152 2.20482e-05 -6.59708e-05)
(0.000846423 3.10751e-05 -1.27741e-05)
(0.000838684 -8.64008e-06 2.00149e-05)
(0.000832883 -5.26272e-05 -2.87358e-05)
(0.000826944 -2.46984e-06 -3.57995e-05)
(0.0008215 -2.23007e-05 8.56114e-06)
(0.000817777 -1.02729e-05 7.82483e-06)
(0.000813181 8.03534e-05 1.16241e-05)
(0.000808659 5.34471e-05 5.27e-05)
(0.000804134 1.54364e-05 4.22408e-05)
(0.000798841 3.08948e-05 7.16647e-05)
(0.000793862 2.82015e-05 -2.41232e-05)
(0.000787136 4.50721e-05 -2.8177e-05)
(0.000784266 2.81581e-05 1.85567e-06)
(0.00078018 7.18558e-05 -2.1347e-05)
(0.000775374 4.17473e-05 1.29832e-05)
(0.000770282 3.50841e-05 6.1246e-06)
(0.000766383 -1.38405e-05 6.08267e-06)
(0.000759625 -1.2856e-05 7.41945e-06)
(0.000753488 -1.3547e-05 3.41423e-05)
(0.000747052 -1.07849e-05 5.5679e-05)
(0.000740931 -2.87808e-06 4.77866e-05)
(0.000736818 3.22315e-05 1.62545e-05)
(0.000732682 4.30079e-05 9.5443e-05)
(0.000728422 9.00422e-06 4.69979e-05)
(0.000723969 1.66981e-05 5.99294e-06)
(0.000719547 6.22886e-05 4.21812e-05)
(0.000715047 -1.33778e-05 2.25945e-05)
(0.000712852 -5.24881e-05 -2.77512e-05)
(0.000710377 -4.03233e-05 -6.07926e-05)
(0.00070685 1.75242e-06 -5.30735e-05)
(0.000703993 -2.46177e-05 -4.66082e-05)
(0.000700901 -4.18715e-05 -3.25094e-06)
(0.000697744 -4.82424e-05 -5.28466e-05)
(0.000694934 -6.93651e-05 -2.86052e-05)
(0.000691062 -0.000117379 -8.13823e-07)
(0.000684976 -0.000142502 3.52265e-05)
(0.000680701 -0.000105987 3.17885e-05)
(0.000676241 -9.88447e-05 1.59406e-05)
(0.000671072 -5.85212e-05 -3.60609e-05)
(0.000663494 -7.49036e-05 -1.87133e-05)
(0.000660024 -5.15144e-05 -1.04561e-05)
(0.000655046 -7.44128e-05 -1.01541e-05)
(0.000650358 -2.74971e-05 -2.51994e-06)
(0.000646907 -4.08786e-05 1.17482e-05)
(0.000641862 -4.87727e-05 5.40794e-05)
(0.000635795 -7.33372e-05 1.56325e-05)
(0.000630398 -8.53204e-05 8.09201e-06)
(0.000625692 -7.10469e-05 1.30347e-05)
(0.000623541 -4.75147e-05 1.42034e-05)
(0.000620468 -6.27356e-05 3.36881e-05)
(0.000618333 -6.58331e-05 6.65334e-05)
(0.000613184 -6.62235e-05 8.47545e-05)
(0.000611934 -8.14277e-05 7.68561e-05)
(0.000608001 -5.69715e-05 9.39379e-05)
(0.000605327 -1.70885e-05 7.40333e-05)
(0.000603166 -4.93582e-05 0.000124241)
(0.000598736 -3.23199e-05 9.9055e-05)
(0.000595995 -3.12482e-05 8.09556e-05)
(0.000591131 -3.12606e-05 7.97653e-05)
(0.000585025 -7.02296e-05 6.5531e-05)
(0.000580704 -2.39549e-05 2.95696e-05)
(0.000576361 -1.91231e-05 2.16338e-05)
(0.000572899 -4.07364e-05 8.18912e-06)
(0.000569041 -2.31922e-05 1.58392e-05)
(0.000564977 1.30743e-06 -1.28057e-06)
(0.000559506 -6.78672e-05 5.33943e-05)
(0.000553312 -4.47071e-05 6.33736e-05)
(0.000548965 -8.16738e-05 1.7976e-05)
(0.000544784 -5.13025e-05 2.49367e-05)
(0.000539217 -8.38322e-05 -2.5918e-06)
(0.000535696 -5.41938e-05 -4.03867e-05)
(0.000530324 -4.88597e-05 -3.61875e-05)
(0.000527719 -3.27821e-05 -4.37102e-05)
(0.000524456 -1.945e-05 -4.5068e-05)
(0.000520666 -8.76681e-06 -2.9878e-05)
(0.000515333 1.37631e-05 -4.92291e-05)
(0.000512066 6.25878e-06 -4.82697e-05)
(0.000507493 6.24399e-06 -6.32623e-05)
(0.000503121 -2.71145e-05 -7.16176e-05)
(0.000496832 -4.80795e-05 -6.18459e-06)
(0.000494513 -4.24306e-05 -3.71383e-05)
(0.000490186 -6.08434e-05 -3.8038e-05)
(0.000482093 -6.09396e-05 -2.55793e-05)
(0.000476399 -5.63775e-05 -7.43312e-06)
(0.000471617 -2.21818e-05 -3.88074e-06)
(0.000464554 -1.13496e-05 2.03173e-05)
(0.000458509 -6.45255e-06 4.7217e-06)
(0.000454337 -5.71227e-05 -2.72122e-06)
(0.000452191 -2.69543e-05 6.45318e-05)
(0.000447793 -1.88971e-05 6.78079e-05)
(0.000443588 2.18656e-05 7.25297e-05)
(0.000440666 5.1396e-05 4.69296e-05)
(0.000435896 4.80234e-05 7.73148e-05)
(0.000431167 5.47558e-05 8.22677e-05)
(0.000428388 7.60457e-05 4.53197e-05)
(0.000425547 9.94008e-05 7.3558e-05)
(0.000423483 0.000103844 6.42338e-05)
(0.000420802 6.96202e-05 8.55482e-05)
(0.000416709 6.51424e-05 4.73338e-05)
(0.000411664 7.17173e-05 2.64256e-05)
(0.000407754 5.91956e-05 3.53786e-05)
(0.000404863 -5.17063e-06 3.69761e-05)
(0.000399359 1.02518e-05 7.51173e-05)
(0.000396115 -3.84472e-05 0.000105524)
(0.000391742 -4.62977e-05 0.000109234)
(0.000387315 -3.94275e-05 4.69376e-05)
(0.000381068 -0.000107307 5.00757e-05)
(0.000375665 -7.59016e-05 4.70476e-05)
(0.000371418 -8.26811e-05 3.73467e-05)
(0.000367267 -6.19797e-05 6.98661e-05)
(0.000364803 -4.17202e-05 2.51836e-05)
(0.000360683 -8.62866e-05 7.84116e-05)
(0.000357337 -5.07606e-05 3.95917e-05)
(0.000352028 -2.47866e-05 6.11811e-05)
(0.000347128 -2.31922e-05 0.0001088)
(0.000341109 9.42462e-06 7.17117e-05)
(0.000337987 -5.95544e-05 2.83991e-05)
(0.000334915 -5.6619e-05 6.99907e-05)
(0.00033089 1.47661e-06 5.43438e-05)
(0.000327635 -3.51065e-05 5.64609e-05)
(0.000322993 -7.30852e-05 2.70225e-05)
(0.000318055 -6.47393e-05 -2.50079e-06)
(0.000315188 -5.34764e-05 -6.20875e-06)
(0.000312692 -3.69761e-05 -5.65754e-05)
(0.000308117 -5.18321e-05 -6.15894e-05)
(0.000304789 -3.16067e-05 -0.000102484)
(0.000301956 -4.13168e-05 -6.62139e-05)
(0.000299265 3.4857e-05 -5.20283e-05)
(0.000297252 4.33976e-05 -2.9715e-05)