/*--------------------------------*- C++ -*----------------------------------*\
  =========                 |
  \\      /  F ield         | OpenFOAM: The Open Source CFD Toolbox
   \\    /   O peration     | Website:  https://openfoam.org
    \\  /    A nd           | Version:  7
     \\/     M anipulation  |
\*---------------------------------------------------------------------------*/
FoamFile
{
    version     2.0;
    format      ascii;
    class       volVectorField;
    location    "0.007";
    object      momentum;
}
// * * * * * * * * * * * * * * * * * * * * * * * * * * * * * * * * * * * * * //

dimensions      [1 -2 -1 0 0 0 0];

internalField   nonuniform List<vector> 
500
(
(-0.00514295 0.000311182 0.000185895)
(-0.00424536 0.000459718 -0.000535555)
(-0.00431047 -8.71463e-05 -0.000102294)
(-0.00452634 -0.000168697 8.50885e-06)
(-0.00499789 -0.000151559 -0.000338771)
(-0.00507552 0.000191089 0.000496587)
(-0.00437246 0.000302674 0.000235133)
(-0.00440065 0.000602192 -6.68646e-05)
(-0.00450673 -0.000120261 -0.000128522)
(-0.00462578 0.000176314 -0.000398156)
(-0.00457209 0.000168814 -0.000564079)
(-0.00453723 -2.16846e-05 -0.000504422)
(-0.00508361 -0.00042491 -9.28546e-05)
(-0.00444144 -0.000362757 -0.000261974)
(-0.00454266 -3.57877e-05 0.000171486)
(-0.00448126 1.34565e-05 -0.000105243)
(-0.00464769 -5.88677e-05 -0.000402062)
(-0.00475698 -0.000349804 0.000130169)
(-0.00537236 0.000147279 -0.000183565)
(-0.00486715 -2.39645e-05 -0.000148781)
(-0.00478917 0.00048997 -5.34697e-05)
(-0.00437555 3.588e-05 -0.000303976)
(-0.00472793 -4.53142e-05 -0.000101594)
(-0.00436735 0.000418697 2.18239e-05)
(-0.00443224 0.0001169 -0.000300456)
(-0.00407608 -3.94763e-05 0.000338896)
(-0.00405389 0.000396047 -0.000208684)
(-0.0041415 -7.76545e-06 0.000271998)
(-0.00467165 7.87448e-05 -4.77296e-05)
(-0.00493682 4.62361e-05 -0.000295098)
(-0.00413564 -0.000430309 6.726e-05)
(-0.00516507 0.000315639 0.000325233)
(-0.00415396 0.000570111 0.000150105)
(-0.00551746 0.000590956 -0.000447033)
(-0.00475729 0.00056072 -0.000219703)
(-0.00399139 -0.000259527 4.44575e-05)
(-0.00461657 0.000369079 -0.000264446)
(-0.0045613 0.000128066 0.000220929)
(-0.004066 -0.000253536 -0.000297149)
(-0.00428446 -0.000257359 0.000326976)
(-0.00469404 0.000336298 -0.000143109)
(-0.00352051 2.87553e-05 -1.45645e-05)
(-0.00408346 0.000428942 0.000121113)
(-0.00446917 -6.11089e-05 0.000319525)
(-0.00404501 -0.000360835 -0.000562197)
(-0.00464469 -0.000133304 0.000428092)
(-0.00421713 -0.000659029 3.01726e-05)
(-0.00356403 0.00051841 0.000375793)
(-0.00457669 0.000107959 0.000245863)
(-0.00444653 0.000275254 -0.000180974)
(-0.00343495 0.000218676 -0.000326)
(-0.00384316 0.000173842 -0.000104524)
(-0.00400509 0.000159484 -0.000363103)
(-0.00418419 -8.0773e-05 0.000141064)
(-0.00456659 -0.000835662 -0.000294715)
(-0.00376614 -0.000196961 -0.000772141)
(-0.00385485 -0.000173976 0.000234474)
(-0.00412192 0.000446598 0.000338743)
(-0.00319381 -0.000431522 -0.000427472)
(-0.0040514 -0.00017169 -0.000215334)
(-0.00392026 -0.000239851 0.000395188)
(-0.0041752 0.000520273 0.000779396)
(-0.0034931 0.000226246 -0.000166105)
(-0.00394097 -0.000233033 0.000106781)
(-0.00415319 0.000557333 -0.000120094)
(-0.00300862 -0.000102752 5.6504e-05)
(-0.00361374 0.000279452 -0.000309896)
(-0.00425867 5.45877e-05 0.000215013)
(-0.00345717 0.000313186 0.000256865)
(-0.00404466 -2.70701e-05 0.000190054)
(-0.00429971 -3.93215e-05 3.552e-05)
(-0.00414833 0.000368798 0.00021736)
(-0.0029234 -0.000485745 -0.000368385)
(-0.0030199 -2.45284e-05 0.000122194)
(-0.00297535 0.000293407 0.000189455)
(-0.00358236 -0.00032014 -0.000270922)
(-0.00346941 -0.000309338 -0.000727104)
(-0.00320532 -8.88035e-05 0.000186429)
(-0.00345298 0.000516124 0.000449559)
(-0.00295803 -0.000309649 -0.000684014)
(-0.00346337 -2.58314e-05 -3.74717e-05)
(-0.00270687 -0.000971685 0.000503507)
(-0.0032589 0.000114641 -6.66342e-06)
(-0.0024506 -0.000132735 -1.32325e-05)
(-0.00336147 0.000542022 6.90196e-05)
(-0.0030359 0.000747686 0.000191614)
(-0.00312717 0.000577256 0.000195667)
(-0.00276815 -3.49481e-05 -0.000280401)
(-0.00295084 -0.000970404 -0.000194041)
(-0.00319871 -0.000130303 0.000127545)
(-0.00267629 -2.86956e-05 5.97153e-05)
(-0.0028676 -0.000680051 0.00051935)
(-0.00324757 -4.9679e-05 0.000478917)
(-0.00224769 -0.00019576 -0.000423931)
(-0.00323668 0.000422826 1.47296e-05)
(-0.00183401 -0.000365273 0.000509276)
(-0.00275364 3.88181e-05 0.000216264)
(-0.0026377 -4.74284e-05 0.000450445)
(-0.0026837 -0.000133671 -0.000219381)
(-0.0020973 -0.00039127 0.000191727)
(-0.00242541 -0.000365546 -0.00014397)
(-0.00236321 0.00041105 -0.000363681)
(-0.00229003 4.34152e-05 -0.000307214)
(-0.00252535 -0.000124058 0.000485746)
(-0.0026901 -0.000792701 -0.000228842)
(-0.00215458 0.000664583 0.000136195)
(-0.00162886 -3.55069e-06 0.000253339)
(-0.0018379 0.00043032 0.000830971)
(-0.00207334 -0.000531129 -0.000315247)
(-0.00132278 0.000959686 -0.000748528)
(-0.00188872 -0.000147912 0.000275323)
(-0.00141589 -8.28648e-05 -0.000330603)
(-0.00133944 -0.000246852 0.000521884)
(-0.00102538 0.000263621 -0.000593621)
(-0.00170601 -0.000568891 1.42325e-05)
(-0.00190255 0.000209964 0.000191627)
(-0.00129834 0.00031717 -0.000307859)
(-0.00105247 0.000191908 -4.66907e-05)
(-0.00144243 -0.00113708 0.000348411)
(-0.000557604 0.00038201 0.000140757)
(-0.000100846 0.000219906 -4.46331e-05)
(-0.000979465 0.00110136 -3.09495e-05)
(-0.000303384 7.8166e-05 -0.000486337)
(-0.000722979 -3.85958e-05 0.000150538)
(-0.00118484 -0.000226969 5.49821e-05)
(-0.000190115 0.000195824 0.000235875)
(-0.00124637 -0.000492067 -0.000277494)
(-0.000867865 -0.000117393 -0.000944225)
(-0.000957464 4.82001e-05 -0.000308892)
(4.29939e-05 -0.000868688 0.000108385)
(-0.00097298 0.000606731 0.000189281)
(-0.000479478 0.000480738 0.000615451)
(0.000529041 0.000439329 -0.000187988)
(-0.000336493 -0.000838585 -0.000141621)
(-0.000267454 -0.000356799 0.000207402)
(0.000180018 -2.04032e-05 -3.92094e-05)
(5.82651e-05 0.000357455 -0.000430153)
(0.00105175 0.000284045 9.36052e-05)
(-0.000306711 0.000127832 -0.000804464)
(-0.000663318 0.000953481 0.000528783)
(-0.000842883 -0.000304954 0.000385718)
(2.61206e-05 -0.000295891 -0.000467633)
(0.000582526 -0.000278819 0.000598945)
(0.000816873 -0.000256686 0.000632412)
(-0.000151319 -0.00106877 -0.000288977)
(-0.000647685 0.00156565 -0.000536395)
(0.000413965 -0.000321127 -0.000394773)
(-0.000472959 4.7929e-05 0.000107315)
(-0.000337463 0.000236007 0.00010234)
(-0.000627527 0.000295812 0.00154044)
(-0.000627324 -0.00060362 -0.000561395)
(0.000484823 -0.000633995 -0.000200525)
(-0.000826184 -0.000186118 0.000410158)
(-0.000168846 -8.22594e-05 -9.53137e-05)
(-0.00133967 0.000159185 0.000276351)
(0.00026516 -0.000691374 0.000344193)
(-0.000270642 -0.000710147 -0.00149825)
(0.000653228 0.000362524 -0.00111163)
(-0.000586507 0.000172006 0.000215513)
(0.000593057 1.57037e-05 -0.000864883)
(0.000262147 -0.000686628 -6.70653e-05)
(-0.000396474 -0.000484573 0.000218929)
(8.12618e-06 -0.000599921 -8.78931e-05)
(0.0006287 0.00019572 0.000296519)
(-0.000346508 -0.000400665 -1.01346e-05)
(-0.000218262 -0.000990247 0.00056724)
(-0.00122371 -0.000299512 0.000121917)
(-0.00015103 0.000450555 -5.60585e-05)
(0.000897051 -0.000213611 -0.000418386)
(-0.000125138 0.000220996 0.00030377)
(0.000304205 -0.000179707 0.000721683)
(0.000196201 0.000303866 0.000467084)
(-0.000369962 -0.000494393 -0.000634605)
(0.000402465 -0.000275738 -0.000849302)
(0.000503074 -0.00119305 -0.000197974)
(0.000451577 -0.000188973 -0.00082104)
(-0.000394411 -0.00024217 0.000676299)
(-0.000811379 0.000255662 0.000520494)
(0.00106787 0.00034756 0.000566041)
(0.000420816 -0.00105795 0.000806747)
(0.00011646 -0.000605911 0.000846919)
(-1.33936e-05 0.000621382 -0.000135421)
(0.00028229 9.87793e-05 0.000118399)
(-3.84854e-05 -0.000501277 -0.000305611)
(-0.000438596 8.93365e-05 0.000553665)
(9.71043e-05 -0.000146966 -6.96941e-05)
(0.000233055 0.000479791 -0.000314418)
(-0.00120741 0.000250951 0.000115452)
(0.00014313 3.09686e-05 -0.000647968)
(0.000640608 0.000384979 -0.000729529)
(0.000320916 -0.000243932 -0.00026915)
(-0.000200657 -0.000515063 8.13513e-05)
(-5.78602e-05 0.000122326 9.04843e-05)
(-0.00072322 -0.000235145 -0.000612099)
(-9.58306e-05 -6.27992e-05 -0.000543616)
(-0.000330391 -0.000120915 5.67951e-05)
(0.000157455 -1.84976e-05 -0.00014885)
(-0.000451096 -1.71077e-05 0.000373629)
(0.000896909 0.000762825 -0.000206919)
(-0.000496963 -0.000543937 -0.00064857)
(0.00027771 0.00079385 -5.19412e-05)
(0.00061537 -5.09002e-05 -0.000147714)
(-4.80956e-05 0.000223305 -9.44065e-05)
(0.000258393 0.00067627 -0.000571147)
(0.000405467 -0.000740488 -0.000581035)
(-0.000362099 0.000353913 -0.00042302)
(0.000419601 0.000532479 0.000110449)
(-0.000352655 7.64389e-05 -0.00101357)
(0.000463781 0.000632231 0.000947265)
(-0.000455927 0.000105382 -0.000328989)
(0.000283544 -0.000292576 0.00012044)
(0.000514219 -0.000208192 0.00018282)
(7.16953e-05 6.66588e-05 -9.49642e-05)
(0.000221033 0.000128467 -0.000349565)
(0.000372657 0.000621058 -0.000392867)
(-0.000360849 -0.000278412 -0.000182466)
(0.000238331 0.000196427 -0.000279361)
(-0.000227245 0.000145271 -0.000169439)
(0.000126605 -6.67387e-06 -8.57534e-05)
(-0.000128262 0.00147136 0.000159317)
(-0.00017017 -0.00041432 0.000120432)
(-0.000150184 5.68255e-05 -0.000281478)
(-5.82964e-05 -0.000595347 -0.000314933)
(-0.000372932 -2.70679e-05 0.000302803)
(0.000375227 -0.000401954 -0.000777339)
(-0.000703439 -0.000585378 -0.000647549)
(-0.000132529 -0.000497543 0.000613546)
(0.000367769 -2.44682e-05 0.000545716)
(0.000123704 0.000403143 -0.000555051)
(0.000354766 -0.000368418 0.000387289)
(-0.000145748 -0.000140824 -0.0005179)
(0.000241497 -0.000150718 0.000755024)
(0.000202273 -0.000234206 -0.000202583)
(0.000462402 -0.000596506 0.000358264)
(6.03743e-05 -0.000313801 0.00101838)
(-6.17797e-05 -0.000584508 0.00024899)
(-0.000231435 -0.000343136 0.000142014)
(-0.000268921 0.000631493 -0.000435247)
(5.91223e-05 0.000221808 5.42093e-05)
(4.72492e-05 -5.92176e-05 -0.000188047)
(-0.000201327 0.000135694 -2.85452e-05)
(-0.000715672 0.00049117 -0.000577326)
(0.000304555 -0.000520244 -0.000203051)
(0.000514865 0.00132509 0.000563439)
(0.000295887 0.000463396 4.324e-05)
(-4.10518e-05 0.000258172 -3.47438e-05)
(-0.000334154 0.000851005 5.93376e-05)
(-0.000159859 -0.000414868 0.000901012)
(-0.000895562 0.000468074 0.000141016)
(0.000320176 0.000396374 -0.000261686)
(0.000480485 -0.000807336 0.000332803)
(-0.000269652 -0.000141368 -5.84274e-05)
(-0.000712818 0.00040631 -0.000272771)
(0.000754285 -0.0004651 -0.000275074)
(-0.000653437 0.000429731 -0.000482637)
(0.000683327 -0.000129606 0.000115147)
(0.000628618 0.000383898 2.66183e-05)
(0.000509892 0.000329561 0.000127048)
(0.000265302 0.000494447 -2.84088e-05)
(0.000631356 0.000527273 -0.000281867)
(-0.000881161 0.00113383 -8.44865e-06)
(-0.000145096 -0.000594405 0.00022598)
(-0.00035247 -0.000463985 -0.000618714)
(0.000273049 5.82048e-05 -0.000170065)
(0.000219973 -0.000105059 0.00140424)
(0.000177062 0.000789424 0.000737959)
(0.000435523 -0.000657682 0.00095878)
(0.000519734 -0.000536284 -4.62095e-05)
(-0.000126164 -6.32043e-05 -0.000292117)
(0.000811202 -0.000555651 0.000346248)
(-0.000141521 -0.000401692 -0.000257813)
(-2.0246e-05 -1.6031e-05 -0.000265688)
(0.000240865 -0.000452515 0.000103851)
(-6.2937e-05 0.000697239 -0.000768793)
(-6.55021e-05 -0.000510206 0.000116206)
(0.000561481 0.000107635 0.000680963)
(0.000106641 -9.69091e-05 -5.47978e-05)
(-0.000134668 7.7416e-05 -0.000334738)
(-0.000298664 0.000211415 -1.83886e-05)
(-0.000831794 0.000327025 -9.88897e-05)
(0.000273261 -0.000307639 -0.000436014)
(0.000868297 0.000655705 3.47685e-05)
(-0.0001548 -0.000364686 0.000216754)
(0.000974444 0.000741146 -0.000213042)
(0.000872981 0.000741575 0.000446792)
(-4.06296e-05 1.04648e-05 0.000371502)
(-0.000332321 0.000279724 -0.000516777)
(0.000462919 0.000353631 0.000199702)
(0.000276676 -0.000233535 0.000371627)
(0.000355465 7.53461e-05 -1.04014e-05)
(-0.000474173 -0.000488933 -0.000161244)
(-0.000251283 -0.000116152 0.000487397)
(0.000411126 -0.00013526 -1.89704e-05)
(-1.9044e-05 -0.000516009 0.000154344)
(-8.75115e-05 -0.000826424 -0.000232561)
(-0.000617697 -0.000120147 0.000246177)
(7.56022e-05 -0.00011692 0.00053546)
(0.000287967 -0.000194922 1.07689e-05)
(0.000809005 -0.00020553 -0.000220573)
(-9.86669e-05 0.000674758 -0.000650727)
(0.000677111 -0.000820378 -0.000663796)
(-0.000483811 -0.00023727 0.000162308)
(-0.000550903 -0.000332074 -0.000168824)
(0.000850654 -0.000729795 0.000326052)
(0.000582667 0.000398437 5.88157e-05)
(0.000107359 -0.000536686 -0.000456243)
(-0.00105005 -4.77008e-05 -0.000356962)
(0.000821388 9.86745e-05 0.000724809)
(-0.000558711 -0.000237906 -0.000363247)
(-0.000840298 0.00031452 -0.000535032)
(-0.000125586 -4.3905e-07 -0.000622704)
(-8.14934e-06 -0.000163341 0.000138368)
(-0.00037776 0.00019148 -0.000471296)
(-0.000176782 0.000253965 -0.000434381)
(-0.000434224 -2.98897e-06 -4.82812e-05)
(-0.000153667 0.00012392 0.000345602)
(-0.000276336 7.10982e-05 -0.000293696)
(-0.000368486 -0.000790218 -0.00037639)
(0.000863015 0.000479803 0.00052511)
(-0.000179913 -0.000319899 0.000157043)
(0.000455667 -4.83065e-05 0.000245112)
(0.000127327 0.000189277 -0.000657916)
(-0.000609837 0.000294173 0.000250868)
(0.000690836 -2.62151e-05 -0.000426119)
(-0.000608482 0.000414593 0.00053295)
(0.000193657 -0.000806634 -0.000381278)
(0.000440404 0.000555062 0.00023911)
(0.000455838 -0.00012369 -0.000165329)
(-0.000485895 -0.000575698 0.000200613)
(0.00100666 5.95616e-05 0.00041671)
(-7.50774e-05 -4.43986e-05 0.000254896)
(0.000351177 -0.000464893 -0.000126305)
(0.00017011 -0.000525605 0.000535024)
(0.000488114 0.0005066 0.000237372)
(0.000370523 0.000304945 8.93715e-05)
(-0.000734594 -0.000397042 -0.000557213)
(0.000248713 -0.000161207 0.00061155)
(-0.000261254 2.50663e-05 0.0002036)
(0.00012197 0.000210824 0.000825265)
(0.000742596 -0.000123663 0.0010993)
(-0.000724416 -0.000164253 -0.000489837)
(-0.000277358 -0.000916632 -0.000133219)
(0.000247001 -0.000300502 -0.000639945)
(5.80978e-06 -0.000140003 0.000252057)
(0.00041084 0.000567977 0.000484236)
(0.000266561 -9.14671e-05 -3.36745e-05)
(-0.000153995 -0.000461732 0.000923589)
(0.000262105 0.000411783 5.27351e-05)
(0.00043354 -0.000499372 0.000524864)
(-0.00110794 -0.000471171 0.000482647)
(0.000122919 4.78066e-05 -4.2806e-05)
(0.00032418 0.000316658 -0.000194704)
(-0.000238169 -0.000346038 0.00129905)
(7.67804e-05 -9.77619e-05 -0.000433218)
(5.76371e-05 -0.000678177 -0.000395799)
(-0.000437875 0.000212727 -0.000532621)
(-0.000396257 0.000391702 -0.000555458)
(4.2195e-05 2.31694e-05 0.00042511)
(-0.000305653 0.000632466 -7.55022e-05)
(0.000391446 -3.6809e-05 -6.98956e-05)
(0.000158519 0.00028256 0.00020088)
(0.000517641 0.000924247 2.51986e-05)
(0.000756235 0.000323888 -0.000777489)
(0.000840817 0.000536877 -0.000841763)
(0.000989454 0.000136354 0.000186698)
(0.000658135 0.000373482 0.000836845)
(0.000594573 9.43044e-05 0.000227929)
(0.000628824 0.000740442 0.000431445)
(6.9876e-05 0.000405795 -0.00046516)
(0.000306884 -0.000117847 9.44281e-05)
(0.0010085 -0.000397465 9.4547e-05)
(0.00067497 -0.000519038 9.96247e-05)
(0.00100825 -4.76294e-05 -0.000239496)
(0.00101451 -0.000244554 -0.000320796)
(0.000223578 -5.31009e-05 -0.000245115)
(0.0012223 0.000370916 2.20995e-05)
(-3.99701e-05 -0.000301809 0.000384367)
(0.00115148 0.000346703 0.00077198)
(0.000917437 -0.000132315 -0.00060452)
(2.90797e-05 -0.000237211 -4.86816e-05)
(0.00101115 0.000414258 0.000432437)
(0.000525628 0.000356244 -0.00103103)
(0.00121141 -0.000635098 -0.000166007)
(0.000486139 -0.000341605 -0.000120359)
(0.00138189 0.000750323 0.000476526)
(0.00194307 -0.000507756 0.000165019)
(0.000894259 -0.000314751 8.77377e-05)
(0.00201647 0.000251197 1.75027e-05)
(0.00168281 -0.000567659 0.000188655)
(0.00109486 -0.000448852 0.000454524)
(0.000982366 0.000371106 -0.000321957)
(0.00200116 -0.000568262 0.000524525)
(0.00169159 -3.23508e-05 0.000331504)
(0.00166617 -0.000582112 -0.000242265)
(0.00178796 -0.000541849 -0.000254366)
(0.00192693 0.000334404 0.000266395)
(0.00218915 0.000470259 0.000225301)
(0.00247056 -0.000202067 -0.000537647)
(0.00262489 -8.83023e-05 0.000473674)
(0.00232973 -0.000145464 4.12378e-05)
(0.00231392 0.000446872 0.000465355)
(0.00188285 8.59728e-05 -0.00028695)
(0.00218204 -0.000197321 0.000808499)
(0.00273841 -0.000158505 0.000522031)
(0.00209417 0.000102116 -0.000156324)
(0.00234972 -0.000223758 -0.000163141)
(0.00314793 0.000164227 0.000386059)
(0.00268252 0.00042117 -0.000174692)
(0.00287401 0.00015199 0.000247891)
(0.00302649 0.000548404 -0.00020998)
(0.00267279 0.00040834 3.70712e-05)
(0.00286811 -0.000390132 0.000744041)
(0.00282669 -3.77354e-05 -8.11346e-05)
(0.00324527 -0.000178551 -0.000142968)
(0.00198391 -3.58413e-06 0.000331624)
(0.00334866 -0.000345078 -0.000561968)
(0.00277037 8.85662e-05 -0.000121563)
(0.00330721 0.000193305 -0.000343365)
(0.00234474 0.000411835 -0.000411548)
(0.00238826 0.000169595 -9.12854e-05)
(0.00315586 0.000438063 -0.000314104)
(0.00393126 0.000190274 0.000385832)
(0.00377508 -0.000357424 0.000219278)
(0.00361562 0.000583392 -0.000314289)
(0.00322548 -0.000537362 0.000304292)
(0.00282616 -0.000388292 -0.000170217)
(0.00344952 -0.000157748 2.54664e-06)
(0.00352083 -8.28427e-05 8.69178e-05)
(0.00380755 5.58275e-05 0.000292378)
(0.00368724 1.72596e-05 -0.000265109)
(0.0036101 -0.000400275 -0.000629429)
(0.00371857 -0.000661749 -0.000194081)
(0.00296219 -0.000276299 0.000150053)
(0.00358726 0.000161256 -0.000252713)
(0.0029939 -0.000261185 0.000299204)
(0.00336794 -0.000628865 -0.0001751)
(0.00414317 -0.00035864 -0.000661763)
(0.00389758 0.000372743 -0.000308197)
(0.0043001 0.000226816 -0.000299818)
(0.00351387 -0.000115319 -0.000326677)
(0.00340135 -7.72443e-05 0.000251048)
(0.00463355 -3.6581e-05 0.000157744)
(0.00440662 5.63485e-05 -0.000515074)
(0.00368479 -6.64897e-06 0.000169471)
(0.00406501 0.000157676 -0.000178419)
(0.00422251 0.000102679 0.000128573)
(0.0044948 -0.000646769 0.000541894)
(0.00427085 -9.87262e-05 -0.000104958)
(0.00435138 0.000188244 -0.000397385)
(0.00423402 -0.000285239 -0.00019104)
(0.00408209 0.000146373 -0.000439657)
(0.00438876 -0.000416657 0.0002354)
(0.00412016 0.000253341 -2.89873e-05)
(0.00440916 -0.000751235 2.01499e-07)
(0.00422954 0.00035394 -0.000195509)
(0.00419318 0.0005877 -0.000153136)
(0.00449869 0.000130994 4.34093e-05)
(0.00466607 -0.0002059 9.09723e-05)
(0.00360842 -3.46323e-05 -0.000462768)
(0.00404552 -0.000117843 0.000542092)
(0.0044603 -0.000291025 8.57876e-05)
(0.00452253 -5.775e-05 -2.5161e-05)
(0.00420872 -2.49538e-05 0.000130535)
(0.00399948 -8.27713e-05 0.000398972)
(0.00401361 0.00078449 -0.000536335)
(0.00433766 0.000506229 5.97293e-05)
(0.00398485 0.00021587 0.000224915)
(0.00428921 -0.000123127 0.000545804)
(0.00395413 -0.000265207 0.000284253)
(0.00464771 -8.17514e-05 -3.50651e-06)
(0.00416916 0.000371489 0.000163635)
(0.0044085 0.000418439 0.00024691)
(0.00543634 -0.000441278 -0.000186631)
(0.00412922 -0.00012097 -0.000404272)
(0.00438933 -0.000127587 -1.03218e-05)
(0.00530408 8.18785e-06 -0.000109406)
(0.00478354 0.000520196 -0.000383892)
(0.00422667 0.000132841 -0.000341827)
(0.00521849 -0.000121567 2.05001e-06)
(0.00480123 -0.0002821 -8.08901e-05)
(0.00440866 -6.10949e-05 0.000396559)
(0.00441036 -0.000213084 -1.16773e-05)
(0.00461465 -5.4924e-05 -8.65741e-05)
(0.00443194 3.98297e-05 0.000489823)
(0.00547662 -0.000285616 0.00029036)
(0.00436177 -0.000465074 0.000131908)
(0.0048478 -0.000239954 -1.7305e-05)
(0.00451341 -3.9776e-05 0.000120099)
(0.00424952 0.000126962 0.000435514)
(0.00456622 -0.000400582 -4.55683e-05)
(0.0041197 -0.000208475 -7.34611e-05)
(0.00458332 0.00015508 -9.9494e-05)
(0.00493052 2.4671e-05 -6.78164e-05)
(0.00497493 -0.00018919 0.000349429)
(0.00413709 -0.000340506 0.00025011)
(0.00457189 4.51335e-05 -0.000407821)
(0.00492529 -0.000225063 -0.000308397)
(0.00420231 4.63457e-05 -2.55481e-05)
(0.00364284 0.000310922 0.000220783)
(0.00466022 -0.000193717 -0.000312066)
)
;

boundaryField
{
    sides
    {
        type            zeroGradient;
    }
    empty
    {
        type            empty;
    }
}


// ************************************************************************* //
