/*--------------------------------*- C++ -*----------------------------------*\
  =========                 |
  \\      /  F ield         | OpenFOAM: The Open Source CFD Toolbox
   \\    /   O peration     | Website:  https://openfoam.org
    \\  /    A nd           | Version:  7
     \\/     M anipulation  |
\*---------------------------------------------------------------------------*/
FoamFile
{
    version     2.0;
    format      ascii;
    class       volScalarField;
    location    "0.007";
    object      p;
}
// * * * * * * * * * * * * * * * * * * * * * * * * * * * * * * * * * * * * * //

dimensions      [1 -1 -2 0 0 0 0];

internalField   nonuniform List<scalar> 
1000
(
5.24143
5.248
5.23298
5.23068
5.23219
5.23872
5.24054
5.24197
5.24838
5.25577
5.22111
5.25095
5.24646
5.24031
5.26012
5.24972
5.23924
5.23125
5.25585
5.24861
5.24491
5.26635
5.27269
5.23919
5.24932
5.26119
5.25634
5.23032
5.23426
5.24672
5.2576
5.25357
5.21308
5.23607
5.26699
5.26142
5.24668
5.2334
5.24089
5.23418
5.23626
5.25467
5.22514
5.2467
5.23819
5.2442
5.23975
5.2347
5.24266
5.24522
5.21421
5.2337
5.24027
5.2391
5.24825
5.22144
5.23312
5.24261
5.23505
5.23698
5.21139
5.20511
5.19865
5.216
5.21798
5.22834
5.22548
5.22371
5.24413
5.25271
5.25542
5.23084
5.23669
5.20892
5.23093
5.20885
5.22186
5.19156
5.20033
5.2535
5.23769
5.24557
5.2173
5.21596
5.23433
5.22695
5.21023
5.21322
5.21159
5.21193
5.22887
5.23911
5.21478
5.21549
5.23929
5.22801
5.22276
5.21403
5.22809
5.20575
5.20255
5.19708
5.19316
5.21965
5.21964
5.19304
5.20483
5.18537
5.21531
5.1985
5.21614
5.19614
5.17832
5.2006
5.20019
5.15567
5.1972
5.16489
5.18696
5.17635
5.17789
5.1685
5.16194
5.17905
5.16757
5.16882
5.1684
5.18914
5.16533
5.17187
5.16192
5.16094
5.16032
5.15461
5.1567
5.15464
5.14524
5.16762
5.16141
5.1189
5.13697
5.14555
5.12051
5.1163
5.13978
5.1333
5.1482
5.16368
5.13156
5.12848
5.14402
5.11626
5.1021
5.10905
5.10743
5.11953
5.11773
5.10291
5.0886
5.08841
5.08516
5.1061
5.07233
5.07914
5.07881
5.05698
5.09499
5.04786
5.08497
5.07716
5.05382
5.05849
5.05728
5.04545
5.06494
5.05174
5.03774
5.04519
5.05467
5.04943
5.03428
5.04568
5.01817
5.00275
5.02245
5.03835
5.02309
5.00059
4.98743
5.00488
4.99297
5.00721
5.00342
5.00112
4.97112
4.97009
4.97566
4.97885
4.99773
4.99438
4.94855
4.96674
4.97585
4.96046
4.95703
4.93649
4.93247
4.93725
4.93207
4.94765
4.9402
4.91293
4.91751
4.91356
4.90349
4.8913
4.89421
4.885
4.89214
4.88864
4.882
4.88107
4.86349
4.84135
4.84746
4.82691
4.84554
4.86481
4.83364
4.83747
4.82586
4.81797
4.83336
4.80861
4.80677
4.82609
4.7976
4.79659
4.76378
4.77788
4.77795
4.76188
4.75951
4.76131
4.74392
4.77461
4.73378
4.74021
4.73519
4.73055
4.71714
4.73051
4.72084
4.69115
4.70505
4.69066
4.70803
4.71285
4.6697
4.66679
4.66537
4.65876
4.67746
4.68007
4.62914
4.62567
4.61456
4.63442
4.6371
4.61855
4.61039
4.62451
4.58585
4.59539
4.6169
4.58199
4.59226
4.58576
4.56418
4.55174
4.52986
4.52446
4.49289
4.51552
4.50981
4.50231
4.48471
4.48096
4.46477
4.49775
4.48996
4.48644
4.46411
4.45965
4.45858
4.44995
4.44082
4.41384
4.41117
4.39203
4.39884
4.40783
4.38785
4.37891
4.361
4.36563
4.3564
4.33166
4.32843
4.33133
4.2968
4.34231
4.30431
4.28424
4.28406
4.25852
4.24214
4.25669
4.2457
4.26705
4.20285
4.23585
4.22066
4.21144
4.20953
4.21596
4.20468
4.16867
4.14949
4.1662
4.15038
4.1111
4.12442
4.13583
4.10474
4.09879
4.08303
4.07428
4.0674
4.07058
4.06492
4.05708
4.0462
4.02648
4.0319
4.03018
4.01121
4.00108
4.0215
3.98613
3.97677
3.95548
3.98542
3.97952
3.92694
3.90744
3.90098
3.91612
3.90046
3.89387
3.88813
3.84743
3.84629
3.80692
3.81025
3.83152
3.80388
3.78904
3.77049
3.77302
3.74908
3.75464
3.76284
3.74997
3.73702
3.70843
3.72828
3.72327
3.7137
3.68943
3.64222
3.64103
3.62538
3.63443
3.60501
3.6318
3.60229
3.58309
3.59818
3.58631
3.55304
3.5414
3.53561
3.53084
3.51006
3.49051
3.47651
3.48169
3.46785
3.47847
3.46118
3.43758
3.40537
3.39708
3.4109
3.41878
3.38742
3.36116
3.36011
3.33195
3.32775
3.29528
3.27618
3.29006
3.27209
3.27542
3.26092
3.24669
3.23159
3.22979
3.20353
3.19057
3.16471
3.16939
3.1509
3.1535
3.12265
3.10246
3.106
3.09436
3.06977
3.0549
3.05234
3.03738
3.02737
2.99982
2.97731
2.9715
2.94993
2.94369
2.93596
2.9164
2.90979
2.8892
2.89277
2.85602
2.83569
2.83555
2.80552
2.79823
2.79131
2.77112
2.76175
2.77095
2.77041
2.74955
2.7195
2.73189
2.68353
2.65366
2.63556
2.62939
2.61168
2.58564
2.58158
2.56755
2.56265
2.55003
2.52138
2.51863
2.49585
2.46969
2.4527
2.45236
2.41766
2.40913
2.38789
2.36884
2.36644
2.36586
2.34318
2.34065
2.32306
2.29368
2.29112
2.28033
2.25534
2.21638
2.21373
2.21441
2.18494
2.16986
2.17154
2.14538
2.1179
2.13095
2.09489
2.08279
2.0644
2.04479
2.01053
1.99969
2.00337
1.97306
1.97393
1.98618
1.96703
2.01644
2.00044
1.99342
1.9777
1.97584
1.96805
1.97451
1.97684
1.97091
1.97237
1.97131
1.96653
1.97051
1.96625
1.96714
1.95797
1.9544
1.94686
1.97083
1.97916
1.93924
1.94589
1.9714
1.94926
1.95141
1.96168
1.93542
1.92382
1.91757
1.91041
1.91659
1.92326
1.90296
1.91819
1.9028
1.88915
1.8987
1.90099
1.90321
1.90633
1.90587
1.89669
1.87983
1.89544
1.89246
1.87376
1.88095
1.8771
1.86992
1.87412
1.87409
1.86701
1.86642
1.8616
1.85881
1.84855
1.83976
1.84946
1.83221
1.83085
1.83234
1.82004
1.83544
1.83834
1.83829
1.83436
1.82544
1.80746
1.80053
1.78632
1.7941
1.79885
1.7965
1.80803
1.79052
1.78119
1.78268
1.78838
1.79941
1.79694
1.78473
1.78465
1.78868
1.79782
1.8026
1.79228
1.78267
1.76768
1.76881
1.75213
1.74775
1.73946
1.73689
1.72926
1.7256
1.7268
1.72929
1.72737
1.72267
1.73538
1.73799
1.71211
1.72435
1.72829
1.71988
1.71396
1.70705
1.69929
1.70221
1.71239
1.7188
1.71014
1.70398
1.71277
1.71988
1.68705
1.70311
1.71242
1.69436
1.6844
1.67586
1.67085
1.69681
1.68445
1.67408
1.66299
1.65615
1.65129
1.64451
1.65467
1.65388
1.65515
1.65787
1.64073
1.62607
1.63637
1.63534
1.62423
1.62057
1.61996
1.61351
1.59926
1.59943
1.60735
1.60948
1.60473
1.61647
1.61161
1.60701
1.60498
1.60892
1.58599
1.59612
1.5763
1.57255
1.5564
1.57078
1.57035
1.55978
1.57062
1.56496
1.57111
1.5628
1.55176
1.5452
1.55059
1.55311
1.54346
1.54679
1.54314
1.52934
1.52168
1.51961
1.50907
1.51119
1.51135
1.50339
1.50717
1.50085
1.50049
1.50213
1.49409
1.48975
1.49788
1.48851
1.48674
1.47897
1.48088
1.49065
1.47692
1.4906
1.49289
1.47773
1.47271
1.45411
1.45294
1.42773
1.42966
1.43698
1.43873
1.43891
1.41875
1.41579
1.42427
1.42246
1.4067
1.40807
1.3934
1.40683
1.39404
1.3934
1.39805
1.39932
1.39798
1.39319
1.39269
1.38592
1.37213
1.36881
1.35666
1.35217
1.35178
1.3539
1.35771
1.35634
1.36162
1.36706
1.37379
1.34984
1.35389
1.34998
1.34465
1.3539
1.36402
1.35696
1.33502
1.3381
1.32299
1.32924
1.33096
1.32476
1.30169
1.30142
1.29878
1.29385
1.29126
1.28646
1.27993
1.28191
1.27247
1.26868
1.27154
1.26406
1.25276
1.25531
1.2523
1.24927
1.24768
1.2307
1.23163
1.22819
1.22314
1.2169
1.21685
1.20246
1.21165
1.19831
1.20052
1.20139
1.20988
1.21145
1.20415
1.19578
1.19188
1.18926
1.19539
1.17598
1.18154
1.18602
1.18376
1.18919
1.18201
1.18178
1.18152
1.17718
1.17922
1.17623
1.15972
1.15239
1.15595
1.15416
1.15083
1.13923
1.14175
1.13537
1.1331
1.12266
1.12146
1.12323
1.1081
1.1058
1.10587
1.09816
1.10096
1.0977
1.10144
1.09657
1.08578
1.09398
1.10188
1.08893
1.07779
1.07766
1.06819
1.06675
1.07288
1.06427
1.06998
1.06729
1.05704
1.05633
1.05053
1.03608
1.0352
1.03067
1.01688
1.0195
1.01127
1.01742
1.01601
1.01671
1.01162
1.00512
1.00601
1.00285
1.00618
1.00416
1.00223
1.00231
0.983113
0.962537
0.96236
0.971759
0.963254
0.957133
0.961703
0.943159
0.951245
0.947212
0.944693
0.9419
0.956401
0.949353
0.947386
0.94481
0.934771
0.929167
0.925885
0.919416
0.914316
0.918275
0.912189
0.911903
0.90815
0.899946
0.89631
0.889371
0.881812
0.879937
0.875466
0.871944
0.86773
0.870402
0.861524
0.852561
0.848203
0.84669
0.850209
0.836064
0.825179
0.829293
0.823576
0.81133
0.820508
0.814225
0.812549
0.809333
0.800721
0.804028
0.802871
0.790512
0.777336
0.778396
0.788625
0.786137
0.773865
0.769971
0.758768
0.758509
0.760887
0.755992
0.749735
0.751942
0.747709
0.737112
0.728088
0.725125
0.726012
0.7163
0.711208
0.715316
0.72161
0.706589
0.699311
0.698062
0.692818
0.689224
0.674119
0.669021
0.668808
0.664082
0.666708
0.667898
0.661504
0.653649
0.651223
0.643301
0.650182
0.641486
0.639929
0.626095
0.626595
0.620535
0.61204
0.61512
0.611998
0.603235
0.602097
0.597431
0.595914
0.581652
0.581888
0.574757
0.577239
0.563884
0.561859
0.555684
0.555317
0.550062
0.54596
0.535279
0.533549
0.530124
0.523837
0.51708
0.5085
0.509842
0.511586
0.519719
0.513832
0.503438
0.501698
0.499459
0.499645
0.503058
0.504215
0.507365
0.507782
0.506117
0.502406
0.501223
0.507211
0.506909
0.508434
0.510748
0.509179
0.505283
0.50749
0.508214
0.510102
0.503918
0.509801
0.504386
0.502799
0.511152
0.513476
0.503817
0.507347
0.504554
0.503392
0.505983
0.50852
0.499412
)
;

boundaryField
{
    sides
    {
        type            symmetry;
    }
    empty
    {
        type            empty;
    }
}


// ************************************************************************* //
