/*--------------------------------*- C++ -*----------------------------------*\
  =========                 |
  \\      /  F ield         | OpenFOAM: The Open Source CFD Toolbox
   \\    /   O peration     | Website:  https://openfoam.org
    \\  /    A nd           | Version:  7
     \\/     M anipulation  |
\*---------------------------------------------------------------------------*/
FoamFile
{
    version     2.0;
    format      ascii;
    class       volScalarField;
    location    "0.007";
    object      rhoMMean;
}
// * * * * * * * * * * * * * * * * * * * * * * * * * * * * * * * * * * * * * //

dimensions      [1 -3 0 0 0 0 0];

internalField   nonuniform List<scalar> 
1000
(
1.92648e-05
1.88725e-05
1.83665e-05
1.88763e-05
1.92801e-05
1.90982e-05
1.92703e-05
1.92522e-05
2.06842e-05
2.00636e-05
1.99671e-05
1.99424e-05
1.95554e-05
1.94601e-05
1.97627e-05
1.9563e-05
2.04366e-05
2.03736e-05
2.0454e-05
2.09195e-05
1.9989e-05
2.03831e-05
2.02189e-05
2.0329e-05
2.02365e-05
2.00261e-05
1.98759e-05
1.98244e-05
1.91497e-05
1.86023e-05
1.81737e-05
1.82898e-05
1.8511e-05
1.8553e-05
1.89381e-05
1.88365e-05
1.83791e-05
1.91829e-05
1.88642e-05
1.93498e-05
1.9192e-05
1.92867e-05
1.86214e-05
1.92359e-05
1.89757e-05
1.97368e-05
2.00367e-05
1.97034e-05
1.94682e-05
1.94684e-05
1.95808e-05
1.95351e-05
1.9867e-05
2.01772e-05
2.0176e-05
2.06269e-05
2.04172e-05
2.01156e-05
2.0123e-05
1.99606e-05
2.01988e-05
1.95504e-05
1.95931e-05
1.9147e-05
1.883e-05
1.9388e-05
1.91495e-05
1.86711e-05
1.9402e-05
1.94139e-05
1.95159e-05
1.97467e-05
1.93317e-05
1.93945e-05
1.92724e-05
2.02038e-05
2.04392e-05
2.0834e-05
2.06402e-05
2.07443e-05
2.09524e-05
2.09594e-05
2.11607e-05
2.09479e-05
2.05256e-05
2.00661e-05
2.05258e-05
1.96494e-05
1.9006e-05
1.87601e-05
1.9539e-05
1.89562e-05
1.90613e-05
1.87433e-05
1.87103e-05
1.8502e-05
1.86737e-05
1.83149e-05
1.77462e-05
1.84133e-05
1.90255e-05
1.8457e-05
1.87398e-05
1.84044e-05
1.96418e-05
1.99518e-05
1.94915e-05
1.95807e-05
2.06143e-05
2.02237e-05
2.13609e-05
2.09355e-05
2.06121e-05
2.03526e-05
2.01159e-05
2.05523e-05
1.9801e-05
2.01428e-05
1.9958e-05
2.05032e-05
2.00671e-05
2.06887e-05
2.09511e-05
1.99844e-05
2.0601e-05
2.01541e-05
2.07672e-05
1.93201e-05
2.00691e-05
2.03373e-05
1.95506e-05
2.00055e-05
1.95539e-05
1.93594e-05
1.9706e-05
2.0279e-05
2.03831e-05
2.03685e-05
2.02504e-05
2.04059e-05
2.06694e-05
2.04989e-05
2.07694e-05
1.97869e-05
1.97177e-05
1.92151e-05
1.95182e-05
1.86717e-05
1.91025e-05
1.93614e-05
1.89987e-05
1.93561e-05
1.9057e-05
1.93412e-05
1.95438e-05
1.93056e-05
1.96755e-05
1.91896e-05
1.85703e-05
1.85651e-05
1.85748e-05
1.81e-05
1.87814e-05
1.84545e-05
1.94843e-05
1.93355e-05
1.95856e-05
1.97652e-05
1.94827e-05
1.97657e-05
1.90788e-05
2.01362e-05
1.96713e-05
1.96137e-05
1.94651e-05
2.01825e-05
1.94835e-05
1.88117e-05
1.89652e-05
1.97246e-05
1.98229e-05
1.91995e-05
1.95024e-05
1.87187e-05
1.88476e-05
1.91469e-05
1.98892e-05
1.92115e-05
1.94697e-05
1.93302e-05
1.91515e-05
1.91749e-05
1.92512e-05
1.93687e-05
1.92238e-05
1.95926e-05
1.88783e-05
1.94405e-05
1.92405e-05
2.01501e-05
1.94064e-05
1.92485e-05
1.93186e-05
1.98093e-05
1.95209e-05
1.9064e-05
1.92978e-05
1.97004e-05
1.95151e-05
1.98666e-05
1.95254e-05
1.96969e-05
1.98259e-05
2.08292e-05
2.04565e-05
2.02184e-05
1.98532e-05
2.03991e-05
1.99093e-05
2.00674e-05
2.02253e-05
1.98716e-05
1.9246e-05
1.99779e-05
1.92085e-05
2.02345e-05
2.06211e-05
2.02097e-05
2.023e-05
2.02081e-05
2.02464e-05
2.04549e-05
2.01212e-05
1.93707e-05
1.97361e-05
1.95762e-05
1.89117e-05
1.9529e-05
1.90824e-05
1.97912e-05
1.96406e-05
1.98344e-05
1.99003e-05
1.95278e-05
2.05679e-05
1.9613e-05
2.00187e-05
1.99653e-05
2.02375e-05
1.9532e-05
1.98837e-05
2.01933e-05
1.9346e-05
1.90999e-05
1.93961e-05
1.93671e-05
1.98827e-05
1.97946e-05
1.96668e-05
1.90932e-05
1.92078e-05
1.90326e-05
1.89101e-05
1.89938e-05
1.86601e-05
1.94398e-05
1.91308e-05
1.88792e-05
1.95694e-05
1.82571e-05
1.8008e-05
1.77034e-05
1.86497e-05
1.87164e-05
1.83662e-05
1.81578e-05
1.79756e-05
1.81141e-05
1.81848e-05
1.90125e-05
1.87432e-05
1.8184e-05
1.84417e-05
1.77512e-05
1.76477e-05
1.82745e-05
1.8586e-05
1.90316e-05
1.85904e-05
1.82205e-05
1.76273e-05
1.85925e-05
1.94559e-05
1.9255e-05
1.91022e-05
1.91661e-05
1.9298e-05
1.9851e-05
1.92691e-05
1.91127e-05
1.84112e-05
1.87609e-05
1.89076e-05
1.83726e-05
1.83831e-05
1.84859e-05
1.86809e-05
1.92268e-05
1.89502e-05
1.83808e-05
1.89896e-05
1.83125e-05
1.88456e-05
1.88043e-05
1.85359e-05
1.91191e-05
1.82062e-05
1.91497e-05
1.89044e-05
1.85967e-05
1.93903e-05
1.88928e-05
1.86845e-05
1.87717e-05
1.80624e-05
1.78296e-05
1.82889e-05
1.82738e-05
1.73973e-05
1.81915e-05
1.80754e-05
1.8044e-05
1.80785e-05
1.76122e-05
1.72351e-05
1.75768e-05
1.75933e-05
1.69192e-05
1.72674e-05
1.74553e-05
1.77202e-05
1.75901e-05
1.73262e-05
1.82431e-05
1.83531e-05
1.84871e-05
1.82243e-05
1.83032e-05
1.83232e-05
1.88498e-05
1.84685e-05
1.82934e-05
1.77861e-05
1.78439e-05
1.7636e-05
1.71195e-05
1.73882e-05
1.75431e-05
1.78022e-05
1.80231e-05
1.77489e-05
1.76984e-05
1.68933e-05
1.70313e-05
1.71959e-05
1.70562e-05
1.66066e-05
1.68209e-05
1.7194e-05
1.78328e-05
1.75285e-05
1.72947e-05
1.6747e-05
1.64499e-05
1.6638e-05
1.64113e-05
1.66649e-05
1.71625e-05
1.68313e-05
1.64228e-05
1.61275e-05
1.64014e-05
1.70403e-05
1.72213e-05
1.66526e-05
1.66517e-05
1.66727e-05
1.65688e-05
1.7071e-05
1.60362e-05
1.61235e-05
1.59306e-05
1.58063e-05
1.60011e-05
1.59458e-05
1.60704e-05
1.6177e-05
1.61666e-05
1.58045e-05
1.65399e-05
1.6123e-05
1.575e-05
1.57391e-05
1.63836e-05
1.62234e-05
1.5478e-05
1.52263e-05
1.6009e-05
1.55498e-05
1.51505e-05
1.49395e-05
1.55617e-05
1.53966e-05
1.52399e-05
1.50318e-05
1.47065e-05
1.55287e-05
1.47726e-05
1.48189e-05
1.55071e-05
1.58734e-05
1.52113e-05
1.48332e-05
1.50059e-05
1.50567e-05
1.50145e-05
1.42277e-05
1.4382e-05
1.45499e-05
1.44256e-05
1.43195e-05
1.44824e-05
1.41023e-05
1.43514e-05
1.45248e-05
1.41862e-05
1.45009e-05
1.47031e-05
1.47373e-05
1.44442e-05
1.41715e-05
1.40516e-05
1.46535e-05
1.4219e-05
1.43602e-05
1.40744e-05
1.43426e-05
1.38165e-05
1.35131e-05
1.39698e-05
1.38339e-05
1.41383e-05
1.36559e-05
1.39593e-05
1.4149e-05
1.37474e-05
1.32781e-05
1.40171e-05
1.39319e-05
1.37597e-05
1.36687e-05
1.31304e-05
1.32133e-05
1.3107e-05
1.30232e-05
1.31391e-05
1.40036e-05
1.40372e-05
1.33003e-05
1.37178e-05
1.31567e-05
1.28279e-05
1.27465e-05
1.31173e-05
1.29504e-05
1.28911e-05
1.2748e-05
1.30969e-05
1.27141e-05
1.26485e-05
1.34441e-05
1.26644e-05
1.26302e-05
1.26734e-05
1.3201e-05
1.2729e-05
1.25801e-05
1.23919e-05
1.25538e-05
1.26492e-05
1.28888e-05
1.25608e-05
1.22425e-05
1.27438e-05
1.25215e-05
1.25945e-05
1.24829e-05
1.20393e-05
1.20058e-05
1.17162e-05
1.17027e-05
1.21664e-05
1.25336e-05
1.22119e-05
1.20246e-05
1.21943e-05
1.19606e-05
1.17241e-05
1.20131e-05
1.13437e-05
1.17781e-05
1.17879e-05
1.13643e-05
1.13133e-05
1.15129e-05
1.18972e-05
1.18788e-05
1.18407e-05
1.13257e-05
1.14317e-05
1.11193e-05
1.13139e-05
1.10856e-05
1.10869e-05
1.08835e-05
1.09687e-05
1.10627e-05
1.12508e-05
1.08498e-05
1.10648e-05
1.08717e-05
1.12698e-05
1.10072e-05
1.09848e-05
1.10369e-05
1.10912e-05
1.10844e-05
1.08843e-05
1.06943e-05
1.07563e-05
1.09074e-05
1.0888e-05
1.09051e-05
1.14151e-05
1.10399e-05
1.09263e-05
1.13362e-05
1.07309e-05
1.03899e-05
1.04467e-05
1.0739e-05
1.07651e-05
1.05469e-05
1.02172e-05
1.04276e-05
1.02431e-05
1.02624e-05
1.02846e-05
1.0173e-05
9.98122e-06
1.09139e-05
1.02413e-05
9.85119e-06
9.73328e-06
1.02966e-05
1.02667e-05
1.00495e-05
9.95731e-06
1.0418e-05
1.03472e-05
9.79838e-06
9.21962e-06
9.43751e-06
9.45411e-06
9.49214e-06
9.5986e-06
9.42472e-06
9.73411e-06
9.50394e-06
9.13775e-06
9.1057e-06
8.9569e-06
8.99526e-06
9.68113e-06
9.13492e-06
8.69866e-06
9.1316e-06
8.91123e-06
8.60649e-06
8.76259e-06
8.77903e-06
8.98629e-06
8.21522e-06
8.39408e-06
8.53972e-06
8.69234e-06
8.22718e-06
8.29062e-06
8.76641e-06
8.51033e-06
8.13484e-06
8.40122e-06
8.06559e-06
8.40338e-06
8.21937e-06
7.93871e-06
7.76899e-06
7.79739e-06
8.39657e-06
8.18599e-06
8.40903e-06
8.24412e-06
8.14531e-06
7.82578e-06
8.04732e-06
8.08884e-06
8.05646e-06
8.045e-06
8.22834e-06
8.35738e-06
8.28265e-06
7.99584e-06
8.00996e-06
7.93755e-06
7.7572e-06
7.68313e-06
7.87079e-06
7.96794e-06
7.53715e-06
7.89288e-06
7.5888e-06
7.49215e-06
7.74175e-06
7.77148e-06
7.95449e-06
7.70356e-06
7.84771e-06
7.92925e-06
7.68645e-06
7.32906e-06
7.48185e-06
7.21182e-06
7.54778e-06
7.26828e-06
7.39599e-06
7.14423e-06
7.22726e-06
7.3842e-06
7.28389e-06
7.486e-06
7.50327e-06
7.37872e-06
7.67831e-06
7.9133e-06
7.92576e-06
8.01361e-06
7.99468e-06
7.74491e-06
8.01411e-06
7.56057e-06
7.76517e-06
7.41874e-06
7.60441e-06
7.7655e-06
7.55459e-06
7.07265e-06
7.43983e-06
7.34152e-06
7.04774e-06
7.03479e-06
7.15784e-06
7.26081e-06
7.08809e-06
7.16797e-06
6.92152e-06
7.1135e-06
7.33986e-06
7.19704e-06
6.90276e-06
7.07597e-06
6.95574e-06
6.51714e-06
6.45437e-06
6.73802e-06
6.58722e-06
6.83998e-06
6.80644e-06
7.21829e-06
7.03312e-06
7.09258e-06
7.22278e-06
6.77522e-06
6.974e-06
6.98878e-06
7.24188e-06
6.9016e-06
7.2178e-06
7.61022e-06
6.9295e-06
6.98031e-06
7.05787e-06
7.33554e-06
6.73054e-06
6.96886e-06
6.74067e-06
6.8257e-06
7.00091e-06
7.19372e-06
7.53665e-06
7.46408e-06
7.07547e-06
7.35514e-06
7.32358e-06
7.04309e-06
7.36892e-06
7.35564e-06
6.89944e-06
6.5555e-06
6.75961e-06
7.21896e-06
7.04558e-06
6.88665e-06
6.73171e-06
6.96205e-06
7.16582e-06
6.99808e-06
6.73453e-06
6.4165e-06
6.66063e-06
7.16648e-06
6.91555e-06
6.76409e-06
6.63854e-06
6.40322e-06
7.00273e-06
7.17993e-06
7.05056e-06
7.04292e-06
6.93581e-06
7.12347e-06
6.6857e-06
6.82537e-06
7.25649e-06
7.44515e-06
7.25101e-06
7.41592e-06
7.52802e-06
7.21232e-06
7.06468e-06
7.20169e-06
6.99343e-06
6.96919e-06
7.22095e-06
7.17744e-06
6.96736e-06
7.02947e-06
7.05721e-06
7.14605e-06
6.73503e-06
6.7518e-06
7.31146e-06
7.33421e-06
7.17113e-06
6.57344e-06
6.68969e-06
6.93249e-06
6.95524e-06
7.16482e-06
6.86921e-06
7.02565e-06
7.22029e-06
6.81524e-06
6.67358e-06
6.84646e-06
6.71211e-06
6.85908e-06
7.02598e-06
6.67391e-06
6.68305e-06
6.52777e-06
6.81341e-06
6.60682e-06
6.40936e-06
6.58805e-06
6.24827e-06
6.28265e-06
6.55251e-06
6.1835e-06
6.40438e-06
6.36768e-06
6.20991e-06
6.50518e-06
6.49804e-06
6.59171e-06
6.31619e-06
6.45088e-06
6.24329e-06
6.37847e-06
6.16756e-06
6.25525e-06
6.37449e-06
6.00282e-06
5.89172e-06
6.08536e-06
5.77563e-06
5.68795e-06
5.9608e-06
6.06659e-06
6.11027e-06
5.57219e-06
5.50161e-06
5.76052e-06
5.96711e-06
5.91546e-06
6.07307e-06
6.31204e-06
5.78194e-06
6.16424e-06
5.906e-06
5.68363e-06
5.73959e-06
5.71734e-06
5.82114e-06
5.69094e-06
5.72481e-06
5.52188e-06
5.26779e-06
5.53034e-06
5.77596e-06
5.66619e-06
5.75172e-06
5.8771e-06
5.5805e-06
5.61288e-06
5.49397e-06
5.83243e-06
5.71701e-06
5.51291e-06
5.41576e-06
5.49779e-06
5.76085e-06
6.11342e-06
6.1091e-06
6.03371e-06
5.91646e-06
5.95549e-06
6.12206e-06
5.7939e-06
5.72913e-06
5.5697e-06
5.69127e-06
5.86597e-06
5.81765e-06
5.89055e-06
5.59495e-06
5.79523e-06
5.79955e-06
6.02989e-06
5.65573e-06
5.33571e-06
5.30648e-06
5.44498e-06
5.43917e-06
5.49979e-06
5.56456e-06
5.50776e-06
5.3377e-06
5.13078e-06
5.06667e-06
5.24287e-06
5.29934e-06
5.09009e-06
5.30382e-06
5.47737e-06
5.51108e-06
5.22129e-06
5.45146e-06
5.03678e-06
5.46375e-06
5.40164e-06
5.07199e-06
5.1615e-06
5.15203e-06
4.95806e-06
5.45844e-06
5.25799e-06
5.6353e-06
5.64659e-06
5.47222e-06
5.52686e-06
5.67715e-06
5.75022e-06
5.71319e-06
5.36294e-06
5.5159e-06
5.92526e-06
5.54712e-06
5.53715e-06
5.44747e-06
5.34468e-06
5.19305e-06
5.38022e-06
5.53765e-06
5.36743e-06
5.60159e-06
5.41559e-06
5.40396e-06
5.31362e-06
5.57568e-06
5.23291e-06
5.57917e-06
5.36843e-06
5.41542e-06
5.41227e-06
5.23025e-06
5.46375e-06
5.40895e-06
5.09906e-06
5.08461e-06
5.43884e-06
5.60541e-06
5.28888e-06
4.92551e-06
5.23972e-06
5.33704e-06
5.06518e-06
4.92817e-06
5.44382e-06
5.40629e-06
5.61321e-06
5.86216e-06
5.61288e-06
5.54529e-06
5.66868e-06
5.86116e-06
5.94137e-06
5.80287e-06
5.85435e-06
5.78925e-06
5.75354e-06
5.63281e-06
5.71003e-06
5.59893e-06
5.59362e-06
5.68645e-06
5.53134e-06
5.42223e-06
5.80021e-06
6.0915e-06
5.66104e-06
5.42821e-06
5.48052e-06
5.52387e-06
5.31694e-06
5.43585e-06
5.35132e-06
5.11351e-06
4.89545e-06
5.08345e-06
4.92136e-06
4.96769e-06
5.18425e-06
5.17811e-06
5.27343e-06
5.31445e-06
5.74956e-06
5.79672e-06
5.24022e-06
5.41061e-06
5.26397e-06
5.33687e-06
5.80569e-06
5.61172e-06
5.7841e-06
5.37042e-06
5.39882e-06
5.30166e-06
5.00954e-06
5.08295e-06
5.94835e-06
6.09897e-06
6.23183e-06
6.18467e-06
6.00033e-06
6.20924e-06
6.35987e-06
6.10412e-06
6.32599e-06
6.02623e-06
6.19164e-06
6.57543e-06
5.96678e-06
6.18832e-06
6.01245e-06
5.85485e-06
6.11027e-06
6.22486e-06
6.18184e-06
6.19114e-06
5.91845e-06
)
;

boundaryField
{
    sides
    {
        type            symmetry;
    }
    empty
    {
        type            empty;
    }
}


// ************************************************************************* //
