/*--------------------------------*- C++ -*----------------------------------*\
  =========                 |
  \\      /  F ield         | OpenFOAM: The Open Source CFD Toolbox
   \\    /   O peration     | Website:  https://openfoam.org
    \\  /    A nd           | Version:  7
     \\/     M anipulation  |
\*---------------------------------------------------------------------------*/
FoamFile
{
    version     2.0;
    format      ascii;
    class       volScalarField;
    location    "0.007";
    object      rhoMMean;
}
// * * * * * * * * * * * * * * * * * * * * * * * * * * * * * * * * * * * * * //

dimensions      [1 -3 0 0 0 0 0];

internalField   nonuniform List<scalar> 
1000
(
6.71018e-06
7.31367e-06
7.70346e-06
8.12345e-06
8.22344e-06
8.40049e-06
8.5193e-06
8.70771e-06
8.91046e-06
9.0265e-06
9.3233e-06
9.32621e-06
9.62631e-06
9.8822e-06
9.79385e-06
9.97359e-06
1.0247e-05
1.03256e-05
1.04564e-05
1.05584e-05
1.06066e-05
1.0538e-05
1.08042e-05
1.09582e-05
1.10706e-05
1.11659e-05
1.12472e-05
1.123e-05
1.13641e-05
1.13251e-05
1.16434e-05
1.18126e-05
1.18626e-05
1.19958e-05
1.19835e-05
1.22136e-05
1.22613e-05
1.24056e-05
1.23114e-05
1.25712e-05
1.27135e-05
1.25436e-05
1.26966e-05
1.26703e-05
1.2962e-05
1.28035e-05
1.302e-05
1.30503e-05
1.30997e-05
1.32832e-05
1.3474e-05
1.32065e-05
1.36107e-05
1.36771e-05
1.36862e-05
1.36914e-05
1.38189e-05
1.3906e-05
1.39904e-05
1.40718e-05
1.42399e-05
1.42782e-05
1.42122e-05
1.42892e-05
1.43273e-05
1.42579e-05
1.44296e-05
1.46716e-05
1.47033e-05
1.47652e-05
1.49065e-05
1.47256e-05
1.48206e-05
1.50748e-05
1.49745e-05
1.48999e-05
1.49471e-05
1.50192e-05
1.53347e-05
1.53657e-05
1.54535e-05
1.5289e-05
1.55103e-05
1.56454e-05
1.54131e-05
1.57231e-05
1.57377e-05
1.58685e-05
1.59585e-05
1.60078e-05
1.59139e-05
1.57774e-05
1.60649e-05
1.60653e-05
1.61332e-05
1.62729e-05
1.63669e-05
1.64448e-05
1.64648e-05
1.64095e-05
1.62311e-05
1.62478e-05
1.64803e-05
1.65289e-05
1.64619e-05
1.62748e-05
1.64374e-05
1.63759e-05
1.65189e-05
1.65455e-05
1.64008e-05
1.66301e-05
1.68223e-05
1.68482e-05
1.69681e-05
1.6859e-05
1.70516e-05
1.70099e-05
1.69326e-05
1.72022e-05
1.7256e-05
1.73618e-05
1.74014e-05
1.73503e-05
1.74959e-05
1.72311e-05
1.74419e-05
1.74051e-05
1.75429e-05
1.72915e-05
1.7322e-05
1.74272e-05
1.74026e-05
1.76672e-05
1.76606e-05
1.76974e-05
1.76463e-05
1.77469e-05
1.78014e-05
1.76791e-05
1.76634e-05
1.80164e-05
1.78401e-05
1.80345e-05
1.79555e-05
1.80003e-05
1.82442e-05
1.78236e-05
1.79767e-05
1.81505e-05
1.79813e-05
1.78359e-05
1.79649e-05
1.79625e-05
1.83534e-05
1.83795e-05
1.84259e-05
1.82591e-05
1.83656e-05
1.84233e-05
1.83831e-05
1.86599e-05
1.8579e-05
1.8342e-05
1.84872e-05
1.81766e-05
1.80619e-05
1.83302e-05
1.84087e-05
1.81995e-05
1.85411e-05
1.88629e-05
1.89436e-05
1.89416e-05
1.89724e-05
1.89709e-05
1.90916e-05
1.90705e-05
1.92938e-05
1.90492e-05
1.89223e-05
1.89376e-05
1.89298e-05
1.91094e-05
1.90042e-05
1.90702e-05
1.91052e-05
1.90874e-05
1.89565e-05
1.91433e-05
1.90809e-05
1.8926e-05
1.91221e-05
1.90974e-05
1.91748e-05
1.90776e-05
1.8998e-05
1.92231e-05
1.89696e-05
1.89076e-05
1.92219e-05
1.89783e-05
1.89282e-05
1.8979e-05
1.89541e-05
1.88638e-05
1.88701e-05
1.90785e-05
1.91758e-05
1.89206e-05
1.90222e-05
1.89746e-05
1.9138e-05
1.90983e-05
1.89718e-05
1.92179e-05
1.92557e-05
1.91218e-05
1.91761e-05
1.92495e-05
1.93559e-05
1.93907e-05
1.92961e-05
1.9341e-05
1.94202e-05
1.9489e-05
1.96266e-05
1.95144e-05
1.9528e-05
1.96413e-05
1.94532e-05
1.95857e-05
1.98114e-05
1.96882e-05
1.98864e-05
1.99655e-05
1.97189e-05
1.98503e-05
1.95943e-05
1.97909e-05
1.97876e-05
1.96334e-05
1.97152e-05
1.98207e-05
1.99414e-05
1.97932e-05
1.9666e-05
1.97411e-05
1.95945e-05
1.9509e-05
1.9584e-05
1.96594e-05
1.9635e-05
1.9253e-05
1.94283e-05
1.93975e-05
1.91364e-05
1.92113e-05
1.90968e-05
1.9532e-05
1.95848e-05
1.92706e-05
1.9491e-05
1.95093e-05
1.98748e-05
1.96694e-05
1.97765e-05
1.97402e-05
1.99255e-05
2.01353e-05
2.00425e-05
1.95415e-05
1.97968e-05
1.96727e-05
1.95584e-05
1.95278e-05
1.96676e-05
1.98002e-05
1.96678e-05
1.94541e-05
1.94172e-05
1.95181e-05
1.98382e-05
1.97176e-05
1.97559e-05
1.95558e-05
1.96521e-05
1.97262e-05
1.95961e-05
1.95371e-05
1.96385e-05
1.94628e-05
1.96585e-05
1.94417e-05
1.95101e-05
1.91844e-05
1.93163e-05
1.94716e-05
1.92031e-05
1.9595e-05
1.93763e-05
1.93194e-05
1.93121e-05
1.94699e-05
1.91259e-05
1.89843e-05
1.87644e-05
1.883e-05
1.89547e-05
1.87624e-05
1.87062e-05
1.87203e-05
1.87919e-05
1.89119e-05
1.88561e-05
1.86719e-05
1.85098e-05
1.8586e-05
1.85366e-05
1.85543e-05
1.8712e-05
1.86516e-05
1.84691e-05
1.84419e-05
1.86148e-05
1.87901e-05
1.88877e-05
1.8918e-05
1.87371e-05
1.88063e-05
1.87738e-05
1.86287e-05
1.89986e-05
1.86602e-05
1.8779e-05
1.9012e-05
1.88491e-05
1.89839e-05
1.90855e-05
1.89742e-05
1.89873e-05
1.89122e-05
1.87745e-05
1.8639e-05
1.85576e-05
1.86362e-05
1.84509e-05
1.83535e-05
1.83321e-05
1.83991e-05
1.84228e-05
1.84142e-05
1.83055e-05
1.80968e-05
1.86015e-05
1.83215e-05
1.84908e-05
1.84471e-05
1.81814e-05
1.82454e-05
1.80499e-05
1.77891e-05
1.76964e-05
1.78999e-05
1.77643e-05
1.75855e-05
1.77064e-05
1.78797e-05
1.77291e-05
1.80405e-05
1.79156e-05
1.77817e-05
1.77233e-05
1.79403e-05
1.7704e-05
1.77699e-05
1.78415e-05
1.77674e-05
1.77066e-05
1.76375e-05
1.76754e-05
1.76748e-05
1.76191e-05
1.74532e-05
1.72466e-05
1.70512e-05
1.69557e-05
1.71783e-05
1.73482e-05
1.72077e-05
1.71632e-05
1.72357e-05
1.74009e-05
1.69894e-05
1.71686e-05
1.68575e-05
1.71223e-05
1.69912e-05
1.70274e-05
1.69295e-05
1.6871e-05
1.68495e-05
1.66292e-05
1.65909e-05
1.65467e-05
1.65754e-05
1.65359e-05
1.66456e-05
1.64029e-05
1.6172e-05
1.62386e-05
1.60002e-05
1.62301e-05
1.60735e-05
1.62314e-05
1.58341e-05
1.56999e-05
1.59672e-05
1.57819e-05
1.592e-05
1.59238e-05
1.56896e-05
1.57648e-05
1.56847e-05
1.55915e-05
1.56561e-05
1.56103e-05
1.53398e-05
1.52436e-05
1.51707e-05
1.52129e-05
1.50405e-05
1.50868e-05
1.5269e-05
1.51167e-05
1.51256e-05
1.49823e-05
1.49117e-05
1.48978e-05
1.48525e-05
1.4572e-05
1.48512e-05
1.46686e-05
1.46002e-05
1.44142e-05
1.4523e-05
1.46332e-05
1.44865e-05
1.44189e-05
1.43863e-05
1.45629e-05
1.46412e-05
1.45466e-05
1.45313e-05
1.43999e-05
1.43057e-05
1.43425e-05
1.42324e-05
1.43595e-05
1.41512e-05
1.38971e-05
1.38988e-05
1.38173e-05
1.38293e-05
1.37426e-05
1.39636e-05
1.38276e-05
1.37544e-05
1.38572e-05
1.36028e-05
1.36499e-05
1.35013e-05
1.35016e-05
1.34357e-05
1.35397e-05
1.33911e-05
1.32296e-05
1.30025e-05
1.33028e-05
1.32559e-05
1.30434e-05
1.31298e-05
1.30448e-05
1.30079e-05
1.28777e-05
1.29032e-05
1.29699e-05
1.29186e-05
1.29386e-05
1.28394e-05
1.26767e-05
1.27207e-05
1.27025e-05
1.24578e-05
1.23899e-05
1.24457e-05
1.25167e-05
1.23563e-05
1.2238e-05
1.22396e-05
1.22964e-05
1.20899e-05
1.19876e-05
1.18775e-05
1.19752e-05
1.19186e-05
1.18412e-05
1.19563e-05
1.17619e-05
1.18794e-05
1.19049e-05
1.17409e-05
1.15542e-05
1.16563e-05
1.14653e-05
1.1517e-05
1.14484e-05
1.14542e-05
1.13819e-05
1.12931e-05
1.11659e-05
1.13895e-05
1.12907e-05
1.11067e-05
1.11043e-05
1.10793e-05
1.11104e-05
1.0875e-05
1.08875e-05
1.08891e-05
1.08685e-05
1.09213e-05
1.07773e-05
1.09143e-05
1.08856e-05
1.09291e-05
1.07185e-05
1.06953e-05
1.06203e-05
1.07275e-05
1.05799e-05
1.04876e-05
1.04744e-05
1.03872e-05
1.04153e-05
1.03781e-05
1.03442e-05
1.03378e-05
1.02837e-05
1.01648e-05
1.01886e-05
1.0141e-05
1.0021e-05
9.83561e-06
9.90782e-06
9.95562e-06
9.88349e-06
9.86375e-06
9.78918e-06
9.79383e-06
9.81985e-06
9.72204e-06
9.6568e-06
9.68655e-06
9.46247e-06
9.63721e-06
9.77659e-06
9.8212e-06
9.46664e-06
9.42304e-06
9.45704e-06
9.33484e-06
9.4165e-06
9.281e-06
9.10918e-06
9.08275e-06
9.114e-06
8.99934e-06
8.9413e-06
8.87145e-06
8.94813e-06
8.80102e-06
8.73353e-06
8.79602e-06
8.68534e-06
8.62552e-06
8.68708e-06
8.50495e-06
8.49125e-06
8.5689e-06
8.55143e-06
8.53358e-06
8.44976e-06
8.42263e-06
8.45513e-06
8.28417e-06
8.41726e-06
8.44118e-06
8.36095e-06
8.29811e-06
8.28482e-06
8.18943e-06
8.13836e-06
8.23366e-06
8.18355e-06
8.14821e-06
8.16161e-06
8.05465e-06
7.83995e-06
7.78344e-06
7.79627e-06
7.88517e-06
7.85667e-06
7.84153e-06
7.76361e-06
7.67896e-06
7.81517e-06
7.81358e-06
7.79395e-06
7.6733e-06
7.51691e-06
7.76103e-06
7.81331e-06
7.66004e-06
7.76415e-06
7.65184e-06
7.63201e-06
7.52646e-06
7.5981e-06
7.57724e-06
7.59207e-06
7.53124e-06
7.33611e-06
7.37942e-06
7.40242e-06
7.42653e-06
7.35786e-06
7.31144e-06
7.42736e-06
7.35476e-06
7.44274e-06
7.32328e-06
7.30786e-06
7.35879e-06
7.34868e-06
7.32541e-06
7.34315e-06
7.35494e-06
7.44025e-06
7.41622e-06
7.37067e-06
7.41031e-06
7.38247e-06
7.34853e-06
7.37693e-06
7.41115e-06
7.2716e-06
7.30015e-06
7.34316e-06
7.25486e-06
7.18068e-06
7.31551e-06
7.27715e-06
7.20504e-06
7.18641e-06
7.26873e-06
7.17229e-06
7.14124e-06
7.13011e-06
7.12327e-06
7.12015e-06
7.05438e-06
7.06205e-06
7.08107e-06
7.06978e-06
7.13059e-06
7.06096e-06
7.07018e-06
7.05916e-06
7.00969e-06
7.18631e-06
7.07996e-06
7.11837e-06
7.11757e-06
7.21027e-06
6.95894e-06
6.92538e-06
7.01589e-06
7.04596e-06
7.03603e-06
6.95104e-06
6.90894e-06
6.93546e-06
6.91211e-06
6.88401e-06
6.94908e-06
6.83492e-06
6.99971e-06
6.89705e-06
6.92352e-06
6.9788e-06
7.10645e-06
6.9552e-06
6.81708e-06
6.80074e-06
6.91501e-06
6.85691e-06
6.76022e-06
6.74524e-06
6.80144e-06
6.87863e-06
6.72559e-06
6.78329e-06
6.74398e-06
6.61177e-06
6.59285e-06
6.61869e-06
6.64209e-06
6.64158e-06
6.54634e-06
6.48544e-06
6.47446e-06
6.53651e-06
6.60499e-06
6.54398e-06
6.597e-06
6.59013e-06
6.52209e-06
6.47137e-06
6.52867e-06
6.65274e-06
6.59943e-06
6.6647e-06
6.64272e-06
6.75451e-06
6.57972e-06
6.64492e-06
6.55117e-06
6.55806e-06
6.58287e-06
6.56515e-06
6.553e-06
6.54301e-06
6.37824e-06
6.48341e-06
6.52192e-06
6.41625e-06
6.49886e-06
6.45965e-06
6.31673e-06
6.37676e-06
6.38525e-06
6.33491e-06
6.29035e-06
6.24312e-06
6.22027e-06
6.17603e-06
6.21874e-06
6.21185e-06
6.20209e-06
6.22142e-06
6.1525e-06
6.30992e-06
6.31322e-06
6.23424e-06
6.1471e-06
6.02716e-06
5.89123e-06
5.89637e-06
5.868e-06
5.95663e-06
6.02393e-06
6.01208e-06
5.89778e-06
5.88798e-06
5.86016e-06
5.85679e-06
5.86642e-06
5.82758e-06
5.82183e-06
5.94644e-06
5.91379e-06
5.90467e-06
6.00034e-06
6.01547e-06
5.93225e-06
5.90613e-06
5.83324e-06
5.84082e-06
5.91463e-06
5.8997e-06
5.77543e-06
5.79224e-06
5.80895e-06
5.73116e-06
5.75662e-06
5.79358e-06
5.66896e-06
5.81378e-06
5.72058e-06
5.69344e-06
5.87617e-06
5.85068e-06
5.67273e-06
5.64565e-06
5.61869e-06
5.58616e-06
5.49492e-06
5.67931e-06
5.53558e-06
5.41142e-06
5.55072e-06
5.53182e-06
5.37711e-06
5.45649e-06
5.47717e-06
5.37449e-06
5.347e-06
5.37394e-06
5.40406e-06
5.39403e-06
5.49675e-06
5.50685e-06
5.43592e-06
5.52877e-06
5.59412e-06
5.55638e-06
5.56799e-06
5.52885e-06
5.4538e-06
5.45568e-06
5.54981e-06
5.59058e-06
5.39511e-06
5.35021e-06
5.37558e-06
5.53857e-06
5.57467e-06
5.5378e-06
5.47166e-06
5.41202e-06
5.29079e-06
5.26304e-06
5.31982e-06
5.20352e-06
5.24037e-06
5.12639e-06
5.15693e-06
5.24264e-06
5.19777e-06
5.13544e-06
5.20147e-06
5.33406e-06
5.32171e-06
5.28605e-06
5.25845e-06
5.26784e-06
5.27463e-06
5.15062e-06
5.19902e-06
5.15428e-06
5.20408e-06
5.10406e-06
5.15846e-06
5.15346e-06
5.20372e-06
5.1804e-06
5.05757e-06
5.04018e-06
5.11243e-06
5.12829e-06
5.06715e-06
5.04674e-06
5.16165e-06
5.07473e-06
5.13435e-06
5.1105e-06
5.19294e-06
5.0458e-06
4.94695e-06
4.97635e-06
4.99606e-06
5.13544e-06
4.99591e-06
4.88001e-06
4.82604e-06
4.83658e-06
4.88996e-06
4.82173e-06
4.75066e-06
4.72571e-06
4.73277e-06
4.8742e-06
4.92472e-06
4.9156e-06
4.85877e-06
4.87076e-06
4.86601e-06
4.85619e-06
4.82896e-06
4.81527e-06
4.88139e-06
4.837e-06
4.8684e-06
4.86563e-06
4.87946e-06
4.77575e-06
4.8873e-06
4.82927e-06
4.71126e-06
4.7393e-06
4.75836e-06
4.69486e-06
4.61964e-06
4.53272e-06
4.58656e-06
4.54715e-06
4.5139e-06
4.58402e-06
4.45078e-06
4.4927e-06
4.6314e-06
4.5147e-06
4.41951e-06
4.50414e-06
4.32827e-06
4.28624e-06
4.31719e-06
4.3154e-06
4.24859e-06
4.2493e-06
4.25022e-06
4.2504e-06
4.18435e-06
4.10529e-06
4.06523e-06
4.12257e-06
4.06279e-06
4.11288e-06
4.12105e-06
4.11048e-06
4.18374e-06
4.09702e-06
3.95242e-06
3.89743e-06
3.95619e-06
3.89516e-06
3.93021e-06
3.91856e-06
3.94031e-06
3.88969e-06
3.81443e-06
3.85608e-06
3.80707e-06
3.73335e-06
3.69419e-06
3.64862e-06
3.61371e-06
3.52721e-06
3.48243e-06
3.54011e-06
3.59423e-06
3.55484e-06
3.5157e-06
3.37824e-06
3.46085e-06
3.49021e-06
3.42429e-06
3.4257e-06
3.40073e-06
3.34689e-06
3.31464e-06
3.26076e-06
3.20525e-06
3.16524e-06
3.08302e-06
3.10595e-06
3.14519e-06
3.14084e-06
3.11508e-06
3.06611e-06
3.07953e-06
3.03356e-06
2.83794e-06
2.89394e-06
2.85832e-06
2.75013e-06
2.75403e-06
2.72568e-06
2.74865e-06
2.73417e-06
2.58228e-06
2.52326e-06
2.49079e-06
2.44671e-06
2.37916e-06
2.26349e-06
2.17246e-06
2.08983e-06
1.95607e-06
)
;

boundaryField
{
    sides
    {
        type            calculated;
        value           nonuniform List<scalar> 2(1.95607e-06 6.71018e-06);
    }
    empty
    {
        type            empty;
    }
}


// ************************************************************************* //
