/*--------------------------------*- C++ -*----------------------------------*\
  =========                 |
  \\      /  F ield         | OpenFOAM: The Open Source CFD Toolbox
   \\    /   O peration     | Website:  https://openfoam.org
    \\  /    A nd           | Version:  7
     \\/     M anipulation  |
\*---------------------------------------------------------------------------*/
FoamFile
{
    version     2.0;
    format      ascii;
    class       volScalarField;
    location    "0.007";
    object      rhoNMean;
}
// * * * * * * * * * * * * * * * * * * * * * * * * * * * * * * * * * * * * * //

dimensions      [0 -3 0 0 0 0 0];

internalField   nonuniform List<scalar> 
1000
(
2.445e+19
2.7325e+19
2.77071e+19
3.37786e+19
3.15393e+19
3.42357e+19
3.44929e+19
3.335e+19
3.74429e+19
3.79393e+19
3.87714e+19
3.72036e+19
3.84964e+19
3.60214e+19
4.05893e+19
3.95429e+19
4.05643e+19
4.30071e+19
3.76964e+19
4.27571e+19
4.19893e+19
3.96679e+19
3.96e+19
3.65036e+19
3.63643e+19
3.9625e+19
4.44071e+19
4.49107e+19
4.20214e+19
3.93643e+19
4.19893e+19
4.51286e+19
4.68893e+19
4.71714e+19
4.62786e+19
4.81857e+19
5.06357e+19
4.86143e+19
4.56036e+19
5.17893e+19
4.77214e+19
5.17679e+19
5.485e+19
5.56857e+19
5.06143e+19
4.93179e+19
5.17714e+19
5.18107e+19
5.00571e+19
4.67714e+19
4.68821e+19
4.8825e+19
5.13286e+19
4.76071e+19
5.00464e+19
5.14143e+19
5.57071e+19
5.20571e+19
4.75643e+19
5.02071e+19
5.06679e+19
5.48679e+19
5.17429e+19
5.64607e+19
5.23893e+19
5.11893e+19
5.0825e+19
5.65036e+19
4.73893e+19
4.66679e+19
5.59179e+19
5.4625e+19
5.37679e+19
5.64143e+19
5.71571e+19
5.59179e+19
5.6575e+19
5.4475e+19
5.78393e+19
5.68464e+19
5.29e+19
4.94893e+19
5.18821e+19
5.10857e+19
5.18714e+19
4.67036e+19
4.33786e+19
4.73214e+19
5.15679e+19
4.45357e+19
4.78357e+19
4.66071e+19
5.20607e+19
5.16357e+19
5.49964e+19
5.1875e+19
4.77964e+19
5.02393e+19
5.42429e+19
5.02929e+19
5.11179e+19
5.55071e+19
5.65179e+19
5.69571e+19
5.52679e+19
5.29429e+19
5.56821e+19
5.25786e+19
5.4775e+19
4.82143e+19
5.23214e+19
5.14679e+19
5.56893e+19
6.03464e+19
6.23286e+19
5.7325e+19
5.86214e+19
5.85429e+19
5.67857e+19
5.58714e+19
5.82143e+19
6.48464e+19
6.05464e+19
5.95179e+19
6.16036e+19
7.03464e+19
6.80786e+19
5.73071e+19
5.40071e+19
5.62393e+19
5.70357e+19
5.98286e+19
5.71179e+19
5.81607e+19
5.9e+19
7.08214e+19
6.50143e+19
6.61179e+19
6.17964e+19
6.08464e+19
5.8475e+19
5.61107e+19
5.47429e+19
5.52571e+19
5.49536e+19
5.42e+19
5.83714e+19
6.40893e+19
6.28893e+19
6.05536e+19
6.05429e+19
6.375e+19
6.60214e+19
6.39179e+19
6.26286e+19
6.27286e+19
5.87607e+19
5.83429e+19
5.85393e+19
6.52786e+19
5.9375e+19
6.81036e+19
6.70036e+19
6.35036e+19
6.31821e+19
6.45393e+19
6.50286e+19
7.04464e+19
7.26607e+19
7.21607e+19
7.55714e+19
7.56929e+19
7.73321e+19
8.22179e+19
8.21357e+19
7.86286e+19
7.61857e+19
6.74893e+19
7.31107e+19
7.79714e+19
7.67786e+19
7.6575e+19
7.02786e+19
7.18357e+19
7.19179e+19
7.93036e+19
8.56714e+19
7.64464e+19
7.53357e+19
7.70429e+19
7.78393e+19
8.7475e+19
8.6675e+19
7.55357e+19
6.53571e+19
7.00536e+19
7.75607e+19
7.845e+19
8.0075e+19
8.12464e+19
8.05964e+19
7.25643e+19
7.98071e+19
7.63964e+19
8.05857e+19
7.60821e+19
8.12643e+19
7.53679e+19
7.33607e+19
7.88964e+19
7.66e+19
8.22429e+19
7.98821e+19
7.51e+19
7.185e+19
7.6625e+19
7.68571e+19
7.63607e+19
7.84e+19
8.12357e+19
7.51714e+19
7.06393e+19
7.38964e+19
6.66e+19
7.32179e+19
7.23821e+19
7.41536e+19
7.54464e+19
7.20107e+19
6.75821e+19
7.16571e+19
7.6725e+19
7.10393e+19
7.76286e+19
6.8875e+19
7.21143e+19
7.41571e+19
6.77321e+19
7.42464e+19
7.80536e+19
7.40071e+19
7.57536e+19
6.48214e+19
7.08071e+19
6.80357e+19
6.92964e+19
7.05393e+19
7.2425e+19
7.18714e+19
7.46786e+19
7.82607e+19
7.00179e+19
7.65964e+19
7.16679e+19
7.43964e+19
7.79179e+19
7.22464e+19
7.64607e+19
7.57357e+19
7.65857e+19
8.24357e+19
7.59679e+19
7.39857e+19
7.7825e+19
7.99071e+19
8.43929e+19
7.84536e+19
8.19464e+19
7.41821e+19
7.13607e+19
7.70607e+19
7.82393e+19
7.10464e+19
7.41643e+19
7.48964e+19
7.47536e+19
7.96107e+19
7.98679e+19
7.56821e+19
7.45786e+19
7.41143e+19
7.27786e+19
7.14321e+19
6.96536e+19
7.62321e+19
7.78286e+19
7.74286e+19
7.57036e+19
6.86357e+19
6.92429e+19
6.87714e+19
7.09179e+19
7.35036e+19
7.00714e+19
6.83179e+19
7.39286e+19
6.90821e+19
7.18464e+19
7.1475e+19
7.35321e+19
7.62357e+19
6.98643e+19
7.16393e+19
7.12321e+19
6.80179e+19
7.79714e+19
7.235e+19
7.63107e+19
7.495e+19
8.19536e+19
9.05107e+19
8.06607e+19
8.69214e+19
7.96393e+19
8.1925e+19
7.81536e+19
7.39357e+19
8.03393e+19
8.015e+19
7.83607e+19
7.88464e+19
7.85679e+19
7.87821e+19
8.16036e+19
7.9525e+19
8.57e+19
8.35036e+19
7.8e+19
8.18643e+19
8.49786e+19
8.63679e+19
7.85286e+19
8.14607e+19
7.65786e+19
7.78714e+19
7.79536e+19
7.62286e+19
8.97893e+19
8.74214e+19
8.1625e+19
8.22429e+19
8.35071e+19
7.93536e+19
8.04321e+19
7.97071e+19
7.35429e+19
7.08071e+19
7.65964e+19
8.7575e+19
8.15357e+19
8.10357e+19
8.36321e+19
7.80964e+19
8.1375e+19
7.895e+19
7.13607e+19
6.67179e+19
7.66429e+19
7.26786e+19
6.7675e+19
6.97679e+19
7.70429e+19
7.28071e+19
6.81107e+19
7.0725e+19
7.42571e+19
7.07571e+19
7.94071e+19
9.00393e+19
8.025e+19
7.69357e+19
7.65036e+19
8.44393e+19
7.8225e+19
7.57429e+19
7.265e+19
7.64821e+19
8.2175e+19
8.19071e+19
7.97929e+19
7.99607e+19
8.43679e+19
8.04929e+19
7.89214e+19
7.39036e+19
8.05643e+19
7.31143e+19
7.41071e+19
7.105e+19
6.92357e+19
7.73821e+19
7.51107e+19
7.57643e+19
7.265e+19
7.05357e+19
7.61821e+19
7.36607e+19
7.5325e+19
7.65179e+19
7.57821e+19
8.26821e+19
7.63036e+19
7.78464e+19
7.92e+19
7.80429e+19
7.03036e+19
7.025e+19
7.65929e+19
7.68179e+19
8.20714e+19
8.07071e+19
7.7e+19
7.77643e+19
8.10571e+19
7.24464e+19
7.52357e+19
7.42821e+19
7.8175e+19
7.68e+19
7.94464e+19
7.76143e+19
7.52964e+19
7.55786e+19
6.84964e+19
7.16571e+19
7.61893e+19
7.62607e+19
7.84714e+19
8.01857e+19
8.22321e+19
7.30821e+19
7.72571e+19
7.78393e+19
7.86821e+19
7.9375e+19
7.56357e+19
7.47571e+19
7.43179e+19
7.61679e+19
7.52714e+19
8.12357e+19
7.71929e+19
7.46786e+19
7.49536e+19
7.92036e+19
7.89821e+19
7.96786e+19
8.25714e+19
7.58e+19
7.33643e+19
7.12107e+19
7.06e+19
7.46071e+19
7.76893e+19
7.03857e+19
7.03821e+19
7.38143e+19
7.08357e+19
6.8925e+19
6.92429e+19
6.88357e+19
7.12857e+19
7.97321e+19
6.65893e+19
6.39107e+19
6.16821e+19
5.8225e+19
6.37857e+19
6.75643e+19
6.48464e+19
6.23607e+19
6.93679e+19
7.59893e+19
7.46357e+19
7.33e+19
7.29107e+19
6.79857e+19
6.95179e+19
6.89893e+19
7.68179e+19
7.34821e+19
7.28036e+19
7.49321e+19
6.9e+19
7.31929e+19
8.05214e+19
6.92071e+19
6.78393e+19
7.18893e+19
7.11893e+19
7.30143e+19
6.47893e+19
6.98643e+19
7.33e+19
6.855e+19
6.52e+19
6.83393e+19
6.81429e+19
7.38786e+19
7.12143e+19
6.93429e+19
8.20821e+19
8.08536e+19
7.03321e+19
7.57857e+19
7.1275e+19
8.03214e+19
7.38714e+19
7.84179e+19
7.71321e+19
6.91893e+19
7.46036e+19
7.73714e+19
7.6925e+19
8.03643e+19
8.02857e+19
7.7325e+19
7.57393e+19
7.7825e+19
7.64929e+19
7.33429e+19
7.77214e+19
8.05321e+19
7.60786e+19
7.05321e+19
7.23429e+19
6.98714e+19
6.75536e+19
7.17e+19
7.58893e+19
6.64786e+19
6.68964e+19
6.73214e+19
7.25929e+19
7.68643e+19
7.38143e+19
7.10286e+19
6.08179e+19
6.3075e+19
6.70357e+19
7.42071e+19
7.26714e+19
7.01464e+19
7.37643e+19
7.79286e+19
7.39143e+19
7.87464e+19
7.73214e+19
7.60679e+19
8.27179e+19
7.9475e+19
8.05429e+19
7.68571e+19
7.28929e+19
7.52571e+19
7.06036e+19
7.91357e+19
7.51143e+19
8.22929e+19
7.38821e+19
7.20786e+19
8.35607e+19
7.9875e+19
7.86786e+19
7.59821e+19
7.29036e+19
7.50214e+19
7.63071e+19
7.77536e+19
7.54036e+19
6.80321e+19
7.34321e+19
7.55179e+19
7.00464e+19
7.22179e+19
7.4875e+19
7.37321e+19
8.31571e+19
8.04179e+19
8.20071e+19
8.23429e+19
8.135e+19
7.95929e+19
7.96964e+19
7.97036e+19
8.11107e+19
7.95714e+19
7.81464e+19
7.96643e+19
7.50821e+19
7.9675e+19
8.14214e+19
8.51036e+19
8.10321e+19
7.64929e+19
8.20321e+19
8.93536e+19
9.14214e+19
8.68607e+19
7.74357e+19
7.69857e+19
7.865e+19
8.31321e+19
8.07607e+19
8.10143e+19
7.0475e+19
7.67357e+19
7.52571e+19
7.14143e+19
7.12679e+19
7.57464e+19
7.85464e+19
8.29571e+19
7.92607e+19
7.78607e+19
8.09536e+19
8.37214e+19
8.52714e+19
8.27393e+19
8.16e+19
7.7875e+19
7.80357e+19
7.82286e+19
7.85143e+19
8.19143e+19
7.43571e+19
7.48214e+19
7.34214e+19
7.38464e+19
7.29357e+19
7.45214e+19
8.13536e+19
7.92643e+19
7.63357e+19
7.93393e+19
8.34357e+19
7.44071e+19
7.72e+19
8.32929e+19
8.37964e+19
8.52214e+19
8.03179e+19
7.70893e+19
7.50286e+19
7.09321e+19
7.16e+19
7.11107e+19
7.39357e+19
6.62e+19
7.19e+19
6.96357e+19
7.88143e+19
8.22036e+19
7.96893e+19
7.05214e+19
7.22893e+19
7.38929e+19
7.78179e+19
7.03393e+19
7.45107e+19
8.43e+19
7.66786e+19
8.19929e+19
7.64286e+19
8.1625e+19
7.88893e+19
7.93857e+19
8.03036e+19
7.39286e+19
7.22107e+19
7.39036e+19
8.105e+19
7.53893e+19
7.85536e+19
7.81357e+19
8.35393e+19
8.07429e+19
8.395e+19
7.69179e+19
7.34786e+19
7.30464e+19
8.20786e+19
7.51893e+19
7.58286e+19
7.76571e+19
8.22036e+19
7.90393e+19
8.68179e+19
8.885e+19
8.58821e+19
8.66393e+19
8.53964e+19
8.96214e+19
8.43857e+19
7.61179e+19
7.73929e+19
7.93286e+19
8.04286e+19
8.00964e+19
8.1075e+19
8.10714e+19
7.875e+19
8.025e+19
6.88464e+19
7.27286e+19
7.04964e+19
7.32857e+19
7.22036e+19
7.32286e+19
7.43679e+19
7.7675e+19
8.01071e+19
8.17143e+19
8.8575e+19
9.41429e+19
8.27964e+19
8.11464e+19
8.19179e+19
8.51e+19
8.74429e+19
8.41143e+19
8.63286e+19
8.30643e+19
8.50071e+19
8.62036e+19
8.59e+19
8.56857e+19
8.25393e+19
8.38893e+19
8.8175e+19
8.48536e+19
8.215e+19
8.21321e+19
7.68286e+19
9.035e+19
8.895e+19
9.38464e+19
9.18679e+19
8.6775e+19
8.3775e+19
8.975e+19
8.30786e+19
7.92357e+19
8.41536e+19
8.20857e+19
9.14e+19
8.895e+19
8.8975e+19
8.28321e+19
8.045e+19
8.58143e+19
9.24357e+19
9.03964e+19
8.43036e+19
9.03857e+19
9.74821e+19
9.54179e+19
8.96e+19
8.02179e+19
8.32786e+19
8.30679e+19
7.90286e+19
8.25714e+19
8.3175e+19
8.20357e+19
8.71321e+19
7.72643e+19
8.35786e+19
8.49036e+19
8.10214e+19
8.25429e+19
7.60786e+19
7.69607e+19
7.11143e+19
6.89286e+19
7.4475e+19
7.65571e+19
6.88786e+19
6.84464e+19
6.9625e+19
7.60107e+19
7.89143e+19
8.12214e+19
7.39643e+19
7.47321e+19
7.36893e+19
8.10286e+19
7.92857e+19
8.01393e+19
7.495e+19
7.2075e+19
6.86536e+19
7.25679e+19
7.4675e+19
7.07607e+19
7.16893e+19
7.06464e+19
6.94071e+19
7.25464e+19
7.11214e+19
7.05786e+19
7.25571e+19
6.46786e+19
5.93571e+19
6.36786e+19
6.92464e+19
6.97536e+19
6.28464e+19
6.30286e+19
6.70679e+19
6.61464e+19
6.71571e+19
6.80607e+19
8.13036e+19
7.73643e+19
7.64786e+19
8.40964e+19
8.74214e+19
8.07321e+19
8.01786e+19
8.29357e+19
8.48107e+19
7.57071e+19
7.70179e+19
7.65107e+19
7.53571e+19
7.78071e+19
8.41286e+19
7.76821e+19
7.335e+19
7.71857e+19
7.75964e+19
7.21893e+19
7.45214e+19
7.45679e+19
7.80429e+19
7.61214e+19
7.70643e+19
7.49464e+19
7.26071e+19
7.96036e+19
7.98321e+19
7.62964e+19
6.67786e+19
6.1025e+19
5.95643e+19
5.94e+19
6.43143e+19
6.56393e+19
6.17214e+19
6.23286e+19
6.62179e+19
6.59179e+19
6.65893e+19
7.03e+19
7.30143e+19
6.0575e+19
5.83607e+19
6.11179e+19
6.65714e+19
6.36964e+19
7.00536e+19
6.68464e+19
6.27179e+19
6.2325e+19
6.94786e+19
6.89964e+19
7.19929e+19
6.70857e+19
6.38679e+19
6.78857e+19
6.77786e+19
6.51e+19
7.24071e+19
7.24893e+19
7.19357e+19
6.11893e+19
6.38214e+19
6.56143e+19
6.56643e+19
6.37536e+19
6.7125e+19
6.41214e+19
6.2425e+19
6.94071e+19
7.35893e+19
7.78536e+19
7.23571e+19
6.81464e+19
6.59107e+19
6.44143e+19
6.265e+19
7.03929e+19
6.395e+19
6.02607e+19
6.36857e+19
6.38143e+19
6.56964e+19
6.20643e+19
5.9475e+19
6.24e+19
5.86857e+19
5.91714e+19
6.18429e+19
6.60429e+19
6.06536e+19
7.31571e+19
6.18286e+19
6.98179e+19
5.87643e+19
6.40143e+19
6.01143e+19
5.48214e+19
5.1e+19
5.81214e+19
5.67429e+19
4.96143e+19
5.28821e+19
5.385e+19
5.74214e+19
6.20214e+19
5.65071e+19
5.62143e+19
5.88357e+19
6.00393e+19
5.72071e+19
5.63857e+19
5.62607e+19
5.30929e+19
4.95214e+19
5.64286e+19
6.08286e+19
5.40179e+19
5.60857e+19
4.95464e+19
5.37107e+19
5.43964e+19
5.5575e+19
5.69643e+19
5.39357e+19
5.73786e+19
5.14214e+19
5.42964e+19
5.46429e+19
5.78893e+19
5.48786e+19
5.22964e+19
5.03357e+19
5.44143e+19
5.64679e+19
5.26643e+19
5.22714e+19
5.68357e+19
6.53714e+19
5.78179e+19
5.02e+19
4.87536e+19
5.39607e+19
4.89214e+19
4.41821e+19
4.50607e+19
4.765e+19
4.51786e+19
4.53071e+19
4.37786e+19
4.34536e+19
4.2225e+19
4.635e+19
4.675e+19
4.66571e+19
4.87357e+19
4.44286e+19
4.32429e+19
4.4625e+19
4.54964e+19
4.37821e+19
4.14071e+19
4.07429e+19
4.11036e+19
4.25214e+19
3.92929e+19
3.80179e+19
3.95357e+19
3.91071e+19
3.83e+19
3.48286e+19
3.91929e+19
4.60357e+19
3.77571e+19
3.60571e+19
3.73893e+19
3.74321e+19
3.2475e+19
3.28393e+19
3.33964e+19
3.26429e+19
3.45179e+19
3.38964e+19
3.18893e+19
3.09107e+19
)
;

boundaryField
{
    sides
    {
        type            calculated;
        value           nonuniform List<scalar> 2(3.09107e+19 2.445e+19);
    }
    empty
    {
        type            empty;
    }
}


// ************************************************************************* //
