/*--------------------------------*- C++ -*----------------------------------*\
  =========                 |
  \\      /  F ield         | OpenFOAM: The Open Source CFD Toolbox
   \\    /   O peration     | Website:  https://openfoam.org
    \\  /    A nd           | Version:  7
     \\/     M anipulation  |
\*---------------------------------------------------------------------------*/
FoamFile
{
    version     2.0;
    format      ascii;
    class       volScalarField;
    location    "0.007";
    object      translationalT;
}
// * * * * * * * * * * * * * * * * * * * * * * * * * * * * * * * * * * * * * //

dimensions      [1 2 -2 0 0 0 0];

internalField   nonuniform List<scalar> 
1000
(
134.431
204.693
206.736
214.645
141.05
142.481
217.483
208.455
214.208
150.96
215.007
215.669
149.263
226.673
229.833
232.068
224.66
234.397
240.868
241.903
243.125
228.118
153.928
222.05
222.114
223.018
161.276
245.572
240.139
238.992
240.213
156.695
201.613
225.085
252.355
254.147
167.841
258.116
260.577
173.167
259.75
255.978
169.927
251.784
251.95
247.496
243.639
162.798
236.261
209.059
121.799
238.518
161.484
230.126
232.736
159.464
158.579
119.514
157.363
230.251
232.706
160.578
226.552
232.114
231.234
231.05
166.929
225.792
226.435
162.327
228.924
230.408
231.125
229.468
226.807
226.547
166.817
171.95
234.685
235.754
238.319
238.531
168.975
168.691
167.141
235.042
236.163
239.469
249.529
251.46
257.617
264.64
264.043
190.517
224.424
236.808
288.669
311.062
309.409
218.001
303.956
296.957
296.464
283.72
276.702
277.074
277.278
275.784
269.01
270.573
265.262
268.642
244.925
217.086
248.013
249.902
251.09
251.309
190.182
200.24
279.454
199.168
274.159
274.608
279.222
198.915
199.969
202.096
292.284
291.629
166.26
292.07
292.018
294.474
159.404
292.21
206.883
206.336
276.062
223.771
279.034
271.104
263.372
261.761
192.233
272.8
276.477
285.005
285.902
282.974
199.18
277.225
277.435
276.712
197.718
184.231
216.042
251.708
186.814
243.556
258.834
187.33
262.998
264.349
263.701
191.318
193.584
270.713
269.755
270.331
262.026
189.543
255.551
256.049
187.324
251.118
184.191
253.636
254.74
242.973
176.96
178.558
141.806
250.861
251.822
253.884
188.997
276.481
195.434
274.003
272.279
270.818
151.603
193.151
264.978
265.931
195.743
269.236
268.081
259.997
261.095
256.881
194.262
256.799
256.94
258.275
258.276
197.236
158.484
196.687
269.132
281.695
284.883
282.161
209.363
209.275
209.4
212.167
290.454
213.255
285.717
285.762
278.3
279.364
282.246
285.506
280.438
211.571
280.243
206.827
272.108
271.165
269.822
200.887
259.737
259.35
250.17
249.668
242.63
243.265
243.203
248.898
251.823
194.22
256.586
205.132
263.37
263.217
207.702
207.956
271.601
210.57
278.566
271.773
272.12
277.022
281.825
279.638
279.769
283.728
281.844
279.106
273.028
270.758
198.437
270.053
269.277
271.05
268.521
267.497
265.167
263.344
264.743
266.331
265.264
265.541
269.593
272.589
273.962
276.122
277.745
134.916
275.389
276.528
276.756
276.684
276.316
276.98
277.43
203.645
278.659
279.995
281.527
282.581
208.002
280.222
277.889
208.241
209.045
279.878
166.815
280.652
280.737
281.01
211.835
282.371
280.361
276.961
274.635
275.573
278.221
278.623
277.411
276.1
275.976
274.829
273.985
206.046
275.147
272.827
271.388
271.544
274.341
274.61
208.295
279.074
222.876
280.531
199.625
258.287
198.016
276.063
274.415
203.557
274.043
206.717
280.865
279.993
279.5
208.446
279.091
164.809
272.755
272.739
208.116
276.036
275.251
276.991
275.753
276.08
275.894
274.98
274.933
276.234
206.69
279.251
209.167
283.006
274.575
269.615
269.564
264.094
260.487
196.162
257.951
197.118
201.271
206.601
273.857
275.431
278.068
276.861
271.197
206.787
271.953
269.716
207.389
271.409
272.968
273.454
274.026
276.286
277.214
271.709
266.598
266.914
266.495
266.814
199.323
200.115
201.548
197.824
259.955
260.649
197.913
261.562
203.776
273.496
203.152
201.148
203.555
273.23
273.732
275.38
206.494
276.157
206.251
276.685
277.867
205.879
164.057
201.6
268.519
202.487
269.603
204.631
226.668
188.932
270.962
269.898
269.419
210.213
274.989
281.701
279.805
280.379
283.278
262.3
208.345
282.539
282.845
286.917
284.885
283.177
285.751
271.839
271.572
198.927
199.249
268.858
268.244
248.174
247.602
264.568
281.159
202.889
280.879
201.466
280.928
280.039
202.37
283.078
279.177
278.138
277.178
277.106
277.557
282.339
283.15
198.174
155.145
264.938
254.69
252.617
262.572
262.299
261.125
260.811
269.527
152.67
151.187
276.434
266.082
260.184
258.667
192.069
260.591
259.276
250.169
245.633
246.437
259.354
193.852
194.68
263.234
193.7
262.337
266.426
266.873
270.53
274.613
274.437
283.293
276.567
284.398
211.213
288.514
164.273
280.859
283.785
283.721
202.2
271.492
275.15
274.473
205.484
270.27
278.686
282.186
279.04
273.605
266.727
274.613
211.774
283.228
283.646
210.849
270.288
271.899
208.335
285.474
291.184
299.407
296.116
296.296
293.017
293.643
293.485
171.27
290.315
288.42
286.064
139.361
211.634
285.928
288.414
292.613
169.261
290.86
216.595
298.016
295.613
214.296
297.776
301.922
299.385
286.211
287.061
215.964
279.492
281.211
169.62
272.823
271.912
281.159
206.851
206.337
300.692
307.847
307.209
304.216
282.079
280.552
209.428
208.859
279.045
279.021
208.782
277.172
273.736
275.896
278.119
210.145
268.626
206.739
262.828
253.766
257.453
260.333
281.668
284.201
284.823
284.226
283.24
280.621
211.885
170.652
272.314
207.754
266.832
264.893
262.934
261.749
261.403
257.908
259.852
260.949
261.405
258.079
260.054
200.056
261.892
265.564
270.559
204.804
271.642
166.379
207.37
268.727
271.379
273.011
204.812
273.371
272.6
274.091
204.788
281.224
285.25
285.758
285.512
286.51
212.281
303.251
311.118
309.395
186.497
300.253
298.285
283.604
214.189
283.138
284.532
208.139
269.72
203.308
269.374
270.845
270.696
210.354
281.967
282.059
292.012
223.77
216
274.679
271.552
268.542
264.477
259.651
262.754
280.839
281.063
281.747
280.46
278.082
275.26
203.457
203.389
277.687
206.765
165.954
290.885
292.923
214.754
293.759
295.56
216.611
292.617
293.656
173.424
294.167
223.414
311.237
312.338
311.274
229.719
305.699
303.358
303.043
301.723
223.976
295.235
296.314
296.501
310.411
312.219
215.715
265.782
265.637
263.968
263.491
262.847
262.389
246.091
244.5
244.768
241.223
246.671
220.268
174.935
253.337
189.153
189.227
189.457
257.003
156.154
258.189
183.483
368.64
271.319
252.085
250.727
247.359
250.032
262.244
262.091
261.678
258.901
260.033
259.627
259.215
259.58
251.91
253.267
252.763
252.502
258.516
198.101
244.371
240.865
250.811
207.575
243.183
251.283
250.621
250.592
253.191
193.497
237.285
239.383
249.4
277.629
217.741
212.433
209.074
276.106
278.94
279.445
283.422
217.332
271.679
264.216
270.085
274.357
275.86
277.199
272.965
272.581
203.89
212.15
211.602
274.042
277.185
260.806
189.153
248.621
240.511
233.913
234.158
217.613
219.971
235.38
187.221
254.284
190.215
256.833
257.927
193.205
194.619
261.221
194.271
247.859
243.587
244.097
246.349
260.946
261.936
261.992
261.279
261.561
180.522
223.14
180.778
262.975
260.956
152.754
262.732
261.988
193.92
191.624
190.894
257.865
259.035
259.579
260.098
258.455
261.942
261.602
260.875
259.718
266.903
265.533
263.385
195.393
195.396
265.114
157.907
266.478
248.965
202.019
273.627
202.626
235.767
268.577
206.719
202.856
201.168
262.624
257.48
194.557
194.539
255.988
264.281
199.838
193.368
251.847
246.693
185.264
248.52
249.705
250.015
250.956
192.583
265.131
195.287
194.957
193.109
260.482
191.353
150.956
262.385
261.722
260.406
253.926
186.773
249.963
186.431
247.403
247.518
249.469
248.775
186.068
248.044
253.258
254.137
250.632
245.377
243.559
241.724
242.346
183.134
239.214
240.071
237.82
234.415
233.877
235.893
235.682
236.536
177.877
226.573
223.965
223.389
170.009
178.263
242.996
224.005
222.324
242.357
243.015
182.655
252.031
253.472
243.822
245
242.671
181.851
242.441
253.912
254.163
256.613
264.175
183.965
258.95
258.556
261.948
184.965
184.476
258.221
253.455
146.501
243.874
145.858
240.81
237.518
172.626
236.96
244.013
173.283
235.137
238.153
174.066
246.342
255.009
254.437
251.874
253.323
177.61
214.278
210.377
175.037
245.723
172.776
242.455
242.247
245.487
244.556
244.762
245.252
173.884
244.541
225.61
224.503
228.116
248.107
179.128
268.395
182.317
266.591
182.578
137.594
264.931
270.382
271.603
272.046
179.803
269.292
269.909
173.035
230.642
229.409
226.463
227.388
228.511
227.599
228.175
152.973
152.431
119.119
213.981
229.055
214.106
212.299
201.287
196.923
170.485
169.586
128.024
133.854
199.445
199.172
134.934
135.019
199.05
201.489
222.356
220.56
213.191
142.097
206.234
206.578
208.108
212.179
214.536
215.611
194.438
129.581
196.329
197.049
196.945
)
;

boundaryField
{
    sides
    {
        type            calculated;
        value           nonuniform List<scalar> 2(196.945 134.431);
    }
    empty
    {
        type            empty;
    }
}


// ************************************************************************* //
