/*--------------------------------*- C++ -*----------------------------------*\
  =========                 |
  \\      /  F ield         | OpenFOAM: The Open Source CFD Toolbox
   \\    /   O peration     | Website:  https://openfoam.org
    \\  /    A nd           | Version:  7
     \\/     M anipulation  |
\*---------------------------------------------------------------------------*/
FoamFile
{
    version     2.0;
    format      ascii;
    class       volVectorField;
    location    "0.007";
    object      UMean;
}
// * * * * * * * * * * * * * * * * * * * * * * * * * * * * * * * * * * * * * //

dimensions      [0 1 -1 0 0 0 0];

internalField   nonuniform List<vector> 
1000
(
(-137.288 5.11681 6.31151)
(-231.947 14.4685 12.7248)
(-229.292 14.2467 14.3443)
(-220.222 6.16035 14.4746)
(-125.931 6.0134 6.71049)
(-125.363 2.79067 8.13487)
(-202.281 3.77484 16.8326)
(-182.58 -11.6999 -3.47688)
(-172.998 -16.2507 -23.2634)
(-107.08 -15.1695 -27.9814)
(-165.381 -33.6251 -44.3472)
(-163.166 -34.1258 -47.9462)
(-106.135 -18.5518 -30.0083)
(-173.987 -14.6029 -33.3687)
(-173.582 -13.9136 -34.1061)
(-172.198 -10.0935 -34.2069)
(-180.04 -7.29129 -1.04004)
(-175.87 -4.79498 -1.27763)
(-167.206 20.5625 -8.4648)
(-163.71 19.2342 -8.06978)
(-161.306 18.2301 -6.9339)
(-149.035 13.8951 -4.29705)
(-95.1725 5.85187 -2.21088)
(-140.112 9.08595 -1.27403)
(-139.601 8.38862 -0.545551)
(-140.522 5.97072 -0.402109)
(-98.3204 5.28637 -1.23233)
(-151.175 21.2362 -0.852553)
(-157.213 -4.83444 4.24692)
(-159.005 -13.2819 1.79212)
(-159.277 -11.7549 1.85014)
(-97.8569 -10.6443 11.3903)
(-116.334 -43.4855 64.0273)
(-132.441 -33.0276 36.9298)
(-153.758 -10.4227 5.64933)
(-151.865 -8.68958 6.43012)
(-95.0903 -4.30759 4.83428)
(-149.527 -7.02031 10.3039)
(-145.469 -10.5836 20.0037)
(-92.941 -8.30745 15.5906)
(-147.414 -13.4148 26.7406)
(-139.546 -16.1983 14.9987)
(-87.8498 -14.6859 2.21435)
(-130.694 -20.6488 5.43693)
(-128.986 -20.7734 5.15222)
(-129.567 -12.4243 10.2813)
(-126.06 -2.46864 12.1034)
(-82.1594 -3.87275 8.72713)
(-118.175 -14.0866 36.4091)
(-85.3885 -23.945 145.015)
(-60.535 -5.55342 7.75819)
(-120.949 -17.4752 15.7389)
(-78.6661 -11.8055 10.3337)
(-112.741 -15.9897 9.99273)
(-112.086 -14.0736 11.5833)
(-75.8623 -5.85367 14.51)
(-74.368 -4.27835 17.3913)
(-53.74 -4.18275 14.3723)
(-70.8906 -6.08083 18.1324)
(-104.973 -16.6001 27.9988)
(-100.18 -25.8641 40.6098)
(-67.3301 -17.2696 25.4843)
(-92.3907 -25.813 16.8817)
(-88.9411 -25.7463 2.21667)
(-89.61 -26.9307 -4.93313)
(-89.7021 -26.931 -5.65536)
(-63.0448 -16.7541 -4.36596)
(-89.9451 -32.7762 22.6203)
(-92.8035 -34.853 38.9362)
(-64.2247 -21.5685 25.0421)
(-91.9251 -30.9203 35.3178)
(-89.7566 -27.0845 34.8598)
(-87.0296 -23.9821 44.6583)
(-85.5482 -14.1353 48.533)
(-82.2518 -16.3808 49.9762)
(-82.7003 -25.666 50.015)
(-59.6442 -20.5001 34.8975)
(-59.3098 -27.8812 32.5839)
(-87.047 -22.3498 27.4549)
(-87.1856 -20.1466 23.9848)
(-86.7812 -17.9555 23.3883)
(-86.913 -14.6164 23.7482)
(-60.7186 -12.4106 16.2535)
(-59.4874 -12.1117 17.36)
(-55.3298 -12.3467 22.1573)
(-77.6047 -14.2502 31.9055)
(-78.8247 -16.0324 29.3334)
(-81.2547 -23.74 23.7234)
(-81.3411 -47.0211 27.2427)
(-80.069 -51.0498 28.491)
(-82.0123 -52.8053 30.8797)
(-84.1721 -56.1643 31.3414)
(-82.7651 -55.6855 32.7577)
(-58.7208 -35.8844 19.6144)
(-69.3914 -75.2893 56.7866)
(-73.6464 -75.161 46.989)
(-87.4509 -47.8836 28.457)
(-81.9402 -11.8144 36.6393)
(-84.0302 1.77978 36.1729)
(-60.4815 23.3746 31.2794)
(-86.0563 46.9742 41.8606)
(-77.2134 56.0124 27.3297)
(-76.8612 56.939 29.0263)
(-79.6008 30.5983 19.4874)
(-80.411 16.141 14.0371)
(-78.5837 17.5618 15.5153)
(-77.118 13.6412 20.6279)
(-80.6 18.8436 27.4051)
(-59.0239 -127.041 -12.3299)
(-68.9043 -32.7416 30.3467)
(-73.1386 6.68086 43.9783)
(-71.2775 -4.0775 35.3261)
(-62.0291 -4.4362 46.5466)
(-52.2317 -8.16447 76.2059)
(-60.9833 -4.13379 10.0612)
(-61.9376 -7.28569 15.2784)
(-62.1772 -6.57915 15.9)
(-61.9234 -7.99719 17.3461)
(-44.7244 -9.45037 16.7502)
(-47.5225 -7.61666 33.7887)
(-65.1773 -10.4856 48.3331)
(-45.5592 -8.12331 33.8109)
(-62.339 -13.3831 47.2343)
(-61.8058 -12.3522 47.2821)
(-63.5086 -12.6594 39.1972)
(-45.3085 -9.7095 26.3479)
(-44.7364 -8.76216 24.6555)
(-44.7219 -5.73024 22.7355)
(-60.8184 2.86256 34.4062)
(-57.6208 40.2523 19.9367)
(-31.3278 29.4685 6.63874)
(-55.6158 45.9086 2.25882)
(-54.1392 45.3239 0.192725)
(-58.9362 13.1165 14.9384)
(-32.0667 5.02899 8.66161)
(-56.587 9.05897 14.0681)
(-40.0571 4.5581 1.89248)
(-39.3952 4.1956 0.964572)
(-51.1142 8.70779 -11.9926)
(-37.5707 -31.4586 -75.7751)
(-51.3929 12.1536 -10.8806)
(-50.934 6.54508 -7.24892)
(-48.3943 4.82966 2.939)
(-48.1915 3.94894 2.03502)
(-35.6817 2.35888 0.683689)
(-49.5217 1.48482 4.94456)
(-49.847 -1.96022 -0.66445)
(-53.8634 1.89444 -10.9345)
(-56.0452 0.282606 -21.2847)
(-54.6609 1.44194 -21.8541)
(-38.5373 -1.27084 -16.3088)
(-53.637 -4.0554 -26.6503)
(-53.2328 -1.90131 -26.862)
(-52.9725 -1.02122 -28.3021)
(-38.5446 -1.15176 -20.6669)
(-35.136 5.78107 -44.5112)
(-39.5031 0.928056 -89.1183)
(-45.5266 -29.6402 -55.7496)
(-32.8042 -20.6205 -38.3277)
(-41.1558 -23.9139 -49.4837)
(-48.9829 -2.02245 -26.1222)
(-34.4798 -0.462047 -19.3272)
(-46.8245 -2.31202 -20.5707)
(-45.8156 -2.55654 -20.5968)
(-43.8187 -3.15537 -21.6741)
(-29.9638 -3.23715 -15.7219)
(-30.1693 -5.4955 -14.2654)
(-42.9582 -9.744 -20.8462)
(-42.6867 -7.3395 -22.8853)
(-41.9704 -3.96594 -22.4598)
(-40.0717 -1.01544 -24.3123)
(-27.948 -8.01596 -18.2934)
(-35.992 -7.82551 -16.7005)
(-36.3767 -9.59466 -16.6731)
(-26.1567 -7.61238 -10.9099)
(-34.8055 -7.63555 -13.2335)
(-24.3204 -4.50339 -11.8293)
(-31.063 -6.28238 -22.6246)
(-31.7065 -6.42339 -22.4312)
(-31.5859 -6.32248 -18.3902)
(-22.6756 -5.08361 -9.38715)
(-23.4401 -5.70004 -7.30241)
(-18.6418 -0.59203 -3.31165)
(-31.4909 1.32495 -7.29212)
(-32.3045 3.56526 -7.03509)
(-32.3077 8.41208 -1.49845)
(-23.7292 8.88802 1.22317)
(-34.8836 16.0705 0.322271)
(-24.6233 11.7519 -4.65118)
(-34.4638 13.394 -6.38317)
(-32.3286 3.81225 -10.3408)
(-30.7481 5.39368 -9.06092)
(-17.2781 5.98186 -7.26977)
(-22.3785 7.86108 -10.413)
(-30.6166 10.4124 -15.3264)
(-30.3158 10.8496 -14.1107)
(-22.2452 8.00693 -11.2371)
(-29.9802 6.32515 -14.8689)
(-30.4247 8.20449 -13.365)
(-29.9238 -2.83927 -9.53988)
(-27.2992 -4.05255 -16.7741)
(-26.6347 -14.1568 -14.3442)
(-20.1267 -13.3633 -8.60756)
(-25.4558 -11.0023 -15.5526)
(-24.247 -8.86347 -19.9384)
(-22.5741 -1.38573 -24.7701)
(-21.1713 0.934542 -23.8363)
(-17.0043 3.75444 -14.3202)
(-13.6247 2.16891 -10.8114)
(-15.6521 4.83732 -15.0398)
(-19.8655 22.5578 -18.6064)
(-20.5098 31.5574 -21.096)
(-19.084 32.8151 -24.2623)
(-18.1695 38.0138 -24.7983)
(-14.0088 27.0445 -18.5153)
(-13.0757 26.9652 -18.6039)
(-12.1331 26.4965 -19.0635)
(-11.985 24.7877 -25.895)
(-15.5303 39.7835 -32.4198)
(-11.5736 27.8829 -20.6242)
(-14.7374 30.0706 -24.2894)
(-15.2485 26.2111 -21.4163)
(-13.6312 21.3501 -20.9612)
(-13.3647 21.7212 -22.1907)
(-13.447 21.3291 -26.6416)
(-13.3397 21.7265 -28.6455)
(-13.2673 10.056 -28.0811)
(-10.1394 7.94238 -19.2742)
(-11.8161 10.7017 -23.5017)
(-9.27846 7.35491 -12.8443)
(-12.8052 11.7409 -16.9599)
(-12.6197 12.2885 -17.2906)
(-13.9877 5.81518 -17.0078)
(-9.52812 5.30192 -8.97558)
(-12.0421 -1.86859 9.25933)
(-11.7058 -17.9331 10.0421)
(-10.3756 -7.65346 10.9101)
(-11.1188 -7.48461 10.2903)
(-11.3517 -11.9762 4.50356)
(-10.989 -15.1549 -1.7567)
(-11.1655 -14.2202 2.19635)
(-12.275 -5.6127 -17.1365)
(-12.446 -14.3168 -27.4004)
(-9.99089 -12.3853 -13.305)
(-13.4573 -13.8121 -8.75334)
(-10.2245 -26.9517 -7.82893)
(-12.754 -34.1294 -8.80291)
(-12.3853 -33.0522 -9.64046)
(-9.06505 -26.3016 -6.17169)
(-9.89531 -22.6517 -5.07456)
(-13.5793 -27.4399 -11.3183)
(-10.2339 -15.0372 -9.60311)
(-12.5042 -14.7248 -4.61907)
(-15.0002 17.0999 2.42591)
(-15.4264 11.3228 4.12773)
(-14.3685 12.4613 3.79274)
(-13.3141 17.7619 10.0698)
(-13.8149 17.4499 16.435)
(-13.8616 14.9548 22.4825)
(-13.4647 5.80142 25.653)
(-13.4235 5.78499 24.3535)
(-13.0041 0.703921 23.4616)
(-13.7273 1.0488 13.636)
(-13.4315 -1.72754 12.7875)
(-8.65964 -1.64038 9.5928)
(-10.9634 -4.0569 13.8904)
(-12.011 -6.50223 9.99226)
(-12.6644 -3.7323 10.0825)
(-13.6538 -5.29536 6.68056)
(-13.1173 -5.07975 6.39525)
(-13.1938 -6.31876 4.24801)
(-13.6117 -9.11476 4.20532)
(-12.9787 -10.129 6.33812)
(-12.7593 -11.7594 8.61508)
(-12.8501 -9.05126 11.0914)
(-12.5457 -10.2488 5.37976)
(-11.5695 -15.1806 4.98005)
(-12.897 -17.7343 5.71885)
(-14.0203 -13.8254 5.36378)
(-14.4604 -10.3832 0.402733)
(-14.0904 -8.25866 1.77399)
(-7.04902 -1.03923 -0.0785997)
(-16.6611 1.73153 -1.04525)
(-15.0308 3.23482 1.63421)
(-16.7648 2.41904 2.71473)
(-18.5861 0.933119 3.01121)
(-18.729 -0.0396809 0.262326)
(-17.5993 -4.01747 0.849011)
(-17.1685 -3.80073 3.53011)
(-11.8665 -8.71945 0.869456)
(-15.6636 -12.4692 0.0930709)
(-16.1706 -12.7267 -1.5805)
(-15.2994 -15.4335 -3.56724)
(-15.7838 -18.2567 -0.485892)
(-12.5607 -14.3184 -0.674238)
(-16.4693 -19.4958 -1.41918)
(-16.4834 -18.7053 -0.686943)
(-10.3165 -16.8483 8.51686)
(-11.0847 -19.4971 12.4851)
(-14.1572 -23.5834 17.6038)
(-8.07879 -13.2858 11.0551)
(-13.9721 -23.0114 17.3957)
(-14.0073 -24.2267 13.6481)
(-14.0186 -24.0106 12.2859)
(-10.4088 -15.569 3.03433)
(-13.5153 -17.9108 3.57826)
(-12.5585 -37.0035 -0.531353)
(-13.0605 -40.6977 -3.74807)
(-13.8732 -45.6923 -1.46878)
(-15.9765 -42.054 -2.81244)
(-17.6319 -42.0833 -4.45116)
(-18.0565 -44.6181 -6.10304)
(-17.9978 -43.2931 -7.66999)
(-18.4175 -30.1288 -16.6972)
(-18.8315 -10.4247 -26.9709)
(-17.7573 -7.71089 -18.8156)
(-17.5691 -8.03316 -17.2186)
(-13.8775 -6.93035 -10.6764)
(-18.7783 -10.1942 -20.6458)
(-19.2541 -10.0968 -20.1336)
(-21.4532 -7.85239 -17.4968)
(-23.0834 -7.84665 -16.9861)
(-22.8674 -3.11001 -16.923)
(-22.5891 -1.17548 -16.0629)
(-17.2011 -4.76929 -10.2941)
(-23.8036 -11.3983 -8.72048)
(-13.7814 94.2463 -41.7125)
(-22.7604 -12.2017 -8.1278)
(-16.016 -29.8936 -12.5795)
(-20.2386 -35.4468 -11.7117)
(-15.9373 -21.656 -4.99956)
(-22.7383 -5.50089 7.46143)
(-22.3735 -10.0925 9.05704)
(-14.8002 -9.06179 6.64288)
(-20.0358 -11.7811 9.91825)
(-14.7609 -8.19459 10.72)
(-20.3146 -9.70972 19.903)
(-19.8759 -13.2474 22.5296)
(-20.1526 -15.7785 21.3061)
(-14.5831 -10.1448 12.8227)
(-19.2703 -9.34458 19.6229)
(-11.214 -6.01101 13.8484)
(-16.1562 -13.8933 28.285)
(-14.6199 -14.8311 29.0117)
(-9.55105 1.36525 17.6738)
(-12.146 15.9386 22.0447)
(-11.058 20.6919 18.5643)
(-9.91022 23.0188 17.939)
(-10.8478 24.1261 21.7419)
(-11.2476 -0.741694 23.9373)
(-12.0512 -11.6446 25.8229)
(-11.2788 -11.9072 26.1142)
(-10.3715 -9.02286 24.3228)
(-9.98756 -5.09692 21.9082)
(-7.99749 2.32846 12.8389)
(-11.0667 5.93192 16.7442)
(-8.9272 -1.7657 16.999)
(-12.3884 -9.31236 26.7248)
(-10.1256 -15.8083 30.4936)
(-8.69201 -18.5364 28.565)
(-8.28278 -14.1038 28.5859)
(-7.65666 -12.0216 37.6886)
(-7.34224 -14.3763 43.541)
(-5.709 -11.7264 33.4316)
(-6.59469 -13.5139 45.5043)
(-5.36566 -10.7421 33.4895)
(-6.84696 -7.00134 33.4236)
(-7.09688 -11.3031 31.9926)
(-9.93219 -20.96 36.9702)
(-9.98772 -21.4091 33.5572)
(-8.49297 -18.6845 31.8634)
(-9.2392 -23.6829 31.6492)
(-9.26368 -25.1923 30.5208)
(-6.38246 -19.798 18.9741)
(-6.12525 -33.2748 14.0745)
(-6.55479 -35.9352 15.5785)
(-6.21633 -29.1441 12.5853)
(-8.26649 -32.5164 19.4933)
(-8.35086 -31.2033 25.7364)
(-7.8627 -33.1292 28.0308)
(-7.98891 -31.3634 27.9953)
(-7.01173 -21.9427 23.7641)
(-5.73173 -18.2489 22.4199)
(-7.33471 -5.2188 27.5726)
(-6.55846 1.29733 32.2313)
(-6.44613 -2.22683 26.6951)
(-6.08344 -4.66919 23.2831)
(-6.48766 -4.17342 21.9491)
(-5.2976 -3.10508 15.9801)
(-4.47615 -1.32064 16.9011)
(-3.4827 2.94 16.043)
(-2.64526 11.0137 8.08164)
(-4.00489 24.9987 10.2164)
(-3.57879 25.992 9.50117)
(-3.35279 21.3606 6.14116)
(-5.12093 28.6891 6.72259)
(-4.80101 9.04573 23.0251)
(-6.03523 13.0598 27.3618)
(-4.50091 10.6099 22.1736)
(-4.34707 15.9912 30.0978)
(-3.70705 15.778 29.9955)
(-4.73309 22.0295 39.8099)
(-4.44374 20.9266 41.594)
(-5.16469 18.2755 39.0285)
(-4.23008 13.6226 24.7514)
(-4.59101 17.7062 28.6133)
(-2.99238 12.9325 19.3219)
(-3.5573 11.9456 15.7803)
(-4.27799 9.7622 7.15055)
(-2.58127 7.54627 3.60391)
(-1.59933 5.30828 4.6647)
(-0.996747 4.8653 6.22958)
(-1.54293 2.72437 10.3575)
(-0.445024 2.50353 7.25662)
(-1.55961 1.21355 -2.85519)
(-1.53905 -0.759561 -7.45577)
(-1.71991 0.772712 -10.1668)
(-1.79139 -4.0764 -13.0635)
(-1.64297 -4.75569 -21.9747)
(-1.11287 -14.761 -24.6263)
(-0.29184 -42.328 -26.2394)
(0.601005 -32.9923 -18.7241)
(0.906341 -42.0816 -25.5182)
(0.371232 -16.1513 -23.6879)
(-1.46128 -2.49717 -18.0999)
(-4.29828 -3.83011 -15.2152)
(-4.64936 0.0232324 -14.0552)
(-3.90895 8.71984 -94.253)
(-2.36827 3.61094 -44.9911)
(-2.89514 4.29311 -11.0156)
(-2.08566 0.713144 -13.8106)
(-3.26766 2.18018 -3.89993)
(-3.6274 -0.310777 -1.12608)
(-3.37238 0.160907 1.12842)
(-1.89051 -1.86355 2.33033)
(-0.651155 -6.27598 -0.894303)
(0.261756 -7.19957 -5.23207)
(0.781901 -7.1392 -2.10779)
(1.26369 -7.25626 -1.47582)
(2.30438 -7.72025 -3.1219)
(1.14905 -4.40577 -4.96576)
(1.72091 -8.98772 -39.545)
(0.490144 -10.5834 -55.6499)
(0.559309 -3.19037 -35.3978)
(-0.674558 15.2178 -12.527)
(-0.438516 11.4437 -8.57553)
(-0.993148 16.0367 -10.2831)
(0.265204 7.20197 -4.08969)
(1.37369 13.3902 -3.95025)
(0.829221 13.284 -0.17381)
(0.827005 9.64527 0.251717)
(1.9026 10.6386 -1.62971)
(1.85893 14.2766 -1.48121)
(2.34491 15.5185 0.20692)
(4.96909 15.5426 0.57671)
(5.46526 14.9473 0.985225)
(5.63242 13.5592 3.20658)
(5.96903 12.2294 8.221)
(3.83025 11.8593 8.60825)
(2.1847 -2.12696 8.71937)
(0.791738 -4.75083 7.64089)
(0.0468884 -12.4775 13.6127)
(-0.308294 -12.0159 22.9592)
(0.551988 -6.54162 31.5778)
(-0.0991176 7.4406 30.3717)
(-0.782499 5.4206 31.4323)
(-2.62277 3.10693 31.8584)
(-2.63562 3.62683 30.1655)
(-3.56311 10.5898 18.7504)
(-2.00567 5.96336 10.2416)
(-2.35946 1.67078 12.304)
(-3.06099 -109.813 129.071)
(-6.02846 4.36312 49.2624)
(-5.72184 15.3105 37.8316)
(-5.42336 17.3357 34.5968)
(-5.12713 12.7323 25.0134)
(-7.13665 14.3385 35.0525)
(-6.20285 14.6235 35.0134)
(-6.68706 -0.399957 43.8304)
(-7.48463 -13.2664 63.9208)
(-7.28198 -11.5523 63.4967)
(-6.8727 0.355211 14.1301)
(-4.83483 1.10413 9.44634)
(-4.1928 1.00389 8.4292)
(-6.42873 2.13893 11.0624)
(-4.39802 1.98881 8.07654)
(-5.63162 3.29813 14.8725)
(-1.89516 2.05405 17.3744)
(-0.0936254 -5.50356 15.7689)
(0.989317 -3.5578 16.3409)
(2.17003 -1.80441 15.1962)
(1.41493 -3.74078 14.6419)
(1.01949 -53.2308 62.3667)
(0.471198 -102.11 124.275)
(0.165806 -47.9562 33.9015)
(0.426954 -33.928 23.1963)
(-0.618094 -47.2182 23.9554)
(-1.36953 -14.5633 3.47187)
(-2.21433 -12.5285 0.486784)
(-1.23294 -12.1443 1.68448)
(-0.132625 -13.7689 -2.04089)
(-0.839745 -9.59581 1.6734)
(-0.651827 -10.8437 3.54188)
(0.229245 -11.5289 7.26916)
(0.488846 -9.98937 6.40124)
(0.647404 -6.4202 4.92644)
(-0.159594 -14.0345 10.3469)
(1.31464 -14.4838 7.40587)
(2.50362 -13.4839 -0.729696)
(3.39875 -10.8223 4.71947)
(3.83869 -16.5261 -2.76914)
(4.48961 -25.9258 -14.9767)
(4.68868 -21.4461 -18.8884)
(3.31445 -12.3319 -15.6244)
(4.38916 -13.2342 -17.3575)
(3.45712 -5.20769 17.4736)
(0.714951 -3.92068 14.1924)
(0.434946 1.71547 11.268)
(0.612878 -4.23445 10.6509)
(0.135542 -0.777943 3.74897)
(-0.804998 5.11307 -13.2385)
(-1.74006 3.49223 -6.7796)
(-0.964418 1.0309 3.39834)
(-0.337776 -1.08252 6.68892)
(0.983763 -2.55585 7.49616)
(1.21983 0.639667 6.92143)
(2.83283 -1.96714 -5.75327)
(3.06149 -4.41898 -5.61633)
(2.10362 -4.44073 -5.74964)
(4.39775 -12.5298 -13.0785)
(4.90342 -4.34517 -14.2131)
(4.55495 -2.30932 -9.11978)
(1.60554 -1.77727 -5.42023)
(2.67861 -3.88787 -8.27951)
(4.54689 -5.46992 -10.404)
(5.90071 -5.08923 -7.7637)
(6.55579 -4.78323 -7.24335)
(3.84754 -3.6215 -4.71125)
(6.56998 -8.7203 -7.08303)
(4.81177 -7.70574 -5.81824)
(7.42858 -11.6783 -7.60485)
(9.08454 -8.60422 -8.8329)
(7.79055 -4.30241 -8.81122)
(8.45034 -26.7121 -11.4313)
(9.03016 -42.5569 -13.6842)
(9.66173 -49.8026 -12.9752)
(10.6144 -59.74 -0.628896)
(12.6222 -61.3806 -1.08384)
(9.30469 -42.1169 -1.42063)
(12.9679 -25.8448 -4.1842)
(12.9902 -30.471 0.244602)
(8.11639 -18.4425 -5.27771)
(12.1278 -79.7127 9.82142)
(11.5436 -64.8624 -2.32643)
(11.6003 -7.99792 -22.1824)
(8.00497 -6.73046 -15.0861)
(7.83724 -6.99636 -15.776)
(10.6792 24.6214 20.0685)
(9.69753 40.8964 29.4369)
(10.2074 42.2383 31.7449)
(11.9074 32.0163 23.9782)
(13.0702 0.542585 -16.5062)
(13.4276 4.71944 -18.4574)
(9.97262 4.54939 -12.2894)
(10.1394 4.4215 -11.9339)
(14.501 8.98494 -17.7209)
(14.4144 10.6445 -18.916)
(10.2049 6.64928 -15.1022)
(12.297 50.9783 -43.1896)
(10.2027 79.3332 -52.4197)
(11.4998 10.1475 -3.93438)
(12.6374 8.72633 -7.32084)
(10.6779 -0.127877 -11.6157)
(14.2811 10.165 -10.8382)
(9.96558 9.30226 -7.51915)
(11.8315 4.7584 -11.5773)
(11.3877 -5.78168 -14.0791)
(11.0971 -7.49191 -10.0557)
(9.70948 -5.28073 -6.8416)
(10.4102 4.4598 11.0763)
(12.3498 6.905 18.0665)
(13.3002 8.17259 18.4175)
(13.9423 9.62755 17.7873)
(14.7058 9.53946 17.247)
(14.8444 6.02412 20.107)
(10.5256 4.68657 13.5072)
(8.28151 2.9597 8.91623)
(13.2817 -5.15631 1.21854)
(9.96393 -2.05383 0.317705)
(11.464 1.78274 -6.17279)
(11.0642 1.43373 -6.65655)
(10.1529 -0.0139506 -1.22537)
(9.47169 -0.179825 -0.147846)
(9.33936 23.0868 15.4654)
(9.12142 28.9107 8.4223)
(8.23167 34.7526 9.07)
(8.4842 34.1181 8.09781)
(8.88991 34.7201 8.17623)
(8.55626 35.8988 10.4798)
(8.1064 35.879 8.27471)
(5.96635 27.665 4.9297)
(7.58227 34.2866 4.03121)
(7.98028 31.9934 -6.42144)
(7.80272 25.8037 -7.6203)
(5.46857 20.237 -5.70638)
(7.88238 25.0114 -10.4318)
(4.99547 13.0128 -6.21513)
(6.42369 17.9305 -7.39706)
(9.0813 28.8792 -8.97313)
(9.69022 26.8524 -11.8537)
(10.1465 24.6235 -13.8035)
(7.16052 17.4171 -12.8586)
(9.57735 23.0936 -17.2729)
(10.1503 23.7362 -13.9962)
(11.4575 17.9364 -27.5278)
(8.94552 14.8535 -22.3495)
(12.3664 13.2757 -32.6417)
(12.9138 8.04021 -29.7883)
(11.8242 5.68701 -29.028)
(11.8164 2.59658 -28.3333)
(12.9255 -5.13497 -23.9759)
(9.13021 -6.2506 -16.2754)
(12.1335 19.7809 -14.9175)
(11.6922 37.8757 -8.97188)
(12.2552 39.8493 -11.6468)
(7.9918 27.5464 -17.6001)
(14.2981 52.3946 -31.6927)
(15.436 56.0002 -32.4642)
(15.2616 25.1138 -42.3042)
(12.8114 16.1189 -35.4268)
(16.2623 21.672 -41.3987)
(17.877 23.6924 -21.2773)
(12.8261 23.0652 -16.7031)
(16.7863 32.8159 -24.4387)
(13.2378 30.4798 -17.1779)
(16.7183 37.3178 -20.7065)
(17.7558 34.2255 -22.2431)
(18.818 35.9429 -20.326)
(15.1548 22.9998 -29.1106)
(18.8583 23.8507 -59.402)
(19.2171 26.3941 -59.2618)
(21.221 24.642 -54.1879)
(15.0829 19.1636 -41.3681)
(14.7455 39.9911 -10.9281)
(19.3057 79.4479 13.786)
(18.9983 74.2548 13.0174)
(20.9982 33.2705 -5.69766)
(19.5357 30.8697 0.483703)
(19.584 21.0312 5.09667)
(17.5205 17.1262 4.49723)
(17.8227 7.83632 0.598078)
(18.6729 7.6514 -0.625567)
(19.4906 8.62572 -7.33455)
(19.4288 15.4213 -11.9581)
(19.4573 16.4584 -11.4112)
(18.4194 18.6236 -11.0636)
(13.5201 13.8438 -7.67881)
(13.9774 10.9795 -10.6067)
(20.295 14.428 -11.1772)
(15.4126 8.13881 -7.00383)
(11.573 7.62245 -6.85621)
(18.1275 20.5438 -10.2688)
(17.6421 19.5838 -8.93448)
(12.8022 13.3055 -6.09694)
(17.2362 15.7807 -7.74016)
(17.8474 -1.56222 -3.10902)
(13.501 -10.8412 -3.05778)
(18.241 -19.9214 -2.16346)
(18.3651 -21.1905 -0.232503)
(9.70363 -12.7552 2.73515)
(14.9932 -20.789 13.9309)
(11.6979 -9.60015 9.90497)
(15.5907 1.67027 3.77429)
(16.4684 3.47822 3.4746)
(17.5196 25.7466 -4.31339)
(12.2219 19.6809 -2.27515)
(15.2982 27.6609 -0.0650013)
(15.7538 28.5106 1.31792)
(16.3541 26.7563 3.69967)
(16.4081 25.749 3.65121)
(12.7269 18.9352 1.2249)
(15.7192 25.2328 0.470883)
(16.8399 24.706 0.561544)
(17.846 24.2872 4.89776)
(15.561 29.1796 87.0768)
(15.7642 28.779 108.722)
(14.5508 5.96286 8.06967)
(18.3442 -11.2197 11.712)
(18.6426 -10.859 12.6657)
(19.2795 -10.6443 8.22511)
(20.0963 -8.99186 2.73988)
(20.2339 -6.75883 1.85558)
(20.8633 -3.92297 2.67475)
(17.8224 2.58779 18.3721)
(16.04 -0.982397 19.9837)
(16.0309 1.5879 22.8477)
(16.172 1.97248 19.5276)
(17.2552 1.76714 22.343)
(15.9961 -8.2626 -9.34478)
(14.0078 -6.04059 -13.0826)
(21.3538 4.93715 7.19089)
(17.3961 3.39921 4.59889)
(17.0078 0.893763 1.59519)
(15.6278 -4.28516 -5.15421)
(21.1688 -7.69425 0.989834)
(13.2804 -3.1829 0.867221)
(22.7186 -0.70018 5.40116)
(11.9667 46.8876 84.5963)
(19.4917 148.093 123.579)
(26.5376 3.9197 0.880027)
(24.3457 -2.0549 15.8728)
(26.2661 -0.0493012 13.7081)
(27.0781 -0.10836 16.8901)
(26.2923 11.8362 24.8224)
(28.3843 19.4416 10.3214)
(27.9002 15.9406 8.14344)
(26.9343 16.6505 7.18998)
(27.1696 17.9109 10.2358)
(25.7382 17.1737 10.285)
(26.9527 16.7771 12.343)
(27.2732 17.2513 14.5555)
(27.1325 19.2806 17.3831)
(24.4092 37.6917 46.1909)
(24.2085 35.6042 48.6324)
(24.3069 33.7728 46.3488)
(24.5829 24.7552 42.7576)
(25.1898 10.8268 27.656)
(19.7016 3.6628 21.9986)
(24.3895 -30.1325 40.6328)
(25.1684 -25.1009 38.7315)
(28.2891 7.42921 30.0541)
(23.6857 -10.9499 17.0154)
(29.1079 21.4976 22.3509)
(29.096 28.5654 23.0073)
(29.3266 25.554 23.8765)
(28.9524 26.4226 27.2964)
(29.3449 32.091 36.2155)
(22.8176 27.4986 38.7957)
(27.9573 26.5004 50.4976)
(29.1195 20.9779 54.5568)
(29.7204 19.9189 52.8178)
(31.3208 11.0162 59.1761)
(23.4698 5.52174 44.842)
(24.1555 -7.218 27.004)
(23.4512 -9.77193 22.8898)
(30.1395 -19.7663 49.4521)
(29.0551 -24.8667 62.4473)
(27.7558 -25.7487 64.8409)
(26.7134 -31.8765 69.0928)
(20.4337 -22.5658 46.6033)
(26.7798 -13.1351 48.9019)
(27.9557 -4.01273 17.2946)
(28.7195 -2.00382 21.7991)
(30.3148 -2.21711 24.645)
(31.4014 -4.35834 26.8203)
(31.9323 -2.60057 24.9476)
(30.6703 12.9173 43.2624)
(31.0502 13.9913 45.4159)
(23.7659 10.2289 36.3543)
(21.8464 1.73476 65.967)
(21.8759 2.20793 67.6142)
(28.6639 5.95518 89.4734)
(29.2079 -5.47507 78.0734)
(30.7151 -3.34182 55.0015)
(24.4288 1.07222 24.3863)
(32.8556 1.24841 29.4685)
(32.209 4.87659 39.5008)
(31.3674 5.00584 45.7859)
(30.8699 1.71136 43.5172)
(28.5451 4.74768 29.3744)
(28.294 1.038 20.2535)
(30.2494 -7.02591 5.94083)
(23.9924 -6.63964 3.88914)
(34.9328 -8.65385 4.49642)
(27.1908 -8.04324 4.51168)
(35.9733 -15.3704 13.6738)
(36.4147 -12.1399 11.7202)
(27.6195 -7.6623 7.7172)
(29.2019 -6.37631 5.42174)
(41.19 -6.99999 1.25683)
(31.5801 -5.04703 3.85277)
(39.445 -24.0864 -0.193357)
(38.6546 -30.5644 -1.80428)
(40.0264 -31.0322 2.16926)
(41.3835 -23.966 8.62336)
(46.6648 -8.32936 19.0412)
(46.6795 -12.9449 21.8829)
(48.3219 -15.1787 23.4474)
(48.6784 -19.8184 20.0641)
(48.3702 -20.3999 14.9357)
(33.4205 -11.6212 7.55972)
(43.5892 -11.7803 7.14778)
(34.7153 -10.2571 5.06783)
(51.3448 -15.4953 6.08083)
(51.0318 -14.4867 1.66382)
(29.1862 -6.38263 3.67532)
(51.6501 -11.7334 3.02557)
(50.8315 -12.17 2.34761)
(34.9033 3.41186 2.7242)
(33.2134 4.25812 5.92817)
(33.1836 4.2109 8.71255)
(43.2576 1.12397 9.36177)
(43.4741 -2.08387 5.78012)
(43.2677 -5.42611 1.9305)
(44.1397 -5.10445 -1.34536)
(45.4082 -6.29007 4.64192)
(47.6435 -21.333 2.43972)
(47.7202 -21.4887 0.332116)
(45.4679 -24.2928 -5.67226)
(42.9163 -20.4223 -7.5378)
(45.6812 -20.6943 -11.442)
(44.9556 -20.3538 -14.4867)
(42.403 -19.7958 -14.1362)
(31.9057 -15.0516 -12.1955)
(31.1064 -15.9584 -13.915)
(40.278 -2.63524 -26.6856)
(23.6111 -1.3225 -15.4463)
(40.9452 -4.59047 -21.6157)
(31.088 -119.272 -56.965)
(31.2841 -1.95388 -5.3638)
(39.4125 -28.428 -1.02524)
(28.2945 -13.258 6.39584)
(32.0365 -3.68371 26.6114)
(39.499 -50.089 13.1926)
(30.3926 -36.8421 13.0515)
(30.0582 -31.206 9.18258)
(29.4231 -28.5626 7.30842)
(39.2354 -37.0884 8.89459)
(41.6694 -22.5696 6.47081)
(31.9401 -16.6714 4.85733)
(32.2831 -14.4196 5.49014)
(43.2717 -14.2432 8.08031)
(47.4065 -20.2189 19.3664)
(36.7636 -20.421 10.52)
(34.7136 -22.3485 10.5326)
(45.8467 -33.7396 14.5394)
(48.5718 -34.8199 14.2862)
(37.6886 -25.2222 5.51697)
(51.9093 -36.6043 2.04385)
(51.9635 -39.5549 3.46187)
(51.9469 -44.8113 3.41467)
(53.4694 -46.7946 3.63077)
(41.3132 -33.4253 1.70446)
(57.6773 -43.6554 -2.54052)
(41.2243 -35.2594 -1.88551)
(40.9339 -36.0335 -2.07201)
(41.5442 -33.8596 -3.39724)
(56.2094 -47.775 -5.95519)
(41.4497 -34.4054 -2.90518)
(33.9589 -25.4962 0.381392)
(60.5792 -38.1396 -3.39101)
(60.674 -31.5103 -5.76888)
(63.0161 -33.7713 -6.78443)
(61.3199 -31.2201 3.06664)
(46.081 -19.5001 3.07957)
(63.3346 -21.093 0.738789)
(47.2586 -11.9641 -1.13954)
(63.913 -11.6433 -4.57339)
(62.5149 -9.91373 -5.23015)
(62.084 -12.6399 -2.88107)
(63.2612 -11.7267 0.057791)
(47.1377 -7.30724 -1.23955)
(63.7224 -4.21059 -2.53364)
(56.9261 50.5868 18.4615)
(53.785 64.4571 19.4891)
(55.3348 51.9554 20.1552)
(61.3228 6.4666 13.2825)
(61.8598 6.03795 7.35826)
(61.8891 6.81215 7.12235)
(62.4145 6.24324 9.05887)
(47.8091 8.04106 7.64971)
(63.5786 16.031 11.7879)
(63.0627 22.6884 12.3185)
(64.1002 18.2545 11.5958)
(65.4678 7.711 10.4108)
(66.14 10.4276 11.3789)
(65.1732 14.2101 5.5709)
(66.836 11.0852 1.60899)
(66.6343 14.4724 6.31716)
(49.9572 12.6468 7.05574)
(64.5529 31.9344 13.7289)
(63.9729 36.7249 13.7423)
(63.3298 35.8014 14.5853)
(48.1311 27.3449 11.3176)
(50.2964 16.9544 10.869)
(69.8191 15.2212 11.8027)
(59.8381 13.2216 -43.7244)
(60.3026 15.7889 -43.2554)
(72.1647 22.679 10.0407)
(71.7865 25.6429 18.9664)
(53.6315 16.3241 19.3166)
(70.4974 14.2717 21.105)
(72.0626 11.9155 22.9576)
(69.2157 -6.95547 32.8636)
(71.932 -7.91662 33.4853)
(72.1713 -10.8378 34.8296)
(54.5787 -9.59952 28.045)
(73.0738 -12.8142 35.9653)
(82.5605 18.9932 23.1076)
(84.4349 21.2145 18.75)
(86.6805 8.76287 18.0425)
(64.4265 -103.04 165.631)
(65.5664 -8.72544 18.6364)
(92.241 -11.7761 27.6637)
(93.1272 -11.8806 30.0594)
(93.7862 -10.5091 27.9917)
(65.5001 -8.58979 19.5585)
(64.6633 -10.6662 21.848)
(91.1586 -13.9385 37.582)
(84.4338 -6.55495 67.4608)
(47.5307 -2.62969 37.5275)
(78.0365 -12.532 53.1204)
(45.4506 -7.31877 30.8973)
(79.7702 -12.7487 41.6378)
(84.5698 -15.7575 2.37891)
(60.9002 -15.7809 1.44061)
(83.6759 -21.8365 1.59531)
(87.4697 -12.4117 6.41482)
(62.2433 2.23736 3.06955)
(87.6242 3.93536 5.97639)
(89.6721 -0.276359 -6.91935)
(64.6493 -0.750974 -5.46407)
(92.2546 -10.0771 -6.89178)
(97.4697 -20.6349 -4.96727)
(98.6922 -19.1273 -3.93953)
(99.7236 -19.2565 -4.67956)
(100.847 -22.9856 -4.57218)
(70.9253 -15.5242 -3.95919)
(84.724 -0.741283 15.1496)
(84.0819 0.543007 17.757)
(73.9059 -17.8189 -5.57978)
(108.126 -21.7919 -5.87972)
(76.0556 -14.1825 -3.62099)
(109.039 -23.1402 -5.89357)
(109.004 -20.9035 -6.6889)
(109.421 -17.4108 15.169)
(112.906 -15.865 17.3819)
(114.152 -18.3213 15.4366)
(115.345 -23.4335 12.4657)
(81.4379 -17.115 12.3322)
(117.398 -24.1215 21.919)
(107.619 -9.33357 49.0984)
(106.545 -6.27772 45.8829)
(111.516 -4.61688 48.0506)
(125.185 -13.9179 28.0114)
(84.1498 -2.92134 27.2336)
(126.848 10.0697 31.6004)
(87.0046 3.75785 18.0626)
(130.623 4.58393 27.7522)
(88.3514 2.73377 22.3241)
(66.6118 3.10215 17.8781)
(136.311 10.2687 32.9649)
(142.149 4.96653 28.647)
(147.309 3.19426 27.5307)
(147.839 6.50265 29.3394)
(95.875 7.50974 17.9092)
(147.102 1.30524 20.9581)
(149.367 -4.48198 15.2735)
(98.1493 -5.62204 4.23308)
(160.8 -25.6946 -13.1424)
(161.137 -23.9868 -13.3532)
(165.408 -22.7163 -17.1837)
(168.283 -20.1556 -21.7757)
(171.821 -15.0823 -19.2086)
(176.381 -13.1379 -19.5611)
(175.719 -7.25917 -20.395)
(106.663 8.3256 -14.554)
(106.582 8.55392 -15.7661)
(79.6521 -2.42899 -37.3639)
(159.148 13.935 -18.7796)
(147.477 -23.6505 -53.594)
(130.411 -54.58 -81.5151)
(130.037 -57.4634 -81.9622)
(151.606 -20.7483 -23.4931)
(159.717 -10.432 -7.42301)
(119.467 8.16498 38.4679)
(123.01 -10.2524 7.08458)
(103.293 -25.4103 -28.4847)
(115.057 -12.9092 -7.69905)
(190.651 -18.9353 3.51699)
(190.657 -19.9476 3.87383)
(120.246 -11.7904 2.17354)
(121.529 -11.4894 2.34688)
(192.992 -17.0617 3.00608)
(192.031 -16.5268 -0.131772)
(186.55 -7.86502 -33.3777)
(193.392 -2.36505 -45.2683)
(190.712 4.8004 -52.0457)
(120.752 8.11311 -35.3338)
(195.502 13.4295 -57.1654)
(201.37 15.7102 -60.6222)
(200.882 22.3367 -60.9646)
(210.087 27.039 -59.1914)
(216.605 28.2598 -57.6459)
(221.876 28.2734 -52.4712)
(238.691 24.4618 -29.6887)
(147.646 10.3017 -11.4661)
(263.963 14.1518 -21.1697)
(263.592 14.5401 -23.3964)
(261.282 15.5626 -30.9013)
)
;

boundaryField
{
    sides
    {
        type            calculated;
        value           nonuniform List<vector> 2((261.282 15.5626 -30.9013) (-137.288 5.11681 6.31151));
    }
    empty
    {
        type            empty;
    }
}


// ************************************************************************* //
