/*--------------------------------*- C++ -*----------------------------------*\
  =========                 |
  \\      /  F ield         | OpenFOAM: The Open Source CFD Toolbox
   \\    /   O peration     | Website:  https://openfoam.org
    \\  /    A nd           | Version:  7
     \\/     M anipulation  |
\*---------------------------------------------------------------------------*/
FoamFile
{
    version     2.0;
    format      ascii;
    class       scalarField;
    location    "0.004/lagrangian/dsmc";
    object      Ei;
}
// * * * * * * * * * * * * * * * * * * * * * * * * * * * * * * * * * * * * * //


100180
(
1.51355e-21
5.19895e-21
1.03765e-21
9.521e-22
2.233e-21
5.83603e-21
1.53605e-21
3.39941e-21
2.71028e-22
1.08529e-21
5.10653e-22
1.43469e-21
5.40462e-22
8.65572e-22
5.79009e-21
5.58196e-21
4.64886e-24
2.17557e-22
1.26252e-22
8.85836e-22
1.79351e-21
1.75486e-23
4.64735e-22
3.95807e-21
2.8449e-21
3.67488e-21
1.15262e-21
1.20009e-21
2.18052e-21
2.8301e-21
6.23853e-22
3.33904e-21
2.57794e-21
1.24244e-21
6.07793e-21
1.66931e-21
2.77533e-21
5.21319e-22
4.46608e-21
6.41445e-21
3.23996e-21
9.02874e-22
3.3153e-21
6.22662e-22
5.26296e-22
2.16856e-22
5.04939e-21
1.2277e-20
2.24275e-22
2.44445e-22
2.76413e-21
1.75652e-21
2.4091e-21
3.82313e-21
2.5811e-21
2.88884e-21
1.53225e-21
1.07905e-20
3.06329e-21
3.90348e-21
4.76514e-21
9.39818e-21
2.53248e-22
7.16009e-21
8.48598e-22
1.86106e-21
1.38101e-21
2.15386e-22
2.65436e-21
9.25027e-22
1.56926e-21
7.17816e-22
9.68576e-22
9.21568e-22
4.07299e-22
7.55549e-21
6.68981e-21
2.66037e-21
6.65239e-22
6.15271e-21
4.03701e-21
5.0933e-22
7.01208e-21
3.51492e-22
3.99716e-21
8.43351e-22
3.04488e-21
1.69751e-21
1.1299e-21
3.51828e-21
1.60567e-21
2.04e-21
1.21866e-21
3.16598e-21
2.19336e-21
4.47844e-22
2.97006e-24
2.86958e-22
2.15193e-21
2.81635e-21
1.22025e-21
1.69647e-21
3.07411e-22
3.46229e-21
4.05059e-21
1.18081e-21
1.70769e-21
1.43151e-21
8.76436e-22
9.38191e-22
1.99488e-22
1.11921e-21
7.72285e-22
5.0772e-22
4.43054e-21
3.53574e-21
3.52649e-21
2.65111e-21
2.07075e-21
2.44872e-21
4.33729e-22
5.01739e-21
2.28148e-21
1.10386e-22
6.40724e-21
8.72396e-22
2.6719e-21
1.27558e-21
7.67622e-22
3.48261e-22
2.82234e-21
2.09334e-22
1.43921e-21
7.61853e-22
5.13443e-22
8.57132e-22
1.90605e-20
4.40808e-21
4.33347e-22
3.32656e-22
2.01497e-21
1.5059e-21
2.72171e-21
8.82029e-21
2.66468e-21
9.63631e-21
2.15082e-21
8.07379e-21
9.99476e-22
2.49521e-21
6.82438e-22
6.37285e-21
2.75198e-24
1.54875e-21
1.75086e-21
2.79159e-22
6.60626e-21
1.53148e-22
7.42407e-22
1.28066e-20
1.93416e-21
4.41208e-23
2.34094e-21
2.25373e-21
1.48405e-21
4.16812e-21
6.64674e-22
8.77474e-21
3.81919e-22
5.60841e-22
2.44821e-22
6.04613e-23
3.3416e-23
5.40408e-21
2.04031e-21
2.12175e-21
5.31341e-21
1.06271e-21
1.57382e-21
2.92086e-21
3.98481e-21
5.46238e-23
1.57695e-21
1.39259e-21
9.90707e-24
5.3249e-21
2.40879e-21
1.95921e-22
2.56907e-21
8.01809e-22
8.42484e-22
6.08324e-22
5.2209e-21
2.36462e-22
1.90988e-21
5.07817e-21
5.96945e-23
5.63691e-21
2.1131e-21
2.01804e-21
4.28036e-21
2.67684e-21
9.44471e-21
3.46344e-21
8.51835e-22
6.98364e-21
1.38105e-21
6.91618e-21
5.22638e-21
1.82367e-21
2.16536e-21
3.57381e-22
5.71838e-24
3.47542e-21
7.59793e-21
1.67151e-21
1.39975e-21
2.93648e-21
2.35339e-22
2.46934e-21
8.76159e-21
3.86801e-22
4.59397e-22
9.55734e-22
7.7298e-22
6.16511e-22
4.46545e-21
1.57065e-21
1.40523e-21
2.65583e-21
1.23116e-21
1.20135e-21
2.0147e-21
1.14398e-21
4.46766e-21
2.84968e-21
2.2075e-23
2.25917e-21
6.61118e-22
3.40056e-21
1.20108e-20
1.04377e-22
1.44385e-21
6.26915e-21
3.78828e-21
2.79696e-22
1.0839e-21
1.78128e-21
4.56478e-22
4.25688e-22
1.51009e-20
6.46965e-22
2.16056e-21
8.01037e-21
1.35108e-22
2.27341e-21
1.34834e-21
2.82981e-21
2.5168e-21
3.65259e-21
5.82022e-21
2.58653e-21
2.26273e-21
1.23935e-22
2.42234e-21
7.59861e-22
2.80902e-21
2.41408e-21
3.8318e-22
2.57542e-21
3.82934e-21
1.21072e-21
2.43807e-22
6.61808e-21
9.63884e-21
1.10739e-21
3.85468e-21
5.45002e-21
3.36198e-21
1.9197e-22
3.92328e-22
9.91229e-21
2.77997e-21
8.48338e-22
6.135e-21
8.50069e-22
9.04337e-22
2.1088e-21
2.69652e-22
2.82795e-22
2.71205e-21
7.49111e-21
2.05161e-21
2.37922e-21
1.24098e-22
1.76797e-21
4.41593e-21
4.71583e-21
1.54893e-21
1.48571e-22
1.92074e-21
4.17813e-21
3.33597e-21
2.50833e-21
3.42542e-21
3.08739e-21
1.02534e-21
1.11343e-21
1.3864e-20
2.1844e-21
2.10347e-22
1.44331e-21
1.83745e-21
1.57216e-21
1.34912e-21
1.77795e-20
9.56382e-22
3.30044e-21
2.70517e-21
7.04674e-22
2.02343e-21
2.02114e-21
2.80236e-21
9.77501e-22
6.21026e-22
8.85845e-22
1.66977e-22
3.0772e-21
5.16468e-21
3.28388e-21
1.95719e-21
7.41951e-21
7.69056e-22
7.3974e-21
1.22394e-21
1.49644e-21
2.11996e-21
2.75243e-21
9.53066e-22
4.4261e-21
1.0451e-21
2.52758e-21
7.68281e-21
4.46499e-21
1.79308e-21
3.31658e-21
3.36397e-21
5.40999e-22
2.54241e-21
1.83377e-21
6.14664e-21
3.74438e-22
1.91266e-21
1.02073e-20
4.71953e-22
4.68103e-22
4.92446e-22
5.58427e-22
2.25929e-22
3.32904e-21
2.26879e-21
5.31003e-21
1.58282e-22
2.46199e-21
5.16524e-21
1.28556e-22
2.07133e-21
2.2574e-21
1.99081e-21
2.92821e-21
1.27986e-21
4.47097e-22
1.1926e-20
1.92208e-22
2.99331e-21
1.73396e-21
9.51185e-21
9.80339e-22
4.83311e-21
7.19713e-21
1.00425e-21
5.18422e-21
3.26018e-21
1.03325e-22
6.42139e-21
6.12035e-21
6.40535e-21
4.40787e-21
3.14134e-21
1.20115e-21
2.63135e-21
1.12303e-21
3.17299e-21
8.39082e-21
3.74614e-21
3.26823e-21
1.35612e-21
1.75818e-21
2.18112e-21
5.43098e-21
2.17245e-21
2.35823e-21
3.15454e-21
1.64697e-21
1.2301e-21
1.81036e-21
2.33622e-22
2.69192e-22
4.85109e-21
4.58661e-22
2.0721e-22
6.21537e-21
2.00028e-21
6.70019e-23
2.17965e-21
3.62418e-22
2.06069e-21
8.9554e-22
1.21342e-21
2.73577e-21
3.97513e-22
1.58807e-21
1.05968e-21
9.42915e-21
3.09446e-21
1.8178e-21
2.14577e-21
6.20157e-21
9.12256e-23
1.0245e-20
8.05447e-21
2.41721e-21
4.10764e-21
1.62805e-21
6.9821e-21
4.84193e-21
8.56803e-22
9.26418e-22
4.23213e-22
6.33943e-21
4.74713e-21
2.86613e-21
1.82919e-21
1.23221e-21
3.56172e-23
3.01341e-23
8.137e-21
1.08414e-21
2.79e-21
8.13037e-22
1.8332e-21
6.96153e-22
2.662e-21
4.09078e-21
8.25186e-22
1.00275e-21
7.20711e-21
5.13966e-21
5.32085e-21
4.52282e-21
5.33201e-21
1.5396e-21
1.42347e-21
1.45679e-21
4.25985e-22
1.07391e-21
6.56042e-21
5.04934e-21
4.27126e-21
1.30381e-21
4.30836e-23
2.54248e-21
1.49873e-21
3.84187e-21
4.39791e-22
8.03159e-21
2.54783e-22
8.75234e-22
1.28238e-21
4.65942e-21
9.56614e-22
1.48387e-20
4.71714e-21
5.47966e-21
1.15358e-20
1.86794e-21
4.48491e-21
5.41707e-21
2.03156e-21
2.65415e-21
2.25926e-21
2.0064e-21
3.37289e-21
3.00045e-20
6.88517e-21
7.30576e-21
1.54427e-22
2.08395e-21
1.4601e-21
1.06565e-22
2.29968e-21
2.69568e-21
9.32155e-22
4.22011e-21
4.96011e-21
2.4092e-22
6.87108e-21
5.43802e-21
6.42159e-21
2.22243e-21
2.33108e-21
2.93319e-21
5.50416e-21
2.43716e-22
1.80894e-21
3.43467e-21
8.08904e-22
1.91129e-21
3.65481e-22
2.04282e-21
7.47283e-22
1.08424e-21
2.00976e-21
1.99633e-21
1.01489e-20
1.77365e-21
4.50451e-21
4.5619e-22
2.46812e-21
4.40528e-21
5.08788e-22
6.86654e-21
6.92181e-22
3.5046e-22
7.80183e-21
8.09349e-22
2.54974e-21
6.42899e-21
2.34741e-21
9.70743e-23
1.27792e-21
1.57672e-21
4.53713e-22
7.07939e-21
2.86806e-21
1.65864e-21
4.99235e-22
1.58686e-21
4.92314e-21
2.71948e-22
4.22547e-21
2.97157e-23
2.33698e-21
2.55515e-21
1.48606e-21
7.42783e-22
5.08078e-21
6.85388e-22
1.61046e-20
6.30681e-21
6.87334e-21
3.95839e-21
4.95761e-21
8.02853e-22
3.46268e-21
1.80488e-21
7.08337e-21
4.22283e-21
1.70965e-21
6.20437e-21
1.29362e-21
1.96096e-21
3.01349e-21
4.26165e-21
7.56465e-22
1.9919e-21
4.99641e-21
2.38225e-21
2.55694e-21
3.40855e-21
2.12506e-21
1.68386e-21
5.16787e-21
1.27938e-23
7.32778e-21
1.77115e-21
7.28715e-21
1.11113e-22
3.58536e-22
2.0534e-21
4.10479e-21
8.03319e-22
1.97861e-21
1.52482e-21
5.73851e-22
1.32602e-21
2.45026e-21
2.92211e-22
6.81023e-21
3.47575e-21
4.04743e-21
6.55372e-22
4.73017e-21
3.44539e-21
5.92363e-22
1.28454e-21
2.38144e-21
1.20838e-20
1.59875e-21
7.08456e-21
1.35552e-22
5.46468e-21
1.7843e-21
1.08164e-20
8.97313e-21
3.88973e-21
1.27625e-21
1.19377e-20
7.70508e-21
5.1916e-22
4.13098e-22
2.94734e-21
4.72644e-21
2.71176e-21
1.2411e-21
9.33616e-22
1.36017e-20
1.00714e-21
1.39108e-21
8.60323e-22
1.03442e-21
2.00467e-20
1.02387e-21
5.444e-21
3.00733e-21
3.76817e-21
3.85812e-21
2.28431e-21
2.37121e-21
5.17678e-23
1.52149e-21
3.75316e-21
1.92013e-22
5.03909e-21
5.74265e-22
2.39314e-21
3.53857e-21
1.84943e-21
2.72624e-21
3.06051e-21
1.54629e-20
3.02373e-21
2.94863e-21
1.60586e-21
1.97043e-22
7.08331e-22
1.86976e-21
3.5837e-21
5.13357e-21
4.47578e-21
1.06829e-20
3.15205e-21
4.86327e-22
6.25951e-21
1.48434e-21
4.8625e-21
5.62818e-21
2.25717e-21
4.39112e-21
1.24762e-22
5.08836e-21
1.87849e-21
1.03833e-21
1.14199e-21
5.37098e-21
8.87695e-22
1.38016e-21
1.40237e-21
2.47893e-21
3.11865e-21
4.10134e-21
3.8591e-21
6.05489e-21
1.2887e-21
3.55529e-22
3.64965e-21
5.17399e-21
1.75397e-21
1.59487e-21
1.30847e-21
3.2167e-21
3.99222e-22
5.2625e-22
4.77102e-21
3.65428e-21
9.76192e-22
1.13805e-21
1.04968e-21
3.44825e-22
2.13887e-21
1.51736e-22
7.52059e-21
4.92235e-21
1.2113e-21
7.7554e-22
2.2923e-21
2.16204e-21
6.55551e-22
9.90118e-22
2.94179e-21
3.56257e-21
1.33424e-22
1.24943e-21
2.61239e-21
2.90713e-21
1.8633e-21
6.20574e-22
1.2432e-21
1.91298e-21
2.75593e-21
1.88246e-21
2.66943e-22
3.18726e-21
2.07606e-22
2.86657e-21
1.0069e-22
8.94534e-22
3.72987e-21
6.66661e-21
8.11048e-21
3.71526e-21
5.79668e-21
1.10282e-21
1.83759e-20
5.37895e-23
7.03648e-22
2.0462e-21
1.91657e-21
5.72749e-21
5.89915e-21
1.39113e-21
1.64353e-21
5.03747e-21
4.59889e-22
9.04018e-21
2.27616e-20
8.90049e-22
3.93044e-21
4.53471e-22
3.11988e-22
6.16501e-21
1.5201e-21
8.35718e-23
2.0003e-21
5.03599e-21
1.15151e-21
2.75822e-21
1.29283e-21
6.90705e-21
5.13052e-21
1.57945e-21
4.1343e-21
9.13008e-21
7.83148e-22
5.58453e-21
8.17347e-22
6.526e-22
5.58477e-21
2.63352e-21
1.32534e-21
1.90937e-20
5.796e-21
3.59102e-21
4.67972e-22
1.33502e-21
2.69909e-21
2.31784e-21
1.32956e-21
1.18857e-20
3.54821e-21
7.29879e-22
8.36128e-23
5.60334e-21
8.61216e-21
1.08086e-20
2.62658e-21
9.50795e-21
1.08421e-20
2.04236e-21
1.20297e-20
2.04589e-21
1.69712e-20
2.56361e-23
3.57008e-21
3.25476e-21
5.43935e-22
2.05178e-22
1.41513e-21
2.84462e-21
4.18121e-21
3.87106e-22
5.23156e-22
1.85629e-21
8.92297e-23
3.51725e-22
5.2986e-22
1.19769e-21
9.58086e-22
2.07821e-21
2.64047e-21
2.21877e-22
3.34261e-21
1.35163e-23
1.19309e-22
1.00086e-20
2.01733e-21
3.28936e-21
4.20505e-23
7.08289e-21
5.67109e-21
5.03584e-22
8.09884e-22
1.25246e-21
1.46179e-22
3.24019e-22
2.27363e-21
2.74557e-21
1.49606e-20
6.33543e-21
1.3776e-20
1.44063e-21
1.49259e-21
3.8241e-21
3.10275e-21
2.12285e-21
1.4894e-21
6.64424e-22
3.95739e-21
5.61716e-22
6.149e-21
5.10913e-22
3.48032e-22
2.37673e-21
5.23923e-21
3.23659e-21
3.771e-21
5.0803e-21
6.91916e-25
7.59848e-22
1.40549e-22
9.87564e-21
2.07801e-21
4.3284e-22
1.8038e-21
5.65111e-21
2.39656e-21
1.67455e-21
4.03159e-21
3.68964e-22
6.32856e-22
9.54286e-22
7.81482e-22
5.39057e-21
3.48877e-21
2.94067e-21
1.14186e-20
1.20654e-21
1.86376e-21
1.74258e-21
7.43401e-21
7.1031e-21
1.82999e-23
9.83987e-23
1.89476e-21
4.24865e-21
3.23954e-22
3.48157e-21
1.8793e-21
1.65447e-21
4.58779e-21
2.01839e-21
8.76273e-21
6.09479e-21
2.15452e-21
5.98872e-21
6.20489e-21
1.89002e-21
1.15852e-21
1.13931e-21
7.88712e-23
9.7361e-21
6.83948e-21
7.53227e-21
3.01922e-23
5.91617e-21
1.60061e-21
2.99759e-21
2.3814e-21
1.06076e-21
2.29037e-21
6.17218e-22
3.36011e-21
9.11981e-21
4.36814e-21
1.23495e-20
2.5954e-21
2.16313e-21
7.97392e-22
6.88729e-21
3.0815e-21
4.27199e-22
1.52373e-21
3.85168e-21
2.74706e-22
4.51799e-22
3.74897e-21
4.909e-21
5.28557e-21
2.60391e-21
1.48636e-21
1.05136e-22
4.07572e-21
2.78201e-22
1.9343e-21
9.25764e-21
1.63224e-21
3.49172e-22
6.96103e-21
3.82214e-21
1.21833e-21
2.85802e-21
1.02731e-21
7.9548e-21
3.11088e-21
2.90581e-21
5.74778e-22
2.28435e-21
1.98386e-21
1.1081e-21
5.14247e-21
3.25475e-21
6.32612e-21
1.72398e-21
5.28061e-23
2.10391e-21
3.50884e-21
1.67024e-21
1.67233e-20
2.36862e-21
4.50604e-21
5.22972e-21
1.76484e-22
2.60412e-22
6.18196e-21
7.78339e-21
5.50396e-22
2.04924e-21
2.26523e-21
2.426e-22
5.19385e-21
9.97019e-22
1.11099e-20
3.91364e-21
8.24065e-21
5.26061e-21
7.50499e-23
3.76809e-21
5.18924e-21
2.91206e-21
9.2849e-21
5.36653e-21
5.08872e-21
2.97377e-21
5.33616e-21
6.93842e-21
4.53573e-22
9.03181e-21
6.16942e-21
1.834e-21
7.20727e-22
6.68459e-22
8.8099e-21
2.03859e-21
3.74071e-21
9.7874e-21
4.82914e-23
5.73576e-21
3.23433e-21
1.52556e-21
2.35728e-21
2.36029e-21
7.45289e-21
6.34237e-21
1.78487e-21
2.71151e-21
4.99921e-23
7.47889e-21
1.16811e-22
2.22426e-21
1.32855e-20
1.86153e-21
1.91182e-21
4.79022e-21
4.66434e-21
6.32152e-22
3.55499e-22
3.10316e-22
6.77843e-21
2.53619e-21
9.20438e-22
8.89924e-22
1.50661e-20
1.02083e-21
7.83783e-21
1.81083e-21
3.38414e-21
5.13978e-22
9.67923e-22
2.5265e-21
2.56317e-21
2.33699e-21
2.27417e-22
1.38583e-22
2.85771e-21
1.17022e-21
3.22288e-22
3.33235e-22
3.22906e-22
1.59477e-21
3.08762e-21
4.41949e-21
6.24959e-21
1.47735e-21
3.22859e-21
6.03559e-22
1.43036e-22
6.68215e-21
2.11205e-21
3.40973e-22
5.99426e-21
5.26784e-21
2.8271e-22
3.03383e-21
1.29496e-20
2.8467e-21
3.568e-21
8.6867e-22
4.84804e-21
2.95212e-21
3.35385e-21
6.3513e-21
1.65977e-22
5.15306e-22
7.46463e-22
1.09528e-20
6.90109e-21
1.87109e-21
2.42532e-21
2.5412e-23
5.06499e-22
7.1e-21
2.385e-22
2.32044e-21
6.44106e-21
3.36897e-21
6.07855e-21
1.62602e-21
5.59334e-21
3.37582e-21
1.02393e-21
2.31876e-21
3.99882e-21
4.69289e-21
7.48608e-21
5.60488e-21
1.41782e-21
9.82729e-22
2.69327e-21
2.84299e-21
6.08796e-23
4.47733e-21
1.22571e-21
9.95733e-22
4.6442e-21
8.72734e-21
3.73029e-21
3.63065e-21
1.75996e-21
8.37085e-21
2.93222e-21
5.80014e-21
3.91986e-21
8.72163e-21
8.95191e-21
7.13231e-22
1.4742e-21
1.52075e-21
7.81794e-22
7.37195e-22
2.95482e-21
6.50181e-21
2.58698e-21
2.62353e-21
6.5888e-21
4.02876e-21
5.26618e-22
9.56807e-22
5.79548e-22
4.60701e-21
2.37721e-21
8.78082e-23
6.43791e-21
4.14216e-21
4.24207e-21
3.70352e-22
3.64329e-21
1.7062e-21
1.83777e-21
9.61067e-21
2.99934e-21
3.41016e-21
4.39039e-21
7.28558e-22
1.53798e-21
2.62044e-21
8.62821e-21
2.61536e-21
1.02524e-21
7.37076e-21
6.92044e-23
2.93215e-21
4.16486e-21
5.13784e-21
3.67378e-21
1.23384e-20
1.50457e-21
3.03668e-21
6.77454e-21
2.49951e-21
2.22558e-21
5.88558e-21
7.85808e-22
6.03614e-22
4.71791e-21
6.17008e-22
7.05895e-22
1.90664e-21
2.39087e-21
1.67471e-22
6.91987e-21
1.95982e-22
3.69845e-22
9.80632e-21
1.0185e-21
4.78456e-22
2.0361e-21
6.7455e-21
3.83257e-21
5.71736e-21
8.37835e-21
1.90716e-21
3.17544e-21
8.90549e-21
6.81405e-23
2.06569e-21
2.58735e-21
7.23566e-22
1.43377e-21
1.15011e-20
2.00873e-21
1.94296e-21
3.65424e-21
1.86994e-21
3.02642e-21
1.44436e-22
7.87728e-21
1.32297e-21
7.524e-21
2.97268e-21
1.65223e-21
7.30916e-21
5.60844e-22
4.35191e-21
2.29085e-21
1.59773e-21
3.1927e-22
6.47085e-21
1.05806e-21
1.78291e-21
1.56965e-22
5.19178e-21
1.8404e-21
4.59023e-22
1.12639e-20
2.63823e-22
7.84617e-22
1.95993e-22
6.11866e-21
3.77284e-21
2.29684e-21
2.65203e-21
1.49241e-21
9.23884e-22
2.82699e-21
2.15631e-21
1.09434e-21
2.72217e-21
2.51534e-21
2.14078e-22
6.7489e-21
1.08282e-20
8.90416e-23
4.33892e-21
4.13438e-21
1.60803e-20
1.50399e-21
2.70464e-21
1.08033e-21
3.49695e-21
1.65888e-21
2.59473e-21
1.91235e-21
4.21377e-21
5.51059e-21
7.57569e-24
3.72213e-21
2.81772e-21
1.78536e-21
7.60093e-23
4.34492e-21
2.5443e-22
2.20523e-21
1.53768e-20
1.7233e-22
5.12716e-22
1.71707e-21
2.34363e-22
8.86797e-22
2.03727e-21
4.43712e-21
3.73751e-21
5.23075e-21
1.10667e-21
3.99563e-21
1.2703e-21
6.94779e-21
2.90152e-21
1.53807e-21
3.1142e-21
1.00679e-21
8.56031e-22
1.84687e-21
5.26776e-22
2.24164e-21
1.57867e-21
3.07947e-21
8.58207e-22
2.58228e-22
5.49207e-21
3.42627e-21
1.64266e-21
1.01811e-20
1.567e-21
6.36484e-22
4.00832e-21
5.19752e-22
1.21642e-21
9.57604e-22
1.11205e-22
3.40992e-21
1.31377e-21
3.095e-21
4.68467e-21
4.30218e-22
2.53118e-21
1.54136e-21
7.2918e-21
1.47024e-21
1.72465e-21
2.4186e-21
4.17237e-21
4.43224e-22
2.95082e-21
5.85914e-21
6.62004e-21
4.22052e-22
3.37614e-22
7.35493e-21
2.44122e-21
6.30814e-21
1.07944e-20
7.07468e-21
4.86147e-21
3.16183e-22
6.1451e-21
3.22551e-21
3.05249e-21
6.92359e-22
6.17156e-21
1.55092e-21
3.53936e-21
5.47871e-21
1.22164e-20
1.30828e-22
4.97481e-21
1.51356e-21
2.90236e-21
1.12983e-21
5.11742e-22
1.74512e-21
4.97154e-21
9.38938e-21
1.13406e-21
5.08594e-22
3.83003e-21
4.96044e-21
1.53164e-21
4.4482e-22
3.60101e-21
1.63228e-20
1.20124e-21
5.74237e-21
1.55157e-21
3.3981e-21
4.75824e-21
1.23826e-20
6.21252e-21
3.43928e-23
1.91656e-21
7.08293e-22
1.08823e-20
1.5462e-22
3.68338e-21
3.47735e-21
9.0328e-21
1.253e-21
3.40074e-21
9.47089e-22
1.06347e-21
9.6155e-21
9.35243e-21
2.67208e-21
5.38859e-21
8.95537e-22
3.70779e-21
7.95077e-22
7.08114e-21
1.26771e-21
1.29426e-21
1.56807e-20
2.09255e-21
2.3607e-21
2.24952e-21
4.10429e-21
7.24056e-22
2.63616e-21
5.66979e-21
1.51706e-21
1.34735e-21
1.7499e-21
2.29594e-22
4.80609e-22
3.32866e-21
1.44976e-21
3.87962e-21
3.88191e-22
8.01995e-22
3.37641e-21
6.8199e-22
2.12019e-21
1.3586e-21
1.11605e-21
1.74475e-21
1.18494e-23
4.16155e-21
8.38557e-22
2.52763e-21
3.21938e-22
3.87629e-21
5.88992e-21
2.15451e-21
7.71247e-22
6.90907e-22
1.25783e-21
1.98393e-22
5.3897e-22
1.62314e-21
1.66561e-21
2.29513e-21
1.68754e-21
1.76921e-21
2.04094e-21
2.67306e-21
1.36131e-21
4.2298e-22
1.32604e-21
6.68058e-22
1.07858e-21
1.60256e-21
3.4495e-21
1.70982e-21
7.65412e-23
2.57742e-21
6.64034e-21
2.27575e-21
1.30738e-21
3.64999e-21
2.77776e-21
1.64766e-21
2.05053e-21
9.20266e-22
1.28247e-21
9.48326e-23
2.46446e-21
1.74297e-22
4.42046e-21
7.13767e-21
2.70023e-21
1.27751e-21
3.46264e-21
3.2675e-21
3.13288e-21
2.62047e-22
6.65206e-22
4.95981e-21
1.20032e-21
1.3416e-21
1.30521e-21
3.69796e-21
3.73987e-21
2.90902e-21
3.35651e-21
6.66825e-21
8.3522e-21
1.1623e-21
4.80741e-21
2.46381e-21
2.86792e-21
9.00787e-21
8.87903e-21
5.25717e-21
5.80074e-21
2.58801e-21
2.88199e-21
1.46805e-20
6.83548e-22
2.29566e-21
1.36102e-21
1.7355e-21
5.83554e-23
1.39876e-21
1.88479e-21
3.33178e-22
8.08023e-22
4.6755e-21
1.72621e-21
4.39283e-22
3.34344e-21
6.22012e-21
2.76881e-22
9.07789e-22
6.76282e-22
9.07868e-22
6.11057e-22
4.97006e-21
8.61266e-21
1.60365e-21
2.31448e-21
1.20525e-20
2.05327e-21
1.87404e-21
1.87998e-21
2.50274e-21
5.24675e-21
2.75827e-21
3.507e-21
4.91677e-21
2.47825e-21
1.13524e-21
3.05777e-21
1.16188e-21
9.9036e-22
2.68958e-21
2.25995e-21
4.42965e-21
4.60679e-21
1.45381e-21
2.44954e-22
3.14314e-21
4.13412e-22
8.22751e-21
1.55951e-21
7.96443e-21
1.24132e-20
2.47316e-21
2.1783e-22
9.81256e-21
2.43512e-21
1.88038e-21
2.55561e-20
5.52524e-21
5.36656e-21
3.5004e-21
1.17294e-20
1.92149e-21
6.75247e-21
2.52113e-21
1.1798e-21
1.35278e-21
1.96421e-21
3.01912e-22
2.80298e-21
2.99922e-21
2.31013e-21
8.52497e-22
6.7809e-22
5.14686e-22
4.43932e-21
9.57462e-23
2.33584e-21
8.54368e-22
3.57512e-21
1.32637e-21
6.06098e-22
8.5577e-21
2.28385e-24
2.79301e-21
3.51346e-21
1.6593e-21
1.6157e-21
1.92503e-22
3.56881e-22
1.81335e-21
8.59842e-22
5.19237e-21
9.69604e-23
3.0375e-24
8.31587e-21
2.45097e-22
2.41814e-23
2.42438e-22
1.79727e-21
8.41991e-22
4.63745e-21
7.974e-22
1.96889e-21
2.57327e-21
3.29852e-21
2.03352e-21
3.86077e-23
4.25393e-21
5.31866e-22
8.29354e-21
1.25346e-21
6.66884e-22
5.87952e-21
2.17201e-22
1.4567e-21
1.24747e-20
4.65776e-21
6.81211e-21
2.18701e-21
1.43598e-21
8.85701e-22
1.51932e-21
2.39077e-21
5.66015e-22
7.9353e-21
2.55875e-21
3.7164e-21
7.93394e-21
9.25513e-22
4.49928e-21
5.59431e-21
1.40341e-22
3.72549e-22
6.19779e-22
1.04623e-21
2.60003e-21
6.43345e-22
2.31345e-21
3.85938e-22
1.02087e-21
3.30514e-21
3.04118e-21
3.78113e-22
1.44825e-21
6.32458e-21
3.64206e-21
1.87958e-21
7.32491e-21
2.82954e-21
4.39024e-21
4.85407e-21
4.81571e-21
3.62867e-21
8.29308e-21
1.6288e-21
1.86034e-22
8.78534e-22
4.25622e-21
7.43861e-21
9.87824e-21
2.14245e-22
1.16562e-20
1.67518e-21
1.32774e-20
1.44524e-21
7.88569e-22
5.18552e-21
2.86283e-21
2.2716e-21
1.02915e-21
2.73693e-21
1.91056e-21
6.86984e-22
1.17396e-21
5.09087e-21
2.42126e-22
5.32252e-21
2.67288e-22
1.00246e-20
3.75988e-22
6.59404e-22
9.45486e-22
3.8837e-21
1.59594e-21
1.77143e-21
6.75475e-21
1.36892e-21
8.8976e-21
3.23162e-22
6.32902e-21
8.43789e-22
4.57096e-21
3.40005e-21
4.11134e-21
5.39199e-22
1.12642e-21
4.08273e-21
4.53907e-21
5.30008e-22
7.25389e-22
2.64685e-21
9.08965e-21
2.07009e-22
3.72811e-21
5.80212e-21
4.56521e-22
6.17549e-21
1.16042e-21
1.69529e-22
8.83e-21
9.30338e-22
3.40652e-21
1.78454e-21
9.01068e-23
7.04749e-21
5.10094e-22
2.98322e-21
2.72802e-21
6.09543e-21
2.17452e-21
3.95241e-21
2.58291e-21
1.16316e-20
2.2015e-21
1.8471e-21
6.2965e-21
4.94358e-22
4.97557e-22
1.43719e-21
2.48221e-21
2.40767e-21
1.62567e-21
5.38697e-22
5.12883e-22
7.95955e-22
2.6872e-22
2.90513e-21
2.13973e-21
3.92559e-22
8.30935e-21
1.8348e-21
2.29944e-21
1.89969e-22
2.39353e-21
5.78732e-21
5.75869e-21
7.19803e-21
5.36527e-21
6.35733e-21
7.12628e-21
2.41372e-22
5.388e-21
2.41234e-21
5.24118e-21
6.33288e-22
3.6928e-22
1.08755e-21
1.01843e-21
2.87883e-21
3.30078e-21
4.07585e-21
1.01824e-20
3.2397e-21
5.97014e-21
2.39931e-21
2.95808e-21
6.09994e-21
2.05938e-21
4.30363e-21
1.89717e-21
4.90511e-21
6.67846e-21
4.07685e-21
1.55037e-21
3.99484e-21
5.56926e-21
1.24817e-21
1.58569e-21
1.69976e-21
2.05574e-22
8.74755e-21
1.24805e-21
4.06161e-21
2.95094e-22
1.59487e-21
3.11426e-21
1.56777e-21
5.29076e-22
2.02215e-21
6.388e-21
4.9062e-21
1.14737e-21
4.38219e-21
5.2965e-22
1.00351e-20
6.76542e-22
7.83124e-21
2.04299e-21
2.66173e-21
1.47174e-21
9.7787e-22
4.25865e-21
4.41346e-21
3.20374e-21
9.90411e-21
3.04617e-21
4.86401e-21
1.98517e-21
1.27885e-21
9.32795e-21
3.50152e-21
5.85999e-21
2.93957e-21
4.77247e-22
2.41675e-21
4.66666e-21
1.10038e-20
2.63759e-22
4.4496e-22
8.90388e-22
3.90819e-21
2.76492e-21
2.39507e-21
6.88731e-22
1.04049e-20
9.55018e-22
1.34907e-21
5.85493e-21
4.24938e-21
1.33677e-20
1.48635e-21
8.77343e-22
2.0864e-21
8.07448e-21
3.53649e-22
9.90752e-22
6.85641e-21
8.35784e-21
6.29409e-22
2.10756e-21
1.66863e-21
8.10372e-21
2.0456e-21
4.8827e-22
3.73148e-21
6.7366e-21
2.4733e-21
1.49683e-22
5.97102e-22
3.18634e-22
7.2726e-22
1.46426e-21
1.75364e-21
9.95243e-21
6.22078e-22
6.57762e-22
1.42371e-21
9.10627e-21
8.20513e-21
3.77461e-21
4.38254e-22
8.41331e-21
3.05277e-21
7.66528e-21
1.17694e-21
5.91635e-21
3.59229e-21
8.15968e-23
9.41348e-23
1.18444e-20
1.64722e-21
3.92604e-21
7.5199e-22
6.62684e-21
1.15484e-21
4.59506e-21
6.54594e-23
7.58935e-22
4.89412e-22
2.18292e-21
5.69718e-21
1.63181e-21
2.49093e-22
1.25703e-21
1.50868e-21
6.10368e-21
2.98834e-21
8.14551e-21
1.31268e-21
3.1023e-22
5.56884e-21
9.86831e-22
4.14278e-21
9.88778e-21
4.00341e-21
1.05446e-21
4.73111e-21
1.10216e-21
2.89444e-21
3.51237e-21
4.77765e-22
2.55308e-21
8.3802e-22
4.27872e-21
7.1728e-22
3.62558e-21
1.61125e-21
2.40332e-21
5.8721e-21
6.35685e-22
6.51219e-22
7.66373e-22
1.09601e-21
1.04063e-21
3.53882e-21
4.77068e-21
5.45964e-21
3.88283e-22
2.9536e-21
2.45799e-21
1.37036e-21
3.13633e-21
2.38191e-23
2.64135e-21
2.2164e-23
2.37848e-21
1.10435e-20
6.66689e-21
7.89307e-22
2.01403e-22
1.48522e-21
7.28259e-21
8.45164e-22
6.67721e-21
2.22422e-21
3.89434e-21
1.37674e-21
1.91077e-21
7.52063e-21
4.19742e-21
2.63089e-21
7.74122e-22
7.53622e-21
3.85433e-21
3.56183e-21
5.8529e-21
1.17536e-20
1.71449e-21
4.82392e-22
1.77394e-21
1.28359e-21
1.08064e-20
5.36685e-21
2.86105e-21
2.40512e-21
3.57186e-21
2.13025e-21
4.47394e-21
6.50024e-21
7.38258e-21
1.01658e-20
2.55722e-21
4.25654e-23
9.69241e-22
5.92986e-21
4.69341e-21
1.38369e-20
4.68438e-21
1.18871e-21
6.0402e-21
8.83065e-22
1.99964e-21
9.22812e-21
6.62651e-23
8.52347e-22
7.63782e-22
2.61761e-22
8.82499e-21
5.22331e-21
1.56164e-21
3.13614e-21
3.42942e-21
2.46579e-21
6.28778e-22
2.70523e-21
2.41243e-21
6.80714e-23
1.90246e-21
4.70027e-22
1.22303e-20
6.74612e-21
3.83134e-21
6.1716e-22
8.49666e-22
1.28165e-21
6.76098e-22
7.93113e-22
5.99809e-21
8.55339e-23
6.82698e-21
2.20526e-21
3.29822e-21
9.86814e-23
9.79311e-21
7.46223e-21
3.52565e-21
1.14302e-20
1.52168e-22
1.68808e-21
1.70883e-21
8.31865e-21
2.50419e-22
4.6025e-22
1.72825e-21
2.29329e-21
5.93878e-21
2.72925e-22
1.89823e-22
3.69112e-21
1.7227e-21
2.46603e-22
4.69724e-21
9.22726e-23
1.24166e-21
4.4474e-21
1.7873e-21
4.42101e-21
3.41765e-21
1.44278e-21
1.2252e-21
9.44869e-23
1.90217e-21
2.44332e-22
9.48152e-22
2.52533e-21
1.34558e-20
1.65798e-22
2.89013e-21
3.34223e-21
4.3534e-21
2.89247e-21
9.22513e-22
3.15113e-21
4.16027e-21
3.22755e-21
7.24476e-21
2.66856e-21
1.10131e-20
5.14378e-21
6.07771e-21
3.72058e-21
3.25393e-22
2.2458e-22
7.15129e-22
9.22779e-22
1.44271e-21
3.47862e-21
1.44529e-22
8.59916e-21
1.31473e-21
3.60396e-21
1.25304e-21
4.36765e-21
5.26214e-21
2.96337e-22
4.62973e-22
2.08088e-21
9.48894e-22
5.09109e-21
2.43119e-21
6.71586e-21
1.81036e-21
3.02421e-21
4.7331e-21
3.54616e-23
6.78576e-21
1.96415e-21
5.01467e-21
2.42969e-21
4.66742e-21
3.03011e-21
1.85633e-21
2.22663e-22
3.39626e-21
6.02585e-22
9.54025e-22
1.34778e-20
2.86743e-21
8.65117e-22
3.43332e-21
9.87563e-21
2.00074e-21
2.21205e-21
2.17574e-21
6.46993e-21
1.9793e-21
1.31622e-21
9.99227e-22
8.67292e-22
1.20285e-21
4.93021e-21
4.55962e-21
6.90761e-21
3.16133e-21
2.14421e-21
1.05747e-20
4.31685e-22
2.73253e-21
8.39027e-22
2.35255e-21
4.53366e-22
9.88048e-22
1.19154e-21
2.79586e-21
1.85519e-21
3.84148e-21
7.98315e-22
3.26982e-21
7.01036e-21
1.38625e-21
2.14531e-21
1.41391e-21
6.76443e-22
4.0799e-21
2.10809e-21
5.38455e-22
2.69696e-21
1.11417e-20
5.07577e-22
3.026e-21
2.69382e-21
9.47248e-22
6.3178e-22
6.28926e-21
1.70834e-21
1.81463e-20
2.63103e-21
6.88959e-21
4.70206e-21
2.34042e-22
5.26137e-23
3.43859e-22
1.89789e-22
2.88779e-21
1.24673e-20
1.77101e-21
2.11464e-21
7.6384e-21
3.93512e-21
8.58651e-22
1.08354e-20
8.63388e-22
9.46624e-22
1.23733e-21
7.30562e-21
2.67958e-21
1.01003e-21
9.60379e-22
3.168e-21
3.96017e-21
2.44879e-21
2.11185e-22
6.85249e-22
2.92129e-21
7.8519e-22
1.56805e-22
5.32248e-21
1.89793e-21
1.72893e-21
4.71078e-21
4.64952e-21
1.92979e-21
1.20463e-22
1.5184e-22
1.37135e-20
5.5571e-22
1.24378e-21
5.94267e-21
1.33472e-21
2.11392e-21
4.6239e-21
3.13148e-21
4.83932e-21
1.38679e-21
7.08081e-21
3.08549e-21
2.64122e-21
2.41102e-22
9.44933e-22
1.48624e-22
3.33155e-21
6.72945e-22
1.37205e-20
2.37629e-21
7.25913e-22
1.61588e-22
5.89646e-21
4.32169e-21
2.30215e-21
2.82761e-21
1.89373e-21
3.13687e-22
1.65007e-21
3.18834e-21
2.17725e-21
1.60421e-21
1.68396e-22
8.36034e-21
3.05272e-21
8.12744e-21
9.99412e-22
6.07242e-21
3.08873e-21
2.04371e-21
8.10053e-21
2.63603e-22
4.56546e-22
1.83539e-20
2.22221e-21
6.20905e-21
4.41127e-22
2.01686e-21
4.95527e-22
1.48881e-21
4.85012e-21
1.53219e-21
2.52568e-21
4.14402e-21
4.44735e-22
1.14977e-21
7.52769e-22
7.06515e-21
7.24069e-22
3.9526e-21
3.90373e-21
5.6326e-22
1.64374e-21
5.29415e-21
1.92191e-21
2.43316e-21
6.08411e-22
2.04814e-21
7.62674e-21
7.85953e-22
5.31571e-21
1.72036e-21
3.18487e-21
6.56965e-22
9.09846e-21
6.71352e-21
2.59076e-21
1.0727e-20
3.83503e-21
5.34125e-22
6.5628e-21
1.16903e-21
4.95478e-21
3.2539e-21
1.06005e-21
8.68954e-21
2.41921e-21
3.69531e-21
9.20135e-22
7.76264e-21
6.391e-21
1.00289e-21
4.71714e-21
1.76229e-21
3.08352e-21
1.16099e-20
3.43266e-21
6.8108e-23
3.89365e-21
1.8887e-21
3.51797e-21
1.16747e-21
2.00923e-21
2.67315e-22
3.79041e-22
1.83379e-20
6.78061e-23
1.00169e-20
2.60918e-21
1.18822e-21
3.30612e-22
1.56322e-21
1.37479e-21
5.26192e-22
5.85423e-21
1.01443e-21
2.75642e-21
1.15976e-21
8.13029e-22
2.3586e-21
1.54652e-21
1.79137e-21
4.2559e-21
2.2441e-21
4.43456e-21
7.42639e-21
6.76318e-21
3.24879e-22
9.42588e-22
5.70487e-21
1.69989e-21
1.52463e-20
2.19963e-21
1.05784e-21
7.7587e-22
1.17292e-21
1.36703e-22
4.16839e-21
5.14572e-21
4.09394e-23
8.89599e-21
1.70093e-21
2.40988e-21
4.09394e-21
2.03978e-21
5.64357e-22
5.62546e-21
4.69563e-21
2.25448e-21
6.82252e-21
2.71394e-21
5.05641e-21
7.86129e-22
7.03325e-21
1.19284e-21
1.27376e-21
1.75605e-21
2.92142e-22
1.57802e-21
1.53112e-20
1.12513e-21
3.03477e-21
2.25646e-21
3.04122e-21
2.12676e-21
9.53546e-22
1.2028e-21
2.117e-21
1.20161e-22
2.69668e-21
4.26441e-21
2.10893e-21
9.43895e-21
6.3119e-21
1.03881e-21
4.20442e-21
1.92577e-21
1.9449e-21
2.92766e-21
6.18117e-22
8.43536e-21
5.89655e-21
2.28216e-21
7.03554e-21
1.54935e-20
1.4698e-21
2.38856e-21
4.34622e-21
8.86076e-21
2.92059e-21
1.65762e-20
1.97212e-21
3.17216e-21
9.13305e-22
1.95849e-21
8.19482e-21
5.82459e-22
7.64351e-24
7.89568e-22
3.50883e-21
1.40729e-21
2.74327e-21
1.92238e-21
3.52156e-22
1.08114e-21
7.12758e-22
2.07769e-22
5.06716e-22
1.74831e-20
4.43195e-21
3.10618e-21
3.12489e-21
2.79842e-21
9.70633e-21
4.09389e-22
3.78892e-21
4.04199e-21
1.1424e-20
7.97264e-22
1.05185e-21
1.16214e-20
5.58154e-21
2.86335e-21
1.00428e-20
3.50294e-21
3.73443e-21
4.92674e-21
1.41712e-21
1.71915e-21
2.43063e-21
2.08736e-23
1.7989e-21
1.27366e-21
1.51702e-21
5.57115e-22
7.30385e-22
5.34614e-21
1.79605e-21
5.78418e-21
2.08362e-21
6.82749e-21
2.08727e-21
2.99291e-21
3.2282e-21
1.81937e-21
1.88166e-21
3.1762e-22
4.79369e-21
4.01311e-21
2.86532e-21
7.8139e-21
5.47901e-22
3.62517e-21
2.90596e-21
1.12735e-21
7.01933e-21
1.50576e-21
2.30402e-21
1.34673e-21
5.97082e-21
7.83463e-21
1.93983e-22
1.46066e-21
2.63433e-22
2.23183e-21
1.65611e-21
5.97695e-22
2.21226e-22
9.50804e-22
1.37034e-21
5.32609e-21
7.18109e-21
8.6176e-22
7.09331e-21
4.04698e-22
1.13275e-21
1.54254e-21
4.85485e-21
7.00706e-22
6.68587e-21
2.58742e-21
6.52105e-21
1.10211e-21
1.97497e-21
2.12845e-22
8.65367e-22
3.29171e-21
6.82458e-22
1.76946e-21
1.27789e-21
3.85277e-21
1.62033e-21
3.48911e-21
7.71245e-21
2.21384e-21
2.58628e-21
2.62471e-21
2.78988e-21
3.47513e-21
1.07852e-20
3.51416e-22
1.33857e-21
3.9505e-21
6.16663e-22
6.44672e-21
9.29057e-21
7.96372e-21
6.53241e-22
4.06747e-21
1.14611e-22
5.19644e-22
8.48239e-22
4.9631e-21
1.218e-21
3.4402e-21
1.0367e-20
6.2829e-21
1.23805e-21
2.80492e-21
1.14725e-21
7.90603e-22
5.48026e-21
1.11604e-22
5.27787e-21
6.4749e-21
1.39046e-20
4.56164e-22
4.04316e-21
8.44008e-24
2.48068e-21
2.66487e-21
7.12883e-22
8.3946e-23
8.71862e-21
1.60965e-21
7.33061e-21
2.07428e-22
2.22557e-21
5.63797e-21
4.09801e-21
5.62507e-21
2.30886e-21
2.99398e-21
6.39001e-21
5.79318e-22
3.44949e-21
2.48559e-21
1.78479e-21
2.09236e-22
1.34342e-21
3.2073e-22
4.7888e-21
1.95257e-22
1.17655e-20