/*--------------------------------*- C++ -*----------------------------------*\
  =========                 |
  \\      /  F ield         | OpenFOAM: The Open Source CFD Toolbox
   \\    /   O peration     | Website:  https://openfoam.org
    \\  /    A nd           | Version:  7
     \\/     M anipulation  |
\*---------------------------------------------------------------------------*/
FoamFile
{
    version     2.0;
    format      ascii;
    class       vectorField;
    location    "0.004/lagrangian/dsmc";
    object      U;
}
// * * * * * * * * * * * * * * * * * * * * * * * * * * * * * * * * * * * * * //


100180
(
(-250.967 -406.993 -147.404)
(-371.988 -336.164 -29.7857)
(-280.159 -257.816 33.9448)
(106.565 -84.6342 340.652)
(497.225 -103.288 12.7687)
(-440.561 -94.0919 386.507)
(-151.344 33.1487 213.695)
(-595.957 94.9268 -21.3076)
(-476.978 -155.213 -122.773)
(-291.132 -444.992 488.834)
(-341.265 -156.413 324.439)
(-578.534 477.761 -233.396)
(123.156 98.7891 234.456)
(-318.409 -64.2582 -96.3602)
(-145.15 84.7876 226.806)
(-365.792 -19.5027 -240.221)
(-383.733 -191.948 -18.9342)
(-209.752 -38.1965 -180.485)
(-336.798 94.9983 282.42)
(322.256 407.801 -246.816)
(178.468 -100.903 267.044)
(-184.049 -220.386 -349.015)
(-206.778 -174.838 66.0142)
(-381.609 18.5427 -305.742)
(-206.948 421.995 -233.242)
(-221.749 -194.966 155.455)
(14.4298 -312.026 -138.481)
(-478.613 324.374 -23.6915)
(-454.542 179.57 -470.863)
(-4.06798 157.769 -269.777)
(-213.167 37.0818 -131.025)
(-207.451 362.689 -42.3147)
(-843.688 -33.48 -264.049)
(-527.699 -199.588 -86.3393)
(-345.452 312.504 -142.64)
(156.264 402.9 23.215)
(-228.824 154.242 7.74543)
(-126.774 -239.241 128.416)
(-379.097 546.67 519.102)
(-94.7555 59.5086 -260.168)
(-144.102 -14.7677 286.211)
(-430.118 -123.942 635.273)
(-450.207 -60.0334 -210.329)
(-181.055 -31.6969 131.85)
(-338.166 292.741 -207.29)
(-52.6959 137.073 -263.594)
(-772.047 -171.189 266.648)
(-530.484 -406.496 368.797)
(-100.506 -364.859 -308.863)
(-131.864 149.247 328.967)
(-211.678 0.937361 -113.328)
(-0.322263 -128.791 276.785)
(-233.278 314.976 -141.92)
(5.25809 -301.689 -184.318)
(-191.103 -143.076 -503.569)
(-701.242 -127.585 -275.663)
(-341.719 120.274 -142.567)
(-215.681 54.8604 -284.945)
(-128.698 -378.063 -32.599)
(-159.621 -350.898 -212.264)
(-302.093 339.025 -175.941)
(-354.132 33.6498 -79.1631)
(-221.931 401.342 -256.885)
(-86.6192 93.7169 94.7359)
(69.4826 437.367 484.88)
(-339.662 106.242 256.052)
(-19.4175 -166.847 -283.702)
(-552.048 -318.589 8.17907)
(-245.556 -129.645 99.3763)
(-259.838 -54.5989 79.5962)
(-351.455 -549.246 196.376)
(-402.667 234.121 198.837)
(-478.259 130.109 106.922)
(-209.78 -48.3285 -2.25943)
(-361.406 -26.7799 77.2789)
(-132.359 -187.706 -228.186)
(-407.835 -195.975 -146.235)
(-98.5406 -197.112 9.31005)
(-306.686 -5.35345 -16.382)
(-277.096 189.483 -77.5671)
(-786.696 -132.786 -165.012)
(-458.88 -82.4826 -60.7847)
(32.8399 -99.982 190.089)
(-22.5955 49.4461 -50.846)
(-201.967 -36.857 44.1515)
(-237.719 107.868 -342.225)
(-381.579 408.744 -578.751)
(339.967 524.951 296.776)
(-238.149 -16.0488 158.325)
(-293.922 -1.9947 350.882)
(-313.37 145.148 -874.989)
(-158.253 -315.777 50.3299)
(-446.867 -228.704 -216.736)
(-252.452 54.837 195.705)
(-375.334 -58.0705 -444.51)
(-174.299 190.302 -43.0703)
(-320.061 -82.8033 -189.091)
(-187.235 -200.947 0.491033)
(-357.118 222.932 382.877)
(-80.2458 91.8489 -482.737)
(-598.376 -13.4451 143.816)
(-54.92 211.849 -213.17)
(29.1497 207.255 328.915)
(-65.22 -41.8172 86.1048)
(-663.015 137.522 -195.102)
(-609.612 135.639 353.582)
(-333.132 -53.2205 51.4971)
(-350.581 -302.916 167.172)
(-266.509 0.1971 393.699)
(-454.161 326.378 78.5327)
(579.896 -83.4666 -153.549)
(-10.4358 39.881 -48.0703)
(-209.048 -106.112 -227.87)
(-502.343 98.5993 -12.3343)
(-427.399 238.864 3.82974)
(-220.243 -171.348 262.209)
(-416.98 127.802 -45.83)
(71.7536 209.643 421.279)
(-120.276 391.798 -217.292)
(114.757 441.128 94.442)
(-19.3225 27.2559 -284.201)
(-309.239 -163.613 409.558)
(-140.18 97.9713 110.984)
(-401.208 45.6878 -381.54)
(214.111 180.55 48.0826)
(-626.873 380.529 -396.503)
(199.386 -450.463 130.488)
(-125.694 -85.949 -307.177)
(-723.147 -42.6404 -401.487)
(-271.821 222.927 -196.211)
(-322.866 -135.631 85.4621)
(-542.936 -125.564 322.269)
(-46.6311 65.2957 -386.86)
(75.2569 113.245 -208.152)
(-74.1305 450.044 -378.593)
(-123.955 -127.038 -23.3274)
(-237.632 540.284 544.282)
(-348.042 115.08 278.034)
(-512.158 33.6783 349.383)
(-80.5845 222.123 320.294)
(-179.876 -535.644 623.066)
(174.639 -90.7317 292.608)
(12.5615 207.247 86.6944)
(305.247 -265.735 214.093)
(-282.792 21.411 42.3454)
(-329.924 477.205 -77.8032)
(87.6511 -152.563 -46.53)
(102.634 -278.306 564.286)
(-676.297 -308.266 -294.185)
(-267.503 42.3382 310.87)
(45.9425 -14.4425 425.594)
(-418.659 -120.549 -227.929)
(-464.943 442.132 -374.988)
(119.35 -226.441 153.026)
(-220.3 141.415 78.3998)
(-32.3945 -695.077 229.937)
(-332.556 153.509 -148.833)
(-404.073 -134.341 -627.129)
(-117.998 -134.243 -641.75)
(-212.661 -154.561 -205.38)
(-420.631 169.462 105.825)
(-392.565 -337.225 -386.503)
(-131.893 -299.527 -142.743)
(-873.345 -407.838 97.6684)
(-207.451 -257.994 -144.93)
(-245.836 -355.816 -82.6429)
(-256.893 4.56478 -110.545)
(-191.311 -131.441 -155.65)
(-636.724 194.38 285.345)
(-347.321 132.056 -259.998)
(-17.1315 -13.0518 17.3776)
(-534.083 -151.469 -109.06)
(-346.36 -350.336 -1.7902)
(-271.13 260.035 540.026)
(-709.33 -3.70577 614.008)
(-491.862 50.1365 189.452)
(-108.449 199.027 -453.898)
(-180.218 -238.275 -21.7755)
(-509.345 -45.1586 10.947)
(-104.537 -89.9465 337.5)
(-134.752 47.8307 181.745)
(-165.765 -15.7562 57.5767)
(-642.353 363.102 432.861)
(-193.3 -239.384 82.7354)
(-300.205 -138.996 -163.119)
(0.382804 -516.158 -175.452)
(-760.383 -409.513 -389.491)
(-449.857 35.1657 101.159)
(-446.374 57.7258 255.782)
(-308.521 -44.0402 -102.385)
(-185.583 76.677 -123.469)
(-677.73 351.218 -142.928)
(-90.7097 -257.542 151.48)
(-670.97 -107.069 -91.053)
(-366.721 196.728 109.788)
(-23.6137 -95.8486 -139.79)
(-483.882 -64.4643 -71.0873)
(-377.684 -76.2709 -147.281)
(-390.689 69.3373 -376.317)
(-562.39 -400.979 -191.721)
(-99.4697 46.5914 379.018)
(-104.17 100.763 -52.2632)
(-300.457 219.859 156.797)
(-475.658 -101.468 -3.47621)
(-658.393 -42.9596 -40.5799)
(-302.574 207.117 177.292)
(-478.88 -81.3928 -163.557)
(-87.8203 215.599 -351.724)
(-950.722 -101.479 222.047)
(-399.142 207.338 104.719)
(-94.1966 352.881 -65.1378)
(-311.006 160.018 -431.808)
(-235.37 -49.1431 463.856)
(-70.3249 -327.51 -219.052)
(-894.857 486.441 16.367)
(-143.759 -184.883 -268.6)
(-529.387 -3.82427 119.914)
(-605.953 -220.479 248.687)
(-627.978 -127.943 411.463)
(-224.952 -301.334 69.5044)
(-121.303 108.338 -105.421)
(-263.869 361.011 169.703)
(-435.872 -376.412 -164.824)
(-169.903 36.539 135.224)
(-622.067 -5.45096 -480.669)
(-168.838 -168.536 58.7421)
(-553.01 399.904 -97.6534)
(288.403 -341.555 47.8872)
(-215.653 56.4551 154.695)
(-43.1091 242.887 104.317)
(-765.438 167.199 -406.101)
(-218.64 325.909 165.641)
(-233.355 -58.7334 85.9423)
(-21.2202 212.514 182.614)
(-126.072 339.421 286.683)
(-664.252 -112.074 350.848)
(-206.776 -475.845 383.321)
(-626.497 480.042 -635.951)
(-262.338 151.548 -77.3709)
(-251.453 444.487 62.3218)
(-378.403 145.864 109.043)
(119.45 -184.416 191.867)
(-108.729 170.735 -332.266)
(89.4613 -260.245 -326.262)
(-523.363 142.183 33.1365)
(-183.272 24.7622 -218.354)
(-177.546 183.921 315.555)
(-163.055 -215.669 25.2632)
(-772.65 -283.514 -165.328)
(-524.818 223.91 -197.268)
(27.8171 -124.203 -334.299)
(-254.821 379.492 203.229)
(25.2117 37.4864 596.502)
(7.52557 204.675 -48.0185)
(-210.84 -353.116 201.809)
(-614.729 71.5593 -90.4937)
(-598.793 -155.685 69.9932)
(-236.062 149.179 -502.487)
(-547.246 270.391 -355.425)
(-29.0258 -298.881 96.8463)
(-432.437 42.8082 211.926)
(-79.6094 184.648 -104.23)
(-212.225 296.768 -515.67)
(-645.815 311.692 57.3409)
(-186.603 311.302 -421.682)
(-610.494 -313.03 -67.1609)
(125.218 -147.048 -54.9848)
(309.503 -5.77626 -115.048)
(-269.569 -188.865 44.1998)
(-375.977 249.12 116.043)
(-554.215 -224.713 -99.664)
(-802.261 511.823 85.7289)
(-453.12 163.437 89.4229)
(-770.835 -396.821 -432.358)
(-589.53 -161.685 -50.9138)
(-475.983 -170.861 181.316)
(-116.503 214.5 182.265)
(101.393 -30.8102 -185.326)
(32.4484 -232.224 284.546)
(-313.206 -145.475 284.301)
(-383.095 187.792 -139.991)
(-113.131 -249.358 29.8373)
(-504.54 318.091 -79.0291)
(-311.582 -138.188 -33.0822)
(74.9862 58.1674 414.861)
(-407.625 -174.85 -410.099)
(-383.2 3.0019 -159.125)
(-451.028 250.122 -1.08533)
(-295.075 -183.85 91.0395)
(-59.8707 52.1574 82.257)
(199.649 -147.744 219.776)
(-416.491 46.0789 192.081)
(-790.612 132.584 343.127)
(-329.952 209.858 -114.617)
(-319.368 715.657 155.058)
(-47.8736 318.228 -177.937)
(372.037 -394.204 -191.882)
(-163.501 -45.7465 448.423)
(-107.206 232.994 -97.4896)
(-419.056 561.002 78.5391)
(-208.867 64.0154 -103.01)
(-174.133 -206.543 339.165)
(-526.603 58.4579 -181.492)
(-585.097 92.2796 -126.209)
(203.261 -64.4337 348.404)
(-404.868 -496.965 176.484)
(-453.266 291.642 -9.1162)
(-316.189 -196.51 -13.2735)
(-590.3 102.734 -166.192)
(-218.011 -163.9 -21.644)
(-174.693 -105.071 -43.6897)
(-328.001 -211.725 206.991)
(-446.532 44.3256 11.0498)
(176.523 -147.081 -481.438)
(-131.062 -3.94066 -159.83)
(-522.908 64.085 -412.258)
(-411.085 11.4093 -155.038)
(-135.022 -269.575 183.474)
(63.9114 -214.248 -435.46)
(-286.995 277.474 330.942)
(-30.1609 -364.304 202.419)
(-397.134 653.439 252.256)
(-387.749 -169.528 -260.207)
(22.2133 289.5 -469.535)
(-644.403 99.3699 35.2798)
(304.573 -62.0029 273.743)
(343.973 -125.663 212.58)
(-76.0941 -106.302 156.652)
(-363.87 -501.893 -142.339)
(-440.199 679.853 -98.2563)
(-146.765 39.5228 472.618)
(-254.023 -15.4328 -27.8096)
(-157.745 126.131 364.659)
(-205.504 395.135 625.483)
(97.844 132.131 -30.8835)
(-68.6357 8.39336 -324.824)
(-445.41 -108.55 -460.67)
(-610.071 -261.434 -373.568)
(-482.628 -40.4795 -304.062)
(-424.588 289.293 54.6847)
(12.49 205.411 -19.3763)
(-154.388 -344.439 -160.247)
(-238.974 -178.86 64.965)
(-119.252 -308.664 302.749)
(-32.3271 262.078 313.703)
(-119.781 339.717 -450.216)
(309.092 8.94684 -308.732)
(-808.965 390.009 -515.881)
(-198.46 225.398 33.829)
(-277.88 -63.3529 99.9882)
(-354.845 -444.092 -47.8557)
(-441.14 -279.358 -243.48)
(-75.8428 -27.4349 -455.541)
(0.479148 -19.6087 217.44)
(-141.415 66.8173 256.316)
(-469.151 -284.327 423.453)
(-343.109 -15.9527 47.1678)
(-72.7992 -217.4 477.904)
(-123.951 143.967 258.979)
(-20.4485 -102.305 112.776)
(-668.935 -357.632 -233.109)
(-661.286 -182.044 -63.5778)
(-590.309 195.572 154.587)
(-575.361 -486.777 103.47)
(14.2606 -525.048 509.995)
(-134.925 -378.99 -299.382)
(-145.537 -403.321 85.0614)
(-646.614 -479.858 -358.551)
(-416.186 -101.35 -293.397)
(-173.922 -257.906 77.7946)
(4.87162 152.492 -8.61572)
(-370.641 93.2459 566.515)
(-430.004 -178.746 -252.866)
(179.171 -73.699 -161.147)
(-563.076 -162.873 109.81)
(43.4705 60.0119 105.835)
(-145.369 -171.453 386.504)
(-281.069 223.851 116.597)
(-409.064 150.054 -293.707)
(25.4272 648.363 26.5931)
(-208.677 274.788 217.247)
(-165.598 -388.993 -271.427)
(-183.578 435.673 269.782)
(-363.187 232.216 -471.712)
(-258.453 271.458 -152.465)
(9.55727 -258.357 31.4728)
(-517.791 -169.605 -90.8231)
(-732.524 158.431 -221.295)
(-155.548 -205.587 -185.932)
(-10.4703 -291.384 -104.68)
(-179.896 -272.362 115.262)
(-640.715 -12.3067 -264.282)
(-126.825 660.403 510.925)
(-183.217 -164.098 248.506)
(-389.86 -21.4158 -417.884)
(-479.347 -267.521 274.361)
(-200.979 128.936 -271.384)
(-85.7917 92.4319 227.203)
(-118.371 -366.288 184.686)
(-187.705 -60.955 221.998)
(-509.874 11.5869 52.5045)
(37.6846 260.394 -311.38)
(-464.304 142.982 273.535)
(-523.9 -161.665 -236.061)
(-376.275 -167.48 -26.8963)
(-410.227 -120.189 -684.606)
(-722.683 -8.0875 -375.91)
(-786.179 164.789 90.634)
(25.76 -196.928 -287.614)
(512.527 358.216 258.269)
(-342.961 -248.336 -79.6809)
(168.754 -120.711 -198.464)
(-343.543 -531.611 -230.375)
(132.72 172.201 198.506)
(-339.001 10.4204 -386.062)
(-2.7828 -218.379 -262.72)
(122.433 -281.482 345.907)
(-34.0031 323.173 169.158)
(-45.0767 -163.141 1.41892)
(-85.4775 -16.9445 64.2269)
(-185.054 178.055 263.962)
(-541.633 -90.9393 -5.59089)
(-308.699 236.731 94.6842)
(120.382 3.96517 181.22)
(-271.853 -310.411 -305.206)
(-83.5001 7.73441 42.9564)
(-60.0261 387.026 126.33)
(69.7807 85.9217 -81.3117)
(-617.041 488.796 -48.0145)
(-107.537 366.598 204.756)
(-373.851 114.918 267.521)
(-136.121 473.892 -62.4065)
(-168.368 -96.5299 509.175)
(-385.728 -88.1886 -7.62478)
(185.627 -117.085 -509.771)
(-249.587 -1.26178 -399.394)
(-197.193 333.303 -186.218)
(-230.61 60.4524 -203.394)
(-875.97 144.825 356.978)
(90.1963 -143.585 -25.2673)
(-377.824 -387.107 622.087)
(-302.606 129.58 -84.4068)
(-444.223 -47.2267 150.382)
(-489.969 252.591 560.808)
(-47.6537 -328.381 377.494)
(-206.127 44.0796 47.6844)
(-427.162 327.052 -25.4222)
(-190.118 101.99 -88.4475)
(-464.823 -176.539 30.4811)
(-256.487 41.593 244.892)
(-185.826 -100.127 -255.22)
(-507.921 558.374 261.296)
(-108.015 236.055 481.402)
(-68.1546 -132.347 -574.636)
(-61.1483 231.871 -328.816)
(-36.8497 -2.03514 182.581)
(-343.966 -46.6461 381.959)
(-195.922 192.748 -297.246)
(-1041.08 -52.7331 -170.323)
(-156.735 -73.9412 95.2707)
(-480.526 -714.839 -217.521)
(-603.26 -262.076 -34.6642)
(-305.392 92.3191 -110.995)
(-631.172 126.098 77.8603)
(432.159 278.05 -206.937)
(-618.387 191.115 411.71)
(-130.712 328.428 285.111)
(-624.599 366.587 505.412)
(-318.851 -38.198 -23.5399)
(-68.1343 -407.796 -13.9573)
(167.735 64.8059 309.584)
(-365.728 -15.351 283.953)
(-614.87 188.872 256.73)
(-66.8305 11.1466 166.506)
(107.425 -8.61069 -155.411)
(-161.765 -275.325 170.469)
(-29.2952 -134.163 135.936)
(-104.059 -133.6 22.7082)
(42.8749 -10.959 -135.028)
(-248.653 290.81 33.6797)
(97.7136 -115.714 -439.448)
(-190.468 -12.2516 1.83215)
(-101.765 -688.387 -533.763)
(-275.672 466.426 58.6298)
(-62.3867 234.574 64.9146)
(-611.428 138.678 212.819)
(77.6488 470.073 -251.46)
(-457.005 57.5046 394.916)
(41.1653 -238.232 237.732)
(-352.461 329.535 74.9248)
(-378.027 -49.6336 -46.425)
(163.009 -580.743 -532.112)
(-12.1329 -355.066 170.485)
(9.56635 182.497 73.1524)
(-376.221 207.296 -144.12)
(-240.129 -274.908 92.42)
(-89.8037 261.276 -673.509)
(-695.104 263.026 -394.198)
(-534.809 -231.562 -166.676)
(-698.854 -93.7745 299.238)
(-42.7771 -375.654 29.553)
(-391.783 232.449 -212.997)
(-103.629 583.377 -249.532)
(-651.571 -69.1499 287.48)
(-288.562 24.0593 -100.776)
(-539.323 -275.443 -654.137)
(-488.015 -139.233 16.1967)
(-846.419 319.783 -302.428)
(-215.802 100.682 25.4548)
(-156.221 -268.754 -118.307)
(-370.523 325.827 89.8083)
(-76.49 -361.991 104.041)
(-171.398 30.7515 110.858)
(-203.381 172.981 -82.8434)
(-353.303 -33.2561 283.001)
(-494.461 -286.732 -124.126)
(-504.336 229.24 26.6356)
(-248.805 -351.711 -286.228)
(-525.552 -62.5036 241.057)
(-130.571 6.58533 279.687)
(-175.414 -183.63 310.208)
(-462.845 145.283 157.335)
(-592.134 483.893 -353.91)
(-216.372 -11.9595 143.957)
(-14.314 74.2212 -111.392)
(-357.528 -204.396 -440.684)
(-13.6801 -264.765 505.671)
(-478.842 174.181 3.75403)
(-446.813 -166.532 -172.5)
(-184.949 358.831 -283.535)
(-70.6439 83.7286 132.968)
(-112.971 130.026 -212.966)
(18.2799 -54.2096 355.474)
(87.3902 -334.912 129.622)
(-258.036 -379.313 -319.295)
(-193.639 14.026 13.0188)
(-558.529 -2.75088 -135.42)
(-146.193 -13.7126 438.996)
(-443.869 -388.221 -102.993)
(-90.4902 -322.538 182.747)
(353.144 123.022 22.2747)
(-365.713 -237.939 81.4608)
(46.5591 150.97 73.9164)
(-322.188 -579.92 146.282)
(-755.415 377.556 -12.2523)
(-377.818 52.24 -185.386)
(-120.329 -250.85 390.359)
(-10.3337 -95.1984 225.337)
(-296.426 -412.048 -340.436)
(-258.957 181.22 49.868)
(-268.667 -74.8877 -94.7265)
(-380.34 8.5885 -21.2811)
(10.8488 -84.4403 -356.912)
(-42.2261 93.8186 -272.557)
(231.074 -257.387 443.721)
(32.0091 353.878 139.891)
(-368.864 134.98 144.915)
(-920.36 238.133 -21.98)
(-205.57 162.28 -60.1293)
(-228.481 -147.341 81.9037)
(63.4465 252.099 9.88886)
(-58.293 255.457 -15.8565)
(-729.87 318.252 180.738)
(19.7833 -109.608 101.252)
(-303.556 -155.386 -133.249)
(449.448 -201.978 -330.695)
(-295.942 -397.179 184.357)
(-596.882 -452.597 74.4111)
(22.7769 -62.1934 -226.948)
(-435.951 -217.149 -180.153)
(-243.669 203.623 -72.5653)
(-379.313 172.419 -199.11)
(-82.8209 267.982 31.7818)
(-364.064 354.996 158.772)
(-248.994 -711.108 -321.461)
(-168.978 -159.154 -138.903)
(-531.238 -70.6707 -88.5567)
(-42.2293 -205.785 157.678)
(-337.884 -33.2539 -824.863)
(-278.037 259.432 -119.537)
(139.168 143.407 -162.662)
(-5.82429 179.148 -53.741)
(33.2789 -181.018 -230.589)
(-175.144 -50.1547 74.4547)
(-133.352 -294.456 -66.7894)
(-268.819 -713.83 -134.388)
(-92.5044 250.664 -100.201)
(-579.207 189.261 157.029)
(-546.82 70.2387 -146.81)
(-102.788 208.162 118.623)
(-222.944 -90.0268 -203.732)
(144.686 23.6717 -25.4504)
(-46.6511 -628.605 -230.594)
(-285.136 285.261 -2.99306)
(-389.443 39.7716 184.302)
(-450.843 -18.61 12.0899)
(-169.053 -88.0203 -322.777)
(-177.495 343.013 208.871)
(-646.201 38.6486 616.351)
(-470.102 513.413 28.9108)
(-14.2584 205.905 241.15)
(-232.014 -123.962 -86.5282)
(-704.422 75.1237 -221.647)
(-312.295 -85.0491 120.452)
(-291.408 91.9593 -124.455)
(-70.8998 -70.8997 250.246)
(-400.441 169.254 -66.0357)
(-78.6196 583.843 151.711)
(124.143 -199.097 137.893)
(271.372 204.382 54.6259)
(-256.702 -365.248 -57.1299)
(-277.845 -472.31 33.811)
(184.224 -47.5088 120.231)
(-582.699 -204.478 -55.4493)
(-433.863 -119.14 -217.932)
(-385.815 346.383 73.3693)
(96.1807 151.825 36.1819)
(-417.093 -85.0402 -69.9977)
(104.62 -626.57 -91.7574)
(-308.125 103.158 -150.39)
(-233.948 -230.781 266.192)
(30.7662 -237.172 215.078)
(-13.3941 14.8279 -41.929)
(-53.5442 35.0404 -281.112)
(-289.595 307.875 98.9712)
(-3.84935 -340.903 685.47)
(212.195 217.609 163.255)
(-289.754 -239.009 -202.553)
(-495.632 504.43 -132.317)
(-333.241 -144.223 -125.942)
(-374.194 186.65 -115.03)
(-53.2785 -36.4196 59.6829)
(-178.42 9.44975 -380.356)
(-210.434 -331.102 -121.713)
(-433.615 324.98 -253.681)
(-393.334 -191.482 -326.297)
(-462.179 -15.8213 30.8646)
(-623.184 -131.045 89.6979)
(-392.119 27.6975 -164.418)
(319.142 102.639 102.066)
(-511.68 -265.577 134.538)
(-245.972 -280.976 340.587)
(-435.526 -99.7075 -181.797)
(-280.861 -530.264 -178.216)
(-214.954 244.162 -293.536)
(-321.45 -170.723 293.628)
(-15.783 76.8755 -157.991)
(-199.046 -227.867 -393.596)
(-238.509 246.03 494.395)
(-200.537 293.643 82.7525)
(83.5528 311.963 196.62)
(46.3513 45.212 -258.89)
(-557.593 -323.524 237.103)
(110.429 38.9329 -187.971)
(-80.3053 78.8734 -294.968)
(-608.419 428.99 195.846)
(-616.954 -7.94073 106.2)
(-534.322 -213.484 33.7716)
(-423.667 12.3194 -29.9345)
(-390.604 400.389 -90.9118)
(-32.5909 194.337 332.103)
(60.1291 0.381581 -125.278)
(-141.335 134.029 10.3633)
(-278.455 74.6591 459.039)
(-41.9242 -14.8494 -7.66066)
(-99.5117 -495.591 -14.8954)
(-436.665 237.225 -161.152)
(-579.612 -39.011 -104.903)
(-267.758 -57.2003 -0.900604)
(180.915 4.77967 -208.836)
(-222.52 -706.914 33.3672)
(-284.561 -109.675 -269.828)
(-456.659 223.426 359.392)
(-200.15 -430.336 -501.214)
(-782.583 -280.049 -404.279)
(-497.421 621.488 238.912)
(-196.343 112.933 149.693)
(-359.421 499.013 420.706)
(-19.988 -529.231 -92.2281)
(-508.465 -173.923 96.684)
(-162.262 -304.637 57.5318)
(-352.27 -301.326 72.8335)
(-559.796 261.313 -76.0337)
(-274.92 112.198 116.036)
(-524.774 -59.7922 516.071)
(-687.725 -100.613 280.184)
(-218.757 282.578 -73.2105)
(-96.7264 107.839 -229.036)
(-252.873 352.69 3.53732)
(-249.342 243.209 -426.999)
(-102.611 243.728 -643.214)
(-345.766 464.575 87.4851)
(-225.466 124.84 608.65)
(-162.833 -418.662 234.372)
(-452.207 20.1096 -559.739)
(-236.278 -520.097 -166.274)
(-232.106 329.442 -376.215)
(-405.303 380.416 143.539)
(-580.519 16.7312 -87.7911)
(-530.321 -87.18 -317.572)
(-251.782 584.423 -426.84)
(-61.0003 -261.862 -165.395)
(-483.613 -32.4984 -67.237)
(-520.192 29.1003 -157.09)
(-387.162 -215.449 -192.322)
(-235.903 -208.972 -480.468)
(-17.3337 -142.744 -346.549)
(-176.323 -740.307 -285.442)
(-386.218 85.214 104.513)
(66.8682 139.52 -58.5015)
(-43.4053 -21.1273 0.86768)
(-399.323 150.435 -342.909)
(-36.2263 198.501 -34.1875)
(120.603 -558.053 -25.1975)
(76.9552 332.833 327.763)
(-598.268 584.229 -299.363)
(-412.933 -167.527 -49.8499)
(-382.191 161.719 -196.226)
(-304.504 -519.259 254.734)
(61.6853 330.634 134.786)
(-437.763 -179.453 142.472)
(-246.442 -481.14 -366.329)
(512.271 346.885 156.945)
(-503.386 4.2093 101.912)
(-19.4062 427.166 -10.6505)
(-154.05 -8.64696 300.298)
(-226.62 -124.096 -158.832)
(-651.358 -108.597 133.983)
(141.248 -156.582 -125.011)
(246.451 340.951 138.446)
(-758.834 101.586 80.8459)
(-395.598 63.7213 -387.729)
(-523.762 167.459 -249.143)
(-581.727 -297.174 390.359)
(-407.786 111.462 -36.5448)
(-503.613 160.522 -18.4294)
(-128.689 99.1791 -235.587)
(-155.743 -442.601 -10.5304)
(-596.039 -185.713 125.056)
(65.2508 348.911 -58.618)
(-34.9899 413.905 -571.216)
(-493.705 -201.125 -226.256)
(-283.531 237.565 14.6306)
(189.896 458.389 9.15094)
(-194.697 60.2469 189.421)
(-727.451 -148.015 -321.837)
(166.003 10.0521 165.075)
(-218.343 143.186 415.71)
(-207.245 -44.3623 74.7302)
(-396.801 424.729 104.401)
(-316.439 229.36 304.046)
(-306.534 -131.089 -59.3519)
(-21.5604 -288.487 -324.021)
(-174.167 -12.0332 276.805)
(-59.4084 -34.5839 -122.011)
(-217.638 243.599 562.68)
(-318.352 24.0059 -245.119)
(-248.453 4.98879 31.5688)
(35.5588 -214.608 263.582)
(-138.423 260.583 390.228)
(-204.319 -265.201 27.969)
(-598.795 -238.382 208.426)
(-31.1576 153.384 227.041)
(-137.578 -242.227 -257.054)
(-560.522 125.336 216.169)
(-302.112 -509.842 -149.278)
(-246.824 -27.1217 77.8354)
(-323.528 -77.8037 -13.5248)
(-415.181 -275.644 -102.384)
(60.1601 233.575 -116.914)
(-391.134 -11.588 406.262)
(-390.164 544.348 383.801)
(-168.975 -303.312 -199.123)
(338.178 256.159 -49.4484)
(-462.741 207.854 -90.2786)
(-11.92 363.278 -120.037)
(-228.044 367.812 122.861)
(-242.111 106.068 -460.772)
(-126.666 192.087 325.806)
(539.187 101.712 -22.5294)
(-342.421 -329.705 125.222)
(-523.061 -87.2359 -100.658)
(8.56979 165.921 -331.249)
(-184.344 -152.36 -8.57219)
(-255.768 -446.667 -239.554)
(-7.3102 -159.108 538.47)
(-264.554 59.0082 403.105)
(274.295 68.5255 -155.526)
(-306.259 141.745 135.324)
(-400.42 161.666 -45.4959)
(-159.401 -244.118 231.848)
(-250.294 -139.027 254.659)
(-623.736 -250.246 151.441)
(-487.902 117.5 -4.44411)
(159.465 73.5835 -70.6126)
(-365.667 -53.2676 -35.5615)
(-623.714 -103.643 -17.7284)
(-364.251 284.144 -201.338)
(-182.3 127.069 28.4872)
(52.8164 -164.359 -77.346)
(-420.768 -78.9179 -421.784)
(-98.871 13.0803 62.1147)
(-416.636 27.9493 266.725)
(-435.496 227.422 -255.183)
(89.9935 79.4868 -420.659)
(-478.781 -62.1455 -173.304)
(222.069 415.712 -228.795)
(-307.968 54.3805 5.35129)
(-181.687 435.263 -468.105)
(-599.623 -252.399 142.757)
(-272.837 -70.6105 -17.3659)
(4.24034 -424.687 206.07)
(-370.512 -497.164 -151.142)
(329.023 -2.28843 -172.422)
(-167.663 628.032 358.968)
(-276.902 644.777 -129.344)
(-140.114 61.8259 -319.056)
(-129.339 419.172 -44.6435)
(-124.931 128.565 270.832)
(-380.618 -423.604 -189.06)
(66.5993 -306.662 -22.7631)
(-217.444 -273.208 -143.845)
(-193.54 -79.5673 -241.723)
(-270.428 -117.033 -437.989)
(-378.894 2.56158 88.6773)
(-264.376 151.908 -62.6354)
(-437.581 -214.079 -39.1056)
(-322.667 -186.428 638.169)
(-270.766 126.215 56.3386)
(-353.928 117.642 -33.7944)
(-667.887 -359.118 -16.9858)
(-211.663 -248.981 -480.913)
(-40.2507 -2.69473 -668.276)
(-511.481 -126.995 -225.665)
(-449.742 63.8859 52.7916)
(-242.043 83.6963 -385.809)
(-341.53 -117.297 31.1294)
(-66.3578 -134.469 471.853)
(-300.914 -48.6971 172.237)
(-537.279 282.673 -164.558)
(-144.427 -233.141 415.601)
(-167.328 -106.038 378.117)
(-490.268 -375.629 -202.725)
(-689.735 -217.088 573.627)
(-393.323 -5.55496 -109.778)
(-165.065 26.6406 -262.948)
(98.9648 16.3512 -68.2496)
(-450.079 -127.08 630.843)
(-740.606 -457.729 141.494)
(-421.397 -212.973 -59.1376)
(10.9789 -168.272 539.121)
(-373.195 -66.1706 221.34)
(-47.4013 32.2691 11.6866)
(-499.834 -23.8562 -578.315)
(-384.519 47.9371 58.6896)
(-240.099 4.05434 99.3053)
(-846.541 49.2415 19.57)
(-6.70104 -80.899 -320.769)
(-251.248 -193.011 -512.155)
(-154.658 -225.003 363.272)
(-542.263 327.644 -161.54)
(-114.327 121.788 228.304)
(-312.253 -39.4664 412.079)
(-505.626 316.905 147.682)
(-161.744 38.3021 -16.527)
(-470.089 -75.0795 307.628)
(-354.395 63.4265 263.93)
(-39.8936 227.208 -186.622)
(-470.296 -151.12 363.266)
(-494.64 123.974 -382.59)
(-225.217 151.504 242.049)
(-464.951 116.067 -293.07)
(85.8475 263.932 -236.004)
(322.704 -144.834 -95.7267)
(-484.602 12.1702 -1.66025)
(-337.456 -165.83 154.476)
(-455.671 130.766 169.13)
(-134.187 -322.562 311.658)
(-251.153 410.255 -104.152)
(-72.2839 -32.4032 -378.806)
(-213.52 -41.6051 -374.071)
(-135.772 -307.032 125.214)
(-249.606 -434.868 -326.02)
(-275.377 -106.581 241.086)
(-216.014 123.689 155.95)
(-241.038 -41.5554 324.499)
(-43.4897 149.317 -145.478)
(-323.688 270.413 -151.203)
(-358.113 178.476 -10.1708)
(176.451 -134.959 -116.972)
(-237.034 81.5622 -258.007)
(-252.334 -270.165 -481.587)
(-541.856 57.7828 -506.548)
(402.146 119.648 291.739)
(-388.641 -241.67 -258.848)
(-200.027 249.881 -685.1)
(-599.458 -286.546 -344.635)
(-66.1675 -444.342 -169.059)
(-442.976 -289.73 333.403)
(-134.39 83.2415 231.061)
(-309.986 74.9923 -187.88)
(3.31662 -195.234 -574.052)
(-698.609 -30.1394 -639.291)
(-449.081 -181.972 -17.9148)
(-507.377 -356.669 -173.503)
(-464.335 -288.988 134.322)
(-525.648 262.777 -5.59828)
(140.89 -148.93 -460.743)
(-449.532 76.0617 -18.2109)
(84.9314 -165.771 -117.314)
(-86.198 72.8242 300.624)
(-581.035 138.411 -663.183)
(-505.035 300.846 141.059)
(-99.4174 -14.8139 -236.261)
(-598.141 274.82 -372.691)
(-221.633 -167.777 -321.951)
(-209.211 158.31 -561.327)
(-5.67437 72.1673 116.364)
(-422.967 71.9145 -581.98)
(-376.908 254.838 252.945)
(-364.464 169.245 -527.626)
(-46.5592 -295.489 -372.175)
(-274.45 -360.581 75.844)
(-355.334 -205.355 -111.497)
(9.07207 -237.478 -20.3675)
(-246.227 -286.858 -131.212)
(-515.671 -64.6521 -156.704)
(12.9801 257.398 -243.347)
(-298.362 534.009 46.4614)
(-314.307 -21.6105 -315.594)
(-412.683 -53.5241 147.067)
(-371.656 14.6006 -274.62)
(-339.565 -313.127 85.6857)
(-447.378 -252.107 30.1104)
(-266.383 -74.1535 250.264)
(-442.841 149.89 -557.423)
(-242.232 103.337 -232.082)
(-494.377 -463.491 522.139)
(-614.978 -241.805 78.54)
(-252.743 -53.6066 376.208)
(-464.48 274.184 246.634)
(-157.465 -207.02 -43.569)
(-150.747 118.647 -195.205)
(186.036 221.505 -241.795)
(-468.775 -364.912 70.5733)
(-228.028 -35.2905 -418.825)
(-17.2884 -313.93 -51.7116)
(-726.893 -157.769 -110.521)
(-557.331 -35.9539 29.9474)
(-316.521 159.052 -227.233)
(6.19649 294.989 -76.9366)
(-199.614 -385.362 -184.901)
(-176.618 473.253 -1.09208)
(-401.758 -428.73 -137.672)
(117.364 -229.52 541.751)
(-271.745 317.099 455.683)
(-308.418 111.507 7.34338)
(-52.3516 -295.848 -340.224)
(-499.711 48.4886 -155.175)
(-171.496 -389.212 -338.993)
(-512.947 165.766 -357.534)
(-610.66 -280.078 -79.3606)
(-682.69 -30.7082 -114.224)
(-111.958 -0.566254 352.075)
(-11.8284 241.645 -196.665)
(212.219 -209.355 256.052)
(-436.148 -171.552 36.6993)
(-540.613 -85.1706 -382.883)
(50.9874 -40.3102 -71.9811)
(-590.222 290.995 -22.4338)
(-142.804 -282.442 108.716)
(-108.187 277.795 246.344)
(-568.251 -248.584 -454.305)
(78.9515 40.7056 -567.051)
(-435.305 289.106 112.003)
(-183.534 -164.153 -10.4734)
(207.052 15.3506 -98.6597)
(-215.543 -168.905 -219.806)
(-515.995 457.345 -197.85)
(-375.334 -217.277 -237.537)
(-348.123 276.9 113.108)
(94.8257 39.4691 68.7279)
(-181.697 348.112 -325.036)
(-194.148 -112.536 -198.424)
(101.251 3.132 96.498)
(-358.217 350.407 288.646)
(-352.619 -567.372 247.159)
(-25.3359 733.771 299.055)
(-31.7985 -129.504 -315.46)
(-365.151 -31.1129 -254.067)
(-162.243 153.909 -473.517)
(98.6516 513.978 199.119)
(-625.893 24.671 432.743)
(64.3981 267.013 139.382)
(274.788 -216.557 -184.445)
(-304.688 299.04 195.12)
(-440.496 461.649 -199.868)
(582.905 349.913 -146.575)
(161.581 280.025 361.832)
(-107.709 -45.5246 171.129)
(-50.9213 45.5783 17.1861)
(-477.553 411.196 260.345)
(-57.5679 185.655 -556.912)
(-110.403 94.2563 -15.1356)
(-676.344 265.96 66.3187)
(-175.107 -224.905 -230.241)
(-100.728 -197.242 -390.232)
(-343.019 -153.556 208.516)
(26.474 -453.853 65.0106)
(-361.007 149.484 91.8338)
(-219.64 -36.175 235.328)
(-467.631 266.559 -212.986)
(-82.0812 67.2046 -390.571)
(31.6983 273.721 74.6215)
(-78.8062 151.235 387.554)
(2.86741 250.832 102.755)
(661.864 462.073 -508.329)
(-775.297 -362.941 -317.256)
(-28.4781 21.2559 402.924)
(-646.894 -64.0128 146.362)
(-40.0692 26.9564 -749.862)
(-294.866 277.588 55.6104)
(-155.922 -511.974 409.499)
(58.6505 221.469 15.8968)
(-233.23 53.4519 145.064)
(-177.178 -429.344 285.655)
(-682.336 16.4699 25.6052)
(-212.861 444.475 237.011)
(-736.835 162.912 -255.2)
(-471.328 167.675 -112.633)
(-571.184 443.45 163.023)
(-281.351 128.952 87.3543)
(-250.863 55.6033 402.386)
(28.0391 -425.815 205.897)
(231.378 -190.296 260.944)
(-233.959 -228.555 -133.406)
(-223.472 -10.1141 208.122)
(-729.875 -170.23 388.299)
(-239.416 -255.636 -135.715)
(291.646 -114.991 -39.4204)
(-117.843 390.936 85.7185)
(-219.257 429.215 110.478)
(-605.435 66.5675 -179.112)
(182.294 -196.772 -18.1463)
(-337.362 -73.9872 -498.509)
(-478.356 19.402 43.5579)
(-237.111 -111.701 -466.538)
(-246.958 -279.012 -114.852)
(36.1615 -364.42 183.569)
(-625.576 -282.748 387.008)
(-96.6459 297.958 -58.9759)
(-111.272 62.3105 135.369)
(-218.357 421.426 -60.5455)
(-180.482 -445.865 -263.682)
(-202.298 161.229 271.993)
(-19.2911 -12.8817 137.024)
(-300.353 57.1147 -28.6211)
(-228.105 45.4089 248.7)
(-139.18 -124.433 -450.59)
(-519.22 -293.02 -124.588)
(-150.596 420.918 -139.465)
(-195.279 168.969 -151.46)
(-149.928 -190.67 -39.0532)
(-605.964 184.683 -20.5786)
(-441.112 262.716 -77.2286)
(-519.102 367.66 -9.52217)