/*--------------------------------*- C++ -*----------------------------------*\
  =========                 |
  \\      /  F ield         | OpenFOAM: The Open Source CFD Toolbox
   \\    /   O peration     | Website:  https://openfoam.org
    \\  /    A nd           | Version:  7
     \\/     M anipulation  |
\*---------------------------------------------------------------------------*/
FoamFile
{
    version     2.0;
    format      ascii;
    class       volVectorField;
    location    "0.15";
    object      U;
}
// * * * * * * * * * * * * * * * * * * * * * * * * * * * * * * * * * * * * * //

dimensions      [0 1 -1 0 0 0 0];

internalField   nonuniform List<vector> 
1915
(
(0.0620373 -0.697823 0)
(0.0596724 -0.697955 0)
(0.0573271 -0.694228 0)
(0.0554977 -0.681477 0)
(0.052844 -0.64069 0)
(-0.0676728 -0.349751 0)
(-0.119943 -0.126874 0)
(-0.158016 0.0519727 0)
(-0.183078 0.194052 0)
(-0.197037 0.30379 0)
(-0.202298 0.385322 0)
(-0.200976 0.442772 0)
(-0.194835 0.48043 0)
(-0.185363 0.502536 0)
(-0.173764 0.51294 0)
(-0.160938 0.514852 0)
(-0.14752 0.510781 0)
(-0.133943 0.502602 0)
(-0.120498 0.491684 0)
(-0.107381 0.479016 0)
(-0.0947221 0.465305 0)
(-0.0826099 0.451048 0)
(-0.0711061 0.436589 0)
(-0.0602516 0.422161 0)
(-0.0500695 0.407919 0)
(-0.00949423 -0.843282 0)
(0.0491111 -0.681051 0)
(0.0766355 -0.735817 0)
(0.045048 -0.768427 0)
(0.0138928 -0.794289 0)
(-0.0134398 -0.78681 0)
(-0.0400422 -0.763678 0)
(-0.0338466 -0.743348 0)
(-0.0222416 -0.726449 0)
(-0.00940492 -0.713116 0)
(0.0029836 -0.703131 0)
(0.0145619 -0.696112 0)
(0.0252582 -0.691709 0)
(0.0349576 -0.689576 0)
(0.0435374 -0.689335 0)
(0.0508773 -0.690568 0)
(0.0568193 -0.692803 0)
(0.061157 -0.695479 0)
(0.0635427 -0.697998 0)
(0.0637576 -0.699708 0)
(0.061856 -0.69912 0)
(0.0568964 -0.697968 0)
(0.0476447 -0.69778 0)
(0.0178789 -0.6766 0)
(-0.0732738 -0.509218 0)
(-0.161049 -0.27743 0)
(-0.199308 -0.080401 0)
(-0.22423 0.081198 0)
(-0.239501 0.210674 0)
(-0.24578 0.310704 0)
(-0.244894 0.384746 0)
(-0.238559 0.436626 0)
(-0.228332 0.470375 0)
(-0.215534 0.48994 0)
(-0.201216 0.498851 0)
(-0.186143 0.500023 0)
(-0.170844 0.495726 0)
(-0.15567 0.487663 0)
(-0.140856 0.477088 0)
(-0.126556 0.464916 0)
(-0.112866 0.451804 0)
(-0.0998505 0.438213 0)
(-0.0875483 0.424464 0)
(-0.0759829 0.410771 0)
(-0.0651622 0.397281 0)
(0.00476717 -0.867319 0)
(0.0639186 -0.767469 0)
(0.101497 -0.738696 0)
(0.093405 -0.735483 0)
(0.0739507 -0.743976 0)
(0.0517273 -0.753096 0)
(0.0333971 -0.761458 0)
(0.0210881 -0.768094 0)
(0.0127561 -0.761648 0)
(0.00917437 -0.749475 0)
(0.0100271 -0.738205 0)
(0.013268 -0.729299 0)
(0.0174274 -0.722521 0)
(0.0215143 -0.717529 0)
(0.0248 -0.713976 0)
(0.0267423 -0.711446 0)
(0.0269402 -0.709383 0)
(0.0251392 -0.70714 0)
(0.021332 -0.703747 0)
(0.0147115 -0.699183 0)
(0.0038605 -0.69146 0)
(-0.015581 -0.680047 0)
(-0.0506776 -0.655074 0)
(-0.109708 -0.581443 0)
(-0.191318 -0.424231 0)
(-0.249974 -0.227661 0)
(-0.277228 -0.0512644 0)
(-0.291654 0.0975888 0)
(-0.29674 0.217267 0)
(-0.294784 0.309635 0)
(-0.287259 0.377793 0)
(-0.275615 0.425352 0)
(-0.261159 0.456173 0)
(-0.244978 0.47396 0)
(-0.227923 0.481965 0)
(-0.210601 0.482846 0)
(-0.193425 0.478673 0)
(-0.176665 0.471005 0)
(-0.160495 0.461002 0)
(-0.145024 0.449514 0)
(-0.130318 0.437157 0)
(-0.116415 0.424363 0)
(-0.103332 0.411431 0)
(-0.0910718 0.398562 0)
(-0.079628 0.385896 0)
(0.0109614 -0.902412 0)
(0.0527996 -0.826636 0)
(0.0849354 -0.758804 0)
(0.0924893 -0.730829 0)
(0.0861603 -0.722535 0)
(0.0721231 -0.723259 0)
(0.0552653 -0.727832 0)
(0.0385752 -0.731034 0)
(0.0241525 -0.729875 0)
(0.0134775 -0.725762 0)
(0.00647097 -0.720847 0)
(0.00188527 -0.715827 0)
(-0.0013059 -0.711065 0)
(-0.00396143 -0.706799 0)
(-0.00681406 -0.703073 0)
(-0.0104993 -0.69977 0)
(-0.0156403 -0.696635 0)
(-0.0229664 -0.693169 0)
(-0.033244 -0.688619 0)
(-0.0478459 -0.680485 0)
(-0.0691466 -0.666921 0)
(-0.101082 -0.64192 0)
(-0.148886 -0.593306 0)
(-0.213124 -0.502935 0)
(-0.279635 -0.359438 0)
(-0.323162 -0.192045 0)
(-0.344388 -0.0332549 0)
(-0.351436 0.103451 0)
(-0.34916 0.214586 0)
(-0.340459 0.300812 0)
(-0.327137 0.364479 0)
(-0.310696 0.408929 0)
(-0.292334 0.437813 0)
(-0.272987 0.454597 0)
(-0.253344 0.462288 0)
(-0.233882 0.463329 0)
(-0.214912 0.459629 0)
(-0.196631 0.452635 0)
(-0.179162 0.443432 0)
(-0.162573 0.432819 0)
(-0.1469 0.421374 0)
(-0.132153 0.409508 0)
(-0.118328 0.397503 0)
(-0.105409 0.385551 0)
(-0.0933741 0.373784 0)
(0.00437225 -0.929951 0)
(0.0263854 -0.858132 0)
(0.0468653 -0.780855 0)
(0.05961 -0.737931 0)
(0.0621276 -0.717774 0)
(0.0562647 -0.71101 0)
(0.0446223 -0.710546 0)
(0.0300287 -0.711845 0)
(0.015052 -0.711895 0)
(0.00143826 -0.710371 0)
(-0.010294 -0.707905 0)
(-0.0204397 -0.704838 0)
(-0.0294759 -0.701423 0)
(-0.0379521 -0.697852 0)
(-0.0464637 -0.694153 0)
(-0.0556534 -0.690164 0)
(-0.0662727 -0.685489 0)
(-0.0793015 -0.679334 0)
(-0.0960233 -0.670289 0)
(-0.117973 -0.65618 0)
(-0.147215 -0.632848 0)
(-0.186303 -0.594896 0)
(-0.236411 -0.533619 0)
(-0.294313 -0.438441 0)
(-0.347044 -0.308723 0)
(-0.382127 -0.162268 0)
(-0.398539 -0.0213574 0)
(-0.40101 0.102794 0)
(-0.394 0.205488 0)
(-0.380527 0.285971 0)
(-0.362811 0.345849 0)
(-0.342527 0.387994 0)
(-0.320908 0.415691 0)
(-0.298835 0.432102 0)
(-0.276912 0.439984 0)
(-0.255529 0.441588 0)
(-0.234931 0.438683 0)
(-0.215263 0.432625 0)
(-0.196603 0.424438 0)
(-0.178989 0.414879 0)
(-0.162428 0.404499 0)
(-0.146907 0.393689 0)
(-0.132401 0.382717 0)
(-0.118879 0.37177 0)
(-0.106304 0.360975 0)
(-0.00691831 -0.937389 0)
(-0.00174161 -0.868165 0)
(0.00731425 -0.796512 0)
(0.0173013 -0.747922 0)
(0.0222336 -0.719385 0)
(0.0208087 -0.705217 0)
(0.0136963 -0.69961 0)
(0.00253655 -0.697958 0)
(-0.0107431 -0.69735 0)
(-0.0246221 -0.696469 0)
(-0.0383028 -0.694971 0)
(-0.0515501 -0.692793 0)
(-0.0644281 -0.689962 0)
(-0.0772012 -0.686495 0)
(-0.0902987 -0.682284 0)
(-0.1043 -0.677015 0)
(-0.119972 -0.670074 0)
(-0.138293 -0.660414 0)
(-0.160459 -0.646307 0)
(-0.187804 -0.625161 0)
(-0.221605 -0.593332 0)
(-0.262652 -0.545939 0)
(-0.310107 -0.477239 0)
(-0.359313 -0.383313 0)
(-0.40154 -0.266023 0)
(-0.429328 -0.138066 0)
(-0.441433 -0.0134818 0)
(-0.440756 0.0982594 0)
(-0.430636 0.192212 0)
(-0.414013 0.266899 0)
(-0.393263 0.323233 0)
(-0.370193 0.363482 0)
(-0.346101 0.390446 0)
(-0.321874 0.406913 0)
(-0.298087 0.415359 0)
(-0.275098 0.417841 0)
(-0.253114 0.415999 0)
(-0.232252 0.411106 0)
(-0.212562 0.404128 0)
(-0.194057 0.395788 0)
(-0.176722 0.386612 0)
(-0.160525 0.376974 0)
(-0.145424 0.367133 0)
(-0.131373 0.357271 0)
(-0.118322 0.347514 0)
(-0.0157684 -0.922328 0)
(-0.0230746 -0.867221 0)
(-0.0234338 -0.803021 0)
(-0.0200227 -0.75433 0)
(-0.0174917 -0.721718 0)
(-0.018456 -0.702121 0)
(-0.0236731 -0.691505 0)
(-0.0326827 -0.686171 0)
(-0.0444462 -0.683376 0)
(-0.0579169 -0.681478 0)
(-0.0723345 -0.679629 0)
(-0.087288 -0.677357 0)
(-0.102643 -0.674397 0)
(-0.118491 -0.670521 0)
(-0.135127 -0.665403 0)
(-0.153014 -0.658525 0)
(-0.172798 -0.649069 0)
(-0.195291 -0.635786 0)
(-0.221386 -0.616868 0)
(-0.251913 -0.589834 0)
(-0.287341 -0.551571 0)
(-0.327346 -0.49856 0)
(-0.370022 -0.427632 0)
(-0.41117 -0.337641 0)
(-0.44484 -0.231982 0)
(-0.466339 -0.119186 0)
(-0.474664 -0.00909667 0)
(-0.471425 0.090828 0)
(-0.459192 0.176102 0)
(-0.440602 0.244985 0)
(-0.417958 0.297846 0)
(-0.393088 0.336363 0)
(-0.367321 0.362814 0)
(-0.341563 0.379575 0)
(-0.316398 0.388819 0)
(-0.292183 0.3924 0)
(-0.26912 0.391823 0)
(-0.247311 0.388275 0)
(-0.226797 0.382666 0)
(-0.207573 0.375684 0)
(-0.18961 0.367829 0)
(-0.172861 0.359463 0)
(-0.157272 0.350836 0)
(-0.142785 0.342128 0)
(-0.129339 0.333466 0)
(-0.0192717 -0.896511 0)
(-0.0355457 -0.855289 0)
(-0.0442699 -0.800065 0)
(-0.0478564 -0.754579 0)
(-0.0499108 -0.721107 0)
(-0.0531081 -0.698419 0)
(-0.0588993 -0.684023 0)
(-0.0676274 -0.675231 0)
(-0.0789856 -0.66979 0)
(-0.0924087 -0.666064 0)
(-0.107368 -0.662961 0)
(-0.123499 -0.659765 0)
(-0.140626 -0.655962 0)
(-0.158753 -0.651088 0)
(-0.178067 -0.644611 0)
(-0.198914 -0.63582 0)
(-0.221761 -0.623751 0)
(-0.24716 -0.607081 0)
(-0.275627 -0.584078 0)
(-0.307466 -0.552605 0)
(-0.342524 -0.510257 0)
(-0.379842 -0.454758 0)
(-0.417264 -0.384621 0)
(-0.451334 -0.300265 0)
(-0.47797 -0.205056 0)
(-0.494144 -0.105277 0)
(-0.499037 -0.00797133 0)
(-0.493663 0.0810859 0)
(-0.480004 0.158084 0)
(-0.460309 0.221291 0)
(-0.436681 0.270717 0)
(-0.410861 0.307538 0)
(-0.38416 0.33354 0)
(-0.357494 0.350686 0)
(-0.331467 0.360843 0)
(-0.30645 0.365648 0)
(-0.282656 0.366466 0)
(-0.260193 0.364387 0)
(-0.239097 0.360265 0)
(-0.219358 0.354743 0)
(-0.20094 0.348301 0)
(-0.183787 0.341283 0)
(-0.167837 0.333936 0)
(-0.153021 0.326436 0)
(-0.139275 0.318913 0)
(-0.0200122 -0.865248 0)
(-0.0417698 -0.835322 0)
(-0.0568432 -0.788967 0)
(-0.0665514 -0.748193 0)
(-0.0736211 -0.715874 0)
(-0.0803118 -0.69199 0)
(-0.0882295 -0.675187 0)
(-0.098126 -0.663676 0)
(-0.110166 -0.65572 0)
(-0.124179 -0.64988 0)
(-0.139898 -0.645053 0)
(-0.157096 -0.6404 0)
(-0.175637 -0.635238 0)
(-0.195505 -0.628927 0)
(-0.216808 -0.620774 0)
(-0.239761 -0.609945 0)
(-0.264643 -0.595401 0)
(-0.291736 -0.575847 0)
(-0.321208 -0.549739 0)
(-0.352947 -0.515352 0)
(-0.386379 -0.470986 0)
(-0.420268 -0.415305 0)
(-0.452577 -0.347886 0)
(-0.480583 -0.269834 0)
(-0.501442 -0.184213 0)
(-0.513139 -0.095766 0)
(-0.515094 -0.00969456 0)
(-0.508024 0.0695552 0)
(-0.493478 0.138863 0)
(-0.473332 0.196647 0)
(-0.449431 0.242701 0)
(-0.423369 0.27781 0)
(-0.396393 0.303334 0)
(-0.369409 0.320855 0)
(-0.343031 0.331941 0)
(-0.317653 0.338015 0)
(-0.293504 0.340286 0)
(-0.270703 0.339744 0)
(-0.249294 0.337175 0)
(-0.229269 0.333179 0)
(-0.210589 0.328206 0)
(-0.193197 0.322587 0)
(-0.177025 0.316562 0)
(-0.162002 0.310306 0)
(-0.14806 0.303952 0)
(-0.0196192 -0.831512 0)
(-0.0442089 -0.810292 0)
(-0.0635798 -0.77166 0)
(-0.0780941 -0.73583 0)
(-0.0896861 -0.705695 0)
(-0.100106 -0.68189 0)
(-0.1108 -0.663829 0)
(-0.122657 -0.650405 0)
(-0.136082 -0.640358 0)
(-0.151172 -0.632509 0)
(-0.167883 -0.625843 0)
(-0.186128 -0.6195 0)
(-0.20584 -0.612716 0)
(-0.227004 -0.604743 0)
(-0.249674 -0.594795 0)
(-0.273953 -0.581978 0)
(-0.299943 -0.56526 0)
(-0.327688 -0.543452 0)
(-0.357077 -0.515247 0)
(-0.387712 -0.479329 0)
(-0.418796 -0.434571 0)
(-0.44904 -0.380321 0)
(-0.476658 -0.316759 0)
(-0.499544 -0.245239 0)
(-0.515693 -0.168414 0)
(-0.523748 -0.0899462 0)
(-0.523342 -0.0137545 0)
(-0.515039 0.0567356 0)
(-0.50007 0.119018 0)
(-0.479987 0.17171 0)
(-0.456374 0.214496 0)
(-0.43065 0.247873 0)
(-0.40397 0.272847 0)
(-0.377204 0.290672 0)
(-0.350964 0.302637 0)
(-0.325656 0.309951 0)
(-0.30153 0.313671 0)
(-0.278719 0.314676 0)
(-0.257277 0.313678 0)
(-0.237205 0.311228 0)
(-0.218468 0.307746 0)
(-0.201011 0.303547 0)
(-0.184768 0.298862 0)
(-0.169668 0.293865 0)
(-0.155641 0.288692 0)
(-0.0187827 -0.797183 0)
(-0.0445025 -0.782188 0)
(-0.0665612 -0.749889 0)
(-0.0845578 -0.71857 0)
(-0.0998153 -0.690978 0)
(-0.113589 -0.667993 0)
(-0.127065 -0.64951 0)
(-0.141093 -0.634889 0)
(-0.156169 -0.623251 0)
(-0.172546 -0.613674 0)
(-0.190328 -0.605277 0)
(-0.209539 -0.59724 0)
(-0.230169 -0.588781 0)
(-0.252211 -0.579119 0)
(-0.275678 -0.567435 0)
(-0.300578 -0.552843 0)
(-0.326872 -0.534371 0)
(-0.354422 -0.510978 0)
(-0.382922 -0.481609 0)
(-0.411808 -0.445308 0)
(-0.440199 -0.401384 0)
(-0.466875 -0.34963 0)
(-0.490333 -0.290542 0)
(-0.508961 -0.225492 0)
(-0.521331 -0.156722 0)
(-0.526529 -0.0870904 0)
(-0.524352 -0.0195957 0)
(-0.515275 0.0431154 0)
(-0.500297 0.0990467 0)
(-0.480699 0.147024 0)
(-0.457824 0.186684 0)
(-0.432912 0.218321 0)
(-0.40701 0.242665 0)
(-0.38093 0.260688 0)
(-0.35527 0.273434 0)
(-0.330438 0.281908 0)
(-0.306696 0.287015 0)
(-0.284193 0.289525 0)
(-0.262996 0.290067 0)
(-0.243117 0.289142 0)
(-0.22453 0.287137 0)
(-0.207186 0.284346 0)
(-0.191025 0.280993 0)
(-0.175979 0.277248 0)
(-0.161982 0.27325 0)
(-0.0178468 -0.763206 0)
(-0.0437244 -0.75249 0)
(-0.067262 -0.725118 0)
(-0.0875772 -0.697626 0)
(-0.105569 -0.672511 0)
(-0.122039 -0.650689 0)
(-0.137917 -0.632311 0)
(-0.153933 -0.617037 0)
(-0.170589 -0.604273 0)
(-0.188205 -0.593312 0)
(-0.206964 -0.583413 0)
(-0.226952 -0.573827 0)
(-0.248199 -0.563803 0)
(-0.270702 -0.552579 0)
(-0.294442 -0.53936 0)
(-0.319354 -0.523312 0)
(-0.345296 -0.503564 0)
(-0.372006 -0.47924 0)
(-0.399061 -0.449517 0)
(-0.425825 -0.413729 0)
(-0.451425 -0.371499 0)
(-0.47477 -0.322891 0)
(-0.494627 -0.268538 0)
(-0.509765 -0.209714 0)
(-0.519163 -0.148282 0)
(-0.522207 -0.0864917 0)
(-0.518811 -0.0266577 0)
(-0.509392 0.0291648 0)
(-0.49477 0.0793927 0)
(-0.476005 0.123043 0)
(-0.454229 0.159748 0)
(-0.430511 0.189659 0)
(-0.40578 0.213297 0)
(-0.380784 0.2314 0)
(-0.356086 0.244797 0)
(-0.332089 0.254312 0)
(-0.30906 0.260702 0)
(-0.287159 0.264626 0)
(-0.266467 0.266635 0)
(-0.247009 0.267175 0)
(-0.22877 0.266597 0)
(-0.211713 0.265174 0)
(-0.195783 0.263118 0)
(-0.180922 0.260597 0)
(-0.16707 0.257749 0)
(-0.0169218 -0.730019 0)
(-0.0424437 -0.722166 0)
(-0.0666049 -0.698477 0)
(-0.0883169 -0.674111 0)
(-0.10816 -0.651199 0)
(-0.126593 -0.630623 0)
(-0.144317 -0.612638 0)
(-0.161925 -0.597093 0)
(-0.179879 -0.58359 0)
(-0.198502 -0.571589 0)
(-0.218 -0.560469 0)
(-0.238488 -0.549565 0)
(-0.260015 -0.538192 0)
(-0.282575 -0.525638 0)
(-0.306122 -0.511174 0)
(-0.330539 -0.494046 0)
(-0.355618 -0.473504 0)
(-0.381025 -0.448831 0)
(-0.406286 -0.419406 0)
(-0.430755 -0.384788 0)
(-0.453625 -0.344811 0)
(-0.473954 -0.29969 0)
(-0.490745 -0.250085 0)
(-0.503064 -0.197124 0)
(-0.510174 -0.142339 0)
(-0.51167 -0.0875045 0)
(-0.507542 -0.034419 0)
(-0.498161 0.0153144 0)
(-0.484206 0.0604422 0)
(-0.466557 0.100149 0)
(-0.446161 0.134085 0)
(-0.423932 0.162306 0)
(-0.400682 0.185171 0)
(-0.377084 0.203233 0)
(-0.353662 0.217138 0)
(-0.330801 0.227545 0)
(-0.308766 0.235078 0)
(-0.287724 0.240292 0)
(-0.267769 0.24366 0)
(-0.248938 0.24557 0)
(-0.231229 0.246338 0)
(-0.214617 0.246214 0)
(-0.19906 0.245399 0)
(-0.184507 0.244052 0)
(-0.170908 0.242312 0)
(-0.0160891 -0.697777 0)
(-0.0409375 -0.691789 0)
(-0.0651364 -0.670842 0)
(-0.0875419 -0.648956 0)
(-0.108468 -0.627919 0)
(-0.128169 -0.608531 0)
(-0.147145 -0.591076 0)
(-0.165871 -0.575512 0)
(-0.184738 -0.561572 0)
(-0.204033 -0.548834 0)
(-0.223952 -0.536779 0)
(-0.244615 -0.524829 0)
(-0.266074 -0.512374 0)
(-0.288317 -0.49878 0)
(-0.311274 -0.483398 0)
(-0.334797 -0.465574 0)
(-0.358638 -0.44468 0)
(-0.382438 -0.420146 0)
(-0.405715 -0.391516 0)
(-0.42786 -0.358514 0)
(-0.448156 -0.321112 0)
(-0.46581 -0.279591 0)
(-0.480027 -0.234582 0)
(-0.490096 -0.187051 0)
(-0.495489 -0.138246 0)
(-0.495939 -0.0895685 0)
(-0.491485 -0.0424227 0)
(-0.482458 0.00193705 0)
(-0.46942 0.0425186 0)
(-0.453101 0.0786501 0)
(-0.434288 0.11001 0)
(-0.413758 0.136591 0)
(-0.392213 0.158632 0)
(-0.370248 0.176536 0)
(-0.348339 0.190796 0)
(-0.326848 0.201933 0)
(-0.306031 0.210448 0)
(-0.28606 0.2168 0)
(-0.267035 0.221388 0)
(-0.249005 0.224548 0)
(-0.231984 0.226557 0)
(-0.215959 0.227642 0)
(-0.2009 0.227988 0)
(-0.186768 0.227749 0)
(-0.173522 0.227058 0)
(-0.0153577 -0.666558 0)
(-0.0393281 -0.661742 0)
(-0.0631817 -0.642866 0)
(-0.0857333 -0.622912 0)
(-0.107129 -0.603432 0)
(-0.12749 -0.585114 0)
(-0.147169 -0.56824 0)
(-0.166535 -0.552823 0)
(-0.185899 -0.538671 0)
(-0.205496 -0.525449 0)
(-0.225494 -0.512722 0)
(-0.246003 -0.5 0)
(-0.26707 -0.486749 0)
(-0.288674 -0.47242 0)
(-0.310726 -0.456452 0)
(-0.333059 -0.438294 0)
(-0.355414 -0.417431 0)
(-0.377434 -0.393423 0)
(-0.398663 -0.365943 0)
(-0.418551 -0.334832 0)
(-0.43648 -0.300142 0)
(-0.451798 -0.262175 0)
(-0.463874 -0.221498 0)
(-0.472171 -0.178925 0)
(-0.476307 -0.135464 0)
(-0.476114 -0.0922195 0)
(-0.471656 -0.0502925 0)
(-0.463223 -0.0106659 0)
(-0.451283 0.0258737 0)
(-0.436435 0.0587767 0)
(-0.419335 0.087753 0)
(-0.400635 0.112755 0)
(-0.380935 0.133932 0)
(-0.360754 0.15157 0)
(-0.34052 0.166035 0)
(-0.320564 0.177731 0)
(-0.30113 0.187055 0)
(-0.282386 0.194378 0)
(-0.264441 0.200031 0)
(-0.247353 0.2043 0)
(-0.231148 0.207426 0)
(-0.215827 0.209611 0)
(-0.201373 0.211024 0)
(-0.187761 0.211812 0)
(-0.174955 0.212101 0)
(-0.0146687 -0.636388 0)
(-0.0376607 -0.632314 0)
(-0.0609102 -0.615014 0)
(-0.0831921 -0.596564 0)
(-0.104589 -0.578358 0)
(-0.125116 -0.560979 0)
(-0.145028 -0.54469 0)
(-0.164601 -0.529521 0)
(-0.184068 -0.515324 0)
(-0.20361 -0.501826 0)
(-0.223367 -0.488669 0)
(-0.243429 -0.475434 0)
(-0.26383 -0.461669 0)
(-0.284538 -0.446901 0)
(-0.305453 -0.430659 0)
(-0.326401 -0.412486 0)
(-0.347129 -0.39197 0)
(-0.367303 -0.368775 0)
(-0.386509 -0.342676 0)
(-0.404269 -0.313591 0)
(-0.420063 -0.281617 0)
(-0.433362 -0.247048 0)
(-0.443672 -0.210377 0)
(-0.450587 -0.172279 0)
(-0.453833 -0.133559 0)
(-0.453305 -0.095093 0)
(-0.449081 -0.0577403 0)
(-0.441407 -0.0222735 0)
(-0.430675 0.0106823 0)
(-0.417372 0.0406793 0)
(-0.402041 0.0674599 0)
(-0.385225 0.0909515 0)
(-0.367432 0.111236 0)
(-0.349112 0.128509 0)
(-0.33064 0.143038 0)
(-0.312316 0.155125 0)
(-0.294367 0.165081 0)
(-0.276956 0.173202 0)
(-0.260195 0.179756 0)
(-0.24415 0.184984 0)
(-0.228859 0.18909 0)
(-0.214333 0.192255 0)
(-0.200572 0.19463 0)
(-0.187558 0.196351 0)
(-0.175268 0.197539 0)
(-0.0139754 -0.607293 0)
(-0.0359455 -0.603712 0)
(-0.0583944 -0.587605 0)
(-0.080119 -0.570345 0)
(-0.101168 -0.55318 0)
(-0.121484 -0.53662 0)
(-0.141251 -0.520898 0)
(-0.160664 -0.506041 0)
(-0.179893 -0.491928 0)
(-0.199076 -0.478334 0)
(-0.218321 -0.46496 0)
(-0.237696 -0.451454 0)
(-0.257218 -0.437433 0)
(-0.276845 -0.422498 0)
(-0.296471 -0.406253 0)
(-0.315926 -0.388329 0)
(-0.334975 -0.3684 0)
(-0.353315 -0.346216 0)
(-0.370587 -0.321624 0)
(-0.386386 -0.294599 0)
(-0.400283 -0.265254 0)
(-0.411855 -0.233861 0)
(-0.420718 -0.200838 0)
(-0.426566 -0.166736 0)
(-0.429203 -0.132201 0)
(-0.428566 -0.0979183 0)
(-0.424732 -0.0645636 0)
(-0.417914 -0.032744 0)
(-0.408432 -0.00295764 0)
(-0.396683 0.0244302 0)
(-0.383111 0.0491939 0)
(-0.368167 0.0712463 0)
(-0.352278 0.0906214 0)
(-0.335825 0.107445 0)
(-0.319136 0.121907 0)
(-0.302479 0.134229 0)
(-0.286061 0.144647 0)
(-0.270038 0.153393 0)
(-0.25452 0.160684 0)
(-0.239583 0.166716 0)
(-0.22527 0.171663 0)
(-0.211606 0.17568 0)
(-0.198601 0.178905 0)
(-0.186248 0.18146 0)
(-0.174534 0.18346 0)
(-0.0132745 -0.579342 0)
(-0.0341859 -0.576069 0)
(-0.0556916 -0.56088 0)
(-0.0766708 -0.544578 0)
(-0.09712 -0.528281 0)
(-0.11695 -0.512446 0)
(-0.13628 -0.497267 0)
(-0.155243 -0.482765 0)
(-0.173963 -0.46884 0)
(-0.192545 -0.4553 0)
(-0.211067 -0.441896 0)
(-0.229573 -0.428328 0)
(-0.248065 -0.414274 0)
(-0.266491 -0.399397 0)
(-0.284746 -0.383372 0)
(-0.302673 -0.365901 0)
(-0.320057 -0.346731 0)
(-0.336638 -0.32568 0)
(-0.352109 -0.302649 0)
(-0.366136 -0.277643 0)
(-0.37837 -0.250783 0)
(-0.388476 -0.222308 0)
(-0.396159 -0.192567 0)
(-0.401188 -0.162007 0)
(-0.403423 -0.131141 0)
(-0.402828 -0.100508 0)
(-0.399478 -0.0706373 0)
(-0.39355 -0.0420087 0)
(-0.385304 -0.0150201 0)
(-0.375063 0.0100294 0)
(-0.363188 0.0329444 0)
(-0.350048 0.0536315 0)
(-0.335999 0.0720906 0)
(-0.321363 0.0883962 0)
(-0.306423 0.102676 0)
(-0.291413 0.115089 0)
(-0.276523 0.125812 0)
(-0.261897 0.135022 0)
(-0.247645 0.14289 0)
(-0.233844 0.149575 0)
(-0.220545 0.155223 0)
(-0.207782 0.159967 0)
(-0.195576 0.163927 0)
(-0.183928 0.167215 0)
(-0.172832 0.169936 0)
(-0.0125812 -0.552605 0)
(-0.0323936 -0.54948 0)
(-0.0528773 -0.535026 0)
(-0.0729844 -0.519514 0)
(-0.0926619 -0.503966 0)
(-0.111804 -0.488782 0)
(-0.130476 -0.474125 0)
(-0.148773 -0.460011 0)
(-0.166783 -0.446353 0)
(-0.184585 -0.43299 0)
(-0.202231 -0.419705 0)
(-0.219744 -0.406247 0)
(-0.237111 -0.392339 0)
(-0.254276 -0.377702 0)
(-0.271139 -0.36207 0)
(-0.287558 -0.345204 0)
(-0.303347 -0.32691 0)
(-0.318284 -0.307055 0)
(-0.332114 -0.28558 0)
(-0.344563 -0.262509 0)
(-0.355354 -0.237956 0)
(-0.364224 -0.212126 0)
(-0.370946 -0.185311 0)
(-0.375347 -0.157868 0)
(-0.377327 -0.130204 0)
(-0.37687 -0.102743 0)
(-0.374041 -0.0759032 0)
(-0.368987 -0.0500624 0)
(-0.36192 -0.0255405 0)
(-0.3531 -0.00258377 0)
(-0.342816 0.0186395 0)
(-0.33137 0.038036 0)
(-0.319056 0.0555828 0)
(-0.306144 0.0713168 0)
(-0.292874 0.0853189 0)
(-0.279451 0.0976998 0)
(-0.266044 0.108587 0)
(-0.252788 0.118112 0)
(-0.239789 0.12641 0)
(-0.227123 0.133606 0)
(-0.214848 0.139822 0)
(-0.203003 0.145169 0)
(-0.191617 0.149752 0)
(-0.1807 0.153672 0)
(-0.170252 0.157023 0)
(-0.0119087 -0.527103 0)
(-0.030596 -0.524009 0)
(-0.0500241 -0.510171 0)
(-0.0691702 -0.495333 0)
(-0.0879594 -0.480446 0)
(-0.106266 -0.465857 0)
(-0.124126 -0.451704 0)
(-0.141606 -0.438003 0)
(-0.15877 -0.424676 0)
(-0.175671 -0.411584 0)
(-0.192341 -0.39854 0)
(-0.208788 -0.385325 0)
(-0.224986 -0.371706 0)
(-0.240879 -0.357451 0)
(-0.256377 -0.342341 0)
(-0.271354 -0.326187 0)
(-0.285652 -0.308839 0)
(-0.299083 -0.290201 0)
(-0.311441 -0.270239 0)
(-0.322503 -0.248985 0)
(-0.332052 -0.226545 0)
(-0.339881 -0.203092 0)
(-0.345818 -0.178864 0)
(-0.349736 -0.154149 0)
(-0.351562 -0.12927 0)
(-0.351292 -0.104563 0)
(-0.348983 -0.080356 0)
(-0.344755 -0.05695 0)
(-0.338778 -0.0346027 0)
(-0.331261 -0.0135176 0)
(-0.322436 0.00615996 0)
(-0.312546 0.0243414 0)
(-0.301831 0.0409899 0)
(-0.290517 0.056115 0)
(-0.278807 0.0697634 0)
(-0.266879 0.0820076 0)
(-0.254883 0.0929365 0)
(-0.242942 0.102648 0)
(-0.231155 0.111243 0)
(-0.2196 0.118821 0)
(-0.208335 0.125481 0)
(-0.197404 0.131315 0)
(-0.186843 0.136416 0)
(-0.176669 0.14087 0)
(-0.166883 0.144763 0)
(-0.0112622 -0.502823 0)
(-0.0288272 -0.499706 0)
(-0.0471812 -0.486391 0)
(-0.0653094 -0.472145 0)
(-0.0831311 -0.457852 0)
(-0.100505 -0.443816 0)
(-0.117453 -0.430159 0)
(-0.134022 -0.416892 0)
(-0.150256 -0.403948 0)
(-0.166186 -0.391203 0)
(-0.181828 -0.378492 0)
(-0.197177 -0.365626 0)
(-0.212205 -0.352406 0)
(-0.226856 -0.338639 0)
(-0.24105 -0.324143 0)
(-0.254677 -0.308768 0)
(-0.267604 -0.292397 0)
(-0.279678 -0.274961 0)
(-0.290729 -0.25644 0)
(-0.300582 -0.23687 0)
(-0.309064 -0.216345 0)
(-0.316018 -0.19501 0)
(-0.321312 -0.173061 0)
(-0.324853 -0.150728 0)
(-0.326591 -0.128269 0)
(-0.326526 -0.10595 0)
(-0.324709 -0.0840309 0)
(-0.321236 -0.0627525 0)
(-0.316242 -0.0423233 0)
(-0.309895 -0.0229119 0)
(-0.302379 -0.0046437 0)
(-0.29389 0.0123988 0)
(-0.284623 0.0281716 0)
(-0.274765 0.042666 0)
(-0.264487 0.0559032 0)
(-0.253943 0.0679271 0)
(-0.243264 0.0787973 0)
(-0.232561 0.0885833 0)
(-0.221928 0.0973602 0)
(-0.211439 0.105206 0)
(-0.201152 0.112198 0)
(-0.191116 0.118415 0)
(-0.18137 0.123934 0)
(-0.171934 0.128831 0)
(-0.162815 0.133183 0)
(-0.0106355 -0.479757 0)
(-0.0271071 -0.476601 0)
(-0.0443741 -0.463741 0)
(-0.0614568 -0.450025 0)
(-0.0782634 -0.436274 0)
(-0.0946521 -0.422761 0)
(-0.110636 -0.409595 0)
(-0.126245 -0.396784 0)
(-0.141504 -0.384264 0)
(-0.156432 -0.371923 0)
(-0.17103 -0.359615 0)
(-0.185288 -0.347176 0)
(-0.199174 -0.334434 0)
(-0.212637 -0.321226 0)
(-0.225607 -0.307402 0)
(-0.237989 -0.292839 0)
(-0.249673 -0.277446 0)
(-0.260533 -0.261169 0)
(-0.270433 -0.244 0)
(-0.279234 -0.225975 0)
(-0.286803 -0.207174 0)
(-0.293019 -0.18772 0)
(-0.297783 -0.167773 0)
(-0.301026 -0.147518 0)
(-0.302715 -0.127163 0)
(-0.302853 -0.106917 0)
(-0.301482 -0.0869899 0)
(-0.29868 -0.0675735 0)
(-0.294555 -0.0488376 0)
(-0.289238 -0.0309229 0)
(-0.282878 -0.0139375 0)
(-0.275631 0.00204228 0)
(-0.267654 0.0169701 0)
(-0.259102 0.0308255 0)
(-0.25012 0.0436115 0)
(-0.240837 0.055351 0)
(-0.231369 0.0660813 0)
(-0.221817 0.0758501 0)
(-0.212265 0.0847118 0)
(-0.202784 0.0927255 0)
(-0.193433 0.0999531 0)
(-0.184258 0.106458 0)
(-0.175304 0.112307 0)
(-0.166593 0.117563 0)
(-0.158133 0.122296 0)
(-0.0100111 -0.4579 0)
(-0.0254269 -0.45471 0)
(-0.0416096 -0.44226 0)
(-0.0576443 -0.429027 0)
(-0.0734217 -0.415779 0)
(-0.0888096 -0.402769 0)
(-0.103811 -0.390092 0)
(-0.118443 -0.377749 0)
(-0.132716 -0.36568 0)
(-0.146638 -0.353782 0)
(-0.160204 -0.341925 0)
(-0.173398 -0.329963 0)
(-0.186192 -0.31775 0)
(-0.198536 -0.305145 0)
(-0.210371 -0.29202 0)
(-0.221616 -0.278275 0)
(-0.23218 -0.263835 0)
(-0.241961 -0.248661 0)
(-0.250851 -0.232748 0)
(-0.258741 -0.216131 0)
(-0.265527 -0.198878 0)
(-0.271118 -0.181092 0)
(-0.27544 -0.162905 0)
(-0.278443 -0.144466 0)
(-0.280104 -0.125941 0)
(-0.280428 -0.1075 0)
(-0.279449 -0.08931 0)
(-0.277231 -0.0715259 0)
(-0.273858 -0.054287 0)
(-0.269436 -0.0377109 0)
(-0.264081 -0.0218916 0)
(-0.257919 -0.00689877 0)
(-0.251078 0.00722082 0)
(-0.243685 0.0204402 0)
(-0.23586 0.0327505 0)
(-0.227714 0.0441594 0)
(-0.219348 0.0546874 0)
(-0.210852 0.0643656 0)
(-0.202301 0.0732322 0)
(-0.193763 0.0813312 0)
(-0.185293 0.0887108 0)
(-0.176939 0.0954226 0)
(-0.168744 0.101521 0)
(-0.160734 0.107062 0)
(-0.152918 0.112105 0)
(-0.00937432 -0.437257 0)
(-0.0237661 -0.434025 0)
(-0.0388883 -0.421959 0)
(-0.053892 -0.409173 0)
(-0.0686552 -0.396402 0)
(-0.0830528 -0.383878 0)
(-0.0970783 -0.371683 0)
(-0.110738 -0.359813 0)
(-0.124034 -0.348209 0)
(-0.136968 -0.336777 0)
(-0.149532 -0.325398 0)
(-0.161708 -0.313945 0)
(-0.173468 -0.302289 0)
(-0.18477 -0.290305 0)
(-0.195561 -0.277887 0)
(-0.205774 -0.264947 0)
(-0.215334 -0.251425 0)
(-0.224159 -0.237288 0)
(-0.232163 -0.222535 0)
(-0.239261 -0.207197 0)
(-0.245374 -0.191332 0)
(-0.250432 -0.175027 0)
(-0.254381 -0.158388 0)
(-0.257184 -0.141539 0)
(-0.258824 -0.124612 0)
(-0.259308 -0.107745 0)
(-0.258666 -0.0910735 0)
(-0.256945 -0.0747232 0)
(-0.254215 -0.0588096 0)
(-0.250558 -0.0434317 0)
(-0.246067 -0.0286712 0)
(-0.240845 -0.0145917 0)
(-0.234994 -0.00123895 0)
(-0.228618 0.0113571 0)
(-0.221818 0.0231804 0)
(-0.214688 0.0342277 0)
(-0.207314 0.0445079 0)
(-0.199777 0.054039 0)
(-0.192145 0.0628468 0)
(-0.184479 0.0709632 0)
(-0.176832 0.0784252 0)
(-0.16925 0.0852739 0)
(-0.161778 0.0915544 0)
(-0.15444 0.0973142 0)
(-0.147246 0.102603 0)
(-0.00872885 -0.417832 0)
(-0.0221225 -0.41453 0)
(-0.0362223 -0.402817 0)
(-0.0502256 -0.390451 0)
(-0.064006 -0.378136 0)
(-0.0774378 -0.366083 0)
(-0.0905071 -0.354361 0)
(-0.103215 -0.342962 0)
(-0.11556 -0.331828 0)
(-0.127539 -0.320873 0)
(-0.139142 -0.309989 0)
(-0.150354 -0.299062 0)
(-0.161145 -0.287974 0)
(-0.171481 -0.276617 0)
(-0.181315 -0.264898 0)
(-0.190593 -0.252739 0)
(-0.199254 -0.24009 0)
(-0.207231 -0.226922 0)
(-0.214456 -0.213236 0)
(-0.220865 -0.199059 0)
(-0.226394 -0.184439 0)
(-0.230993 -0.169449 0)
(-0.23462 -0.154175 0)
(-0.237248 -0.13872 0)
(-0.238867 -0.123191 0)
(-0.239483 -0.107702 0)
(-0.23912 -0.0923605 0)
(-0.237817 -0.0772731 0)
(-0.235628 -0.062535 0)
(-0.23262 -0.0482306 0)
(-0.228867 -0.0344312 0)
(-0.224452 -0.0211943 0)
(-0.219457 -0.00856387 0)
(-0.213968 0.00342905 0)
(-0.208068 0.0147647 0)
(-0.201838 0.025433 0)
(-0.195352 0.035434 0)
(-0.18868 0.0447764 0)
(-0.181884 0.0534764 0)
(-0.175019 0.0615563 0)
(-0.168135 0.0690439 0)
(-0.161275 0.0759716 0)
(-0.154482 0.082376 0)
(-0.147782 0.0882973 0)
(-0.141184 0.0937776 0)
(-0.00809563 -0.399625 0)
(-0.0205241 -0.396204 0)
(-0.0336453 -0.384803 0)
(-0.0466864 -0.372832 0)
(-0.0595183 -0.360955 0)
(-0.0720131 -0.349358 0)
(-0.0841541 -0.338099 0)
(-0.0959398 -0.327167 0)
(-0.107367 -0.316506 0)
(-0.118432 -0.306034 0)
(-0.129123 -0.295653 0)
(-0.139425 -0.285256 0)
(-0.149312 -0.274739 0)
(-0.158755 -0.264003 0)
(-0.167714 -0.252964 0)
(-0.176144 -0.241554 0)
(-0.183996 -0.229728 0)
(-0.191218 -0.217461 0)
(-0.197754 -0.204753 0)
(-0.203556 -0.191626 0)
(-0.208574 -0.178121 0)
(-0.212771 -0.164298 0)
(-0.216114 -0.150231 0)
(-0.218584 -0.136001 0)
(-0.220175 -0.121699 0)
(-0.220893 -0.107417 0)
(-0.220757 -0.0932465 0)
(-0.219799 -0.0792743 0)
(-0.218062 -0.0655815 0)
(-0.2156 -0.0522401 0)
(-0.212473 -0.0393128 0)
(-0.208745 -0.0268514 0)
(-0.204487 -0.0148972 0)
(-0.199768 -0.00348129 0)
(-0.194656 0.00737481 0)
(-0.189219 0.0176572 0)
(-0.183522 0.02736 0)
(-0.177626 0.036485 0)
(-0.171586 0.045041 0)
(-0.165452 0.0530428 0)
(-0.15927 0.0605108 0)
(-0.153079 0.06747 0)
(-0.146923 0.07395 0)
(-0.140825 0.0799841 0)
(-0.134794 0.0856079 0)
(-0.00749772 -0.382608 0)
(-0.019012 -0.379022 0)
(-0.0312012 -0.367892 0)
(-0.0433201 -0.356293 0)
(-0.0552352 -0.344835 0)
(-0.0668229 -0.333681 0)
(-0.0780669 -0.322878 0)
(-0.0889646 -0.312408 0)
(-0.0995126 -0.302219 0)
(-0.109705 -0.292231 0)
(-0.119531 -0.282352 0)
(-0.128976 -0.272483 0)
(-0.138019 -0.262527 0)
(-0.146634 -0.252395 0)
(-0.154789 -0.242009 0)
(-0.162447 -0.231309 0)
(-0.169569 -0.220252 0)
(-0.176111 -0.208816 0)
(-0.182033 -0.197 0)
(-0.187295 -0.184821 0)
(-0.191859 -0.172315 0)
(-0.195697 -0.15953 0)
(-0.198784 -0.146529 0)
(-0.201107 -0.133379 0)
(-0.202661 -0.120157 0)
(-0.203452 -0.106938 0)
(-0.203496 -0.0938 0)
(-0.20282 -0.0808159 0)
(-0.201458 -0.0680547 0)
(-0.199452 -0.0555785 0)
(-0.196852 -0.0434424 0)
(-0.19371 -0.0316929 0)
(-0.190083 -0.0203685 0)
(-0.186027 -0.0094993 0)
(-0.181602 0.000892177 0)
(-0.176862 0.0107905 0)
(-0.171865 0.0201859 0)
(-0.166662 0.0290753 0)
(-0.161303 0.037462 0)
(-0.155833 0.0453549 0)
(-0.150293 0.0527684 0)
(-0.144721 0.0597213 0)
(-0.139156 0.0662372 0)
(-0.133622 0.0723437 0)
(-0.128127 0.0780704 0)
(-0.00694896 -0.366717 0)
(-0.0176164 -0.362938 0)
(-0.0289223 -0.35206 0)
(-0.0401579 -0.340816 0)
(-0.0511873 -0.329762 0)
(-0.0618993 -0.31904 0)
(-0.072279 -0.308684 0)
(-0.0823235 -0.298671 0)
(-0.0920289 -0.288948 0)
(-0.101389 -0.279438 0)
(-0.110393 -0.270052 0)
(-0.11903 -0.260699 0)
(-0.127282 -0.251287 0)
(-0.135128 -0.241733 0)
(-0.14254 -0.231966 0)
(-0.14949 -0.22193 0)
(-0.155945 -0.211586 0)
(-0.161873 -0.200912 0)
(-0.16724 -0.189906 0)
(-0.172015 -0.178582 0)
(-0.176171 -0.166969 0)
(-0.179683 -0.155108 0)
(-0.182534 -0.143051 0)
(-0.184714 -0.130856 0)
(-0.186221 -0.118587 0)
(-0.18706 -0.106307 0)
(-0.187244 -0.0940831 0)
(-0.186795 -0.0819769 0)
(-0.18574 -0.0700476 0)
(-0.184115 -0.0583494 0)
(-0.181958 -0.0469305 0)
(-0.179312 -0.0358331 0)
(-0.176224 -0.0250925 0)
(-0.172741 -0.0147373 0)
(-0.168912 -0.00479024 0)
(-0.164784 0.00473243 0)
(-0.160405 0.0138191 0)
(-0.155819 0.0224634 0)