/*--------------------------------*- C++ -*----------------------------------*\
  =========                 |
  \\      /  F ield         | OpenFOAM: The Open Source CFD Toolbox
   \\    /   O peration     | Website:  https://openfoam.org
    \\  /    A nd           | Version:  7
     \\/     M anipulation  |
\*---------------------------------------------------------------------------*/
FoamFile
{
    version     2.0;
    format      ascii;
    class       volScalarField;
    location    "0.004";
    object      iDofMean;
}
// * * * * * * * * * * * * * * * * * * * * * * * * * * * * * * * * * * * * * //

dimensions      [0 -3 0 0 0 0 0];

internalField   nonuniform List<scalar> 
546
(
1.661345114e+20
1.672488092e+20
1.68019445e+20
1.602401885e+20
1.704459066e+20
1.633956299e+20
1.57240957e+20
1.550644314e+20
1.579074529e+20
1.528462498e+20
1.496908084e+20
1.493054905e+20
1.547415975e+20
1.502323363e+20
1.524401039e+20
1.427238437e+20
1.400057902e+20
1.429529516e+20
1.46368743e+20
1.445983633e+20
1.660095434e+20
1.631769359e+20
1.750176517e+20
1.677070251e+20
1.608754423e+20
1.641141957e+20
1.655721555e+20
1.712269564e+20
1.609379263e+20
1.57397167e+20
1.57032677e+20
1.577928989e+20
1.578762109e+20
1.508467622e+20
1.529608038e+20
1.478996007e+20
1.470664809e+20
1.460250811e+20
1.468582009e+20
1.435257215e+20
1.686234569e+20
1.756216636e+20
1.620418101e+20
1.595320366e+20
1.576575169e+20
1.630936239e+20
1.717164143e+20
1.6287493e+20
1.662282373e+20
1.551893994e+20
1.525963139e+20
1.581990448e+20
1.553351954e+20
1.440464214e+20
1.531170138e+20
1.445358793e+20
1.474309708e+20
1.509613162e+20
1.498990884e+20
1.438068995e+20
1.785688251e+20
1.684672469e+20
1.57043091e+20
1.506905522e+20
1.481495367e+20
1.579386949e+20
1.659574734e+20
1.527941798e+20
1.530441158e+20
1.586989167e+20
1.560016912e+20
1.501281963e+20
1.578866249e+20
1.495450124e+20
1.455668652e+20
1.541167576e+20
1.513778761e+20
1.527316958e+20
1.506280682e+20
1.484515426e+20
1.73767972e+20
1.609587543e+20
1.593862406e+20
1.599694245e+20
1.565015631e+20
1.590425787e+20
1.700293466e+20
1.622605041e+20
1.603859844e+20
1.543146235e+20
1.613336583e+20
1.501177823e+20
1.505239282e+20
1.533669497e+20
1.498990884e+20
1.498470184e+20
1.512008381e+20
1.525963139e+20
1.539501336e+20
1.57334683e+20
1.647286216e+20
1.699564487e+20
1.671342552e+20
1.637392918e+20
1.654367735e+20
1.642183357e+20
1.646973796e+20
1.593445846e+20
1.635934958e+20
1.562724552e+20
1.539501336e+20
1.615627662e+20
1.547936675e+20
1.548978074e+20
1.506801382e+20
1.533565357e+20
1.485869246e+20
1.506176542e+20
1.51606984e+20
1.560225192e+20
1.657075374e+20
1.762985735e+20
1.725078782e+20
1.694357488e+20
1.6287493e+20
1.710915745e+20
1.68321451e+20
1.651660095e+20
1.6282286e+20
1.642287497e+20
1.555122333e+20
1.592404446e+20
1.477329768e+20
1.514924301e+20
1.582198728e+20
1.610628943e+20
1.559704492e+20
1.479516707e+20
1.539293056e+20
1.509509022e+20
1.7352845e+20
1.717060003e+20
1.675091591e+20
1.638226038e+20
1.641975077e+20
1.638746738e+20
1.688317369e+20
1.68123585e+20
1.599277685e+20
1.657908494e+20
1.655304995e+20
1.581469748e+20
1.527837658e+20
1.608233723e+20
1.675924711e+20
1.609483403e+20
1.550644314e+20
1.524088619e+20
1.46577023e+20
1.538355796e+20
1.704667346e+20
1.677382671e+20
1.696023727e+20
1.640308838e+20
1.724766362e+20
1.676757831e+20
1.663011353e+20
1.569910211e+20
1.588238847e+20
1.618439442e+20
1.686963549e+20
1.653222195e+20
1.672696372e+20
1.622292621e+20
1.670717712e+20
1.603443284e+20
1.550227754e+20
1.553143674e+20
1.486285806e+20
1.582719428e+20
1.700918306e+20
1.79172837e+20
1.830156023e+20
1.687588389e+20
1.673008791e+20
1.710499185e+20
1.68363107e+20
1.643641317e+20
1.586364327e+20
1.62447956e+20
1.646557236e+20
1.603235004e+20
1.634893559e+20
1.629998979e+20
1.670613572e+20
1.614482122e+20
1.551269154e+20
1.535023317e+20
1.515028441e+20
1.556788573e+20
1.728619541e+20
1.819742024e+20
1.771733493e+20
1.722058722e+20
1.689567048e+20
1.68331865e+20
1.673008791e+20
1.671134272e+20
1.639163298e+20
1.615627662e+20
1.556684433e+20
1.638955018e+20
1.629998979e+20
1.586676747e+20
1.674779171e+20
1.57126403e+20
1.584281528e+20
1.620626381e+20
1.529399758e+20
1.57001435e+20
1.715185484e+20
1.799434728e+20
1.785271691e+20
1.711124024e+20
1.68050687e+20
1.799018168e+20
1.755279376e+20
1.634164579e+20
1.68352693e+20
1.6277079e+20
1.673321211e+20
1.638538458e+20
1.615106962e+20
1.619793261e+20
1.52106856e+20
1.591154767e+20
1.599173545e+20
1.649993856e+20
1.513362201e+20
1.602089465e+20
1.711228164e+20
1.812660506e+20
1.723308402e+20
1.704979766e+20
1.756008356e+20
1.783709591e+20
1.739554239e+20
1.743407419e+20
1.659574734e+20
1.691545708e+20
1.658845754e+20
1.657908494e+20
1.661345114e+20
1.694669908e+20
1.62749962e+20
1.588030567e+20
1.575429629e+20
1.642912337e+20
1.559808632e+20
1.599694245e+20
1.84119486e+20
1.820679284e+20
1.841090721e+20
1.775065973e+20
1.73549278e+20
1.725911902e+20
1.712790264e+20
1.676028851e+20
1.709353645e+20
1.782668191e+20
1.689567048e+20
1.596882466e+20
1.68061101e+20
1.715393764e+20
1.634476999e+20
1.651660095e+20
1.677486811e+20
1.645515837e+20
1.599381825e+20
1.595945206e+20
1.758299436e+20
1.821616544e+20
1.862126997e+20
1.808494907e+20
1.852233698e+20
1.728411261e+20
1.721121463e+20
1.726328462e+20
1.67842407e+20
1.740595639e+20
1.79058283e+20
1.688317369e+20
1.691753988e+20
1.794644289e+20
1.653430475e+20
1.589592667e+20
1.62739548e+20
1.699252067e+20
1.669051472e+20
1.67977789e+20
1.803183767e+20
1.880351493e+20
1.774336993e+20
1.633852159e+20
1.803912747e+20
1.727682281e+20
1.693420228e+20
1.744448818e+20
1.750905497e+20
1.721433883e+20
1.7342431e+20
1.720288343e+20
1.746739898e+20
1.670717712e+20
1.739241819e+20
1.652284935e+20
1.636872218e+20
1.748093718e+20
1.688525649e+20
1.744240538e+20
1.851088159e+20
1.940336122e+20
1.823595204e+20
1.695711307e+20
1.795581549e+20
1.79214493e+20
1.767672034e+20
1.753613137e+20
1.712373704e+20
1.724453942e+20
1.816201265e+20
1.745802638e+20
1.758820136e+20
1.629790699e+20
1.655617415e+20
1.693420228e+20
1.583031848e+20
1.721954582e+20
1.763298155e+20
1.737888e+20
1.878372834e+20
1.981054855e+20
1.894202111e+20
1.826094563e+20
1.799018168e+20
1.752988297e+20
1.779648132e+20
1.793915309e+20
1.797976768e+20
1.809328026e+20
1.848797079e+20
1.819325465e+20
1.751426197e+20
1.692691248e+20
1.703105246e+20
1.695294747e+20
1.632290059e+20
1.68113171e+20
1.705604605e+20
1.728619541e+20
1.389899469e+20
1.355687834e+20
1.377328781e+20
1.392804547e+20
1.347923089e+20
1.385123991e+20
1.444736393e+20
1.480661853e+20
1.363130023e+20
1.453722095e+20
1.41289255e+20
1.406002691e+20
1.328181288e+20
1.349011875e+20
1.376002507e+20
1.370202646e+20
1.433135872e+20
1.46172083e+20
1.354017766e+20
1.43184958e+20
1.468226354e+20
1.435434187e+20
1.391059578e+20
1.428804539e+20
1.404303042e+20
1.367752873e+20
1.446826579e+20
1.389324031e+20
1.402545831e+20
1.495760004e+20
1.48735145e+20
1.475902471e+20
1.437591693e+20
1.461511858e+20
1.40872499e+20
1.370091283e+20
1.469296076e+20
1.476242271e+20
1.445564159e+20
1.483063286e+20
1.473598579e+20
1.469951251e+20
1.430181416e+20
1.413987459e+20
1.363399929e+20
1.412294202e+20
1.394989972e+20
1.39342791e+20
1.366414674e+20
1.483916847e+20
1.470267806e+20
1.502953469e+20
1.438136565e+20
1.394231386e+20
1.393027052e+20
1.410735256e+20
1.428014907e+20
1.405002989e+20
1.442173552e+20
1.498640775e+20
1.516468855e+20
1.515613347e+20
1.412963454e+20
1.4181582e+20
1.457366528e+20
1.394811741e+20
1.478597412e+20
1.480135713e+20
1.506489131e+20
1.505255887e+20
1.501319209e+20
1.494405353e+20
1.478893031e+20
1.463048433e+20
1.518942271e+20
1.536230452e+20
1.505247271e+20
1.517281164e+20
1.460715944e+20
1.499707737e+20
1.427182642e+20
1.471033291e+20
1.476931479e+20
1.516389884e+20
1.563382951e+20
1.564959609e+20
1.474939577e+20
1.468034494e+20
1.539017757e+20
1.56319136e+20
1.496591649e+20
1.462809798e+20
1.478566118e+20
1.560182567e+20
1.51595746e+20
1.571974868e+20
1.430627639e+20
1.527067359e+20
1.613293266e+20
1.562444515e+20
1.456192613e+20
1.522538402e+20
1.49894433e+20
1.545914256e+20
1.557855493e+20
1.558389763e+20
1.510786273e+20
1.505179955e+20
1.54887172e+20
1.521153472e+20
1.492293888e+20
1.435650585e+20
1.492187921e+20
1.568524029e+20
1.60583374e+20
1.636003029e+20
1.537122603e+20
1.549691348e+20
1.526408937e+20
1.506536219e+20
1.495409772e+20
1.48185369e+20
1.543296954e+20
1.564902067e+20
1.609039658e+20
1.63166025e+20
1.539526317e+20
1.571052623e+20
1.602379749e+20
1.547400491e+20
1.533015277e+20
1.597740178e+20
1.585579084e+20
1.512438676e+20
1.629270101e+20
1.656826089e+20
1.564190509e+20
1.521595498e+20
1.653026921e+20
1.542492502e+20
1.567397454e+20
1.561059013e+20
1.596149589e+20
1.66313374e+20
1.648284517e+20
1.669854452e+20
1.598574065e+20
1.626297274e+20
1.582353976e+20
1.645133284e+20
1.566967666e+20
1.600769879e+20
1.652598395e+20
1.715816678e+20
1.685760615e+20
1.732546361e+20
1.63170352e+20
1.609566037e+20
1.60502865e+20
1.66391165e+20
1.671940758e+20
1.640697153e+20
1.706104866e+20
1.727560565e+20
1.759275653e+20
1.723638095e+20
1.64476717e+20
1.711637105e+20
1.690217655e+20
1.729635882e+20
1.661840994e+20
1.72130914e+20
1.710899768e+20
1.728767882e+20
1.729206332e+20
1.749249359e+20
1.739348075e+20
1.754885762e+20
1.692124871e+20
1.689625194e+20
1.750589986e+20
1.707242609e+20
1.687688174e+20
1.754889827e+20
1.65944997e+20
1.704151263e+20
)
;

boundaryField
{
    flow
    {
        type            calculated;
        value           nonuniform List<scalar> 
48
(
1.661345114e+20
1.660095434e+20
1.686234569e+20
1.785688251e+20
1.73767972e+20
1.647286216e+20
1.657075374e+20
1.7352845e+20
1.704667346e+20
1.700918306e+20
1.728619541e+20
1.715185484e+20
1.711228164e+20
1.84119486e+20
1.758299436e+20
1.803183767e+20
1.851088159e+20
1.878372834e+20
1.878372834e+20
1.981054855e+20
1.894202111e+20
1.826094563e+20
1.799018168e+20
1.752988297e+20
1.779648132e+20
1.793915309e+20
1.797976768e+20
1.809328026e+20
1.848797079e+20
1.819325465e+20
1.751426197e+20
1.692691248e+20
1.703105246e+20
1.695294747e+20
1.632290059e+20
1.68113171e+20
1.705604605e+20
1.728619541e+20
1.739348075e+20
1.754885762e+20
1.692124871e+20
1.689625194e+20
1.750589986e+20
1.707242609e+20
1.687688174e+20
1.754889827e+20
1.65944997e+20
1.704151263e+20
)
;
    }
    obstacle
    {
        type            calculated;
        value           nonuniform 0();
    }
    frontAndBack
    {
        type            empty;
    }
    procBoundary2to0
    {
        type            processor;
        value           nonuniform List<scalar> 
31
(
1.762985735e+20
1.711436444e+20
1.676966111e+20
1.646765516e+20
1.660824414e+20
1.610212383e+20
1.540126176e+20
1.560745892e+20
1.575429629e+20
1.492013505e+20
1.479724987e+20
1.486598226e+20
1.544500055e+20
1.537835096e+20
1.514403601e+20
1.418282398e+20
1.440880774e+20
1.4099512e+20
1.436611035e+20
1.452856872e+20
1.383560256e+20
1.340539275e+20
1.346271056e+20
1.460304542e+20
1.389268388e+20
1.370091293e+20
1.453306155e+20
1.41352644e+20
1.422359691e+20
1.410297159e+20
1.410297159e+20
)
;
    }
    procBoundary2to3
    {
        type            processor;
        value           nonuniform List<scalar> 
19
(
1.345585445e+20
1.326853137e+20
1.388322038e+20
1.346931479e+20
1.375534704e+20
1.470990968e+20
1.458540152e+20
1.444631122e+20
1.530552978e+20
1.47940367e+20
1.55971704e+20
1.590675836e+20
1.58024406e+20
1.585403858e+20
1.657977555e+20
1.75881792e+20
1.719670761e+20
1.664932052e+20
1.76117348e+20
)
;
    }
}


// ************************************************************************* //
