/*--------------------------------*- C++ -*----------------------------------*\
  =========                 |
  \\      /  F ield         | OpenFOAM: The Open Source CFD Toolbox
   \\    /   O peration     | Website:  https://openfoam.org
    \\  /    A nd           | Version:  7
     \\/     M anipulation  |
\*---------------------------------------------------------------------------*/
FoamFile
{
    version     2.0;
    format      ascii;
    class       volScalarField;
    location    "0.004";
    object      linearKE;
}
// * * * * * * * * * * * * * * * * * * * * * * * * * * * * * * * * * * * * * //

dimensions      [1 -1 -2 0 0 0 0];

internalField   nonuniform List<scalar> 
546
(
0.7499636452
0.493560089
0.6945786219
0.4935045992
0.6763261589
0.569841452
0.6196964756
0.3925393152
0.558577588
0.9149293125
0.1933359591
0.3351665198
0.6173244584
0.2896648521
0.6615995243
0.4560399526
0.7939596925
0.8933782265
0.3224580552
0.4709677381
0.7053886447
0.9479511048
0.7161524979
0.3198158325
0.4270546206
0.6988104344
0.5781961934
0.3940820697
0.5319318604
0.1470867338
0.4245540589
1.073352161
0.6269347949
0.880409202
0.7554761066
0.4788094722
0.2222408955
1.047710094
0.2501334886
0.4754366441
1.107800534
1.058064516
0.1603703584
1.355907645
0.4761109286
0.7403086833
0.7937650721
1.042409022
0.7512001697
0.492397971
0.37256223
1.02268008
0.3413974068
0.5671436559
1.347739756
0.56981341
0.8614136613
0.4363213767
0.2947834608
0.7322692232
0.5349334554
0.4569709079
0.9167845728
0.8533077182
0.1092360347
0.9713249389
0.4943618096
0.7346661328
0.3238239945
0.3601259663
0.8336338499
0.7955805122
0.363312121
0.994965542
0.4764572618
0.6027995219
0.5987286925
0.6239189353
0.4136341741
0.6407321394
0.7664351821
1.251657458
1.084170131
0.6988508789
0.777444339
0.4865621788
0.9226550385
0.7394300838
0.7870694431
0.3638988456
0.4927718292
0.716458552
0.4794047003
0.4870625083
0.09526602271
0.2033836643
0.676219026
0.8482922501
0.2597366112
1.627003321
0.5232233808
0.1506731513
0.4187991529
1.218088056
0.4979507502
0.7756179456
0.7050258174
0.5950349411
1.061670131
0.5967347041
0.5375253968
0.9719499831
0.373395416
1.183840072
0.2745213499
0.2805487476
1.352785696
0.7403651066
0.8496830246
0.520645479
0.8276773114
0.4435974968
0.5932335125
0.5298812995
0.3824615861
1.377622592
0.2541173059
0.6811091732
0.7294814208
0.8575338598
0.4714232393
0.3353993042
1.11026669
0.3590141214
0.4914149477
0.7480040967
0.4306476158
1.051525142
1.051373805
1.108357272
0.1827107239
0.9853520821
0.494214571
0.4795313308
1.173390187
0.7381480872
0.1970244439
1.019588576
0.8890206322
0.3721538301
0.5044663863
0.3002614799
0.4854507062
0.5296856099
0.2394574098
0.4989008345
0.6963487183
0.3341355913
0.7320670024
1.172692464
0.4680005384
0.3907981065
0.3838056834
0.8539196278
0.3576864279
0.8353925575
0.4168260356
1.034978916
0.4331551498
0.8863442927
0.6228732062
0.4752229044
0.5302302405
0.2708459291
0.2524783544
0.7199189017
1.564710604
0.8762405652
0.5689185368
0.7826675625
0.4375704988
0.6771032988
0.5205460048
0.4686707352
0.5734567279
0.767936336
0.3764303063
0.5725590794
0.8645527899
1.347472508
0.3294987725
0.4180536556
0.4002526457
0.6975882417
0.6691088972
0.3630089425
0.4469667023
0.4021383938
0.8445214085
0.3968433541
0.4674052951
0.6572811491
0.5445567637
1.016080059
0.7895980548
0.7348863481
0.5419830066
0.6598845986
0.445396544
0.9327502527
0.5637907151
0.3714312985
0.731733206
1.634888581
0.4443882667
0.5262593087
0.4013612562
0.4823620589
0.4608218542
0.7592649679
0.3344074459
0.4175007025
0.6370789641
1.251083676
0.7184210028
0.6490272082
0.4022424545
0.3209269003
0.3311052611
0.5831827391
0.246785972
0.5910583391
0.590041979
0.259571629
0.6009483164
0.8710156344
0.7967944148
0.30299534
0.9393544952
0.4385957117
0.2724028311
0.2382049589
0.751412494
0.1359584378
0.9354169958
0.5374619635
0.6046243688
0.6407416063
0.6368662914
1.158401047
0.4460734566
1.091667446
1.058187997
0.6822639814
0.664184132
0.7238134767
1.070780004
0.5417907199
1.073547924
0.3039633517
0.7727148071
0.9531317311
1.097133874
0.08376975123
0.9158166472
0.6181622506
0.494964905
0.2055665159
0.40510539
0.7554087711
0.2657844521
0.5042609957
0.671276333
0.8978135583
0.7320275165
0.4279119738
0.8054916292
0.5924949824
0.2678560287
0.7841730979
0.3124585249
0.519598839
0.3883177624
0.8140638778
1.037903135
0.36199616
0.828080632
0.3943046632
0.5629390036
0.771852361
0.3126391383
1.145613279
0.6905651056
1.130153852
0.5707720472
1.226371392
0.2752298099
0.4430308579
0.5926126762
0.8205999828
0.7103362579
1.01021851
0.6341181997
0.1735716159
0.9724105808
0.4331150377
0.6083211058
0.9771739236
0.7682630648
0.5477363218
0.3591299378
0.3378381541
0.6353211741
0.4301478035
0.8937335555
0.5976207935
0.1486167169
0.1214176363
0.4350380026
0.5479344661
0.2720746228
0.5202280488
0.3304001162
0.421086469
0.842549932
1.031309761
0.1683887408
0.7992893521
0.5285759967
0.8446218552
0.4600168746
0.5413981107
0.8236673398
1.086455204
0.1756352276
1.168047142
0.5817810296
0.9267972523
0.4560735619
0.7652184824
0.4232253863
0.8740767056
0.5706148648
0.9735615896
0.5365331488
0.6352496269
0.536973626
0.3894607187
0.5337445986
0.8113013225
0.7032722881
0.4755435217
0.7901398226
0.2513026425
0.353706079
0.7366903075
0.4546155765
0.3651489275
0.8264136384
1.126010359
0.3597198165
0.9406077783
0.2882765696
0.8947592959
0.8408071646
0.3161805682
0.8433263911
0.3331470025
0.5033490613
0.7577324217
0.3324949743
1.004094593
0.5353100913
0.6110306767
1.282786821
0.7833957042
1.146724845
0.5790520197
0.7230652476
0.3731847156
0.3863940964
0.09960291466
0.6404797212
0.7592637768
0.2481790173
0.5347808649
0.1469671322
0.6093171374
0.4753770431
0.5129968941
0.5798552336
0.4358106263
0.3141381846
0.9251512897
0.3853863872
0.4661384401
0.7995442615
0.4394715461
1.031496537
0.7722424721
1.18896343
0.4575464607
0.5102750191
0.8253789025
0.524500553
0.833971401
0.7360097197
0.2471971595
0.8921656059
0.4858461811
0.5702190491
0.4753930765
0.6842084468
0.5468054055
1.100313979
0.6275932915
0.322644042
0.3187098164
0.3255927116
0.3981084449
0.5989966954
0.1917691844
0.8513984114
0.2792997422
1.27713602
0.4323682907
1.015332096
1.631710665
0.6922585754
0.5739671789
1.507556245
0.5499691154
1.127680906
1.026685849
0.7452217035
0.6033923643
0.667143035
0.3712750512
0.408782578
0.6718116595
0.3177638736
1.025344296
0.2759072476
0.09131345493
0.3808245502
0.9879759438
0.7989039582
0.5181109053
0.1158213444
0.625514018
0.1094137728
0.895268985
0.6942730263
1.296461716
1.160910867
0.5997010437
0.6739520703
0.23730026
0.6117217491
0.6281113323
0.7068351572
0.8098713213
0.3916969149
0.3597612446
0.3166451742
0.4056054773
0.8851510745
0.8081491279
0.4656164245
1.013071705
0.433806893
0.562625813
0.2868067848
0.5110668149
0.772955744
0.5482501695
0.3710157803
0.6217951835
0.8555750248
0.4311571537
0.6932155556
1.020295124
0.6077534555
0.2279551677
0.6859795943
0.7087124038
0.9043874545
0.7659841091
0.7029729444
0.5878566384
0.8789514985
0.8119995474
0.7303874376
0.3687055957
0.9141211735
0.5030065638
0.8724864741
0.7635042012
0.0809880089
0.6980382666
0.6517746613
0.8952355028
0.8507342012
0.7094542027
0.5919931314
0.641943785
0.03594931385
1.152075077
1.002652395
0.6201162634
0.630966189
0.3742690649
0.3935274923
0.6059408243
1.395548815
0.7581415286
0.3235796485
0.7975154599
0.3587036639
1.085616784
0.5411367902
0.5756887026
0.8873944405
1.071774853
0.3831904109
0.9509822063
0.3441838314
0.5521095
0.4316172151
0.5382725622
1.244994523
0.5000199583
0.3529139934
0.8177452623
0.4011389111
1.372901426
1.011060004
0.6307286053
0.6426225149
0.6535734309
0.2061476294
0.5769959367
0.9624540386
0.365271188
0.3895117064
0.4981298463
)
;

boundaryField
{
    flow
    {
        type            zeroGradient;
    }
    obstacle
    {
        type            calculated;
        value           nonuniform 0();
    }
    frontAndBack
    {
        type            empty;
    }
    procBoundary2to0
    {
        type            processor;
        value           nonuniform List<scalar> 
31
(
0.4694799621
0.5248620471
0.3384997428
0.8533234958
1.563194826
0.7395890879
0.3729650099
0.7119973352
1.591506777
1.147899602
1.105170071
0.4677221804
1.443426761
0.5206942976
0.4420272324
0.9502172274
0.6781120168
1.034544264
0.4297785019
0.4726952753
0.6538531939
0.5590535777
0.5211964098
0.6685907872
0.7893564862
0.4542967219
0.3398950668
0.3169701528
0.6564029605
1.012870189
1.012870189
)
;
    }
    procBoundary2to3
    {
        type            processor;
        value           nonuniform List<scalar> 
19
(
0.4196485598
0.1586117092
0.3483118615
0.06706712261
0.5964626475
0.5907726693
0.41464122
0.3322396373
1.387523205
0.2628216591
0.4180471056
0.2071805237
0.3698667093
0.6699995253
0.1759301959
1.01222896
0.4960219794
0.1418358107
0.7746023115
)
;
    }
}


// ************************************************************************* //
