/*--------------------------------*- C++ -*----------------------------------*\
  =========                 |
  \\      /  F ield         | OpenFOAM: The Open Source CFD Toolbox
   \\    /   O peration     | Website:  https://openfoam.org
    \\  /    A nd           | Version:  7
     \\/     M anipulation  |
\*---------------------------------------------------------------------------*/
FoamFile
{
    version     2.0;
    format      ascii;
    class       volScalarField;
    location    "0.004";
    object      linearKEMean;
}
// * * * * * * * * * * * * * * * * * * * * * * * * * * * * * * * * * * * * * //

dimensions      [1 -1 -2 0 0 0 0];

internalField   nonuniform List<scalar> 
546
(
0.56310619
0.5635207561
0.5786422368
0.5782678944
0.5878242262
0.5691528262
0.5894871396
0.5984373024
0.6220932811
0.6126525481
0.6293468076
0.6279880555
0.6449643901
0.6704899873
0.6926849897
0.6932387174
0.675306119
0.6911422272
0.732034639
0.7332434031
0.549492786
0.5539779941
0.5836504776
0.588149228
0.5886973446
0.6001059713
0.5943312888
0.6126643643
0.6000807946
0.6084363384
0.6218135921
0.6442229624
0.657693558
0.6659006173
0.6756576306
0.6899271734
0.6986022705
0.7028833689
0.7115802249
0.7263552469
0.5470972193
0.577121946
0.5513121494
0.5468440493
0.5555704406
0.581919287
0.6223698299
0.5853001623
0.6209452186
0.6021541535
0.6063324914
0.6246416415
0.6359171421
0.6373834175
0.650488955
0.6604368915
0.6777888971
0.7035757766
0.7332599183
0.7106290071
0.5670322084
0.5527554891
0.5480176095
0.5329556723
0.5381210808
0.5651521698
0.6047613455
0.5913523709
0.5966278598
0.6224896436
0.6253980543
0.6181763493
0.645477504
0.6553548819
0.6614543864
0.7005063757
0.7066798329
0.7229756754
0.7206184504
0.7330195054
0.5523396759
0.5466972244
0.560909428
0.5776319979
0.5681390894
0.5867355193
0.6195006666
0.6446617397
0.6341996805
0.6131184698
0.6440528518
0.6122722686
0.6341502864
0.6767944242
0.676747587
0.6691876871
0.6731226515
0.7016587848
0.7209302542
0.733479906
0.5282918643
0.5667910699
0.5556976334
0.5793706477
0.5781324684
0.5966223012
0.6156293888
0.5944423907
0.61310254
0.6393153164
0.6259281464
0.6506704484
0.6509690471
0.657204855
0.6551220467
0.6724806215
0.684505542
0.7014713788
0.7006841301
0.7172239721
0.5349379916
0.5527976706
0.5481039868
0.5692076779
0.577117656
0.6200948926
0.6251096218
0.6151960305
0.6166074043
0.6223107248
0.6071450832
0.6538475415
0.648033135
0.6588704565
0.6742248683
0.7011645659
0.6926655987
0.7052870158
0.7128465806
0.7387454595
0.5482661469
0.5628540391
0.5551942868
0.5714150811
0.5759736614
0.5959799258
0.5998958322
0.6153928418
0.6063685496
0.626103891
0.653419785
0.6430592527
0.6549804189
0.6690959378
0.6883085913
0.7231646666
0.7112134092
0.7000213314
0.6951351856
0.699647001
0.5401732145
0.5377509692
0.5772794193
0.5572708145
0.5739137302
0.5918656639
0.5888596506
0.6016552695
0.5990101743
0.6209333104
0.6521338244
0.6577324653
0.6766326147
0.669652287
0.6821146623
0.6955444222
0.6830456753
0.6761507908
0.6943622874
0.7221123436
0.5485665729
0.5742902112
0.6155960906
0.5781363264
0.6031382524
0.6250326445
0.6213667662
0.6213377087
0.5957933146
0.6250874499
0.6348960481
0.6316335912
0.6519527466
0.6927178376
0.6873788081
0.6728726377
0.663069851
0.6833676691
0.6728066126
0.6830916868
0.558951302
0.569235164
0.5694455756
0.5918711509
0.6024209837
0.5921494688
0.5884103552
0.5906771779
0.5993826061
0.623279912
0.6105482815
0.6441150877
0.6622775396
0.6392834208
0.669064479
0.6568735562
0.6555345316
0.6918509967
0.6773832104
0.7087034837
0.5431766025
0.5609929493
0.5778833763
0.5719796726
0.5834493629
0.6237298391
0.6288832915
0.6188193899
0.6108781321
0.6126194639
0.6524779458
0.6220057933
0.6396491538
0.653013116
0.6235533455
0.6295786095
0.63844621
0.701928359
0.6695763378
0.6824853267
0.5406210838
0.5771137945
0.5726608255
0.5769286302
0.5865625157
0.6101359185
0.6130909333
0.6295192911
0.6169930426
0.6570356819
0.6504032918
0.6488231117
0.6749963703
0.6750109202
0.6638832776
0.6697827789
0.6870920911
0.7131349766
0.7091409058
0.7287911792
0.5642295896
0.5886062836
0.5981405812
0.57516272
0.5975617628
0.5835826094
0.5978958971
0.5988266863
0.6088660341
0.6390969374
0.623130808
0.6261266219
0.6661526744
0.6764933832
0.684614833
0.6916218811
0.7105014095
0.704293265
0.6982340747
0.6927526509
0.5467052458
0.5673708615
0.6022271279
0.6081575878
0.6093779314
0.6016963721
0.5993961447
0.6115160307
0.6118033728
0.6565937729
0.6632100193
0.6610484123
0.6621948636
0.6851122364
0.66323557
0.641291022
0.6630970786
0.6969037945
0.698420795
0.7076322547
0.5405666121
0.5838628655
0.5851014986
0.5690277027
0.6194068917
0.6095673723
0.6028272037
0.6259317097
0.6252914411
0.644508267
0.6376262339
0.6483127895
0.6578142508
0.6440972519
0.6762426307
0.6392461603
0.6528459257
0.6932024554
0.6916039838
0.719832697
0.5576566319
0.5877326827
0.5736669861
0.5724731288
0.6004787319
0.6079928619
0.6236072732
0.6316863475
0.6340106262
0.6103985704
0.640598496
0.6299657422
0.6566316457
0.6169719532
0.6224075941
0.6665931906
0.6481341291
0.676390997
0.7117825491
0.7272487711
0.5641991986
0.5995172674
0.5910151499
0.5800705672
0.5913306635
0.5964731494
0.5891149021
0.6144068783
0.6103583992
0.620553395
0.6300545796
0.6208259743
0.6116390527
0.6076924947
0.6007382412
0.6191878816
0.6088997073
0.6256070433
0.6303849627
0.6459319076
0.756266195
0.7570723803
0.7471722409
0.7871456705
0.7720950574
0.8107825283
0.7229925053
0.727768254
0.7107905092
0.7701424073
0.7595312252
0.7657421001
0.7423520843
0.7668445234
0.8074178292
0.8008584625
0.7262760276
0.7530626297
0.7294670204
0.7439188062
0.7581540307
0.7630807877
0.7599184023
0.7849473082
0.7896186444
0.778598049
0.7228028694
0.7208839024
0.7422977358
0.7701714504
0.7629909336
0.7543599186
0.7514064035
0.7765792278
0.7988231536
0.7980564576
0.7572671931
0.7343959667
0.7418268281
0.7340716963
0.7429390967
0.7483090147
0.7782067214
0.8015809062
0.7778055083
0.7761614344
0.7013865398
0.7117815477
0.7005070057
0.7389484073
0.7486765626
0.7591230452
0.753520096
0.7548865461
0.7614706031
0.7777916098
0.7152939081
0.7055438796
0.7289109299
0.7393474331
0.7542397792
0.7904923357
0.7388517143
0.7587641445
0.7931470219
0.788731722
0.7163694254
0.7339746868
0.7417466394
0.7458299522
0.7610277185
0.7899022821
0.781585382
0.7830786859
0.7953640123
0.7828642412
0.7307564044
0.7247918935
0.7345140323
0.7641436864
0.7500066479
0.773231028
0.775987433
0.8054314001
0.8325107218
0.8111228917
0.7166072773
0.7371398735
0.7762739149
0.7742662419
0.767472969
0.7877486863
0.7670366937
0.8015915974
0.7983440591
0.8306701206
0.6846480431
0.7130925093
0.7395969859
0.7513884625
0.7223702827
0.7626414116
0.7627799775
0.7781973062
0.7741408595
0.8203893771
0.7047479229
0.7016990146
0.7132729042
0.7379845569
0.7401706613
0.7112336182
0.7552829073
0.778699582
0.8072338866
0.8339476157
0.7095513367
0.7207801138
0.7266442013
0.743892575
0.7401573177
0.7314893448
0.7652014097
0.7879223751
0.7988702539
0.8140394027
0.7334625269
0.7365417518
0.7525025583
0.7452318014
0.7648978942
0.7663218208
0.755066346
0.7562338056
0.7749396562
0.7812413359
0.6954355622
0.6903157273
0.7221515261
0.7085136665
0.7565074445
0.7456512931
0.749702887
0.8060865721
0.793316665
0.7838809752
0.6995615916
0.7194036194
0.7211098168
0.7534523171
0.743400021
0.7555115353
0.7755780477
0.7848174312
0.7812303859
0.7978150146
0.7054498467
0.6751180697
0.6771306308
0.7116785977
0.7137222561
0.7175744036
0.7372619
0.7468722974
0.776835252
0.787351272
0.6898880492
0.738816146
0.7137244238
0.7250919191
0.6972690798
0.7363382704
0.7274772753
0.7248348064
0.731655684
0.7314552561
0.6483342061
0.6644932255
0.6507487435
0.6471773715
0.6606676873
0.6574721806
0.663477741
0.6728979894
0.6726615224
0.6807260341
)
;

boundaryField
{
    flow
    {
        type            calculated;
        value           nonuniform List<scalar> 
48
(
0.56310619
0.549492786
0.5470972193
0.5670322084
0.5523396759
0.5282918643
0.5349379916
0.5482661469
0.5401732145
0.5485665729
0.558951302
0.5431766025
0.5406210838
0.5642295896
0.5467052458
0.5405666121
0.5576566319
0.5641991986
0.5641991986
0.5995172674
0.5910151499
0.5800705672
0.5913306635
0.5964731494
0.5891149021
0.6144068783
0.6103583992
0.620553395
0.6300545796
0.6208259743
0.6116390527
0.6076924947
0.6007382412
0.6191878816
0.6088997073
0.6256070433
0.6303849627
0.6459319076
0.6483342061
0.6644932255
0.6507487435
0.6471773715
0.6606676873
0.6574721806
0.663477741
0.6728979894
0.6726615224
0.6807260341
)
;
    }
    obstacle
    {
        type            calculated;
        value           nonuniform 0();
    }
    frontAndBack
    {
        type            empty;
    }
    procBoundary2to0
    {
        type            processor;
        value           nonuniform List<scalar> 
31
(
0.5690902497
0.5714357661
0.5709957812
0.572070274
0.5724686327
0.590839495
0.588331198
0.6082761143
0.6211132291
0.6212873865
0.6498875645
0.6291518738
0.6720246766
0.6716408883
0.6926977277
0.6646698751
0.6831943027
0.6891110207
0.7116676734
0.7245160715
0.7463317529
0.730423877
0.7519582717
0.7948342686
0.7938332494
0.794352887
0.7317139164
0.7297666154
0.7600335672
0.7556314229
0.7556314229
)
;
    }
    procBoundary2to3
    {
        type            processor;
        value           nonuniform List<scalar> 
19
(
0.8308415026
0.8012006344
0.7953713462
0.8083407991
0.7926639351
0.7926675725
0.8306360566
0.7927468995
0.8212123511
0.8193853445
0.79704043
0.8009671497
0.8079663259
0.7834921146
0.7881010244
0.820462134
0.7676588184
0.7274113026
0.6959317991
)
;
    }
}


// ************************************************************************* //
