/*--------------------------------*- C++ -*----------------------------------*\
  =========                 |
  \\      /  F ield         | OpenFOAM: The Open Source CFD Toolbox
   \\    /   O peration     | Website:  https://openfoam.org
    \\  /    A nd           | Version:  7
     \\/     M anipulation  |
\*---------------------------------------------------------------------------*/
FoamFile
{
    version     2.0;
    format      ascii;
    class       volScalarField;
    location    "0.004";
    object      linearKEMean;
}
// * * * * * * * * * * * * * * * * * * * * * * * * * * * * * * * * * * * * * //

dimensions      [1 -1 -2 0 0 0 0];

internalField   nonuniform List<scalar> 
546
(
5.89035121
7.87877309
7.882311129
7.84631526
7.866035859
7.848652226
7.868701764
7.923622966
7.986548509
7.938448789
8.000413105
7.967977944
7.86617254
7.818127805
7.790253437
7.691307515
7.667093097
7.703773673
7.750297444
7.725147258
5.936020561
7.997186073
7.870787429
7.915171374
7.960187546
7.931236367
7.905367101
7.857847912
7.813691816
7.808621228
7.838579277
7.79800058
7.780837745
7.82360114
7.792444178
7.81420676
7.833927087
7.865416699
7.804611019
7.760252387
5.879423265
7.860659113
7.86372709
7.832624155
7.795391858
7.825416997
7.786224431
7.843768232
7.821543976
7.844385137
7.825086994
7.80500711
7.814332949
7.820412393
7.792854152
7.770117912
7.777907012
7.77704804
7.847122457
7.889512068
5.886811488
7.891701498
7.7817204
7.772757146
7.764566127
7.814096996
7.864496786
7.766786337
7.836470209
7.826990584
7.798312137
7.823104279
7.803586362
7.741716934
7.847663631
7.804506178
7.812370006
7.848003387
7.861214441
7.856149192
5.924196729
7.920470392
7.899414129
7.868844012
7.85614805
7.773871522
7.72289156
7.729608583
7.694018612
7.689312864
7.694895941
7.657391104
7.702760877
7.779358577
7.788252993
7.915245752
7.906920527
7.900686668
7.817227884
7.860410714
5.920742651
7.988673219
7.96962788
7.877171916
7.925830128
7.94072573
7.936570521
7.907766706
7.912235025
7.98189351
8.00962807
7.931272664
7.984922797
7.976935098
7.958828789
7.948244317
7.938322629
7.86819311
7.864602805
7.907310915
5.875069535
7.865760814
7.831117282
7.832891608
7.867547724
7.919756644
7.973797056
8.031125183
7.985243433
7.933643358
7.913336759
7.972450927
7.935851752
7.881588906
7.812811256
7.743796314
7.784975105
7.809052942
7.82013876
7.80135179
5.875184277
7.925262314
7.960939223
7.932617581
7.929474262
7.945006178
7.896536839
7.889917256
7.926639138
8.010353429
8.001009721
7.922595913
7.896374999
7.931077927
7.914846202
7.980626312
7.941290957
7.830381997
7.799359135
7.825400168
5.875866402
7.831460306
7.815992343
7.792827053
7.822519762
7.737326252
7.808602559
7.806003727
7.750221884
7.718964801
7.72825035
7.789994684
7.83240174
7.847571597
7.871819103
7.870418858
7.91306229
7.951269434
7.951953715
8.0007924
5.899528812
7.944390469
7.881035039
7.774364543
7.804813315
7.859286165
7.84658397
7.782329293
7.828276563
7.84061752
7.877010256
7.820670295
7.864994149
7.884203949
7.9314325
7.855628014
7.869339448
7.938959753
7.968260715
7.954420491
5.897886156
7.867818644
7.850249519
7.786140417
7.842884848
7.841442507
7.868663953
7.883973711
7.855902952
7.829887916
7.897762613
7.859230229
7.823948903
7.877185449
7.922991124
7.957390787
7.924837677
7.904426042
7.88162734
7.877515112
5.899819952
7.837506938
7.862903867
7.875810378
7.863941413
7.822583923
7.743103565
7.701701154
7.727726397
7.818142042
7.82163058
7.813465683
7.808359357
7.841829802
7.750296997
7.737988683
7.807790154
7.782877982
7.71865349
7.692386449
5.894566303
7.872546459
7.818511737
7.834245241
7.786017321
7.796986528
7.894187996
7.906646584
7.93263581
7.930183265
7.872083447
7.85819817
7.82710278
7.793161333
7.792167982
7.840924222
7.889569412
7.872395319
7.853889456
7.910169421
5.903352256
7.973353021
7.911177534
7.861226364
7.814839527
7.832416673
7.794491503
7.827772955
7.739567843
7.714558456
7.791134911
7.779279615
7.886019853
7.908130945
7.870866233
7.815692509
7.841567662
7.832976807
7.863977264
7.79506297
5.919616723
7.904355674
7.891762001
7.910689687
7.973110369
7.900213531
7.888463397
7.917091241
7.930400079
7.979544177
7.94710169
7.933085274
7.849524495
7.789202301
7.764841785
7.792313113
7.79291028
7.7711271
7.789509203
7.794366312
5.901318469
7.912323575
7.792643878
7.884344676
7.878592436
7.922377841
7.945465354
7.886297695
7.846756606
7.732001691
7.776502869
7.760876874
7.766572973
7.801322683
7.774504314
7.739103104
7.777021302
7.789104766
7.741557953
7.740842619
5.903841429
7.933250021
7.879897859
7.847821824
7.804589399
7.775715905
7.752757008
7.815427097
7.811239111
7.900494487
7.871664864
7.91279273
7.900858245
7.930701315
7.950230499
7.882205158
7.892658736
7.95117143
7.980174158
7.983539478
5.777782274
7.793611143
7.736380541
7.718621934
7.756824933
7.759678216
7.766410173
7.79636706
7.785321914
7.780988303
7.854622681
7.834167481
7.864913158
7.817319605
7.879124644
7.847745664
7.861723615
7.808421466
7.755764058
7.709933534
7.769799503
7.760476287
7.797673279
7.76654165
7.787945619
7.867534411
7.718230344
7.714842273
7.60082776
7.606570884
7.674824565
7.745574241
7.801424692
7.801763554
7.81339963
7.841713734
7.767457102
7.85563255
7.908560289
7.8846044
7.958199409
7.937364642
7.914845414
7.972884353
7.791884231
7.755796586
7.919276523
7.864321397
7.869273242
7.899183531
7.845003902
7.812896545
7.774151909
7.727711777
7.814769337
7.810362226
7.855423058
7.821416728
7.841066232
7.800149887
7.801960566
7.658459944
7.753128538
7.762785632
7.828267771
7.974529684
7.75362059
7.732439194
7.717691067
7.749406581
7.796196275
7.937965075
7.966000257
7.949693114
7.907416466
7.726662195
7.96120243
8.04042112
8.002170243
7.960323238
7.947304789
7.859027991
7.895534928
7.858087665
7.875896055
7.884838476
7.777623399
7.717764033
7.795419018
7.744851083
7.794352493
7.794616818
7.842032955
7.83450579
7.902128035
7.955671468
7.756249486
7.794171817
7.811795708
7.897186643
7.928316561
7.979077769
7.956421707
7.99486095
7.94861046
7.867057869
8.10317244
8.046740949
8.071140871
7.98876463
7.93427226
7.933907124
7.842732111
7.868733143
7.904409049
7.939790637
7.979510383
7.955069728
8.002847452
8.044775389
7.963722729
7.960986502
7.981836949
7.922014007
7.845190984
7.803793276
7.911583866
7.828946807
7.790689529
7.776664441
7.795967672
7.801514332
7.795750009
7.778888396
7.798094136
7.879770299
7.661631427
7.690955918
7.718152891
7.712539901
7.696230792
7.716508711
7.708823556
7.78068716
7.869784049
7.818941703
7.895336834
7.931560279
7.873932838
7.928361377
7.933453847
7.999791459
7.960347624
7.908173165
7.924683052
7.93315952
7.797316382
7.791799341
7.851773065
7.867373054
7.939704801
7.861978922
7.856952881
7.861819465
7.782183696
7.765711529
7.885355859
7.857155456
7.848893267
7.858811365
7.828967178
7.831410956
7.826910866
7.905128381
7.907347096
7.950506162
7.747383813
7.75227194
7.838378972
7.872659919
7.864702349
7.828430606
7.833982992
7.776375795
7.762069942
7.821953802
7.950126393
7.888039505
7.840750504
7.832984413
7.796683388
7.821215893
7.851771219
7.894060801
7.888597772
7.897137225
7.728974738
7.752680835
7.680231624
7.682584913
7.702617449
7.729409595
7.724364016
7.697015299
7.702865097
7.69726482
)
;

boundaryField
{
    flow
    {
        type            calculated;
        value           nonuniform List<scalar> 
48
(
5.89035121
5.936020561
5.879423265
5.886811488
5.924196729
5.920742651
5.875069535
5.875184277
5.875866402
5.899528812
5.897886156
5.899819952
5.894566303
5.903352256
5.919616723
5.901318469
5.903841429
5.777782274
5.777782274
7.793611143
7.736380541
7.718621934
7.756824933
7.759678216
7.766410173
7.79636706
7.785321914
7.780988303
7.854622681
7.834167481
7.864913158
7.817319605
7.879124644
7.847745664
7.861723615
7.808421466
7.755764058
7.709933534
7.728974738
7.752680835
7.680231624
7.682584913
7.702617449
7.729409595
7.724364016
7.697015299
7.702865097
7.69726482
)
;
    }
    obstacle
    {
        type            calculated;
        value           nonuniform 0();
    }
    frontAndBack
    {
        type            empty;
    }
    procBoundary2to0
    {
        type            processor;
        value           nonuniform List<scalar> 
31
(
5.907394856
7.934673622
7.85662584
7.812573791
7.79972527
7.882681918
7.856267763
7.873485045
7.867260744
7.860012483
7.856633426
7.879628911
7.880664188
7.86257533
7.950231405
7.966292265
8.014917661
7.976021587
7.875793063
7.871020113
7.93129074
7.869732268
7.836943284
7.781906418
7.773830227
7.782560794
7.874839151
7.836117372
7.838854315
7.795188243
7.795188243
)
;
    }
    procBoundary2to3
    {
        type            processor;
        value           nonuniform List<scalar> 
19
(
7.884495905
7.874121205
7.721278595
7.799063012
8.06277754
7.866478941
7.778955827
8.070031718
7.819535248
7.893092964
7.774423785
7.928830173
7.826202012
7.962602376
7.781941737
7.893227842
7.791318232
7.90068932
7.676683783
)
;
    }
}


// ************************************************************************* //
