/*--------------------------------*- C++ -*----------------------------------*\
  =========                 |
  \\      /  F ield         | OpenFOAM: The Open Source CFD Toolbox
   \\    /   O peration     | Website:  https://openfoam.org
    \\  /    A nd           | Version:  7
     \\/     M anipulation  |
\*---------------------------------------------------------------------------*/
FoamFile
{
    version     2.0;
    format      ascii;
    class       volScalarField;
    location    "0.004";
    object      rhoMMean;
}
// * * * * * * * * * * * * * * * * * * * * * * * * * * * * * * * * * * * * * //

dimensions      [1 -3 0 0 0 0 0];

internalField   nonuniform List<scalar> 
546
(
3.984135315e-06
3.991704522e-06
4.020790193e-06
3.854262137e-06
4.094095888e-06
3.941965809e-06
3.785426235e-06
3.730995807e-06
3.809470906e-06
3.678561327e-06
3.599440768e-06
3.585035814e-06
3.710873776e-06
3.607343327e-06
3.656054178e-06
3.424635875e-06
3.357580453e-06
3.425826195e-06
3.508724848e-06
3.463875194e-06
3.98126428e-06
3.91061478e-06
4.191013032e-06
4.027728207e-06
3.867204862e-06
3.9333023e-06
3.977265201e-06
4.109704492e-06
3.865210581e-06
3.788851294e-06
3.779273853e-06
3.783677933e-06
3.791750656e-06
3.615424068e-06
3.674985577e-06
3.553245106e-06
3.534495536e-06
3.497425556e-06
3.522104023e-06
3.429767164e-06
4.035109232e-06
4.203539614e-06
3.886394736e-06
3.828421675e-06
3.790630109e-06
3.911366462e-06
4.121153329e-06
3.9251371e-06
3.987314084e-06
3.724146208e-06
3.665580487e-06
3.789087796e-06
3.725123041e-06
3.449698202e-06
3.674756781e-06
3.458010239e-06
3.523873362e-06
3.61519194e-06
3.592873597e-06
3.447438469e-06
4.27643885e-06
4.039233176e-06
3.762763396e-06
3.619479071e-06
3.56457137e-06
3.795306099e-06
3.977364967e-06
3.656116974e-06
3.671510738e-06
3.807776237e-06
3.745341506e-06
3.59540826e-06
3.791958311e-06
3.585985675e-06
3.490563772e-06
3.69441591e-06
3.625152721e-06
3.662937102e-06
3.612717887e-06
3.562872014e-06
4.163715964e-06
3.854940088e-06
3.823687576e-06
3.838315182e-06
3.765201938e-06
3.81821377e-06
4.075586464e-06
3.889721384e-06
3.849758187e-06
3.711563495e-06
3.875962514e-06
3.59568319e-06
3.615674004e-06
3.67932686e-06
3.602663172e-06
3.591904262e-06
3.629206058e-06
3.657997013e-06
3.694264699e-06
3.780814708e-06
3.956032933e-06
4.074649933e-06
4.000106119e-06
3.929204808e-06
3.969395134e-06
3.935206499e-06
3.952273168e-06
3.822512252e-06
3.926332107e-06
3.757152021e-06
3.695540101e-06
3.87987599e-06
3.721977389e-06
3.721399725e-06
3.615307327e-06
3.678981324e-06
3.56553706e-06
3.611062478e-06
3.644922551e-06
3.749927727e-06
3.973794528e-06
4.245854396e-06
4.149620201e-06
4.089775224e-06
3.916381636e-06
4.120551817e-06
4.044943587e-06
3.965650677e-06
3.921099906e-06
3.948926525e-06
3.727412246e-06
3.820056527e-06
3.548543811e-06
3.64012201e-06
3.796259292e-06
3.858050749e-06
3.740754453e-06
3.543597578e-06
3.685886742e-06
3.617914264e-06
4.1561478e-06
4.130252664e-06
4.020059964e-06
3.938346111e-06
3.953577521e-06
3.946588687e-06
4.066528369e-06
4.046651275e-06
3.842275938e-06
3.977765281e-06
3.971781085e-06
3.797666744e-06
3.677074104e-06
3.868476099e-06
4.033544529e-06
3.867762219e-06
3.71882778e-06
3.65315617e-06
3.510396086e-06
3.683121617e-06
4.097234355e-06
4.03431454e-06
4.072070803e-06
3.944705315e-06
4.14630855e-06
4.042306659e-06
3.999832647e-06
3.778408762e-06
3.817265576e-06
3.883897043e-06
4.050592244e-06
3.97355688e-06
4.02603864e-06
3.909573797e-06
4.018266986e-06
3.856752332e-06
3.715584236e-06
3.734014721e-06
3.564023698e-06
3.796022165e-06
4.076108518e-06
4.312818903e-06
4.402059785e-06
4.051252179e-06
4.02297328e-06
4.105174716e-06
4.031917134e-06
3.957279176e-06
3.819525622e-06
3.917691821e-06
3.964713625e-06
3.851786938e-06
3.93714746e-06
3.922906526e-06
4.00968304e-06
3.864251765e-06
3.719729007e-06
3.688472329e-06
3.635951933e-06
3.724185365e-06
4.143512808e-06
4.364128046e-06
4.261194736e-06
4.130120303e-06
4.056921143e-06
4.044496306e-06
4.028798766e-06
4.021751822e-06
3.94149041e-06
3.882771498e-06
3.726425104e-06
3.93187152e-06
3.917667035e-06
3.816632613e-06
4.020746871e-06
3.764286756e-06
3.792587629e-06
3.90056371e-06
3.667228085e-06
3.764000996e-06
4.114484726e-06
4.325220933e-06
4.283157233e-06
4.105524418e-06
4.023963963e-06
4.320357283e-06
4.22666171e-06
3.934935527e-06
4.048255239e-06
3.914063792e-06
4.023389423e-06
3.939934246e-06
3.87942371e-06
3.88869925e-06
3.640653749e-06
3.815324094e-06
3.839517478e-06
3.957295526e-06
3.626631613e-06
3.849192499e-06
4.094460274e-06
4.339976631e-06
4.138024006e-06
4.085241178e-06
4.21105248e-06
4.290245625e-06
4.187860194e-06
4.196680955e-06
3.992359562e-06
4.061280234e-06
3.987321061e-06
3.986899919e-06
3.976069257e-06
4.057720313e-06
3.897516366e-06
3.812920647e-06
3.78593298e-06
3.944140147e-06
3.736584375e-06
3.838763296e-06
4.420934427e-06
4.361136625e-06
4.414246349e-06
4.265599128e-06
4.173970628e-06
4.156900107e-06
4.113259102e-06
4.040439429e-06
4.100822289e-06
4.271037318e-06
4.050475191e-06
3.834914595e-06
4.023103038e-06
4.103111182e-06
3.915048644e-06
3.950862904e-06
4.019148427e-06
3.947194365e-06
3.830212154e-06
3.827633856e-06
4.213104559e-06
4.365177153e-06
4.464534505e-06
4.351490868e-06
4.462111376e-06
4.165744507e-06
4.141867188e-06
4.14766539e-06
4.032358062e-06
4.166359037e-06
4.293678703e-06
4.04388136e-06
4.037911014e-06
4.305672401e-06
3.968629289e-06
3.813277848e-06
3.901100447e-06
4.064202923e-06
4.001776836e-06
4.038056498e-06
4.323251646e-06
4.516696034e-06
4.270694905e-06
3.922454767e-06
4.332185294e-06
4.154708169e-06
4.068396119e-06
4.199309031e-06
4.199464096e-06
4.135837379e-06
4.152761376e-06
4.121971141e-06
4.189330963e-06
4.010373279e-06
4.169450537e-06
3.965828027e-06
3.926615367e-06
4.181482558e-06
4.048984635e-06
4.197997492e-06
4.443763994e-06
4.666156693e-06
4.387116114e-06
4.065622351e-06
4.311333033e-06
4.30196408e-06
4.246546822e-06
4.211515903e-06
4.110291321e-06
4.148822385e-06
4.356240484e-06
4.180016475e-06
4.228448023e-06
3.903394651e-06
3.97340369e-06
4.051057542e-06
3.789234009e-06
4.133049448e-06
4.233413105e-06
4.182572903e-06
4.509096731e-06
4.754657557e-06
4.545175924e-06
4.380655686e-06
4.328871456e-06
4.200618279e-06
4.260809938e-06
4.2830885e-06
4.304113425e-06
4.342052662e-06
4.431922341e-06
4.360160626e-06
4.213532157e-06
4.067252766e-06
4.090741435e-06
4.066273955e-06
3.915755025e-06
4.027347055e-06
4.097724437e-06
4.153233442e-06
3.326579008e-06
3.24405592e-06
3.301699883e-06
3.333961842e-06
3.230450074e-06
3.321404063e-06
3.459330579e-06
3.543338091e-06
3.274211508e-06
3.502627358e-06
3.385301401e-06
3.368666669e-06
3.168458847e-06
3.235740475e-06
3.300381866e-06
3.281220101e-06
3.444570546e-06
3.506335961e-06
3.237488796e-06
3.439165907e-06
3.514699341e-06
3.439315461e-06
3.330089073e-06
3.432774795e-06
3.367790646e-06
3.280242196e-06
3.471454701e-06
3.330977656e-06
3.363328107e-06
3.581471376e-06
3.558453908e-06
3.547443904e-06
3.446319974e-06
3.501953083e-06
3.380669683e-06
3.287743044e-06
3.513249324e-06
3.539332041e-06
3.461767498e-06
3.548278631e-06
3.535654012e-06
3.5367949e-06
3.430497833e-06
3.389097452e-06
3.273020232e-06
3.395595331e-06
3.349101184e-06
3.344838148e-06
3.265610174e-06
3.547014079e-06
3.528799066e-06
3.608904854e-06
3.448632849e-06
3.341711413e-06
3.351087808e-06
3.39521428e-06
3.428616972e-06
3.379552225e-06
3.456584849e-06
3.589723076e-06
3.633655893e-06
3.631963908e-06
3.391584259e-06
3.404098496e-06
3.489480032e-06
3.350157074e-06
3.541516707e-06
3.542567613e-06
3.608678796e-06
3.605668272e-06
3.605901418e-06
3.581724119e-06
3.544185184e-06
3.504508399e-06
3.650719931e-06
3.679766451e-06
3.60728281e-06
3.637499072e-06
3.507657164e-06
3.596477014e-06
3.418348044e-06
3.522513163e-06
3.53666679e-06
3.626892456e-06
3.754081105e-06
3.761968366e-06
3.527650391e-06
3.51223796e-06
3.685675645e-06
3.751987244e-06
3.589575232e-06
3.502856309e-06
3.535561729e-06
3.747420014e-06
3.640340628e-06
3.772455288e-06
3.420992914e-06
3.650011828e-06
3.856332052e-06
3.738808411e-06
3.492873476e-06
3.644877081e-06
3.597621789e-06
3.708687813e-06
3.729447239e-06
3.722367227e-06
3.620299361e-06
3.60124827e-06
3.709462898e-06
3.636591102e-06
3.578018118e-06
3.449524592e-06
3.591399696e-06
3.763762255e-06
3.853986714e-06
3.923642813e-06
3.682430736e-06
3.718355959e-06
3.653519339e-06
3.611329068e-06
3.579607864e-06
3.561817722e-06
3.704420837e-06
3.758392851e-06
3.864111669e-06
3.921986321e-06
3.685528705e-06
3.76126382e-06
3.838533589e-06
3.715838535e-06
3.666436074e-06
3.832972953e-06
3.797099784e-06
3.628495688e-06
3.914696842e-06
3.973088448e-06
3.75778235e-06
3.64453448e-06
3.967511172e-06
3.69814119e-06
3.756723776e-06
3.742495993e-06
3.840613251e-06
4.004255862e-06
3.961466777e-06
4.009202949e-06
3.827484715e-06
3.890682884e-06
3.778751675e-06
3.949106331e-06
3.765397944e-06
3.836829425e-06
3.980152954e-06
4.120749367e-06
4.046037288e-06
4.167161619e-06
3.919731432e-06
3.85272318e-06
3.849742593e-06
4.0023367e-06
4.012483329e-06
3.928120269e-06
4.084933113e-06
4.145910479e-06
4.226071083e-06
4.130785272e-06
3.953356119e-06
4.118460049e-06
4.054365415e-06
4.157299821e-06
3.981426232e-06
4.117441362e-06
4.100554012e-06
4.144503296e-06
4.139364323e-06
4.190736899e-06
4.170696874e-06
4.232353233e-06
4.071846326e-06
4.055198731e-06
4.206474336e-06
4.087351209e-06
4.042366799e-06
4.204110611e-06
3.969679485e-06
4.081866309e-06
)
;

boundaryField
{
    flow
    {
        type            calculated;
        value           nonuniform List<scalar> 
48
(
3.984135315e-06
3.98126428e-06
4.035109232e-06
4.27643885e-06
4.163715964e-06
3.956032933e-06
3.973794528e-06
4.1561478e-06
4.097234355e-06
4.076108518e-06
4.143512808e-06
4.114484726e-06
4.094460274e-06
4.420934427e-06
4.213104559e-06
4.323251646e-06
4.443763994e-06
4.509096731e-06
4.509096731e-06
4.754657557e-06
4.545175924e-06
4.380655686e-06
4.328871456e-06
4.200618279e-06
4.260809938e-06
4.2830885e-06
4.304113425e-06
4.342052662e-06
4.431922341e-06
4.360160626e-06
4.213532157e-06
4.067252766e-06
4.090741435e-06
4.066273955e-06
3.915755025e-06
4.027347055e-06
4.097724437e-06
4.153233442e-06
4.170696874e-06
4.232353233e-06
4.071846326e-06
4.055198731e-06
4.206474336e-06
4.087351209e-06
4.042366799e-06
4.204110611e-06
3.969679485e-06
4.081866309e-06
)
;
    }
    obstacle
    {
        type            calculated;
        value           nonuniform 0();
    }
    frontAndBack
    {
        type            empty;
    }
    procBoundary2to0
    {
        type            processor;
        value           nonuniform List<scalar> 
31
(
4.22668889e-06
4.100459778e-06
4.026831145e-06
3.960682263e-06
3.993576021e-06
3.883279701e-06
3.708230183e-06
3.755171383e-06
3.78906978e-06
3.587612758e-06
3.549872845e-06
3.561889037e-06
3.700164645e-06
3.680325354e-06
3.63549882e-06
3.406157068e-06
3.448357192e-06
3.385270337e-06
3.44997761e-06
3.48044147e-06
3.314365384e-06
3.214351111e-06
3.240600407e-06
3.497220621e-06
3.32474831e-06
3.282804102e-06
3.480223867e-06
3.393796378e-06
3.415813434e-06
3.382628997e-06
3.382628997e-06
)
;
    }
    procBoundary2to3
    {
        type            processor;
        value           nonuniform List<scalar> 
19
(
3.223719756e-06
3.173001414e-06
3.326312482e-06
3.225364161e-06
3.306123853e-06
3.526277518e-06
3.507019807e-06
3.460052838e-06
3.673484297e-06
3.554710668e-06
3.749978717e-06
3.820509923e-06
3.802233668e-06
3.796445834e-06
3.962803482e-06
4.21611841e-06
4.12324486e-06
3.998316433e-06
4.229540501e-06
)
;
    }
}


// ************************************************************************* //
