/*--------------------------------*- C++ -*----------------------------------*\
  =========                 |
  \\      /  F ield         | OpenFOAM: The Open Source CFD Toolbox
   \\    /   O peration     | Website:  https://openfoam.org
    \\  /    A nd           | Version:  7
     \\/     M anipulation  |
\*---------------------------------------------------------------------------*/
FoamFile
{
    version     2.0;
    format      ascii;
    class       volScalarField;
    location    "0.004";
    object      rhoM;
}
// * * * * * * * * * * * * * * * * * * * * * * * * * * * * * * * * * * * * * //

dimensions      [1 -3 0 0 0 0 0];

internalField   nonuniform List<scalar> 
546
(
4.01188862e-06
3.52763771e-06
4.427198864e-06
3.458697042e-06
3.043386799e-06
1.452752732e-06
3.52763771e-06
4.427198864e-06
3.52763771e-06
5.118271776e-06
6.224654932e-06
4.565080198e-06
4.980390442e-06
4.080829287e-06
4.565080198e-06
2.490195221e-06
2.421254554e-06
3.874007286e-06
5.464641352e-06
3.942947953e-06
2.974446132e-06
4.980390442e-06
2.559135888e-06
6.086773598e-06
5.879951596e-06
8.02377724e-06
5.395700685e-06
4.427198864e-06
1.521693399e-06
6.086773598e-06
6.433143174e-06
6.086773598e-06
5.395700685e-06
7.885895906e-06
4.565080198e-06
4.080829287e-06
3.458697042e-06
3.942947953e-06
1.937003643e-06
4.01188862e-06
3.043386799e-06
8.439087484e-06
4.842509107e-06
5.118271776e-06
2.559135888e-06
4.149769955e-06
4.427198864e-06
8.02377724e-06
4.911449774e-06
2.974446132e-06
6.01783293e-06
3.458697042e-06
5.879951596e-06
9.891840216e-06
4.01188862e-06
4.01188862e-06
4.358258196e-06
6.086773598e-06
5.948892263e-06
5.118271776e-06
3.596578377e-06
6.086773598e-06
3.458697042e-06
4.980390442e-06
3.458697042e-06
2.974446132e-06
4.427198864e-06
2.00594431e-06
4.565080198e-06
5.395700685e-06
5.53358202e-06
4.01188862e-06
2.905505464e-06
3.043386799e-06
7.470585662e-06
4.01188862e-06
2.421254554e-06
7.608466997e-06
5.53358202e-06
6.01783293e-06
2.974446132e-06
5.395700685e-06
4.911449774e-06
4.01188862e-06
5.326760018e-06
3.112327466e-06
6.571024508e-06
6.433143174e-06
2.974446132e-06
3.458697042e-06
4.427198864e-06
3.52763771e-06
7.401644995e-06
2.490195221e-06
7.193156754e-06
4.980390442e-06
1.590634067e-06
3.874007286e-06
6.639965176e-06
6.502083841e-06
3.52763771e-06
2.490195221e-06
5.602522687e-06
4.980390442e-06
6.571024508e-06
5.602522687e-06
7.193156754e-06
4.496139531e-06
6.502083841e-06
2.974446132e-06
3.596578377e-06
5.879951596e-06
5.879951596e-06
5.53358202e-06
2.559135888e-06
7.885895906e-06
5.464641352e-06
5.879951596e-06
5.879951596e-06
4.080829287e-06
4.980390442e-06
4.496139531e-06
5.53358202e-06
4.565080198e-06
3.874007286e-06
5.53358202e-06
3.874007286e-06
3.043386799e-06
1.168929628e-05
6.639965176e-06
7.055275419e-06
5.049331109e-06
7.401644995e-06
4.980390442e-06
5.602522687e-06
6.917394084e-06
5.118271776e-06
4.496139531e-06
2.00594431e-06
3.942947953e-06
3.043386799e-06
5.948892263e-06
4.01188862e-06
6.01783293e-06
4.080829287e-06
9.822899549e-06
3.942947953e-06
3.942947953e-06
3.458697042e-06
3.389756375e-06
5.049331109e-06
5.948892263e-06
9.685018214e-07
3.665519044e-06
5.049331109e-06
4.427198864e-06
5.879951596e-06
3.52763771e-06
4.565080198e-06
4.496139531e-06
4.980390442e-06
5.53358202e-06
4.911449774e-06
5.395700685e-06
4.01188862e-06
5.879951596e-06
6.917394084e-06
4.496139531e-06
3.458697042e-06
2.905505464e-06
6.01783293e-06
4.080829287e-06
2.421254554e-06
3.389756375e-06
3.596578377e-06
2.974446132e-06
4.980390442e-06
5.879951596e-06
3.112327466e-06
3.596578377e-06
3.52763771e-06
2.00594431e-06
4.01188862e-06
3.942947953e-06
4.080829287e-06
3.52763771e-06
4.01188862e-06
4.634020865e-06
6.086773598e-06
6.917394084e-06
4.080829287e-06
2.00594431e-06
5.464641352e-06
5.948892263e-06
3.389756375e-06
5.53358202e-06
1.452752732e-06
6.086773598e-06
3.389756375e-06
2.421254554e-06
3.458697042e-06
6.01783293e-06
4.496139531e-06
4.496139531e-06
5.948892263e-06
8.714850153e-06
3.389756375e-06
3.942947953e-06
3.043386799e-06
3.874007286e-06
3.942947953e-06
6.502083841e-06
2.974446132e-06
2.974446132e-06
2.421254554e-06
3.874007286e-06
4.911449774e-06
2.974446132e-06
6.986334752e-06
3.596578377e-06
3.942947953e-06
3.596578377e-06
6.502083841e-06
7.055275419e-06
4.842509107e-06
6.01783293e-06
3.942947953e-06
4.565080198e-06
7.470585662e-06
6.364202506e-06
5.118271776e-06
2.974446132e-06
5.049331109e-06
3.942947953e-06
4.702961533e-06
3.942947953e-06
4.496139531e-06
5.948892263e-06
5.187212443e-06
5.464641352e-06
4.496139531e-06
3.458697042e-06
2.490195221e-06
5.187212443e-06
6.502083841e-06
4.496139531e-06
5.464641352e-06
6.155714265e-06
4.842509107e-06
4.01188862e-06
6.502083841e-06
3.52763771e-06
5.395700685e-06
3.874007286e-06
3.458697042e-06
3.389756375e-06
6.086773598e-06
7.401644995e-06
5.049331109e-06
6.086773598e-06
4.980390442e-06
5.049331109e-06
4.01188862e-06
5.395700685e-06
3.942947953e-06
6.086773598e-06
3.942947953e-06
8.923338395e-06
2.490195221e-06
4.7719022e-06
3.181268133e-06
5.53358202e-06
6.01783293e-06
7.055275419e-06
6.01783293e-06
4.980390442e-06
2.074884977e-06
9.614411307e-06
5.53358202e-06
5.395700685e-06
3.52763771e-06
6.848453417e-06
3.942947953e-06
3.043386799e-06
6.639965176e-06
3.52763771e-06
5.118271776e-06
5.464641352e-06
5.118271776e-06
1.452752732e-06
5.879951596e-06
7.055275419e-06
3.874007286e-06
4.080829287e-06
4.911449774e-06
5.464641352e-06
5.53358202e-06
2.00594431e-06
4.496139531e-06
6.01783293e-06
4.496139531e-06
4.980390442e-06
4.080829287e-06
4.980390442e-06
6.01783293e-06
5.879951596e-06
4.01188862e-06
4.358258196e-06
4.427198864e-06
5.049331109e-06
6.01783293e-06
4.634020865e-06
2.905505464e-06
4.496139531e-06
4.01188862e-06
6.639965176e-06
4.980390442e-06
3.596578377e-06
3.52763771e-06
4.358258196e-06
3.043386799e-06
2.421254554e-06
5.464641352e-06
4.911449774e-06
2.974446132e-06
5.948892263e-06
5.118271776e-06
6.917394084e-06
1.590634067e-06
5.049331109e-06
6.917394084e-06
3.389756375e-06
6.639965176e-06
2.559135888e-06
5.326760018e-06
5.53358202e-06
2.421254554e-06
5.049331109e-06
4.496139531e-06
6.571024508e-06
4.496139531e-06
5.049331109e-06
4.496139531e-06
3.52763771e-06
3.874007286e-06
4.842509107e-06
4.496139531e-06
5.049331109e-06
3.458697042e-06
4.634020865e-06
3.389756375e-06
2.490195221e-06
5.464641352e-06
4.080829287e-06
1.521693399e-06
6.155714265e-06
4.01188862e-06
4.427198864e-06
4.496139531e-06
6.01783293e-06
7.06575208e-06
4.671599213e-06
4.198133868e-06
8.091437103e-06
7.194966481e-06
4.955000191e-06
6.455956738e-06
7.128980116e-06
3.026328777e-06
5.598723907e-06
4.0680561e-06
4.743230257e-06
6.297200846e-06
5.686681576e-06
5.286891933e-06
3.771982481e-06
7.704633759e-06
3.425168311e-06
5.700246325e-06
6.306753252e-06
2.711464345e-06
5.246378863e-06
5.283737933e-06
5.759340096e-06
4.846022842e-06
5.843154299e-06
5.484020362e-06
2.096560781e-06
5.63010314e-06
7.157754165e-06
6.779520464e-06
5.677896352e-06
4.270275021e-06
4.883925704e-06
6.093678009e-06
5.325361307e-06
7.080295222e-06
5.102080173e-06
3.941580789e-06
3.472928773e-06
4.923312731e-06
2.012594278e-06
4.198133868e-06
3.790535659e-06
3.744734387e-06
4.80756839e-06
3.401777314e-06
5.941377939e-06
4.081867159e-06
5.598723946e-06
5.280672474e-06
3.090522461e-06
3.691402441e-06
3.717877192e-06
4.699656061e-06
4.142343636e-06
4.095300947e-06
2.446548794e-06
6.545355153e-06
3.118060515e-06
5.13841622e-06
4.599968201e-06
7.166381512e-06
3.717877166e-06
2.129393466e-06
9.02362799e-06
5.484020399e-06
3.494829185e-06
4.081867159e-06
6.590989309e-06
5.13841622e-06
6.181044922e-06
7.238522635e-06
5.176315844e-06
2.056210061e-06
9.244775627e-06
6.177543995e-06
6.989658369e-06
3.589169585e-06
4.606458582e-06
7.27913646e-06
6.181044922e-06
4.198133868e-06
6.780071561e-06
3.598367632e-06
7.470249063e-06
5.067237323e-06
4.053799789e-06
5.559959918e-06
6.590989219e-06
4.567672065e-06
4.025188584e-06
5.211596846e-06
4.738608664e-06
4.772839451e-06
3.771982481e-06
4.37371369e-06
5.941377979e-06
5.137405576e-06
4.1103259e-06
4.567672128e-06
6.252676009e-06
5.283737897e-06
6.707412994e-06
6.168630183e-06
3.254189527e-06
8.121416801e-06
5.241401954e-06
4.574564758e-06
5.173223487e-06
2.56920811e-06
4.0968196e-06
6.876073426e-06
6.632998471e-06
4.331970323e-06
4.216059536e-06
4.37371369e-06
5.591389928e-06
4.504421542e-06
4.606458551e-06
5.13841622e-06
5.892789483e-06
5.067314528e-06
8.383827277e-06
5.800944489e-06
5.251645445e-06
4.512083987e-06
5.102080207e-06
5.559959993e-06
5.102591264e-06
4.210312354e-06
1.581076763e-06
5.79046943e-06
4.956584224e-06
3.377048653e-06
4.510923104e-06
2.984994275e-06
6.080699684e-06
5.559959918e-06
1.488398035e-06
7.208008334e-06
6.181044922e-06
5.139455651e-06
5.759340055e-06
5.727761058e-06
4.955000226e-06
5.484020362e-06
4.053799817e-06
1.548235991e-06
4.465194106e-06
5.851416557e-06
8.265270243e-06
5.21159681e-06
2.041462944e-06
5.87412788e-06
6.952456108e-06
3.887745528e-06
5.521729093e-06
3.519026376e-06
4.606458582e-06
4.70992835e-06
3.090522461e-06
4.777006444e-06
4.81126715e-06
5.360075361e-06
5.9905861e-06
3.540147611e-06
3.494829185e-06
4.011723974e-06
7.087121943e-06
4.0680561e-06
5.82115848e-06
3.691402467e-06
4.228242898e-06
5.286891933e-06
4.289775436e-06
2.082243048e-06
6.080699684e-06
6.685641523e-06
3.543560996e-06
7.70762433e-06
4.528337126e-06
6.152918556e-06
5.759340096e-06
5.727761098e-06
2.588964772e-06
)
;

boundaryField
{
    flow
    {
        type            zeroGradient;
    }
    obstacle
    {
        type            calculated;
        value           nonuniform 0();
    }
    frontAndBack
    {
        type            empty;
    }
    procBoundary2to0
    {
        type            processor;
        value           nonuniform List<scalar> 
31
(
4.01188862e-06
3.942947953e-06
6.433143174e-06
4.149769955e-06
4.911449774e-06
6.433143174e-06
8.02377724e-06
3.942947953e-06
5.948892263e-06
3.596578377e-06
4.01188862e-06
4.358258196e-06
4.427198864e-06
3.52763771e-06
6.917394084e-06
4.911449774e-06
4.080829287e-06
6.708905843e-06
3.458697042e-06
3.942947953e-06
2.99769598e-06
7.618859586e-06
6.803932302e-06
6.269705872e-06
3.598367632e-06
5.251645445e-06
4.928867026e-06
3.564490034e-06
4.644707943e-06
2.480663409e-06
2.480663409e-06
)
;
    }
    procBoundary2to3
    {
        type            processor;
        value           nonuniform List<scalar> 
19
(
4.768550219e-06
4.321218212e-06
5.885982922e-06
5.88598288e-06
6.481827318e-06
6.929159375e-06
5.438650912e-06
6.481827318e-06
6.108751571e-06
3.129529336e-06
6.333314887e-06
2.756453564e-06
4.246961997e-06
6.63033975e-06
3.873886261e-06
1.564764668e-06
2.682197329e-06
5.215882263e-06
3.725373774e-06
)
;
    }
}


// ************************************************************************* //
