/*--------------------------------*- C++ -*----------------------------------*\
  =========                 |
  \\      /  F ield         | OpenFOAM: The Open Source CFD Toolbox
   \\    /   O peration     | Website:  https://openfoam.org
    \\  /    A nd           | Version:  7
     \\/     M anipulation  |
\*---------------------------------------------------------------------------*/
FoamFile
{
    version     2.0;
    format      ascii;
    class       volScalarField;
    location    "0.004";
    object      rhoNMean;
}
// * * * * * * * * * * * * * * * * * * * * * * * * * * * * * * * * * * * * * //

dimensions      [0 -3 0 0 0 0 0];

internalField   nonuniform List<scalar> 
546
(
7.751659471e+19
9.939119767e+19
1.001982825e+20
9.949533765e+19
9.998479556e+19
9.970361761e+19
9.970361761e+19
1.006564984e+20
1.014531693e+20
1.008856064e+20
1.013802713e+20
1.012240613e+20
9.97973436e+19
9.900067274e+19
9.886529077e+19
9.773016498e+19
9.726674206e+19
9.81467249e+19
9.902150074e+19
9.87247018e+19
7.791753363e+19
1.005471515e+20
1.005783935e+20
1.012136473e+20
1.018489012e+20
1.019582482e+20
1.015416883e+20
1.005159095e+20
1.000212446e+20
1.001097635e+20
1.004950815e+20
9.97921366e+19
9.944326766e+19
9.993793257e+19
9.958385664e+19
1.000316586e+20
1.001722475e+20
1.000785215e+20
9.920895271e+19
9.877677179e+19
7.721458876e+19
9.887049777e+19
9.988065558e+19
9.971923861e+19
9.901629374e+19
9.933392068e+19
9.863097581e+19
9.955782164e+19
9.928185069e+19
9.960989163e+19
9.934954168e+19
9.957864964e+19
9.954740764e+19
9.971923861e+19
9.952657965e+19
9.904232874e+19
9.912043372e+19
9.932350668e+19
1.000264516e+20
1.004325975e+20
7.714169078e+19
9.913605472e+19
9.886008377e+19
9.835500486e+19
9.846435184e+19
9.911522672e+19
1.000368656e+20
9.903191474e+19
9.974527361e+19
9.940161167e+19
9.900067274e+19
9.932871368e+19
9.916208971e+19
9.86778388e+19
9.962551263e+19
9.938078367e+19
9.92401947e+19
9.984420659e+19
1.001878685e+20
1.002399385e+20
7.775090966e+19
9.950575165e+19
1.003909415e+20
1.001774545e+20
1.000576935e+20
9.913084772e+19
9.837583286e+19
9.826648588e+19
9.771975098e+19
9.781347696e+19
9.800092893e+19
9.769892298e+19
9.821962289e+19
9.927664369e+19
9.950054465e+19
1.007606384e+20
1.007606384e+20
1.007710524e+20
9.968278962e+19
1.002972155e+20
7.779777265e+19
1.006825334e+20
1.015312743e+20
1.005159095e+20
1.008647784e+20
1.009116414e+20
1.009012274e+20
1.004898745e+20
1.006669124e+20
1.017083122e+20
1.018332802e+20
1.007554314e+20
1.011355424e+20
1.011771983e+20
1.012761313e+20
1.009376764e+20
1.010105744e+20
1.001722475e+20
9.992751857e+19
1.005471515e+20
7.736559173e+19
9.914646872e+19
9.968278962e+19
1.000420726e+20
1.004273905e+20
1.008387434e+20
1.016145863e+20
1.024737411e+20
1.018280732e+20
1.010522304e+20
1.007814664e+20
1.015625163e+20
1.012032333e+20
1.001930755e+20
9.905794973e+19
9.844352385e+19
9.891215376e+19
9.969841062e+19
9.982858559e+19
9.945368166e+19
7.726665875e+19
9.997438156e+19
1.015625163e+20
1.013958923e+20
1.014063063e+20
1.015364813e+20
1.011043004e+20
1.006617054e+20
1.009689184e+20
1.020675952e+20
1.019530412e+20
1.009012274e+20
1.006356704e+20
1.008075014e+20
1.006564984e+20
1.014115133e+20
1.008647784e+20
9.931829969e+19
9.895901675e+19
9.964113363e+19
7.784984264e+19
9.939119767e+19
9.988065558e+19
9.951616565e+19
9.990148358e+19
9.892777476e+19
9.951616565e+19
9.956823564e+19
9.920895271e+19
9.882363478e+19
9.853204283e+19
9.944847466e+19
9.970361761e+19
1.001514195e+20
1.003544925e+20
1.004742535e+20
1.010938864e+20
1.017812102e+20
1.018541082e+20
1.022654611e+20
7.759469969e+19
9.997438156e+19
1.004325975e+20
9.909960573e+19
9.955782164e+19
1.005783935e+20
1.001930755e+20
9.961509863e+19
9.987024158e+19
1.002295245e+20
1.006356704e+20
9.988586258e+19
1.006200494e+20
1.009845394e+20
1.014687903e+20
1.009637114e+20
1.010053674e+20
1.019374202e+20
1.020155252e+20
1.020259392e+20
7.828202356e+19
1.000889355e+20
1.008022944e+20
1.003805275e+20
1.008075014e+20
1.006512914e+20
1.010886794e+20
1.014896183e+20
1.008387434e+20
1.005992214e+20
1.013906853e+20
1.009220554e+20
1.005627725e+20
1.011980263e+20
1.019374202e+20
1.025310181e+20
1.020311462e+20
1.016041723e+20
1.013750643e+20
1.012136473e+20
7.774570266e+19
9.894339575e+19
1.004325975e+20
1.007918804e+20
1.008283294e+20
1.005107025e+20
9.948492365e+19
9.862576881e+19
9.909439873e+19
9.988065558e+19
1.000837285e+20
9.964634063e+19
9.996396757e+19
1.003909415e+20
9.929747169e+19
9.901629374e+19
9.964634063e+19
9.967758262e+19
9.887570477e+19
9.843310985e+19
7.772487467e+19
9.929747169e+19
9.935995568e+19
9.97973436e+19
9.878197878e+19
9.906315673e+19
1.002451455e+20
1.006252564e+20
1.010626444e+20
1.011615773e+20
1.004742535e+20
1.002972155e+20
9.954220064e+19
9.895901675e+19
9.901629374e+19
9.946930266e+19
1.000941425e+20
9.989106958e+19
9.965675462e+19
1.004325975e+20
7.80789506e+19
1.010105744e+20
1.017083122e+20
1.006721194e+20
1.002399385e+20
9.996396757e+19
9.944326766e+19
9.985982759e+19
9.874552979e+19
9.81675529e+19
9.927664369e+19
9.935474868e+19
1.007710524e+20
1.011771983e+20
1.005263235e+20
9.994834657e+19
1.000837285e+20
9.988065558e+19
9.988065558e+19
9.917771071e+19
7.783422165e+19
9.988586258e+19
1.004273905e+20
1.006877404e+20
1.014896183e+20
1.005783935e+20
1.005992214e+20
1.009012274e+20
1.013802713e+20
1.018853502e+20
1.015000323e+20
1.011251284e+20
1.000316586e+20
9.92506087e+19
9.86934598e+19
9.894860275e+19
9.902670774e+19
9.908919173e+19
9.929747169e+19
9.941723267e+19
7.760511369e+19
9.950054465e+19
9.933392068e+19
1.008647784e+20
1.009064344e+20
1.016197933e+20
1.017291402e+20
1.007866734e+20
1.001045565e+20
9.842269585e+19
9.901629374e+19
9.884966977e+19
9.901629374e+19
9.950575165e+19
9.919333171e+19
9.904753574e+19
9.92558157e+19
9.929226469e+19
9.887049777e+19
9.874552979e+19
7.75634577e+19
9.990148358e+19
1.004013555e+20
9.964634063e+19
9.892256776e+19
9.846435184e+19
9.824045088e+19
9.931309269e+19
9.944847466e+19
1.008387434e+20
1.000993495e+20
1.004221835e+20
1.003492855e+20
1.007762594e+20
1.009793324e+20
9.993272557e+19
1.003128365e+20
1.009480904e+20
1.014896183e+20
1.013334083e+20
7.573059404e+19
9.778223497e+19
9.806861992e+19
9.767809499e+19
9.808944791e+19
9.827689988e+19
9.874032279e+19
9.910481273e+19
9.887570477e+19
9.862056181e+19
9.957344264e+19
9.960989163e+19
1.001514195e+20
9.930788569e+19
1.000368656e+20
9.997958856e+19
9.997438156e+19
9.937557668e+19
9.876635779e+19
9.820400189e+19
9.999303812e+19
9.980736355e+19
9.998410923e+19
9.97847324e+19
1.001462746e+20
1.010420058e+20
9.889191348e+19
9.92562215e+19
9.772895271e+19
9.746073014e+19
9.809127401e+19
9.89904234e+19
9.964628896e+19
9.914814719e+19
9.968196838e+19
9.975030722e+19
9.881353217e+19
9.99244187e+19
1.006904361e+20
1.004108524e+20
1.009546639e+20
1.00586433e+20
1.002402e+20
1.013432686e+20
9.939454187e+19
9.930489393e+19
1.005692875e+20
9.945615452e+19
9.950902146e+19
1.001867925e+20
1.000575047e+20
9.987228595e+19
9.94828272e+19
9.867619677e+19
9.974277029e+19
9.973917118e+19
1.004491019e+20
9.997177058e+19
1.002348233e+20
9.945593105e+19
9.940746669e+19
9.787051207e+19
9.885622309e+19
9.902741481e+19
9.94221784e+19
1.010141674e+20
9.882398244e+19
9.871429712e+19
9.881500656e+19
9.912517593e+19
9.93752334e+19
1.009867871e+20
1.01411676e+20
1.010633913e+20
1.005110861e+20
9.852542067e+19
1.014471656e+20
1.022078642e+20
1.019513182e+20
1.014618001e+20
1.012716253e+20
1.000778742e+20
1.008177649e+20
1.004926591e+20
1.00621635e+20
1.008471382e+20
9.899642343e+19
9.83670457e+19
9.902691951e+19
9.839964857e+19
9.912273929e+19
9.89850132e+19
9.967353258e+19
9.996034212e+19
1.009366987e+20
1.016043401e+20
9.898074637e+19
9.934040382e+19
9.996993279e+19
1.010776981e+20
1.016799136e+20
1.025503348e+20
1.021418044e+20
1.022652196e+20
1.015226088e+20
1.005075098e+20
1.03725468e+20
1.033969389e+20
1.030744561e+20
1.021979963e+20
1.011480637e+20
1.01235657e+20
1.003437265e+20
1.01101806e+20
1.016276302e+20
1.017936407e+20
1.019801629e+20
1.021078977e+20
1.025552707e+20
1.031369155e+20
1.021043193e+20
1.018902911e+20
1.018475733e+20
1.008713168e+20
9.967644093e+19
9.903764595e+19
1.015516755e+20
1.001453973e+20
9.982159305e+19
9.970666477e+19
9.972442737e+19
9.985064515e+19
9.935205779e+19
9.893961135e+19
9.930057528e+19
1.005130775e+20
9.782591874e+19
9.810397528e+19
9.837528653e+19
9.841031742e+19
9.787638541e+19
9.814102205e+19
9.821872223e+19
9.955424465e+19
1.004889763e+20
9.964452157e+19
1.006006403e+20
1.008451629e+20
9.994344367e+19
1.007576125e+20
1.010997144e+20
1.017225749e+20
1.013571894e+20
1.004652207e+20
1.008427321e+20
1.010642757e+20
9.90643538e+19
9.959295012e+19
9.996463361e+19
1.002294706e+20
1.011802976e+20
1.003213325e+20
1.002892378e+20
1.002347316e+20
9.90407846e+19
9.907662032e+19
1.002662106e+20
9.993494149e+19
9.98586785e+19
1.001281101e+20
9.987484871e+19
1.001752571e+20
1.003491745e+20
1.013487571e+20
1.0164974e+20
1.019384e+20
9.892849239e+19
9.921413034e+19
1.004361406e+20
1.005922349e+20
1.006484484e+20
9.999672054e+19
9.994596815e+19
9.91646106e+19
9.900209317e+19
9.946635625e+19
1.01238147e+20
1.003400689e+20
9.976331699e+19
9.987204165e+19
9.923555581e+19
9.930962587e+19
9.991872592e+19
1.004268054e+20
1.003065698e+20
1.008025961e+20
9.836414157e+19
9.846701155e+19
9.770776142e+19
9.75407522e+19
9.818797388e+19
9.840612184e+19
9.832224801e+19
9.812741572e+19
9.841065641e+19
9.805773671e+19
)
;

boundaryField
{
    flow
    {
        type            calculated;
        value           nonuniform List<scalar> 
48
(
7.751659471e+19
7.791753363e+19
7.721458876e+19
7.714169078e+19
7.775090966e+19
7.779777265e+19
7.736559173e+19
7.726665875e+19
7.784984264e+19
7.759469969e+19
7.828202356e+19
7.774570266e+19
7.772487467e+19
7.80789506e+19
7.783422165e+19
7.760511369e+19
7.75634577e+19
7.573059404e+19
7.573059404e+19
9.778223497e+19
9.806861992e+19
9.767809499e+19
9.808944791e+19
9.827689988e+19
9.874032279e+19
9.910481273e+19
9.887570477e+19
9.862056181e+19
9.957344264e+19
9.960989163e+19
1.001514195e+20
9.930788569e+19
1.000368656e+20
9.997958856e+19
9.997438156e+19
9.937557668e+19
9.876635779e+19
9.820400189e+19
9.836414157e+19
9.846701155e+19
9.770776142e+19
9.75407522e+19
9.818797388e+19
9.840612184e+19
9.832224801e+19
9.812741572e+19
9.841065641e+19
9.805773671e+19
)
;
    }
    obstacle
    {
        type            calculated;
        value           nonuniform 0();
    }
    frontAndBack
    {
        type            empty;
    }
    procBoundary2to0
    {
        type            processor;
        value           nonuniform List<scalar> 
31
(
7.726145175e+19
9.910481273e+19
9.933912768e+19
9.877677179e+19
9.87142878e+19
9.97817226e+19
9.97765156e+19
1.001253845e+20
9.975048061e+19
9.97713086e+19
9.994313957e+19
1.002034895e+20
1.006877404e+20
1.005107025e+20
1.016145863e+20
1.016041723e+20
1.025830881e+20
1.019322132e+20
1.004638395e+20
1.001982825e+20
1.00390582e+20
1.000832837e+20
9.977160964e+19
9.96255868e+19
9.94221791e+19
9.96389539e+19
1.001042212e+20
9.981392872e+19
9.983748652e+19
9.969066049e+19
9.969066049e+19
)
;
    }
    procBoundary2to3
    {
        type            processor;
        value           nonuniform List<scalar> 
19
(
1.010422948e+20
1.007394371e+20
9.853530697e+19
9.971308612e+19
1.022256832e+20
9.992060044e+19
9.976356312e+19
1.027584883e+20
9.993742586e+19
1.013451525e+20
9.888864022e+19
1.008572159e+20
9.963456747e+19
1.016592271e+20
9.926440951e+19
1.008179558e+20
9.904567754e+19
1.008908667e+20
9.8024935e+19
)
;
    }
}


// ************************************************************************* //
