/*--------------------------------*- C++ -*----------------------------------*\
  =========                 |
  \\      /  F ield         | OpenFOAM: The Open Source CFD Toolbox
   \\    /   O peration     | Website:  https://openfoam.org
    \\  /    A nd           | Version:  7
     \\/     M anipulation  |
\*---------------------------------------------------------------------------*/
FoamFile
{
    version     2.0;
    format      ascii;
    class       volScalarField;
    location    "0.015";
    object      linearKE;
}
// * * * * * * * * * * * * * * * * * * * * * * * * * * * * * * * * * * * * * //

dimensions      [1 -1 -2 0 0 0 0];

internalField   nonuniform List<scalar> 
250
(
0.227569
0.212316
0.214326
0.213851
0.234861
0.211191
0.206834
0.203754
0.219024
0.201755
0.203813
0.228085
0.208629
0.206562
0.225645
0.204013
0.2056
0.207297
0.20598
0.214327
0.223118
0.207477
0.226316
0.211866
0.215095
0.227275
0.221107
0.21783
0.212974
0.191453
0.195405
0.21786
0.227383
0.205519
0.225803
0.200219
0.218663
0.234178
0.207631
0.210728
0.196462
0.205132
0.207036
0.22929
0.200738
0.227596
0.218639
0.199585
0.20611
0.215877
0.188668
0.207071
0.209155
0.192682
0.207926
0.19501
0.212375
0.193258
0.199021
0.222997
0.209248
0.230307
0.228539
0.20952
0.235118
0.212689
0.213432
0.222048
0.210003
0.222947
0.203359
0.216986
0.193912
0.212072
0.237136
0.233819
0.223634
0.219837
0.213892
0.215135
0.216919
0.225805
0.233556
0.222937
0.217553
0.21741
0.218309
0.225735
0.215203
0.220638
0.226571
0.209756
0.227885
0.206477
0.223602
0.219653
0.21646
0.232673
0.212998
0.214124
0.215494
0.220608
0.209339
0.208567
0.209188
0.203979
0.225705
0.210285
0.224552
0.224978
0.232284
0.215849
0.215132
0.227081
0.189811
0.21427
0.222954
0.21438
0.217791
0.231886
0.221592
0.2144
0.213935
0.226732
0.209835
0.203932
0.239963
0.244584
0.215631
0.216401
0.218315
0.218297
0.227326
0.241798
0.218417
0.217864
0.219369
0.23931
0.228672
0.233176
0.22416
0.220279
0.225814
0.239065
0.238124
0.227324
0.247812
0.240753
0.230124
0.229004
0.231097
0.236816
0.222846
0.226066
0.219521
0.229723
0.232757
0.245455
0.223307
0.233654
0.235837
0.246706
0.241803
0.245408
0.252363
0.253696
0.248249
0.235401
0.263198
0.22666
0.239038
0.257307
0.233255
0.247056
0.267895
0.230389
0.244168
0.247274
0.242152
0.254976
0.255027
0.259222
0.252553
0.262599
0.268478
0.257184
0.272684
0.249066
0.257653
0.276826
0.251473
0.260309
0.277489
0.247338
0.254915
0.276512
0.282026
0.282097
0.267643
0.281361
0.29358
0.283984
0.266671
0.28997
0.290556
0.296187
0.271035
0.272975
0.282761
0.306512
0.298784
0.295496
0.266006
0.313249
0.30399
0.304371
0.297989
0.292172
0.290131
0.319728
0.306822
0.306676
0.31783
0.322532
0.335266
0.288401
0.317428
0.32725
0.282198
0.301333
0.296741
0.321985
0.341924
0.320451
0.323149
0.31927
0.327947
0.312217
0.335058
0.302233
0.330208
0.350129
0.324158
0.322555
0.356244
0.356896
0.34689
0.323275
0.347471
0.342057
)
;

boundaryField
{
    sides
    {
        type            symmetry;
    }
    empty
    {
        type            empty;
    }
    procBoundary0to1
    {
        type            processor;
        value           uniform 0.342235;
    }
}


// ************************************************************************* //
