/*--------------------------------*- C++ -*----------------------------------*\
  =========                 |
  \\      /  F ield         | OpenFOAM: The Open Source CFD Toolbox
   \\    /   O peration     | Website:  https://openfoam.org
    \\  /    A nd           | Version:  7
     \\/     M anipulation  |
\*---------------------------------------------------------------------------*/
FoamFile
{
    version     2.0;
    format      ascii;
    class       volScalarField;
    location    "0.002";
    object      internalEMean;
}
// * * * * * * * * * * * * * * * * * * * * * * * * * * * * * * * * * * * * * //

dimensions      [1 -1 -2 0 0 0 0];

internalField   nonuniform List<scalar> 
546
(
0.2836179709
0.2866381887
0.3129767745
0.2922086799
0.3096966289
0.2830336318
0.257115714
0.3096119269
0.298174491
0.2799509149
0.2771175754
0.3035148855
0.3087918994
0.2911438128
0.2986735254
0.2860145376
0.2781269115
0.2783246451
0.2808231152
0.2650407439
0.3260408896
0.2979758426
0.3280435265
0.3137879662
0.2981847035
0.3144003842
0.3317939809
0.2948635953
0.2878652721
0.2762934292
0.2921542595
0.2665767521
0.3258874108
0.3474792333
0.2981209444
0.2967718998
0.2812684607
0.3031336615
0.2926086534
0.2830664733
0.3260260414
0.3468344621
0.3180280323
0.2894885203
0.3026759744
0.3201967951
0.3250653179
0.3035721949
0.3069731536
0.2885991019
0.2855293062
0.2870836607
0.2904470507
0.3202244833
0.3124793924
0.2841398419
0.277765816
0.2785124809
0.2829739263
0.3173100008
0.3493353879
0.3246946932
0.2818464725
0.2474497338
0.2403910264
0.3057133939
0.2901966444
0.2659218888
0.2682589009
0.2964268202
0.2794604816
0.3073380769
0.2965386978
0.2751999227
0.2692432755
0.2728825534
0.2870890294
0.275690831
0.2920988697
0.3069502327
0.3514212191
0.3110518425
0.2670480711
0.276189466
0.2727625514
0.2588874006
0.2810378042
0.3147348477
0.2976481995
0.2628804298
0.3001467
0.2855521864
0.2846835817
0.3041634198
0.2912614692
0.2857084299
0.2870921437
0.3056773423
0.2771576285
0.3239142542
0.2994022436
0.3309331811
0.3031417599
0.2893695266
0.3108845383
0.3195737498
0.2986885964
0.3015167912
0.295125088
0.2784192249
0.2915455667
0.2976428963
0.3089785084
0.3178447957
0.2851231694
0.3041146713
0.2994970026
0.2842828461
0.2827177076
0.3395777451
0.3080921978
0.3066855765
0.3263384696
0.3090314374
0.2846403059
0.301963782
0.3000561444
0.2896459424
0.3015152453
0.2941538011
0.2980418901
0.2997164962
0.2703337384
0.3265624832
0.3184817867
0.3071564876
0.3197938691
0.2954297837
0.3175536543
0.3019278646
0.3130798021
0.3304642275
0.2893105723
0.2984287322
0.3018441394
0.2752076463
0.3221876242
0.3225971596
0.3214754177
0.3096496391
0.3112944478
0.3117280264
0.2708267688
0.2829902059
0.3361411752
0.3170710484
0.3055921388
0.2894100881
0.2621604814
0.280392444
0.3206825943
0.2951547426
0.3131771998
0.2780360255
0.3128593538
0.3076646673
0.3252650396
0.2943355201
0.2919717893
0.2796584713
0.3055988874
0.3004707997
0.2907014436
0.2813768679
0.3184774531
0.2782341683
0.2983892322
0.28315571
0.2649724256
0.2931367917
0.2808466681
0.3365984596
0.3341128118
0.2962701823
0.3195549155
0.28552019
0.3193778778
0.299005612
0.2743868936
0.2866484091
0.3115198534
0.2810318625
0.2929259243
0.2934017597
0.3289404235
0.310695867
0.311793576
0.3207154093
0.2970894474
0.293938635
0.2876565788
0.3049836748
0.2983986901
0.3015716145
0.3063039089
0.271688618
0.2996908015
0.303027263
0.2856448518
0.3199507482
0.2885536856
0.3111912911
0.3179890423
0.299270945
0.3296012358
0.3065278395
0.3090165823
0.306611013
0.302286642
0.2805027644
0.2768208498
0.3031573395
0.3354906441
0.3256249625
0.2709214382
0.3121937921
0.3053656111
0.2777910443
0.2979534872
0.2980185555
0.3246138157
0.2969289125
0.3020780714
0.3177217675
0.3051978132
0.3090407113
0.2891658088
0.305336998
0.3026252185
0.3021923206
0.3148300211
0.3407412638
0.317669857
0.303489643
0.2802135737
0.2962023249
0.3136688132
0.3100552156
0.3048565081
0.3024673231
0.3001239109
0.306384315
0.299883174
0.289504811
0.3043909715
0.28003632
0.3032555071
0.3110903421
0.2976045761
0.2968885426
0.3391321033
0.3589146152
0.3634045175
0.3134811275
0.3125696162
0.3378382936
0.3035076556
0.3121535674
0.3268495741
0.3173034476
0.2864925429
0.3011952413
0.3251510133
0.3317244257
0.3083177024
0.3135444568
0.3552812777
0.3177092042
0.2838140407
0.2903157462
0.329711857
0.3451243992
0.3317540842
0.312458312
0.3297714238
0.2954999951
0.3101451135
0.3341592472
0.2928111436
0.3169839185
0.3191438215
0.3330746757
0.3490189652
0.3302429286
0.3168657249
0.3029890293
0.3017276842
0.3138985109
0.3135621666
0.31973771
0.3325167535
0.3549973694
0.3199007814
0.3013820206
0.3360275266
0.3189340018
0.3183487739
0.3126760857
0.3102961647
0.3073009453
0.2858522418
0.3119503684
0.3234841884
0.3237883327
0.3412708105
0.2937387039
0.3116814761
0.3260898646
0.2929924293
0.2907827027
0.3724559623
0.3416911725
0.3275756005
0.3056909513
0.3190755297
0.3536649026
0.3497051891
0.3329354933
0.3316273578
0.3374387717
0.3415779671
0.3263595974
0.331590263
0.3026550711
0.3185940979
0.3179302901
0.2977999835
0.3291832466
0.3404649766
0.3276766733
0.3599349079
0.4030844402
0.3568329177
0.3347194747
0.3217310917
0.3409943163
0.340112895
0.3501607257
0.3369214445
0.3390771977
0.3535744828
0.3343465306
0.3227567415
0.3104543435
0.3111693486
0.3201143713
0.2903371852
0.3199065356
0.3293324652
0.2962778068
0.3115398138
0.2687699626
0.2790475579
0.2834701813
0.2693232272
0.3260811647
0.2812111372
0.2912155319
0.2921420551
0.3334746657
0.3099524441
0.3039531896
0.2680485219
0.2879550744
0.3244578526
0.2934097535
0.2734086527
0.2863662341
0.2946196804
0.2932055215
0.3376185419
0.292946142
0.2825106114
0.2928273539
0.3236903077
0.2792085498
0.3209220162
0.2783768882
0.3086164635
0.3238386353
0.3098145946
0.3249263183
0.3238625151
0.3094634932
0.3073951031
0.3025185828
0.3255642692
0.3174349191
0.2800085221
0.2930293679
0.2711802512
0.3197250411
0.3051761341
0.2824145863
0.2757780303
0.2983939029
0.2578640127
0.3024988583
0.2691175752
0.2801546231
0.2776963787
0.3071839794
0.286927834
0.2402140347
0.2849699554
0.2828701661
0.284093002
0.2819673761
0.2738006324
0.3055674393
0.3257608849
0.3088594224
0.2952817701
0.2996078755
0.2926342227
0.2787816981
0.3046772961
0.2769270179
0.2944520922
0.2981072789
0.3000102885
0.3143550865
0.2951118895
0.2926697212
0.3135795163
0.3299746411
0.2869059801
0.280654102
0.2902676217
0.2856705609
0.3105181882
0.3024478009
0.3053299886
0.2893317508
0.3171698713
0.3501405032
0.2607362475
0.2864513668
0.2881875902
0.3142423256
0.2963660491
0.2948870935
0.28642385
0.3074886923
0.3254510192
0.3555881691
0.2494323758
0.2933022534
0.3094104448
0.3120070795
0.31977293
0.2753550306
0.2843296092
0.3070193659
0.3554402947
0.3427895132
0.2822918625
0.2915950729
0.2951573741
0.3017708846
0.3042143463
0.2561463504
0.3062349235
0.2978186889
0.3349508417
0.3403894664
0.2873702517
0.3224458787
0.2898705786
0.2821509907
0.3073252194
0.2822391071
0.2996450099
0.326757598
0.3258865546
0.3311285773
0.2724348799
0.289356229
0.3041143007
0.2902559107
0.3053693052
0.3194209744
0.3338128593
0.309825405
0.3486062377
0.3414926879
0.2611008529
0.2917726815
0.3029427534
0.2906885694
0.2812033628
0.3173845671
0.30657725
0.3112988335
0.3209200133
0.3814107948
0.2984342857
0.3147760366
0.3027327438
0.3129167402
0.2914037494
0.2925043043
0.3013324408
0.328511707
0.3261868206
0.3820290553
0.2979327332
0.2914289827
0.2894339392
0.3018287716
0.3287351186
0.2925959614
0.2986698368
0.3203183338
0.3405505554
0.3416274914
0.276199058
0.3076387619
0.301771171
0.330445977
0.2857919904
0.3205182201
0.3096001992
0.3153828189
0.3561994569
0.3429705841
0.3125583062
0.3058961062
0.3095927164
0.294691515
0.2845088859
0.3295001687
0.3441050619
0.3389275283
0.2948531296
0.3201039478
)
;

boundaryField
{
    flow
    {
        type            calculated;
        value           nonuniform List<scalar> 
48
(
0.2836179709
0.3260408896
0.3260260414
0.3493353879
0.3514212191
0.2994022436
0.3080921978
0.3130798021
0.3206825943
0.2808466681
0.2876565788
0.2768208498
0.3148300211
0.3391321033
0.329711857
0.3325167535
0.3724559623
0.3599349079
0.3599349079
0.4030844402
0.3568329177
0.3347194747
0.3217310917
0.3409943163
0.340112895
0.3501607257
0.3369214445
0.3390771977
0.3535744828
0.3343465306
0.3227567415
0.3104543435
0.3111693486
0.3201143713
0.2903371852
0.3199065356
0.3293324652
0.2962778068
0.3125583062
0.3058961062
0.3095927164
0.294691515
0.2845088859
0.3295001687
0.3441050619
0.3389275283
0.2948531296
0.3201039478
)
;
    }
    obstacle
    {
        type            calculated;
        value           nonuniform 0();
    }
    frontAndBack
    {
        type            empty;
    }
    procBoundary2to0
    {
        type            processor;
        value           nonuniform List<scalar> 
31
(
0.2812192226
0.3099295976
0.3225580353
0.2885276083
0.3066844925
0.2817182333
0.2908349266
0.2799596873
0.2879236445
0.2651249678
0.2634206053
0.2736879614
0.2819023775
0.2735889871
0.2858367275
0.2957710846
0.2882744998
0.2646461602
0.2637365587
0.2746253325
0.3075637753
0.2608151293
0.2707645714
0.2974891922
0.3065861319
0.2756928674
0.2884732248
0.2918757556
0.3197850074
0.3051263326
0.3051263326
)
;
    }
    procBoundary2to3
    {
        type            processor;
        value           nonuniform List<scalar> 
19
(
0.3198870979
0.2714228662
0.2785055355
0.3113319597
0.3068390022
0.2985431295
0.2922906456
0.3163484836
0.3285601117
0.311985344
0.3345463215
0.3321553119
0.3113869142
0.3511213204
0.3696474233
0.3722557695
0.3703731743
0.3286066008
0.3579716274
)
;
    }
}


// ************************************************************************* //
