/*--------------------------------*- C++ -*----------------------------------*\
  =========                 |
  \\      /  F ield         | OpenFOAM: The Open Source CFD Toolbox
   \\    /   O peration     | Website:  https://openfoam.org
    \\  /    A nd           | Version:  7
     \\/     M anipulation  |
\*---------------------------------------------------------------------------*/
FoamFile
{
    version     2.0;
    format      ascii;
    class       volScalarField;
    location    "0.002";
    object      internalEMean;
}
// * * * * * * * * * * * * * * * * * * * * * * * * * * * * * * * * * * * * * //

dimensions      [1 -1 -2 0 0 0 0];

internalField   nonuniform List<scalar> 
546
(
0.327479568
0.4142526212
0.4143730353
0.4158998175
0.41549399
0.4155255652
0.4146213301
0.4142384961
0.4198067739
0.4179680308
0.4237053022
0.4282468597
0.4168103367
0.4134377061
0.4171642747
0.4068946532
0.3938544686
0.3982891386
0.4124004061
0.4130944741
0.3143347181
0.4105902046
0.4106085958
0.4173527908
0.4170588473
0.4192939412
0.4194260617
0.4193064311
0.4147104478
0.4150793453
0.4162137148
0.4111658233
0.4125877663
0.4188799981
0.4188217076
0.419620329
0.4253423713
0.423016301
0.4165411238
0.416444759
0.315474614
0.4057982453
0.405113201
0.4111600281
0.4148433797
0.4157047729
0.4079334246
0.4091667157
0.41006033
0.4127584308
0.4064682804
0.4048079439
0.412378164
0.4093447815
0.406774995
0.4115184658
0.4082759231
0.4097150583
0.4135051281
0.4192673265
0.3130494381
0.4021256973
0.4084610365
0.4108262224
0.4052895491
0.4171885932
0.4236451406
0.4142023565
0.4146853296
0.4117045594
0.4175455499
0.4163786686
0.4134546009
0.4104281179
0.4090383126
0.4044154262
0.4056744496
0.4078320906
0.4176621056
0.4105521402
0.3309261284
0.4313517548
0.4275376196
0.4220920302
0.4099103377
0.4016661389
0.3954916899
0.3928991569
0.3979480288
0.3971284932
0.4005958648
0.4014217205
0.4054463638
0.409342122
0.4149947912
0.4231240704
0.4297201666
0.4256650335
0.4156407045
0.4194497551
0.321142131
0.4175278928
0.4250404582
0.4155729953
0.423510524
0.4201517036
0.4223820608
0.4223765827
0.4233452498
0.4238850101
0.4169121717
0.4182968059
0.4211354615
0.4247750056
0.4247750135
0.4202742732
0.424116686
0.4185734396
0.4165214065
0.4234442656
0.3231475836
0.4156994362
0.420578101
0.4231923404
0.4301576924
0.4283920286
0.4266998273
0.4305450778
0.4277367439
0.4219490869
0.4257489774
0.4275645767
0.419116723
0.4178597126
0.4162834193
0.4093237777
0.4177316249
0.4272039095
0.4275880171
0.4209469242
0.3264244915
0.414586003
0.4181633694
0.4196220253
0.4177027887
0.4156259641
0.4178690423
0.4209787408
0.4251231767
0.4301131093
0.4308574631
0.4274450881
0.4307201878
0.4243189146
0.4259915483
0.4279661057
0.4204981653
0.4218211701
0.4155489731
0.4209629022
0.3214069608
0.4058642711
0.4087677033
0.4046792541
0.4126722996
0.4074309424
0.4134492584
0.4132136249
0.4130824555
0.4075050927
0.4074169217
0.4135445976
0.4140865499
0.4154814835
0.4112548208
0.4133825805
0.4211533985
0.4252418795
0.4297047094
0.4289440883
0.3202328091
0.4153840956
0.4200563758
0.4099019076
0.4062693973
0.417405829
0.4200425567
0.411198296
0.4166330681
0.4189311495
0.4246285688
0.4109825268
0.4154534973
0.4191156192
0.425881725
0.4208133203
0.4216924371
0.4164204235
0.4169131162
0.4149775326
0.3266579698
0.4252214615
0.4327963932
0.4340638147
0.4372306649
0.4325590813
0.430308998
0.4339224247
0.4235888285
0.4217461068
0.4159782711
0.4181811356
0.4128584573
0.4077709985
0.4126176489
0.4149801177
0.4133453425
0.4153580356
0.4170136999
0.4182838932
0.328347894
0.41320518
0.4185038216
0.4154442615
0.4128454835
0.416679784
0.4050352875
0.4063344901
0.4076285776
0.4158550148
0.4178314945
0.4093041757
0.4075619267
0.4135002165
0.4102008404
0.4097552178
0.4111583658
0.4067545637
0.4034032429
0.4005326447
0.3208154921
0.404261692
0.3974698437
0.404880762
0.4010817928
0.4011290546
0.4121838223
0.423427199
0.4224246126
0.4254227781
0.4269967938
0.4290754391
0.4226384135
0.4112762251
0.4113739766
0.40971911
0.4129336566
0.4107246109
0.4075414958
0.4113199181
0.3168977684
0.4196091625
0.4287673863
0.4132099664
0.4243455381
0.4228980716
0.4146959038
0.4062137543
0.4036466478
0.3921363473
0.397668603
0.4021103479
0.4201186224
0.424593505
0.4241272626
0.4256830922
0.4199047063
0.4206361982
0.4159601769
0.4180844156
0.3143007441
0.396660258
0.3972298863
0.3965840771
0.3934886037
0.3916694922
0.3983640993
0.410715384
0.4123957976
0.4256512225
0.4275200719
0.4216865788
0.4146942505
0.4105629674
0.4118965104
0.4123556271
0.4122703333
0.4194181602
0.4219909523
0.4172256246
0.3148072576
0.4039471734
0.4055153723
0.4144907094
0.4100995573
0.4128710624
0.4098349135
0.402384983
0.4054275003
0.4013921432
0.3974478233
0.3960829218
0.3973258619
0.3979574873
0.3988354404
0.4000654553
0.404903155
0.4084721017
0.4081981476
0.4020747259
0.3270929222
0.4215631497
0.4229633216
0.4126534224
0.4159946223
0.4147609296
0.4130790685
0.4171618533
0.416494946
0.4240766334
0.4196108118
0.414673532
0.4231183057
0.4240352786
0.4218068463
0.4116947701
0.4155692967
0.4149039554
0.4223949223
0.4246885472
0.3034628033
0.4040087737
0.4141141297
0.4117311344
0.4178896465
0.4120004186
0.4131398558
0.4140545205
0.415041841
0.4096968308
0.4192987088
0.4183769912
0.4255894157
0.4160257084
0.414054543
0.4143999499
0.4130715094
0.4103823989
0.4093758191
0.40689973
0.4074709497
0.4153964314
0.4166637944
0.4199976533
0.4273586424
0.4234746092
0.4186059326
0.4129781993
0.4053963941
0.4095922645
0.4110099989
0.4143075716
0.4136860841
0.4004231058
0.4026631286
0.406599387
0.4138828922
0.4255741606
0.4246655801
0.43151554
0.429752357
0.4188477864
0.4201714357
0.4284855411
0.4201360368
0.4088102443
0.4158926781
0.4070337772
0.4007527342
0.403027487
0.407070402
0.4168994469
0.4071821899
0.4046568067
0.4022378689
0.4031295717
0.4181894293
0.414502376
0.4208628324
0.412044623
0.4026543406
0.3958801522
0.406166747
0.404554202
0.4163634518
0.4198708042
0.4119395331
0.4024316928
0.4043091668
0.4128164908
0.4273060497
0.4342559797
0.4312300865
0.4276992159
0.425505661
0.4191098171
0.4283907387
0.4345926188
0.4374940181
0.4337117105
0.4218783313
0.4118690502
0.4094292928
0.4121628291
0.4164344582
0.4178763399
0.4185723776
0.413547537
0.4134576576
0.4044733989
0.4125111547
0.4110388924
0.4261434857
0.4299201495
0.4310141549
0.4313744713
0.4156100768
0.42095243
0.4288689944
0.4353687183
0.4379048623
0.4417074261
0.4316825759
0.4289190214
0.4310167536
0.4241855914
0.4326118619
0.4340012575
0.4347638371
0.4355021758
0.4262337895
0.4272889559
0.4205694852
0.4241808551
0.4196254832
0.4239412103
0.416543595
0.4123738219
0.4183356427
0.422718391
0.4162449424
0.4138470878
0.4167729884
0.4182961271
0.4157409992
0.4151575582
0.4210158633
0.4153034365
0.4146962614
0.4113273961
0.4099832707
0.4106570993
0.4130726889
0.409706869
0.4063538072
0.4076058373
0.3960278506
0.4016272558
0.3985113046
0.4031291012
0.4029150277
0.3999727045
0.3948569862
0.3912055397
0.3979901577
0.3959030842
0.4036882209
0.4045473953
0.4039654365
0.4049430686
0.4091976854
0.4140266892
0.4134109865
0.4165777235
0.4229360369
0.4263609115
0.4240986549
0.4264347948
0.43024124
0.426580025
0.4293379665
0.4244071093
0.4284637255
0.4255774433
0.4126790203
0.4163956766
0.4223617908
0.4173933428
0.4129012127
0.4110985583
0.4127445783
0.4189573122
0.4262144736
0.4303755249
0.4377417078
0.4374555351
0.3947525944
0.4026257853
0.4113197705
0.4143248972
0.4115994446
0.4030477459
0.3987239647
0.4031252958
0.3978468938
0.4003751599
0.4261958561
0.4263914042
0.4264451149
0.4217856787
0.4231057544
0.4249705387
0.4250604121
0.425240649
0.4165682856
0.4209995862
0.4064283411
0.4058337756
0.39776851
0.4041266695
0.4117197551
0.409193332
0.4082961193
0.4116439463
0.4138838512
0.4103712369
)
;

boundaryField
{
    flow
    {
        type            calculated;
        value           nonuniform List<scalar> 
48
(
0.327479568
0.3143347181
0.315474614
0.3130494381
0.3309261284
0.321142131
0.3231475836
0.3264244915
0.3214069608
0.3202328091
0.3266579698
0.328347894
0.3208154921
0.3168977684
0.3143007441
0.3148072576
0.3270929222
0.3034628033
0.3034628033
0.4040087737
0.4141141297
0.4117311344
0.4178896465
0.4120004186
0.4131398558
0.4140545205
0.415041841
0.4096968308
0.4192987088
0.4183769912
0.4255894157
0.4160257084
0.414054543
0.4143999499
0.4130715094
0.4103823989
0.4093758191
0.40689973
0.4064283411
0.4058337756
0.39776851
0.4041266695
0.4117197551
0.409193332
0.4082961193
0.4116439463
0.4138838512
0.4103712369
)
;
    }
    obstacle
    {
        type            calculated;
        value           nonuniform 0();
    }
    frontAndBack
    {
        type            empty;
    }
    procBoundary2to0
    {
        type            processor;
        value           nonuniform List<scalar> 
31
(
0.3238457328
0.4155192822
0.4151510275
0.4111436988
0.4080977767
0.4150789268
0.4204076038
0.4150513072
0.4156258467
0.4183589281
0.4228165177
0.4164036484
0.4180636659
0.4126195005
0.4099903374
0.4158837883
0.4231627174
0.4155726062
0.4125465948
0.403158616
0.4101156895
0.4036158997
0.4104856297
0.4100010434
0.4061072973
0.4054072324
0.4055919703
0.4082357578
0.40330951
0.4060480907
0.4060480907
)
;
    }
    procBoundary2to3
    {
        type            processor;
        value           nonuniform List<scalar> 
19
(
0.4198556147
0.4182096718
0.4008921617
0.4125271369
0.4216187918
0.4325708039
0.4160028141
0.4377112501
0.4207775549
0.4192817122
0.417969213
0.400940455
0.405839266
0.4256397947
0.4189070221
0.431172379
0.4049658808
0.4190837218
0.4143717355
)
;
    }
}


// ************************************************************************* //
