/*--------------------------------*- C++ -*----------------------------------*\
  =========                 |
  \\      /  F ield         | OpenFOAM: The Open Source CFD Toolbox
   \\    /   O peration     | Website:  https://openfoam.org
    \\  /    A nd           | Version:  7
     \\/     M anipulation  |
\*---------------------------------------------------------------------------*/
FoamFile
{
    version     2.0;
    format      ascii;
    class       volVectorField;
    location    "0.002";
    object      momentum;
}
// * * * * * * * * * * * * * * * * * * * * * * * * * * * * * * * * * * * * * //

dimensions      [1 -2 -1 0 0 0 0];

internalField   nonuniform List<vector> 
546
(
(-0.0005186033144 -0.0001845449936 -0.000349115841)
(-0.0002168204777 0.0001681083806 -0.0002124227956)
(-9.570091739e-05 9.663698526e-06 0.0001807814852)
(0.0008500525069 4.127569845e-05 -0.0001981738782)
(0.000547319346 -0.0006656452988 -0.0007596364215)
(0.0005383932569 7.525401058e-05 7.889687946e-05)
(0.000119553117 4.242884114e-05 0.0001133578628)
(-0.000287437816 -0.000138842748 -5.974484281e-05)
(-0.0004644229293 -0.0002528766283 0.0003237621639)
(0.0006516435868 0.0007016211975 0.0008112458472)
(-0.0003812724233 -0.0001009676487 -2.089651403e-06)
(-0.0002247759787 0.0003279423319 -0.0006216572208)
(-0.0006210737025 0.0005312203209 0.0001686272395)
(-0.0006504121551 0.001129944894 0.000251113943)
(0.0007242664567 -0.0005820715485 -0.0003631307421)
(-0.0002523946918 0.0001134434202 -0.0005954531695)
(0.0001934158482 2.413433682e-05 0.0002753183175)
(0.000561827933 0.0008885897028 -8.876458894e-05)
(0.0003490526417 0.0002360511417 7.480352905e-05)
(0.0004629731415 0.0003058747688 -0.0002637044892)
(0.0006226995474 0.0009436415472 -0.0005322569522)
(-0.0006405639715 0.0008934232738 0.0004327042296)
(-0.0003439440402 -0.0001271746155 0.0003150664578)
(-0.0002465763186 0.0006757149602 -0.0001889377844)
(-0.0006577405216 0.0001940564551 -0.00082293006)
(0.0008364799785 -6.55942425e-05 -0.00030079509)
(0.0001495396666 -0.001286421128 -0.0007585781334)
(0.000169890117 -8.569054698e-05 -0.000273872156)
(-0.0003895548447 0.0009869881965 0.0002662802273)
(0.0001541507672 -0.0006205054718 -0.000802711036)
(0.0008131806838 0.0001482707956 -0.0002319274582)
(0.0001336866343 0.0006802633679 -0.0008367270892)
(0.0002637074507 -4.155760945e-05 -6.43399752e-05)
(8.084510035e-05 1.114229302e-05 0.0006630074308)
(0.0004419136649 -2.821235356e-06 -0.0006301850863)
(-0.001693243623 -0.0008900697907 0.0003776871629)
(-0.0002442623229 -0.0002612608912 -0.0006963349561)
(-0.0007209360291 0.0001290208608 0.0003766571121)
(0.0002605032518 -2.681436454e-05 0.0008010385765)
(4.846287129e-05 -2.276125889e-05 0.0005773369067)
(0.0005178690287 -0.0002791309942 -0.0004033013924)
(0.0003737766402 0.000474108353 -0.000153024643)
(-0.0003611106495 -0.0008911835243 -0.001007056972)
(-0.0006241973705 0.0004031985798 8.007309062e-05)
(3.834421605e-05 -0.0004241892293 0.0003201746004)
(0.0004005747214 3.513059408e-05 -0.0004905423107)
(-0.000203310391 -0.0001900628583 -0.0006770611812)
(0.0001286606805 -0.0005833389472 0.0002227947738)
(-7.17209153e-05 6.104269163e-05 0.0003632823056)
(0.0004602185934 -0.000794386774 -0.0004946118038)
(0.0002687789104 -0.0003159484801 -0.0003497791762)
(-0.000175540532 2.802486491e-05 -0.0004435802957)
(-0.0003785772486 0.0006080480464 -0.0004895202076)
(8.241762934e-05 -0.0001485081359 0.0002530513585)
(0.0003640600089 0.0007446214049 -0.0002276977094)
(0.0007886393856 -0.0001366395422 -0.0005435423834)
(-0.0001733712619 -0.0002234840086 -0.0002334442174)
(0.0002284797163 -4.850574298e-05 0.0002973525458)
(0.0002592449798 0.0004460652952 0.0002371623297)
(7.691589824e-05 0.0003314428766 -9.13247971e-05)
(0.0001193304805 -1.388575337e-05 0.0001110347319)
(-0.0005580568996 0.0001406391897 0.0002455128773)
(-8.719837466e-05 -0.0007533419949 8.500261812e-06)
(-0.0002121758993 -0.0001248081975 -0.001121076341)
(-0.0005741807657 0.0004078648444 0.0004446834696)
(-0.0004906996743 -0.0005966684947 0.0007297126681)
(0.001457313225 0.0002832988905 -0.0001593634784)
(-2.87273917e-05 0.0002445028697 0.000373653381)
(0.0001233027311 -0.000125062747 -0.000448873052)
(-0.000377747576 0.0004530216271 9.295171366e-05)
(4.979907322e-05 -0.0001071171343 -0.000469044564)
(0.000193057309 -0.0001818729451 -0.0001300642334)
(-0.0005486971304 0.0007161204344 -0.0002020091479)
(0.00038531642 -7.213517862e-05 0.0004885396751)
(-0.001040561431 -0.0002206630536 0.0008042577652)
(0.0006118053648 -0.0001292330286 0.0001832224783)
(0.0002248761926 -0.0006254366696 -8.685820644e-05)
(-0.0008119856896 -0.0002423788381 -0.0008392100236)
(-0.0002610740642 0.0003904075361 -7.389702787e-05)
(2.536339607e-05 0.000190766619 -0.0004154068613)
(-8.9905071e-05 -0.0004408199929 0.0002049348899)
(-4.556340402e-05 -0.0003749433636 -9.535442071e-05)
(-0.000596305283 -0.0001911073734 -0.0006072861212)
(0.0006559172412 0.0003274393652 -0.0006987529086)
(-0.0001088611667 -0.0002443855646 0.0004415379381)
(0.0005578612096 -0.0003048072444 0.0005295277746)
(-0.0002290985064 4.006547274e-05 0.0001248095994)
(-0.0003884642554 -0.0004475256023 -0.001096722841)
(-0.000548092787 -0.0002169491073 0.0002040059364)
(0.0002444360746 -1.328778894e-06 0.0001367480999)
(0.0001592775897 0.0003480878085 -0.0003898624852)
(1.400723126e-05 4.6536759e-05 -0.0001367501241)
(-0.0004556380714 2.921511483e-06 -0.0008164106188)
(0.0002469948442 -0.0006454500214 -0.0007618029097)
(-0.0002001975876 -0.0003200982635 -0.000356268963)
(8.442057343e-05 0.0001626345082 -9.125839972e-05)
(-2.533027528e-06 0.000344446877 0.0001022134562)
(-0.0002574789207 -0.0005497251431 -0.0004102192096)
(-0.0008382619508 -0.0003279064255 0.0006431155887)
(0.0003183999126 -5.797722055e-05 -6.656669429e-05)
(4.137042385e-05 -0.0002770370337 -0.0002953115086)
(-0.0004514787676 0.0001836490639 0.0005083664276)
(-0.0005588581308 0.0001501068577 9.940984351e-05)
(0.001190701146 -0.0009047611726 -0.000219102112)
(-0.0001797713395 -8.11969811e-05 0.0003454385132)
(0.0001404122256 -0.0002642053322 6.325539848e-05)
(0.000350989752 0.0002472996975 -0.0001686388299)
(0.0003146507863 2.217466556e-05 0.0006112410792)
(0.0002798952969 -0.0003496352628 -0.0002854046653)
(-0.0009560999236 0.0007988721541 2.82186365e-05)
(0.000559399149 -0.0004412860358 0.0009963850756)
(0.0003725376161 0.0002272286824 0.0001296744385)
(-7.062929345e-05 -0.0002516673149 0.0001186375037)
(7.759251689e-05 6.163038365e-05 0.0001823101126)
(0.0006746500662 0.0007767169992 0.0001187167654)
(-0.0004799024507 -0.0002384893951 -0.0005162171818)
(0.000741678393 0.0004175672092 -7.822913304e-05)
(0.0007797456887 -4.500653614e-05 -3.679554721e-05)
(-0.0002247218889 0.0002293125516 -0.0003195932492)
(-0.000224550136 0.000178471301 -0.000145760208)
(0.0003757531061 -0.0004803061481 0.0001131331625)
(0.000648153983 0.0006886120269 3.83526874e-05)
(4.703987879e-05 0.0001243631318 -0.0003544357524)
(-0.0001623037758 0.0004911456786 0.0002776644028)
(0.0003605475589 -0.0003148305035 0.0008920384176)
(0.001050891528 0.0009558164113 -0.000124752327)
(0.000564728358 0.0001716039263 -0.0003465593613)
(0.001197621427 -0.0002526783149 -0.0009310833606)
(2.996480209e-05 -0.0002859734007 8.218693972e-05)
(-0.0006730272179 -0.0004685051779 0.0006965858481)
(-0.0001270684903 0.0002239564611 1.860836389e-05)
(-0.0004803976993 -0.0003752644728 -4.378067059e-05)
(-0.0002544763485 -0.001020846472 -0.0002065550261)
(0.0002293177487 -0.0005576368267 0.0002744947148)
(0.0003565239058 -2.971617157e-05 -0.0004554283691)
(-0.0001742956096 0.0008368713957 -0.0003095807579)
(0.0002470965732 -0.0001981242954 -0.0004146061083)
(0.0003204850224 0.0001158533316 0.0003308825846)
(0.0001425199553 -2.310032757e-05 0.0001600880694)
(-0.0002505729271 0.0001379718629 -0.0004094522511)
(-0.0005840393773 0.000240998708 -1.001638931e-05)
(-0.000654892009 0.0003406400345 -5.48549943e-05)
(0.000167891036 -0.001617620404 0.0005440811785)
(0.0001949541861 -0.0005956698378 0.0003017010245)
(-0.0008898724403 0.0004743189473 0.0001679008311)
(3.044861483e-05 0.0003418584529 -0.0004675785555)
(-0.0005217659596 -0.0004322547172 -6.690047725e-05)
(0.0007733017454 -0.0002475019374 0.0002077909175)
(0.0003704098202 -6.223263104e-05 -0.0009680723636)
(0.0006673533771 0.0001848328583 -0.0003267982437)
(-0.0004155434295 0.0002882917516 -0.0008889800515)
(0.0004567095931 0.0004662832151 0.0001042820567)
(-0.0007170583306 0.0008327465094 -0.0008301742368)
(-0.0003601627687 0.0002350856696 0.0001102373468)
(-0.001163430197 0.0005455386807 -6.020309223e-06)
(-0.0003987687677 -0.0008828779445 0.0002974165933)
(0.000230744212 -0.0001510663506 -0.0002349006462)
(-0.0003281836569 0.0008317493126 0.000412362052)
(0.0001247625095 -5.643497662e-05 -0.0009939132805)
(0.0001994675868 -3.632533e-05 0.0008380802363)
(7.501022225e-05 0.0001460381261 -0.0008303352492)
(-0.0007091021421 0.0002285689274 6.643188956e-05)
(0.000665339718 -0.0001255663947 0.0005091202139)
(-0.0004322888973 -8.734420367e-05 -2.973771468e-05)
(-0.0003469270351 0.0005611184228 0.0003981541459)
(0.000533704882 -0.0008152021836 -0.000302578079)
(2.535972419e-05 0.0001767849412 -0.0001083478068)
(0.0002248529664 -7.398079622e-06 -8.914948516e-05)
(-6.899986979e-05 -0.0006225083266 0.000965696801)
(-0.0006174628872 -4.956919707e-05 0.0001377402647)
(1.477792138e-05 -5.06587176e-05 0.0004881828871)
(-0.0002036305384 0.0002638132415 -0.0002846922089)
(-0.0004134985116 -8.715342152e-05 0.0001520248208)
(-0.000700314814 1.917131844e-05 0.0005098825727)
(0.0001281185566 0.000266880785 7.198130908e-07)
(0.0003945689877 0.0002806992963 -0.0001190708122)
(-0.0005686443743 -5.177718845e-05 0.0006471589183)
(4.020050755e-05 0.0002119590772 -8.646228407e-05)
(0.0004255884365 0.0008900890825 -0.0001671585938)
(0.0001356409624 0.0007767877299 0.0007403100142)
(0.0001341179663 -0.000112896356 -0.0003148904137)
(-0.000581102129 -6.561024992e-05 0.0003248970909)
(-0.0001631597818 -0.0006837525384 -0.0008150295386)
(-0.0003926153401 8.485993117e-05 -4.60160777e-06)
(0.0004943171026 -0.0006594723705 2.835550937e-05)
(0.0003647899342 0.0004400132725 -2.829922283e-05)
(-0.0004122532959 0.0001151314112 0.0006249306625)
(-0.0005439195276 5.854488531e-05 9.735685346e-05)
(0.0003056165647 0.0003016362663 0.0003527397056)
(-0.0003811079045 0.0006772772473 -0.0001447239074)
(-0.0002033463402 -0.0002502245605 -0.0003111605766)
(-0.0003277599709 6.161264029e-06 -0.0005013624154)
(-0.0003076341373 0.0006144137315 -2.093742589e-05)
(0.0004740008258 0.0001988964218 0.0002347702646)
(2.230739972e-05 -0.0002012491154 0.0004552095995)
(-6.020569374e-06 0.0006848033049 -0.0001026155868)
(-4.567723567e-05 -1.181320024e-05 -9.72945852e-06)
(-0.0004479357545 -0.0004831838487 0.0009341249501)
(-0.0003937814418 -0.0001760052261 0.0001597318407)
(0.0002486028777 0.0003655230254 0.0007918973721)
(0.0001913822169 -3.896478381e-05 -0.0001403809553)
(0.0004403812036 0.0003601825137 -0.000126289332)
(7.44515903e-05 0.0001260890786 0.0003067053852)
(-0.0005080361771 -0.0006205328334 -0.0004386371589)
(-0.0005974400967 0.0003703957408 0.0001665006302)
(-4.864836547e-06 -0.001585796228 -0.0003373696429)
(-0.0002579813947 0.0001702391116 -0.0005791145166)
(0.0006101552323 0.0003057196177 4.907209755e-05)
(0.0005502459649 -0.0005449983381 0.0006219993165)
(0.0004871458464 0.0001453860401 0.0005382394833)
(0.0001074083871 -0.0005063020406 -9.010840222e-05)
(-6.681995123e-05 -0.0004503301381 -0.0002723828275)
(-3.853401022e-05 5.48182133e-05 0.0001215976081)
(0.000545340922 -0.000150556358 -0.0001401478694)
(-0.0005646119144 -0.0007856558309 0.0002778956399)
(-0.0003053315176 -9.67562338e-05 0.0004085341191)
(0.0003422369329 0.0002548563665 0.0005591096542)
(0.000381303702 -0.0006198527327 4.834462911e-06)
(-0.0003826845868 0.0004481549665 0.0004247028443)
(0.0006530119862 -0.0003355312805 -1.943764106e-05)
(-0.000248872313 -0.0002344840253 -0.0003956349269)
(-9.658552896e-05 -0.0005859981292 5.406753559e-06)
(-0.0003448037831 -0.0001646133658 -0.0004056357104)
(-0.0005601342943 -0.0005192111648 -1.001532473e-05)
(4.694384937e-05 -0.0002904473667 0.0001955651722)
(0.000190357522 0.000389174157 0.001048977975)
(0.0003068602336 0.0001217899718 0.0001082037685)
(-0.0002436730533 1.600158963e-05 0.0004464999531)
(0.0002381414281 0.0002775722831 0.0002877193098)
(0.0003480282859 0.0004217290164 4.212502802e-05)
(-0.0005348375874 -0.0002012226512 0.0007054977996)
(-0.0007038234707 0.000563099381 0.0002635889216)
(0.0001951076859 0.0006124607012 0.0001213913133)
(0.0001342402589 0.0002707588958 -0.0004400094023)
(0.0003346847533 -0.0001456788501 -0.0002800781853)
(1.225060484e-05 -0.0006525901954 -0.0001861728007)
(-0.0001525376444 0.0004088900484 -0.0004901062519)
(-2.729630996e-05 9.3243424e-05 -0.0004767830776)
(-0.000240806458 -0.0004391298926 0.0002684733444)
(0.0003659731068 -7.062077987e-05 -0.0001844506344)
(-0.0002931074741 -0.0005840608224 0.0003292259695)
(-0.0004542054066 -0.0001456067562 0.0002463213684)
(0.0004099943782 -0.0002779199956 6.42605495e-05)
(0.0001550878993 -0.0003926556628 -0.0007818796587)
(-0.00079217694 -0.0001764648109 -0.0004981320024)
(-0.0001411976179 -5.179382087e-05 -7.321860244e-05)
(-0.0002760178987 -0.0005548808488 -0.0003572281946)
(-0.0002186339194 5.515908818e-05 -0.0008893579392)
(-0.001372745609 0.0003864716602 0.0001339419819)
(-4.271143892e-05 -0.0002603797476 0.0001399713024)
(-0.0003028278762 -9.913281383e-05 -0.0004733543136)
(0.0002836146848 -0.0007651319645 4.070933812e-05)
(0.0003441511611 5.535146489e-05 -0.001128086476)
(0.0001014495209 -0.0005364999454 2.733358197e-06)
(0.0004385667757 -0.0001910384052 0.0003591446028)
(-0.0003952009608 -0.001239337234 -8.32339922e-05)
(3.830177773e-06 0.0002155383387 0.0006518458194)
(-0.0005043138259 0.0003818271003 -0.000346784581)
(5.633157912e-05 -5.372630677e-05 0.0007620428096)
(8.289047855e-05 -0.0003816562059 -0.0003491096896)
(0.0004278652177 0.0001562310038 -0.0003913908195)
(0.0004676012643 0.00118555948 -0.0001707935137)
(-0.0007734125536 -0.001038157778 1.407643499e-05)
(6.367453653e-05 -0.0002418346243 -7.844682789e-05)
(-0.0004951843228 4.914621058e-06 0.0009736640324)
(3.922038774e-06 0.0008610126981 -0.000371455744)
(-0.0004331331049 5.12640385e-05 0.0003319074848)
(-0.000688132813 0.0003723200738 0.0006185336591)
(0.0003700114853 0.0001297643554 0.0005949389451)
(0.0008519668473 -0.0004657591957 6.846129338e-05)
(-7.308344769e-05 0.0001500786004 0.000445613954)
(0.00104982182 0.0004271443439 -0.00070058025)
(-0.0004351886964 -7.535782863e-05 0.0003979386463)
(0.0002175537517 3.638457609e-05 0.0007691355613)
(-0.0006864856576 -8.686308289e-05 0.0002703889733)
(-0.000829961617 0.0002932114299 0.0003359447305)
(-0.0001769937707 0.0003808676159 -0.0008020319909)
(-2.698868007e-05 0.0003263824375 -0.000511001072)
(-0.001048192004 -0.0006315938064 -0.0009448103367)
(-0.001488330433 2.067139298e-05 0.0003308872955)
(-0.000375082457 -8.303123407e-05 -0.000233712665)
(-0.0007326572662 -5.231763944e-06 0.0004200580644)
(0.0002989513413 0.000557202317 -3.01932776e-05)
(0.0001593251264 4.376002855e-05 4.180995499e-05)
(0.0006854530555 -0.0001744605494 0.0003429891427)
(0.0005596218177 -0.0001395581976 0.0003070379214)
(-0.0004721076732 -0.0006742695573 -0.0003846075497)
(0.0006077556933 6.777643959e-05 -0.0004101465223)
(-0.0002909099853 0.0002684559574 0.000154115478)
(0.0002693629232 -0.0005245057017 -0.000262797241)
(0.001021799063 0.0001183046368 0.000817754475)
(-0.000266497529 0.0004641585678 0.0003648943071)
(7.841378563e-05 0.0003522503958 5.404869343e-06)
(0.0005404644501 0.0001373839662 -0.0004464204483)
(0.0001085216424 -9.8540494e-05 0.0003978647915)
(-0.00080994423 0.000737063983 -0.000200489635)
(8.176504857e-05 0.000138613819 -0.0006661863218)
(0.0003555172346 0.0004435991035 3.214667264e-05)
(0.0002383246732 -0.0002416722167 -0.0008087527445)
(0.0001133482123 4.277640743e-05 -0.0002495391732)
(0.0002461948969 -2.64224937e-05 0.0007074404724)
(-0.0002215761006 0.0007119984169 0.000110197406)
(-0.0003986352364 -0.000359610877 -0.0007160882228)
(0.0001871894186 -1.743834073e-05 0.0001526074716)
(0.001087805174 -3.979905344e-05 -0.0008283470432)
(0.0003542700952 0.0001326107118 0.0001228474314)
(0.0001455672046 -0.0006946817362 -0.001001531948)
(0.0003375551278 -0.0005240671868 0.0005227308837)
(-0.0001315739692 -8.482705976e-05 0.0007338211361)
(-3.237092408e-05 -0.0001595242889 -0.0006152639043)
(-0.0001274259836 0.0002037137796 -6.563862366e-05)
(-0.0004092094439 1.323509891e-05 -0.0003676649649)
(-0.0003014154528 0.0005270454444 -0.0001356147409)
(0.0006572671088 0.0007827065385 -0.0005558387069)
(0.0004358107153 -1.061541558e-06 3.347862408e-05)
(-0.0004638868573 -4.7765173e-05 -0.0001195323098)
(-5.523143176e-05 0.0003974146951 0.0005340490084)
(0.001248623124 -0.0003767818146 0.0005508166335)
(-0.0002157581555 -0.0005466424274 0.001336396519)
(-0.0003678981839 3.680903435e-05 -0.0003826641261)
(0.0006165186056 -0.0002791234652 6.158976421e-05)
(3.316696699e-05 -2.600924053e-05 -0.0003843530726)
(-0.0002201029104 -0.0001166231416 -0.0002928360951)
(-0.000386423081 -0.001023494917 -0.0001928657364)
(-0.0002439097059 -1.717380819e-05 -0.001419133432)
(-0.0002511933002 -2.108512075e-05 -7.751368073e-05)
(0.0005423941721 -0.00118156113 -0.0001789520346)
(0.0002293828797 0.0001442532273 0.001076548155)
(0.0002735852648 5.264950436e-05 -0.0001074160158)
(-0.0005025051592 -0.0008400564488 0.0003733533197)
(0.000253625361 0.001246878711 0.0004642805557)
(-0.00022235772 2.204288811e-05 -0.0004088866429)
(-0.000477185439 0.0004804034101 0.001007550676)
(-0.0002600779574 -0.0001690287413 -2.138245367e-05)
(0.0003718704703 0.0006166107001 -1.243460101e-05)
(0.0005625241868 -0.0004579273281 0.000152665465)
(0.0002763401988 0.0004370408071 0.0003341719115)
(-0.0005545318907 0.0001028041669 0.0002864879247)
(-0.0006547758541 0.0006199445198 0.000173508347)
(0.0004114953248 0.001789756298 0.001092282226)
(0.0002490817407 -0.0005992706253 -0.0007456700046)
(5.017276564e-05 -7.963014457e-05 -0.0001990725868)
(0.000553990822 -8.288926845e-05 0.0003764167498)
(0.0001586825032 -0.0007726785261 0.0001137834657)
(0.0005469963027 0.0002774366274 0.0001413698711)
(0.0004983868626 -4.262868064e-05 -0.0002081784003)
(-0.0004757019444 0.0003036427117 -4.670575569e-05)
(0.0002030091998 1.896752075e-05 -7.608139612e-05)
(6.704447271e-05 0.0002507423126 0.0002455611864)
(3.339989286e-05 0.0001142948739 0.0003024404736)
(-0.0001128968701 -0.0004618264064 -0.000192021804)
(0.000317380518 3.244685954e-05 -0.0002545794678)
(-0.0003359301656 -3.342469249e-05 -8.229894025e-05)
(0.0002454837076 -0.0002154326243 -0.0004587774457)
(-0.0005221081728 -6.352198408e-05 -0.0008645658353)
(0.0003020364883 0.0001201683266 0.000525433817)
(0.0001022940545 -7.244158596e-05 0.000677964159)
(2.238697269e-05 2.045316719e-05 0.0001805087378)
(0.0005372056035 -0.0003014616807 0.000727574434)
(-0.0004919915831 -6.494003344e-05 -0.001016863659)
(7.428110584e-05 -0.0002700460021 0.0004125054393)
(0.0003905701661 0.000981441611 -0.0005462198419)
(-0.0002210896238 0.0002157138785 0.0003432946883)
(-0.0004299037729 0.000166726855 -0.0003743374007)
(0.0006504261183 -1.539434561e-05 -0.0006376788728)
(-0.000196508957 -0.0009447314296 -0.001012453299)
(-0.0003536456354 -0.0006484673734 -0.0004221469477)
(0.0003367285176 -0.0002046052907 -0.001062722078)
(-0.0001979754608 0.0001504693131 7.646679335e-05)
(0.0003281716674 -0.0001495443199 0.0005735538275)
(0.0004834338183 -0.0001197536611 -0.0001576916427)
(3.282801216e-05 0.0004651321004 0.0002819418127)
(-0.0004316449727 1.743652641e-05 -0.0003274698186)
(0.0002495840857 0.0005460476542 0.0002455022623)
(-0.0006693921576 -0.0002538949701 3.509341327e-05)
(-0.0002688078773 -0.0004859433011 -0.0003300065639)
(-0.0008170332347 2.099216801e-05 -0.0003706324097)
(-0.0001851707599 -0.0006271804752 -0.0003400837873)
(0.00083535097 -8.444657414e-05 -5.262436934e-05)
(0.0004236676575 0.0008314115084 4.916332033e-05)
(0.0004469557006 5.473114157e-05 0.0003226332497)
(-0.0006348551729 -1.623090892e-06 0.0007278373419)
(0.0005460946755 -0.0001702408604 -0.0007616767434)
(-0.0005853167442 -0.0006198980242 -3.526583093e-05)
(0.000344332509 0.0004914469111 3.041766404e-05)
(9.593145596e-05 -0.0005854527673 5.518000025e-05)
(-0.0002054786194 -0.0008067101164 0.000892655427)
(0.0005175726587 9.233350758e-05 -0.0002499199702)
(-0.0001236898535 -4.046175557e-05 9.189746669e-05)
(-0.0002553694533 0.0003760328004 -0.0008681986118)
(-0.0001055671578 0.0002283580246 -3.879316631e-05)
(0.0005511694466 -0.0005158197985 0.0009165017443)
(0.0008523481157 -4.975677637e-05 3.726288293e-05)
(-0.0002963714603 0.000802743402 -0.001049265481)
(-0.000477414638 -8.669329135e-05 0.0001533862034)
(8.024949915e-05 -0.0008072237087 -3.903880598e-05)
(-0.0002575062682 -7.085153348e-05 -0.0001320612059)
(-0.0008821212295 0.0006733851135 0.0004795130688)
(-0.000213146775 -0.0002957686651 0.0002345167115)
(0.0005889644569 -0.000436187521 -3.924087043e-05)
(-0.0006600295217 0.0004128986951 -0.0001934990924)
(-0.000131493443 -0.0005646527131 0.000179291017)
(6.385886271e-05 -0.0005159482786 1.74148606e-05)
(0.000851370714 0.0001957746778 0.0002728099687)
(0.0001540834952 0.0003597111732 6.698164989e-05)
(0.0003865397721 0.0005839822781 -0.0001472874555)
(0.0001189267974 0.0004563032143 0.00114333272)
(-0.000209011643 -0.0005568653789 -0.0007062836916)
(6.53015891e-05 -0.0003240690182 0.0004877992114)
(0.0008146839308 -0.0005030186531 -0.0006974438306)
(-0.0001582946001 8.852911491e-05 0.0004491561617)
(0.0001489293261 -9.112390503e-05 0.001374293046)
(-0.0001760114811 -2.717782485e-05 -0.0002247836757)
(-0.0003309164986 -5.293219859e-05 -0.0008006910477)
(-8.438691925e-05 0.0008459541936 -0.001002425376)
(0.0005046042997 -0.0005717139425 -0.0001777541895)
(3.360805892e-05 -0.0003062127417 -0.0001442358327)
(0.0005043185084 -2.551680115e-05 2.09083293e-05)
(-0.0004442947493 -5.772282621e-05 0.0004768927153)
(-0.000218133157 6.005232527e-05 0.0003466807459)
(0.0007065122061 0.0005703330693 0.0004447525479)
(0.0001746630428 -0.0006027735451 -5.952376153e-05)
(0.0004732247427 -0.0005708852098 -0.0002673285036)
(0.0002974098502 -4.987409247e-05 0.0002098342193)
(-0.0001130176565 0.0006763859621 -0.001006052286)
(-0.0002152196396 0.0003839456038 -0.0002820199071)
(0.0003204683462 0.0003496602276 0.0002293970423)
(0.000805248542 0.0003645549954 -0.000102580798)
(7.714003059e-05 -0.00042608592 0.0005653566229)
(-0.0004105146617 -0.0003869825939 -0.0003177608393)
(-2.312753462e-07 1.677017369e-05 0.0004082299921)
(-9.100134367e-05 0.0004248884875 -0.0001279180157)
(-0.0002021531838 0.0001578975198 -0.0003308340823)
(0.0003015231636 0.0002696142431 -0.0002344092186)
(-0.0003818092999 -0.0002364271268 4.883242611e-05)
(0.0001500212376 -0.0001299590275 0.0005575747278)
(8.268978512e-05 -0.000295288196 -0.0001823224221)
(-4.691914104e-05 0.0001253584197 3.933525013e-05)
(0.0004101510839 -2.582008654e-05 -0.0005701419353)
(-1.852390169e-05 0.000517398481 -2.630867718e-05)
(-0.000624593303 0.0007521245207 -0.0002825642327)
(0.0008822011229 0.0002275394092 0.0004132163905)
(8.989683566e-06 -0.000268546238 -7.74606525e-05)
(-0.0007707375697 -0.0006201201301 0.0001862669144)
(0.000432744893 4.797675833e-05 -0.0002988873213)
(-0.0004049026137 1.024071505e-05 0.0006547167809)
(-0.0002907786626 -0.0009273614996 -0.0005637128458)
(-0.0004483082858 -0.0007970269503 -9.842316664e-05)
(0.0001333651594 -4.419007617e-05 -4.681126992e-05)
(0.0003512595555 -1.892768692e-05 0.0005694411061)
(-0.000477612451 0.00109022555 -0.0003926002443)
(0.0001653992725 0.0005075194735 0.0003735996299)
(3.325421256e-05 0.0001669438714 2.77038221e-05)
(0.0004425268413 -0.001667653357 0.0009432929416)
(-0.0002751416618 -5.744013947e-05 0.001050523321)
(0.0004745431411 -0.0002312517779 0.0001572527998)
(-3.07737808e-05 0.0004761674643 5.467525103e-05)
(0.0003403883604 -0.0002872354807 0.0001528707379)
(-0.00114880616 0.000708097459 -0.0006930617287)
(-0.001054492172 0.0001177609137 3.395326685e-05)
(-0.0002737041654 0.0005997753406 0.0006859711645)
(6.10212702e-05 0.0005077572873 7.687171761e-05)
(0.0002411902911 -9.805913529e-05 0.000164616533)
(0.0001777507832 0.0002521842014 -0.0006389914055)
(5.809174009e-05 0.0007488896012 0.0002506694636)
(-0.0001105606045 1.450205166e-05 0.0001853448565)
(0.0001120725795 -0.0009813185946 0.0001190371563)
(0.0002377751332 -0.0002471500101 -0.0006395342403)
(0.0003175527431 -0.0001224930066 -0.0005278426985)
(-0.0004283564836 -0.001088224772 1.178370764e-05)
(-0.000918890396 -7.122613392e-05 -0.0008152928841)
(-0.000189866658 -4.774017937e-05 -0.0003381057893)
(-0.00108380769 0.000130980476 0.0004501945191)
(0.0002394831736 0.0006970237456 -0.0002902299494)
(0.0002925384868 0.0001450766379 7.437591617e-05)
(0.0001335037833 7.768371077e-05 -7.361365464e-05)
(0.0005635172914 0.0001802030749 5.446834768e-05)
(0.000210066617 0.0002828633542 0.0008159314776)
(-6.337194499e-06 0.0002052294692 0.0001851338865)
(-6.248239259e-05 0.000281648236 -7.525997032e-05)
(-0.0001799710501 0.0003095486809 0.0001091565734)
(-0.0003788717393 -0.0008821008345 -0.0003820606595)
(0.0001811711859 0.0003643189398 0.0009110011729)
(-0.0001142421231 -0.0001744991906 0.0001628990639)
(0.0005985015273 0.0001843443117 0.0004075954846)
(-0.0001463655253 -0.0005043383705 -0.0008034902532)
(-0.0003773266187 -0.0001768140449 -0.000327110522)
(0.0003435068739 -0.0005947535367 -0.0005484617394)
(-0.0002213044487 0.000178951757 -0.0001250955207)
(0.0001834681006 0.0001094980064 0.0002146854577)
(-0.0005954839383 -0.0003115393578 -7.177065276e-05)
(-0.0005804631822 -0.00027630332 0.0008451530157)
(0.0002274518804 0.0009695634975 5.977838396e-05)
(-0.0001642004434 -0.001161587073 -0.0001625132528)
(0.0001683993835 -0.001020900467 -0.0002017182885)
(0.0006321381473 8.713475215e-05 0.0008185340082)
(-9.385583763e-05 8.57874724e-05 0.0004339275618)
(0.0001195102661 0.0002763735682 0.0001971557659)
(0.0004169484601 -0.0002415192757 -0.0003462565434)
(0.0003373365346 0.0003617717435 -0.0004350394377)
(-0.0002247082169 -9.002281012e-05 -0.0003310115724)
(0.0005653315478 7.218486342e-05 -0.0007736990612)
(-0.000124390995 -0.000125387993 0.0005580323983)
(0.0003173595805 0.0003086211776 0.0004591407347)
(-0.0001206367859 0.000365409755 -0.0004618230399)
(0.000858575539 -1.288034769e-05 -3.749242798e-05)
(0.0007881172533 0.00120417628 0.0005995212888)
(-9.583117508e-05 -0.000309118904 -0.0002572498591)
(0.0001598752299 0.0006817395223 4.03575403e-05)
(-0.0003377820741 8.646369606e-05 0.0001546284398)
(0.0006998391692 -0.0003143829106 0.0005997801287)
(-0.0002242591482 6.896315095e-05 -0.0002436755043)
(0.0002161172481 -0.0001407703889 -1.601724069e-05)
(6.338421649e-05 -9.737775852e-05 0.0003796757331)
(-0.0003743663812 -0.0002067547 -0.0007126909874)
(0.0003842081941 0.000199263921 -0.0001912322467)
(-0.001362581112 0.001225170589 0.0006495646274)
(0.0002552599123 -1.617374972e-05 0.0007591411102)
(-0.000527136239 -0.0003388573525 0.0002571681226)
(-0.001025072573 0.0001575168276 0.0002882333914)
(-0.0008158758915 -0.000811160919 0.0004643965361)
(-0.0002490923374 0.0002308820272 -0.0005710300317)
(0.0002628236695 -0.0003123693732 -0.000106429587)
(-0.0003597491898 0.0005425902322 -0.000317256466)
(-0.0006043751533 -2.810509269e-05 0.000702897112)
(-0.0002190184643 0.0007886513582 0.0003155644748)
(0.0007709726166 0.0003963089516 0.0003515840536)
(-0.0002545402787 -0.0006735615617 0.0001293396939)
(-0.0001403267066 0.0001170227556 0.0005458413129)
(0.0003898156541 -0.000614654754 -8.193057048e-05)
(0.0004049827637 0.0001913871653 -0.0004164054083)
(0.0003640802841 0.0001581323848 -0.0002224353735)
(6.556955838e-05 2.208644333e-05 -0.0005158537035)
(0.000477391801 0.0001859944555 0.0003679766185)
(-0.0001695719572 0.0004965457266 -0.0001162903446)
(-0.0002506749181 0.0001679520155 0.0007859757695)
(0.0002767151712 0.0001475716686 0.0006579084263)
(-0.0003748709316 -0.0006934877118 0.0004021347047)
(0.0003643838499 -0.0001454303476 0.0005415483062)
(-0.0004197995189 0.0001376024641 0.000675670821)
(7.858248641e-05 -3.785431054e-05 4.604438684e-05)
(-0.0004099264495 -0.0001875738165 -0.0001286385205)
(-0.0006925911374 -6.339378642e-05 0.0001046496653)
(8.448425066e-05 7.812148619e-06 -0.0003288356481)
(3.611960122e-05 -0.0006344998688 -0.00102334265)
(0.0001316226489 0.0001065120978 0.0004730301065)
)
;

boundaryField
{
    flow
    {
        type            zeroGradient;
    }
    obstacle
    {
        type            calculated;
        value           nonuniform 0();
    }
    frontAndBack
    {
        type            empty;
    }
    procBoundary2to0
    {
        type            processor;
        value           nonuniform List<vector> 
31
(
(0.0002760214334 -3.356537742e-05 0.0003948263527)
(0.0001180379102 -0.0001313377925 0.0001523604412)
(0.0002211049872 -0.0001553709441 -0.0002021561747)
(0.0005327962834 -0.0006709222012 -0.0008149042399)
(-0.0001729339574 -0.0003378347268 0.0003458810065)
(-0.0009765364164 0.0006095469156 0.0008052978578)
(-0.0003876068249 0.0004867322782 -0.0005807460757)
(0.0001075874291 0.000217273461 0.000270740678)
(-0.0002229837771 -0.0007383663395 -0.0002799015882)
(0.0003840825193 -0.0004570694255 0.0002655913539)
(-0.0005867698199 0.0008050250409 -0.0001057555053)
(-0.000747450856 -0.0008307139114 -6.848235044e-05)
(0.0006968504793 -0.0002254881521 -0.0001524336801)
(0.0005930675936 0.0005261435074 0.0008979126201)
(0.0002357189958 0.0002599152098 4.49753228e-05)
(-9.887312413e-05 0.0002088859591 -0.0005340463666)
(0.001189724464 0.0007476368196 0.0002596719801)
(-0.0002487195793 -1.472090979e-05 -8.964847331e-05)
(-0.000423739138 0.0004677452922 0.0003328478465)
(0.000541177857 8.712834035e-05 0.0002117015609)
(0.0002148140746 0.001039946786 0.0008365440101)