/*--------------------------------*- C++ -*----------------------------------*\
  =========                 |
  \\      /  F ield         | OpenFOAM: The Open Source CFD Toolbox
   \\    /   O peration     | Website:  https://openfoam.org
    \\  /    A nd           | Version:  7
     \\/     M anipulation  |
\*---------------------------------------------------------------------------*/
FoamFile
{
    version     2.0;
    format      ascii;
    class       Cloud<dsmcParcel>;
    location    "0.006/lagrangian/dsmc";
    object      positions;
}
// * * * * * * * * * * * * * * * * * * * * * * * * * * * * * * * * * * * * * //

3157
(
(0.393181932 0.303409034 0.2695015237 0.03390751026) 227 447 2
(0.02201980252 0.06322385922 0.4257662395 0.4889900987) 3 1059 1
(0.05506054406 0.05407321901 0.418396509 0.472469728) 456 896 1
(0.1870939397 0.4064530301 0.1886105965 0.2178424337) 109 215 2
(0.1248324913 0.05455483498 0.4375837544 0.3830289194) 184 363 2
(0.5515946039 0.0657193137 0.224202698 0.1584833843) 374 734 1
(0.06773228386 0.4661338581 0.1657042644 0.3004295937) 224 441 2
(0.1706527135 0.001409410128 0.4146736432 0.4132642331) 75 149 2
(0.3205702159 0.2232297869 0.339714892 0.1164851051) 199 393 2
(0.382391118 0.308804441 0.07958111044 0.2292233305) 167 330 1
(0.1336256601 0.06738309687 0.43318717 0.3658040731) 404 793 1
(0.2034513032 0.3982743484 0.3952438337 0.00303051467) 215 421 2
(0.4578122972 0.2710938514 0.1481868236 0.1229070278) 374 737 1
(0.4649218494 0.2675390753 0.2184934289 0.04904564636) 14 29 1
(0.807036735 0.005340330835 0.09648163252 0.09114130168) 536 2197 2
(0.6220199947 0.1785787145 0.1889900027 0.01041128814) 18 34 1
(0.8301952055 0.07166364955 0.08490239723 0.01323874768) 100 195 1
(0.01651671843 0.232566433 0.2591752078 0.4917416408) 220 375 2
(0.0925867276 0.2655136762 0.4537066362 0.18819296) 340 667 1
(0.2780483843 0.3609758078 0.1103180092 0.2506577987) 154 304 1
(0.141645345 0.4291773275 0.3544787951 0.07469853242) 396 780 1
(0.2757548462 0.3621225769 0.2192967056 0.1428258713) 46 89 2
(0.1457964202 0.4271017899 0.1002172227 0.3268845673) 51 102 1
(0.3314496701 0.3342751649 0.2930180438 0.04125712114) 431 846 2
(0.6555624463 0.1722187769 0.1408056667 0.0314131102) 132 258 2
(0.3604061856 0.3197969072 0.1522486092 0.167548298) 332 654 1
(0.6913419728 0.1543290136 0.03811782067 0.1162111929) 220 433 2
(0.7532327498 0.0280844936 0.09529913152 0.1233836251) 467 861 2
(0.1108788611 0.08855008233 0.4445605694 0.3560104871) 180 355 2
(0.4427649053 0.1439477854 0.1346697619 0.2786175474) 264 520 1
(0.6676955016 0.02149373548 0.1446585137 0.1661522492) 452 831 2
(0.2157947791 0.320016745 0.3921026105 0.07208586547) 438 860 1
(0.1666441563 0.3195383003 0.09713962156 0.4166779219) 178 293 2
(0.7065870809 0.1339052918 0.01280116774 0.1467064596) 308 548 2
(0.6398133957 0.1800933021 0.149965298 0.03012800413) 303 594 2
(0.7617825952 0.1191087024 0.101863951 0.0172447514) 169 334 1
(0.102726546 0.4087774816 0.03985924536 0.448636727) 267 526 1
(0.1045135054 0.08467133806 0.4477432473 0.3630719092) 482 943 2
(0.1085238923 0.2981099147 0.1476281391 0.4457380538) 378 686 2
(0.8373006554 0.0813496723 0.0002585277817 0.08109114452) 325 638 2
(0.1745894272 0.01353510766 0.4127052864 0.3991701788) 158 309 1
(0.4661794694 0.2669102653 0.1109559697 0.1559542956) 386 702 1
(0.3240298742 0.3379850629 0.1279415414 0.2100435215) 215 421 2
(0.0475587335 0.4762206333 0.1701405033 0.30608013) 259 452 1
(0.5093156877 0.01920042498 0.2261417312 0.2453421561) 108 155 2
(0.3385115076 0.3307442462 0.2196080173 0.1111362289) 107 211 2
(0.5657686131 0.2171156934 0.1405122125 0.0766034809) 434 854 2
(0.3048424241 0.2690621386 0.07851664932 0.3475787879) 45 89 1
(0.4545030097 0.0007715445651 0.2727484952 0.2719769506) 537 1031 1
(0.6165924391 0.05526215267 0.1364416278 0.1917037804) 50 41 2
(0.5275856621 0.1624257596 0.236207169 0.07378140936) 127 251 2
(0.3476982625 0.3261508688 0.1085660818 0.217584787) 336 603 1
(0.7691041192 0.01790196764 0.1154479404 0.09754597274) 365 716 1
(0.3386603782 0.2830802493 0.3306698109 0.04758956162) 524 1012 1
(0.444568262 0.277715869 0.2142612177 0.0634546513) 409 803 2
(0.7365466189 0.1317266905 0.1275877732 0.004138917309) 193 322 1
(0.604071688 0.197964156 0.01322795478 0.1847362012) 332 653 2
(0.3929659541 0.1825564867 0.1209605363 0.303517023) 243 420 2
(0.4146083356 0.06789221202 0.2926958322 0.2248036202) 9 19 2
(0.5170097249 0.2414951375 0.2055556512 0.03593948628) 401 789 2
(0.5854828277 0.02770305547 0.1795555307 0.2072585862) 308 606 1
(0.1033943239 0.448302838 0.09411632343 0.3541865146) 149 292 2
(0.2834133582 0.3582933209 0.04324097958 0.3150523413) 44 88 1
(0.540690181 0.1953383834 0.2296549095 0.03431652612) 264 518 1
(0.8165004336 0.03729147081 0.09174978319 0.05445831238) 312 612 1
(0.1968914752 0.2613834367 0.1401708257 0.4015542624) 114 225 1
(0.436264042 0.281867979 0.2210271435 0.06084083548) 371 728 2
(0.7451452406 0.1274273797 0.03593528598 0.09149209374) 254 500 2
(0.3308309761 0.334584512 0.2285589179 0.1060255941) 324 638 2
(0.614177956 0.08861741429 0.192911022 0.1042936077) 39 75 1
(0.3227469592 0.3386265204 0.0961237197 0.2425028007) 218 427 2
(0.1429493114 0.046338618 0.3821867263 0.4285253443) 540 1037 1
(0.5503447777 0.2248276112 0.0454151876 0.1794124236) 508 947 1
(0.09858668065 0.4507066597 0.2261732971 0.2245333625) 24 48 2
(0.3443469682 0.01111955677 0.3167069591 0.3278265159) 55 51 2
(0.6636870923 0.1681564539 0.09179218644 0.07636426742) 318 624 2
(0.4969797681 0.251510116 0.2174910106 0.03401910535) 129 255 1
(0.5460952124 0.0415040783 0.1854483155 0.2269523938) 253 498 1
(0.5050219018 0.2474890491 0.05647963846 0.1910094107) 131 258 2
(0.6979538461 0.1510230769 0.1326746202 0.01834845671) 432 850 2
(0.7517606337 0.05067332133 0.1241196832 0.07344636182) 191 374 1
(0.1496846299 0.06483040211 0.3603272829 0.425157685) 261 456 2
(0.7334625475 0.08325833485 0.1332687263 0.05001039142) 19 36 1
(0.2029636677 0.3162123873 0.3985181662 0.08230577889) 257 504 1
(0.08784481095 0.4560775945 0.2975168003 0.1585607942) 288 565 2
(0.2626966888 0.3342654011 0.03438625446 0.3686516556) 255 502 1
(0.185916795 0.3783521501 0.02868945241 0.4070416025) 182 300 2
(0.6156102624 0.1921948688 0.1198556277 0.0723392411) 227 445 2
(0.2361720894 0.3819139553 0.2912435924 0.09067036291) 71 140 2
(0.8628537805 0.06857310973 0.03478536254 0.03378774719) 478 883 1
(0.8084025504 0.03437035604 0.06142836878 0.09579872482) 370 670 2
(0.0927055835 0.1433670347 0.3102801736 0.4536472082) 2 1058 1
(0.3754453703 0.3122773148 0.03302693755 0.2792503773) 397 779 2
(0.0557930757 0.4721034621 0.06048344157 0.4116200206) 133 260 2
(0.8388614023 0.07982175639 0.08056929885 0.0007475424524) 115 228 2
(0.2313476531 0.2298636632 0.1544625103 0.3843261734) 362 712 1
(0.08511635049 0.378987047 0.07845477774 0.4574418248) 361 710 1
(0.1795859407 0.3586286613 0.05157836832 0.4102070297) 215 365 2
(0.4031065092 0.2984467454 0.1772781262 0.1211686193) 268 528 2
(0.6298945878 0.1107819826 0.07427072348 0.1850527061) 134 206 2
(0.477419087 0.01607418437 0.2452162721 0.2612904565) 218 429 1
(0.008456888314 0.4957715558 0.2836896318 0.212081924) 243 479 1
(0.7066215695 0.1466892153 0.1188919845 0.0277972308) 367 664 1
(0.1197910705 0.3042090479 0.1358954168 0.4401044648) 255 444 2
(0.7188706228 0.1405646886 0.0496370916 0.09092759698) 152 241 1
(0.006278773569 0.3907172996 0.4968606132 0.1061433136) 248 486 1
(0.008552040216 0.4957239799 0.3229608944 0.1727630855) 375 738 2
(0.1125836015 0.362712142 0.4437081993 0.08099605723) 411 807 1
(0.1291085061 0.1127520092 0.3226937378 0.435445747) 265 464 2
(0.04963751153 0.4751812442 0.1043216443 0.3708596) 159 313 2
(0.7398284202 0.1300857899 0.02126856629 0.1088172236) 167 329 2
(0.07379234307 0.005942323921 0.4631038285 0.4571615045) 366 718 1
(0.3094158004 0.01197292221 0.3333191776 0.3452920998) 3 1059 1
(0.503467022 0.1243780196 0.248266489 0.1238884694) 426 839 2
(0.2391949741 0.3386691062 0.3804025129 0.04173340676) 357 701 1
(0.8738592688 0.03931553173 0.06307036561 0.02375483388) 388 765 2
(0.3343259813 0.02347298981 0.3328370093 0.3093640195) 226 443 1
(0.7643604542 0.04580102959 0.1178197729 0.07201874329) 541 2228 2
(0.6065191987 0.1440456481 0.1967404006 0.05269475258) 284 560 2
(0.3840473068 0.2934505303 0.01452581626 0.3079763466) 162 319 1
(0.272040481 0.3639797595 0.07845818461 0.2855215749) 41 23 1
(0.3106799736 0.3446600132 0.3160414725 0.0286185407) 188 368 2
(0.3964721655 0.200867112 0.3017639172 0.1008968052) 197 389 2
(0.4897715848 0.2551142076 0.1034778853 0.1516363223) 264 462 1
(0.6040554409 0.1728235877 0.0251486919 0.1979722796) 18 36 1
(0.4066693121 0.2400704864 0.2966653439 0.05659485754) 102 199 1
(0.5932293886 0.2033853057 0.07004991285 0.1333353929) 12 24 2
(0.4092354578 0.2953822711 0.1792569089 0.1161253622) 72 84 1
(0.5726002062 0.1229306995 0.2136998969 0.09076919738) 310 608 1
(0.07489291621 0.167699042 0.2948544999 0.4625535419) 193 322 2
(0.4119914524 0.2940042738 0.1362080881 0.1577961857) 136 269 1
(0.8232074306 0.08839628471 0.06951094792 0.01888533679) 106 151 1
(0.5283722504 0.1868223464 0.04899152834 0.2358138748) 352 635 2
(0.8611182818 0.02248306403 0.06944085909 0.04695779505) 14 29 2
(0.1202325465 0.1955729847 0.4398837267 0.244310742) 153 302 2
(0.7308190109 0.1156438183 0.01894667624 0.1345904946) 83 106 2
(0.6917265443 0.01037038567 0.1541367279 0.1437663422) 480 936 1
(0.2048973495 0.3975513252 0.1200930013 0.277458324) 303 596 2
(0.3426162112 0.3286918944 0.09449899683 0.2341928976) 367 723 1
(0.08731658987 0.4563417051 0.0590774546 0.3972642505) 397 782 1
(0.2852344856 0.07384433973 0.3573827572 0.2835384175) 174 344 2
(0.3811438073 0.1151990127 0.3094280963 0.1942290836) 104 203 1
(0.2260201359 0.2416560665 0.3869899321 0.1453338656) 270 532 2
(0.02344624735 0.4882768763 0.1347187094 0.353558167) 146 288 2
(0.03835276543 0.1448139701 0.3360096472 0.4808236173) 304 598 1
(0.1054462066 0.4472768967 0.3406323345 0.1066445621) 12 24 2
(0.1659943273 0.4170028363 0.07076225867 0.3462405777) 510 992 2
(0.621011149 0.1894944255 0.1096042769 0.07989014862) 140 277 1
(0.008766458041 0.07845644229 0.4171603287 0.495616771) 13 26 1
(0.02709347442 0.2798416396 0.2066116232 0.4864532628) 459 845 2
(0.4823196949 0.0463220628 0.2125180898 0.2588401526) 201 396 1
(0.4401438371 0.1886283359 0.09129974551 0.2799280815) 215 423 1
(0.3943073443 0.3028463278 0.03635107756 0.2664952503) 340 667 2
(0.1230857245 0.281295793 0.1571613447 0.4384571378) 364 716 1
(0.01089592483 0.4945520376 0.1758432531 0.3187087845) 336 659 2
(0.1572412226 0.4213793887 0.2859809054 0.1353984833) 53 47 1
(0.1550862478 0.2915085891 0.130948287 0.4224568761) 13 1069 1
(0.3958683905 0.3020658048 0.01828532584 0.2837804789) 105 207 2
(0.230835471 0.2315237135 0.153058551 0.3845822645) 435 856 1
(0.7489402943 0.1161244607 0.1255298529 0.009405392121) 196 387 2
(0.07272617499 0.4636369125 0.2837325891 0.1799043234) 124 245 1
(0.2329168844 0.2464741264 0.3835415578 0.1370674314) 72 140 1
(0.2454912637 0.3772543682 0.2180517216 0.1592026466) 187 310 1
(0.1810967791 0.4094516105 0.3278995809 0.08155202952) 103 203 2
(0.4189555472 0.2322040729 0.2905222264 0.05831815347) 227 448 2
(0.4613154139 0.269342293 0.0814488032 0.1878934898) 198 391 1
(0.355978638 0.322010681 0.299487866 0.02252281507) 35 11 1
(0.3665241211 0.3167379395 0.1123358005 0.204402139) 279 547 2
(0.1004425682 0.4101771813 0.4497787159 0.03960153459) 189 370 1
(0.4210897203 0.2894551398 0.02789868706 0.2615564528) 315 562 1
(0.4488810594 0.2755594703 0.04289509371 0.2326643766) 36 71 2
(0.4290031424 0.2854984288 0.18862087 0.09687755875) 440 866 2
(0.7572657197 0.1213671402 0.04378480666 0.0775823335) 408 804 1
(0.6005483462 0.05776390181 0.1997258269 0.1419619251) 518 1006 1
(0.5054230729 0.1956139609 0.0516745026 0.2472884635) 72 142 1
(0.3304379374 0.3347810313 0.2642882807 0.07049275058) 27 52 2
(0.4518033068 0.2740983466 0.1318302504 0.1422680961) 309 608 2
(0.01608960468 0.4919551977 0.05598379868 0.435971399) 72 142 2
(0.2572627512 0.3713686244 0.03325221246 0.3381164119) 78 96 1
(0.7820862702 0.01537238901 0.1089568649 0.0935844759) 298 588 2
(0.691754058 0.04605500631 0.1080679647 0.154122971) 13 1069 1
(0.2536071017 0.3731964492 0.1222307428 0.2509657064) 347 684 1
(0.7049779106 0.02438237863 0.1231286661 0.1475110447) 247 486 1
(0.7236695851 0.1381652075 0.1352161871 0.002949020366) 199 334 1
(0.4577811004 0.1319010704 0.1392083794 0.2711094498) 395 719 2
(0.3789150332 0.1357918222 0.1747506612 0.3105424834) 352 693 1
(0.5489516595 0.2255241703 0.01771383083 0.2078103394) 430 788 1
(0.1230842834 0.1137763966 0.4384578583 0.3246814617) 95 188 2
(0.5961969209 0.1772359678 0.02466557179 0.2019015396) 94 185 1
(0.4125608117 0.2326614875 0.2937195942 0.06105810665) 278 548 2
(0.6491641286 0.1754179357 0.06556857007 0.1098493656) 218 371 1
(0.3947125036 0.1049404646 0.1977032836 0.3026437482) 100 139 2
(0.7123350067 0.003285603316 0.1438324966 0.1405468933) 484 944 1
(0.4477472375 0.2710179384 0.2761263812 0.005108442857) 427 838 1
(0.2297692357 0.3851153822 0.08795968712 0.297155695) 181 354 2
(0.5173303934 0.2088463905 0.2413348033 0.03248841283) 490 959 2
(0.3136969297 0.3431515352 0.03789078204 0.3052607531) 351 633 1
(0.4602620952 0.03000739851 0.2398615539 0.2698689524) 154 245 2
(0.5366590421 0.2228842615 0.231670479 0.00878621744) 544 2198 2
(0.02135958254 0.4893202087 0.1688749061 0.3204453027) 350 690 1
(0.2700911872 0.3649544064 0.3496475276 0.01530687874) 214 363 1
(0.8709077059 0.06454614706 0.05062052439 0.01392562267) 539 2226 1
(0.2741408219 0.3617823192 0.3629295891 0.001147269894) 177 347 1
(0.4387663328 0.2265576671 0.2806168336 0.05405916646) 366 718 1
(0.7718372863 0.08712861192 0.02695274491 0.1140813568) 356 701 1
(0.1101942229 0.2490219217 0.1958809668 0.4449028885) 5 1061 1
(0.02339315408 0.488303423 0.3342771232 0.1540262998) 187 366 2
(0.05615504875 0.4719224756 0.3599180275 0.1120044481) 399 786 1
(0.5015707134 0.1450242054 0.1041904379 0.2492146433) 539 1036 1
(0.1122588169 0.2274511102 0.2164194814 0.4438705916) 462 851 2
(0.5943622778 0.1048692158 0.2028188611 0.09794964528) 216 423 1
(0.2611999477 0.3256364026 0.3694000262 0.04376362352) 226 443 1
(0.3491780897 0.1176201039 0.3254109552 0.2077908512) 102 202 2
(0.3416975225 0.3291512388 0.1409627492 0.1881884896) 73 142 2
(0.0533693348 0.2354767587 0.4733153326 0.2378385739) 440 867 2
(0.8879503888 0.03022172606 0.02580307954 0.0560248056) 16 1072 1
(0.6244083295 0.1877958352 0.07856513927 0.109230696) 257 504 2
(0.2391984206 0.1578193195 0.2225814702 0.3804007897) 534 1030 1
(0.3707355112 0.3146322444 0.1501701173 0.1644621271) 488 952 2
(0.6868770435 0.09990150997 0.05665996827 0.1565614782) 371 672 2
(0.5093464033 0.1259290419 0.1193977565 0.2453267983) 85 110 2
(0.1951157282 0.1319805698 0.2704615661 0.4024421359) 250 434 2
(0.03006486425 0.4849675679 0.4121257049 0.072841863) 102 201 2
(0.33116161 0.334419195 0.1384683249 0.1959508701) 98 191 2
(0.2313983463 0.2372595041 0.1470413227 0.3843008269) 189 314 2
(0.09525216097 0.400337021 0.4523739195 0.0520368985) 452 886 1
(0.715788699 0.02164911306 0.1421056505 0.1204565375) 220 431 1
(0.229792752 0.385103624 0.1174678011 0.2676358229) 470 925 1
(0.1505252476 0.4247373762 0.2369777396 0.1877596365) 464 855 1
(0.1305604619 0.2917798398 0.4347197691 0.1429399293) 327 645 2
(0.2507895896 0.1815042679 0.3746052052 0.1931009373) 81 161 2
(0.2969349326 0.3515325337 0.206191812 0.1453407217) 380 746 2
(0.6501484008 0.04504458995 0.1298812097 0.1749257996) 268 470 2
(0.1412421382 0.4293789309 0.3725203966 0.05685853431) 47 93 2
(0.1457870667 0.4271064666 0.3425190571 0.08458740959) 218 429 2
(0.6008354258 0.1995822871 0.07522420355 0.1243580836) 124 186 1
(0.03809471697 0.3857364108 0.09521623075 0.4809526415) 312 556 2
(0.3714458041 0.314277098 0.1553095443 0.1589675537) 179 1046 2
(0.3499273783 0.1415875726 0.3250363108 0.1834487383) 77 150 1
(0.07272004545 0.4636399773 0.2666741975 0.1969657798) 151 298 1
(0.4547343598 0.1139863649 0.1586464552 0.2726328201) 342 615 2
(0.05322015236 0.06891422958 0.4733899238 0.4044756942) 539 2226 2
(0.510205977 0.2448970115 0.09439985853 0.150497153) 152 299 2
(0.0216341764 0.4891829118 0.3980572655 0.09112564632) 314 618 2
(0.3396489201 0.3301755399 0.2862344641 0.04394107587) 251 436 1
(0.04364247813 0.4781787609 0.1439053236 0.3342734373) 203 342 1
(0.3893552854 0.3053223573 0.04282576756 0.2624965897) 215 423 2
(0.666462128 0.01710638995 0.1496625461 0.166768936) 435 798 2
(0.6988745276 0.02796451381 0.1505627362 0.1225982224) 194 380 1
(0.170251276 0.06381052339 0.414874362 0.3510638386) 460 905 2
(0.5263697615 0.09198229914 0.1448328201 0.2368151192) 232 457 1
(0.3051147349 0.1986422857 0.1488003468 0.3474426325) 427 782 2
(0.03080490489 0.4845975476 0.04062827207 0.4439692755) 306 600 2
(0.08437423406 0.457812883 0.1666809672 0.2911319157) 113 221 2
(0.5965689479 0.201715526 0.1697467353 0.03196879077) 292 576 1
(0.06938615283 0.4627008455 0.4653069236 0.002606078053) 480 936 1
(0.03058464101 0.2436423336 0.4847076795 0.2410653459) 78 152 1
(0.04575145383 0.4577670991 0.01935717399 0.4771242731) 455 837 2
(0.3010616911 0.09709060624 0.3494691544 0.2523785482) 11 20 1
(0.1079427709 0.4460286145 0.4056310476 0.04039756696) 159 313 2
(0.1159392687 0.4420303657 0.1325653256 0.30946504) 419 825 1
(0.1357472407 0.4321263796 0.1331303718 0.2989960078) 412 809 2
(0.4699761834 0.2650119083 0.07642375651 0.1885881518) 237 465 2
(0.566671334 0.216664333 0.04895940558 0.1677049274) 348 627 1
(0.6742701716 0.05973605395 0.1031288603 0.1628649142) 428 784 2
(0.6074278874 0.03936634812 0.1569197082 0.1962860563) 259 510 1
(0.04837714895 0.4758114255 0.1585070261 0.3173043994) 190 316 1
(0.6832606018 0.01330673313 0.145062966 0.1583696991) 403 735 2
(0.6389331583 0.1805334209 0.1262541703 0.05427925055) 430 844 2
(0.7103112479 0.1448443761 0.02740520419 0.1174391719) 533 1001 1
(0.3637239259 0.3181380371 0.3171915149 0.0009465222143) 435 856 2
(0.3393254824 0.3294816859 0.0008555728613 0.3303372588) 438 862 1
(0.1580763279 0.0662418801 0.4209618361 0.354719956) 67 130 1
(0.1043701178 0.4478149411 0.06452648134 0.3832884597) 495 969 1
(0.4437600982 0.2781199509 0.1086959265 0.1694240244) 204 344 1
(0.6083623454 0.08952901208 0.1958188273 0.1062898152) 262 514 1
(0.5158092512 0.08367202561 0.2420953744 0.1584233488) 282 553 1
(0.3068418219 0.3465790891 0.1798103565 0.1667687325) 104 206 1
(0.3507328281 0.324633586 0.3223231949 0.002310391091) 453 888 2
(0.8634432304 0.06827838482 0.0274460805 0.04083230432) 52 45 1
(0.420408227 0.2897958865 0.2333727485 0.05642313803) 540 1036 2
(0.008703674969 0.4956481625 0.363826166 0.1318219965) 320 572 1
(0.3109971527 0.1511578691 0.1933435545 0.3445014236) 481 889 2
(0.0588320453 0.2608621109 0.4705839773 0.2097218665) 79 154 1
(0.5061117209 0.03264320414 0.2469441396 0.2143009354) 199 393 2
(0.2122081344 0.3938959328 0.2495776162 0.1443183166) 334 657 2
(0.3316770291 0.3341614854 0.1973468675 0.1368146179) 448 880 2
(0.03442567397 0.482787163 0.02698709281 0.4558000702) 71 141 1
(0.1161637428 0.0134960653 0.4419181286 0.4284220633) 102 202 2
(0.5949082442 0.03397550615 0.1685703718 0.2025458779) 156 249 2
(0.0339194174 0.1635613891 0.3194789022 0.4830402913) 56 53 2
(0.8002387037 0.08117900815 0.01870163998 0.09988064813) 156 249 2
(0.2327478129 0.09333193611 0.2902941574 0.3836260936) 42 83 1
(0.09922439333 0.4503878033 0.303224311 0.1471634923) 513 998 2
(0.1312556932 0.2229926154 0.211379538 0.4343721534) 309 550 2
(0.7157075235 0.1421462383 0.05700596502 0.08514027323) 163 319 2
(0.2692204885 0.3653897558 0.03725188772 0.3281378681) 189 372 2
(0.4547436042 0.248679051 0.02394914689 0.2726281979) 217 427 1
(0.122977376 0.3276482237 0.1108630883 0.438511312) 295 581 1
(0.1397077218 0.04524799419 0.3848981449 0.4301461391) 401 789 1
(0.1814163455 0.4092918272 0.3995557524 0.009736074827) 129 255 1
(0.4387866008 0.1450617711 0.1355449285 0.2806066996) 228 391 2
(0.14460208 0.3205873002 0.42769896 0.1071116598) 405 798 2
(0.8355821082 0.03328377496 0.0822089459 0.04892517095) 75 146 1
(0.08179119097 0.1926471722 0.4591044045 0.2664572324) 145 284 1
(0.5569960094 0.2009386127 0.2215019953 0.02056338266) 185 362 1
(0.415970102 0.1389019415 0.1531130075 0.292014949) 346 681 1
(0.623300131 0.1883499345 0.1811441701 0.007205764416) 141 220 1
(0.8746255236 0.002363372057 0.06032386614 0.0626872382) 103 145 2
(0.04843430378 0.4757828481 0.4366751085 0.03910773961) 505 980 2
(0.02173674096 0.2866124112 0.2025192183 0.4891316295) 422 830 1
(0.4716574952 0.2641712524 0.1882820768 0.07588917561) 403 791 2
(0.05602713784 0.4719864311 0.3477450228 0.1242414083) 296 584 1
(0.4957523889 0.08890075213 0.2521238056 0.1632230534) 42 81 1
(0.4135185394 0.2932407303 0.2056864561 0.08755427417) 483 942 2
(0.5154315812 0.07241620524 0.2422842094 0.1698680042) 195 382 1
(0.2946316528 0.03509509021 0.3175890834 0.3526841736) 52 103 1
(0.1577189776 0.4211405112 0.06807363779 0.3530668734) 417 821 2
(0.8031518672 0.01928011813 0.09842406639 0.07914394826) 250 493 2
(0.7391480441 0.04746209732 0.130425978 0.08296388064) 49 95 1
(0.04090014426 0.4751705646 0.004379363285 0.4795499279) 73 86 2
(0.1576942177 0.4211528912 0.1437958693 0.2773570218) 4 9 1
(0.7284830179 0.135758491 0.01412692478 0.1216315663) 38 17 1
(0.1342153826 0.4328923087 0.04296609714 0.3899262115) 258 508 2
(0.1052961805 0.1797919803 0.2675599295 0.4473519098) 346 623 2
(0.1439811892 0.172837421 0.2551719844 0.4280094054) 185 306 2
(0.05816576448 0.4709171178 0.3365921764 0.1343249413) 19 1075 2
(0.1037205079 0.00725331194 0.4408864341 0.448139746) 252 438 2
(0.4569342826 0.2150647111 0.05646814759 0.2715328587) 289 511 2
(0.4239204803 0.2342302757 0.05380948409 0.2880397598) 173 283 2
(0.437413315 0.2221852103 0.2812933425 0.05910813226) 138 270 1
(0.6892992911 0.1553503544 0.1120732357 0.04327711869) 320 630 2
(0.2148851647 0.2874988366 0.3925574177 0.1050585811) 229 449 1
(0.691139807 0.1544300965 0.04928444827 0.1051456482) 448 883 1
(0.08285377959 0.1959744876 0.2625986226 0.4585731102) 261 514 1
(0.5256134634 0.1059060198 0.2371932683 0.1312872484) 136 266 1
(0.5393498606 0.2303250697 0.2192011973 0.01112387238) 291 571 2
(0.347942824 0.2281747303 0.09785385769 0.326028588) 135 266 1
(0.2563903363 0.01481929729 0.3718048318 0.3569855345) 120 2182 2
(0.1865745829 0.3846191868 0.02209352171 0.4067127085) 227 389 2
(0.7618559977 0.1190720012 0.1144593213 0.004612679867) 258 506 2
(0.1853516076 0.4073241962 0.1199761978 0.2873479984) 67 74 1
(0.2172330321 0.391383484 0.3145067861 0.07687669787) 227 389 1
(0.2847128332 0.08563390464 0.3576435834 0.2720096788) 384 754 1
(0.0317879153 0.4841060424 0.2330577373 0.2510483051) 8 1064 2
(0.2138189537 0.3317358842 0.3930905231 0.06135463896) 218 430 2
(0.01544297618 0.4922785119 0.3516985333 0.1405799786) 215 421 2
(0.2754100905 0.2513465926 0.3622949548 0.1109483622) 253 499 2
(0.1049152853 0.00675113462 0.4475423574 0.4407912228) 223 437 1
(0.2682174378 0.1036870252 0.3658912811 0.2622042559) 113 221 1
(0.1238815194 0.125271648 0.4380592403 0.3127875923) 3 7 2
(0.5340347618 0.2329826191 0.08752969915 0.1454529199) 101 200 1
(0.2213980169 0.3893009916 0.1273896145 0.2619113771) 280 549 2
(0.05804112747 0.01661555862 0.4709794363 0.4543638776) 343 676 2
(0.08461907715 0.4365937958 0.02109666558 0.4576904614) 375 680 2
(0.05643124269 0.4717843787 0.209398995 0.2623853837) 316 622 2
(0.1687897613 0.2553000171 0.4156051194 0.1603051022) 410 808 2
(0.5197593377 0.2401203311 0.110496277 0.1296240541) 296 584 1
(0.1883610823 0.0435657124 0.4058194588 0.3622537464) 456 894 1
(0.5872196776 0.2063901612 0.07045713418 0.135933027) 482 891 1
(0.3620006255 0.3189996873 0.2068906098 0.1121090774) 495 917 1
(0.1269668701 0.158299364 0.278217201 0.436516565) 201 338 2
(0.1547744929 0.4226127536 0.1835742104 0.2390385432) 165 267 1
(0.2894538616 0.3552730692 0.1745865244 0.1806865447) 191 376 2
(0.3278604468 0.3360697766 0.1642941274 0.1717756493) 258 508 2
(0.2683635811 0.2383261759 0.1274920335 0.3658182094) 234 403 2
(0.3830217233 0.3084891384 0.2244305985 0.0840585399) 369 726 2
(0.3878445849 0.02947522953 0.3060777076 0.276602478) 45 90 2
(0.1576901037 0.4211549482 0.2987336751 0.122421273) 393 771 2
(0.4466770115 0.1807526602 0.09590883405 0.2766614942) 38 75 1
(0.5321582545 0.1608002943 0.07312057844 0.2339208728) 199 392 1
(0.4382159494 0.2808920253 0.1636413034 0.1172507219) 412 809 2
(0.3355390046 0.2685313654 0.06369913227 0.3322304977) 100 139 2
(0.381372211 0.07057752508 0.3093138945 0.2387363694) 71 138 1
(0.504669544 0.247665228 0.2149810335 0.03268419449) 168 331 2
(0.1649389316 0.4175305342 0.1175082236 0.3000223106) 141 220 1
(0.5987267927 0.2006366036 0.05115244558 0.149484158) 409 803 2
(0.4805928347 0.01574728465 0.243956298 0.2597035826) 364 716 1
(0.06113833071 0.4694308346 0.2187872332 0.2506436015) 245 424 1
(0.0266492329 0.4866753835 0.3302784414 0.1563969422) 380 690 1
(0.04883065512 0.4755846724 0.03327539732 0.4423092751) 239 469 2
(0.1546634929 0.1071694204 0.3154988332 0.4226682536) 342 615 2
(0.05442734772 0.4727863261 0.1975309392 0.2752553869) 518 1007 2
(0.6438251575 0.077025116 0.1010623052 0.1780874212) 153 243 2
(0.7110893811 0.04904956367 0.09540574577 0.1444553094) 347 625 2
(0.1986893299 0.400655335 0.1410977903 0.2595575448) 346 682 1
(0.3481911904 0.3259044048 0.1426344154 0.1832699894) 506 985 1
(0.6870745071 0.0562335326 0.1002292139 0.1564627465) 41 81 1
(0.1134069955 0.3719656231 0.07133087911 0.4432965022) 279 491 2
(0.3059663689 0.009033102391 0.3379837132 0.3470168156) 286 563 1
(0.2675180677 0.1358336391 0.3662409662 0.2304073271) 245 480 1
(0.07139767012 0.4643011649 0.1012995293 0.3630016357) 358 647 1
(0.2711271648 0.3462143623 0.3644364176 0.0182220553) 489 954 1
(0.1177937622 0.4411031189 0.09900623974 0.3420968792) 263 516 2
(0.07328952905 0.4284985078 0.03485672764 0.4633552355) 0 1056 1
(0.09017756167 0.06426062819 0.390650591 0.4549112192) 338 665 1
(0.04056771055 0.3924120987 0.08730404601 0.4797161447) 510 951 2
(0.04033037753 0.4605582087 0.4798348112 0.01927660249) 433 850 1
(0.3684104801 0.31579476 0.1351039835 0.1806907764) 311 554 1
(0.1094314195 0.4452842902 0.01077799744 0.4345062928) 324 638 2
(0.09474872533 0.4526256373 0.3991318438 0.05349379356) 97 189 2
(0.609289544 0.195355228 0.1396557756 0.05569945244) 8 14 2
(0.6763669239 0.161816538 0.07308697898 0.08872955906) 42 83 2
(0.03614003549 0.2534456218 0.4819299823 0.2284843604) 185 362 1
(0.4040465128 0.2979767436 0.2396561524 0.0583205912) 249 490 2
(0.08360223407 0.3926471197 0.458198883 0.0655517633) 445 877 2
(0.03573495301 0.1404097557 0.3417227678 0.4821325235) 68 76 2
(0.5106605049 0.2042716139 0.2446697475 0.04039813363) 43 83 1
(0.02433207864 0.4878339607 0.2459131932 0.2419207675) 265 522 2
(0.4029098011 0.006742058445 0.291803041 0.2985450995) 488 954 1
(0.1698356376 0.04395156593 0.4150821812 0.3711306153) 67 130 1
(0.08404345751 0.4579782712 0.1009544944 0.3570237768) 170 335 2
(0.6147276256 0.1926361872 0.1220441873 0.07059199988) 463 910 2
(0.01319224997 0.493403875 0.05589595907 0.4375079159) 221 433 2
(0.2517512468 0.3741243766 0.2126308984 0.1614934782) 355 699 2
(0.5378589973 0.2310705013 0.0581761704 0.1728943309) 13 26 2
(0.3687724826 0.2484878096 0.06712594906 0.3156137587) 75 90 2
(0.1828884228 0.2295095643 0.1790462243 0.4085557886) 395 719 2
(0.05412892666 0.2476730153 0.2252625214 0.4729355367) 95 129 2
(0.1919291983 0.4040354008 0.3899563942 0.01407900664) 478 2204 2
(0.4328659967 0.1306852699 0.1528817318 0.2835670017) 100 197 1
(0.1236999114 0.4381500443 0.2801399705 0.1580100738) 220 431 2
(0.04145607485 0.4792719626 0.2861901935 0.1930817691) 70 80 1
(0.1495369084 0.0722139147 0.3530176311 0.4252315458) 130 256 1
(0.1578320391 0.4210839805 0.204228986 0.2168549945) 312 556 1
(0.1686014377 0.08943004797 0.4156992812 0.3262692332) 401 790 2
(0.07451254616 0.1642021029 0.4627437269 0.298541624) 167 327 1
(0.4610649642 0.1962842357 0.2694675179 0.07318328216) 350 687 1
(0.566135466 0.216932267 0.06922149231 0.1477107747) 297 583 2
(0.7019454267 0.123375757 0.02565152962 0.1490272866) 489 905 2
(0.6089494329 0.1955252836 0.1395378986 0.05598738497) 366 662 1
(0.5278981442 0.1738586116 0.0621923163 0.2360509279) 66 130 1
(0.3388044656 0.2279945811 0.1026031861 0.3305977672) 227 447 1
(0.7381846128 0.1309076936 0.0554584459 0.0754492477) 106 151 1
(0.1473837554 0.4263081223 0.03051912523 0.395788997) 117 232 1
(0.1033885759 0.07974773277 0.3685579793 0.4483057121) 200 394 1
(0.4208103402 0.2895948299 0.01734042162 0.2722544083) 143 282 2
(0.1296050944 0.2306910071 0.4351974528 0.2045064457) 372 730 1
(0.3060472223 0.1064487757 0.3469763889 0.2405276132) 25 51 2
(0.06558211563 0.03513252801 0.4320764142 0.4672089422) 42 25 2
(0.3930536386 0.3034731807 0.2918488226 0.01162435809) 279 547 2
(0.2808557047 0.3595721477 0.1516148011 0.2079573465) 71 140 2
(0.8626949144 0.01313676541 0.05551577738 0.06865254279) 349 687 1
(0.7154297477 0.1422555253 2.960090968e-05 0.1422851262) 316 564 2
(0.3354598523 0.3322700738 0.3016204504 0.03064962347) 224 439 2
(0.5484796389 0.2257601806 0.08761222799 0.1381479526) 57 114 1
(0.2605883651 0.3697058175 0.002244233918 0.3674615835) 464 855 1
(0.6324533956 0.07191123061 0.1118620716 0.1837733022) 351 633 2
(0.03099164857 0.4845041757 0.2274742386 0.2570299372) 16 30 2
(0.07437341479 0.2828533047 0.1799599879 0.4628132926) 381 750 1
(0.04466552464 0.4776672377 0.4366611044 0.04100613326) 72 84 1
(0.0365481147 0.4817259427 0.02912938358 0.4525965591) 262 514 2
(0.4896363391 0.2551818305 0.2170123964 0.03816943405) 16 33 1
(0.03925688891 0.4803715555 0.06903465748 0.4113368981) 403 791 2
(0.04376704067 0.4781164797 0.1669660273 0.3111504523) 395 777 2
(0.5271813121 0.2364093439 0.06817221981 0.1682371241) 499 974 2