/*--------------------------------*- C++ -*----------------------------------*\
  =========                 |
  \\      /  F ield         | OpenFOAM: The Open Source CFD Toolbox
   \\    /   O peration     | Website:  https://openfoam.org
    \\  /    A nd           | Version:  7
     \\/     M anipulation  |
\*---------------------------------------------------------------------------*/
FoamFile
{
    version     2.0;
    format      ascii;
    class       volScalarField;
    location    "0.01";
    object      dsmcRhoNMean;
}
// * * * * * * * * * * * * * * * * * * * * * * * * * * * * * * * * * * * * * //

dimensions      [0 -3 0 0 0 0 0];

internalField   nonuniform List<scalar> 
654
(
7.3364
9.4704
9.5112
9.4684
9.5144
9.4562
9.438
9.455
9.44
9.4678
9.4782
9.4616
9.4766
9.4512
9.4786
9.4706
9.4918
9.697
10.2708
12.867
7.4372
9.5638
9.6128
9.5944
9.627
9.646
9.6246
9.5908
9.617
9.565
9.5554
9.5346
9.533
9.53
9.5286
9.633
9.7236
9.9016
10.5818
12.3578
7.437
9.5336
9.5714
9.5774
9.5802
9.5624
9.5774
9.5564
9.5274
9.5762
9.592
9.5816
9.6046
9.6332
9.6502
9.6936
9.7278
9.9398
10.3644
11.4552
7.498
9.5802
9.648
9.6256
9.6116
9.6014
9.6062
9.6266
9.645
9.623
9.5864
9.57
9.5896
9.5384
9.5208
9.5948
9.7068
9.8784
10.2004
10.888
7.4318
9.572
9.6058
9.594
9.6104
9.623
9.5926
9.5926
9.6054
9.5906
9.5952
9.6704
9.69
9.68
9.66
9.6838
9.7168
9.8608
10.1118
10.501
7.4648
9.5826
9.6658
9.5668
9.5506
9.5766
9.5646
9.5328
9.4994
9.5646
9.6042
9.6328
9.6668
9.707
9.7522
9.7618
9.7928
9.8494
10.04
10.2686
7.459
9.5368
9.66
9.6764
9.687
9.626
9.692
9.768
9.7628
9.6698
9.6448
9.5798
9.6158
9.5816
9.5942
9.6148
9.6846
9.7652
9.847
10.0456
7.4334
9.587
9.577
9.549
9.5952
9.591
9.569
9.5252
9.5672
9.6508
9.6604
9.664
9.6704
9.6392
9.6904
9.7216
9.6888
9.7016
9.7858
9.9208
7.4672
9.6178
9.626
9.613
9.608
9.6818
9.706
9.7024
9.7178
9.683
9.6628
9.648
9.6496
9.6188
9.6104
9.5902
9.6496
9.733
9.7766
9.902
7.456
9.5852
9.6754
9.7086
9.6634
9.5734
9.5686
9.5658
9.5342
9.526
9.5048
9.5726
9.5732
9.5826
9.582
9.6072
9.626
9.6222
9.6992
9.749
7.4442
9.5394
9.5302
9.5224
9.5272
9.5856
9.539
9.5486
9.531
9.5438
9.5528
9.5226
9.554
9.5888
9.6646
9.5996
9.657
9.703
9.7096
9.762
7.4514
9.5938
9.6418
9.6464
9.6612
9.6322
9.5912
9.6152
9.6108
9.6574
9.6598
9.662
9.6768
9.6746
9.6624
9.6512
9.6028
9.6046
9.6128
9.6902
7.4212
9.5694
9.5948
9.5156
9.5702
9.5864
9.6526
9.7202
9.734
9.6844
9.6808
9.6378
9.6394
9.6244
9.5852
9.6126
9.6546
9.6252
9.6516
9.664
7.4688
9.5682
9.6358
9.6704
9.6612
9.6206
9.5906
9.5412
9.5434
9.5844
9.5674
9.5584
9.5328
9.5216
9.543
9.5618
9.5566
9.5766
9.669
9.6388
7.4228
9.5732
9.5798
9.5406
9.544
9.519
9.5384
9.5322
9.5078
9.48
9.4894
9.589
9.621
9.6322
9.669
9.6664
9.6886
9.6338
9.6262
9.6596
7.4302
9.582
9.626
9.641
9.5854
9.6438
9.6682
9.6646
9.664
9.6358
9.6644
9.6204
9.6098
9.6524
9.598
9.5878
9.5696
9.6064
9.6644
9.6018
7.4076
9.4872
9.5282
9.4862
9.5588
9.5768
9.5756
9.596
9.6888
9.6254
9.5296
9.52
9.5032
9.5454
9.5152
9.5708
9.6072
9.5986
9.594
9.59
7.5054
9.5358
9.5734
9.613
9.5682
9.5442
9.507
9.478
9.3856
9.4804
9.5136
9.5938
9.5736
9.5818
9.6014
9.5792
9.5436
9.6056
9.6024
9.67
7.4224
9.577
9.6016
9.6196
9.5606
9.569
9.5236
9.5784
9.5464
9.5562
9.5764
9.5702
9.5408
9.5472
9.5576
9.5856
9.5894
9.5278
9.4852
9.454
7.5004
9.6736
9.7404
9.6908
9.6758
9.7048
9.703
9.728
9.715
9.739
9.6708
9.665
9.6306
9.6078
9.6244
9.584
9.5728
9.5778
9.613
9.597
7.4156
9.4478
9.5148
9.5626
9.5812
9.6064
9.5678
9.6
9.6124
9.5646
9.6444
9.628
9.6124
9.6444
9.657
9.6242
9.6762
9.6744
9.6546
9.6424
7.4258
9.5636
9.5984
9.577
9.57
9.5994
9.6204
9.6056
9.6046
9.5838
9.5826
9.5744
9.6176
9.6246
9.6774
9.6744
9.7302
9.6802
9.6566
9.6492
23.119
26.601
28.0454
28.4458
28.2466
28.4872
28.4244
28.3504
28.2844
28.2738
15.8082
18.6494
20.7744
22.3388
23.2436
24.3588
24.4698
24.4604
24.7714
24.9022
13.1478
15.1862
16.9134
18.588
19.9918
21.0922
21.8046
22.3744
22.6952
23.1432
11.972
12.9452
14.3916
15.6892
16.9066
18.0914
19.3134
20.2152
20.57
21.1842
11.1236
11.7964
12.6536
13.6594
14.8094
16.005
17.1008
18.21
19.0454
19.585
10.573
10.9986
11.5742
12.3676
13.1396
13.9336
15.1336
16.1388
17.0592
17.8966
10.2702
10.6078
10.9114
11.53
12.04
12.6826
13.4352
14.2802
15.3622
16.1498
10.093
10.2518
10.4812
10.7974
11.1596
11.5488
12.1592
12.9512
13.7364
14.6232
9.9704
10.0344
10.1
10.3658
10.7692
11.1708
11.5496
11.9598
12.5232
13.0732
9.8094
9.9758
10.0256
10.1478
10.345
10.5434
10.792
11.1424
11.5882
12.1212
9.765
9.8308
9.884
9.9342
9.9496
10.163
10.3134
10.6672
10.95
11.3358
9.7252
9.672
9.6928
9.7556
9.7956
9.864
9.9678
10.1344
10.2648
10.5556
9.6272
9.6222
9.5882
9.6024
9.6734
9.8046
9.9002
9.978
10.1768
10.3288
9.6202
9.6004
9.627
9.658
9.6624
9.5842
9.6118
9.7014
9.7806
9.7712
9.706
9.626
9.5628
9.4566
9.4814
9.4454
9.4572
9.4762
9.509
9.595
9.5332
9.4898
9.5064
9.4402
9.4102
9.3922
9.3464
9.3536
9.4482
9.5138
9.5898
9.5732
9.478
9.4518
9.4294
9.4036
9.3946
9.334
9.2926
9.2886
9.6048
9.5058
9.4514
9.4172
9.3456
9.2972
9.2644
9.1876
9.1382
9.1276
9.5052
9.46
9.402
9.342
9.2808
9.2154
9.2486
9.2214
9.1164
9.1646
9.5892
9.5288
9.4498
9.388
9.3428
9.2862
9.1974
9.1876
9.1878
9.0814
9.592
9.5322
9.4872
9.4316
9.3528
9.27
9.228
9.1614
9.111
9.0838
9.6098
9.567
9.487
9.4608
)
;

boundaryField
{
    flow
    {
        type            calculated;
        value           nonuniform List<scalar> 
42
(
7.3364
7.4372
7.437
7.498
7.4318
7.4648
7.459
7.4334
7.4672
7.456
7.4442
7.4514
7.4212
7.4688
7.4228
7.4302
7.4076
7.5054
7.4224
7.5004
7.4156
7.4258
7.3364
9.4704
9.5112
9.4684
9.5144
9.4562
9.438
9.455
9.44
9.4678
9.4782
9.4616
9.4766
9.4512
9.4786
9.4706
9.4918
9.697
10.2708
12.867
)
;
    }
    obstacle
    {
        type            calculated;
        value           nonuniform List<scalar> 10(23.119 26.601 28.0454 28.4458 28.2466 28.4872 28.4244 28.3504 28.2844 28.2738);
    }
    frontAndBack
    {
        type            empty;
    }
    procBoundary0to1
    {
        type            processor;
        value           nonuniform List<scalar> 
21
(
27.5386
24.5412
22.9538
21.6602
20.1444
18.5016
16.8276
15.487
13.8212
12.6298
11.795
10.963
10.5978
9.8596
9.8024
9.5272
9.2828
9.1288
9.141
9.0012
9.1256
)
;
    }
    procBoundary0to2
    {
        type            processor;
        value           nonuniform List<scalar> 
31
(
7.4626
9.5548
9.634
9.6022
9.5926
9.58
9.5936
9.6402
9.6896
9.6668
9.6948
9.7236
9.6666
9.6344
9.6302
9.5376
9.524
9.5712
9.6048
9.622
9.3996
9.3238
9.2892
9.1958
9.1354
9.1348
9.577
9.522
9.381
9.3996
9.2856
)
;
    }
}


// ************************************************************************* //
