/*--------------------------------*- C++ -*----------------------------------*\
  =========                 |
  \\      /  F ield         | OpenFOAM: The Open Source CFD Toolbox
   \\    /   O peration     | Website:  https://openfoam.org
    \\  /    A nd           | Version:  7
     \\/     M anipulation  |
\*---------------------------------------------------------------------------*/
FoamFile
{
    version     2.0;
    format      ascii;
    class       volScalarField;
    location    "0.01";
    object      dsmcSigmaTcRMax;
}
// * * * * * * * * * * * * * * * * * * * * * * * * * * * * * * * * * * * * * //

dimensions      [0 3 -1 0 0 0 0];

internalField   nonuniform List<scalar> 
654
(
5.946550432e-16
5.956779766e-16
6.601222141e-16
6.35938766e-16
6.090378118e-16
6.007485049e-16
6.623885915e-16
7.053870988e-16
6.119008101e-16
7.514708388e-16
6.266411189e-16
6.036902606e-16
7.623160186e-16
6.43953575e-16
7.460368481e-16
6.276841214e-16
6.473708734e-16
7.374230692e-16
6.703834324e-16
7.163252914e-16
6.243350285e-16
6.278447887e-16
6.164691203e-16
6.105725566e-16
5.948466848e-16
6.199560003e-16
6.143812208e-16
6.097998787e-16
6.081482585e-16
6.082958285e-16
6.428502567e-16
6.256500199e-16
6.466513432e-16
6.483246749e-16
6.226646029e-16
6.184285408e-16
6.401616143e-16
6.376963739e-16
6.905962079e-16
6.518082896e-16
6.925632679e-16
6.068609925e-16
5.6243621e-16
6.0360946e-16
6.590564847e-16
6.341015481e-16
6.191806679e-16
6.201375952e-16
5.980817866e-16
6.637248818e-16
6.121460544e-16
6.164563385e-16
6.321281993e-16
6.497655561e-16
6.085814646e-16
6.78101621e-16
6.198984448e-16
6.697768759e-16
6.688785326e-16
7.446691556e-16
6.452113256e-16
6.361882402e-16
6.401015007e-16
6.400995163e-16
6.079245864e-16
6.188944887e-16
6.169738257e-16
6.629548884e-16
6.515014082e-16
6.050007557e-16
6.534890003e-16
6.198525145e-16
6.833734712e-16
6.19717247e-16
6.153290698e-16
6.306277787e-16
6.938650924e-16
6.875395675e-16
8.315381562e-16
6.769084616e-16
6.049482862e-16
6.191385244e-16
6.039037914e-16
6.025668194e-16
6.293468646e-16
6.025072788e-16
6.230446021e-16
6.237494228e-16
6.86533948e-16
6.110198303e-16
6.139024268e-16
6.368625923e-16
6.557215606e-16
6.648379739e-16
6.153116119e-16
6.394318482e-16
6.704892778e-16
6.492968987e-16
6.738787451e-16
7.787975053e-16
5.994629698e-16
6.466026624e-16
6.051060779e-16
6.018909591e-16
6.178927434e-16
6.033452143e-16
6.142167401e-16
6.703894753e-16
6.337898351e-16
5.95528298e-16
6.36371131e-16
6.973491134e-16
6.654219189e-16
6.637704515e-16
6.248296957e-16
6.421336143e-16
6.470055001e-16
6.677178718e-16
6.35654907e-16
7.135489082e-16
6.360081259e-16
5.876302918e-16
5.907510885e-16
6.297505951e-16
6.340276737e-16
6.15225956e-16
6.137713955e-16
6.458391784e-16
5.996637458e-16
6.010770766e-16
6.224980028e-16
6.085913743e-16
6.591791603e-16
6.757605485e-16
6.329895929e-16
6.577871192e-16
7.183391691e-16
6.835939251e-16
6.481553781e-16
6.42468276e-16
6.016637742e-16
5.985532401e-16
6.049496136e-16
5.862511884e-16
6.170489122e-16
6.124443093e-16
6.323655771e-16
6.340960309e-16
6.367276981e-16
6.155866505e-16
6.1124762e-16
6.201539164e-16
5.978064365e-16
6.408371927e-16
6.040638754e-16
6.620615305e-16
6.241923039e-16
6.795094916e-16
6.848863246e-16
7.16478488e-16
6.568239561e-16
5.89515598e-16
6.230280085e-16
6.238197523e-16
6.05440599e-16
6.167809681e-16
5.959649245e-16
6.776108752e-16
6.163186608e-16
6.570599782e-16
6.20446626e-16
6.523756347e-16
6.395416345e-16
6.485939741e-16
6.206213883e-16
6.350861868e-16
6.369524971e-16
6.937024361e-16
6.930231041e-16
6.543601606e-16
6.094766816e-16
6.168590817e-16
6.058175244e-16
5.841926855e-16
6.021034077e-16
6.273345915e-16
5.93626438e-16
6.163923186e-16
6.569740202e-16
6.347950304e-16
6.197284015e-16
5.996121938e-16
6.444081824e-16
6.592927814e-16
6.640398438e-16
6.292555614e-16
6.628598917e-16
6.219657358e-16
6.189709706e-16
6.835861141e-16
6.104395663e-16
6.518111118e-16
5.946625231e-16
6.046063283e-16
5.889898588e-16
6.993262895e-16
6.161872042e-16
6.378545673e-16
6.025294927e-16
6.903120963e-16
6.546390359e-16
6.404222032e-16
6.151719046e-16
6.417293303e-16
6.518796122e-16
6.223588966e-16
6.812371414e-16
6.391590499e-16
6.662312513e-16
6.56693645e-16
6.551255091e-16
6.182302028e-16
5.888219521e-16
6.429218734e-16
6.085370567e-16
6.408733733e-16
6.121752829e-16
6.493403872e-16
6.368341379e-16
6.334387919e-16
6.203150146e-16
6.603521661e-16
6.475656203e-16
6.548576431e-16
5.916485725e-16
6.895044995e-16
6.328495851e-16
6.845896846e-16
6.428265991e-16
6.635137349e-16
6.074161352e-16
5.945574521e-16
6.558000928e-16
6.093122515e-16
6.328323714e-16
6.664975837e-16
5.892560966e-16
6.484569302e-16
6.103579724e-16
6.511781918e-16
6.466368402e-16
6.606775232e-16
5.91295439e-16
6.092079328e-16
6.050018334e-16
6.67854688e-16
6.739191695e-16
6.883299534e-16
6.947552701e-16
6.720194152e-16
6.080615526e-16
6.162727816e-16
6.223386487e-16
6.005407732e-16
6.601845043e-16
6.117742006e-16
6.323182794e-16
6.206431826e-16
6.219771639e-16
6.099427681e-16
6.438768864e-16
6.042549186e-16
6.818038615e-16
6.541167086e-16
6.177785608e-16
6.395541336e-16
6.714879531e-16
6.86579959e-16
6.743543971e-16
6.420570514e-16
6.145207378e-16
6.653370864e-16
6.23591478e-16
5.990227299e-16
6.146209871e-16
6.183645362e-16
6.034252187e-16
6.156756443e-16
6.483571376e-16
5.83178316e-16
6.0806205e-16
6.128448927e-16
5.862652001e-16
6.551532182e-16
6.067855594e-16
6.206648935e-16
6.729839268e-16
6.528274755e-16
6.783359744e-16
6.44324215e-16
6.392958018e-16
6.036540783e-16
6.037522614e-16
5.955592708e-16
6.394076921e-16
6.2489432e-16
6.463115083e-16
6.123355326e-16
6.062477297e-16
6.437195535e-16
6.401996104e-16
6.403844024e-16
6.453322625e-16
6.295621314e-16
6.330364829e-16
6.199141668e-16
6.599447978e-16
6.518289583e-16
7.115940379e-16
6.593092694e-16
6.51900498e-16
7.012877032e-16
6.226029332e-16
6.574674048e-16
5.985985324e-16
6.539108189e-16
6.98680091e-16
6.475110227e-16
6.16803847e-16
6.372896157e-16
6.354606714e-16
6.288122928e-16
6.302245815e-16
6.049466056e-16
6.374703077e-16
6.375732993e-16
6.189690863e-16
6.047603873e-16
6.821671469e-16
6.383647615e-16
6.053832361e-16
6.654098569e-16
6.539238893e-16
6.683753779e-16
6.087106375e-16
6.610472858e-16
6.097129889e-16
6.520028041e-16
6.44038661e-16
6.426883465e-16
6.531177682e-16
6.057553026e-16
6.401251353e-16
6.034791536e-16
6.60649604e-16
6.453884539e-16
6.263746592e-16
6.475689651e-16
6.492245703e-16
6.284622694e-16
5.927874584e-16
6.166515376e-16
5.823164715e-16
6.258380941e-16
6.01624777e-16
6.21465408e-16
6.355255465e-16
6.186227018e-16
6.471266131e-16
6.189158697e-16
6.069459952e-16
6.168476892e-16
6.427200637e-16
6.391061744e-16
6.219906414e-16
7.230830214e-16
6.847003227e-16
7.142906267e-16
6.431335993e-16
6.79457722e-16
6.077139792e-16
7.039133143e-16
6.437821776e-16
6.135982698e-16
6.014790125e-16
6.339296275e-16
6.330110868e-16
6.05966255e-16
6.148002519e-16
6.642939754e-16
6.653019674e-16
6.173934284e-16
6.658541699e-16
6.432645401e-16
6.347793407e-16
6.665906439e-16
6.314811405e-16
6.599574359e-16
6.273794063e-16
6.487485148e-16
5.903880307e-16
6.255142989e-16
6.263094945e-16
6.257595005e-16
6.187399548e-16
6.10347613e-16
6.054462801e-16
5.929539907e-16
6.005663759e-16
6.516060561e-16
6.345980007e-16
6.293854803e-16
6.120341364e-16
6.346989768e-16
6.475942499e-16
6.192605011e-16
6.355545857e-16
6.630319157e-16
6.68544058e-16
6.432238708e-16
6.345791422e-16
6.360463615e-16
6.483880972e-16
5.961604739e-16
6.545732699e-16
5.974036966e-16
6.278571628e-16
6.503156445e-16
6.532417654e-16
6.766122769e-16
6.461203934e-16
6.678265118e-16
6.08261572e-16
6.269706011e-16
6.243281546e-16
6.477848906e-16
6.310876626e-16
6.719741401e-16
6.502460015e-16
6.610574829e-16
7.222927994e-16
8.445895963e-16
7.532392756e-16
8.083284946e-16
8.018689122e-16
8.131048853e-16
7.651834848e-16
7.580078981e-16
7.671402661e-16
8.07758569e-16
7.2562476e-16
7.369576669e-16
7.997962673e-16
7.019602936e-16
7.445560165e-16
7.674585479e-16
7.787976193e-16
7.984194853e-16
8.200646584e-16
8.104916577e-16
7.347348464e-16
7.179610809e-16
6.872467611e-16
8.155660629e-16
7.521289833e-16
7.038545893e-16
7.748868844e-16
7.440072805e-16
7.669324047e-16
7.532009478e-16
7.232486846e-16
7.175430929e-16
7.439098059e-16
7.362191489e-16
6.434462789e-16
8.315054913e-16
6.982800403e-16
6.807107058e-16
7.333287214e-16
7.558093144e-16
6.644732763e-16
6.459989868e-16
7.818101833e-16
8.10127818e-16
6.485866078e-16
6.947651161e-16
6.796934369e-16
7.468385479e-16
7.758697282e-16
7.521128814e-16
6.599428571e-16
6.505703864e-16
6.958720409e-16
6.638233332e-16
6.95715658e-16
6.562269239e-16
6.774850936e-16
6.886176797e-16
7.69149608e-16
6.62796404e-16
6.803217467e-16
6.668134441e-16
7.146372126e-16
7.116730307e-16
6.742212639e-16
6.647191243e-16
7.657280087e-16
7.949666448e-16
7.017343575e-16
6.686417541e-16
6.689545771e-16
6.297215766e-16
7.234560474e-16
6.441022755e-16
6.826026432e-16
7.003539793e-16
7.047360523e-16
6.907752661e-16
6.648556917e-16
7.158155313e-16
6.428768128e-16
6.167521784e-16
6.426720993e-16
6.286456491e-16
6.631930472e-16
6.348357136e-16
6.858565142e-16
6.5779677e-16
6.942557679e-16
6.57260493e-16
6.441978661e-16
6.73600139e-16
7.387306489e-16
7.736153811e-16
6.223715548e-16
6.438000643e-16
6.898082607e-16
6.670732076e-16
7.11435982e-16
6.416396603e-16
6.857008907e-16
6.493277984e-16
7.196939736e-16
6.442007257e-16
7.03719234e-16
6.534204456e-16
6.454251278e-16
6.457455296e-16
7.174128902e-16
6.619536782e-16
6.977941141e-16
6.784471351e-16
6.449346588e-16
6.200751533e-16
7.175049213e-16
6.689908302e-16
6.571108627e-16
6.848397513e-16
6.391232922e-16
6.917993297e-16
6.640956031e-16
6.52115715e-16
6.403951336e-16
6.174846531e-16
6.829598679e-16
6.2689319e-16
6.786939674e-16
6.428789122e-16
7.486589836e-16
6.350174317e-16
6.265784548e-16
6.668057664e-16
6.413000078e-16
6.351469664e-16
6.400631435e-16
6.459657879e-16
6.794877373e-16
6.378341541e-16
6.252738673e-16
6.3360501e-16
7.230174559e-16
6.817196836e-16
6.165136004e-16
6.338728095e-16
6.709971827e-16
6.731990994e-16
6.034596234e-16
7.000694143e-16
7.059734521e-16
6.672869929e-16
6.135191565e-16
6.511325734e-16
6.231453076e-16
7.123690744e-16
6.529879955e-16
6.54924227e-16
6.90570339e-16
7.150503032e-16
6.003857086e-16
6.458605795e-16
6.539777056e-16
6.767267472e-16
6.068855872e-16
6.370545117e-16
6.288434181e-16
6.270612779e-16
6.566509413e-16
6.730429713e-16
6.556519846e-16
6.295025987e-16
6.375761257e-16
6.621650416e-16
6.281936573e-16
6.494599922e-16
6.177202457e-16
6.478950393e-16
7.054255909e-16
7.232632487e-16
6.635804845e-16
6.492124844e-16
6.283151296e-16
6.303227824e-16
6.589061504e-16
6.310791394e-16
6.787931122e-16
6.898776415e-16
6.648530782e-16
6.511188515e-16
6.405071846e-16
7.192625717e-16
6.252710142e-16
6.396673548e-16
6.405139571e-16
6.916478016e-16
6.574638106e-16
6.38325172e-16
6.26827397e-16
6.622401112e-16
6.543955824e-16
6.509838769e-16
6.136402061e-16
6.316605424e-16
6.205981985e-16
6.499203361e-16
6.247519384e-16
6.78377392e-16
6.45030868e-16
6.317614249e-16
6.622056524e-16
6.446571489e-16
6.28913956e-16
6.590384399e-16
6.139526871e-16
6.618136422e-16
)
;

boundaryField
{
    flow
    {
        type            zeroGradient;
    }
    obstacle
    {
        type            zeroGradient;
    }
    frontAndBack
    {
        type            empty;
    }
    procBoundary0to1
    {
        type            processor;
        value           nonuniform List<scalar> 
21
(
8.10224316e-16
7.88481101e-16
6.978341046e-16
7.000370419e-16
6.695574525e-16
7.966964978e-16
6.722368914e-16
6.70566711e-16
6.62904834e-16
7.155760714e-16
6.53407328e-16
6.346417347e-16
6.588048685e-16
6.658447449e-16
6.785507061e-16
6.763467459e-16
6.594168382e-16
6.435716866e-16
6.368149918e-16
6.539816033e-16
6.409199555e-16
)
;
    }
    procBoundary0to2
    {
        type            processor;
        value           nonuniform List<scalar> 
31
(
6.170807419e-16
6.690923585e-16
6.24677936e-16
6.197883827e-16
6.244501248e-16
6.089535106e-16
6.030787514e-16
6.852089164e-16
6.052240023e-16
6.278512914e-16
6.413235037e-16
6.555246394e-16
6.124127744e-16
6.543175546e-16
6.354268439e-16
6.639017468e-16
6.657351044e-16
6.239446847e-16
6.242847538e-16
6.651673103e-16
6.484375721e-16
6.518428673e-16
6.82376812e-16
6.5825718e-16
6.509011732e-16
6.672885938e-16
5.98465171e-16
6.60857031e-16
6.762225734e-16
6.484375721e-16
6.460161777e-16
)
;
    }
}


// ************************************************************************* //
