/*--------------------------------*- C++ -*----------------------------------*\
  =========                 |
  \\      /  F ield         | OpenFOAM: The Open Source CFD Toolbox
   \\    /   O peration     | Website:  https://openfoam.org
    \\  /    A nd           | Version:  7
     \\/     M anipulation  |
\*---------------------------------------------------------------------------*/
FoamFile
{
    version     2.0;
    format      ascii;
    class       volVectorField;
    location    "0.01";
    object      fD;
}
// * * * * * * * * * * * * * * * * * * * * * * * * * * * * * * * * * * * * * //

dimensions      [1 -1 -2 0 0 0 0];

internalField   uniform (0 0 0);

boundaryField
{
    flow
    {
        type            zeroGradient;
    }
    obstacle
    {
        type            calculated;
        value           nonuniform List<vector> 10((3.155769106 -2.535904516 -0.05553747797) (1.793402324 -2.27264961 1.465830734) (1.591535288 -1.49422624 -0.2874781065) (0 0 0) (0.5594275766 -4.40099191 0.3243706726) (6.635312014 -2.046932659 -2.157899483) (5.168808059 -1.615290894 -2.980435687) (-0.7577446911 -2.507716029 -0.8707977831) (3.449762377 -5.170978561 -5.24939472) (5.284101321 -3.648784092 4.618695646));
    }
    frontAndBack
    {
        type            empty;
    }
    procBoundary0to1
    {
        type            processor;
        value           uniform (0 0 0);
    }
    procBoundary0to2
    {
        type            processor;
        value           uniform (0 0 0);
    }
}


// ************************************************************************* //
