/*--------------------------------*- C++ -*----------------------------------*\
  =========                 |
  \\      /  F ield         | OpenFOAM: The Open Source CFD Toolbox
   \\    /   O peration     | Website:  https://openfoam.org
    \\  /    A nd           | Version:  7
     \\/     M anipulation  |
\*---------------------------------------------------------------------------*/
FoamFile
{
    version     2.0;
    format      ascii;
    class       volScalarField;
    location    "0.01";
    object      iDofMean;
}
// * * * * * * * * * * * * * * * * * * * * * * * * * * * * * * * * * * * * * //

dimensions      [0 -3 0 0 0 0 0];

internalField   nonuniform List<scalar> 
654
(
1.52802511e+20
1.972494548e+20
1.980992371e+20
1.972077988e+20
1.981658867e+20
1.969536973e+20
1.965746278e+20
1.969287037e+20
1.966162837e+20
1.97195302e+20
1.974119132e+20
1.970661685e+20
1.973785884e+20
1.968495573e+20
1.974202444e+20
1.972536204e+20
1.976951739e+20
2.019690788e+20
2.13920183e+20
2.679938266e+20
1.54901973e+20
1.991947897e+20
2.002153615e+20
1.998321264e+20
2.00511119e+20
2.00906851e+20
2.004611318e+20
1.997571456e+20
2.003028391e+20
1.992197833e+20
1.990198345e+20
1.985866122e+20
1.985532874e+20
1.984908034e+20
1.984616442e+20
2.00636087e+20
2.025231035e+20
2.062304868e+20
2.203976898e+20
2.573882109e+20
1.548978074e+20
1.985657842e+20
1.993530824e+20
1.994780504e+20
1.995363688e+20
1.991656305e+20
1.994780504e+20
1.990406625e+20
1.984366506e+20
1.994530568e+20
1.997821392e+20
1.99565528e+20
2.000445719e+20
2.006402526e+20
2.009943285e+20
2.018982636e+20
2.02610581e+20
2.070261162e+20
2.158696834e+20
2.385888616e+20
1.561683152e+20
1.995363688e+20
2.009485069e+20
2.004819598e+20
2.001903679e+20
1.999779223e+20
2.000778967e+20
2.005027878e+20
2.00886023e+20
2.00427807e+20
1.996655024e+20
1.993239232e+20
1.99732152e+20
1.986657586e+20
1.982991858e+20
1.998404575e+20
2.021731931e+20
2.057472773e+20
2.12453892e+20
2.267752222e+20
1.547895019e+20
1.993655792e+20
2.000695655e+20
1.998237952e+20
2.001653743e+20
2.00427807e+20
1.99794636e+20
1.99794636e+20
2.000612343e+20
1.9975298e+20
1.998487887e+20
2.014150541e+20
2.018232828e+20
2.016150028e+20
2.011984429e+20
2.016941492e+20
2.023814731e+20
2.053807045e+20
2.106085316e+20
2.187147877e+20
1.554768257e+20
1.99586356e+20
2.013192453e+20
1.992572737e+20
1.989198601e+20
1.99461388e+20
1.992114521e+20
1.985491218e+20
1.978534667e+20
1.992114521e+20
2.000362407e+20
2.006319214e+20
2.013400733e+20
2.021773587e+20
2.031187841e+20
2.033187329e+20
2.039644008e+20
2.051432654e+20
2.091130814e+20
2.138743614e+20
1.553560234e+20
1.986324338e+20
2.011984429e+20
2.01540022e+20
2.017607988e+20
2.00490291e+20
2.018649388e+20
2.034478665e+20
2.033395609e+20
2.014025573e+20
2.008818574e+20
1.995280376e+20
2.002778455e+20
1.99565528e+20
1.998279608e+20
2.002570175e+20
2.017108116e+20
2.033895481e+20
2.050932782e+20
2.092297182e+20
1.548228267e+20
1.996779992e+20
1.994697192e+20
1.988865353e+20
1.998487887e+20
1.997613112e+20
1.993030952e+20
1.98390829e+20
1.992656049e+20
2.010068253e+20
2.012067741e+20
2.012817549e+20
2.014150541e+20
2.007652206e+20
2.01831614e+20
2.024814475e+20
2.017982892e+20
2.020648875e+20
2.038186048e+20
2.066303843e+20
1.555268129e+20
2.003195015e+20
2.00490291e+20
2.002195271e+20
2.001153871e+20
2.016524932e+20
2.021565307e+20
2.020815499e+20
2.024023011e+20
2.016774868e+20
2.012567613e+20
2.009485069e+20
2.009818317e+20
2.003403295e+20
2.001653743e+20
1.997446488e+20
2.009818317e+20
2.027188866e+20
2.036269873e+20
2.06238818e+20
1.552935394e+20
1.996405088e+20
2.01519194e+20
2.022106835e+20
2.012692581e+20
1.993947384e+20
1.992947641e+20
1.992364457e+20
1.98578281e+20
1.984074914e+20
1.979659379e+20
1.99378076e+20
1.993905728e+20
1.99586356e+20
1.995738592e+20
2.000987247e+20
2.00490291e+20
2.004111446e+20
2.020149003e+20
2.030521346e+20
1.55047769e+20
1.986865866e+20
1.98494969e+20
1.983325106e+20
1.98432485e+20
1.9964884e+20
1.986782554e+20
1.988782041e+20
1.985116314e+20
1.987782297e+20
1.989656817e+20
1.983366762e+20
1.989906753e+20
1.997154896e+20
2.012942517e+20
1.999404319e+20
2.011359589e+20
2.020940467e+20
2.022315115e+20
2.033228985e+20
1.551977306e+20
1.998196296e+20
2.008193734e+20
2.009151822e+20
2.012234365e+20
2.006194246e+20
1.997654768e+20
2.002653487e+20
2.001737055e+20
2.011442901e+20
2.011942773e+20
2.012400989e+20
2.015483532e+20
2.015025316e+20
2.012484301e+20
2.010151565e+20
2.000070815e+20
2.000445719e+20
2.002153615e+20
2.018274484e+20
1.545687251e+20
1.993114264e+20
1.998404575e+20
1.981908803e+20
1.993280888e+20
1.996655024e+20
2.010443157e+20
2.024522883e+20
2.027397146e+20
2.01706646e+20
2.016316652e+20
2.007360614e+20
2.007693862e+20
2.004569662e+20
1.996405088e+20
2.002111959e+20
2.010859717e+20
2.004736286e+20
2.010234877e+20
2.012817549e+20
1.555601377e+20
1.992864329e+20
2.006944054e+20
2.014150541e+20
2.012234365e+20
2.003778199e+20
1.9975298e+20
1.98724077e+20
1.987698985e+20
1.996238464e+20
1.992697705e+20
1.990823185e+20
1.985491218e+20
1.983158482e+20
1.987615673e+20
1.991531337e+20
1.990448281e+20
1.99461388e+20
2.013858949e+20
2.007568894e+20
1.546020499e+20
1.993905728e+20
1.995280376e+20
1.987115802e+20
1.987823953e+20
1.982616954e+20
1.986657586e+20
1.98536625e+20
1.980284219e+20
1.974494036e+20
1.976451868e+20
1.997196552e+20
2.00386151e+20
2.006194246e+20
2.013858949e+20
2.013317421e+20
2.017941236e+20
2.006527494e+20
2.004944566e+20
2.011901117e+20
1.547561771e+20
1.995738592e+20
2.00490291e+20
2.00802711e+20
1.996446744e+20
2.008610294e+20
2.013692325e+20
2.012942517e+20
2.012817549e+20
2.006944054e+20
2.012900861e+20
2.003736543e+20
2.001528775e+20
2.010401501e+20
1.999071071e+20
1.996946616e+20
1.99315592e+20
2.000820623e+20
2.012900861e+20
1.999862535e+20
1.542854643e+20
1.975993652e+20
1.98453313e+20
1.975785372e+20
1.990906497e+20
1.994655536e+20
1.9944056e+20
1.998654511e+20
2.017982892e+20
2.004777942e+20
1.984824722e+20
1.982825234e+20
1.979326131e+20
1.988115545e+20
1.981825491e+20
1.993405856e+20
2.000987247e+20
1.999196039e+20
1.998237952e+20
1.997404832e+20
1.563224424e+20
1.986116058e+20
1.993947384e+20
2.002195271e+20
1.992864329e+20
1.987865609e+20
1.980117595e+20
1.974077476e+20
1.954832408e+20
1.974577348e+20
1.981492243e+20
1.998196296e+20
1.99398904e+20
1.995696936e+20
1.999779223e+20
1.995155408e+20
1.987740641e+20
2.000653999e+20
1.999987503e+20
2.014067229e+20
1.545937187e+20
1.994697192e+20
1.999820879e+20
2.003569919e+20
1.991281401e+20
1.993030952e+20
1.983575042e+20
1.994988784e+20
1.988323825e+20
1.990364969e+20
1.994572224e+20
1.993280888e+20
1.987157458e+20
1.988490449e+20
1.990656561e+20
1.9964884e+20
1.997279864e+20
1.984449818e+20
1.975577092e+20
1.969078757e+20
1.562183024e+20
2.014817036e+20
2.028730138e+20
2.018399452e+20
2.015275252e+20
2.021315371e+20
2.020940467e+20
2.026147466e+20
2.023439827e+20
2.028438546e+20
2.014233853e+20
2.013025829e+20
2.005860998e+20
2.001112215e+20
2.004569662e+20
1.996155152e+20
1.993822416e+20
1.994863816e+20
2.002195271e+20
1.998862791e+20
1.544520883e+20
1.967787421e+20
1.981742179e+20
1.991697961e+20
1.995571968e+20
2.000820623e+20
1.992781017e+20
1.999487631e+20
2.002070303e+20
1.992114521e+20
2.008735262e+20
2.00531947e+20
2.002070303e+20
2.008735262e+20
2.011359589e+20
2.004528006e+20
2.015358564e+20
2.01498366e+20
2.010859717e+20
2.008318702e+20
1.546645339e+20
1.991906241e+20
1.999154383e+20
1.994697192e+20
1.993239232e+20
1.999362663e+20
2.003736543e+20
2.000653999e+20
2.000445719e+20
1.996113496e+20
1.99586356e+20
1.994155664e+20
2.003153359e+20
2.004611318e+20
2.0156085e+20
2.01498366e+20
2.026605682e+20
2.016191684e+20
2.011276277e+20
2.009735005e+20
4.832300451e+20
5.598334994e+20
5.943183327e+20
6.07006064e+20
6.069872342e+20
6.164857617e+20
6.195069925e+20
6.223257063e+20
6.253620225e+20
6.296763198e+20
3.304207449e+20
3.924874578e+20
4.402364301e+20
4.766885469e+20
4.994784676e+20
5.271438886e+20
5.333168762e+20
5.36935483e+20
5.476903454e+20
5.545885467e+20
2.748134429e+20
3.196024017e+20
3.584168415e+20
3.966500756e+20
4.296009928e+20
4.564520551e+20
4.752291049e+20
4.911452499e+20
5.017860083e+20
5.154144475e+20
2.502370388e+20
2.724392549e+20
3.049766351e+20
3.347924662e+20
3.633035612e+20
3.915123462e+20
4.209336471e+20
4.437481879e+20
4.547982917e+20
4.717862153e+20
2.325039028e+20
2.482620913e+20
2.681461651e+20
2.914784833e+20
3.182371243e+20
3.46360984e+20
3.727102484e+20
3.99731613e+20
4.210897128e+20
4.361709686e+20
2.2099534e+20
2.314719268e+20
2.452722816e+20
2.63912711e+20
2.823550254e+20
3.01534233e+20
3.298353181e+20
3.542662573e+20
3.771752559e+20
3.985691783e+20
2.146662576e+20
2.232473138e+20
2.312266917e+20
2.460391314e+20
2.587258753e+20
2.744615942e+20
2.928188582e+20
3.134677309e+20
3.396549498e+20
3.596667809e+20
2.109624484e+20
2.157550871e+20
2.221101968e+20
2.304061504e+20
2.398070825e+20
2.499252564e+20
2.650085641e+20
2.84294567e+20
3.037088602e+20
3.256683841e+20
2.083998807e+20
2.111797776e+20
2.140320751e+20
2.211962209e+20
2.314178319e+20
2.417450345e+20
2.517223921e+20
2.625321331e+20
2.768852682e+20
2.911488539e+20
2.050346817e+20
2.099465067e+20
2.124554429e+20
2.165443102e+20
2.223022573e+20
2.281675975e+20
2.35210575e+20
2.445892106e+20
2.562126186e+20
2.699471811e+20
2.041066391e+20
2.068948974e+20
2.094547555e+20
2.119862912e+20
2.13805562e+20
2.199354375e+20
2.247795351e+20
2.341579933e+20
2.421021534e+20
2.52455801e+20
2.032747452e+20
2.035528592e+20
2.054029801e+20
2.081751385e+20
2.104962776e+20
2.134648389e+20
2.172472181e+20
2.224623879e+20
2.269525293e+20
2.350802294e+20
2.012263632e+20
2.025047897e+20
2.031863714e+20
2.049059978e+20
2.07870338e+20
2.12179375e+20
2.157738816e+20
2.190292147e+20
2.250068661e+20
2.300292416e+20
2.010800495e+20
2.020459943e+20
2.040085914e+20
2.060924477e+20
2.076339615e+20
2.074097428e+20
2.094882313e+20
2.129575104e+20
2.16246969e+20
2.176111174e+20
2.028734306e+20
2.025847629e+20
2.026481117e+20
2.017947664e+20
2.037444793e+20
2.044060014e+20
2.06118741e+20
2.080140984e+20
2.102419528e+20
2.136870279e+20
1.992615883e+20
1.997183548e+20
2.01452924e+20
2.014448062e+20
2.02214471e+20
2.032547109e+20
2.037038659e+20
2.053228766e+20
2.088976763e+20
2.118786499e+20
2.004446334e+20
2.014735549e+20
2.008510885e+20
2.016923376e+20
2.026270572e+20
2.035014146e+20
2.047543802e+20
2.048926357e+20
2.054573951e+20
2.068632962e+20
2.007581613e+20
2.000550841e+20
2.002874028e+20
2.009540069e+20
2.008262893e+20
2.011988336e+20
2.019166826e+20
2.016789765e+20
2.020436442e+20
2.032777192e+20
1.986763376e+20
1.990911965e+20
1.992405515e+20
1.993493124e+20
1.994338125e+20
1.994286162e+20
2.015723246e+20
2.024209275e+20
2.015616495e+20
2.041017352e+20
2.004320923e+20
2.005391324e+20
2.002534954e+20
2.003309069e+20
2.007661219e+20
2.009607862e+20
2.004564256e+20
2.016789765e+20
2.031402896e+20
2.022488145e+20
2.004906175e+20
2.006106861e+20
2.010460498e+20
2.012612904e+20
2.009810105e+20
2.006102038e+20
2.011233496e+20
2.011038561e+20
2.01442258e+20
2.023022641e+20
2.008626706e+20
2.013430723e+20
2.010418115e+20
2.018843904e+20
)
;

boundaryField
{
    flow
    {
        type            calculated;
        value           nonuniform List<scalar> 
42
(
1.52802511e+20
1.54901973e+20
1.548978074e+20
1.561683152e+20
1.547895019e+20
1.554768257e+20
1.553560234e+20
1.548228267e+20
1.555268129e+20
1.552935394e+20
1.55047769e+20
1.551977306e+20
1.545687251e+20
1.555601377e+20
1.546020499e+20
1.547561771e+20
1.542854643e+20
1.563224424e+20
1.545937187e+20
1.562183024e+20
1.544520883e+20
1.546645339e+20
1.52802511e+20
1.972494548e+20
1.980992371e+20
1.972077988e+20
1.981658867e+20
1.969536973e+20
1.965746278e+20
1.969287037e+20
1.966162837e+20
1.97195302e+20
1.974119132e+20
1.970661685e+20
1.973785884e+20
1.968495573e+20
1.974202444e+20
1.972536204e+20
1.976951739e+20
2.019690788e+20
2.13920183e+20
2.679938266e+20
)
;
    }
    obstacle
    {
        type            calculated;
        value           nonuniform List<scalar> 10(269.9743686 290.3960875 303.2119039 285.3896528 279.5684242 281.6855459 284.7567249 291.141305 283.1795281 284.4798734);
    }
    frontAndBack
    {
        type            empty;
    }
    procBoundary0to1
    {
        type            processor;
        value           nonuniform List<scalar> 
21
(
6.177982567e+20
5.505548789e+20
5.149433023e+20
4.859228065e+20
4.519174977e+20
4.150630839e+20
3.775087312e+20
3.47433842e+20
3.100634481e+20
2.833356969e+20
2.646078754e+20
2.459428697e+20
2.377500071e+20
2.211893006e+20
2.19906083e+20
2.137322716e+20
2.082494259e+20
2.047946065e+20
2.050683001e+20
2.019320391e+20
2.04722818e+20
)
;
    }
    procBoundary0to2
    {
        type            processor;
        value           nonuniform List<scalar> 
31
(
1.554310041e+20
1.990073377e+20
2.00656915e+20
1.999945847e+20
1.99794636e+20
1.995322032e+20
1.99815464e+20
2.007860486e+20
2.018149516e+20
2.013400733e+20
2.019232572e+20
2.025231035e+20
2.013359077e+20
2.006652462e+20
2.005777686e+20
1.986490962e+20
1.983658354e+20
1.993489168e+20
2.000487375e+20
2.00406979e+20
2.019866891e+20
2.017744788e+20
2.024571962e+20
2.018589765e+20
2.019817368e+20
2.03438068e+20
2.001770896e+20
2.003960225e+20
1.987955343e+20
2.019866891e+20
1.981457892e+20
)
;
    }
}


// ************************************************************************* //
