/*--------------------------------*- C++ -*----------------------------------*\
  =========                 |
  \\      /  F ield         | OpenFOAM: The Open Source CFD Toolbox
   \\    /   O peration     | Website:  https://openfoam.org
    \\  /    A nd           | Version:  7
     \\/     M anipulation  |
\*---------------------------------------------------------------------------*/
FoamFile
{
    version     2.0;
    format      ascii;
    class       volScalarField;
    location    "0.01";
    object      internalEMean;
}
// * * * * * * * * * * * * * * * * * * * * * * * * * * * * * * * * * * * * * //

dimensions      [1 -1 -2 0 0 0 0];

internalField   nonuniform List<scalar> 
654
(
0.3835674036
0.3941142494
0.4065620757
0.3965019676
0.3957953259
0.4017518522
0.4014530775
0.3970947373
0.4125368704
0.4009792067
0.3958449197
0.396562716
0.3877599653
0.3827647307
0.3969874332
0.3817546077
0.3911988781
0.3988634976
0.4056412288
0.4065925905
0.4058145293
0.4074504465
0.4051226659
0.4018343935
0.3894092021
0.3971323898
0.3885644867
0.3971972631
0.3898476827
0.4118278098
0.3933607652
0.3954350078
0.395180035
0.4036290566
0.420255993
0.4050963693
0.396447349
0.3884643423
0.39621559
0.4035992839
0.4084294766
0.4177500356
0.4107116904
0.4107630981
0.3865546302
0.4052218583
0.3898402842
0.3869288273
0.3926365849
0.3989781206
0.3872148265
0.3792154098
0.3883043196
0.406162015
0.4017098157
0.3894900754
0.3792041479
0.4034380735
0.384804987
0.4020729556
0.4012655847
0.4131924878
0.3943396082
0.4077638838
0.3811162119
0.3819401805
0.3962405283
0.386094109
0.3980452939
0.3918946525
0.3871994703
0.3886994223
0.3987270641
0.4038283615
0.3928760348
0.3912760234
0.3780542758
0.4002002984
0.402507151
0.3932597168
0.4044062506
0.4039301914
0.4042250446
0.3899069128
0.3969566547
0.3990999941
0.4055840803
0.4046607278
0.3932832442
0.3767951583
0.3862999094
0.3928961903
0.4056595575
0.4233880282
0.4034208684
0.3875435739
0.3859752516
0.3999714373
0.4015218497
0.4065943781
0.3892597791
0.4041071355
0.3856384458
0.3912954739
0.3999451585
0.3840750439
0.3928857278
0.4007045042
0.3937731598
0.397613392
0.3981554311
0.4107033304
0.405373415
0.3958414802
0.3861484302
0.4023044132
0.3949652212
0.4059515938
0.3921720705
0.4026820704
0.4110367536
0.3974172859
0.4003182157
0.4083124481
0.3941223827
0.396164512
0.3844136824
0.3988360798
0.3993454048
0.3935535896
0.3997331314
0.4033103684
0.3930540001
0.3950428556
0.3854375658
0.3914379712
0.4164991457
0.3962238957
0.3927316281
0.4083977592
0.3928279123
0.3950121974
0.4000041082
0.398486816
0.3982804403
0.3932208934
0.3847546703
0.3917016725
0.4047654899
0.4026862221
0.399571314
0.4044032316
0.4078129608
0.3903541171
0.3912760201
0.4062696937
0.3920560968
0.3865736043
0.4039307848
0.3958760569
0.39627318
0.3985360236
0.3965976445
0.3961337043
0.3900240222
0.40280324
0.3866090706
0.3876833895
0.3994224739
0.4060199964
0.4013402401
0.4015255733
0.4013987181
0.4039833562
0.4047232606
0.3960629182
0.3816011869
0.3858696516
0.3856321612
0.3909403454
0.4057289893
0.397587084
0.3749734222
0.3872157832
0.3947326694
0.3864359047
0.3946127938
0.3959659379
0.3912207477
0.3932305177
0.4115744064
0.4214995768
0.3892588368
0.4011339045
0.397628432
0.3840815176
0.3897496669
0.3874740292
0.397427471
0.3949423358
0.3941917612
0.4073074188
0.3916925594
0.3893175932
0.3884458969
0.3906674759
0.3773202731
0.3969635073
0.3885310449
0.4019265429
0.3953774547
0.4070340277
0.4027803272
0.4026667079
0.4023949431
0.3891404827
0.3868665209
0.3949884943
0.3878945211
0.3816330294
0.3882756897
0.3886003458
0.3970254014
0.4130326473
0.3759685014
0.3863668155
0.3947673616
0.3974683819
0.4043128264
0.3967707671
0.3856169631
0.391274694
0.3985197255
0.3978771599
0.3922381598
0.3853037171
0.3710921496
0.3819667481
0.3872348411
0.3868344819
0.3947066326
0.3791024315
0.3971370708
0.3986965257
0.384457896
0.4046620169
0.3910508792
0.3987904398
0.3963907849
0.3921688783
0.3965356587
0.3885130114
0.3946084668
0.3965280256
0.3915302256
0.3866602941
0.4053187421
0.3801082324
0.3761540429
0.3889830205
0.3762900107
0.3976296701
0.3869270914
0.384100209
0.3902712253
0.4130982155
0.3829115263
0.3995579285
0.3882895122
0.3949803874
0.3987081017
0.4031898739
0.3972032741
0.3849675624
0.3926404911
0.4003818591
0.4013105127
0.3817615827
0.3873360772
0.4013493823
0.3790175849
0.3955939857
0.3771310945
0.3838273812
0.3922098731
0.3881237762
0.3913473358
0.3922666558
0.3838802801
0.38015308
0.4016998862
0.3852325453
0.3822507278
0.3802490096
0.3928378984
0.408254771
0.3945650799
0.3902594629
0.4003929276
0.3833073099
0.3929302751
0.394048857
0.3588861796
0.3862885891
0.3953756748
0.371824132
0.3852908896
0.4007518268
0.4106322309
0.388467715
0.386495749
0.3882852465
0.3902566742
0.3986236549
0.3931185226
0.398088349
0.4015252847
0.3939277419
0.3862950823
0.3867238229
0.3926856634
0.389585583
0.3752195388
0.3871188845
0.3822285147
0.3859177941
0.3893051666
0.3989985066
0.380013977
0.3730563562
0.3923124404
0.4002421563
0.3936667241
0.4087210139
0.4001021924
0.412789868
0.4181521266
0.4054445573
0.3899563355
0.4009480324
0.3790526234
0.3940467047
0.3809079629
0.3986565828
0.402548152
0.4012332433
0.3984539916
0.4034845484
0.3983807242
0.3777268083
0.3858567346
0.388370209
0.3952181568
0.4058336468
0.4160428058
0.398617028
0.4060026564
0.384078129
0.3842166931
0.3961155083
0.3974405033
0.3975599032
0.3821129458
0.3936039603
0.4056605754
0.4061732754
0.3887025475
0.4042049932
0.3970341271
0.380003635
0.3825847441
0.396095642
0.4005366198
0.3917573706
0.4081776625
0.3915343806
0.3956367526
0.3885511734
0.387198963
0.3750930894
0.3914250204
0.3947849735
0.4003248776
0.4000886278
0.3884031601
0.4119882875
0.3993140054
0.407288505
0.3887882793
0.3875353097
0.3840112554
0.3763123091
0.3723116668
0.3725487285
0.3882609283
0.3817875686
0.3925207251
0.3909264482
0.3721175119
0.3843143563
0.3904355858
0.3949355108
0.396218268
0.4045861869
0.4092097613
0.3973537423
0.4021070463
0.4051636211
0.4013250989
0.3857098979
0.3759945162
0.3931479605
0.3981200037
0.3814001429
0.4107982788
0.3823669151
0.3922821377
0.3880545323
0.3692720275
0.3974620971
0.3882372092
0.3957506593
0.4010668276
0.3955476533
0.4095482947
0.393740118
0.3885160164
0.4022834816
0.4023351529
0.3922323151
0.381931042
0.3838321784
0.3792282098
0.4063996715
0.400502929
0.3909647741
0.4029653359
0.3934514996
0.4048115366
0.4072750918
0.4387052791
0.4318455104
0.4429737738
0.4324375948
0.4284011628
0.4150014612
0.4210265885
0.4148159883
0.4256849479
0.4311631926
0.4123276445
0.4085534066
0.4117549254
0.4267346595
0.4051646958
0.4056333315
0.4207896759
0.4238845151
0.4202401876
0.4210863026
0.4012540517
0.3844785002
0.4143049711
0.4300305108
0.4377300104
0.4202288481
0.4197665041
0.4208825225
0.4085220819
0.4177288147
0.4158962255
0.4119626736
0.4063352394
0.4234226973
0.4207394376
0.4248520212
0.4089718342
0.4121575058
0.4275485119
0.4099821064
0.4086417632
0.4040463742
0.4130729931
0.41445977
0.4150856209
0.4093647427
0.408114157
0.4130066125
0.4255217599
0.4049757864
0.4214789812
0.4192827795
0.4177269681
0.4144021129
0.3951210779
0.3928522965
0.4230790347
0.4229275991
0.4001520104
0.3865965978
0.4033067733
0.4032049734
0.3806446542
0.3970986541
0.3956495003
0.4194993144
0.4113328538
0.3987390272
0.4122820117
0.4025344164
0.4143046663
0.4021193087
0.3996333098
0.3828887679
0.4011228621
0.4135799552
0.4066037037
0.4081813478
0.4059922757
0.4010594759
0.395880035
0.4028838644
0.3915284691
0.3967846645
0.3868499073
0.4011869007
0.4051725996
0.399482167
0.4212995494
0.4161354965
0.3831018361
0.3924004635
0.3895459848
0.389801075
0.3963300276
0.3888581632
0.3994417699
0.4080979408
0.3935419513
0.4017755601
0.3899328754
0.3871894019
0.3862361345
0.3936201554
0.4046794748
0.3992896497
0.4099836639
0.4019761743
0.3942325111
0.3961108517
0.371973936
0.3794292891
0.3992924802
0.3872348293
0.4029451724
0.412018723
0.4138578496
0.4154048039
0.4112280032
0.4012205239
0.3847031227
0.3857150722
0.3927370254
0.3835089094
0.4134338841
0.4042639302
0.3977849877
0.4172462561
0.4040101536
0.3910259189
0.4097946497
0.3989375398
0.3888246605
0.4065047171
0.4082177935
0.4075374556
0.403022026
0.4178826341
0.3927333358
0.4040684884
0.3858779269
0.386287255
0.3904951771
0.4006245521
0.4053383678
0.3935822969
0.399957609
0.4102699963
0.3966772624
0.4017052952
0.3911266133
0.3937088309
0.4008309308
0.3931984621
0.4008880171
0.3975912593
0.4041359142
0.3999808109
0.3931443708
0.4075933711
0.3817702885
0.4113962865
0.4077462993
0.4055060812
0.3867060842
0.3979611624
0.4043529013
0.4125636655
0.4002030568
0.4043123216
0.3972539557
0.4049951604
0.4095280714
0.3980797944
0.3989157047
0.4003566812
0.3959448306
0.4004543652
0.3970570244
0.4015085504
0.3918030439
0.4063274396
0.4216533805
0.4172534145
0.4279842877
0.4069261233
0.4106140365
0.3874739529
0.3920644606
0.3958990868
0.3988283687
0.3985289773
0.3910266991
0.4058277282
0.3957760621
0.4113451691
0.4031539963
0.4183959613
0.4062224004
0.3971250814
0.4025787829
0.3806869409
0.3801156527
0.3881505993
0.3968851635
0.3913929143
0.3927172842
0.4088063779
0.4086503748
0.393525186
0.4049264966
0.3952637733
0.3983089977
0.3972055929
)
;

boundaryField
{
    flow
    {
        type            calculated;
        value           nonuniform List<scalar> 
42
(
0.3835674036
0.4058145293
0.4084294766
0.4012655847
0.4044062506
0.3892597791
0.4110367536
0.3928279123
0.39627318
0.4057289893
0.3941917612
0.3882756897
0.3947066326
0.3762900107
0.3790175849
0.3929302751
0.3926856634
0.3790526234
0.3974405033
0.3914250204
0.3904355858
0.3882372092
0.3835674036
0.3941142494
0.4065620757
0.3965019676
0.3957953259
0.4017518522
0.4014530775
0.3970947373
0.4125368704
0.4009792067
0.3958449197
0.396562716
0.3877599653
0.3827647307
0.3969874332
0.3817546077
0.3911988781
0.3988634976
0.4056412288
0.4065925905
)
;
    }
    obstacle
    {
        type            calculated;
        value           nonuniform List<scalar> 10(1.935369985e-19 1.689886925e-19 1.673614661e-19 1.945046641e-19 1.742102892e-19 1.721428138e-19 1.500747526e-19 1.625584956e-19 1.714206079e-19 1.855992185e-19);
    }
    frontAndBack
    {
        type            empty;
    }
    procBoundary0to1
    {
        type            processor;
        value           nonuniform List<scalar> 
21
(
0.4180841109
0.4163809985
0.4241726439
0.432905778
0.4274224864
0.4110956008
0.4060854006
0.4091418562
0.408134878
0.4170287485
0.3981492506
0.3892805576
0.3977286454
0.4151987455
0.4060389085
0.4044369675
0.4067221027
0.4038793694
0.4068281866
0.4163467452
0.403871591
)
;
    }
    procBoundary0to2
    {
        type            processor;
        value           nonuniform List<scalar> 
31
(
0.3912932834
0.398249382
0.3897312044
0.3867790366
0.3966696367
0.3883444099
0.3883318547
0.3852784445
0.3987933079
0.3990863182
0.3910533417
0.3866592866
0.3918021911
0.3940519177
0.3957519006
0.3859305721
0.3921664278
0.3984920429
0.4051915082
0.4007262069
0.3996137657
0.3957578147
0.3961932724
0.4053844997
0.392965316
0.401115015
0.3898800564
0.3972364102
0.4070509894
0.3996137657
0.4108548324
)
;
    }
}


// ************************************************************************* //
