/*--------------------------------*- C++ -*----------------------------------*\
  =========                 |
  \\      /  F ield         | OpenFOAM: The Open Source CFD Toolbox
   \\    /   O peration     | Website:  https://openfoam.org
    \\  /    A nd           | Version:  7
     \\/     M anipulation  |
\*---------------------------------------------------------------------------*/
FoamFile
{
    version     2.0;
    format      ascii;
    class       volScalarField;
    location    "0.01";
    object      linearKE;
}
// * * * * * * * * * * * * * * * * * * * * * * * * * * * * * * * * * * * * * //

dimensions      [1 -1 -2 0 0 0 0];

internalField   nonuniform List<scalar> 
654
(
0.3144419188
0.3573625485
0.5448060082
1.146646466
0.7141448036
0.3909709096
0.7129942717
0.6634812124
0.4097214978
0.6971370601
0.4416656509
0.9132959865
0.2199500978
0.7161252541
0.3493761147
0.3641685032
0.4284129479
0.425460566
0.9853921873
0.6403265226
0.4458762523
0.8555673389
1.006252864
0.5110067019
0.2611977594
0.8872236186
0.970176019
0.6335245175
0.8087271382
0.1058425206
0.7544090733
0.8557243568
0.2105449289
0.9056143574
0.6081934263
1.336690829
0.7775852422
0.74241608
0.5385504242
1.349037952
0.7881757921
0.5902541698
0.7909076255
0.3650755856
0.6298956706
0.316020749
0.7333819717
0.8841434151
1.282617975
0.8436531438
0.48265735
0.6122261707
0.4840350056
0.4144716539
0.107077815
0.7875628138
0.6703952497
0.9090971449
0.262007616
1.189382253
0.8014974212
0.6692018548
0.4241506002
0.7088201651
0.3064922416
0.5784894368
0.3388937509
0.328074873
0.7566740001
0.6404725288
0.4053521615
0.7067203814
0.5958375582
0.4261979728
0.4379154932
0.3461720075
0.7808317954
0.5634292978
1.360304703
0.473900113
1.046846071
0.8722624442
0.336797215
0.6430466001
0.8176617102
0.29535447
1.332104192
0.5694297914
0.9029777106
0.4178692131
1.640534023
0.763634132
0.3508001198
0.3761282606
0.7625122987
1.167594191
1.152844963
0.223559952
0.9118907733
0.3737942594
0.6594278349
0.9406455019
0.8992527841
0.5721973518
0.4193767163
0.6402931203
1.326323098
0.6430679973
0.6285662624
0.4484732569
0.9402868612
0.9510390605
0.2758257354
0.3639257938
0.3971842079
0.9342795126
1.48214229
0.6748923397
0.3861600641
0.992772456
0.3928758817
1.047928865
0.4202215976
0.8113062658
0.9631508089
0.5287417199
0.8593612915
0.5902729572
0.4038159995
0.4351651337
0.48916482
1.098637272
0.8859571264
0.238950985
0.7072186549
0.9238081887
0.6683637498
1.591524046
1.244580751
0.6498619956
0.6025524911
0.4615078022
0.9097724637
0.997880744
0.3478996075
0.5126596581
0.9502848685
0.5842990758
0.5884748747
0.5553119198
0.8168276098
1.328160588
0.195876537
0.6125718099
0.2207346147
1.335539326
0.6544110139
0.7017707893
0.4601881568
0.1117950036
0.5516966356
0.8864255948
0.8860755797
0.3904603862
0.5355667274
0.9591041632
0.8227174473
0.5796843766
0.8036895225
1.033834114
0.5986991763
0.02063021997
0.4538157624
0.3967816187
0.4074431192
1.145692428
1.193863066
0.6908839258
0.7879802809
0.5165545841
0.4815510814
1.096806228
1.008335588
0.7269279551
0.265227792
0.7979862165
0.3343765439
0.5612216303
0.8295122479
0.5271528809
0.132139463
0.5384479876
1.667687969
0.8285225904
0.3765978246
0.8489070316
0.7124142352
0.738494702
0.6452263264
0.3152209112
0.3001995678
0.4492162275
0.4126976435
0.2812305269
0.9744778835
0.5238858907
1.046739341
0.8540833655
0.2425177565
0.6753147477
0.5620409353
0.7225554357
0.6519136946
1.269372826
0.4194627836
0.1829125159
0.6044140485
0.787988639
0.2392072257
0.3686480443
0.788261576
0.2594543258
0.4753449547
0.5773806601
0.2961539129
0.5919047392
0.4035897996
0.9905845258
0.5639769168
1.051026729
1.15112959
0.4424276974
0.9320826495
0.3354636588
0.9044834057
0.7427386912
0.6174984899
0.6259331728
0.09591759059
0.2677471488
0.9375075958
1.047997618
0.351076349
0.4400807999
0.3283347505
0.7754725534
0.5989573139
1.031913861
0.5684787747
0.5678863512
0.5774092831
0.9677132868
0.5660372151
0.6967918297
1.272298677
1.114899609
1.153258722
0.1356006077
0.7302552382
1.341549061
0.7518280577
0.7784648278
1.00290561
0.3962882735
0.7800922659
0.7864609789
0.2473144852
0.3826721083
0.747906231
0.6508648183
0.3762628769
0.3744984129
0.5707149474
0.5299248299
1.020861136
0.597230235
0.3374733366
0.7319254642
1.088121246
0.7985118884
0.5978996824
0.8018370647
0.5131895862
0.5572133888
0.4660077132
0.5762928806
0.1372299978
0.4903008811
0.5376227398
0.2406245293
0.6375904045
0.5389473741
0.5491048302
0.4760540679
0.602598024
1.13334689
0.4639593345
0.4110757623
0.2261262339
0.5594408658
0.398453528
0.1508649116
0.5557669059
0.9663071848
0.2255939967
0.984292616
0.4014111132
0.8624433045
0.6789986656
1.220118022
0.3426962584
0.8650832979
0.6442998859
0.7038808521
1.044972643
0.3064378244
0.4442681548
0.7839605576
0.4220246578
0.7281299057
0.8623192355
0.6064875024
0.534852308
0.5114902961
0.1995821012
0.3187096729
0.7143630466
0.1360352952
0.9051585706
0.623351224
0.5447531549
1.010150258
1.561506456
0.483984936
0.9621078084
0.277878606
1.357395758
0.738442484
0.8944879099
1.191772476
0.4211351498
0.4012456122
0.3849831813
0.6231875838
0.9993499208
0.9812933051
0.7787365812
0.545601517
1.201711582
0.3038357779
0.5991944739
0.3116940156
0.6902042445
0.4415520658
0.7742554896
0.814157819
0.7021693487
0.174737625
0.4500656907
0.6739290461
0.503545824
0.330965477
1.103878867
0.5264369998
0.4959032127
0.4724458778
1.319638116
0.403652953
0.5259786175
0.8880289629
0.4023900946
0.2471047516
0.3576840655
0.6530627875
0.443584252
0.1393801394
0.2922289605
1.230856886
0.6987707115
0.7760610207
1.048452652
0.5693327615
0.4318991702
0.7172854257
0.3926646621
0.4728179679
0.2473284377
0.3365699943
0.5371561246
0.4095008971
0.3758914869
0.4401846231
0.3979870754
0.6386270633
0.5673198618
0.7046894462
0.4016659213
0.3696528978
0.4602367198
0.631944452
0.8904589547
0.1684976157
0.6307304508
0.7819518588
0.6491047092
1.166878699
0.6634444044
0.9164072204
0.7134464228
0.6716029654
0.5782552425
0.6566175329
0.6466378021
0.1279852231
0.4783091575
0.2850652989
0.857885285
0.644114214
0.7870834617
0.5902650977
0.8512160046
0.9001288066
0.5260786374
0.6366250677
0.3760286384
0.7278213053
0.5688600411
0.5616913573
0.5431370675
0.8019978298
0.2586060527
0.6988076924
0.7548712928
0.4990985617
0.358001948
0.2145766621
0.7050074149
0.4901769964
0.1155335417
0.9080995299
0.6925909149
0.6664631861
0.2347735229
0.5334700132
0.7441533565
0.4529163932
0.2668013638
0.6525509164
1.592825296
0.5708445885
0.4112613837
0.5351317343
0.7330437238
0.5531429659
0.5301264586
1.395437619
0.4477956421
0.4450536822
0.2074232015
0.878829791
0.4830882285
0.8826604698
0.5116772027
0.5879242678
1.144536816
0.9722424562
0.6461514387
0.1947496044
0.7666518868
0.1523203592
0.2703614305
0.461282087
0.928280335
1.388850918
0.2080404202
0.4382376467
0.5206849175
0.339121427
0.4398465052
0.4996733429
0.502870795
0.7212200509
0.429950285
0.47056548
0.2605748611
1.030602744
0.6023870956
0.9971665725
0.6697583662
0.6370146088
1.123779356
0.633167706
0.712858874
0.5668069679
1.033437658
0.7182356251
0.6493941904
0.2668216573
0.4737114103
0.7144895493
0.1873368369
0.6574812776
0.375284925
1.046287788
0.3712127474
0.7796252283
0.2701709864
1.243698666
0.5422856506
1.116052848
0.430224709
0.5698174171
0.721585511
0.6631131987
0.1347698137
0.8230393833
0.4736909539
0.4076971378
0.1764789025
0.05839260622
0.2206237364
1.014690251
0.1840273824
0.4938942131
0.4270848654
0.4002176846
0.6807630798
0.5324389191
0.4179089618
0.8520306099
0.2882974157
0.2966373432
0.7652335202
0.4946325117
0.2200864794
0.2485645636
0.9438056923
0.2077237463
0.6887049566
0.1281613265
0.5510510599
0.6027556137
0.335677813
0.7091341312
0.4957129656
0.8129418736
1.092122152
0.3632500304
0.8058312064
0.8683483328
0.9986845017
0.2025055461
0.6749019063
0.4640269703
0.5183242303
0.7537602857
1.121974236
0.6924875927
0.8153189752
0.8054053678
0.5100269013
0.3542819621
0.6444219392
1.293537518
0.8032464841
0.7089068097
0.4388152916
0.1170469516
0.8050633263
0.2243536173
0.4994095911
0.6176374436
0.8322345198
0.8682301001
0.04763651411
0.3720071904
0.5825572847
0.2247029329
0.4973441726
0.441142213
0.862862023
0.3821993616
0.8773875066
0.9391182816
0.5109173764
0.2106862952
0.9695220929
0.4982309417
0.534817644
1.16910395
1.043895336
0.4196450368
0.7068975825
0.9687209005
0.4876605074
0.2981256057
1.031204777
0.549640248
0.3107707557
0.3732307257
0.52264337
0.3949298596
0.5477669602
0.7977433223
0.4729802698
0.6536239668
0.7013530434
0.8488498316
0.8784766958
0.9561704022
0.7344887649
0.5149674162
0.213926095
0.4794957257
0.4916836621
1.466434907
0.428152941
1.43001196
0.6964076628
0.9842264768
0.5105953798
0.5194190675
0.4741565703
1.035314542
0.7078789213
0.6705884096
0.6513272308
0.3231879362
0.5965522017
0.3132321906
0.6051264284
0.7958230241
0.5448565353
0.5583265188
0.5992743215
0.5991137532
1.310484859
0.950788316
1.346829153
0.9463259219
0.5224422741
0.4667366274
0.9456511638
0.87020518
1.027145243
1.387209225
0.8212731383
0.3165402412
0.4083907535
0.7239777368
0.4265872988
0.7296208659
0.6951975838
0.4869568481
)
;

boundaryField
{
    flow
    {
        type            zeroGradient;
    }
    obstacle
    {
        type            calculated;
        value           nonuniform List<scalar> 10(2.579179547e-18 0 0 7.479428666e-19 0 0 9.716390243e-19 0 5.999365176e-19 0);
    }
    frontAndBack
    {
        type            empty;
    }
    procBoundary0to1
    {
        type            processor;
        value           nonuniform List<scalar> 
21
(
0.5191878357
0.5491178329
0.3327036461
0.5719192419
0.2807439514
0.6740001584
1.69434097
0.6481815181
0.2878236565
1.250117221
0.3163748358
1.062167127
0.695821491
0.5633780995
0.3267317369
0.03956429639
0.6747654011
0.2865900947
0.7876468266
0.322176061
1.057533072
)
;
    }
    procBoundary0to2
    {
        type            processor;
        value           nonuniform List<scalar> 
31
(
0.4711920549
0.3821474609
0.7138300621
0.8075221175
0.8769946741
0.1418029888
0.4804140918
0.435794523
0.3766927806
1.203842999
0.9672159589
0.4833081209
0.3945325741
0.7692822364
0.3327722087
0.3115642924
0.223371097
0.7430433476
0.3177010397
0.3584722618
0.1939614119
0.464886482
0.563964104
0.2067574811
0.3641671733
0.6900368458
0.6844571141
0.5096857669
0.6270971347
0.1939614119
0.3754241957
)
;
    }
}


// ************************************************************************* //
