/*--------------------------------*- C++ -*----------------------------------*\
  =========                 |
  \\      /  F ield         | OpenFOAM: The Open Source CFD Toolbox
   \\    /   O peration     | Website:  https://openfoam.org
    \\  /    A nd           | Version:  7
     \\/     M anipulation  |
\*---------------------------------------------------------------------------*/
FoamFile
{
    version     2.0;
    format      ascii;
    class       volScalarField;
    location    "0.01";
    object      rhoM;
}
// * * * * * * * * * * * * * * * * * * * * * * * * * * * * * * * * * * * * * //

dimensions      [1 -3 0 0 0 0 0];

internalField   nonuniform List<scalar> 
654
(
3.942947953e-06
4.980390442e-06
5.879951596e-06
4.980390442e-06
4.080829287e-06
4.427198864e-06
3.52763771e-06
6.086773598e-06
3.389756375e-06
2.490195221e-06
3.458697042e-06
3.52763771e-06
5.53358202e-06
4.218710622e-06
2.00594431e-06
7.124216086e-06
3.389756375e-06
4.980390442e-06
4.911449774e-06
4.911449774e-06
3.52763771e-06
1.452752732e-06
7.677407664e-06
2.905505464e-06
4.427198864e-06
5.464641352e-06
6.502083841e-06
8.439087484e-06
5.53358202e-06
7.124216086e-06
9.821233309e-06
4.427198864e-06
6.01783293e-06
4.427198864e-06
4.980390442e-06
4.01188862e-06
5.879951596e-06
6.155714265e-06
5.53358202e-06
4.7719022e-06
3.942947953e-06
5.464641352e-06
3.458697042e-06
5.879951596e-06
7.53952633e-06
4.565080198e-06
2.559135888e-06
5.118271776e-06
2.905505464e-06
3.665519044e-06
2.559135888e-06
5.395700685e-06
7.332704328e-06
3.458697042e-06
5.53358202e-06
4.911449774e-06
3.942947953e-06
6.295261839e-06
7.885895906e-06
6.848453417e-06
3.112327466e-06
6.571024508e-06
4.496139531e-06
5.464641352e-06
5.187212443e-06
4.980390442e-06
5.53358202e-06
5.464641352e-06
3.043386799e-06
4.842509107e-06
2.559135888e-06
6.502083841e-06
3.874007286e-06
4.080829287e-06
3.389756375e-06
5.049331109e-06
4.842509107e-06
5.049331109e-06
5.53358202e-06
6.708905843e-06
2.974446132e-06
4.358258196e-06
4.565080198e-06
2.490195221e-06
6.433143174e-06
5.53358202e-06
4.842509107e-06
4.01188862e-06
1.452752732e-06
5.879951596e-06
3.112327466e-06
4.427198864e-06
7.055275419e-06
6.086773598e-06
4.427198864e-06
2.490195221e-06
6.77951275e-06
2.974446132e-06
5.395700685e-06
2.905505464e-06
3.458697042e-06
6.708905843e-06
3.458697042e-06
6.01783293e-06
4.980390442e-06
3.942947953e-06
5.602522687e-06
5.464641352e-06
5.53358202e-06
4.911449774e-06
4.427198864e-06
5.049331109e-06
4.980390442e-06
5.53358202e-06
4.980390442e-06
4.634020865e-06
3.043386799e-06
4.01188862e-06
3.458697042e-06
7.193156754e-06
4.980390442e-06
4.496139531e-06
4.496139531e-06
1.937003643e-06
4.911449774e-06
2.421254554e-06
5.118271776e-06
1.937003643e-06
3.389756375e-06
5.464641352e-06
3.112327466e-06
6.433143174e-06
3.52763771e-06
6.086773598e-06
5.53358202e-06
4.911449774e-06
5.256153111e-06
5.049331109e-06
4.01188862e-06
4.496139531e-06
4.980390442e-06
4.980390442e-06
4.911449774e-06
6.086773598e-06
7.470585662e-06
4.702961533e-06
2.559135888e-06
8.576968818e-06
7.401644995e-06
5.049331109e-06
7.470585662e-06
6.364202506e-06
2.421254554e-06
8.301206149e-06
5.464641352e-06
3.389756375e-06
3.458697042e-06
6.01783293e-06
5.118271776e-06
5.53358202e-06
4.01188862e-06
4.496139531e-06
3.942947953e-06
3.458697042e-06
6.433143174e-06
2.974446132e-06
4.634020865e-06
5.948892263e-06
4.842509107e-06
6.917394084e-06
1.937003643e-06
9.685018214e-07
4.01188862e-06
5.879951596e-06
3.596578377e-06
5.118271776e-06
4.080829287e-06
3.52763771e-06
6.571024508e-06
5.811010928e-06
2.00594431e-06
4.702961533e-06
4.496139531e-06
3.942947953e-06
5.53358202e-06
3.52763771e-06
4.496139531e-06
3.596578377e-06
4.427198864e-06
6.01783293e-06
5.395700685e-06
8.645909486e-06
5.602522687e-06
3.458697042e-06
2.421254554e-06
4.980390442e-06
6.433143174e-06
6.086773598e-06
6.848453417e-06
8.576968818e-06
3.389756375e-06
3.942947953e-06
3.942947953e-06
4.565080198e-06
4.427198864e-06
6.848453417e-06
4.496139531e-06
5.53358202e-06
6.639965176e-06
6.086773598e-06
5.53358202e-06
3.458697042e-06
7.954836573e-06
2.974446132e-06
3.389756375e-06
5.602522687e-06
7.193156754e-06
4.634020865e-06
4.565080198e-06
3.942947953e-06
3.52763771e-06
5.948892263e-06
4.496139531e-06
9.476529973e-06
4.980390442e-06
4.911449774e-06
4.980390442e-06
5.326760018e-06
2.421254554e-06
4.496139531e-06
5.395700685e-06
6.086773598e-06
5.395700685e-06
5.811010928e-06
7.470585662e-06
4.01188862e-06
5.049331109e-06
3.389756375e-06
4.634020865e-06
4.634020865e-06
3.52763771e-06
5.53358202e-06
3.596578377e-06
4.980390442e-06
3.874007286e-06
3.734459711e-06
3.596578377e-06
4.634020865e-06
5.049331109e-06
4.427198864e-06
5.049331109e-06
2.00594431e-06
4.702961533e-06
6.571024508e-06
6.01783293e-06
4.427198864e-06
5.53358202e-06
5.53358202e-06
4.01188862e-06
5.464641352e-06
3.52763771e-06
4.01188862e-06
3.458697042e-06
5.049331109e-06
4.496139531e-06
4.565080198e-06
4.565080198e-06
6.571024508e-06
1.937003643e-06
5.53358202e-06
2.905505464e-06
5.464641352e-06
4.980390442e-06
3.52763771e-06
4.01188862e-06
2.974446132e-06
4.427198864e-06
6.155714265e-06
4.358258196e-06
5.049331109e-06
3.942947953e-06
6.433143174e-06
4.427198864e-06
4.496139531e-06
5.464641352e-06
5.464641352e-06
5.464641352e-06
6.433143174e-06
4.080829287e-06
6.639965176e-06
2.974446132e-06
6.086773598e-06
6.01783293e-06
4.358258196e-06
3.389756375e-06
3.458697042e-06
2.559135888e-06
7.055275419e-06
6.086773598e-06
3.389756375e-06
3.596578377e-06
3.942947953e-06
6.086773598e-06
1.590634067e-06
4.427198864e-06
5.464641352e-06
5.464641352e-06
4.358258196e-06
8.092717908e-06
3.52763771e-06
5.53358202e-06
3.665519044e-06
2.974446132e-06
4.496139531e-06
3.52763771e-06
2.974446132e-06
4.980390442e-06
6.848453417e-06
3.596578377e-06
5.464641352e-06
4.980390442e-06
3.458697042e-06
5.049331109e-06
5.948892263e-06
6.086773598e-06
4.01188862e-06
4.427198864e-06
3.043386799e-06
2.490195221e-06
6.01783293e-06
6.571024508e-06
4.427198864e-06
6.571024508e-06
5.948892263e-06
4.496139531e-06
2.421254554e-06
3.043386799e-06
5.049331109e-06
2.490195221e-06
2.559135888e-06
4.911449774e-06
5.256153111e-06
5.53358202e-06
5.326760018e-06
3.043386799e-06
6.01783293e-06
4.358258196e-06
4.911449774e-06
5.395700685e-06
6.502083841e-06
7.124216086e-06
4.980390442e-06
2.974446132e-06
4.980390442e-06
6.086773598e-06
4.980390442e-06
5.464641352e-06
3.942947953e-06
2.00594431e-06
6.433143174e-06
3.458697042e-06
4.496139531e-06
6.01783293e-06
4.358258196e-06
6.01783293e-06
5.464641352e-06
4.427198864e-06
4.358258196e-06
5.53358202e-06
5.879951596e-06
2.559135888e-06
2.490195221e-06
3.942947953e-06
4.01188862e-06
5.464641352e-06
2.421254554e-06
2.00594431e-06
4.080829287e-06
5.602522687e-06
2.974446132e-06
3.458697042e-06
5.53358202e-06
5.53358202e-06
4.911449774e-06
5.671463354e-06
6.571024508e-06
5.118271776e-06
2.974446132e-06
4.565080198e-06
4.01188862e-06
4.080829287e-06
5.948892263e-06
2.559135888e-06
4.496139531e-06
3.874007286e-06
4.427198864e-06
6.086773598e-06
2.974446132e-06
9.822899549e-06
4.911449774e-06
4.496139531e-06
3.874007286e-06
4.496139531e-06
4.080829287e-06
5.53358202e-06
4.496139531e-06
3.52763771e-06
4.427198864e-06
5.395700685e-06
6.986334752e-06
5.049331109e-06
4.496139531e-06
2.974446132e-06
4.911449774e-06
4.218710622e-06
4.980390442e-06
3.389756375e-06
5.049331109e-06
5.948892263e-06
6.433143174e-06
3.52763771e-06
4.980390442e-06
4.565080198e-06
5.049331109e-06
5.395700685e-06
6.986334752e-06
2.628076555e-06
4.980390442e-06
2.490195221e-06
3.458697042e-06
3.942947953e-06
6.986334752e-06
4.01188862e-06
4.496139531e-06
7.816955239e-06
4.149769955e-06
5.049331109e-06
5.118271776e-06
3.596578377e-06
6.01783293e-06
1.346706683e-05
1.265070918e-05
1.928365423e-05
9.850314253e-06
1.348791279e-05
1.969269403e-05
1.606938073e-05
1.385077721e-05
1.31440465e-05
1.989549832e-05
8.12141676e-06
6.91999748e-06
8.093591139e-06
1.027581472e-05
1.07053203e-05
1.379817328e-05
1.425887829e-05
1.64752644e-05
1.270317737e-05
1.442270517e-05
3.956930656e-06
9.995177768e-06
1.062722231e-05
9.92094648e-06
7.208008334e-06
9.414829489e-06
9.265448441e-06
1.275738723e-05
1.050060052e-05
1.464385287e-05
4.442898844e-06
6.01103884e-06
7.108195941e-06
7.228386407e-06
7.27913645e-06
8.696787787e-06
1.245011943e-05
9.987583008e-06
1.241044381e-05
9.097343826e-06
7.497078272e-06
3.564490048e-06
6.052657558e-06
4.961326805e-06
5.638032217e-06
7.5454973e-06
9.337589571e-06
8.529144328e-06
1.314227772e-05
6.952456113e-06
3.470962467e-06
5.591389951e-06
7.741179905e-06
5.031959021e-06
6.422160712e-06
5.606265316e-06
1.158093875e-05
6.85273008e-06
9.399312088e-06
1.124223155e-05
4.442898844e-06
3.984138933e-06
8.304020694e-06
5.10259125e-06
5.78028847e-06
7.690490651e-06
4.125992768e-06
7.508412862e-06
6.241813599e-06
7.988042017e-06
4.442898844e-06
6.01103884e-06
6.967909571e-06
5.173223465e-06
5.067288086e-06
4.528337135e-06
3.691402436e-06
4.665950118e-06
3.598367622e-06
7.470249063e-06
4.998052181e-06
7.618289854e-06
6.192943924e-06
6.944150399e-06
1.998463987e-06
6.109413891e-06
5.718328254e-06
8.821534503e-06
4.25878692e-06
6.287231354e-06
4.998052184e-06
5.591389955e-06
4.011723977e-06
3.118060526e-06
4.567672093e-06
4.671599226e-06
5.718328258e-06
1.151868021e-05
6.388180381e-06
7.470249063e-06
6.525141895e-06
5.941377963e-06
5.982514369e-06
1.034644694e-05
5.06728809e-06
7.833752734e-06
8.830858109e-06
3.352828474e-06
6.388180381e-06
6.434663154e-06
4.65045429e-06
4.053799808e-06
6.052657558e-06
2.055162942e-06
3.211080358e-06
5.246378841e-06
4.198133906e-06
7.728144566e-06
3.744734422e-06
3.771982498e-06
5.969988558e-06
5.102080207e-06
3.51902639e-06
2.551295623e-06
4.210312333e-06
9.774715959e-06
3.763543551e-06
4.15558435e-06
4.331970293e-06
5.769438399e-06
2.984994269e-06
4.473448663e-06
6.685641477e-06
3.614193194e-06
1.998463987e-06
4.528337126e-06
3.11252984e-06
4.665950111e-06
4.405153683e-06
4.733852456e-06
4.512084017e-06
4.962758461e-06
4.997119172e-06
4.039693677e-06
4.709928383e-06
4.599968201e-06
3.691402441e-06
7.070705688e-06
5.28689197e-06
4.881284291e-06
4.650454284e-06
2.935858553e-06
5.700246364e-06
6.732253755e-06
6.066520087e-06
3.736933144e-06
4.777006477e-06
4.738608597e-06
5.360075323e-06
1.065072269e-05
2.915809127e-06
5.521729056e-06
7.671036668e-06
5.528091685e-06
5.638032217e-06
2.587373891e-06
2.533657282e-06
6.415022912e-06
2.643445985e-06
3.698266581e-06
6.525141886e-06
5.102080207e-06
3.096471983e-06
4.180958094e-06
7.136880158e-06
7.258973104e-06
5.283737897e-06
7.435754332e-06
4.331970323e-06
2.662680672e-06
5.41483525e-06
4.12346069e-06
6.052657554e-06
3.188692759e-06
5.067288093e-06
2.012594278e-06
4.342416144e-06
4.665950111e-06
4.112420122e-06
5.472793184e-06
5.553205511e-06
4.962758461e-06
8.163734319e-06
4.322222539e-06
3.497311977e-06
5.749527436e-06
4.704865354e-06
6.925388599e-06
2.570262594e-06
7.099887909e-06
5.136422471e-06
7.478968078e-06
6.967909566e-06
4.180958123e-06
6.066520087e-06
4.0968196e-06
7.817395215e-06
7.581071424e-06
8.444390474e-06
5.769438399e-06
4.442898838e-06
4.053799789e-06
5.63010314e-06
4.606458582e-06
)
;

boundaryField
{
    flow
    {
        type            zeroGradient;
    }
    obstacle
    {
        type            calculated;
        value           nonuniform List<scalar> 10(1.507584576e-24 1.941271563e-24 4.574216206e-24 2.225073859e-308 6.414483837e-24 1.544571764e-23 7.312069679e-24 3.89764419e-24 8.864783077e-24 1.195967272e-23);
    }
    frontAndBack
    {
        type            empty;
    }
    procBoundary0to1
    {
        type            processor;
        value           nonuniform List<scalar> 
21
(
1.899994472e-05
1.668902847e-05
1.341098668e-05
1.288939846e-05
9.685612898e-06
1.192047824e-05
8.716692665e-06
7.376491353e-06
7.525003791e-06
5.885982897e-06
8.269360657e-06
6.108751567e-06
5.811726664e-06
5.811726664e-06
4.84280647e-06
5.290138442e-06
3.278041767e-06
5.73747049e-06
2.756453564e-06
8.195104418e-06
5.438650912e-06
)
;
    }
    procBoundary0to2
    {
        type            processor;
        value           nonuniform List<scalar> 
31
(
4.496139531e-06
4.496139531e-06
4.980390442e-06
2.905505464e-06
4.980390442e-06
4.496139531e-06
2.628076555e-06
2.490195221e-06
5.53358202e-06
4.01188862e-06
6.01783293e-06
5.464641352e-06
4.080829287e-06
3.942947953e-06
3.52763771e-06
5.671463354e-06
6.01783293e-06
6.639965176e-06
3.389756375e-06
5.049331109e-06
5.851416597e-06
3.522039987e-06
1.520194358e-06
4.738608631e-06
5.727761098e-06
8.209189718e-06
3.956930651e-06
4.403787829e-06
7.038052751e-06
5.851416597e-06
8.008755078e-06
)
;
    }
}


// ************************************************************************* //
