/*--------------------------------*- C++ -*----------------------------------*\
  =========                 |
  \\      /  F ield         | OpenFOAM: The Open Source CFD Toolbox
   \\    /   O peration     | Website:  https://openfoam.org
    \\  /    A nd           | Version:  7
     \\/     M anipulation  |
\*---------------------------------------------------------------------------*/
FoamFile
{
    version     2.0;
    format      ascii;
    class       volScalarField;
    location    "0.01";
    object      rhoMMean;
}
// * * * * * * * * * * * * * * * * * * * * * * * * * * * * * * * * * * * * * //

dimensions      [1 -3 0 0 0 0 0];

internalField   nonuniform List<scalar> 
654
(
3.665845169e-06
4.730907955e-06
4.753064527e-06
4.731400995e-06
4.754186698e-06
4.724183261e-06
4.715880056e-06
4.723505643e-06
4.716379761e-06
4.730586496e-06
4.736119078e-06
4.728687191e-06
4.735647615e-06
4.724878125e-06
4.736947032e-06
4.733266059e-06
4.742208517e-06
4.842707431e-06
5.129064094e-06
6.431460022e-06
3.715829652e-06
4.776454117e-06
4.799906649e-06
4.791410076e-06
4.809071842e-06
4.819610058e-06
4.809674521e-06
4.792576069e-06
4.806421646e-06
4.779103438e-06
4.774661451e-06
4.762824151e-06
4.762835273e-06
4.760665538e-06
4.759449849e-06
4.810957026e-06
4.856029726e-06
4.945494175e-06
5.285415779e-06
6.174000621e-06
3.717414954e-06
4.763691137e-06
4.783953737e-06
4.786928183e-06
4.787167247e-06
4.778189089e-06
4.787576225e-06
4.776662397e-06
4.760812875e-06
4.78466493e-06
4.791144103e-06
4.786273351e-06
4.797810978e-06
4.81309452e-06
4.82180937e-06
4.843625571e-06
4.860903935e-06
4.968225517e-06
5.178498843e-06
5.722948369e-06
3.74614076e-06
4.785043874e-06
4.819392781e-06
4.808683442e-06
4.803351683e-06
4.79784701e-06
4.798985635e-06
4.808850565e-06
4.819567028e-06
4.809271999e-06
4.792651466e-06
4.782269252e-06
4.791677841e-06
4.766732525e-06
4.757065294e-06
4.795064598e-06
4.850638149e-06
4.937499766e-06
5.100074439e-06
5.442531601e-06
3.714924426e-06
4.781900305e-06
4.799412401e-06
4.793532782e-06
4.799626887e-06
4.805893906e-06
4.792841043e-06
4.792923772e-06
4.797688217e-06
4.79092116e-06
4.793672663e-06
4.833135509e-06
4.844088369e-06
4.83658475e-06
4.827933842e-06
4.840644793e-06
4.858100403e-06
4.929680144e-06
5.055542809e-06
5.247556814e-06
3.728643452e-06
4.78743322e-06
4.829570506e-06
4.781271174e-06
4.772985089e-06
4.787133672e-06
4.779626721e-06
4.763000398e-06
4.747598553e-06
4.778799433e-06
4.798251531e-06
4.812073531e-06
4.829103376e-06
4.849218304e-06
4.871768276e-06
4.876885881e-06
4.892421609e-06
4.918603066e-06
5.013989832e-06
5.12882603e-06
3.726965423e-06
4.764316935e-06
4.825796681e-06
4.832704286e-06
4.838830091e-06
4.806505583e-06
4.839886321e-06
4.878523212e-06
4.875894802e-06
4.829921874e-06
4.817139983e-06
4.785374123e-06
4.803358681e-06
4.788079596e-06
4.792885073e-06
4.803384591e-06
4.8362615e-06
4.876808818e-06
4.917744203e-06
5.015584798e-06
3.714292837e-06
4.788791789e-06
4.784569746e-06
4.770624652e-06
4.794072519e-06
4.791376835e-06
4.78186773e-06
4.759430396e-06
4.779438019e-06
4.820817624e-06
4.826776305e-06
4.827306253e-06
4.831453357e-06
4.815338195e-06
4.841538231e-06
4.856688224e-06
4.841811328e-06
4.848244137e-06
4.891472352e-06
4.958100945e-06
3.73101901e-06
4.803927327e-06
4.808835777e-06
4.803078253e-06
4.800270931e-06
4.837718376e-06
4.849699223e-06
4.846590894e-06
4.855633994e-06
4.838671757e-06
4.828558973e-06
4.82035795e-06
4.82136715e-06
4.803749747e-06
4.801102218e-06
4.790327604e-06
4.821256845e-06
4.86320143e-06
4.883308236e-06
4.94550863e-06
3.726657086e-06
4.79085701e-06
4.835680857e-06
4.851413284e-06
4.827691321e-06
4.783309027e-06
4.779840208e-06
4.778635975e-06
4.762106502e-06
4.758259738e-06
4.748145288e-06
4.780536279e-06
4.782178067e-06
4.787474585e-06
4.787887229e-06
4.800738394e-06
4.808904718e-06
4.80902248e-06
4.846516622e-06
4.872107647e-06
3.719674417e-06
4.765796598e-06
4.761575888e-06
4.7587639e-06
4.760881482e-06
4.790264786e-06
4.767243685e-06
4.771768401e-06
4.764665763e-06
4.770491895e-06
4.775263797e-06
4.760253352e-06
4.775348525e-06
4.79335866e-06
4.828327574e-06
4.796037765e-06
4.824233623e-06
4.845254445e-06
4.849112332e-06
4.873659791e-06
3.722692227e-06
4.791284983e-06
4.816886798e-06
4.819431479e-06
4.827604926e-06
4.812720574e-06
4.792204456e-06
4.804309062e-06
4.801971536e-06
4.824992637e-06
4.828498822e-06
4.829633115e-06
4.835724554e-06
4.834493744e-06
4.827992993e-06
4.822169527e-06
4.797932072e-06
4.798748571e-06
4.802223055e-06
4.839786805e-06
3.708660739e-06
4.781565057e-06
4.795754005e-06
4.756339646e-06
4.782862475e-06
4.792306763e-06
4.824584783e-06
4.85890578e-06
4.864967977e-06
4.840838827e-06
4.836751541e-06
4.814839489e-06
4.816620824e-06
4.808722806e-06
4.789740171e-06
4.804222001e-06
4.825567073e-06
4.809620368e-06
4.822487321e-06
4.828298998e-06
3.732041998e-06
4.779384533e-06
4.812878242e-06
4.830722586e-06
4.826432935e-06
4.805889907e-06
4.791334804e-06
4.766020207e-06
4.765858415e-06
4.786319381e-06
4.778156056e-06
4.772308679e-06
4.760504746e-06
4.754515822e-06
4.766161088e-06
4.775265005e-06
4.772870993e-06
4.784527715e-06
4.831326931e-06
4.818660468e-06
3.710373134e-06
4.782908838e-06
4.786601267e-06
4.766598309e-06
4.767927635e-06
4.75451149e-06
4.764691881e-06
4.761606797e-06
4.749253337e-06
4.733902188e-06
4.739764019e-06
4.791428655e-06
4.807627879e-06
4.812003591e-06
4.830499643e-06
4.830150607e-06
4.840859613e-06
4.814322663e-06
4.810035678e-06
4.824568871e-06
3.712329591e-06
4.788328449e-06
4.81036626e-06
4.818085032e-06
4.790085207e-06
4.819192749e-06
4.831491055e-06
4.830202761e-06
4.830256913e-06
4.818558953e-06
4.830409249e-06
4.808605836e-06
4.802728218e-06
4.824887789e-06
4.797317396e-06
4.792405613e-06
4.782985568e-06
4.800833578e-06
4.829568173e-06
4.798247532e-06
3.70079263e-06
4.738367752e-06
4.760662539e-06
4.739317467e-06
4.776818065e-06
4.786086107e-06
4.785532582e-06
4.795176903e-06
4.839632802e-06
4.808269464e-06
4.760071982e-06
4.757960189e-06
4.749659316e-06
4.76769557e-06
4.752436938e-06
4.780519492e-06
4.79788425e-06
4.793044074e-06
4.789768622e-06
4.789651652e-06
3.75095136e-06
4.76482543e-06
4.783791612e-06
4.803574626e-06
4.780349702e-06
4.766383698e-06
4.748741843e-06
4.734850236e-06
4.689802113e-06
4.737198218e-06
4.75444734e-06
4.793518661e-06
4.782978445e-06
4.787349158e-06
4.796619866e-06
4.785897072e-06
4.768616375e-06
4.80072194e-06
4.798152015e-06
4.832762563e-06
3.708841984e-06
4.783190932e-06
4.795710183e-06
4.803420165e-06
4.775456039e-06
4.778972222e-06
4.757704213e-06
4.787371069e-06
4.769379388e-06
4.774566267e-06
4.78379661e-06
4.779801509e-06
4.765536956e-06
4.76946345e-06
4.775644075e-06
4.790223422e-06
4.791484474e-06
4.760910058e-06
4.740791131e-06
4.723972774e-06
3.749481487e-06
4.835016027e-06
4.86919781e-06
4.84550988e-06
4.839059616e-06
4.853337291e-06
4.849942411e-06
4.861055938e-06
4.854236727e-06
4.865651927e-06
4.831398871e-06
4.829486444e-06
4.811490764e-06
4.800063775e-06
4.8072199e-06
4.787352824e-06
4.782232553e-06
4.785494884e-06
4.801299584e-06
4.79324823e-06
3.704790731e-06
4.718281732e-06
4.751278068e-06
4.775018152e-06
4.783652939e-06
4.797069418e-06
4.778804765e-06
4.796383135e-06
4.801243431e-06
4.777985933e-06
4.818159638e-06
4.809914584e-06
4.802567092e-06
4.818917986e-06
4.826591394e-06
4.809370515e-06
4.834896266e-06
4.83398325e-06
4.824229624e-06
4.818611314e-06
3.710157522e-06
4.777487894e-06
4.796118495e-06
4.785397034e-06
4.781331659e-06
4.795996068e-06
4.80422121e-06
4.796295949e-06
4.796252919e-06
4.787614465e-06
4.786054407e-06
4.782828109e-06
4.804506095e-06
4.80731675e-06
4.833229902e-06
4.832121852e-06
4.859322299e-06
4.83373094e-06
4.823433245e-06
4.818057331e-06
1.159618968e-05
1.343460959e-05
1.425556665e-05
1.457589933e-05
1.456090181e-05
1.47974488e-05
1.487796646e-05
1.494755809e-05
1.502018917e-05
1.512431739e-05
7.928733655e-06
9.412823817e-06
1.05596006e-05
1.143522336e-05
1.199012373e-05
1.265232969e-05
1.279887521e-05
1.289534596e-05
1.315412202e-05
1.331199069e-05
6.594089891e-06
7.665192541e-06
8.597729573e-06
9.512681095e-06
1.030869797e-05
1.094898995e-05
1.139910542e-05
1.178080664e-05
1.203943798e-05
1.237368211e-05
6.002998402e-06
6.532314267e-06
7.311377226e-06
8.028043927e-06
8.715743244e-06
9.392782103e-06
1.010065104e-05
1.064537296e-05
1.091060142e-05
1.132311646e-05
5.577682346e-06
5.954786228e-06
6.428330217e-06
6.988446495e-06
7.628870795e-06
8.302985504e-06
8.933719544e-06
9.584859093e-06
1.01017897e-05
1.046212571e-05
5.300228622e-06
5.552865131e-06
5.88152984e-06
6.327567497e-06
6.768877839e-06
7.22688206e-06
7.907948823e-06
8.49525309e-06
9.04743622e-06
9.561759171e-06
5.145979058e-06
5.355066892e-06
5.545486517e-06
5.901200043e-06
6.205573211e-06
6.582687213e-06
7.020277637e-06
7.513743977e-06
8.14439599e-06
8.628116421e-06
5.062245464e-06
5.177166663e-06
5.329950707e-06
5.529596401e-06
5.7565073e-06
5.993722224e-06
6.35507589e-06
6.815574015e-06
7.281952106e-06
7.809744857e-06
4.99728316e-06
5.064131139e-06
5.134067913e-06
5.305068477e-06
5.549137831e-06
5.799621009e-06
6.035538789e-06
6.291360139e-06
6.633933523e-06
6.979109506e-06
4.920273781e-06
5.036502503e-06
5.095320948e-06
5.191939045e-06
5.330386647e-06
5.471338536e-06
5.637254102e-06
5.862154938e-06
6.140443416e-06
6.470306952e-06
4.892995934e-06
4.95988219e-06
5.021626946e-06
5.082744275e-06
5.126351597e-06
5.274210333e-06
5.390894516e-06
5.616519353e-06
5.807588905e-06
6.054491594e-06
4.873944977e-06
4.88042435e-06
4.92565556e-06
4.993725308e-06
5.051217388e-06
5.12313856e-06
5.212767076e-06
5.33565953e-06
5.442582328e-06
5.634999729e-06
4.828838434e-06
4.860236386e-06
4.877584481e-06
4.91845236e-06
4.988827084e-06
5.089827561e-06
5.176044774e-06
5.253295203e-06
5.397711573e-06
5.516827104e-06
4.825353619e-06
4.848413021e-06
4.894638886e-06
4.942830617e-06
4.978352363e-06
4.97463575e-06
5.023295279e-06
5.107332616e-06
5.184735039e-06
5.217239992e-06
4.865015688e-06
4.858877431e-06
4.861534726e-06
4.840409148e-06
4.887267522e-06
4.90174728e-06
4.941448572e-06
4.986905304e-06
5.040990869e-06
5.122790897e-06
4.781358604e-06
4.789168363e-06
4.830113197e-06
4.829517915e-06
4.849817047e-06
4.876168851e-06
4.889039637e-06
4.927967322e-06
5.011346475e-06
5.08264798e-06
4.808366271e-06
4.833947434e-06
4.821226944e-06
4.841121369e-06
4.863321721e-06
4.885357327e-06
4.912555115e-06
4.914316765e-06
4.931594125e-06
4.966203181e-06
4.815462075e-06
4.797262031e-06
4.80351986e-06
4.820324682e-06
4.815777843e-06
4.825260916e-06
4.842812879e-06
4.840514685e-06
4.849458084e-06
4.879108491e-06
4.768457215e-06
4.777011131e-06
4.780022284e-06
4.784004389e-06
4.786077177e-06
4.788358247e-06
4.837620059e-06
4.855454505e-06
4.833245961e-06
4.892708686e-06
4.806317387e-06
4.810647778e-06
4.80357323e-06
4.804142435e-06
4.814009085e-06
4.819196245e-06
4.80752008e-06
4.837564749e-06
4.873096231e-06
4.85098465e-06
4.810196437e-06
4.811837705e-06
4.821663432e-06
4.825844485e-06
4.820740772e-06
4.809311734e-06
4.822333508e-06
4.820967162e-06
4.82836243e-06
4.850694063e-06
4.81526288e-06
4.828336262e-06
4.822953728e-06
4.842125618e-06
)
;

boundaryField
{
    flow
    {
        type            calculated;
        value           nonuniform List<scalar> 
42
(
3.665845169e-06
3.715829652e-06
3.717414954e-06
3.74614076e-06
3.714924426e-06
3.728643452e-06
3.726965423e-06
3.714292837e-06
3.73101901e-06
3.726657086e-06
3.719674417e-06
3.722692227e-06
3.708660739e-06
3.732041998e-06
3.710373134e-06
3.712329591e-06
3.70079263e-06
3.75095136e-06
3.708841984e-06
3.749481487e-06
3.704790731e-06
3.710157522e-06
3.665845169e-06
4.730907955e-06
4.753064527e-06
4.731400995e-06
4.754186698e-06
4.724183261e-06
4.715880056e-06
4.723505643e-06
4.716379761e-06
4.730586496e-06
4.736119078e-06
4.728687191e-06
4.735647615e-06
4.724878125e-06
4.736947032e-06
4.733266059e-06
4.742208517e-06
4.842707431e-06
5.129064094e-06
6.431460022e-06
)
;
    }
    obstacle
    {
        type            calculated;
        value           nonuniform List<scalar> 10(6.476461668e-24 6.984187708e-24 7.290881938e-24 6.854479817e-24 6.717494073e-24 6.766398255e-24 6.835322016e-24 6.990335268e-24 6.795217231e-24 6.84071111e-24);
    }
    frontAndBack
    {
        type            empty;
    }
    procBoundary0to1
    {
        type            processor;
        value           nonuniform List<scalar> 
21
(
1.483353944e-05
1.321325064e-05
1.236197989e-05
1.165890234e-05
1.084263081e-05
9.95506817e-06
9.059177364e-06
8.331421804e-06
7.429323064e-06
6.794507027e-06
6.344204231e-06
5.896579706e-06
5.699323483e-06
5.303059517e-06
5.272690064e-06
5.126446021e-06
4.999920339e-06
4.913447373e-06
4.915310823e-06
4.842006621e-06
4.911852547e-06
)
;
    }
    procBoundary0to2
    {
        type            processor;
        value           nonuniform List<scalar> 
31
(
3.72964632e-06
4.773116181e-06
4.812309929e-06
4.795862852e-06
4.791186467e-06
4.785002177e-06
4.791394955e-06
4.816208513e-06
4.841454169e-06
4.829020647e-06
4.842827859e-06
4.857312022e-06
4.828165449e-06
4.81360668e-06
4.811379792e-06
4.764690548e-06
4.7581461e-06
4.781499116e-06
4.798266319e-06
4.80692635e-06
4.843297714e-06
4.838888213e-06
4.857313201e-06
4.842897752e-06
4.846818529e-06
4.878472619e-06
4.802284248e-06
4.805941186e-06
4.766252647e-06
4.843297714e-06
4.751021712e-06
)
;
    }
}


// ************************************************************************* //
