/*--------------------------------*- C++ -*----------------------------------*\
  =========                 |
  \\      /  F ield         | OpenFOAM: The Open Source CFD Toolbox
   \\    /   O peration     | Website:  https://openfoam.org
    \\  /    A nd           | Version:  7
     \\/     M anipulation  |
\*---------------------------------------------------------------------------*/
FoamFile
{
    version     2.0;
    format      ascii;
    class       volScalarField;
    location    "0.01";
    object      rhoN;
}
// * * * * * * * * * * * * * * * * * * * * * * * * * * * * * * * * * * * * * //

dimensions      [0 -3 0 0 0 0 0];

internalField   nonuniform List<scalar> 
654
(
7.289798656e+19
6.248398848e+19
9.372598272e+19
1.457959731e+20
9.372598272e+19
4.165599232e+19
1.041399808e+20
9.372598272e+19
8.331198464e+19
1.041399808e+20
7.289798656e+19
1.35381975e+20
6.248398848e+19
8.331198464e+19
3.124199424e+19
6.248398848e+19
1.041399808e+20
8.331198464e+19
1.145539789e+20
1.041399808e+20
1.145539789e+20
1.24967977e+20
1.24967977e+20
6.248398848e+19
5.20699904e+19
1.35381975e+20
1.562099712e+20
6.248398848e+19
1.145539789e+20
4.165599232e+19
1.041399808e+20
1.145539789e+20
4.165599232e+19
1.041399808e+20
9.372598272e+19
1.145539789e+20
8.331198464e+19
1.041399808e+20
7.289798656e+19
1.145539789e+20
1.145539789e+20
1.041399808e+20
1.24967977e+20
7.289798656e+19
1.145539789e+20
7.289798656e+19
9.372598272e+19
1.24967977e+20
1.666239693e+20
9.372598272e+19
6.248398848e+19
7.289798656e+19
1.24967977e+20
6.248398848e+19
3.124199424e+19
1.145539789e+20
7.289798656e+19
8.331198464e+19
5.20699904e+19
1.145539789e+20
1.24967977e+20
8.331198464e+19
6.248398848e+19
9.372598272e+19
5.20699904e+19
5.20699904e+19
7.289798656e+19
8.331198464e+19
9.372598272e+19
1.041399808e+20
1.041399808e+20
1.041399808e+20
5.20699904e+19
8.331198464e+19
1.145539789e+20
8.331198464e+19
8.331198464e+19
9.372598272e+19
9.372598272e+19
5.20699904e+19
1.770379674e+20
1.24967977e+20
8.331198464e+19
1.041399808e+20
1.24967977e+20
7.289798656e+19
1.35381975e+20
1.041399808e+20
9.372598272e+19
7.289798656e+19
1.770379674e+20
1.041399808e+20
8.331198464e+19
8.331198464e+19
1.145539789e+20
1.35381975e+20
1.041399808e+20
4.165599232e+19
8.331198464e+19
5.20699904e+19
1.35381975e+20
1.770379674e+20
1.041399808e+20
1.041399808e+20
8.331198464e+19
1.041399808e+20
1.145539789e+20
7.289798656e+19
1.145539789e+20
7.289798656e+19
1.666239693e+20
1.24967977e+20
6.248398848e+19
5.20699904e+19
7.289798656e+19
1.35381975e+20
1.24967977e+20
1.041399808e+20
4.165599232e+19
9.372598272e+19
6.248398848e+19
1.24967977e+20
5.20699904e+19
6.248398848e+19
1.24967977e+20
1.24967977e+20
1.041399808e+20
8.331198464e+19
8.331198464e+19
6.248398848e+19
1.145539789e+20
1.457959731e+20
8.331198464e+19
4.165599232e+19
6.248398848e+19
1.457959731e+20
1.041399808e+20
1.666239693e+20
1.24967977e+20
3.124199424e+19
1.35381975e+20
6.248398848e+19
1.457959731e+20
1.145539789e+20
6.248398848e+19
7.289798656e+19
1.35381975e+20
5.20699904e+19
8.331198464e+19
8.331198464e+19
9.372598272e+19
1.457959731e+20
3.124199424e+19
1.041399808e+20
6.248398848e+19
1.562099712e+20
9.372598272e+19
6.248398848e+19
6.248398848e+19
3.124199424e+19
1.35381975e+20
1.457959731e+20
9.372598272e+19
7.289798656e+19
1.041399808e+20
1.666239693e+20
1.145539789e+20
9.372598272e+19
1.666239693e+20
1.457959731e+20
9.372598272e+19
1.041399808e+19
9.372598272e+19
5.20699904e+19
6.248398848e+19
1.24967977e+20
1.24967977e+20
9.372598272e+19
1.041399808e+20
6.248398848e+19
7.289798656e+19
1.457959731e+20
1.041399808e+20
8.331198464e+19
5.20699904e+19
1.041399808e+20
9.372598272e+19
8.331198464e+19
9.372598272e+19
9.372598272e+19
3.124199424e+19
9.372598272e+19
1.145539789e+20
1.35381975e+20
4.165599232e+19
8.331198464e+19
1.041399808e+20
1.041399808e+20
5.20699904e+19
2.082799616e+19
9.372598272e+19
7.289798656e+19
9.372598272e+19
5.20699904e+19
1.145539789e+20
8.331198464e+19
1.35381975e+20
8.331198464e+19
4.165599232e+19
9.372598272e+19
1.145539789e+20
9.372598272e+19
1.041399808e+20
1.145539789e+20
4.165599232e+19
3.124199424e+19
7.289798656e+19
1.041399808e+20
2.082799616e+19
6.248398848e+19
1.041399808e+20
6.248398848e+19
1.041399808e+20
9.372598272e+19
4.165599232e+19
9.372598272e+19
6.248398848e+19
1.24967977e+20
1.145539789e+20
1.562099712e+20
7.289798656e+19
8.331198464e+19
1.562099712e+20
4.165599232e+19
1.24967977e+20
1.24967977e+20
7.289798656e+19
9.372598272e+19
5.20699904e+19
5.20699904e+19
1.770379674e+20
1.562099712e+20
8.331198464e+19
8.331198464e+19
1.041399808e+20
1.145539789e+20
9.372598272e+19
1.35381975e+20
9.372598272e+19
8.331198464e+19
7.289798656e+19
8.331198464e+19
6.248398848e+19
7.289798656e+19
1.041399808e+20
1.145539789e+20
1.24967977e+20
3.124199424e+19
7.289798656e+19
1.145539789e+20
1.24967977e+20
8.331198464e+19
1.666239693e+20
7.289798656e+19
9.372598272e+19
8.331198464e+19
6.248398848e+19
6.248398848e+19
1.145539789e+20
9.372598272e+19
7.289798656e+19
6.248398848e+19
8.331198464e+19
7.289798656e+19
1.24967977e+20
7.289798656e+19
4.165599232e+19
9.372598272e+19
1.24967977e+20
7.289798656e+19
1.24967977e+20
1.35381975e+20
8.331198464e+19
8.331198464e+19
9.372598272e+19
8.331198464e+19
5.20699904e+19
9.372598272e+19
8.331198464e+19
4.165599232e+19
5.20699904e+19
6.248398848e+19
5.20699904e+19
7.289798656e+19
6.248398848e+19
1.145539789e+20
4.165599232e+19
8.331198464e+19
4.165599232e+19
6.248398848e+19
6.248398848e+19
4.165599232e+19
6.248398848e+19
1.35381975e+20
5.20699904e+19
1.666239693e+20
4.165599232e+19
1.145539789e+20
9.372598272e+19
1.145539789e+20
5.20699904e+19
9.372598272e+19
8.331198464e+19
8.331198464e+19
1.35381975e+20
4.165599232e+19
6.248398848e+19
8.331198464e+19
6.248398848e+19
7.289798656e+19
1.041399808e+20
8.331198464e+19
1.145539789e+20
9.372598272e+19
4.165599232e+19
6.248398848e+19
1.24967977e+20
5.20699904e+19
1.457959731e+20
8.331198464e+19
1.041399808e+20
1.145539789e+20
1.24967977e+20
7.289798656e+19
1.35381975e+20
6.248398848e+19
1.24967977e+20
5.20699904e+19
1.041399808e+20
1.35381975e+20
1.041399808e+20
8.331198464e+19
9.372598272e+19
8.331198464e+19
1.35381975e+20
8.331198464e+19
7.289798656e+19
8.331198464e+19
1.457959731e+20
4.165599232e+19
8.331198464e+19
5.20699904e+19
1.041399808e+20
7.289798656e+19
9.372598272e+19
1.35381975e+20
1.145539789e+20
4.165599232e+19
9.372598272e+19
9.372598272e+19
6.248398848e+19
7.289798656e+19
1.770379674e+20
9.372598272e+19
1.041399808e+20
5.20699904e+19
1.562099712e+20
9.372598272e+19
6.248398848e+19
9.372598272e+19
6.248398848e+19
6.248398848e+19
8.331198464e+19
1.041399808e+20
7.289798656e+19
2.082799616e+19
5.20699904e+19
1.041399808e+20
1.041399808e+20
9.372598272e+19
2.082799616e+20
7.289798656e+19
8.331198464e+19
9.372598272e+19
9.372598272e+19
6.248398848e+19
7.289798656e+19
7.289798656e+19
7.289798656e+19
8.331198464e+19
5.20699904e+19
4.165599232e+19
5.20699904e+19
1.24967977e+20
7.289798656e+19
7.289798656e+19
1.041399808e+20
8.331198464e+19
8.331198464e+19
8.331198464e+19
1.145539789e+20
5.20699904e+19
8.331198464e+19
1.145539789e+20
1.24967977e+20
1.145539789e+20
1.041399808e+20
1.145539789e+20
1.666239693e+20
1.145539789e+20
1.145539789e+20
7.289798656e+19
8.331198464e+19
3.124199424e+19
8.331198464e+19
6.248398848e+19
1.145539789e+20
7.289798656e+19
9.372598272e+19
8.331198464e+19
1.24967977e+20
1.145539789e+20
1.145539789e+20
1.041399808e+20
4.165599232e+19
1.24967977e+20
9.372598272e+19
6.248398848e+19
7.289798656e+19
1.041399808e+20
7.289798656e+19
6.248398848e+19
9.372598272e+19
1.145539789e+20
6.248398848e+19
5.20699904e+19
1.562099712e+20
6.248398848e+19
2.082799616e+19
8.331198464e+19
9.405835905e+19
6.313674292e+19
6.357388371e+19
6.401711999e+19
1.074443002e+20
5.410199684e+19
4.35898026e+19
6.585364294e+19
6.632935708e+19
6.681199412e+19
5.225464393e+19
1.052279049e+20
8.476517832e+19
5.334760002e+19
4.297772011e+19
9.738359437e+19
7.628215461e+19
6.585364299e+19
3.316467854e+19
1.113533235e+20
8.360743026e+19
9.470511435e+19
5.297823641e+19
8.535616003e+19
7.521101025e+19
8.656319494e+19
7.628215455e+19
2.195121433e+19
6.632935708e+19
3.340599706e+19
4.180371513e+19
7.365953343e+19
9.536082561e+19
8.535615997e+19
4.297772008e+19
4.328159747e+19
8.717960526e+19
3.29268215e+19
5.527446424e+19
3.340599706e+19
6.27055727e+19
1.157506953e+20
5.297823645e+19
5.334760005e+19
3.223329011e+19
7.574279562e+19
6.538470395e+19
1.207316788e+20
5.527446428e+19
8.908265889e+19
8.360743026e+19
8.418232386e+19
4.238258913e+19
5.334759998e+19
8.595544016e+19
4.328159744e+19
7.62821545e+19
3.292682145e+19
5.52744642e+19
6.681199417e+19
6.27055727e+19
6.31367429e+19
6.357388374e+19
9.60256801e+19
3.223329011e+19
7.574279562e+19
4.358980263e+19
1.097560717e+20
5.527446424e+19
1.55894653e+20
5.225464391e+19
5.261395245e+19
9.536082561e+19
7.468663997e+19
1.074443002e+19
1.19024393e+20
6.538470395e+19
4.390242866e+19
5.527446424e+19
2.227066471e+19
3.135278635e+19
7.365953338e+19
2.119129457e+19
8.535616003e+19
6.446658021e+19
7.574279557e+19
1.198719572e+20
7.682925016e+19
5.527446424e+19
5.567666177e+19
4.180371516e+19
4.209116196e+19
9.536082561e+19
6.401712002e+19
3.223329008e+19
4.32815975e+19
5.448725329e+19
5.487803583e+19
6.632935708e+19
2.227066471e+19
6.27055727e+19
6.31367429e+19
6.35738837e+19
3.200856001e+19
7.52110102e+19
1.19024393e+20
1.089745065e+20
7.68292501e+19
7.738424993e+19
7.794732648e+19
1.045092878e+20
5.261395245e+19
7.416953103e+19
6.401711998e+19
6.446658017e+19
8.6563195e+19
1.198719577e+20
8.780485788e+19
6.632935741e+19
8.908265921e+19
5.225464391e+19
7.365953358e+19
7.416953128e+19
1.600428001e+20
9.669986985e+19
6.492239611e+19
4.358980254e+19
2.195121415e+19
8.84391424e+19
5.567666177e+19
7.315650124e+19
7.365953293e+19
7.416953048e+19
1.280342396e+20
2.148886007e+19
3.246119803e+19
8.717960478e+19
5.487803575e+19
8.84391424e+19
6.681199365e+19
1.149602172e+20
6.313674307e+19
1.059564728e+20
9.602568036e+19
7.521101076e+19
4.328159768e+19
8.717960539e+19
6.585364336e+19
7.738425015e+19
6.681199412e+19
1.045092877e+20
5.261395256e+19
6.357388413e+19
1.173647204e+20
4.297772014e+19
3.246119826e+19
1.089745067e+20
5.487803536e+19
4.42195712e+19
4.454132941e+19
8.360743015e+19
8.418232352e+19
8.476517769e+19
1.066951997e+20
7.521101025e+19
7.574279541e+19
5.448725337e+19
6.585364336e+19
1.105489288e+20
1.224886559e+20
7.315650138e+19
8.418232409e+19
6.357388413e+19
6.40171198e+19
8.595543969e+19
1.190243928e+20
9.807705538e+19
1.646341072e+20
7.738425015e+19
1.224886559e+20
8.360743071e+19
8.418232409e+19
5.297823641e+19
1.173647204e+20
1.181887304e+20
8.656319476e+19
7.628215471e+19
3.292682145e+19
9.94940352e+19
4.454132973e+19
1.149602165e+20
1.262734861e+20
9.536082555e+19
8.535615974e+19
8.595544028e+19
9.738359478e+19
1.416668588e+20
1.317072858e+20
1.105489288e+20
1.224886559e+20
8.360743015e+19
6.313674264e+19
9.536082555e+19
1.173647204e+20
9.669987032e+19
1.514855908e+20
9.807705606e+19
3.292682168e+19
6.632935727e+19
1.002179912e+20
5.225464384e+19
1.157506948e+20
1.059564728e+20
7.468664028e+19
)
;

boundaryField
{
    flow
    {
        type            zeroGradient;
    }
    obstacle
    {
        type            calculated;
        value           nonuniform List<scalar> 10(595.5043664 2.225073859e-308 2.225073859e-308 104.7995869 2.225073859e-308 2.225073859e-308 98.11284842 2.225073859e-308 61.92516263 2.225073859e-308);
    }
    frontAndBack
    {
        type            empty;
    }
    procBoundary0to1
    {
        type            processor;
        value           nonuniform List<scalar> 
21
(
6.730170633e+19
4.486780426e+19
6.730170633e+19
7.851865739e+19
3.365085317e+19
5.608475536e+19
2.131220701e+20
7.851865739e+19
5.608475532e+19
1.121695106e+20
5.608475528e+19
1.233864621e+20
7.851865717e+19
6.730170614e+19
7.851865773e+19
2.243390205e+19
6.730170614e+19
7.851865773e+19
7.851865773e+19
5.608475512e+19
1.233864621e+20
)
;
    }
    procBoundary0to2
    {
        type            processor;
        value           nonuniform List<scalar> 
31
(
7.289798656e+19
5.20699904e+19
1.35381975e+20
1.24967977e+20
1.145539789e+20
5.20699904e+19
7.289798656e+19
8.331198464e+19
8.331198464e+19
1.24967977e+20
1.457959731e+20
8.331198464e+19
9.372598272e+19
1.35381975e+20
6.248398848e+19
6.248398848e+19
6.248398848e+19
9.372598272e+19
5.20699904e+19
4.165599232e+19
3.223329011e+19
6.492239607e+19
6.538470358e+19
4.39024286e+19
7.738425015e+19
7.794732648e+19
7.315650138e+19
7.365953358e+19
9.536082555e+19
3.223329011e+19
6.40171198e+19
)
;
    }
}


// ************************************************************************* //
