/*--------------------------------*- C++ -*----------------------------------*\
  =========                 |
  \\      /  F ield         | OpenFOAM: The Open Source CFD Toolbox
   \\    /   O peration     | Website:  https://openfoam.org
    \\  /    A nd           | Version:  7
     \\/     M anipulation  |
\*---------------------------------------------------------------------------*/
FoamFile
{
    version     2.0;
    format      ascii;
    class       volScalarField;
    location    "0.01";
    object      translationalT;
}
// * * * * * * * * * * * * * * * * * * * * * * * * * * * * * * * * * * * * * //

dimensions      [1 2 -2 0 0 0 0];

internalField   nonuniform List<scalar> 
654
(
289.7949805
305.2816235
297.6541797
298.3444661
300.2401104
301.5322697
301.1557481
299.5053505
299.3789033
300.1343091
302.2346267
300.0063825
300.7843118
303.7147503
317.9525284
329.565878
362.300018
445.7427121
686.1845284
1300.081495
290.6382347
307.2460217
299.420188
299.7190219
300.7162055
300.0590451
300.0260452
300.6695162
300.8554262
299.9287555
300.3860644
303.0784692
303.619637
308.2318939
315.1903537
340.1918318
387.6978902
485.0422378
736.4587065
1147.402824
291.5505587
308.6835398
301.6607443
301.8591289
302.2576003
301.7771961
300.7489943
300.6245255
301.9346075
303.1382219
302.4692903
304.5025379
302.4780326
304.4486186
310.697901
331.2457088
379.2247201
474.697442
644.7031732
925.8897636
289.2463606
304.7870574
299.5484751
301.4791143
299.4229333
300.1165797
301.1254294
301.8797419
302.2859235
303.6222203
304.5918043
304.4454704
306.8511062
309.8215483
315.1198694
335.9179076
366.1479752
449.6544342
569.562719
753.3211576
293.6660357
308.7087794
300.3284777
300.4599523
301.7433077
301.1373284
300.194985
300.2087895
300.6956549
299.5612284
301.8989486
305.3860833
307.4343232
312.4434526
315.1653274
331.2870048
360.280988
411.7318533
492.646239
625.5691292
292.8397848
307.0487379
301.0001702
300.1880501
300.4906286
299.7802417
299.9051794
299.3681239
297.9611347
299.9505893
300.9631603
302.4769216
304.4564459
306.8175536
310.5753976
327.4371364
340.8603441
375.2093573
446.3104653
527.8115271
291.1785069
306.2431508
300.5122822
301.3868374
298.1724093
297.7068789
297.7531317
299.6656181
301.2085085
299.0039696
299.6038951
301.0846259
304.6411133
310.0985961
315.2009634
321.7071879
340.0844223
362.1030867
407.110282
464.8783449
287.733762
305.8663629
297.4985203
298.2540272
301.2208633
302.5454007
301.5792012
300.8353629
300.7361599
302.4676014
302.8822745
301.3823308
302.4522663
302.7405883
305.4832585
316.7785816
322.9078656
342.8173997
371.1039884
423.6515253
291.3840518
305.4078741
296.4241063
296.8410541
297.5058938
297.8206623
298.8818356
299.2735133
299.5682709
298.7728554
299.3045999
300.3968257
301.7220686
305.2955739
309.1764496
314.2767415
322.8392626
335.0281868
348.7168605
390.4910234
290.6486006
307.7348298
301.4310977
302.4995589
300.4930022
300.3219188
301.670192
301.9500707
300.1707422
301.9431443
302.0291597
302.4636275
302.6179576
308.2370589
307.7837074
307.1464975
316.8183847
323.5821175
334.4317017
364.524278
293.640446
309.6447505
302.4879269
302.9942424
300.9517828
302.2438793
300.9147518
298.6170268
299.1262577
300.5124771
297.38573
298.8967543
300.0557353
304.1149513
304.7281741
306.7305499
309.7697089
315.5670379
331.2512901
346.3790761
289.6312978
304.140686
297.5436447
298.1926183
299.4439526
299.0575009
297.0155301
297.9533198
298.6526356
297.1314507
300.4777976
300.843996
300.8721219
303.5429509
300.900751
302.1246109
305.4811119
310.4683937
324.0885554
340.5467368
294.4625265
310.1296647
302.6954731
300.9866605
300.1794694
299.2541532
301.4003945
301.5440365
300.2094761
301.1968757
298.2536502
298.3444791
297.4303981
300.7135691
301.0500275
301.0225909
305.8724393
306.6024283
316.9761079
326.7625647
290.6245299
306.2743696
298.9361568
302.6094615
303.8875781
304.9860969
303.000004
301.0839255
301.2699007
300.6238771
303.0162313
305.8452691
303.4729986
303.255949
303.947239
304.0926565
306.4730374
307.8949238
315.3099936
319.0049607
288.9030856
305.4725587
300.7099785
300.8987955
301.7174464
301.450882
299.6504259
302.0124279
300.1202846
299.5080536
298.1959079
300.460861
302.2790264
301.6684073
302.8609309
302.7805548
306.7938344
304.2132355
311.2672892
315.9092662
289.247856
306.5738327
298.5794714
299.6644063
298.175263
298.1437014
298.5859321
299.1640443
299.4778763
300.7755953
300.9171977
299.1044479
298.5330331
299.1045568
299.1936144
299.8065654
304.231026
304.5623042
312.4230768
308.9325108
290.6009739
305.3535701
296.5735493
296.8608445
298.4241295
297.7745568
298.3459113
299.1869176
301.5223833
301.5461081
298.0016138
299.2318908
300.3392262
303.1477915
303.5784532
305.571176
305.0929845
307.651518
311.4211634
310.5209328
287.9738454
304.4641956
298.5360706
298.55908
298.1137841
299.2830341
300.424726
300.8362724
299.9668558
300.6292252
302.5149449
304.0328471
303.614009
302.1592272
302.8718437
304.1821618
301.7127281
303.3535854
306.807697
310.1882248
291.0647629
307.096311
301.5441603
301.3922141
302.0274239
300.4794677
298.886218
297.3774971
296.5357907
297.3477972
298.4720559
299.4253082
300.6860193
301.5756801
301.3604378
302.0725844
302.7085086
303.6570933
304.1022712
306.758314
291.9130333
308.1146997
301.6922276
300.7147409
299.7160265
299.259
299.8355288
299.2603633
302.4170327
303.3328085
300.6427643
301.854017
301.3154908
300.5354776
300.2217243
302.1619311
303.1511781
302.6678243
305.3189078
307.2531781
292.9722811
307.5271912
299.8958068
300.7986921
302.3423567
303.5243623
302.8164777
303.3205314
301.593547
300.3357912
300.7828178
300.3947521
300.6169148
298.3808356
300.5487561
302.4144253
303.0894194
304.7271096
302.8304726
299.7466131
291.0992044
306.2216081
299.9899788
300.2918657
299.2473044
300.633349
301.1846694
302.0241197
303.0425321
302.8873271
302.3687397
300.4664947
299.3289737
300.973129
302.3605441
302.5989216
303.5559041
301.8876642
301.9536368
302.4684127
1380.405718
1254.989542
1179.320905
1128.307747
1087.318766
1050.189002
1021.087394
993.8713252
955.1992721
941.6145462
1345.751946
1308.965736
1253.241069
1201.297532
1162.878369
1139.923065
1103.859334
1077.783219
1063.627373
1042.774926
1151.985334
1210.489522
1194.741807
1170.103681
1139.80642
1121.393218
1106.257551
1090.757444
1076.897053
1054.864415
943.1391305
1027.44761
1089.357032
1099.494912
1100.337206
1092.861592
1080.523871
1071.402396
1054.528735
1043.306996
751.5863876
859.195964
947.8010282
997.4685471
1018.25477
1035.154884
1040.051254
1039.363423
1020.617389
1015.921603
623.0248555
716.1674392
803.2549772
893.0767181
931.5241237
959.2895918
990.099546
991.9008332
991.9066479
984.0124365
539.6056444
616.288024
682.1322235
772.7906365
823.7075589
854.6200317
905.2290655
934.0007369
950.8246073
949.5134973
476.3289651
526.4116996
595.1205641
667.8233574
733.4784243
770.0040747
815.2223926
858.713551
883.6427356
904.1158992
430.1498093
478.0821885
506.8943412
569.4463801
629.3944268
677.3752332
716.8489169
761.2802527
802.3614704
830.7971631
393.1902353
430.4157648
454.3409975
501.0482846
546.4523596
591.295583
637.0187966
680.9518059
728.7183472
757.514848
367.5309206
395.8298118
427.6012929
459.2311303
486.0449734
527.1027817
555.8737088
609.3508787
649.3801097
680.2901395
351.0925451
366.9758251
389.9810234
418.8998047
440.7914647
475.7939244
507.0390081
541.4249598
573.7144706
614.5732428
341.4802409
351.5795108
359.0777963
384.248967
399.6787667
426.6156105
449.5540246
482.7431772
516.8273233
547.6553669
329.5976445
334.8102413
341.9375751
360.2147825
375.2009005
390.0753626
405.6320271
435.3657635
474.1617818
497.3212438
323.6403551
328.2103404
336.6969179
341.8111423
362.4145243
375.4041262
387.4730735
403.2121084
430.7340646
447.4945661
314.4050337
319.5784092
327.2257986
333.7957981
349.1307991
357.5815228
364.3334145
374.7887966
392.4127267
410.8551239
317.022148
319.7929806
323.8428172
326.7188692
332.9485593
340.9614032
346.1990505
359.3821793
368.1906373
390.3044957
307.6936987
312.9564021
313.19036
323.0837349
325.2424168
332.0148091
337.7454404
347.2270718
353.5950001
364.0152086
307.6075174
310.9654816
315.1532497
316.8075032
319.3912863
322.6730375
327.5497884
336.9452121
342.9406521
346.3534583
308.8492908
308.0283906
306.6857969
310.3358799
316.6320354
316.0538119
318.2999617
324.9948023
331.525012
338.7663795
302.9341516
301.9788378
306.3176828
305.5646793
311.2657902
312.9696943
316.4964937
319.7825173
318.5434675
325.0045442
304.6626876
304.5714303
305.3488314
306.4152294
)
;

boundaryField
{
    flow
    {
        type            calculated;
        value           nonuniform List<scalar> 
42
(
289.7949805
290.6382347
291.5505587
289.2463606
293.6660357
292.8397848
291.1785069
287.733762
291.3840518
290.6486006
293.640446
289.6312978
294.4625265
290.6245299
288.9030856
289.247856
290.6009739
287.9738454
291.0647629
291.9130333
292.9722811
291.0992044
289.7949805
305.2816235
297.6541797
298.3444661
300.2401104
301.5322697
301.1557481
299.5053505
299.3789033
300.1343091
302.2346267
300.0063825
300.7843118
303.7147503
317.9525284
329.565878
362.300018
445.7427121
686.1845284
1300.081495
)
;
    }
    obstacle
    {
        type            calculated;
        value           nonuniform List<scalar> 10(1189.230332 1095.997683 981.8475444 964.3400903 934.7290784 881.5593641 873.7689423 824.9887028 841.2368185 792.9721702);
    }
    frontAndBack
    {
        type            empty;
    }
    procBoundary0to1
    {
        type            processor;
        value           nonuniform List<scalar> 
21
(
923.9785873
1027.62908
1038.06986
1031.250694
1005.092122
975.0295043
942.4795071
903.7633308
862.2404635
795.7005832
728.5085386
656.0754884
589.9014399
532.1798012
479.3101408
432.9813304
404.5679574
382.0901292
356.9678408
342.9207221
334.0765936
)
;
    }
    procBoundary0to2
    {
        type            processor;
        value           nonuniform List<scalar> 
31
(
293.2115384
306.9016043
299.8514485
300.6686577
300.7812208
300.2738945
300.5398659
301.2604718
302.1127332
301.3181231
301.8924688
301.7707876
301.2540021
301.2590932
301.997652
299.3779893
299.3056114
299.8647664
300.7262458
301.1330914
306.4232716
310.4813629
312.2047487
315.1214689
318.5257434
320.8550631
300.9120139
300.8004905
301.9431874
306.4232716
302.8998428
)
;
    }
}


// ************************************************************************* //
