/*--------------------------------*- C++ -*----------------------------------*\
  =========                 |
  \\      /  F ield         | OpenFOAM: The Open Source CFD Toolbox
   \\    /   O peration     | Website:  https://openfoam.org
    \\  /    A nd           | Version:  7
     \\/     M anipulation  |
\*---------------------------------------------------------------------------*/
FoamFile
{
    version     2.0;
    format      ascii;
    class       volScalarField;
    location    "0.003";
    object      internalT;
}
// * * * * * * * * * * * * * * * * * * * * * * * * * * * * * * * * * * * * * //

dimensions      [1 2 -2 0 0 0 0];

internalField   nonuniform List<scalar> 
546
(
705.1769337
700.3314247
692.8099302
685.2348507
701.6296311
704.1746692
698.8487871
691.3872429
683.5901663
691.0546322
686.9737746
681.1191007
678.484816
670.3974922
678.4790339
682.8623495
699.663995
699.7361033
685.2372084
674.6024163
681.3472089
674.9684643
692.0925092
690.1405596
671.3322989
657.5550771
665.0496662
665.8350544
667.457927
680.9836829
756.3085384
757.693939
762.6744556
751.6338411
774.8369253
774.1218632
780.5697554
781.6501243
781.9389159
768.9972972
773.137666
772.4595246
754.9839042
762.3501059
764.8667681
752.9958225
765.3416575
753.3314387
759.33843
746.7724498
744.4525594
735.2425755
751.0199983
743.7763165
733.5777465
703.5769326
717.5143624
722.6942877
717.2645996
729.1489099
758.8439303
769.6114733
763.4515603
775.7370811
783.2375976
795.9257448
785.5974473
790.1825796
808.9175362
813.3286655
814.6076816
796.745709
799.9855245
817.5323224
797.2645293
789.376586
779.3477433
792.2019055
808.1418568
790.9686504
787.8300655
780.6321328
798.6736279
791.6921718
776.28494
772.7486483
763.4895457
756.4186309
754.6296313
742.3936237
718.3752279
741.8349404
770.1388916
776.3288535
785.4865656
791.6911837
812.2757411
797.7420224
787.4540323
811.3349755
815.6607372
826.6133938
830.2836548
819.3606173
833.4085212
816.9650656
810.6742471
809.3828012
797.1662643
790.0727341
792.4478115
804.7211741
798.7830864
822.1997141
799.8787264
779.6820328
785.8521567
779.0609939
781.8039162
768.2570474
681.2318371
709.9252655
712.4460856
733.1179882
745.9882164
757.6948213
769.2766298
775.315442
798.2732831
798.8027453
805.6883409
813.4987576
806.9850714
806.1392115
810.8901828
808.0681616
820.1335953
795.4876322
803.0185943
793.7432894
799.1798106
826.2459974
823.4461949
809.5996075
808.8144634
800.9911079
795.2393041
800.6620415
812.8708403
798.8214222
628.2930214
646.7246921
672.2956719
682.5155243
694.184246
715.4941666
736.4692628
737.2190039
761.7446579
758.0058693
775.2498571
789.592668
793.5202079
801.1272789
805.6820818
806.6178421
808.4126096
818.8274807
823.7250269
824.3241729
815.3287547
836.8220734
812.845858
811.6615641
803.4570938
812.0818093
801.1688724
792.3087422
807.1290298
799.8623854
596.7434101
622.127766
629.7754865
637.5987857
666.4809047
682.8649599
700.2609082
715.0730587
729.7285984
751.453065
759.2470061
751.661152
777.394241
787.2207741
805.9218164
793.1463615
797.6225932
801.0070836
806.1818289
803.1276258
827.8937702
810.8544437
811.8760028
806.1391828
804.0955704
795.1717861
802.5620004
810.1590523
789.0925392
787.0257662
546.8481367
563.4000427
581.8755067
609.7294194
617.2249231
650.1961822
658.9109979
679.7911379
708.4744559
727.8271168
742.0279177
738.476415
743.503336
763.6706407
759.7634586
767.6531874
776.8417235
789.109853
784.8773236
788.2789523
793.5496804
817.7176105
822.6011222
820.972182
811.5208457
802.2478563
813.7512893
811.0723472
805.5872822
794.8718207
489.7575471
505.0209644
543.9677821
566.6024578
580.7411233
610.8735936
628.7151248
648.1488448
669.0594754
684.3313007
701.7044274
716.8666591
728.7326573
733.3701229
736.6048961
759.1310015
764.926513
769.9332481
767.3464707
776.1528634
779.3389951
794.5456369
787.547151
790.496078
802.2637906
797.2275312
794.4399923
793.2422309
799.7335101
784.8776061
454.749181
474.2703312
495.3708936
513.8470847
541.0076032
559.8749457
584.9948236
614.5207965
624.7694864
638.4971124
655.70523
669.476773
690.3656135
694.932121
715.7828149
723.1916951
745.5489571
752.5022266
751.1095947
753.494414
756.5122522
748.9462661
762.8494855
780.2826971
779.3393568
783.3849593
783.1083294
775.9311508
773.7394163
779.6519639
430.0204
447.8424433
471.0803542
489.420503
500.3674066
524.4852226
551.0569409
563.6355993
584.4976938
599.1681297
610.8478755
643.1912326
652.1293253
675.7314951
680.1692431
698.4690255
707.3038723
708.9436489
723.9201749
727.1411646
746.4764015
751.6743329
769.6667143
753.2623474
763.2758701
765.2694775
766.3511816
763.6257394
750.2898798
753.8933888
388.4439597
405.8773205
418.2835841
438.9854921
462.5807209
478.376381
498.5941296
522.1706147
534.5529332
562.7638278
580.7895378
603.7619928
628.7476
639.5676866
660.213557
673.5696443
682.2256736
686.3865722
687.2847665
708.3802424
722.1948167
716.4077044
737.9361698
747.4107973
741.4275298
748.4609992
754.0632203
748.8743185
749.4631826
734.3769042
366.358668
379.4061221
405.310569
412.8520727
428.9152749
443.7510058
462.5882272
475.1161361
496.3811832
503.3430175
525.9392165
557.627746
565.2561195
591.5133511
615.3727736
638.2875149
652.3218993
668.3836911
680.7048975
687.5686755
685.6309751
694.2134559
707.4913863
708.9063783
714.8300613
736.8414157
731.8680518
755.0511941
760.8304873
753.2002952
350.547897
361.9819275
375.1031433
388.9947707
396.4045338
414.5151856
426.9711763
444.8748206
475.5753556
488.5904777
495.2096446
513.407239
531.1151623
551.9804167
570.6096575
591.784516
604.9350699
628.3996112
644.7822447
658.1108078
674.8858492
675.2078036
679.5129602
697.7369839
713.0964259
719.3088732
734.8122783
716.983622
728.4917615
722.6744853
346.3316455
351.3946958
360.4814141
362.720863
383.3077258
392.5816108
406.7090136
423.3637034
429.9484424
445.8745234
477.2557553
484.6022198
509.7701987
527.5199117
545.3153473
557.9285056
567.7725609
587.0430312
607.7898447
619.5624927
631.396615
648.8238911
650.273148
662.1452423
679.1461124
694.7262757
705.3743648
702.135321
697.154787
701.6937679
330.4988946
336.2501503
339.6178012
352.5724884
358.4387276
375.4553938
384.2512028
393.727582
411.0328275
418.2201869
425.8848148
449.4600743
471.790307
497.5840416
509.1927027
527.7500626
546.9193702
556.8806815
578.8861534
592.3085224
613.3250587
623.4244193
639.7854862
644.4040604
647.9563694
654.1862546
670.5445188
682.761958
683.3854174
328.9357576
339.7964315
345.1650416
342.0479357
345.7632406
362.2344967
370.5546806
380.3943253
393.8696034
409.6197426
421.2145734
429.6261618
448.0916786
460.7432567
489.0146211
505.4098382
522.8432052
539.9093098
549.5073954
557.4440133
584.6887151
600.6511538
614.0287719
632.8739871
317.0757571
319.6666053
323.7637643
330.1730016
336.3935962
342.9412341
358.6374005
364.0880435
379.1413297
390.0635714
403.658802
407.3542258
420.2072622
437.1526091
449.7893681
463.440126
490.0208885
505.982913
529.7960584
306.5117734
309.5020602
318.4356983
326.7908915
325.4297496
328.2407562
338.6475969
344.6784594
352.7760065
362.2766979
375.0560346
394.616382
404.8061626
412.1392819
308.3883328
310.1471596
310.3321461
314.9847642
322.7183645
326.0861459
332.3645636
340.6605977
307.6200969
311.1100268
)
;

boundaryField
{
    flow
    {
        type            calculated;
        value           nonuniform List<scalar> 
15
(
680.9836829
729.1489099
742.3936237
768.2570474
798.8214222
799.8623854
787.0257662
794.8718207
784.8776061
779.6519639
753.8933888
734.3769042
753.2002952
722.6744853
701.6937679
)
;
    }
    obstacle
    {
        type            calculated;
        value           nonuniform List<scalar> 
30
(
642.4897599
590.1875383
655.9156748
632.5009398
617.2948547
616.6487319
643.7617286
634.1151962
633.254698
616.4803325
615.5649184
632.2157394
672.6304688
588.9972787
617.8867277
601.1841756
618.0155311
658.0034637
634.8400261
616.4994359
643.1278896
619.0423781
637.155156
609.423457
618.173746
614.8694375
632.4993571
612.7817841
629.1876302
667.6954518
)
;
    }
    frontAndBack
    {
        type            empty;
    }
    procBoundary1to0
    {
        type            processor;
        value           nonuniform List<scalar> 
21
(
702.0743055
763.7448948
748.0969564
702.1462268
650.8492059
621.1941945
566.168003
505.7910033
458.4242261
425.4328664
414.1364133
373.650027
350.8406128
350.5083799
341.5144712
323.7596182
323.5034407
312.586743
306.0444586
304.9310042
306.8147114
)
;
    }
    procBoundary1to3
    {
        type            processor;
        value           nonuniform List<scalar> 
36
(
700.1250659
643.5989658
651.4434531
656.4542961
666.122262
700.1250659
671.1024654
543.5942588
548.2126296
565.9447247
595.314908
643.5989658
607.51804
430.7488533
436.7701961
456.8071935
480.6496076
543.5942588
496.2201551
342.8388731
351.0795639
360.1282889
372.8327443
379.4399975
430.7488533
384.9584943
309.9890196
309.3705353
316.0618439
319.2346954
323.6447903
342.8388731
325.9612703
310.2520148
309.9890196
311.9727933
)
;
    }
}


// ************************************************************************* //
