/*--------------------------------*- C++ -*----------------------------------*\
  =========                 |
  \\      /  F ield         | OpenFOAM: The Open Source CFD Toolbox
   \\    /   O peration     | Website:  https://openfoam.org
    \\  /    A nd           | Version:  7
     \\/     M anipulation  |
\*---------------------------------------------------------------------------*/
FoamFile
{
    version     2.0;
    format      ascii;
    class       volScalarField;
    location    "0.003";
    object      linearKE;
}
// * * * * * * * * * * * * * * * * * * * * * * * * * * * * * * * * * * * * * //

dimensions      [1 -1 -2 0 0 0 0];

internalField   nonuniform List<scalar> 
546
(
0.4802263204
0.304778761
0.7664587001
0.8831372425
0.532374566
0.7393644249
1.260943484
1.19531328
0.5020349691
0.5612786494
0.425822673
0.73203561
1.141443835
0.8479158535
0.5913328859
0.3040507713
1.825793473
1.462648666
0.8793636455
1.052267909
0.4556756178
0.547504774
0.5119945825
0.5181767516
0.2178759209
0.8877023148
1.193782003
0.1143821613
1.253911724
0.5519626578
0.5504584883
0.1145295131
0.3627560594
0.5132592765
0.466047941
0.7541711144
0.3781028671
0.9056168923
0.2306954878
0.4324682587
0.6020675716
0.8723659722
0.4688847018
0.556231509
1.120776379
1.068260439
0.5172227011
0.5193483116
1.207373605
0.970869083
0.4488489434
0.5774407473
0.7811027522
0.05427399558
0.4701862904
0.4802329398
0.4486650608
0.6756878656
0.4054652914
0.5170658484
0.7668423461
0.657467193
0.5922882841
1.083781242
0.6505639438
1.344735847
1.302111576
0.7287632383
0.5574255871
0.2342539457
0.332176035
0.499382591
0.6171612073
1.230619624
0.1922756057
1.032496164
0.7220869714
0.5843892767
0.8092973941
0.4762899429
0.1871476269
0.6138507584
0.9312349001
0.08083603146
0.9143271693
1.032006546
1.096625753
0.4659022981
0.7632012309
0.7869890273
0.3122464688
1.000630289
0.1670595049
0.2733118359
0.05944625426
0.5560538039
0.4296423731
0.3016584955
0.207307939
0.85461459
0.3794684231
1.23045487
0.7265277893
0.3332153864
0.4173567765
0.8249075319
0.6208519787
0.7577936395
1.068174171
0.5939938304
0.06155006691
0.7981984941
1.386572749
0.3835121266
0.4208283369
1.050867208
0.4514602885
0.6646085533
0.5419663057
0.7424046805
0.9602832991
0.8408548057
0.5940066353
0.8974261137
0.087673327
0.5297824378
0.7498611362
0.4309834579
0.5602009463
0.837902526
1.002012832
1.130856454
0.6089375564
1.320575644
1.242283202
0.9289781225
0.4453570942
0.3113194329
0.3137972377
1.012496637
0.3741519926
0.7773514074
0.5394339733
0.2519522536
0.08495931192
0.443580573
0.7424061772
0.5885622328
0.2174314815
0.3914240966
0.382104761
0.3452898673
0.3086074841
0.5689061036
0.4447489732
0.2822315321
0.7077293786
0.9667618167
0.6175819461
0.7475260911
0
0.1715530443
0.9362090575
0.3848666326
1.185624872
1.05891353
0.7679912987
0.105440428
0.120500605
0.3260165839
0.2680925956
0.7199949953
0.286249442
0.5516594455
1.53454275
0.4970924107
0.2494839276
0.4518358031
0.5763751311
1.085225342
0.6035296123
0.4515162419
0.6643178396
0.5225871699
0.5591202173
1.176563971
0.6171242041
0.7063244857
0.1452791406
1.18203482
0.2793555908
0.4164219958
0.441564468
0.3227116534
0.4331345513
0.507698445
1.084718572
0.613703307
0.9099836883
0.5812380419
0.1246152216
0.3627248013
0.1085587401
1.007621888
1.470044751
0.3295420188
0.253366774
1.086882634
1.34367719
0.9538153791
1.054279866
0.8795012001
0.4415738044
0.4689296759
0.742264168
0.984974346
0.7151543416
0.3595985795
0
1.124524268
1.129565785
0.6687083719
0.4487678168
0.4606306902
0.4095256636
0.416018852
0.3928649471
0.4593416998
0.9533251142
1.267254746
0.6873798284
0.2635322762
0.07358486815
0.3561897966
0.3223167756
0.9815719245
0.1384599524
1.160853748
0.3206884395
0.5431566544
0.6421981331
1.081928567
0.4540280628
0.7642236226
0.3326188869
1.570255087
0.8092570124
0.3660723831
0.1200577994
0.5768345777
0.6748714402
0.3675484871
0.3830493193
0.71848639
0.706457437
0.8319270822
0.3335718837
1.043969201
0.9144899877
0.2163295091
0.3441074734
0.5374089533
1.005060233
0.7965777641
0.5525968441
0.2525383956
0.9348498324
0.9971194941
0.7129420893
0.542739296
0.6202426138
0.3473646722
1.317521062
0.6908040894
0.8524169414
1.131834714
0.563566593
1.103536465
0.6056245392
1.102430303
1.131139295
0.9444370524
0
0.2047037542
0.9083710308
0.464554033
0.4409356015
0.8530563654
0.8233463897
0.4307683091
0.4888403066
0.4004641612
0.8486023691
0.5210187249
0.03466695342
0.3416321907
0.1262595098
0.887947095
0.407423964
0.7172580951
0.1313026487
0.3970855889
0.317279328
1.03952465
0.3537075
0.5933578806
0.8571249912
0.9606389692
1.057645083
0.665497952
0.1139211729
0.3982782711
0.9098411455
0.7666627969
0.3936760526
0.4179275136
0.9805941994
0.3498961765
0.2598031023
0.2909986366
0.3215880771
0.4978820033
0.5827084735
0.3623373231
0.2541929179
0.4998291975
0.5724263959
0.6353424083
0.182652775
0.2547589188
0.7568899456
0.7286293849
0.7627327459
1.105855765
0.8053293296
0.6849630225
0.8182575033
0.7618034407
0.7148301941
0.8231679992
0.758660526
0.5969920068
0.2608223175
1.167225808
0.568915852
0.9057812437
0.3011524121
0.727600435
0.7448991902
0.1716762642
0.7578394772
1.267180653
0.2577020561
0.7958758056
0.6444132406
0.6704007757
0.7878307245
0.4938509747
0.601738902
0.5489204519
0.003797396815
0.5529290292
0.7039550608
0.965309383
0.2837509642
0.5332925816
0.3417331992
0.3594320429
0.5276035185
0.1672653385
0.2231561939
0.3142136635
0.1937420481
0.9297798836
0.8739826156
0.3755561075
0.5086988714
1.071926274
0.1709691416
0.4981532907
0.5379002997
0.4664895799
0.4707346366
0.4155344779
0.3989497546
0.4393297898
1.005517664
0.6311567641
0.3126172925
0.9231696869
1.751660375
1.181418997
0.3830064666
0.5366744517
1.159664409
0.4499271704
0.612853445
0.4986796374
1.177272322
0.3786095876
0.9580381962
0.3076412983
0.1961999502
1.073018738
0.6198252833
0.2607782021
1.34425564
0.2833174952
0.3679335282
0.3356729142
1.006711965
0.5904090384
0.7180066815
0.7299073846
0.4973139523
1.240009856
0.9554549107
0.8894892515
1.048956173
0.5786624806
0.759389551
0.3620758499
0.3712226753
0.9413289469
0.3921367618
0.3250155751
0.4427853186
0.4465242954
0.3318420809
0.6077040295
0.3377031008
0.3180616892
0.9134850035
0.6295112442
0.2997721442
0.7156077856
1.263335856
0.6111560016
0.6561004061
0.3475533993
0.7544876991
0.9525594119
1.024824774
0.7764250242
0.5311576612
0.4891955164
0.5672392653
0.3682870915
0.8964928811
1.652928372
0.8857308619
0.2886003457
1.249461586
0.7404934777
1.344661018
1.306188719
0.5670406528
0.9657426677
0.7028225687
0.2434821399
0.9793982325
0.3652344173
0.6593342392
0.9586426369
0.6416829944
0.9976484154
0.2462409593
0.6267885862
0.8552319083
0.7737780516
0.9442047004
1.261217005
0.2774316212
1.229333327
0.939537752
0.5822035891
0.5375018012
0.2831555639
0.6241431073
0.6298365606
0.4520700994
0.6984141261
1.045192656
0.4855102695
0.06510814525
0.9321442858
1.182239265
0.5713982447
0.6170340199
0.6884761515
0.2591082925
0.5529901146
1.074830323
0.3720073088
0.02076646072
0.6585141697
0.1787237551
0.9209615128
0.9706693722
0.7791056016
0.3585665389
0.4183583334
0.1408292936
0.5798646612
0.84207732
0.5646826605
1.156451572
1.22199264
0.9950458008
0.3929929917
0.4869944393
0.9365032171
0.7668226369
0.6669317098
0.4629021691
1.012942312
0.7676617664
0.1419430282
0.5586349308
0.5313012959
0.5601340039
0.2013853071
1.386739257
0.2805123748
0.8082121473
0.1528522272
0.6962795642
0.7023044209
0.5690231705
0.5888256978
0.1077198759
0.6205561801
1.113694592
0.8855062363
1.833791877
0.3528499431
0.4927944553
0.6037381953
0.6088232814
0.6005715081
0.8572090114
0.09916910664
0.3515246649
0.4090998337
0.3259113599
0.7386935012
)
;

boundaryField
{
    flow
    {
        type            zeroGradient;
    }
    obstacle
    {
        type            calculated;
        value           nonuniform List<scalar> 
30
(
0
0
7.499948031e-19
0
0
0
1.255890118e-18
1.047748327e-18
0
0
6.683258096e-19
0
0
0
0
0
0
0
5.078633369e-19
0
0
0
0
0
0
5.073685987e-19
0
0
0
0
)
;
    }
    frontAndBack
    {
        type            empty;
    }
    procBoundary1to0
    {
        type            processor;
        value           nonuniform List<scalar> 
21
(
0.3752259567
0.2598620605
0.6852695758
0.5573468109
0.9372637329
0.9030898128
0.7602667694
1.255855848
0.0389588652
0.2920835106
0.4628050912
0.8902356096
0.4253472918
0.2749044914
0.2820531001
1.040251769
1.383397104
0.69406716
0.2067771433
0.7032129157
0.4910011504
)
;
    }
    procBoundary1to3
    {
        type            processor;
        value           nonuniform List<scalar> 
36
(
0.1034023822
0.8074231135
0.6918999973
0.2027157022
1.452657837
0.1034023822
0.3036235781
1.356238086
0.7753447402
0.3844791764
0.860729372
0.8074231135
0.3664988796
0.2267775078
0.2703411647
1.398855563
0.3831466646
1.356238086
0.6402384341
0.6132569813
0.8155540249
0.8929122742
0.6534107848
0.5232638423
0.2267775078
0.8703625038
0.4228164465
0.6609442581
0.3839891259
1.103874506
0.7458068474
0.6132569813
0.2858989866
0.2285477776
0.4228164465
0.06609713746
)
;
    }
}


// ************************************************************************* //
