/*--------------------------------*- C++ -*----------------------------------*\
  =========                 |
  \\      /  F ield         | OpenFOAM: The Open Source CFD Toolbox
   \\    /   O peration     | Website:  https://openfoam.org
    \\  /    A nd           | Version:  7
     \\/     M anipulation  |
\*---------------------------------------------------------------------------*/
FoamFile
{
    version     2.0;
    format      ascii;
    class       volVectorField;
    location    "0.003";
    object      momentum;
}
// * * * * * * * * * * * * * * * * * * * * * * * * * * * * * * * * * * * * * //

dimensions      [1 -2 -1 0 0 0 0];

internalField   nonuniform List<vector> 
546
(
(0.005033108345 0.001342555242 0.001978632805)
(0.007396100467 0.002969253856 -8.651456761e-06)
(0.006184873215 0.003634440852 -0.001235233315)
(0.004068130743 0.002277530567 -0.001275339609)
(0.005908799295 0.0009187677622 0.002783386507)
(0.005953118943 0.002440727321 0.0009008626729)
(0.004533390883 0.002358136652 0.000480958885)
(0.004376316103 0.000757854007 0.001715643378)
(0.00128309089 -0.0007914115979 -0.0002339370293)
(0.004422813747 0.003138839286 0.0003760870281)
(0.007183340038 0.0002204070061 -2.265213616e-05)
(0.003510224527 0.001307484319 0.001548196399)
(0.002713567497 0.002244421173 0.001077296403)
(0.004161110024 0.002913560587 -0.0002296614481)
(0.005185725158 -0.0006776915047 -0.001221672992)
(0.003569424717 0.002621376811 -0.0004806377086)
(0.001277501373 0.0003279480019 0.0001436310271)
(0.005011355717 0.001016484892 0.001799415433)
(0.005873442214 0.0006569929294 0.0005662252652)
(0.002789186428 0.001200135528 0.00156702045)
(0.004127065248 -0.0005286846156 0.000247499927)
(0.002913147789 0.001928836283 0.0007634388851)
(0.002521732895 0.001269863415 -0.0007115283848)
(0.004383433838 0.0002823294054 0.0001800071177)
(0.0008430362041 0.0009398751271 0.001412577842)
(0.006808055243 0.001581747574 -0.0008264183874)
(0.003743793215 -0.001766600684 -0.0005432680663)
(0.004285906947 -0.0002858660039 -0.0002336371225)
(0.004008303869 0.0006102778798 0.0001903501658)
(0.003705912621 0.002232407206 -0.0001393043396)
(0.01031284806 0.002735243749 -0.0002435059276)
(0.01005519084 0.003497141563 -0.001896858295)
(0.00719613955 0.003186921218 0.001484774059)
(0.007272681215 0.0008825313975 -0.0005687899225)
(0.008621422866 0.0006041318487 -0.001076824157)
(0.005235472117 0.002105831497 0.00209421568)
(0.003336748704 0.00110664976 -0.002575761795)
(0.01064671691 0.003397021895 -0.001194230555)
(0.004842313828 7.947999529e-05 0.001297245774)
(0.009407486261 0.001856468983 0.0002295409064)
(0.008886288541 0.001916331748 0.001203664488)
(0.004838886941 0.001288597603 0.001825491848)
(0.003728546065 0.00370676512 0.0008405149137)
(0.004764565893 0.002166988886 0.001491033125)
(0.01002511429 0.0001320958766 -0.0003564971147)
(0.009057812719 0.001657885798 -0.001792850012)
(0.005999619159 0.001236607486 -0.000192928158)
(0.00689767455 0.002844747601 0.000352038266)
(0.005696190236 0.001118288123 0.0003818640398)
(0.004025139266 0.001179959665 0.001496952617)
(0.004351579751 0.003335748264 0.0007619451328)
(0.006972118776 0.0004497415475 -0.0007966641904)
(0.005472019616 0.0004349847188 0.0003985149948)
(0.006885291209 -0.0005121264468 -0.0007209038144)
(0.001033960603 0.00317179477 0.0001461333785)
(0.006171738288 0.0009532960509 -0.001482144959)
(0.005030319043 -0.0001288010039 0.001842675494)
(0.005857157213 0.0002311298825 0.001287604814)
(0.004244580594 0.0006540404096 0.001937717168)
(0.005748261428 0.0001003483726 -0.0005838487851)
(0.012549592 0.002479420434 0.0008574256301)
(0.009061736214 0.00418109363 0.0007279849204)
(0.01011887014 0.003038807055 -6.399206979e-05)
(0.011854421 0.003304193108 0.002030789367)
(0.007723913607 0.00228500739 -1.121910273e-05)
(0.01099063703 0.00462874196 0.00268197803)
(0.008870138714 0.00397806001 -0.0008031174934)
(0.01259460119 0.004412806432 0.0001151588595)
(0.01042804202 0.001392996468 0.0005373268592)
(0.006867131173 0.0008847946067 0.0003712912823)
(0.008024415565 0.00308474401 -0.001377923709)
(0.00334064172 0.00145013869 -0.0003481361032)
(0.006199345411 0.001536922493 -0.0008231162144)
(0.007627619187 0.0009900694735 0.0005790295563)
(0.008503225092 0.00285660308 0.002804428991)
(0.004804298532 0.001339561244 0.000359174426)
(0.006432298656 0.0009507188979 0.003467502036)
(0.003551871149 0.002104600597 -0.001811733729)
(0.003627301439 0.0006862026993 -0.0007538980356)
(0.004694119868 0.003427895991 0.0008663933517)
(0.007926253929 -0.001099555961 -0.001181714744)
(0.002811271539 0.002058973559 0.00293983722)
(0.004600312983 0.002113794345 -0.002378460603)
(0.004047120018 0.002133371746 -0.001190169817)
(0.004703078091 0.002090073922 0.00178989524)
(0.003463817811 0.001342559695 -0.0004772917315)
(0.006845439399 -0.0009603037238 -0.0001015945847)
(0.005267928572 0.002722409693 -0.001164532242)
(0.004940766915 0.001692500081 -0.0006249067324)
(0.002597779772 0.001722288579 -0.0004384528622)
(0.0123349601 0.004964548646 -0.0003396463781)
(0.01017124014 0.005528879657 -0.001052413971)
(0.01507248382 0.007370913273 0.0001008392405)
(0.01090981447 0.005096604412 0.001051677462)
(0.009452100227 0.0009259056882 0.000623867476)
(0.01240248694 0.001897522268 -0.001019114209)
(0.01170610459 0.005908561404 -4.319874485e-05)
(0.01297606203 0.002935976145 -0.0005979517115)
(0.01288746208 0.003531871441 -0.001659129351)
(0.01233815823 0.001486524005 0.001139421983)
(0.009704847985 0.007029219643 -0.0003741918153)
(0.003272236068 0.001297811945 -0.0008001144588)
(0.009646767672 0.002065281044 0.0006799712294)
(0.008381365946 0.001949408058 5.020954306e-05)
(0.008171936342 0.003424023518 0.002362230533)
(0.009895489337 0.001566029344 -0.001288337614)
(0.005464891059 0.001243691205 3.337622092e-05)
(0.01167919904 0.003818472158 -0.001326054736)
(0.007239160023 0.00258661543 0.0003178654883)
(0.01171164016 0.005851715923 0.0009320021457)
(0.005149411061 0.001117077977 0.001064073384)
(0.006407359941 0.003815247392 0.0009133028449)
(0.00456541466 0.003058808753 -0.0006885989811)
(0.008675408781 0.0017843833 -0.001307084097)
(0.005365843645 0.001771908783 -0.0001216712676)
(0.006659433487 0.0009792822301 0.0004530192256)
(0.007556453878 0.0002905037929 -0.00241346827)
(0.007922003551 0.001155443054 -0.000300407632)
(0.006371561652 0.002028484281 0.0008122984495)
(0.00833344054 0.0004380609812 -5.795851753e-05)
(0.01096778284 0.00372983696 -0.0008818288399)
(0.01126513125 0.001334787042 0.000571483976)
(0.008122317658 0.003174581104 0.0002341907805)
(0.01802847068 0.005152069845 0.002698335279)
(0.01084831435 0.002936198497 -3.8952999e-05)
(0.008727577025 0.004678917171 -0.001158564595)
(0.01411533268 0.002919387167 -0.00135504226)
(0.006573040026 0.002804096086 -0.0007910024782)
(0.01152602234 0.003673523493 0.0002563360638)
(0.01154985872 0.003245240702 -0.0007347802022)
(0.008821434899 0.003495078326 -0.00079793555)
(0.01907455322 0.006603622694 0.00296889046)
(0.008775024257 0.004468477164 0.001338791908)
(0.008465578848 0.001862749987 -0.0004488345264)
(0.004949331248 0.001662820795 -0.001092476406)
(0.008029308869 0.00206991121 -0.0003508060809)
(0.01296092466 0.003183744671 -0.00275628493)
(0.01060173271 0.003006341761 0.0009029782547)
(0.003404893147 0.00228729531 0.001716112969)
(0.004845935022 0.001777778262 -0.001161552306)
(0.009313531992 0.001873926795 0.0001283271401)
(0.004503838283 0.002231026424 0.0004134270996)
(0.008536632253 0.003054800178 0.001544663677)
(0.01244701689 0.003282141577 -2.710748856e-05)
(0.008961488134 0.003770337337 0.0003530472723)
(0.003731246157 0.002263464592 -0.0003589799621)
(0.006237397304 0.002669254898 0.0006935608699)
(0.00623839848 0.00255615407 -0.001891297861)
(0.01035609711 0.003544353851 -0.0001860992454)
(0.01097610191 0.003442010618 -0.0004186598555)
(0.006824106054 0.005257089293 3.598207409e-05)
(0.01097440086 0.001833560184 0.001090938019)
(0.009200327642 0.006055143752 -0.001274680093)
(0.01524216487 0.005474840122 5.450640969e-05)
(0.01489458387 0.006611319288 0.0003954018499)
(0.005725748379 0.002683805017 -0.0008573728585)
(0.0081933088 0.001758673432 -0.0007205014369)
(0.006493793883 0.001376370894 0.0001785841994)
(0.0158453685 0.002952516876 0.0003229312714)
(0.01834571109 0.007946469381 -1.848376239e-05)
(0.01195181884 0.00392559267 -0.002397283096)
(0.01499533994 0.00626989136 0.002829647467)
(0.01358402014 0.003311933094 -0.001963277899)
(0.008664043616 0.002985850277 -6.395580313e-05)
(0.005978236585 0.0008275234004 -0.0001431953818)
(0.01327098831 0.004752711672 0.0005639707905)
(0.01787417945 0.005685739256 -0.002936272892)
(0.0103182569 0.002873454657 -0.0009488592492)
(0.005454151414 0.002181190254 -0.0005925639147)
(0.01011702508 0.005292706474 0.001467774858)
(0.01330118318 0.004214759607 -0.001305662452)
(0.01498935148 0.0017555987 -0.001493955785)
(0.008045834232 0.003541904732 0.001999310987)
(0.01334403313 0.003180214039 0.000336069549)
(0.007702085021 0.001411189995 -0.002058851721)
(0.00832858975 0.001632661775 -1.974481003e-05)
(0.01007194195 0.0006848900808 -1.619233463e-05)
(0.00671090545 -0.0001855429942 0.0004548063477)
(0.01117540486 0.00325389543 0.0006948696848)
(0.009319692361 0.002787310763 -0.003083385115)
(0.01768414115 0.003160253439 0.002319315693)
(0.01490027476 0.003624169389 0.0004058351425)
(0.01868864584 0.005755625251 -0.00199458429)
(0.01340461937 0.003498663461 0.001426213435)
(0.01424255131 0.003426924326 -0.0004392635564)
(0.01058872877 0.003609051573 0.0002424220896)
(0.01473547297 0.004665914511 -0.001084456927)
(0.01238926686 0.00401442016 -0.001672817173)
(0.01087936182 0.004291082943 -0.000618491218)
(0.01094500341 0.004110736031 0.0008941883714)
(0.01982774276 0.005977373449 -0.0007086198641)
(0.01519100938 0.004168102935 -0.001424725581)
(0.009821026648 0.002582172443 0.0003166603927)
(0.01432951549 0.004781987588 0.001967063312)
(0.01534161878 0.002569658327 0.0004179812194)
(0.01211152179 0.003742241532 0.00233208045)
(0.01255010014 0.005390716885 -0.002437183625)
(0.01768153076 0.004123162132 0.000385630357)
(0.01324758946 0.003198334385 -0.001434906003)
(0.007502711622 0.001516743873 0.002303645841)
(0.01261650588 0.002733294551 -0.0005988930771)
(0.01199071995 0.002245599963 0.002619404919)
(0.01071355988 0.001968130662 -0.001254384961)
(0.01519795516 0.002009075831 0.001674595431)
(0.007628756274 0.002014648517 1.50520758e-05)
(0.00591430379 0.003893433991 0.001337989367)
(0.01035164154 0.004026087689 0.0008320919067)
(0.01178796958 0.003502266921 -0.0002603944548)
(0.007353690005 0.001855910666 -0.0004327385213)
(0.0116080279 0.002022549815 -0.002251896055)
(0.008454989805 0.001620218866 -0.0003820518817)
(0.008042816322 0.002918269458 0.001391752371)
(0.01135630431 0.0006109283513 0.0001153788335)
(0.01626573496 0.002626061392 -0.000457162622)
(0.01142494353 0.003105237211 0.001506182574)
(0.01450260607 0.001884434511 0.0003772916511)
(0.009540808014 0.003065531309 0.001014672482)
(0.01624314078 0.004517365428 0.0002681244769)
(0.0170410024 0.006695598298 -0.0004283379965)
(0.01348284802 0.00369437723 -0.0004014308548)
(0.01078353114 0.006772335355 0.001130250722)
(0.01995727186 0.006454539834 0.003084257607)
(0.007350322966 0.001608226903 -0.001665404288)
(0.01430309602 0.004529733603 -0.0001561934472)
(0.01811202004 0.00548645652 -0.0004626583407)
(0.01559785449 0.002877605709 -8.638637665e-05)
(0.01053136232 0.004371877226 -0.000334570581)
(0.01676349467 0.007955746525 0.0003597773528)
(0.01658633429 0.00489334371 0.002204859684)
(0.00731191878 0.004354527457 0.001719900664)
(0.01006541008 0.005520542619 0.000386795684)
(0.01258662561 0.003877759824 -6.038708433e-06)
(0.0145327923 0.004120756758 4.41739684e-05)
(0.01499523098 0.007146198325 -0.0005149927528)
(0.01006806896 0.004013163686 -0.0001661906951)
(0.008534059446 0.001814885181 -0.0006079961762)
(0.00911275472 0.004617732589 0.0008478240722)
(0.01611589665 0.006352343945 -0.000592695188)
(0.01519648813 0.00465207139 0.001770427656)
(0.0141674613 0.00179021253 -0.001930934481)
(0.007606312286 0.0009328697722 -0.0005814900473)
(0.007002160885 0.001283861727 -0.000964050701)
(0.008338623567 0.00297467259 0.0004456917751)
(0.01198759727 0.004275074619 0.0001696596943)
(0.00714588063 0.005017425994 0.0001814857002)
(0.01693100246 0.004453068465 -4.292324969e-05)
(0.01526179522 0.00536337391 0.0005190909836)
(0.01199102949 0.003627812048 0.0004035021447)
(0.01300654776 0.006501484371 0.0004573197933)
(0.01718211555 0.006922966186 -0.001575506919)
(0.01122643852 0.00552758645 -0.00137953762)
(0.01463999807 0.004592343301 0.0008168818855)
(0.0164338177 0.002975998254 0.0004566309014)
(0.01499821866 0.003954890716 0.0002494764816)
(0.01437726451 0.006737030479 0.001467276755)
(0.0176245941 0.006729344402 -0.001832559151)
(0.01611037667 0.003027431021 -0.001455006197)
(0.0110177946 0.004552540842 0.0001230686643)
(0.01119669267 0.004376473134 -0.00118768606)
(0.007510814204 0.002675258967 0.0005616925433)
(0.0161443297 0.004995601971 -0.001479634684)
(0.0159579519 0.00597170758 -0.002772494816)
(0.009426500757 0.003224518433 0.0008954895845)
(0.008575717505 0.003593550892 0.00053511391)
(0.0142086167 0.001253535658 -0.002293693403)
(0.01135115917 0.002646219899 -0.0009333611205)
(0.0112484053 0.001795329621 0.001837737981)
(0.01073020108 0.005135258697 -1.5092224e-05)
(0.007525326437 0.001985170072 0.00213913255)
(0.006393246877 0.002253409861 0.0002818828588)
(0.01443814267 0.003369033363 0.0003313155026)
(0.01372769366 0.001787547248 0.0003996109415)
(0.008248520575 0.002633911552 0.001641550682)
(0.0103666368 0.0006561356244 -0.0005062708601)
(0.01017859765 0.001005819651 0.001550073439)
(0.0112103001 0.00336763161 0.001389424888)
(0.01187330438 0.003189422162 0.0004709797763)
(0.008830611027 0.003169742762 -0.0005561676231)
(0.01219552622 0.002781568139 -0.0005575805165)
(0.01277229747 0.004774555241 -0.000799569836)
(0.01104053148 0.003468664013 -0.001937864261)
(0.008527423854 0.004489991388 -1.830772875e-05)
(0.01394432203 0.004582239576 -0.001326027605)
(0.01127272052 0.004957300019 -0.0006762512333)
(0.01228879732 0.002480016113 0.0009498020933)
(0.01564767085 0.005680394433 0.001214782485)
(0.01174851626 0.004204101388 0.001765222866)
(0.01796002818 0.003732073748 -0.0004337523667)
(0.01856203502 0.006074689302 -0.0003393598369)
(0.01000807835 0.004352379011 0.001345981978)
(0.01606411691 0.006682850972 -0.001306365841)
(0.009653859947 0.002079871202 -0.0008346818017)
(0.007369272493 0.002768728385 -0.00127514529)
(0.02001418354 0.006210335537 0.001841734462)
(0.01134722183 0.003857765261 -0.001343112642)
(0.01315850991 0.004866283079 -0.0008264855881)
(0.009873573897 0.004072843294 -0.0003727102038)
(0.01509491884 0.004496172298 -0.0008712055951)
(0.01131590687 0.001182905698 -0.0008393279305)
(0.01235485749 0.003572674663 0.0009125841527)
(0.004698040964 -0.0009575155146 -0.0003257632751)
(0.008323368997 0.002512181781 -0.0005983316987)
(0.007780303503 0.0006602816996 4.983064213e-05)
(0.01537673848 0.002808607876 9.330926379e-05)
(0.01142815799 0.003346171049 0.0006599043948)
(0.01268507456 0.003427578872 -1.264767278e-05)
(0.01051226893 0.00489649391 0.002245993278)
(0.0116428398 0.00533734685 0.0009669335175)
(0.01413188591 0.002304259549 0.0003305670559)
(0.01642215419 0.003597459201 0.0009657802057)
(0.02005911573 0.005173221376 0.003065549827)
(0.01412039798 0.00423909792 -0.0002421629891)
(0.01580696937 0.004186450243 -0.002054020196)
(0.01372827621 0.005165996015 0.00206493793)
(0.01255022295 0.006539297319 -0.0001022957831)
(0.02042860085 0.005727414995 -0.0002513704283)
(0.01120422649 0.006558119855 -0.001864728314)
(0.01514305943 0.003557425582 -0.0006439178185)
(0.01250669725 0.005715907637 -0.0001514089816)
(0.01702215484 0.009702524287 0.00271505795)
(0.01148297944 0.00412131401 0.0008302656916)
(0.02026441961 0.008364108745 0.000466315865)
(0.01545503856 0.004406622087 -0.0001556755877)
(0.01500835375 0.002524236184 -0.0003743663548)
(0.01962660686 0.006612758656 0.0009728683183)
(0.01040367061 0.003667939538 -0.002445621554)
(0.009777413351 0.001065099536 -0.0008328906401)
(0.01124991871 0.004895903498 -0.0004553080549)
(0.02045644952 0.003423340544 6.388781076e-05)
(0.01409041889 0.0006862226516 0.001165661194)
(0.01353219624 -3.258657831e-05 -0.0001691165122)
(0.01123240772 0.001635607212 0.0003377910609)
(0.007855275407 -0.0006661644242 -0.0004601198091)
(0.0122047918 0.0008243148238 -0.0008428988378)
(0.01028212487 0.003731408597 0.0006543689931)
(0.01118828719 0.002470977856 -0.0001763116255)
(0.01306005582 0.001698694817 -0.0007530293625)
(0.009601794126 0.0009307447019 0.0006186232915)
(0.01299993677 0.003699193754 -0.00028784562)
(0.01436815703 0.005732273081 -0.0009602249402)
(0.01167992095 0.002808916984 -0.0004991371963)
(0.01329724566 0.004436018949 -0.0001038423514)
(0.009972131452 0.002644804428 -0.001081553792)
(0.01700675356 0.006454345504 0.0003589578121)
(0.01163221979 0.004564084827 0.002061977524)
(0.01965134637 0.005221647643 0.0001578258227)
(0.01369746639 0.005079274082 0.0002283369837)
(0.01817388306 0.007187422053 0.00130527301)
(0.01338764163 0.004278478579 -0.0001572418538)
(0.01288589005 0.004577138705 -0.0009278124511)
(0.01760228726 0.007090354562 0.002578648694)
(0.01224407503 0.003264410087 -0.001702126915)
(0.01833356708 0.005686804339 -0.0001608142117)
(0.01458598481 0.004925698409 0.001761550049)
(0.01703842984 0.003216429244 -0.0007512975224)
(0.01852586261 0.003274074525 -0.0008982380257)
(0.01866039586 0.00745559772 -0.001688204431)
(0.01168928704 0.003261901651 0.000582510486)
(0.01766181842 0.004268958872 0.001182427333)
(0.01029487616 0.003637892977 -0.0007147761753)
(0.0136648402 -0.0006714082745 0.0009502603556)
(0.003670791554 -0.0004108834305 -6.902496321e-05)
(0.009219868404 0.0002729060579 -9.833815971e-05)
(0.01043632806 0.0008748956304 0.0009482517121)
(0.004824563 0.0009316235913 8.11703523e-05)
(0.01536180747 0.0005745874914 0.0006155122589)
(0.01096393415 0.001072165951 -0.001538831834)
(0.01483555445 0.002263299598 0.000119252175)
(0.0107373167 0.00189894335 -0.0007742669739)
(0.01337038449 0.006531868937 0.003296964506)
(0.01127024069 0.003167234467 3.167554727e-07)
(0.01011734655 0.0040475086 0.0001039434676)
(0.01304712514 0.000855515569 0.0009059461489)
(0.01335908934 0.003452568853 -0.00149503961)
(0.0142967563 0.002632865507 -0.002042043898)
(0.01818854648 0.006628170666 0.0006229221138)
(0.01322867791 0.007525638371 0.001401274896)
(0.01430448395 0.001405777621 0.0001017694138)
(0.00983112528 0.003875046041 -6.999430731e-06)
(0.02113640079 0.004907515064 -0.0006091905541)
(0.01219443984 0.003679506088 -0.0009686941939)
(0.01090053164 0.001990978061 -0.0003963185001)
(0.02426869661 0.005287687434 -0.0003212683817)
(0.02047003409 0.005439035523 -0.0007029181935)
(0.01967415492 0.008840464002 -0.003204072838)
(0.01228897434 0.006786088858 0.001874434141)
(0.01213706868 0.00519634809 6.512674143e-05)
(0.011918029 0.002451739043 -0.0003514419745)
(0.01802898154 0.004042838464 -0.001178942578)
(0.010700828 0.0007873310408 -0.001309046117)
(0.01111932178 0.001155355391 -0.0008002116481)
(0.008212724802 0.0007956142844 -0.0005887553869)
(0.008038434126 0.0009374533649 0.000329644114)
(0.005625707282 -9.434545252e-05 6.024834287e-05)
(0.006104530578 -3.886765666e-05 -8.276988473e-05)
(0.008733456279 0.0007687659882 -0.001006291562)
(0.00649461075 0.0009383649994 0.0002406686165)
(0.01294663241 0.002281964008 -0.0007745338027)
(0.01675987962 0.00101479744 -0.0008213275847)
(0.009128476852 0.003243292967 -0.0001696443301)
(0.0146287341 0.001872834641 0.0004933862928)
(0.02040736564 0.003735279435 8.876199449e-05)
(0.01787920516 0.003379643735 -0.0007287233716)
(0.01158137879 0.00416039956 0.0004852998376)
(0.01239453556 0.00288785328 -0.001478213424)
(0.01742750597 0.003301545552 0.00100542173)
(0.008035045233 0.002408860978 0.0006163301881)
(0.01390275039 0.006112351582 -0.0003521999175)
(0.01134013088 0.002298273686 -0.0006395904968)
(0.01385202685 0.005018790106 -0.0008940126409)
(0.02365436943 0.0095341941 0.001647422003)
(0.01207449383 0.001776283375 -0.0001365320826)
(0.01144357665 0.004207125734 -0.001952074036)
(0.01858147081 0.004356574005 -0.001566542925)
(0.01289252128 0.005028390542 8.845168308e-05)
(0.02034078755 0.007036770159 -0.00177495674)
(0.01169316026 0.001208883428 0.001642032068)
(0.01748484294 0.003980852108 0.003292020433)
(0.01100700029 0.002621111268 0.001497571343)
(0.0167001386 0.00387530829 -0.001487828182)
(0.007604159129 0.0006657708808 -0.0001353938518)
(0.01360935235 0.001674003048 0.0003335941801)
(0.01228849367 0.002216819734 -0.0005289766358)
(0.008844792423 0.001423333376 -0.0004870090484)
(0.006857734906 0.001096064784 -2.425523601e-05)
(0.01123909328 0.0007858036039 0.0002293974706)
(0.006081351024 0.0006184337989 0.001776371539)
(0.00713915036 0.0005353209664 6.696010177e-05)
(0.009759132614 0.0002111037093 3.641516126e-05)
(0.01492814602 0.002475694162 0.000413212115)
(0.00987276213 0.00307444962 -0.001405391683)
(0.01143919395 0.002226923908 0.001124936127)
(0.01354278764 0.002241236555 -8.727682547e-05)
(0.01140172273 0.002200258484 0.0003117498264)
(0.01129246889 0.0009498130685 -7.870515943e-05)
(0.007445789944 0.002656481949 -0.000514278428)
(0.01387242872 0.00505434667 -0.000385561377)
(0.01346497327 0.004075599758 0.0009382468513)
(0.01390615758 0.00381674586 -0.00154969719)
(0.01439562751 0.005548162906 0.0005049028118)
(0.02203175163 0.003128907248 0.0009880685029)
(0.01474120939 0.004038501222 0.0010358976)
(0.01680202447 0.006919318649 -0.0009482667008)
(0.020540074 0.004002814551 -0.0002933194421)
(0.01331015784 0.005841039457 -0.0002856516007)
(0.01854799504 0.005784914265 0.001776940345)
(0.01674802897 0.004953572412 0.0003703078227)
(0.01373181455 0.003939459843 0.0003562249767)
(0.009236079717 0.002821465663 0.001323286329)
(0.01489464095 0.005231402636 -0.001143490257)
(0.00831484215 -0.0003119410255 0.0007890312208)
(0.004124022797 0.0001577144505 -0.0002124576437)
(0.009022879741 -0.0007512117142 -0.0003417187053)
(0.00606516141 0.0007044953724 -0.0005164211077)
(0.01020452961 0.0004217141263 -0.0006664505638)
(0.005597738743 -0.0004091245521 -0.0001065727735)
(0.01049487244 0.0005138369485 -0.0008417982574)
(0.01545455333 0.002069383727 -0.0007383925898)
(0.008568547316 0.0008783826816 0.001411641693)
(0.01124919016 -0.0005235398399 3.435397144e-05)
(0.01402685349 0.001985317502 -0.0006627893093)
(0.0139766933 0.00339993729 0.002272412222)
(0.01489464696 0.003601942233 -0.001340238377)
(0.01061267372 0.001957549836 -0.0007688190625)
(0.01313760251 0.00686329908 -0.002259696023)
(0.01693667323 0.004767959475 -0.0003770761997)
(0.01668809385 0.004988015493 8.622912332e-05)
(0.01292846233 0.005421801933 0.0009641997755)
(0.008621919033 0.00372271662 0.001168093209)
(0.0162570161 0.005354606431 -0.002283426202)
(0.01925139069 0.006812853368 0.001048183766)
(0.01375571568 0.006284007074 0.001393348182)
(0.01369160692 0.003819632614 0.002131218759)
(0.01217691032 0.006687915257 0.001391831576)
(0.01425357529 0.005228389751 -0.003394157702)
(0.01112613515 0.003101091535 -0.0007589881047)
(0.0186154762 0.00653963433 -0.0005878007903)
(0.01141609048 0.004666435001 0.001902349632)
(0.02217484829 0.008688478225 -0.0006214438294)
(0.01531930397 -0.0003209498274 8.607134025e-05)
(0.01257796274 0.0002453776819 0.0004191822689)
(0.01030501175 0.0008083547463 0.0002239734065)
(0.0151416576 -8.676642454e-05 -0.0004280364478)
(0.01129199127 -0.0009709797936 -8.604303285e-05)
(0.006650681713 -2.884355742e-05 0.0002199539727)
(0.006473567851 0.002463884743 -0.0004980169905)
(0.009592285897 -1.153804797e-06 0.001043273324)
(0.006896980825 0.001020478886 0.0001881368784)
(0.01094575392 0.001027603892 -0.0007857247316)
(0.008186852453 0.001581622775 0.0001127663109)
(0.01311613365 0.0007414320576 0.0008733740251)
(0.01629606495 0.004430554154 0.0008653765934)
(0.01340033194 0.002968949274 -0.0007590274494)
(0.00649297254 0.001891154738 0.0001917129601)
(0.01127171849 0.001514811712 -0.0005759896142)
(0.009950729572 0.006458120768 0.001711496142)
(0.01058172693 0.002367841435 0.0007027074335)
(0.01791017224 0.002684238389 -0.001086196678)
(0.01101318467 0.002061174988 -0.0009984010258)
(0.01196046498 0.003700392151 0.0001983961898)
(0.01202511173 0.002411380209 0.0006026368835)
(0.01567039223 0.005703798431 -0.000354216623)
(0.01107611607 0.005503051039 0.0009452610566)
(0.003121259087 -2.603347796e-05 0.0001427743906)
(0.006472113371 -0.0008899358219 -0.0001093402299)
(0.009225399307 0.0002942856407 -8.916630781e-05)
(0.01099561769 0.0001921006032 0.00118189637)
(0.008238350461 0.0004216484307 -0.0006829379808)
(0.0114581418 0.001615479837 0.0008923461201)
(0.01124239543 0.0001391979615 0.0001484780813)
(0.006097289873 0.002083727321 0.0002725896756)
(0.00534028533 -6.072661542e-05 0.0002999005728)
(0.01745703537 5.201501217e-05 0.0003251039003)
(0.01227008753 0.002314153057 0.0001944863914)
(0.008397359264 0.001272099225 0.0004113971834)
(0.0104946895 0.0002101202411 0.0006006525315)
(0.008825001819 -0.0001142378663 -0.000518817693)
(0.01414140765 0.002369550183 6.80783833e-05)
(0.01252283302 0.005499688788 -0.002139292979)
(0.01275117075 0.003090809696 0.0006717842237)
(0.01554805 0.001854411792 -0.001180896619)
(0.01188380443 0.003648296583 0.001238562559)
(0.01071589421 -0.0005401611723 2.995573069e-05)
(0.01274584184 -0.0006115069335 0.0002194300553)
(0.006715783718 -9.528970828e-05 -0.0001207567998)
(0.007327287236 0.0002277572099 -0.0008953243639)
(0.01084827241 0.0002444477031 0.000312755579)
(0.01055370502 0.0003930029852 0.0008598011787)
(0.005485686003 0.0007002742217 0.0006233699321)
(0.01049968828 -0.0003145781261 3.893965279e-05)
(0.008259874344 -0.0007882408364 0.0008602804723)
(0.01322209931 -9.566979167e-05 -0.0005605961528)
(0.006205797844 0.0004100304865 -0.0003269538257)
(0.01016356688 -0.0004064912207 -0.000507799809)
(0.01083989005 0.0007446344887 0.001176326075)
(0.00804153358 -0.0003418874371 -0.000998801749)
(0.007613521628 -0.0007545139972 0.00108981371)
(0.01125314124 0.0005286267084 -0.0002004242404)
(0.01325056423 -0.0001733932344 -0.0001868467134)
(0.005120768162 -0.0002084410916 -0.0001463541791)
(0.0101867015 -0.0001438368241 0.0004097414065)
(0.003740278756 -3.687316011e-05 -0.0002836940027)
(0.005741747234 -0.0009743792373 0.0002043146223)
(0.01016474211 0.0005923854359 0.0007308488531)
(0.00824087932 0.0008914856222 -0.0007472830799)
(0.005669190513 -7.106982254e-05 -0.0003560017086)
)
;

boundaryField
{
    flow
    {
        type            zeroGradient;
    }
    obstacle
    {
        type            calculated;
        value           nonuniform List<vector> 
30
(
(0 0 0)
(5.719352544e-21 1.532495898e-21 -2.924766751e-21)
(1.325753906e-21 3.552346873e-22 6.715550345e-22)
(4.41399349e-22 1.182725993e-22 4.743853763e-22)
(0 0 0)
(2.402368038e-21 6.437125769e-22 -3.703618666e-21)
(6.908297183e-21 1.851072655e-21 6.514539924e-21)
(-2.04481223e-22 -5.479057839e-23 1.079469427e-21)
(0 0 0)
(-1.600650732e-21 -4.288930717e-22 -3.919449226e-23)
(6.655056483e-22 1.783217005e-22 2.039600801e-21)
(9.603148034e-23 2.573155765e-23 -5.224655364e-22)
(-5.798018529e-22 -1.553574385e-22 8.92262452e-22)
(3.051532932e-21 8.176557824e-22 -2.694482243e-21)
(3.976519431e-21 1.065505172e-21 -6.808831232e-21)
(2.534663235e-21 6.791609647e-22 1.018298642e-22)
(9.190537196e-21 2.462597024e-21 2.043814836e-21)
(1.204323643e-22 3.226975481e-23 -1.137558531e-21)
(1.996085189e-21 5.348494128e-22 -3.764467551e-22)
(1.424303491e-21 3.816409709e-22 -4.385731978e-22)
(9.967830388e-22 2.670872107e-22 3.267432774e-22)
(8.858711365e-22 2.373684549e-22 -1.119617081e-21)
(3.604721719e-21 9.658822754e-22 1.873643011e-21)
(0 0 0)
(1.826915293e-21 4.895204759e-22 -2.483802542e-21)
(3.3578687e-22 8.99738208e-23 1.98895435e-22)
(-5.959681827e-22 -1.596891928e-22 4.329185276e-22)
(0 0 0)
(0 0 0)
(0 0 0)
)
;
    }
    frontAndBack
    {
        type            empty;
    }
    procBoundary1to0
    {
        type            processor;
        value           nonuniform List<vector> 
21
(
(0.003994399803 0.001291076098 0.001791345825)
(0.007768301867 0.003663448538 -0.0009178270648)
(0.01373605306 0.003944224457 -0.002191930363)
(0.01158536327 0.003118071607 -0.0008514940856)
(0.01071701031 0.004349706395 0.0002002435341)
(0.008365846509 0.004229862185 -0.001253608582)
(0.009981869897 0.003569012184 0.001038881026)
(0.0110465337 0.0009720449062 -4.313811586e-05)
(0.00685607881 0.0001807435695 0.0006984040018)
(0.01197438207 0.002987474148 0.0003246097437)
(0.007140850405 0.002079431367 -1.315819655e-05)
(0.00959400007 0.001001276711 -0.0006276789094)
(0.01092344887 0.0002599724923 0.0005423475998)
(0.01263961584 0.0003561762703 -0.0005407415623)
(0.005392165716 0.0007743353339 -0.0005718214747)
(0.01153100743 0.0004305167383 5.172240174e-05)
(0.008276874703 -0.0002625947732 7.359864503e-05)
(0.01221446419 -7.181717604e-05 7.524623311e-05)
(0.00190895528 0.000393541788 -5.962173731e-05)
(0.007241422031 -4.383538621e-05 -0.0008171984312)
(0.002722329048 -3.345990019e-05 -5.848985863e-06)
)
;
    }
    procBoundary1to3
    {
        type            processor;
        value           nonuniform List<vector> 
36
(
(0.009610165679 0.003975201469 -0.0007930946206)
(0.01884512038 0.006989407132 -0.0007129313954)
(0.01860086028 0.003297353116 -0.002202134245)
(0.011247848 0.00214719702 0.0009301305865)
(0.01912488817 0.006621075418 -0.0001528572027)
(0.009610165679 0.003975201469 -0.0007930946206)
(0.01539727764 0.005571639133 2.217203715e-05)
(0.01289276149 0.002692506284 0.001454479479)
(0.0093028832 0.001304225298 -0.001351393961)
(0.01066579499 0.002437777977 0.000492249649)
(0.01796533654 0.006752529292 2.803010815e-05)
(0.01884512038 0.006989407132 -0.0007129313954)
(0.009213307326 0.004510254124 0.000795047382)