/*--------------------------------*- C++ -*----------------------------------*\
  =========                 |
  \\      /  F ield         | OpenFOAM: The Open Source CFD Toolbox
   \\    /   O peration     | Website:  https://openfoam.org
    \\  /    A nd           | Version:  7
     \\/     M anipulation  |
\*---------------------------------------------------------------------------*/
FoamFile
{
    version     2.0;
    format      ascii;
    class       volVectorField;
    location    "0.003";
    object      momentumMean;
}
// * * * * * * * * * * * * * * * * * * * * * * * * * * * * * * * * * * * * * //

dimensions      [1 -2 -1 0 0 0 0];

internalField   nonuniform List<vector> 
546
(
(0.0003425600961 9.262643128e-05 7.163961411e-05)
(0.0003149370288 0.0001143745846 -4.530869364e-05)
(0.0003189539941 7.25819819e-05 -0.0001090967966)
(0.0003120531003 9.218847587e-05 -4.270788355e-06)
(0.0003578916412 6.963522484e-05 3.313078918e-06)
(0.0003382940195 0.0001215496232 -2.84151204e-05)
(0.0003291904463 9.503150094e-05 -4.490460818e-05)
(0.0002890906083 9.894261596e-05 -5.258223547e-06)
(0.000283427962 6.641003853e-05 3.884507255e-05)
(0.0003335557008 7.191481149e-05 -1.324746491e-05)
(0.000412967805 7.604914498e-05 -1.315943026e-05)
(0.0003950001018 0.0001259099199 0.0001035509661)
(0.0003421082182 9.475834417e-05 6.793578652e-05)
(0.0003884682989 0.0001024987234 3.846848554e-05)
(0.0003708706571 0.0001019921448 4.454593185e-05)
(0.0004037134132 0.0001132725321 4.088637777e-05)
(0.0003753608261 0.0001087329492 6.384737861e-06)
(0.0003876375072 7.462627284e-05 -2.778541179e-05)
(0.0003732423276 0.0001274300588 -5.044823252e-05)
(0.0003587884121 8.548610647e-05 5.301123204e-06)
(0.000431062048 0.0001267458537 -3.698442496e-06)
(0.0003969023671 7.264651186e-05 2.531735364e-05)
(0.0003641165559 0.0001229819307 1.850703616e-05)
(0.000381421 0.0001007922899 -4.811237453e-05)
(0.0004509240879 0.0001152576238 -1.696437344e-05)
(0.0004551512336 0.0001153683152 -1.167233119e-05)
(0.0004734503126 0.0001271720668 5.054679088e-05)
(0.0004868388422 0.0001239833723 -3.829881282e-05)
(0.0004702765554 0.0001342038022 9.147531372e-05)
(0.0004827484906 0.000118546732 -8.285838752e-06)
(0.0004073195303 0.0001167906479 -1.129336508e-05)
(0.0004304793861 0.0001229154113 -9.503856381e-05)
(0.0004113859128 0.0001470581688 -6.65457352e-05)
(0.0004480021981 6.268023446e-05 -3.707636619e-05)
(0.0003982617781 0.0001258440425 7.792255157e-05)
(0.0003991035473 0.0001139850529 1.654953431e-05)
(0.0004195902845 0.0001516896056 -4.041854854e-05)
(0.0004582988562 0.0001286361198 1.920465904e-05)
(0.0005253695138 0.0001102833987 -2.622005743e-06)
(0.0005675652243 8.47048062e-05 1.638399016e-05)
(0.0004583406813 0.0001297802105 8.324568511e-05)
(0.0005027182469 0.0001510319145 6.25324122e-05)
(0.0005053705928 0.0001761839577 2.388089632e-05)
(0.000482329195 0.0001238565758 -4.534875456e-05)
(0.0004955160922 0.0001079098819 -2.263902029e-05)
(0.0004921110834 0.0001329437893 0.0001082281675)
(0.0005097599799 0.000130968193 5.98719113e-05)
(0.0004993686363 0.0001537896964 2.949426096e-05)
(0.0005412911105 0.000120305508 1.890235007e-05)
(0.0005922082239 0.0001478287328 -8.281356346e-06)
(0.0004876182611 0.0001348493613 -3.141907948e-05)
(0.0005602847451 0.0001519983503 -4.784221435e-06)
(0.000563909428 0.000168714745 2.012435581e-05)
(0.0006051032213 0.0001159779143 6.031009345e-05)
(0.000586039394 0.0001516774804 5.341906597e-05)
(0.0005630087662 0.0001666599028 0.0001375040781)
(0.0005424201061 0.0001028372812 3.991745624e-05)
(0.0005385547257 0.0001898786802 2.850140993e-05)
(0.0005314176452 0.0001528284467 0.0001038548036)
(0.0006040655302 0.0001172627717 -5.520769774e-06)
(0.0004547753244 0.0001289058267 -3.978623521e-05)
(0.0004543067365 0.0001084397613 -4.995884081e-05)
(0.0004957733396 0.0001671755569 -3.754692232e-05)
(0.0004809118847 0.0001089849447 4.079668262e-05)
(0.0005052967879 0.0001650707619 3.794641751e-05)
(0.0005027129255 0.0001120155967 1.119928827e-06)
(0.0005707406044 0.0001438936244 4.276561587e-05)
(0.0006028590061 0.000112716568 2.229674592e-05)
(0.0006131155747 0.0001159636507 -1.510446228e-05)
(0.0005657441806 0.0001795670147 -3.625093744e-05)
(0.0005403024653 0.0001464508027 -3.212540964e-05)
(0.0005251578638 0.0001626265401 -2.158023992e-05)
(0.0005793812423 0.0001572951119 -5.143900435e-06)
(0.0005554498054 0.0001636444895 -8.304138137e-06)
(0.0005428354391 0.0001447373982 1.985882315e-05)
(0.0005751441907 0.0001243931871 6.541685903e-05)
(0.0006355855505 0.0001419610897 1.192857638e-05)
(0.0006256146555 0.0001595286977 6.922629288e-06)
(0.0006337841979 0.0001576942041 5.02005357e-05)
(0.0006173498753 0.000182162901 2.424085245e-05)
(0.0006891050613 0.0001524607226 -3.412323902e-05)
(0.0006795862776 0.0001630319241 1.932252117e-05)
(0.0006780012966 0.000210157401 5.092851897e-05)
(0.0006457621814 0.0001413274427 5.788048949e-05)
(0.0006009850895 0.0001511627248 3.854888982e-05)
(0.0006107510252 0.0001821765405 8.575144029e-05)
(0.0005741849992 0.0001704301823 -8.455977397e-06)
(0.0005847836307 0.0001810510079 4.151000179e-05)
(0.0006296540025 0.0001288529074 2.391384678e-07)
(0.0006175797069 0.0001262494899 -4.028199233e-05)
(0.0005455760401 0.0001456650649 -3.714037001e-05)
(0.0005522112143 0.0001500403427 -1.062115847e-05)
(0.0005565413817 0.0001517488413 -3.010635191e-05)
(0.0005699488055 0.0001131668574 -2.317988145e-06)
(0.0005869542787 0.0001530621362 -6.661311305e-06)
(0.0005934454867 0.0001551050117 -2.190717452e-06)
(0.0005602094097 0.000156391316 7.144495079e-06)
(0.0005703167019 9.783459219e-05 2.983917376e-05)
(0.0006097975004 0.000123721404 4.091371857e-05)
(0.0005698521754 0.0001966932738 -4.348902476e-05)
(0.0005540037927 0.0001843401623 -2.840312757e-05)
(0.0006142914776 0.000140533882 5.578531256e-05)
(0.0006047077552 0.0001642439812 2.355237612e-05)
(0.0006206708724 0.0001574962899 -3.508755634e-06)
(0.0007056368446 0.0001711757328 -2.939589763e-05)
(0.0007662261389 0.0001339455607 -1.66425739e-05)
(0.0007050847698 0.0002067554511 -1.304437989e-05)
(0.0007207746453 0.0001680179194 -8.30734236e-06)
(0.0007078931138 0.0001550305198 3.789398299e-05)
(0.0007122683439 0.0001928585941 5.945707847e-05)
(0.000680985491 0.0001846260174 -3.331456553e-05)
(0.000660402988 0.0001976084333 1.642149083e-05)
(0.0006663547703 0.0001778313615 -9.044507097e-06)
(0.0006736895681 0.0001712795443 -4.948291537e-06)
(0.0007123103703 0.0001931535624 -1.008765389e-06)
(0.0006650959216 0.0002098432339 -5.769074343e-05)
(0.0007195566749 0.0001686064512 -5.437578267e-05)
(0.0007387734559 0.0002276660171 -1.07493952e-05)
(0.0006162991068 0.0001795520496 -1.268792646e-05)
(0.0006992571524 0.000177987674 -4.544098978e-05)
(0.0005264757742 5.850169915e-05 -1.010703895e-06)
(0.0005289914693 0.0001951288687 -1.175382165e-05)
(0.0004907517745 0.0001374869341 -3.603461117e-05)
(0.000528142224 0.0001044125488 -1.722226633e-06)
(0.0004858312428 0.0001595175561 -4.714271957e-05)
(0.000579434694 0.0001240406765 -3.915796727e-05)
(0.000596535826 0.0001290588314 -1.271651986e-05)
(0.0005864480501 0.0001162633632 8.249843935e-06)
(0.0005609415144 0.0001300193532 9.926171438e-06)
(0.0005632876697 0.000188900212 -6.089482299e-05)
(0.0006360406588 0.0001740773452 2.088638483e-05)
(0.0006307193963 0.0001441329748 -6.158415255e-06)
(0.0006588077057 0.0001657406203 -2.092401566e-05)
(0.0007023473497 0.0001529385654 -1.714879598e-05)
(0.0007127213266 0.0001397594896 -1.511469754e-05)
(0.0007014561291 0.0001266613371 -5.036283758e-06)
(0.0007355205584 0.0002199191519 -6.87697484e-05)
(0.0007252254989 0.0001864094121 -4.198321217e-05)
(0.000698705915 0.0001493430758 2.157677214e-06)
(0.0007158810166 0.0002054166613 -8.571718692e-05)
(0.0007147010805 0.0001977395214 -6.813848226e-05)
(0.0007056397537 0.0002056804879 -6.025858309e-05)
(0.0007534760836 0.0001892528625 -3.276152017e-05)
(0.0007331108995 0.0002122404316 -2.126837085e-05)
(0.0007118224155 0.0001914699682 -6.289751437e-05)
(0.0007548014515 0.0002004842416 1.297697643e-05)
(0.0007577590102 0.0001950240474 -3.543716112e-05)
(0.0006807311284 0.0002183238877 -2.273006624e-05)
(0.0007727289269 0.0002036217692 1.593010564e-05)
(0.0007986423105 0.0001789067555 -4.973973642e-05)
(0.0004165041942 4.575372157e-05 -3.492015409e-05)
(0.0004178768951 0.0001628261048 -5.595554254e-05)
(0.0005051960352 7.807602378e-05 3.470828187e-05)
(0.000526632744 0.0001594388834 3.897887009e-05)
(0.0005526604749 0.0001349242005 -4.262963065e-05)
(0.0005563163091 9.175676344e-05 6.123864092e-05)
(0.0005861872116 0.0001080589085 3.818833493e-05)
(0.0005767365652 0.0001405772989 4.398457917e-05)
(0.0005636721995 0.0001031340927 -1.703500471e-06)
(0.0006487249158 0.0001895381671 -1.834700118e-05)
(0.0006547423941 0.0001867617583 1.526287238e-05)
(0.0006533142841 0.0001334960088 -2.675300714e-05)
(0.0006665903885 0.0001425140698 -5.897343175e-05)
(0.0007226669394 0.0001249424442 2.320961712e-05)
(0.0007340539706 0.0001560590487 3.626148106e-05)
(0.0007180871897 0.0001480909154 -3.929706304e-05)
(0.0007443659798 0.0002013016333 -2.338862412e-05)
(0.0007523859418 0.0002228096884 -3.673089067e-05)
(0.0007178569297 0.0001837242539 -3.987775412e-06)
(0.0007023839982 0.0001913089117 -3.275592672e-05)
(0.0006901448487 0.0002006708661 -2.861804607e-05)
(0.0007148712859 0.0001663895089 -6.403265973e-05)
(0.0007758686597 0.0001792977793 -4.378994118e-05)
(0.0008294596861 0.0002465150803 -1.434273099e-05)
(0.0008116295736 0.0002417400816 -8.722877458e-05)
(0.0008080284038 0.0001722768903 4.060256887e-05)
(0.0007961302232 0.0002218207548 -2.029992684e-06)
(0.0008152942417 0.0002500063232 9.674838268e-06)
(0.0007857392051 0.0002335796152 -1.647806778e-05)
(0.0007623024156 0.0001768787788 -3.581647912e-05)
(0.0005011063182 8.656488489e-05 -3.911485414e-05)
(0.0005136500893 0.0001424155069 -1.507182935e-05)
(0.0004714134881 0.0001075822795 -4.614513218e-05)
(0.0005044837597 0.0001051344625 -4.010720635e-05)
(0.0005331902619 0.0001129680539 -4.68899086e-05)
(0.0005358733318 9.20085447e-05 1.875532792e-05)
(0.0005565220912 9.099470475e-05 9.788605273e-06)
(0.0005629904896 0.0001315696584 7.937023106e-05)
(0.0005979933662 0.0001134272263 2.364321012e-05)
(0.0005994381561 0.000137003345 3.139872876e-05)
(0.0006969710517 0.0001715147954 -4.542220286e-05)
(0.0006715548024 0.0001694082018 -2.48680667e-05)
(0.0006819805435 0.0001052047977 -4.57122127e-06)
(0.0007210621515 0.0001195860291 4.70083973e-05)
(0.0007470658003 0.0001211964796 5.844470057e-05)
(0.0007629834047 0.000168295795 5.779565544e-06)
(0.0007794021257 0.0001803244871 -0.0001147940106)
(0.0007774065348 0.0002725232744 -3.444601785e-05)
(0.0008071527931 0.000195107647 -8.993782314e-05)
(0.0007770963381 0.0002292628646 -5.448133514e-05)
(0.0008433963248 0.0002052944461 -2.258327026e-05)
(0.0007974436546 0.0001886949429 3.143510025e-05)
(0.0007969546998 0.0001779346738 3.491228943e-05)
(0.0007713467859 0.0002020160305 2.152627517e-05)
(0.000859393853 0.0002232137291 2.110825072e-05)
(0.0007827452285 0.0002436162216 2.040238536e-05)
(0.0007441638158 0.0002325764019 -7.935000733e-05)
(0.0008476432196 0.0002305826568 -1.165731629e-06)
(0.0008242181896 0.000247591255 -4.252199282e-05)
(0.0007533574346 0.0002104791591 -2.229644766e-05)
(0.0003843542006 7.800069522e-05 -3.164684669e-06)
(0.000450095501 5.881081456e-05 -1.904756432e-05)
(0.0005460537209 0.0001051062686 1.115595374e-05)
(0.000536839832 9.761273636e-05 -1.367852726e-05)
(0.0005589502468 8.840398653e-05 3.462066706e-05)
(0.0005871763065 9.369746426e-05 3.092746075e-05)
(0.0005636703624 0.0001045692948 2.905521553e-05)
(0.0005788693251 0.0001154190421 -5.434297268e-06)
(0.0005589835902 0.0001301815758 -6.339760626e-06)
(0.0006082682568 0.0001001809556 -1.466029031e-05)
(0.0006286589587 0.000127788709 -1.926351557e-05)
(0.0006885413179 0.0001357566288 -3.859652919e-06)
(0.0007253229294 0.0001179118952 6.344150989e-05)
(0.0007268019154 9.264733852e-05 3.61929616e-05)
(0.000742742737 0.0001244754669 9.914031911e-06)
(0.0007456494822 0.0001609467161 2.368469815e-05)
(0.0007723121518 0.0001762329734 -1.327881296e-05)
(0.0007871434022 0.0002459106834 3.951131538e-06)
(0.0007764702193 0.0002322083993 -2.226491689e-05)
(0.0007949486132 0.0001665994846 -1.01658347e-05)
(0.0008079615903 0.0002571819666 4.746870064e-05)
(0.0008389914605 0.0002185338598 1.213980933e-05)
(0.0007824353365 0.0001686245393 7.6920574e-05)
(0.0007829806209 0.0002323113783 2.986457374e-05)
(0.0007138530434 0.0001994004194 1.735669971e-06)
(0.0008238950128 0.0002358835812 -3.435642499e-05)
(0.0008354146251 0.0002353435605 -2.204045439e-06)
(0.0008084936974 0.0001893897783 -5.736517514e-05)
(0.0007807872894 0.0002679919865 1.8697241e-05)
(0.0009028204245 0.0002613542359 2.796999483e-05)
(0.0005087602982 8.412197142e-05 -1.264971202e-05)
(0.0005087409799 3.744318522e-05 -4.858320975e-05)
(0.0005404032745 9.28625196e-05 4.80002616e-05)
(0.000547163068 9.427348375e-05 8.793488087e-05)
(0.0005519071624 9.625229355e-05 2.562379965e-05)
(0.000587971502 8.503204832e-05 3.166771075e-05)
(0.0005435598371 0.0001084509832 2.95624094e-05)
(0.0005805314031 0.0001085334651 -7.988160103e-06)
(0.0006112895078 0.0001306717464 -2.256522847e-05)
(0.0006446362445 7.409727609e-05 -1.873215732e-05)
(0.0006731435014 0.0001037960586 3.543184038e-06)
(0.0007252379429 8.034678617e-05 3.032777352e-06)
(0.0007578678665 0.0001513483009 6.98661456e-05)
(0.0007005622607 0.0001081910188 -2.824006961e-05)
(0.000669712678 0.0001218455281 4.35044304e-05)
(0.0007002702837 0.0001090271449 1.084079527e-05)
(0.000705280233 0.0001639153204 -4.335917269e-05)
(0.0007320820112 0.0002102550189 -5.206157989e-05)
(0.0007712913349 0.0001923786916 2.263337143e-05)
(0.0008517081151 0.0001566816191 5.222625642e-06)
(0.0007532960704 0.0002450499448 7.441197096e-05)
(0.0008248109749 0.0002436260842 3.847405192e-05)
(0.0007822347222 0.0001812938478 6.157587962e-05)
(0.0008351330655 0.0002342407082 -2.388556993e-05)
(0.0008376134897 0.0002436564957 5.587920938e-05)
(0.0007805976291 0.0002004777991 1.2108269e-05)
(0.0007994509486 0.0002111307267 -6.738032182e-05)
(0.0007911997188 0.0002294839643 -4.446172662e-05)
(0.0008970719443 0.0002365685294 5.76731907e-05)
(0.0009297541754 0.0002648384097 1.217011443e-05)
(0.0005202846355 7.856416368e-05 -1.783768304e-05)
(0.0004928338311 2.888252254e-05 -5.803575058e-05)
(0.0004985005172 9.265404224e-05 1.258231735e-05)
(0.0005022070752 8.985494325e-05 5.159271419e-05)
(0.0005158296697 3.366770034e-05 5.68132129e-05)
(0.0005049210802 0.0001058782867 3.478384563e-05)
(0.0005758657277 8.094651491e-05 7.154204275e-06)
(0.0005982823281 8.532485444e-05 1.031139676e-05)
(0.0005911876123 0.000119875976 -5.954866607e-05)
(0.000634138913 5.845001322e-05 -6.364137027e-05)
(0.0006712522856 6.080248247e-05 1.157575675e-05)
(0.0007236057381 8.510050972e-05 3.287789486e-05)
(0.0006725405334 0.0001288447113 1.139620204e-05)
(0.0007170462737 0.0001224683088 -2.270272837e-05)
(0.0007419531118 0.0001351382542 -7.069099775e-05)
(0.0007525184959 0.0001314200207 -1.968493145e-05)
(0.0006957686606 0.0001492001471 1.422210406e-05)
(0.0006809786063 0.0002116473492 -1.094523691e-06)
(0.0007168048486 0.0001656637222 -8.466476716e-06)
(0.0007356964751 0.0001695387723 -2.596028134e-05)
(0.0008138364854 0.0002035587582 -7.853887317e-05)
(0.0008172412148 0.0002055624751 -1.388313184e-05)
(0.0008616838438 0.0002310236893 1.710730952e-05)
(0.0008167974291 0.0002124383462 -1.324979813e-05)
(0.0008704206454 0.0002507003829 1.204637678e-05)
(0.0008960022679 0.000232234453 1.34811227e-05)
(0.0008547475956 0.0002193237192 -5.458232569e-05)
(0.0008676210671 0.0002823444504 -1.243355632e-05)
(0.0007806983598 0.0001594171923 2.485637346e-05)
(0.0008241707548 0.000224009531 3.983186478e-05)
(0.0004368331035 4.47553657e-05 2.351509016e-05)
(0.0004895351455 6.182235273e-05 -2.075220898e-05)
(0.0004378693925 8.376190429e-05 3.288046207e-05)
(0.0004250004775 4.883442682e-05 7.339112329e-05)
(0.0005369041177 1.265763631e-05 7.917495138e-05)
(0.0005400648959 8.04001567e-05 3.646730277e-05)
(0.0005592658921 6.567065158e-05 8.463248554e-05)
(0.0005655777121 8.597658795e-05 1.325257771e-05)
(0.0006057963584 6.624593246e-05 -7.237406181e-05)
(0.0005926178548 6.938933406e-05 -2.319940578e-05)
(0.0006112534048 2.418601492e-05 -2.372041905e-05)
(0.0006082051758 0.0001010884422 -5.461281962e-05)
(0.0006460082927 8.484806402e-05 1.469852173e-05)
(0.0007135541145 8.133066017e-05 -4.508332242e-05)
(0.0007592966124 0.0001454938457 -7.827868082e-05)
(0.0006716935135 0.0001476093981 6.485833369e-06)
(0.0006869146874 0.0001545637106 5.719465535e-05)
(0.0007133554802 0.0001931707792 5.20748726e-05)
(0.0007624782688 0.0001189740731 -3.914502169e-05)
(0.0007389868784 0.0002037606959 -3.531378028e-05)
(0.0007592800963 0.0001814681886 -4.741015096e-05)
(0.0007349417134 0.0001855290966 -1.719484613e-05)
(0.0007428342117 0.0002129567398 -4.27741712e-05)
(0.0007540868567 0.000206982991 2.842813073e-05)
(0.0008204777582 0.0001937359671 2.304541598e-05)
(0.0008414512875 0.0002330793238 5.092069386e-05)
(0.0008681691613 0.0002603694469 -4.355367298e-05)
(0.0008695533326 0.0002497719464 -1.842992818e-05)
(0.0009199962017 0.0002003890316 0.0001169406179)
(0.0009932257932 0.0002327063257 -1.561165956e-06)
(0.0004643966077 5.720439365e-05 1.884644836e-05)
(0.0004102426212 4.584199793e-05 4.029759304e-05)
(0.0004691096986 8.136909941e-05 3.475648533e-05)
(0.0004900951617 7.825070557e-06 2.149691707e-05)
(0.0004675496924 1.967677392e-06 -4.322893905e-05)
(0.0004769855411 5.902888266e-05 -5.672580203e-05)
(0.0005003363011 4.696734405e-05 6.111950596e-05)
(0.0005227000421 1.178827597e-05 5.013649238e-05)
(0.0005559545169 9.036352569e-05 -3.319227403e-05)
(0.0005535807651 2.938795423e-05 3.15710955e-05)
(0.0005987270927 4.866036652e-06 1.168673695e-05)
(0.0006381962714 6.46306411e-05 -5.937655313e-05)
(0.0006847642579 0.0001008064699 6.128398725e-06)
(0.000641659634 5.800107228e-05 5.032263822e-06)
(0.0006334274431 0.0001142356931 -2.470224325e-05)
(0.0006819501807 0.00017866722 -3.96302134e-05)
(0.0007000607303 0.0001441344303 -2.457483745e-06)
(0.0007264663496 0.0001612788904 1.691737706e-05)
(0.0006805742845 0.0001386344663 -3.673816301e-05)
(0.0006400610538 0.0001818218684 6.155036504e-05)
(0.0006720562729 0.0001390723367 4.550194442e-05)
(0.0007073018797 0.0001863103483 2.520347815e-05)
(0.0007356057877 0.0001820100121 4.930262077e-05)
(0.0008663917359 0.0002065528095 7.419868335e-05)
(0.0008527128342 0.0001615961149 4.682306501e-05)
(0.0008472543407 0.0001975639611 6.164363509e-05)
(0.0008928980877 0.0002642717813 5.572570632e-06)
(0.0009054540668 0.0002300101782 -3.862729457e-05)
(0.0009693215789 0.0002071682772 4.858677203e-05)
(0.001005930687 0.0002070627443 1.331718314e-05)
(0.000388217142 2.493071775e-05 -3.701499316e-05)
(0.0004005494049 2.954693342e-05 -1.374207998e-05)
(0.0004451557262 5.599544443e-05 -2.505498432e-05)
(0.0004688634318 7.60526998e-06 4.028639593e-05)
(0.0004671821888 2.750001733e-05 2.134641896e-05)
(0.0004787853311 1.802728605e-05 -6.755744827e-05)
(0.0005009243139 3.540257373e-05 -4.466893249e-05)
(0.0005129841758 1.644639306e-05 -2.980345666e-05)
(0.0005488744956 3.617522407e-05 1.179871888e-05)
(0.00058405347 3.549860414e-05 1.16986377e-05)
(0.0005838794415 1.525041348e-05 2.485635941e-05)
(0.0005556206111 1.404182048e-05 2.233917757e-05)
(0.0005722695675 3.865803573e-05 -7.334202187e-06)
(0.0006577404833 9.847965184e-05 6.335397991e-06)
(0.0006364234612 0.000106727342 -1.449848246e-05)
(0.0006459335928 0.0001270755304 6.085209126e-05)
(0.0007052343113 0.000146992855 2.509017839e-05)
(0.0006631422096 0.0001988685138 4.660627896e-05)
(0.0006835286212 0.0001807421209 -3.249226858e-06)
(0.0007243867548 0.0001667550777 -2.572391426e-05)
(0.0006946552368 0.0001537503652 2.770963712e-05)
(0.0007725866602 0.0001357069763 2.052933463e-06)
(0.0007713149748 0.0001426888879 2.13779023e-05)
(0.0008563721711 0.0001341241288 4.455753705e-05)
(0.0008349524113 0.0002192624099 9.511250112e-06)
(0.0008716200363 0.000186356314 3.030831517e-05)
(0.0008869123449 0.0002104340648 4.952206456e-06)
(0.0009386823041 0.0002411936284 -1.257032731e-05)
(0.0009445801965 0.0001962063098 2.283576938e-05)
(0.0009053054439 0.0002101916143 4.656873446e-05)
(0.0004533590887 2.019271083e-05 -3.246742513e-06)
(0.0004802086528 2.536126296e-05 1.071201481e-05)
(0.0004724131029 4.369108441e-05 -3.201880728e-05)
(0.000502926026 -1.899360938e-05 5.697612603e-05)
(0.0004887632863 4.811659798e-05 -1.350792325e-05)
(0.0004836340509 3.636197388e-06 -3.291241983e-05)
(0.0005337871952 1.045866225e-05 -9.269570256e-05)
(0.0005766345194 1.685907533e-05 -5.611880552e-05)
(0.0005811637268 2.127730598e-05 -4.538812632e-05)
(0.0006574280252 3.38817796e-05 -4.608460942e-05)
(0.0006271616948 3.006365785e-05 -1.222926665e-05)
(0.0006370166806 6.978033346e-05 -1.402295396e-05)
(0.0006130196387 3.585625644e-05 -3.293765131e-05)
(0.0005881663905 7.812703193e-05 2.047145698e-05)
(0.0005656598535 0.0001055451546 -7.638983305e-07)
(0.0006076496178 5.494159176e-05 -9.165929273e-06)
(0.0006254395261 0.0001567347111 6.351302726e-05)
(0.0006913370885 0.0001747664861 3.126922775e-05)
(0.0007146943208 0.0001456793184 -3.924636243e-06)
(0.0007562717964 0.0001679846789 -5.289050675e-05)
(0.0008204742408 0.0001372322209 -6.47469404e-05)
(0.0007373749788 0.0001481165419 -8.128229073e-05)
(0.0007629060206 0.0001394517887 1.147490779e-05)
(0.0007484481003 0.0001015720336 3.491351364e-05)
(0.0007665574447 0.00020851782 1.688538103e-05)
(0.0007688552484 0.0001607760792 -2.737597673e-05)
(0.000776214962 0.0001557961976 9.796343764e-06)
(0.0007950639148 0.0002190951063 -4.294177955e-05)
(0.0008642864145 0.0001947247597 8.833922415e-06)
(0.0009485198211 0.0001528307074 8.731561051e-06)
(0.0005019271958 5.195904062e-06 7.068081959e-05)
(0.0005125089038 5.536950212e-05 8.175327556e-05)
(0.0005151333577 2.737191652e-05 3.362417322e-05)
(0.0004905002561 -3.794398445e-06 7.110404466e-05)
(0.0004875709388 6.021307721e-05 -1.638992302e-05)
(0.000554171892 6.122645919e-08 2.307370413e-06)
(0.0005226403689 9.092937565e-06 -3.375048338e-05)
(0.0004873095718 -2.790078096e-05 -2.291394814e-05)
(0.0005460582811 -8.933734019e-07 2.934967171e-05)
(0.0005184199668 -2.285891243e-05 1.244924622e-05)
(0.0005596383587 6.53502761e-05 -3.107632624e-05)
(0.0005507610195 5.139586451e-05 2.788267782e-05)
(0.0005969755258 2.161113086e-05 -7.757955429e-05)
(0.0006054390892 5.455610395e-05 -2.970606195e-05)
(0.0006240793298 0.0001471733252 3.319631806e-05)
(0.000616136017 6.683489077e-05 2.081806346e-05)
(0.0006216290235 7.999398026e-05 9.818228747e-05)
(0.0006378359572 0.0001450909786 -2.895682357e-05)
(0.0007027026247 0.0001668393461 -6.271981781e-05)
(0.0006879205055 0.0001123952638 -9.49392644e-06)
(0.0007118906343 0.0001199968774 -2.929738436e-05)
(0.0007636270364 0.0001660049785 -3.556898254e-05)
(0.0007441439947 0.0001260332727 -6.67938477e-06)
(0.0007412340661 0.0001142416995 -1.832617083e-05)
(0.0007490008083 0.0002158642054 -2.618957417e-05)
(0.0007555340042 0.0001703890882 -3.6034908e-05)
(0.0007857310875 9.627570926e-05 1.665290056e-05)
(0.0008341108957 0.0001706300729 -6.873747317e-05)
(0.000825245085 0.0001677914484 1.819657498e-06)
(0.0008168643229 0.0001404985062 -5.68891457e-05)
(0.0003884651986 2.758653877e-06 3.224792259e-05)
(0.0004376387566 4.40121028e-05 3.095629038e-05)
(0.0004699488919 -1.787528788e-05 4.38924697e-05)
(0.0005040370168 2.976864423e-05 5.722985651e-05)
(0.0005262640619 -1.672571647e-06 -1.259235373e-05)
(0.0005191854368 -9.860374849e-06 1.745702934e-05)
(0.0005561824244 3.71947011e-05 3.913544266e-05)
(0.0005983043549 -1.509367521e-05 6.577196189e-05)
(0.0005726962833 3.063679336e-06 3.194307421e-05)
(0.0006090950836 -1.841644431e-05 6.91745728e-05)
(0.0005443429926 5.312478896e-05 -3.963399012e-05)
(0.0006098500713 4.452986418e-05 1.753354028e-05)
(0.0005761416487 2.890496622e-05 -5.476967733e-05)
(0.0005574864195 5.687960687e-05 -2.461278462e-05)
(0.0006054603994 8.49645303e-05 -2.244231648e-05)
(0.0006027145004 8.82346587e-05 1.854521494e-05)
(0.0005958395094 7.99875471e-05 0.0001035266803)
(0.0006449815424 9.030315823e-05 -4.13962849e-05)
(0.0006467064692 0.0001611860058 -2.875679543e-05)
(0.0006381954966 0.00010361943 -2.992235476e-05)
(0.0007225760276 0.0001083497226 -2.317187328e-06)
(0.0007254767323 0.0001149927411 -1.400984238e-05)
(0.0007373669837 0.0001313459719 -5.600624592e-05)
(0.0006642447517 0.0001424281309 -3.989969349e-05)
(0.0007451355099 0.0001187958443 -2.190360699e-05)
(0.0008611806595 0.000137778366 1.866647876e-05)
(0.000875085617 0.0001574781944 2.373856689e-05)
(0.0008340833233 0.0001771982536 -1.998960221e-05)
(0.0008721040902 0.0001678777403 -1.100348824e-05)
(0.0004955578196 -4.77883757e-05 3.4376864e-05)
(0.0004993121019 1.856377303e-05 3.871439731e-05)
(0.0004983710409 -7.71790249e-06 4.461173685e-05)
(0.0005226662816 -3.61294417e-06 3.378673092e-05)
(0.0005188795586 1.391681692e-05 5.481164957e-05)
(0.0005071041744 -1.535223791e-06 4.826745907e-05)
(0.0005446614523 -5.228554696e-05 6.592249484e-05)
(0.0005308686681 3.069128766e-05 7.147395411e-05)
(0.0004900360709 -1.699968222e-05 2.869010022e-05)
(0.0004903486579 -2.121773488e-05 1.771218696e-05)
(0.0005382064434 1.663114193e-05 -2.544642869e-05)
(0.0005353405196 1.037632655e-05 -7.087296944e-05)
(0.0005585431899 7.206836644e-05 -3.790059373e-05)
(0.0005339532176 7.288372509e-05 -1.858762853e-05)
(0.0005317097561 5.17967822e-05 5.26930733e-06)
(0.0006124301929 8.861865069e-05 5.083534703e-05)
(0.0006275382388 5.238281102e-05 -2.650961294e-05)
(0.0006284009162 9.692797905e-05 -4.470271252e-05)
(0.0006808859416 0.000108016377 -8.67304758e-07)
(0.0007688478859 9.999174756e-05 -4.219591758e-05)
(0.0007241644691 8.311602773e-05 4.714299824e-05)
(0.0007175771289 0.0001088126753 3.66519154e-06)
(0.0007047210911 0.0001652238767 9.672540926e-06)
(0.0007054694928 0.0001311573787 -2.671644783e-05)
(0.0004658704015 -6.904038169e-05 4.612676112e-05)
(0.000515836306 1.810523765e-06 4.570896807e-05)
(0.0004999190971 -1.994378069e-05 3.472917197e-06)
(0.0005231370943 -2.565533527e-05 6.712621257e-05)
(0.0005457161548 4.513895873e-05 -6.257177222e-06)
(0.0005317830691 -2.379325662e-05 -3.336435876e-06)
(0.0004896010209 -3.483150265e-05 -4.084013958e-06)
(0.0004789029934 8.381805684e-06 4.447324882e-05)
(0.0005244734371 6.979500419e-06 2.716967145e-06)
(0.0004984257927 -2.439963834e-05 1.125283974e-05)
(0.0004755489576 4.189888437e-05 -6.061780251e-06)
(0.00048258251 -2.954988269e-05 -1.745503144e-05)
(0.0005061734729 5.380510354e-05 -4.378835887e-05)
(0.0005424348501 4.212567419e-05 -5.487640855e-06)
(0.0005935593025 5.405234934e-05 -9.98652535e-06)
(0.0005711224767 6.20485114e-05 -2.369248997e-05)
(0.0005913968702 3.408566044e-05 -6.175666277e-05)
(0.0005990724824 9.222715875e-05 -6.728221905e-05)
(0.0006351819776 2.352191422e-05 -4.100629066e-05)
(0.0004629394267 -3.296980269e-05 -1.662165123e-05)
(0.0004425632313 -4.415991142e-05 1.476601308e-05)
(0.0004867827138 -3.221236596e-05 1.886293299e-05)
(0.000478749689 -3.102128736e-05 -5.395833902e-06)
(0.000451223365 1.908958126e-05 5.009066119e-05)
(0.0004701860317 -2.959491708e-05 2.318842853e-05)
(0.0004709173064 2.053054328e-06 1.425325415e-05)
(0.0005015804802 -2.110377407e-05 3.289452915e-05)
(0.000499264501 3.126047236e-06 2.089170164e-07)
(0.0005304455844 -9.397329128e-06 -5.257907887e-06)
(0.0005479791586 3.163605639e-05 8.75453979e-06)
(0.0005693550266 -3.768084209e-05 7.211285625e-05)
(0.0005796429327 5.180313409e-05 -4.531989085e-05)
(0.0005926392202 1.538916652e-05 -4.43643534e-06)
(0.0004429767916 -6.622749772e-05 -4.96902247e-05)
(0.0004726402831 -3.458666611e-05 -2.785319652e-05)
(0.000461623097 -4.610512176e-05 1.775843419e-05)
(0.0004633175775 6.368137115e-06 4.061948887e-06)
(0.0004478960183 3.662909987e-05 -4.819366266e-05)
(0.0004716003132 -6.41050315e-05 -3.046464471e-05)
(0.0004930350786 -1.73361286e-05 -9.555169585e-05)
(0.0005106342705 -5.225436652e-06 -2.308968247e-05)
(0.0004226740594 -9.806545899e-05 -3.320687059e-05)
(0.0004425217711 -3.756914284e-05 -1.764462374e-05)
)
;

boundaryField
{
    flow
    {
        type            calculated;
        value           nonuniform List<vector> 
15
(
(0.0004827484906 0.000118546732 -8.285838752e-06)
(0.0006040655302 0.0001172627717 -5.520769774e-06)
(0.0006175797069 0.0001262494899 -4.028199233e-05)
(0.0006992571524 0.000177987674 -4.544098978e-05)
(0.0007986423105 0.0001789067555 -4.973973642e-05)
(0.0007623024156 0.0001768787788 -3.581647912e-05)
(0.0007533574346 0.0002104791591 -2.229644766e-05)
(0.0009028204245 0.0002613542359 2.796999483e-05)
(0.0009297541754 0.0002648384097 1.217011443e-05)
(0.0008241707548 0.000224009531 3.983186478e-05)
(0.0009932257932 0.0002327063257 -1.561165956e-06)
(0.001005930687 0.0002070627443 1.331718314e-05)
(0.0009053054439 0.0002101916143 4.656873446e-05)
(0.0009485198211 0.0001528307074 8.731561051e-06)
(0.0008168643229 0.0001404985062 -5.68891457e-05)
)
;
    }
    obstacle
    {
        type            calculated;
        value           nonuniform List<vector> 
30
(
(8.605370784e-23 2.305802156e-23 2.183607271e-23)
(9.608738062e-23 2.574653609e-23 1.301071127e-23)
(2.906345083e-23 7.787528154e-24 -4.055188849e-23)
(1.442018862e-22 3.863877903e-23 2.641112818e-23)
(8.017671812e-23 2.148328681e-23 -7.692941612e-24)
(6.942688543e-23 1.860287792e-23 -6.790794547e-24)
(1.525866347e-22 4.088546562e-23 -9.13014601e-23)
(6.011373424e-23 1.610742649e-23 -2.887075062e-23)
(1.024765058e-22 2.745849702e-23 -4.711811059e-24)
(1.497582644e-22 4.012760609e-23 -2.19125656e-23)
(9.524703015e-23 2.552136473e-23 1.809397634e-24)
(7.289648642e-23 1.95325547e-23 2.479753652e-23)
(9.696357196e-23 2.598131085e-23 -2.948119564e-24)
(9.446806582e-23 2.531264187e-23 9.595592488e-24)
(1.156272742e-22 3.098223481e-23 -6.361674462e-24)
(5.13396461e-23 1.375641667e-23 6.092871282e-24)