/*--------------------------------*- C++ -*----------------------------------*\
  =========                 |
  \\      /  F ield         | OpenFOAM: The Open Source CFD Toolbox
   \\    /   O peration     | Website:  https://openfoam.org
    \\  /    A nd           | Version:  7
     \\/     M anipulation  |
\*---------------------------------------------------------------------------*/
FoamFile
{
    version     2.0;
    format      ascii;
    class       volScalarField;
    location    "0.003";
    object      overallT;
}
// * * * * * * * * * * * * * * * * * * * * * * * * * * * * * * * * * * * * * //

dimensions      [1 2 -2 0 0 0 0];

internalField   nonuniform List<scalar> 
546
(
846.0997313
827.9062933
814.8890917
811.4053549
806.4433905
803.620425
797.28508
798.3333331
780.252463
784.9741287
781.9248704
771.6589241
773.6547086
764.8824133
766.6687974
766.2826111
763.1525351
767.1543056
755.4500352
750.6133228
757.7057999
740.0852221
749.7172926
746.7838313
726.1430752
723.287367
727.0483932
739.1982136
730.4305952
724.9341135
921.5989733
916.1073375
910.3052315
891.2915429
898.1890799
891.628805
891.4693353
879.9136422
892.6729232
872.8688201
871.2062107
873.4661118
853.5588844
856.698745
857.4966498
844.2452905
848.7106011
842.6839521
831.8538777
821.1703495
826.1995046
808.3192523
808.640619
808.4293466
808.0448167
783.7591787
794.9897029
784.0032756
764.1777053
741.6679797
925.7030503
923.9454407
916.0824106
914.7376091
915.6693391
922.1885794
907.3567594
909.7004651
913.7409312
913.9584197
913.2075792
906.4510084
899.9288461
898.1724151
890.6572007
890.2640783
886.3115233
882.2851194
886.0193573
871.0256049
862.0601727
851.6495255
857.6043385
861.9977633
842.3504997
831.5049762
824.9877291
812.5802834
785.8262471
748.1503044
908.1934188
904.6350059
920.2561362
909.9369563
914.7267297
916.3667684
919.3178794
907.768929
904.2202987
917.4860353
915.5926735
915.517983
923.1389106
910.649993
916.1942648
905.3477666
891.8609128
889.7862158
889.6524171
882.1576373
879.9582844
879.1605977
869.6606014
870.7494446
859.1922998
840.2811026
829.0665614
810.8382278
793.2640332
755.3525465
870.4825723
876.5992466
872.9750168
881.3536802
880.3363877
886.2683223
892.6334839
898.4521434
897.7800763
890.6895233
901.9289051
893.720016
894.1109227
891.1155203
889.153253
886.9254622
898.1103731
875.9570029
878.5246908
880.2212504
882.1271914
894.7214842
879.9427553
873.2147027
860.4405646
848.5899997
836.9789367
819.5092474
816.0939657
784.5757432
831.2786231
841.2405645
841.7757022
843.083123
851.2486725
851.7989136
863.474353
854.3293928
859.1165319
859.8932778
867.5691557
865.6535384
873.6064098
875.9691471
877.0618334
874.5438529
882.0632102
884.6015383
890.3700708
888.1225668
883.4247943
895.5150246
875.95898
868.8310608
854.9729844
857.0256499
838.0035131
826.5908488
812.6129066
789.0185402
797.2894964
814.7518446
805.9945558
814.8370501
819.0341209
828.6913656
836.0668483
842.2861123
844.8337422
851.7495428
859.1560453
852.5029762
868.7416464
863.0363682
868.3620534
863.981337
860.5884726
864.4906638
872.1846729
865.3688437
882.2602651
876.0067013
875.2393613
868.1754337
854.2574512
847.1313893
842.0909116
834.4459781
800.2918055
782.6843537
757.3938492
775.6164893
778.8891086
788.091676
799.6664477
808.2103802
809.8097279
822.0810461
830.3595001
833.6525113
834.2134263
824.8851457
839.0734515
850.6605829
844.9582105
845.5765125
849.629443
854.2842003
851.6870968
851.2641743
850.8542893
862.6525219
857.9767964
866.0928396
854.2275728
841.0605186
841.2255134
829.7687764
808.8285682
796.207972
703.4356028
720.7017895
746.7375048
758.38684
763.2928021
776.8754606
785.6218343
790.3063946
799.4571933
802.9571954
806.6030275
812.6798119
810.5060883
823.5046311
812.8677367
826.9770443
832.4460959
830.6937598
822.4236982
829.0405144
830.1826916
829.0032352
835.199588
830.9309247
840.4644156
836.0847793
822.8767694
813.5174495
811.1186049
786.6444116
652.7415182
669.1557531
700.8025261
712.6706699
727.8459959
734.8922138
754.4951096
772.5830518
770.5625758
773.3948706
778.4097257
784.6842739
787.4194276
790.8385441
802.084346
803.3776323
814.4398921
812.3423331
809.7870147
812.3766441
804.1679601
810.8439518
819.810559
820.5113599
820.8560776
816.7636723
813.1908041
801.4947429
783.5745255
779.2731789
600.2084846
614.5316006
655.7633891
678.5446631
685.3997447
700.1381829
725.5148935
726.1859751
736.455481
748.1387842
746.8724988
767.521002
761.2222285
770.6024365
777.40742
785.4880855
790.6242625
783.2844638
792.8513394
793.954265
805.9341906
805.0243114
812.1834679
805.8522226
806.6120164
809.8101744
798.6072953
784.1485948
772.7119428
772.4974199
536.5552031
577.0227541
590.4459661
618.0606158
647.2750297
666.1268801
678.9065338
690.3888811
708.2715009
725.0737085
737.3058797
747.175428
748.6467665
753.1679052
765.9742021
769.5397056
766.4787281
764.6064793
767.1607467
780.9995392
783.9436213
783.14611
786.3034612
794.9425721
783.4256748
789.2030847
786.5045651
774.8637819
774.1985042
755.4292097
493.2081112
516.3631129
552.6591568
567.6153065
595.201599
625.0924664
640.4644127
648.786097
666.3665618
674.4567684
694.3114566
712.9296041
713.1579829
721.0861327
727.5809627
739.3493829
751.0145764
752.7269376
757.4906577
758.0132726
760.9737179
765.4257403
773.7082534
769.1285492
769.7846742
771.8946664
778.7754117
777.8092906
783.1687534
769.998449
455.7032484
481.8604775
505.0058341
526.9821509
538.1253057
573.0539181
590.7832905
612.6411596
636.0554181
654.7069358
668.5080181
683.7921021
683.60707
699.6994254
705.6017451
716.207971
721.2413077
726.9899616
732.0628518
737.1548024
749.7010841
749.5525517
756.0325214
756.7562618
763.3899537
767.5331474
771.5886318
758.8682867
760.5069646
751.2154779
426.7869607
435.8803961
457.054477
475.8382946
502.1133796
527.2708125
550.7600362
573.6035371
590.9372214
615.2172698
642.335942
651.525343
671.1031172
678.8885241
692.2892545
694.7095815
705.4610582
708.5606617
715.8891193
718.2809086
716.0445996
730.2298165
729.8070129
744.7722746
749.2893509
743.7626059
753.8796719
747.836411
736.6868963
732.6135477
391.64637
404.8567362
419.457255
443.6575329
453.5684695
489.0464324
509.4582655
530.5210069
561.24866
573.5486077
591.2448939
612.0256695
632.9880785
648.9388963
665.507956
674.1673902
684.5351956
685.7895082
701.0928023
713.0793019
710.9744233
713.2542634
723.3241958
731.8785423
728.0274699
732.6343382
734.2696988
727.9956736
731.5445909
370.228929
390.9097977
404.2698237
418.7206659
422.155386
449.2365083
469.81588
492.5639599
524.8911284
540.7536901
561.8612964
581.541115
596.452457
604.4613269
632.6010486
649.2827481
661.1723911
675.8339259
681.4464446
684.5212701
699.3948488
703.3576578
707.5844195
717.715648
354.225945
362.1283734
384.2347646
394.5412617
401.0321373
420.1105071
443.2502505
458.4738289
477.6212402
501.8263471
524.2455935
551.6783676
556.943466
587.0558479
601.765945
622.0714256
640.4383204
649.4201314
668.5423913
330.5386834
345.3095973
355.6035177
374.2522095
383.6444127
394.9673869
415.9563387
429.3368751
440.5874065
463.4783465
485.3996364
507.340292
526.2061383
543.906734
328.6702217
337.4213935
346.5870899
353.5312013
374.3226377
381.0197078
389.6577294
398.7775698
329.4402491
329.5420189
)
;

boundaryField
{
    flow
    {
        type            calculated;
        value           nonuniform List<scalar> 
15
(
724.9341135
741.6679797
748.1503044
755.3525465
784.5757432
789.0185402
782.6843537
796.207972
786.6444116
779.2731789
772.4974199
755.4292097
769.998449
751.2154779
732.6135477
)
;
    }
    obstacle
    {
        type            calculated;
        value           nonuniform List<scalar> 
30
(
745.2782184
715.9243483
738.3159467
715.2061626
724.3643858
702.1738773
698.2280091
712.3319718
700.7139081
694.9049377
704.9535864
701.0766201
713.104989
642.1190107
688.5506589
674.6043586
691.232495
687.5855761
688.6394381
691.1005982
699.7661746
665.0553856
681.3380515
696.8339687
664.258804
670.9439541
665.3142762
681.7399823
688.1900236
703.9636561
)
;
    }
    frontAndBack
    {
        type            empty;
    }
    procBoundary1to0
    {
        type            processor;
        value           nonuniform List<scalar> 
21
(
850.7539585
934.3523265
933.4212685
901.8153124
861.0419254
837.1405886
792.9935865
745.0840252
678.6368191
614.1960386
559.6416823
518.4887986
459.7532075
435.3529243
404.4903168
369.2140629
360.3610166
343.3362127
328.0543147
327.3172455
322.9867021
)
;
    }
    procBoundary1to3
    {
        type            processor;
        value           nonuniform List<scalar> 
36
(
739.4717324
721.3825139
720.547575
716.5411166
721.7490011
739.4717324
717.1966731
672.7973174
679.2837336
685.6538596
697.9869699
721.3825139
697.2141368
569.0820148
576.6716925
606.3787449
615.711191
672.7973174
632.0519519
414.3664267
428.7871676
448.2480953
465.9379073
479.6573625
569.0820148
495.3210335
334.1695175
337.7711796
349.5065741
358.8321343
373.9523092
414.3664267
379.8106096
320.9054676
334.1695175
326.4937483
)
;
    }
}


// ************************************************************************* //
