/*--------------------------------*- C++ -*----------------------------------*\
  =========                 |
  \\      /  F ield         | OpenFOAM: The Open Source CFD Toolbox
   \\    /   O peration     | Website:  https://openfoam.org
    \\  /    A nd           | Version:  7
     \\/     M anipulation  |
\*---------------------------------------------------------------------------*/
FoamFile
{
    version     2.0;
    format      ascii;
    class       volVectorField;
    location    "0.003";
    object      UMean;
}
// * * * * * * * * * * * * * * * * * * * * * * * * * * * * * * * * * * * * * //

dimensions      [0 1 -1 0 0 0 0];

internalField   nonuniform List<vector> 
546
(
(374.8873615 104.7617752 1.392654801)
(360.3066472 100.8571544 1.38963749)
(342.8390186 97.38194496 7.739884071)
(331.6412733 89.51590455 4.1471913)
(319.7246362 93.36249723 -3.606152638)
(309.4438909 85.52947231 3.276654914)
(299.5885282 86.01403864 16.08199696)
(296.8232615 78.92325288 -0.8418349977)
(291.879073 83.29934536 -0.5565217579)
(285.7192571 78.21150135 5.13928517)
(292.8064674 81.57819512 -6.21917055)
(277.8843172 78.05550193 -1.85611867)
(262.1434128 68.10849201 3.733256718)
(264.9436094 75.69422404 3.596493591)
(262.2913983 63.33286501 -0.5838139452)
(258.3792585 70.43238435 -3.759368205)
(255.0211177 68.9955485 9.287411577)
(249.433427 67.37981102 8.551223334)
(246.9830236 66.91493739 7.574272565)
(239.1356145 68.90617474 -2.217697997)
(244.9676861 62.93238409 -15.44041242)
(248.54045 65.43381948 -1.440526745)
(249.1653782 66.83282898 -7.411038489)
(241.7630883 62.79083452 3.836271544)
(247.0721356 62.8761257 -8.741277621)
(246.2083686 73.46217062 -1.469006146)
(258.9213637 68.15903388 1.179421472)
(279.6576214 75.23309367 -3.479227655)
(309.4980776 77.61793113 -11.85940375)
(421.1658727 77.61328231 -1.642493904)
(653.6305589 193.3832113 -2.032823576)
(625.9920068 195.7525357 -5.150901508)
(594.44196 183.9246338 -2.528872897)
(582.9921646 171.9459805 6.042796886)
(572.7297993 168.6582812 2.034019705)
(548.6858819 166.71602 17.84405126)
(534.4833181 158.6539925 11.79669208)
(519.2152568 140.4183486 4.850155871)
(502.9748181 144.3463898 4.659925967)
(503.7794763 145.6925732 6.077296794)
(498.6332869 144.3699627 5.040492048)
(484.4463603 140.3403806 -3.474711478)
(464.2643757 128.1565963 3.921214106)
(455.4412048 124.9951337 6.764710587)
(439.1985244 116.4086616 8.079061405)
(437.6794314 118.1647687 9.740827646)
(433.7107716 121.4894838 -2.633415936)
(424.9160453 122.130949 8.915157299)
(429.013488 112.6135304 -0.8225754681)
(410.7618144 117.0508605 -10.49459164)
(417.493083 107.2263835 -11.4358333)
(401.204941 108.1886946 -4.342014707)
(399.3343728 107.0877426 -3.897517067)
(391.4458845 103.0600924 -6.770087567)
(396.6277397 104.2788829 -9.356403645)
(409.9509519 116.0560262 -6.14181381)
(432.9114255 101.7840815 -2.530863846)
(455.5530758 116.8702143 -1.094800235)
(507.694639 110.9861667 -4.164479181)
(614.5613174 97.89645956 -7.724106381)
(848.0055659 269.1315858 7.544664325)
(812.4768694 260.2735907 6.325666788)
(797.1453922 248.9755778 -8.305194727)
(782.9023848 245.6363489 -8.796593074)
(759.7740689 232.7150252 2.446475894)
(737.9549078 233.6619148 8.562889113)
(720.8070328 221.2862914 6.418296347)
(717.432566 213.1620307 6.272650959)
(681.3482435 204.0946095 -1.156760318)
(669.3912135 198.8210444 -4.991909694)
(648.7267643 193.5146461 4.024154566)
(637.5437906 187.4150263 -0.2751797121)
(615.1480408 180.6880132 3.007033746)
(611.0613288 176.9676937 2.684062746)
(585.3497313 164.1596093 5.591379521)
(590.4653965 163.0836267 7.845044231)
(589.6054156 165.6364794 2.406774475)
(578.1532806 164.2293464 1.95433446)
(566.2845683 152.9659973 -2.855852653)
(561.3079033 157.5455333 6.029627929)
(555.582329 151.5983011 2.422133541)
(548.3523257 156.8180113 -2.381886023)
(529.7558889 143.9481298 -5.319505482)
(534.1389944 140.5805917 -2.536534793)
(532.0940489 136.3896469 -16.059734)
(538.3260197 141.9113447 -6.140859165)
(565.9578912 147.7106159 2.242888771)
(586.0505081 144.6111656 -6.376229902)
(626.1498372 135.8834877 -0.6143605348)
(733.8091074 112.7293691 1.961450695)
(1002.232725 317.2946844 4.89312288)
(982.1607839 310.295081 5.094721571)
(949.6777757 309.3845796 3.667770522)
(931.0808421 293.3187734 2.983895744)
(907.744913 288.953435 7.469300895)
(871.0519689 285.1603016 -5.904788704)
(863.1208484 283.22003 -4.103792669)
(847.1930377 265.9717187 4.622134298)
(824.5566189 259.745137 4.243754579)
(818.0680898 253.8117774 5.720242703)
(787.0630415 241.990078 7.467664106)
(784.2997023 231.1521441 10.23143184)
(768.1765296 233.430776 10.59402079)
(758.1285331 219.4509758 4.932715897)
(740.4028429 213.7310656 -1.625846052)
(737.1739782 206.8590709 -7.067008231)
(706.4804292 202.5690459 -10.77446703)
(697.1925446 204.4876381 -3.379093944)
(692.7702055 199.6305162 -9.198136568)
(694.5151344 195.1457815 -1.38017372)
(681.6059418 194.2418573 -6.587797302)
(659.4745897 184.8798802 -7.063854178)
(655.2495065 185.0806303 -10.66603627)
(656.1030863 172.6558273 -11.2703793)
(649.3657273 176.9331011 -1.099138629)
(655.599752 184.0443925 3.018096678)
(672.9014573 169.4655493 -2.49465715)
(694.1321224 170.9583884 7.141983293)
(750.4195866 158.8685095 -0.3656078282)
(810.5265971 136.5490075 -3.749302477)
(1111.717981 344.9543589 13.004019)
(1096.085874 351.4191115 -2.153990667)
(1069.169764 341.3959692 -6.219854386)
(1038.407057 334.2629762 -1.685344633)
(1014.615155 340.3455918 -4.109859979)
(994.2361245 329.1763525 3.073113213)
(970.8480184 320.8371966 -5.084790409)
(957.0623185 305.5374528 -0.9981339107)
(951.6446501 300.8386157 -6.353077016)
(931.9149656 297.5013339 -1.580317408)
(912.9543947 284.3647696 1.129476891)
(908.09367 269.5166772 2.848073063)
(888.5461478 268.1432776 5.256451155)
(874.8644576 265.632858 -4.403565395)
(851.8449072 265.8422791 -3.259074066)
(847.3118518 254.901274 2.121589697)
(809.0630306 245.0644441 -10.58876995)
(804.544221 235.3895454 -4.943801595)
(804.6996407 237.0343602 -3.627828682)
(791.3266922 230.1533072 -6.320645328)
(778.0386538 223.0308983 -5.594495993)
(762.8433005 217.2792052 4.49287359)
(754.4378117 214.418125 -3.019119134)
(756.6712519 218.8591078 -11.86903155)
(768.7326316 211.6790268 -2.847129719)
(760.2079501 204.6902782 -6.291820183)
(763.599754 199.3619339 -2.607724642)
(797.7520405 196.4361487 -3.479075942)
(824.2758566 183.8279873 2.835357897)
(891.5317746 166.989326 -3.51659477)
(1205.065385 339.4378725 3.740935567)
(1174.058696 354.7152084 10.20670226)
(1160.813996 367.4897888 5.894561681)
(1140.610217 367.5951696 -5.032766488)
(1116.654108 361.9856607 0.4060308478)
(1106.919873 351.5588096 -4.070379389)
(1068.16888 355.5519674 2.390702308)
(1064.342441 349.3832172 -3.845893986)
(1064.881404 337.457658 -0.3249432372)
(1040.219909 330.7897387 -0.4119001286)
(1019.58688 315.7353243 1.734137521)
(1017.011674 312.1366075 0.9910467992)
(979.7495675 313.1676304 1.753228101)
(965.7462569 312.1379305 7.493640522)
(953.9662063 291.8504896 -0.8538680517)
(948.4335293 299.6388925 5.539716292)
(922.0016243 286.3438571 5.260804246)
(923.5372774 279.8542024 -7.669218173)
(907.4658974 272.063202 -10.27468068)
(887.7886937 265.4464536 0.04863452365)
(881.2303536 256.8738921 5.43080145)
(854.1126982 254.0497483 8.53036218)
(860.6351184 244.8348684 1.314041298)
(859.8150199 248.3281373 -8.493876533)
(852.3877429 239.3574563 -4.050044177)
(850.4097549 240.9683587 -0.4403202491)
(870.3023886 228.8664037 -2.628364866)
(884.3145441 221.5986836 -5.426721717)
(923.3401489 207.7700901 -3.760540353)
(955.1844938 194.8502284 2.551099774)
(1281.207514 336.8752686 2.876201923)
(1251.918267 352.7165384 8.879363202)
(1248.541155 369.5766658 2.473023941)
(1221.077153 362.8559601 0.2478905448)
(1198.992549 375.8346622 -2.388294884)
(1178.699964 371.2023142 -9.226715008)
(1162.136513 368.0445664 -1.941003327)
(1141.865069 373.971151 -4.227662186)
(1126.448873 366.1229237 1.900291416)
(1113.311256 358.0242237 -0.5035679081)
(1099.117437 360.99331 -0.1082871932)
(1094.287987 348.1535395 7.481232433)
(1070.41324 348.3436011 -3.229003465)
(1063.214578 338.7958874 7.044897419)
(1040.88501 338.1668922 4.742528418)
(1025.216347 323.2785364 -1.566946642)
(1006.502816 320.0342171 -6.564701923)
(999.0117161 310.5462656 1.429517795)
(988.2273582 305.4683522 4.220900796)
(989.162199 299.1128506 4.54627105)
(958.4827416 293.0747301 -6.089541188)
(955.0182448 276.3954089 -0.9411197528)
(941.7381812 275.5287341 0.7732365338)
(943.0143316 278.1228853 -6.689328927)
(948.1774075 273.0873318 1.007488023)
(937.8165224 256.6412064 -4.617895981)
(939.275213 256.3838493 -0.3581198939)
(961.140581 243.8301218 -3.681940901)
(989.1135956 242.640336 -1.7722048)
(1017.494109 219.0127216 -4.153896773)
(1360.718923 308.8058507 -7.550790288)
(1331.871312 337.1910167 -4.593253978)
(1320.00812 340.8781512 -1.067480143)
(1291.481849 356.070566 2.296922972)
(1269.891407 371.1808153 -2.094746284)
(1254.20141 385.2466052 -1.654783263)
(1234.576732 381.3794965 1.851941891)
(1212.788477 376.7964789 4.164268271)
(1185.197249 388.011432 0.4023222895)
(1177.877229 394.0944363 1.113158006)
(1162.999284 383.4828155 -0.1839554359)
(1164.514213 375.3797426 1.419372523)
(1150.484603 370.8830983 9.400235841)
(1129.396779 359.6096055 7.062838396)
(1116.16907 347.7521288 3.531549254)
(1106.964726 358.9312898 7.36505238)
(1088.271566 352.5233555 6.889524063)
(1083.135985 341.5110981 5.32888355)
(1064.004813 336.3081792 6.257521911)
(1052.623559 333.2304861 -0.7461609993)
(1045.341392 316.137044 2.583567448)
(1033.623491 312.2066962 10.45987012)
(1029.830987 308.2114557 8.336291595)
(1022.128956 302.8044034 4.688253535)
(1019.791371 294.104757 -4.231543093)
(1017.440826 291.7476322 3.703399776)
(1013.226546 278.395739 2.749991623)
(1029.924114 277.9191765 2.183352119)
(1045.720805 255.7088234 5.037857787)
(1060.220961 253.9851704 -3.056018428)
(1425.308687 276.3211877 -0.7714004655)
(1398.136766 294.6211383 -4.143135336)
(1371.974219 321.94199 -4.364910157)
(1350.512008 333.4504362 1.541076856)
(1330.725233 343.936005 10.1236622)
(1312.97138 366.1120294 1.286765891)
(1290.440318 389.7559929 -3.1968418)
(1273.88034 392.7796502 1.476255175)
(1257.227289 388.4642221 4.348767453)
(1243.36011 390.7574537 5.337174149)
(1230.375551 395.2618617 3.757569328)
(1209.454702 389.1960685 -1.389629501)
(1198.460473 389.4593132 -3.175093125)
(1184.946193 388.6247457 -1.906952165)
(1184.117744 377.4192166 3.699513606)
(1166.385087 373.6726765 -1.428391515)
(1151.324635 371.269977 0.2904030113)
(1137.252955 366.7182781 2.756687897)
(1133.622626 358.1179041 3.459164241)
(1121.489997 346.5564803 2.241302121)
(1108.51978 346.6201718 7.370171659)
(1103.805899 341.065784 2.268285869)
(1089.767051 336.1921899 5.175384692)
(1088.724305 329.0964313 2.772949626)
(1076.775909 325.1255539 4.05301362)
(1082.111895 309.1017659 -1.45011241)
(1078.340789 302.3759808 -8.808418789)
(1088.970009 301.7392291 -2.409835795)
(1102.10346 288.9992971 -6.323023615)
(1101.021044 274.1361826 -3.597271232)
(1476.056687 229.4113419 -8.529027703)
(1458.689882 254.5297834 -7.543631279)
(1425.66137 286.0242597 -0.05146434868)
(1405.703627 304.7627316 -0.563756577)
(1387.485187 325.2908257 -5.032935504)
(1363.817316 352.1203541 0.8913459182)
(1345.209021 357.5760612 5.193645602)
(1328.245177 377.711972 1.03645512)
(1314.671178 386.1537479 1.166803712)
(1295.716279 395.8359613 9.834015229)
(1279.522789 405.176066 3.241044355)
(1262.274974 407.0869149 1.433584932)
(1255.040666 403.4886368 -0.6167381227)
(1232.819957 403.6693164 -0.9126422673)
(1223.150012 395.4726485 0.8696029743)
(1215.94157 390.3341 1.68315074)
(1201.498654 380.9686033 2.586358529)
(1202.247357 380.1691835 0.6921053351)
(1188.906895 381.5032446 3.949201519)
(1165.415854 377.933087 2.32749778)
(1170.748926 375.196236 -1.75617225)
(1152.016372 363.7440043 2.768085647)
(1141.758081 361.7529676 -2.4759375)
(1136.595615 348.7617838 -0.1409751487)
(1136.432988 341.6172102 -6.650143911)
(1133.572525 335.8899402 -15.02939171)
(1139.52427 327.8685855 -7.638323101)
(1139.851386 320.4040471 -3.091023656)
(1140.110392 308.4662611 -0.02432702493)
(1147.998492 310.0422299 3.72159289)
(1532.280695 192.2846496 0.1549758952)
(1509.68552 214.6524396 7.051985255)
(1471.910238 248.3205611 -0.5590495442)
(1445.293664 277.8112251 2.010144993)
(1430.892501 300.2506221 2.225822625)
(1416.550416 309.8936308 -1.884740946)
(1381.152538 333.4694653 -3.991337412)
(1373.33517 350.3865987 -7.232486503)
(1360.437615 370.3709082 -6.267525169)
(1337.846531 385.3042064 -5.241409173)
(1333.606803 396.7635011 -8.806658873)
(1309.637314 400.1756236 -0.9809714429)
(1295.939631 403.7522486 -2.328263578)
(1283.399992 408.0480774 -3.228117923)
(1269.39121 404.0813411 -5.719956048)
(1257.919482 397.9798205 5.451276413)
(1246.225842 401.722589 1.409849433)
(1255.994203 398.5761432 -4.455808635)
(1238.971276 403.9509896 -3.716806315)
(1232.392734 403.7829323 1.438367703)
(1213.32936 394.7101319 -2.163406946)
(1210.988893 383.0502755 -1.361487802)
(1204.250997 377.8505588 -0.7692562671)
(1193.598721 368.0937285 6.672552287)
(1182.865682 364.8983359 6.273766278)
(1172.951312 360.5056662 7.876691936)
(1172.754268 349.119025 2.211496896)
(1185.95657 343.2771288 4.999946091)
(1187.065835 343.8267349 3.194454043)
(1183.807972 320.8541365 0.4530117424)
(1578.687787 142.5835228 9.676014841)
(1543.648382 176.676933 3.818695176)
(1527.719964 194.64826 8.216962066)
(1510.430758 226.811237 8.604550702)
(1480.81619 251.3171444 2.752226282)
(1456.765884 276.9861829 -2.893403076)
(1441.432463 302.0440238 -1.611292316)
(1418.261491 330.6259758 -4.475559639)
(1392.002667 349.8014566 -9.773465249)
(1381.387055 367.5804076 -2.46068562)
(1366.381202 371.9302165 2.477073715)
(1355.663697 389.1921235 4.815731428)
(1349.879441 391.6995438 -0.9776368284)
(1342.369183 397.2444594 -2.004344138)
(1320.426572 411.1805681 4.05910523)
(1308.185129 418.9079114 6.59684815)
(1299.657393 417.8052733 13.29481026)
(1290.188691 415.038401 14.6144767)
(1286.048429 412.2400535 5.176001332)
(1270.96684 405.6206718 -0.2800806023)
(1261.866429 403.4108247 -1.230993799)
(1250.409203 401.6905919 0.166629)
(1245.931602 401.9146301 -7.158193588)
(1233.248782 384.7883496 -5.478226807)
(1224.191576 380.8918297 -3.386241426)
(1217.731994 381.1536217 -1.730881387)
(1211.035341 370.7635219 4.371375675)
(1223.022934 358.7898487 7.060999884)
(1214.609354 346.784451 3.610738619)
(1224.459956 340.5119654 -1.81020633)
(1616.136629 108.9817438 -3.783946331)
(1601.886432 129.0146527 -1.647802023)
(1573.011162 153.3598241 -5.508358375)
(1549.245635 174.073997 -0.8067727773)
(1526.776068 205.3361291 0.3535203677)
(1500.317273 239.4067231 -1.652507265)
(1487.633917 270.1754416 0.751958293)
(1473.361849 294.9005897 -5.527486774)
(1447.504296 312.3884817 -7.257544787)
(1429.832222 328.8626942 -8.270714769)
(1400.78336 348.4895869 -0.6246460564)
(1391.325938 373.3198476 -6.672831205)
(1381.328172 375.4789097 1.600071959)
(1371.242624 386.0251813 2.535109626)
(1357.968133 395.9217296 -3.296706021)
(1346.996562 415.8076249 6.755534068)
(1329.074867 416.2850625 7.828401851)
(1327.51843 415.9860976 4.048284938)
(1306.328763 405.8318694 5.13977144)
(1307.748775 410.2763426 5.195911932)
(1302.882867 415.9095124 4.753871908)
(1287.386362 415.8231 -0.2123162306)
(1278.513122 409.5083948 5.232490059)
(1271.100664 411.2496481 8.048295292)
(1270.684651 401.555678 9.085633592)
(1261.798996 390.3019752 2.966649324)
(1245.965576 385.9226764 0.5255602862)
(1252.159469 376.0967686 -0.443149685)
(1247.072603 368.824014 1.140081833)
(1255.655673 350.7815455 2.418813382)
(1639.724947 91.74204669 -5.617859523)
(1621.293277 103.0073023 -5.378821249)
(1604.746068 120.1046706 -2.212943723)
(1592.88766 147.4258608 0.9819398834)
(1583.832196 167.3325347 5.924361198)
(1552.48756 195.5038378 7.155268194)
(1529.116917 221.251381 4.205753767)
(1513.106997 246.6109542 9.731893407)
(1487.678232 275.4400063 6.423037269)
(1466.30018 296.7593074 2.341222737)
(1453.810344 316.9675784 -6.185779168)
(1432.246783 330.9820142 0.2344556497)
(1419.878559 359.3468561 -5.836898475)
(1393.847471 376.0883345 -0.1010390681)
(1390.509778 385.5383509 -1.298985102)
(1373.792285 391.0412497 -6.636541597)
(1368.463208 402.0394368 -2.131754622)
(1355.462645 412.5373091 -1.926749937)
(1352.328132 423.7578541 4.023162437)
(1334.220708 419.2131929 1.063570637)
(1321.937262 417.7582898 -6.833464617)
(1320.78016 425.7543398 2.755605525)
(1307.829326 425.1919484 0.6368792051)
(1310.274101 429.6065077 -1.814168561)
(1296.875872 411.5407886 -0.4916487076)
(1293.875269 402.0542338 3.483243769)
(1280.389781 389.6113282 2.573763353)
(1275.679654 390.7498783 -0.1640003203)
(1277.780497 379.1401852 -3.761809985)
(1274.230518 365.6592761 0.6433953901)
(1663.416766 67.14925231 4.708059926)
(1659.899301 78.59154755 5.311538893)
(1649.136505 99.01940337 1.910284575)
(1632.874792 112.4057189 4.478178153)
(1615.342857 131.9033124 -0.8856217584)
(1597.458725 158.0142396 6.51597119)
(1575.922114 181.1502818 7.358924318)
(1555.063605 203.9520363 8.278226585)
(1536.795591 228.5902494 3.53464872)
(1521.016162 255.5610846 6.596382261)
(1493.220756 287.9423621 4.164239791)
(1473.976732 309.7435245 1.578448533)
(1451.147649 328.7253328 -2.589074263)
(1439.336071 350.6420647 -2.664172123)
(1419.584738 359.8056851 1.873089166)
(1410.024687 380.2566778 4.466115616)
(1389.641142 399.207197 5.529831442)
(1387.724379 403.9634961 6.048577802)
(1365.228678 413.1369106 4.454803021)
(1357.642682 419.6516936 3.236978865)
(1357.533746 417.887537 4.253562302)
(1335.49668 426.6627307 -2.045861159)
(1331.179872 426.4066399 7.76322664)
(1325.845989 425.3000717 1.10064433)
(1325.024126 417.9341458 1.745303818)
(1319.295533 411.5034946 -5.861072133)
(1311.947968 404.8672705 -4.245451779)
(1313.085106 403.9589685 -10.35114302)
(1310.50697 398.6391333 -1.301543484)
(1316.394397 390.7647734 -2.214866118)
(1684.658016 51.70785009 1.722882783)
(1679.778738 64.67756858 -0.3093894657)
(1671.364689 76.98615564 -2.20217688)
(1654.765991 94.63024476 -0.9440674522)
(1648.583976 105.3052028 2.556631314)
(1624.324783 126.0905936 1.44443215)
(1612.251588 141.9217754 0.6832473672)
(1597.370344 167.7238141 -2.928122984)
(1568.63372 200.0928384 3.176931363)
(1551.622518 216.8940675 2.080271636)
(1529.594877 245.4094006 -2.91379434)
(1512.059551 272.6166952 2.68660457)
(1496.887582 289.5687141 3.60356728)
(1485.777504 310.505836 -6.986376009)
(1456.548588 341.4078847 -8.514944059)
(1442.786746 353.6069683 -5.023393859)
(1427.274343 368.0872518 -8.351035205)
(1417.165201 387.1381505 -3.690177861)
(1401.55346 405.36752 -5.407673716)
(1389.010795 410.303025 -3.915742618)
(1384.098946 410.0005483 1.819138842)
(1377.800969 415.2403442 -0.3660294154)
(1362.247965 424.7601341 -1.057828252)
(1345.50124 428.4227467 -1.174047444)
(1345.396485 428.6787864 2.260472995)
(1351.192702 423.0182741 1.596813834)
(1345.905337 415.4940941 -1.684023842)
(1340.214865 416.3661807 -0.4886455567)
(1339.163406 405.4642282 -3.573939249)
(1701.0808 35.18565451 5.964687682)
(1689.921882 52.19440541 7.293747982)
(1683.68448 56.59781883 4.967516562)
(1672.620685 68.87538124 4.017979472)
(1670.678466 80.67502368 3.062912755)
(1652.648123 95.94573584 0.8032778047)
(1633.9243 117.5834924 1.606723015)
(1616.432157 130.780236 5.058415224)
(1597.887639 155.6663983 4.084854996)
(1582.069584 175.3163684 -8.270527152)
(1575.78866 200.3586058 -7.400671)
(1554.967355 226.3751928 -8.014764469)
(1535.851352 257.1715708 2.161542691)
(1518.44453 276.9559063 3.823569032)
(1495.586955 305.8338466 -4.52616293)
(1481.465765 328.5528142 -4.830021991)
(1466.875345 355.350536 -6.837645228)
(1446.420274 371.1322317 -0.124496118)
(1429.972601 382.1351073 -4.459395592)
(1418.103147 388.7207492 1.221206411)
(1405.409695 399.8033061 3.571157961)
(1392.8609 400.115506 -1.190812569)
(1385.508211 409.9715022 -2.878778529)
(1374.189385 423.7610322 -4.807961903)
(1707.879859 26.75648452 7.818368522)
(1704.457371 29.22209692 5.871405941)
(1689.558954 42.54626673 1.709789138)
(1681.407812 50.70547849 -3.201778423)
(1682.370426 59.54148312 -0.6783087561)
(1672.979344 77.752816 0.4132129365)
(1662.828429 90.01647564 -6.732870978)
(1646.797674 97.9066621 -6.69963331)
(1642.121437 113.4348292 -0.1573122594)
(1622.874606 145.1588287 1.814011486)
(1602.276469 168.325154 -3.952627211)
(1580.099346 195.5524397 -6.685994072)
(1571.840854 216.1995889 -7.95333684)
(1545.34345 247.0422751 -5.907377075)
(1522.829096 270.7798311 -0.9425578532)
(1502.279827 294.5165056 -2.564336275)
(1489.696417 311.8505663 -9.154429854)
(1482.538287 323.4718489 -10.75914257)
(1452.660831 353.6136206 -2.584095173)
(1723.104995 19.38567181 -1.984902033)
(1714.508015 25.88886874 -4.93436388)
(1710.162065 34.54400018 -2.109204649)
(1701.917211 47.24226874 -1.072816383)
(1698.55081 54.18107561 2.021424064)
(1690.488749 52.51687548 0.2819981431)
(1679.800251 68.84116459 0.3425043732)
(1665.080532 88.74668987 -1.062915621)
(1652.114232 105.364891 -3.614578092)
(1639.511354 121.9238559 -4.0302955)
(1619.642003 132.2748654 -6.926045927)
(1606.08546 155.0481924 -10.13227922)
(1592.196056 174.2129327 -5.915794383)
(1574.76217 198.03364 -3.388144772)
(1723.966806 21.79719254 -0.9260946367)
(1718.544358 23.81635351 -2.692473059)
(1712.59749 27.5765138 -2.057132735)
(1707.974522 29.79655039 -7.55922762)
(1689.483851 44.74876282 -6.045554888)
(1685.231591 52.86372117 -9.773572097)
(1683.223594 61.29689232 -13.37790757)
(1677.825195 71.54980516 -12.10712422)
(1718.523758 14.22315368 -6.355948275)
(1718.458468 19.24848449 -6.00673965)
)
;

boundaryField
{
    flow
    {
        type            calculated;
        value           nonuniform List<vector> 
15
(
(421.1658727 77.61328231 -1.642493904)
(614.5613174 97.89645956 -7.724106381)
(733.8091074 112.7293691 1.961450695)
(810.5265971 136.5490075 -3.749302477)
(891.5317746 166.989326 -3.51659477)
(955.1844938 194.8502284 2.551099774)
(1017.494109 219.0127216 -4.153896773)
(1060.220961 253.9851704 -3.056018428)
(1101.021044 274.1361826 -3.597271232)
(1147.998492 310.0422299 3.72159289)
(1183.807972 320.8541365 0.4530117424)
(1224.459956 340.5119654 -1.81020633)
(1255.655673 350.7815455 2.418813382)
(1274.230518 365.6592761 0.6433953901)
(1316.394397 390.7647734 -2.214866118)
)
;
    }
    obstacle
    {
        type            calculated;
        value           nonuniform List<vector> 
30
(
(216.1118766 57.90700291 -11.70018152)
(189.0324424 50.65109038 -4.969701278)
(200.5075213 53.72582824 28.10348567)
(169.0373306 45.29341629 34.77769353)
(175.3188945 46.97655604 -0.306980857)
(156.1416637 41.83803278 8.561695709)
(159.9614974 42.86155414 7.010934004)
(147.859345 39.61879197 -12.61585829)
(172.2917159 46.16542622 6.678386985)
(154.8082927 41.48075707 22.19987091)
(162.1901488 43.45871926 5.259598041)
(141.8784354 38.01621227 9.240232044)
(135.6949969 36.35936491 11.64446668)
(134.8534605 36.13387572 -3.994661968)
(144.2907051 38.66257798 -12.99771968)
(135.7752435 36.38086674 7.135971254)
(152.3967827 40.83459494 12.53579883)
(135.5937059 36.33222406 25.4205071)
(138.6584056 37.15340769 -1.021066102)
(158.9030209 42.5779362 -6.321893989)
(117.1656514 31.39444173 5.231752793)
(141.6089348 37.9439996 0.3956487612)
(139.6351365 37.41512213 4.222444837)
(146.4210737 39.23340853 43.0989604)
(138.204784 37.03186015 3.410145655)
(142.5236168 38.18908809 -6.708100213)
(169.9219724 45.53045513 -0.7037480846)
(154.8584677 41.49420142 -10.05864012)
(185.9580016 49.82729645 -20.25426791)
(203.9580307 54.65038944 5.930095131)
)
;
    }
    frontAndBack
    {
        type            empty;
    }
    procBoundary1to0
    {
        type            processor;
        value           nonuniform List<vector> 
21
(
(376.6448673 109.0590412 5.224752635)
(672.1586581 198.6222843 9.845738825)
(868.3973905 275.4490848 11.1980541)
(1028.863462 317.3327176 3.285121377)
(1149.019499 340.0202853 10.91579628)
(1214.429417 347.8361094 3.398501054)
(1301.923958 323.9115535 -1.248934858)
(1377.245654 281.5162424 -4.916109239)
(1453.220902 252.5603015 -0.6345750351)
(1507.399636 203.280975 -5.319288805)
(1569.122563 147.158874 3.550957316)
(1593.8029 121.7247601 4.65341593)
(1637.97356 89.97837436 3.795653637)
(1655.570291 76.46590881 -6.146882352)
(1680.882772 60.19566865 3.256739255)
(1692.977978 33.01302471 0.6236548335)
(1708.030416 27.1459835 -0.8081641124)
(1711.440227 17.95723392 6.110430924)
(1724.206912 14.90840914 2.127173529)
(1725.766512 20.0845272 3.183734035)
(1721.653416 13.61293008 -6.983631863)
)
;
    }
    procBoundary1to3
    {
        type            processor;
        value           nonuniform List<vector> 
36
(
(1333.557721 397.6570391 -5.975613184)
(1365.65629 425.4991222 -9.635316358)
(1360.969541 423.466521 -2.925945606)
(1364.491667 422.8017352 2.345891396)
(1362.601197 413.4901886 2.308808425)
(1333.557721 397.6570391 -5.975613184)
(1364.362956 412.9322714 0.5381076643)
(1440.57082 368.5439747 -4.054129096)
(1429.426246 384.3424011 -2.537609728)
(1429.380635 394.055427 -0.1399870893)
(1414.334834 396.249771 2.27139406)
(1365.65629 425.4991222 -9.635316358)
(1398.146443 403.7211605 2.061265394)
(1557.985622 225.7984369 -1.420161274)
(1545.707982 246.6811782 -3.241861253)
(1523.15876 275.856157 0.2630859444)
(1515.859119 292.4591066 -0.6121629129)
(1440.57082 368.5439747 -4.054129096)
(1502.731805 306.3398993 -1.245063812)
(1664.448543 75.79457013 -7.50441763)
(1659.12742 95.23508257 -8.693114288)
(1648.904625 110.1897293 -3.444458647)
(1633.216871 126.700066 -0.7718083694)
(1623.922071 142.7053919 2.552796483)
(1557.985622 225.7984369 -1.420161274)
(1616.720894 160.0827252 -3.560357034)
(1712.268836 25.82177605 -6.376435497)
(1706.381077 24.52968246 -3.642578083)
(1699.878442 31.51626667 -3.845573471)
(1693.559264 40.09364867 0.2690862672)
(1689.76857 49.44686661 2.818419009)
(1664.448543 75.79457013 -7.50441763)
(1685.764982 53.53770669 1.219395859)
(1723.010648 10.23117071 -2.47270611)
(1712.268836 25.82177605 -6.376435497)
(1721.193423 11.97546051 -2.292623641)
)
;
    }
}


// ************************************************************************* //
