/*--------------------------------*- C++ -*----------------------------------*\
  =========                 |
  \\      /  F ield         | OpenFOAM: The Open Source CFD Toolbox
   \\    /   O peration     | Website:  https://openfoam.org
    \\  /    A nd           | Version:  7
     \\/     M anipulation  |
\*---------------------------------------------------------------------------*/
FoamFile
{
    version     2.0;
    format      ascii;
    class       volScalarField;
    location    "0.25";
    object      epsilon;
}
// * * * * * * * * * * * * * * * * * * * * * * * * * * * * * * * * * * * * * //

dimensions      [0 2 -3 0 0 0 0];

internalField   nonuniform List<scalar> 
1935
(
0.55367
0.441825
0.36099
0.301848
0.257832
0.224444
0.198635
0.178327
0.162085
0.148901
0.13805
0.128999
0.121356
0.114824
0.109182
0.10426
0.099934
0.0961083
0.092712
0.0896912
0.0870043
0.0846181
0.0825047
0.0806399
0.0790016
0.0775689
0.0763224
0.0752432
0.0743138
0.0735183
0.0728421
0.0722733
0.0718019
0.071421
0.0711263
0.0709163
0.0707918
0.070754
0.070801
0.0709219
0.0710881
0.0712473
0.0713327
0.589529
0.622631
0.648166
0.658899
0.457422
0.470228
0.477742
0.476761
0.365489
0.367856
0.366777
0.360867
0.300466
0.297675
0.292747
0.285096
0.253467
0.248282
0.241831
0.233878
0.218688
0.212539
0.205691
0.198056
0.192354
0.185975
0.179263
0.17219
0.171989
0.165752
0.159414
0.152974
0.155939
0.150022
0.144154
0.138339
0.143073
0.137554
0.132179
0.12695
0.132598
0.127503
0.122608
0.117915
0.123947
0.119273
0.114833
0.110623
0.116705
0.112439
0.108421
0.104646
0.110567
0.106688
0.10306
0.0996762
0.105304
0.10179
0.0985228
0.0954914
0.100746
0.0975757
0.0946398
0.0919275
0.0967663
0.0939165
0.091286
0.0888632
0.0932673
0.0907168
0.0883673
0.0862075
0.0901775
0.0879046
0.085813
0.083892
0.0874418
0.0854249
0.083569
0.0818645
0.0850178
0.0832351
0.0815935
0.0800844
0.0828713
0.0813013
0.0798531
0.0785195
0.0809744
0.0795955
0.0783205
0.0771435
0.0793027
0.078094
0.0769728
0.0759344
0.0778347
0.076776
0.0757901
0.0748737
0.0765507
0.0756227
0.0747549
0.0739449
0.0754322
0.0746171
0.0738514
0.0731334
0.0744621
0.0737435
0.073065
0.072426
0.0736246
0.0729873
0.0723828
0.071811
0.0729051
0.0723355
0.0717928
0.0712773
0.0722906
0.071776
0.0712841
0.0708152
0.0717697
0.0712985
0.0708469
0.0704156
0.071333
0.0708939
0.0704727
0.0700702
0.070973
0.0705544
0.0701536
0.0697717
0.0706844
0.0702738
0.0698831
0.0695129
0.0704635
0.0700472
0.0696553
0.0692877
0.0703082
0.0698705
0.0694649
0.0690903
0.0702165
0.0697399
0.0693073
0.0689158
0.0701841
0.0696505
0.0691779
0.0687601
0.0702012
0.0695947
0.0690715
0.0686207
0.0702479
0.0695605
0.0689827
0.068497
0.0702929
0.0695324
0.0689074
0.0683924
0.0703064
0.0695027
0.0688512
0.0683205
0.648595
0.610852
0.553549
0.488169
0.421995
0.359639
0.303894
0.256107
0.21647
0.184391
0.158877
0.138822
0.123178
0.111031
0.101622
0.0943422
0.0887111
0.084357
0.0809968
0.0784178
0.0764627
0.0750177
0.0740021
0.0733613
0.0730607
0.0730817
0.0734188
0.0740778
0.0750752
0.0764385
0.0782088
0.080446
0.0832403
0.0867364
0.0911894
0.0971019
0.10562
0.119969
0.153301
0.323263
0.464424
0.437763
0.400779
0.358956
0.316511
0.276083
0.239385
0.207315
0.180115
0.157573
0.139209
0.124437
0.112659
0.103327
0.0959617
0.0901633
0.0856065
0.0820328
0.0792412
0.0770785
0.0754302
0.0742131
0.0733684
0.0728572
0.0726559
0.0727541
0.073152
0.0738595
0.0748961
0.0762915
0.0780882
0.0803468
0.0831579
0.0866658
0.0911242
0.0970328
0.105532
0.119833
0.153052
0.32261
0.348683
0.328853
0.303659
0.275649
0.247323
0.220169
0.195218
0.173063
0.153924
0.137747
0.124303
0.113275
0.104317
0.09709
0.0912892
0.0866495
0.0829495
0.0800099
0.0776886
0.0758762
0.0744905
0.0734717
0.0727782
0.0723834
0.0722729
0.0724425
0.0728975
0.0736512
0.0747255
0.076152
0.0779744
0.0802541
0.0830815
0.0866007
0.0910638
0.0969675
0.105446
0.119695
0.152788
0.321861
0.273882
0.258471
0.24031
0.220658
0.200874
0.181911
0.164361
0.148598
0.134789
0.122934
0.112921
0.104573
0.0976814
0.0920335
0.0874307
0.0836957
0.0806776
0.0782516
0.0763181
0.0747998
0.0736383
0.0727918
0.0722317
0.0719413
0.0719134
0.0721491
0.0726575
0.0734549
0.0745654
0.076022
0.0778694
0.0801695
0.0830129
0.0865428
0.0910099
0.0969075
0.105363
0.119557
0.152513
0.32102
0.223851
0.211465
0.197725
0.183303
0.168891
0.155128
0.142366
0.130826
0.120615
0.111747
0.10416
0.0977482
0.0923811
0.0879215
0.0842375
0.0812094
0.0787336
0.0767236
0.0751098
0.0738381
0.0728679
0.0721708
0.0717285
0.0715316
0.0715788
0.0718754
0.0724337
0.0732724
0.0744175
0.075903
0.0777746
0.0800946
0.0829533
0.0864935
0.0909637
0.096854
0.105284
0.119419
0.152226
0.320091
0.189196
0.178992
0.168193
0.157172
0.146313
0.13596
0.126385
0.117703
0.109975
0.103206
0.0973564
0.0923573
0.088123
0.0845621
0.0815853
0.0791108
0.0770672
0.0753947
0.0740447
0.0729801
0.0721734
0.0716061
0.0712676
0.0711546
0.0712699
0.0716226
0.0722275
0.0731053
0.0742832
0.0757966
0.0776916
0.0800307
0.0829042
0.0864538
0.0909263
0.0968082
0.105212
0.119283
0.15193
0.319084
0.164393
0.155834
0.147099
0.138401
0.129957
0.121959
0.114561
0.107862
0.101881
0.0966112
0.0920219
0.0880641
0.0846783
0.0818014
0.0793718
0.077333
0.0756353
0.0742374
0.073106
0.0722158
0.0715489
0.0710945
0.0708478
0.0708099
0.0709873
0.0713917
0.0720401
0.0729546
0.0741639
0.0757039
0.0776213
0.0799788
0.0828664
0.0864246
0.0908986
0.0967706
0.105145
0.11915
0.151627
0.318007
0.146115
0.138841
0.131621
0.124579
0.117839
0.111508
0.105666
0.100369
0.0956398
0.0914582
0.0877955
0.0846138
0.0818694
0.0795174
0.0775143
0.0758204
0.0744012
0.0732281
0.0722785
0.0715357
0.0709891
0.0706331
0.0704676
0.0704972
0.070731
0.0711831
0.0718719
0.0728211
0.0740601
0.0756256
0.0775646
0.0799397
0.0828405
0.0864067
0.0908811
0.0967421
0.105086
0.119021
0.151319
0.316869
0.132299
0.126052
0.119986
0.11417
0.108673
0.103552
0.0988469
0.0945814
0.0907629
0.0873826
0.0844102
0.0818137
0.0795594
0.0776141
0.0759463
0.0745279
0.0733345
0.0723465
0.071549
0.0709316
0.0704886
0.0702188
0.0701254
0.0702156
0.0705009
0.0709969
0.0717234
0.0727052
0.0739724
0.0755622
0.0775217
0.0799137
0.082827
0.0864002
0.0908742
0.0967231
0.105035
0.118897
0.151007
0.315679
0.121618
0.11621
0.111047
0.106167
0.101604
0.097385
0.0935262
0.0900335
0.0869025
0.0841198
0.0816684
0.0795187
0.0776433
0.0760165
0.0746151
0.0734186
0.0724099
0.0715756
0.0709061
0.0703957
0.0700425
0.0698484
0.0698191
0.069964
0.0702963
0.0708328
0.0715945
0.072607
0.0739009
0.0755137
0.0774929
0.0799008
0.0828259
0.0864054
0.0908781
0.0967138
0.104992
0.118778
0.150694
0.314439
0.113197
0.108483
0.104044
0.0998962
0.0960531
0.0925227
0.0893071
0.086402
0.0837971
0.0814773
0.079424
0.0776196
0.0760407
0.0746664
0.0734788
0.0724629
0.0716065
0.0709007
0.0703397
0.0699213
0.0696462
0.0695188
0.0695468
0.0697412
0.0701163
0.0706903
0.0714849
0.0725261
0.0738453
0.0754801
0.077478
0.079901
0.082837
0.0864222
0.0908927
0.0967144
0.104957
0.118665
0.15038
0.313151
0.106439
0.102307
0.0984582
0.0948954
0.0916192
0.0886262
0.0859099
0.0834601
0.0812636
0.0793052
0.0775681
0.0760348
0.0746904
0.0735184
0.0725044
0.0716368
0.0709071
0.0703096
0.0698412
0.0695022
0.0692955
0.0692272
0.0693064
0.0695456
0.06996
0.0705686
0.0713937
0.0724621
0.0738051
0.0754608
0.0774763
0.0799137
0.0828599
0.08645
0.0909179
0.0967249
0.104932
0.118561
0.150067
0.311822
0.100927
0.0972893
0.0939297
0.090843
0.0880217
0.0854561
0.0831347
0.0810444
0.0791708
0.0774989
0.0760137
0.0747004
0.0735456
0.0725372
0.0716653
0.0709208
0.0702975
0.0697918
0.069403
0.0691329
0.0689862
0.0689704
0.0690957
0.0693755
0.0698259
0.0704665
0.0713202
0.072414
0.0737795
0.0754549
0.0774872
0.0799381
0.0828938
0.0864882
0.0909529
0.096745
0.104917
0.118465
0.149761
0.310467
0.0963658
0.0931519
0.0902036
0.0875106
0.085061
0.0828415
0.0808381
0.0790365
0.0774224
0.0759814
0.0747001
0.0735659
0.0725675
0.0716951
0.0709408
0.0702991
0.0697656
0.0693384
0.0690182
0.0688084
0.0687146
0.0687456
0.0689124
0.0692291
0.0697126
0.0703828
0.0712632
0.0723808
0.0737675
0.0754615
0.0775096
0.0799731
0.0829377
0.0865358
0.0909968
0.0967738
0.10491
0.118378
0.149463
0.309106
0.0925422
0.0896953
0.0870971
0.0847345
0.0825932
0.0806584
0.0789154
0.0773497
0.0759473
0.0746952
0.0735814
0.0725949
0.0717263
0.0709679
0.0703134
0.0697587
0.0693014
0.0689416
0.0686811
0.068524
0.0684772
0.0685499
0.0687542
0.0691046
0.0696184
0.0703161
0.0712212
0.0723611
0.0737677
0.0754792
0.0775422
0.0800175
0.0829902
0.0865914
0.0910485
0.0968102
0.104911
0.118301
0.149175
0.307754
0.0892996
0.0867734
0.0844767
0.082395
0.0805133
0.0788164
0.0772897
0.0759194
0.0746925
0.073597
0.0726224
0.0717593
0.0709997
0.0703374
0.0697677
0.0692878
0.0688965
0.068595
0.0683862
0.0682756
0.0682704
0.0683806
0.0686188
0.0689998
0.0695415
0.0702646
0.0711927
0.0723535
0.0737788
0.0755066
0.0775835
0.0800699
0.0830499
0.0866537
0.0911064
0.0968527
0.104918
0.118231
0.1489
0.306422
0.0865224
0.0842789
0.0822443
0.0804042
0.0787437
0.0772481
0.0759036
0.0746973
0.0736176
0.0726536
0.0717961
0.071037
0.0703698
0.0697893
0.0692923
0.0688767
0.0685427
0.0682922
0.0681291
0.0680593
0.0680912
0.0682351
0.0685038
0.0689129
0.0694802
0.0702266
0.0711762
0.0723563
0.073799
0.0755422
0.077632
0.0801284
0.0831151
0.0867208
0.0911687
0.0968998
0.104931
0.118169
0.148636
0.305121
0.0841245
0.0821314
0.0803267
0.0786963
0.0772261
0.0759027
0.0747134
0.0736465
0.0726915
0.071839
0.0710809
0.0704104
0.0698221
0.0693119
0.0688774
0.0685177
0.0682336
0.0680279
0.067905
0.0678717
0.0679366
0.0681106
0.0684071
0.0688416
0.0694324
0.0702004
0.0711698
0.0723679
0.0738268
0.0755841
0.0776859
0.0801916
0.0831841
0.0867911
0.0912339
0.0969496
0.104948
0.118113
0.148385
0.303858
0.0820408
0.0802706
0.0786684
0.0772212
0.0759164
0.0747417
0.0736857
0.0727383
0.0718901
0.0711329
0.0704599
0.0698654
0.0693448
0.0688953
0.068515
0.0682039
0.0679636
0.0677974
0.0677102
0.0677093
0.0678038
0.068005
0.0683264
0.068784
0.0693962
0.0701841
0.0711717
0.0723865
0.0738604
0.0756308
0.0777435
0.0802575
0.0832551
0.0868628
0.0913001
0.0970007
0.104967
0.118062
0.148148
0.302641
0.0802216
0.07865
0.0772269
0.0759407
0.0747802
0.0737347
0.0727943
0.0719499
0.0711938
0.0705188
0.0699192
0.0693902
0.0689284
0.0685314
0.0681983
0.0679298
0.0677279
0.0675965
0.0675411
0.0675691
0.0676902
0.0679158
0.0682599
0.0687385
0.0693701
0.070176
0.0711802
0.0724103
0.0738978
0.0756803
0.077803
0.0803245
0.0833264
0.0869343
0.0913659
0.0970517
0.104987
0.118017
0.147933
0.301484
0.0786283
0.0772337
0.0759691
0.0748247
0.0737907
0.072858
0.0720181
0.0712634
0.070587
0.0699833
0.0694473
0.0689753
0.0685644
0.0682133
0.0679215
0.0676903
0.0675222
0.0674216
0.0673943
0.0674483
0.0675932
0.067841
0.0682055
0.0687032
0.0693525
0.0701748
0.0711942
0.0724381
0.073938
0.0757312
0.0778628
0.0803909
0.0833964
0.0870041
0.09143
0.097102
0.10501
0.117986
0.147766
0.300499
0.0772302
0.075993
0.0748688
0.0738493
0.0729264
0.0720925
0.0713404
0.0706638
0.0700571
0.0695154
0.0690349
0.0686124
0.0682461
0.067935
0.0676794
0.067481
0.0673428
0.0672694
0.0672672
0.0673442
0.0675105
0.0677782
0.0681612
0.0686761
0.0693416
0.0701788
0.0712119
0.0724683
0.0739795
0.0757823
0.0779218
0.0804555
0.0834639
0.0870708
0.091491
0.0971501
0.105033
0.117961
0.147625
0.299654
0.0760026
0.0749048
0.0739045
0.0729951
0.07217
0.0714227
0.0707475
0.0701393
0.0695934
0.069106
0.0686739
0.0682948
0.0679675
0.0676915
0.0674677
0.0672981
0.0671862
0.067137
0.067157
0.0672546
0.06744
0.0677254
0.0681251
0.0686555
0.0693355
0.0701862
0.0712318
0.0724995
0.0740206
0.075832
0.0779783
0.0805168
0.0835273
0.0871329
0.0915472
0.0971937
0.105054
0.117938
0.147494
0.298881
0.0749247
0.07395
0.0730589
0.0722463
0.071507
0.0708357
0.070228
0.0696797
0.0691871
0.0687472
0.0683575
0.0680165
0.0677234
0.0674783
0.0672824
0.0671383
0.0670496
0.0670217
0.0670613
0.0671772
0.0673796
0.0676809
0.0680954
0.0686398
0.0693327
0.0701955
0.0712521
0.0725299
0.0740599
0.0758788
0.0780309
0.0805732
0.0835852
0.087189
0.0915971
0.0972314
0.105069
0.117912
0.147368
0.298158
0.0739792
0.0731124
0.0723172
0.0715896
0.0709254
0.0703209
0.0697723
0.0692765
0.0688307
0.0684325
0.0680801
0.0677725
0.0675095
0.0672915
0.0671202
0.0669984
0.0669302
0.0669211
0.0669782
0.0671101
0.0673276
0.0676429
0.0680706
0.0686273
0.0693318
0.0702052
0.0712717
0.0725582
0.074096
0.0759213
0.0780783
0.0806237
0.0836363
0.0872378
0.0916397
0.097262
0.105079
0.117883
0.147244
0.297482
0.0731509
0.0723784
0.071667
0.0710136
0.0704153
0.0698691
0.0693724
0.0689227
0.0685178
0.0681562
0.0678366
0.0675584
0.0673218
0.0671276
0.066978
0.0668759
0.0668257
0.0668332
0.0669055
0.0670517
0.0672824
0.0676101
0.0680494
0.0686169
0.0693315
0.0702143
0.0712892
0.0725834
0.0741278
0.0759585
0.0781194
0.080667
0.0836797
0.0872786
0.0916741
0.0972849
0.105082
0.11785
0.147124
0.296855
0.0724266
0.0717358
0.0710972
0.0705085
0.0699676
0.0694725
0.0690211
0.0686118
0.068243
0.0679135
0.0676227
0.0673703
0.0671569
0.0669838
0.0668532
0.0667684
0.0667341
0.066756
0.0668418
0.0670004
0.0672426
0.0675812
0.0680306
0.0686075
0.0693308
0.0702216
0.0713039
0.0726045
0.0741544
0.0759895
0.0781535
0.0807026
0.0837148
0.0873106
0.0916999
0.0972998
0.105079
0.117814
0.147009
0.296281
0.0717942
0.071174
0.0705983
0.0700657
0.0695747
0.0691241
0.0687124
0.0683385
0.0680012
0.0677
0.0674345
0.0672049
0.067012
0.0668573
0.0667434
0.0666738
0.0666533
0.066688
0.0667854
0.0669548
0.0672071
0.067555
0.0680131
0.0685981
0.0693288
0.0702265
0.0713148
0.0726208
0.0741751
0.0760137
0.0781799
0.0807298
0.083741
0.0873337
0.0917168
0.0973064
0.105069
0.117774
0.146899
0.295764
0.071243
0.0706832
0.0701616
0.0696774
0.0692298
0.0688179
0.0684408
0.0680978
0.0677883
0.0675119
0.0672687
0.067059
0.0668841
0.0667456
0.0666464
0.0665901
0.0665818
0.0666275
0.0667351
0.0669139
0.0671748
0.0675307
0.0679962
0.068588
0.0693249
0.0702282
0.0713216
0.0726318
0.0741896
0.0760307
0.0781984
0.0807484
0.0837582
0.0873474
0.0917246
0.0973049
0.105052
0.117732
0.146795
0.295305
0.0707633
0.0702548
0.0697794
0.0693368
0.0689265
0.0685482
0.0682012
0.0678853
0.0676001
0.0673456
0.0671219
0.0669299
0.0667709
0.0666467
0.0665604
0.0665158
0.066518
0.0665733
0.0666897
0.0668765
0.0671448
0.0675074
0.0679791
0.0685765
0.0693186
0.0702264
0.0713237
0.0726372
0.0741975
0.0760402
0.0782086
0.0807582
0.0837662
0.0873519
0.0917235
0.0972953
0.10503
0.117688
0.146699
0.294908
0.0703461
0.0698806
0.0694443
0.0690371
0.068659
0.0683097
0.0679891
0.0676969
0.067433
0.0671978
0.0669914
0.066815
0.06667
0.0665584
0.0664834
0.0664491
0.0664605
0.0665242
0.0666482
0.0668418
0.0671163
0.0674845
0.0679613
0.0685633
0.0693093
0.0702206
0.0713208
0.0726367
0.0741986
0.0760423
0.0782107
0.0807593
0.0837651
0.0873474
0.0917137
0.097278
0.105002
0.117642
0.146612
0.294575
0.0699831
0.0695531
0.0691495
0.0687724
0.0684218
0.0680976
0.0677999
0.0675284
0.0672835
0.0670652
0.0668743
0.0667118
0.0665792
0.0664788
0.0664139
0.0663885
0.066408
0.066479
0.0666094
0.0668089
0.0670885
0.0674614
0.0679422
0.0685478
0.0692969
0.0702108
0.071313
0.0726303
0.0741931
0.0760369
0.0782047
0.0807519
0.0837553
0.087334
0.0916956
0.0972534
0.104968
0.117595
0.146533
0.294306
0.0696665
0.0692651
0.0688884
0.0685365
0.0682093
0.0679069
0.0676291
0.0673761
0.0671479
0.0669449
0.0667678
0.0666177
0.0664963
0.066406
0.06635
0.0663327
0.0663593
0.0664366
0.0665726
0.0667769
0.0670609
0.0674375
0.0679215
0.0685298
0.0692811
0.0701967
0.0713002
0.0726181
0.074181
0.0760243
0.078191
0.0807363
0.0837371
0.0873124
0.0916697
0.0972222
0.10493
0.117548
0.146465
0.294103
0.0693892
0.0690099
0.0686547
0.0683235
0.0680162
0.0677326
0.0674724
0.0672358
0.0670227
0.0668335
0.066669
0.0665303
0.0664191
0.066338
0.0662902
0.06628
0.066313
0.0663958
0.0665367
0.0667452
0.0670328
0.0674124
0.0678989
0.0685091
0.0692619
0.0701785
0.0712824
0.0726003
0.0741627
0.0760049
0.07817
0.0807131
0.0837112
0.0872832
0.0916366
0.097185
0.104889
0.117501
0.146407
0.293964
0.0691442
0.0687806
0.0684419
0.0681276
0.0678371
0.0675699
0.0673254
0.0671036
0.0669044
0.066728
0.0665752
0.0664471
0.0663454
0.0662728
0.0662326
0.0662291
0.0662679
0.0663557
0.0665009
0.0667131
0.0670036
0.0673856
0.067874
0.0684855
0.0692392
0.0701561
0.0712599
0.0725773
0.0741385
0.0759792
0.0781423
0.0806829
0.0836781
0.087247
0.0915972
0.0971425
0.104844
0.117455
0.146361
0.293888
0.068925
0.068571
0.0682442
0.0679433
0.067667
0.0674141
0.0671839
0.0669758
0.0667896
0.0666253
0.0664837
0.0663657
0.0662732
0.0662088
0.0661758
0.0661786
0.0662228
0.0663153
0.0664644
0.0666798
0.0669729
0.0673569
0.0678467
0.0684591
0.0692131
0.0701299
0.0712331
0.0725493
0.0741091
0.0759478
0.0781085
0.0806465
0.0836388
0.0872048
0.0915524
0.0970958
0.104797
0.117411
0.146325
0.29387
0.0687259
0.0683755
0.0680562
0.0677656
0.0675013
0.0672614
0.0670444
0.0668493
0.0666755
0.0665231
0.0663923
0.0662843
0.0662008
0.0661444
0.0661184
0.0661274
0.0661769
0.0662739
0.0664266
0.066645
0.0669404
0.0673261
0.0678169
0.0684299
0.0691839
0.0701002
0.0712024
0.0725172
0.0740751
0.0759116
0.0780697
0.0806049
0.0835944
0.0871577
0.0915032
0.0970459
0.104749
0.11737
0.146302
0.293901
0.068542
0.0681895
0.067874
0.0675911
0.0673371
0.067109
0.0669046
0.0667221
0.0665606
0.0664197
0.0662998
0.0662017
0.0661272
0.0660787
0.0660598
0.0660749
0.0661296
0.066231
0.0663873
0.0666086
0.0669062
0.0672933
0.0677851
0.0683984
0.0691522
0.0700677
0.0711687
0.0724819
0.0740377
0.0758718
0.0780272
0.0805596
0.0835463
0.0871072
0.0914512
0.0969942
0.104701
0.117332
0.146288
0.293966
0.0683702
0.0680109
0.067696
0.0674189
0.067174
0.066957
0.0667646
0.0665944
0.0664451
0.0663157
0.0662066
0.0661184
0.0660528
0.0660123
0.0660003
0.0660215
0.0660814
0.0661871
0.066347
0.0665711
0.0668708
0.0672594
0.067752
0.0683655
0.069119
0.0700337
0.0711334
0.0724448
0.0739984
0.07583
0.0779828
0.0805123
0.0834964
0.0870552
0.0913982
0.0969423
0.104654
0.117299
0.146285
0.294042
0.0682098
0.0678407
0.0675246
0.067252
0.0670154
0.0668088
0.0666279
0.0664697
0.066332
0.0662139
0.0661152
0.0660366
0.0659797
0.0659469
0.0659418
0.0659689
0.0660339
0.0661438
0.0663072
0.0665339
0.0668357
0.0672257
0.067719
0.0683328
0.069086
0.0699998
0.0710982
0.0724079
0.0739595
0.0757887
0.0779388
0.0804657
0.0834473
0.0870043
0.0913468
0.0968928
0.104611
0.11727
0.146288
0.294087
0.0680643
0.0676848
0.0673669
0.0670983
0.0668692
0.0666723
0.0665022
0.0663549
0.066228
0.0661202
0.0660312
0.0659614
0.0659125
0.0658868
0.065888
0.0659205
0.0659901
0.0661039
0.0662705
0.0664998
0.0668034
0.0671947
0.0676888
0.0683028
0.0690557
0.0699688
0.071066
0.0723742
0.0739239
0.0757509
0.0778987
0.0804233
0.0834028
0.0869583
0.0913007
0.0968493
0.104575
0.11725
0.146297
0.294031
0.067942
0.0675546
0.067236
0.0669713
0.0667489
0.0665602
0.066399
0.0662609
0.0661429
0.0660436
0.0659625
0.0658999
0.0658575
0.0658377
0.065844
0.0658809
0.0659544
0.0660714
0.0662406
0.0664719
0.0667771
0.0671695
0.0676643
0.0682785
0.0690312
0.0699439
0.0710402
0.0723472
0.0738954
0.0757208
0.0778668
0.0803895
0.0833675
0.0869221
0.0912651
0.0968173
0.104552
0.117248
0.146331
0.293782
0.0678612
0.0674705
0.0671525
0.0668907
0.0666728
0.0664894
0.0663339
0.0662014
0.066089
0.0659949
0.0659186
0.0658606
0.0658222
0.065806
0.0658155
0.0658553
0.0659311
0.0660502
0.0662211
0.0664538
0.0667601
0.0671532
0.0676485
0.0682629
0.0690157
0.0699281
0.071024
0.0723303
0.0738777
0.075702
0.0778469
0.0803686
0.0833456
0.0868998
0.0912433
0.0967982
0.10454
0.117252
0.146348
0.293038
)
;

boundaryField
{
    leftWall
    {
        type            epsilonWallFunction;
        value           nonuniform 0();
    }
    rightWall
    {
        type            epsilonWallFunction;
        value           nonuniform List<scalar> 
43
(
0.323263
0.32261
0.321861
0.32102
0.320091
0.319084
0.318007
0.316869
0.315679
0.314439
0.313151
0.311822
0.310467
0.309106
0.307754
0.306422
0.305121
0.303858
0.302641
0.301484
0.300499
0.299654
0.298881
0.298158
0.297482
0.296855
0.296281
0.295764
0.295305
0.294908
0.294575
0.294306
0.294103
0.293964
0.293888
0.29387
0.293901
0.293966
0.294042
0.294087
0.294031
0.293782
0.293038
)
;
    }
    lowerWall
    {
        type            epsilonWallFunction;
        value           nonuniform 0();
    }
    atmosphere
    {
        type            inletOutlet;
        inletValue      uniform 0.1;
        value           nonuniform List<scalar> 
45
(
0.0713327
0.0703064
0.0695027
0.0688512
0.0683205
0.0678612
0.0674705
0.0671525
0.0668907
0.0666728
0.0664894
0.0663339
0.0662014
0.066089
0.0659949
0.0659186
0.0658606
0.0658222
0.065806
0.0658155
0.0658553
0.0659311
0.0660502
0.0662211
0.0664538
0.0667601
0.0671532
0.0676485
0.0682629
0.0690157
0.0699281
0.071024
0.0723303
0.0738777
0.075702
0.0778469
0.0803686
0.0833456
0.0868998
0.0912433
0.0967982
0.10454
0.117252
0.146348
0.293038
)
;
    }
    defaultFaces
    {
        type            empty;
    }
    procBoundary3to1
    {
        type            processor;
        value           nonuniform List<scalar> 
45
(
0.709036
0.78043
0.851328
0.912646
0.948623
0.945311
0.889153
0.796976
0.691567
0.585651
0.486909
0.399912
0.326805
0.267645
0.221055
0.185018
0.157442
0.136465
0.120546
0.108471
0.0993025
0.09233
0.08702
0.0829756
0.0799042
0.0775923
0.0758865
0.0746785
0.0738941
0.0734851
0.073423
0.0736956
0.0743037
0.0752604
0.0765908
0.0783344
0.0805499
0.0833271
0.0868112
0.0912584
0.0971739
0.105709
0.120102
0.153535
0.323817
)
;
    }
    procBoundary3to2
    {
        type            processor;
        value           nonuniform List<scalar> 
43
(
0.519625
0.425948
0.355669
0.302477
0.261693
0.229956
0.204886
0.184794
0.168474
0.155048
0.143867
0.134443
0.126408
0.119479
0.113444
0.108139
0.103442
0.0992606
0.0955273
0.0921902
0.0892097
0.0865542
0.0841969
0.0821139
0.0802828
0.0786821
0.0772908
0.0760885
0.0750559
0.0741751
0.0734305
0.0728089
0.0723001
0.0718977
0.0715992
0.0714061
0.0713234
0.0713574
0.0715116
0.0717772
0.0721194
0.0724599
0.0726708
)
;
    }
}


// ************************************************************************* //
