/*--------------------------------*- C++ -*----------------------------------*\
  =========                 |
  \\      /  F ield         | OpenFOAM: The Open Source CFD Toolbox
   \\    /   O peration     | Website:  https://openfoam.org
    \\  /    A nd           | Version:  7
     \\/     M anipulation  |
\*---------------------------------------------------------------------------*/
FoamFile
{
    version     2.0;
    format      ascii;
    class       volScalarField;
    location    "0.25";
    object      k;
}
// * * * * * * * * * * * * * * * * * * * * * * * * * * * * * * * * * * * * * //

dimensions      [0 2 -2 0 0 0 0];

internalField   nonuniform List<scalar> 
1935
(
0.228344
0.214933
0.202813
0.19172
0.181484
0.172008
0.163244
0.155175
0.147788
0.141067
0.134984
0.129502
0.12457
0.120136
0.116146
0.112549
0.1093
0.106361
0.103699
0.101289
0.0991103
0.0971448
0.0953782
0.0937974
0.0923902
0.0911446
0.090049
0.0890918
0.0882613
0.0875463
0.0869363
0.0864215
0.0859935
0.0856448
0.0853695
0.0851629
0.0850212
0.0849403
0.0849147
0.0849346
0.0849829
0.0850331
0.085055
0.230377
0.232433
0.233935
0.234075
0.214851
0.21465
0.213953
0.212323
0.201321
0.199679
0.197627
0.194928
0.189304
0.186756
0.183885
0.180564
0.178474
0.175372
0.172027
0.168375
0.168632
0.165213
0.161622
0.15783
0.159665
0.15609
0.152407
0.148605
0.151506
0.14789
0.14422
0.140499
0.144116
0.140537
0.136955
0.133374
0.137454
0.133972
0.130526
0.127124
0.131479
0.128133
0.124856
0.121657
0.126138
0.122956
0.119869
0.116885
0.121374
0.118374
0.115489
0.112722
0.117125
0.114319
0.11164
0.10909
0.113332
0.110726
0.108252
0.105913
0.109939
0.107534
0.105263
0.103127
0.106896
0.104691
0.102617
0.100674
0.104162
0.102151
0.100267
0.098507
0.101702
0.099879
0.0981749
0.096587
0.0994859
0.0978431
0.0963094
0.0948822
0.097492
0.0960191
0.0946448
0.0933665
0.0957009
0.0943865
0.09316
0.0920187
0.0940962
0.0929282
0.0918373
0.090821
0.0926639
0.0916295
0.0906616
0.0897583
0.0913909
0.0904769
0.0896196
0.0888177
0.0902652
0.0894584
0.0886995
0.0879874
0.0892751
0.0885627
0.0878902
0.0872571
0.0884093
0.0877788
0.0871815
0.086617
0.0876571
0.0870966
0.0865636
0.0860581
0.0870078
0.0865063
0.0860276
0.085572
0.0864516
0.0859987
0.0855649
0.0851508
0.0859795
0.0855653
0.0851675
0.084787
0.0855831
0.0851981
0.084828
0.0844737
0.0852554
0.0848902
0.0845395
0.0842042
0.08499
0.0846352
0.0842957
0.0839723
0.0847815
0.0844273
0.0840906
0.0837722
0.0846251
0.0842611
0.0839189
0.0835986
0.084516
0.0841316
0.0837754
0.0834467
0.0844482
0.0840332
0.0836554
0.0833127
0.0844133
0.0839595
0.0835545
0.083194
0.0843992
0.083903
0.0834693
0.0830904
0.0843905
0.0838567
0.0833989
0.0830051
0.0843762
0.0838208
0.08335
0.0829487
0.232042
0.226897
0.219067
0.209457
0.198704
0.187299
0.175686
0.164275
0.153403
0.143308
0.13413
0.12593
0.118712
0.112439
0.107046
0.102453
0.0985673
0.0952933
0.0925363
0.0902064
0.0882209
0.0865057
0.084995
0.0836311
0.0823627
0.0811433
0.0799297
0.07868
0.0773517
0.0758995
0.0742723
0.0724104
0.0702398
0.0676647
0.0645537
0.060713
0.0558223
0.0492529
0.0393258
0.019352
0.209239
0.204128
0.197275
0.189153
0.180212
0.170796
0.161237
0.151834
0.142839
0.134438
0.126752
0.119843
0.113727
0.108385
0.103772
0.099823
0.0964641
0.0936157
0.0911987
0.0891376
0.0873628
0.0858115
0.0844279
0.0831621
0.0819693
0.0808082
0.0796396
0.0784247
0.0771233
0.075692
0.0740812
0.0722321
0.0700716
0.0675047
0.0644007
0.0605661
0.055682
0.0491216
0.0392138
0.0193258
0.191208
0.186115
0.179904
0.172809
0.165168
0.157219
0.1492
0.141333
0.133806
0.126763
0.1203
0.114473
0.109299
0.104763
0.10083
0.0974473
0.0945533
0.0920818
0.0899667
0.0881451
0.0865588
0.0851552
0.0838867
0.0827105
0.0815872
0.0804802
0.0793536
0.0781713
0.0768954
0.075484
0.0738888
0.072052
0.0699013
0.0673423
0.0642449
0.0604162
0.0555384
0.0489869
0.0390982
0.0192956
0.176495
0.171463
0.165721
0.159403
0.152729
0.145897
0.139073
0.132418
0.126069
0.120135
0.11469
0.109775
0.105403
0.10156
0.0982147
0.0953236
0.0928343
0.0906919
0.0888414
0.0872308
0.0858116
0.0845396
0.0833744
0.0822792
0.0812194
0.0801621
0.0790743
0.0779226
0.0766706
0.0752779
0.0736975
0.0718723
0.0697309
0.0671793
0.064088
0.0602649
0.0553929
0.0488499
0.0389798
0.0192616
0.164158
0.159248
0.153902
0.148214
0.142314
0.13637
0.130505
0.124832
0.11945
0.114436
0.109842
0.105697
0.102005
0.0987528
0.0959107
0.093441
0.0912999
0.0894415
0.0878206
0.086394
0.0851215
0.0839659
0.082893
0.0818706
0.0808683
0.0798563
0.0788044
0.0776808
0.0764511
0.0750759
0.0735093
0.071695
0.0695622
0.0670174
0.0639317
0.0601135
0.0552468
0.0487117
0.0388596
0.0192241
0.153607
0.148879
0.143907
0.138758
0.133524
0.128314
0.123242
0.118383
0.113805
0.10956
0.105681
0.102183
0.0990656
0.0963116
0.0938951
0.0917829
0.0899381
0.0883227
0.0868993
0.0856321
0.0844876
0.0834345
0.0824433
0.0814861
0.0805357
0.0795649
0.0785457
0.0774481
0.0762388
0.0748799
0.073326
0.0715218
0.0693967
0.0668581
0.0637773
0.0599634
0.0551013
0.0485732
0.0387383
0.0191833
0.144476
0.139982
0.135376
0.130714
0.126063
0.121495
0.117089
0.112915
0.109011
0.10541
0.102129
0.0991734
0.096536
0.0941997
0.0921403
0.0903289
0.0887346
0.0873257
0.0860712
0.0849413
0.0839081
0.0829447
0.0820258
0.0811266
0.0802228
0.0792893
0.0782998
0.077226
0.0760356
0.0746915
0.0731493
0.0713541
0.0692361
0.0667028
0.0636261
0.0598157
0.0549574
0.0484356
0.0386167
0.0191396
0.136532
0.132307
0.128067
0.123855
0.119721
0.115717
0.111892
0.108294
0.104956
0.101893
0.0991108
0.0966061
0.094368
0.0923791
0.0906173
0.0890577
0.0876739
0.0864397
0.0853291
0.0843173
0.0833804
0.0824955
0.0816402
0.0807927
0.0799305
0.0790306
0.0780682
0.0770158
0.0758426
0.0745121
0.0729805
0.0711934
0.0690815
0.0665527
0.0634793
0.0596715
0.0548161
0.0482996
0.0384957
0.0190934
0.129615
0.125681
0.121801
0.118008
0.114338
0.110826
0.107505
0.104402
0.101538
0.0989225
0.0965534
0.0944216
0.0925136
0.0908123
0.0892975
0.0879477
0.0867405
0.0856538
0.0846657
0.0837552
0.0829017
0.0820852
0.081286
0.0804842
0.0796593
0.0787896
0.0778515
0.0768187
0.075661
0.0743427
0.0728205
0.0710406
0.0689338
0.0664087
0.0633378
0.0595318
0.0546783
0.048166
0.0383758
0.0190449
0.1236
0.119966
0.116433
0.113027
0.109773
0.106692
0.103805
0.101125
0.0986619
0.096417
0.0943886
0.0925639
0.090928
0.0894641
0.088154
0.086979
0.0859198
0.0849576
0.0840738
0.0832502
0.0824688
0.0817121
0.0809623
0.080201
0.0794092
0.0785666
0.0776504
0.0766352
0.0754915
0.0741841
0.0726703
0.0708965
0.068794
0.0662717
0.0632023
0.0593971
0.0545446
0.0480355
0.0382576
0.0189944
0.11838
0.115044
0.111842
0.10879
0.105905
0.1032
0.100684
0.0983624
0.0962369
0.0943038
0.0925555
0.090983
0.0895709
0.0883029
0.0871626
0.0861332
0.0851983
0.0843415
0.0835465
0.0827976
0.0820788
0.0813742
0.0806677
0.0799423
0.0791801
0.0783616
0.0774651
0.0764658
0.0753346
0.0740369
0.0725303
0.0707617
0.0686626
0.0661422
0.0630735
0.0592682
0.0544157
0.0479085
0.0381414
0.0189418
0.113858
0.11081
0.107916
0.105186
0.102628
0.100248
0.0980486
0.0960293
0.0941864
0.0925131
0.0909999
0.0896353
0.0884072
0.0873012
0.0863019
0.0853944
0.0845641
0.0837966
0.0830776
0.0823929
0.0817283
0.0810693
0.0804009
0.0797073
0.0789715
0.0781746
0.0772957
0.0763105
0.0751904
0.0739012
0.0724009
0.0706365
0.06854
0.0660206
0.0629518
0.0591456
0.0542921
0.0477857
0.0380278
0.0188875
0.109941
0.107167
0.104557
0.102115
0.0998449
0.0977464
0.0958172
0.0940529
0.0924467
0.0909898
0.0896721
0.088482
0.0874074
0.0864354
0.0855537
0.0847484
0.0840065
0.083315
0.082661
0.0820319
0.0814144
0.0807953
0.0801605
0.0794951
0.0787826
0.0780051
0.0771419
0.0761692
0.075059
0.0737773
0.0722822
0.0705213
0.0684265
0.0659073
0.0628375
0.0590295
0.0541741
0.0476675
0.0379172
0.0188321
0.106545
0.104027
0.101676
0.0994921
0.0974743
0.0956188
0.0939203
0.0923715
0.0909641
0.0896885
0.0885341
0.0874898
0.0865443
0.0856858
0.0849025
0.0841833
0.0835163
0.0828897
0.0822917
0.0817105
0.0811342
0.0805501
0.0799449
0.0793044
0.0786127
0.0778524
0.0770032
0.0760418
0.0749402
0.0736649
0.0721742
0.0704159
0.068322
0.0658023
0.0627309
0.0589203
0.0540622
0.0475544
0.0378104
0.0187762
0.103594
0.101313
0.099197
0.0972428
0.0954462
0.0938011
0.0922999
0.0909342
0.0896948
0.0885717
0.0875546
0.086633
0.0857962
0.0850336
0.0843347
0.0836889
0.0830855
0.0825144
0.0819647
0.0814253
0.0808848
0.0803314
0.0797524
0.079134
0.0784609
0.0777159
0.0768792
0.0759276
0.0748337
0.0735638
0.0720767
0.0703202
0.0682266
0.0657058
0.062632
0.0588182
0.0539567
0.0474469
0.0377079
0.0187207
0.101019
0.0989577
0.0970546
0.0953051
0.0937028
0.0922401
0.0909087
0.0896994
0.0886027
0.0876089
0.086708
0.0858903
0.0851458
0.0844649
0.0838379
0.0832552
0.0827071
0.082184
0.0816759
0.0811727
0.0806636
0.0801373
0.0795814
0.0789826
0.078326
0.0775946
0.076769
0.0758262
0.0747388
0.0734736
0.0719894
0.070234
0.06814
0.0656175
0.0625408
0.0587233
0.0538578
0.0473452
0.0376102
0.0186658
0.0987643
0.0969049
0.0951946
0.0936276
0.0921965
0.090893
0.0897084
0.0886335
0.087659
0.0867755
0.0859737
0.0852445
0.0845789
0.0839679
0.0834026
0.0828743
0.082374
0.0818928
0.0814213
0.0809499
0.0804683
0.0799657
0.0794303
0.0788489
0.078207
0.0774877
0.0766719
0.0757368
0.0746552
0.0733939
0.0719118
0.070157
0.0680621
0.0655374
0.0624573
0.0586356
0.0537657
0.0472499
0.0375179
0.0186122
0.0967823
0.0951081
0.0935724
0.0921685
0.0908888
0.0897249
0.088668
0.0877094
0.0868401
0.0860514
0.0853347
0.0846816
0.0840837
0.0835328
0.0830208
0.0825397
0.082081
0.0816363
0.0811969
0.0807535
0.0802963
0.0798149
0.0792975
0.0787316
0.0781026
0.0773942
0.0765871
0.0756587
0.074582
0.0733239
0.0718434
0.0700887
0.0679925
0.0654651
0.0623814
0.0585552
0.0536805
0.047161
0.0374311
0.01856
0.0950341
0.0935296
0.0921518
0.0908941
0.0897487
0.0887076
0.0877624
0.086905
0.086127
0.0854203
0.0847771
0.0841897
0.0836503
0.0831515
0.0826858
0.0822456
0.0818232
0.0814105
0.0809993
0.0805807
0.0801451
0.0796825
0.0791814
0.0786293
0.0780119
0.077313
0.0765135
0.0755911
0.0745186
0.0732631
0.0717838
0.0700287
0.0679308
0.0654005
0.0623128
0.0584819
0.0536022
0.0470787
0.0373503
0.0185095
0.0934879
0.0921385
0.0909037
0.0897769
0.088751
0.0878184
0.0869715
0.0862025
0.0855041
0.0848688
0.0842895
0.0837591
0.0832706
0.0828171
0.0823917
0.0819873
0.0815967
0.0812121
0.0808257
0.080429
0.0800126
0.0795667
0.07908
0.0785403
0.0779334
0.0772431
0.0764505
0.0755332
0.0744644
0.073211
0.0717322
0.0699765
0.0678767
0.0653432
0.0622514
0.0584156
0.0535307
0.047003
0.0372747
0.0184618
0.0921181
0.0909099
0.0898042
0.0887949
0.0878755
0.0870391
0.0862787
0.0855875
0.0849587
0.0843858
0.0838623
0.0833816
0.0829376
0.0825237
0.0821336
0.0817606
0.0813978
0.0810381
0.0806736
0.0802962
0.0798969
0.0794658
0.078992
0.0784633
0.0778657
0.0771831
0.0763966
0.0754839
0.0744182
0.0731665
0.0716882
0.0699315
0.0678295
0.0652928
0.0621967
0.0583559
0.0534658
0.0469334
0.0372045
0.0184211
0.0909034
0.0898234
0.0888341
0.0879301
0.0871055
0.0863543
0.0856704
0.0850477
0.0844803
0.0839621
0.0834874
0.0830505
0.0826454
0.0822663
0.0819071
0.0815618
0.0812236
0.0808857
0.0805406
0.0801803
0.0797961
0.0793783
0.078916
0.0783972
0.0778078
0.077132
0.0763509
0.0754422
0.0743792
0.0731289
0.0716507
0.069893
0.0677887
0.0652487
0.0621485
0.0583029
0.0534079
0.0468714
0.0371426
0.018386
0.0898266
0.0888622
0.0879774
0.0871675
0.0864274
0.0857519
0.0851356
0.0845734
0.0840599
0.08359
0.0831583
0.0827597
0.0823889
0.0820403
0.0817085
0.0813875
0.081071
0.0807525
0.0804246
0.0800796
0.0797088
0.0793028
0.0788507
0.0783407
0.0777587
0.077089
0.0763127
0.0754075
0.0743468
0.0730976
0.0716194
0.0698604
0.067754
0.0652108
0.0621066
0.0582566
0.053357
0.046817
0.0370886
0.0183539
0.0888728
0.0880122
0.0872208
0.0864947
0.0858297
0.0852212
0.0846649
0.0841561
0.0836903
0.0832628
0.0828691
0.0825043
0.0821637
0.0818421
0.0815344
0.0812349
0.0809377
0.0806363
0.0803237
0.0799922
0.0796335
0.0792379
0.078795
0.0782928
0.0777175
0.0770531
0.0762811
0.0753791
0.0743203
0.0730721
0.0715936
0.0698335
0.0677249
0.0651788
0.0620709
0.0582167
0.0533131
0.0467698
0.0370417
0.0183239
0.0880294
0.0872613
0.0865529
0.0859013
0.0853028
0.0847538
0.0842504
0.0837888
0.083365
0.0829751
0.0826148
0.0822799
0.081966
0.0816683
0.0813819
0.0811015
0.0808214
0.0805352
0.0802362
0.0799168
0.0795687
0.0791825
0.0787478
0.0782526
0.0776832
0.0770237
0.0762555
0.0753562
0.0742992
0.0730517
0.0715731
0.0698119
0.0677013
0.0651524
0.0620411
0.0581832
0.0532757
0.0467295
0.0370015
0.0182958
0.0872854
0.086599
0.0859642
0.0853783
0.0848385
0.0843419
0.0838853
0.0834653
0.0830787
0.0827219
0.0823912
0.0820828
0.0817924
0.0815159
0.0812484
0.0809849
0.0807199
0.0804473
0.0801604
0.0798517
0.0795132
0.0791354
0.0787081
0.0782192
0.0776551
0.077
0.0762351
0.0753384
0.074283
0.0730362
0.0715573
0.069795
0.0676826
0.0651312
0.0620169
0.0581556
0.0532448
0.0466959
0.0369678
0.0182698
0.0866307
0.0860163
0.0854459
0.0849178
0.0844297
0.0839792
0.0835637
0.0831805
0.0828266
0.0824991
0.0821945
0.0819095
0.08164
0.0813822
0.0811315
0.0808831
0.0806315
0.080371
0.0800948
0.0797958
0.0794658
0.0790956
0.0786749
0.0781917
0.0776324
0.0769812
0.0762195
0.075325
0.074271
0.0730249
0.0715459
0.0697827
0.0676687
0.0651151
0.0619981
0.0581338
0.0532201
0.046669
0.0369405
0.0182459
0.0860565
0.0855046
0.0849905
0.0845128
0.0840699
0.0836598
0.0832804
0.0829295
0.0826046
0.0823028
0.0820214
0.081757
0.0815061
0.0812649
0.0810292
0.0807941
0.0805546
0.0803048
0.0800383
0.0797479
0.0794256
0.0790621
0.0786473
0.0781692
0.0776143
0.0769667
0.0762078
0.0753155
0.0742629
0.0730173
0.0715383
0.0697744
0.0676591
0.0651036
0.0619843
0.0581176
0.0532015
0.0466484
0.0369195
0.0182244
0.0855543
0.0850563
0.0845909
0.084157
0.0837533
0.0833785
0.0830308
0.0827082
0.0824087
0.0821298
0.0818688
0.0816227
0.0813883
0.0811619
0.0809394
0.0807163
0.0804875
0.0802473
0.0799895
0.0797068
0.0793914
0.0790341
0.0786246
0.0781512
0.0776003
0.076956
0.0761997
0.0753093
0.074258
0.0730132
0.0715343
0.0697699
0.0676535
0.0650966
0.0619755
0.0581067
0.0531887
0.0466341
0.0369046
0.0182053
0.0851163
0.0846644
0.0842406
0.0838444
0.0834747
0.0831306
0.0828104
0.0825127
0.0822356
0.0819767
0.0817338
0.081504
0.0812843
0.0810711
0.0808604
0.080648
0.0804288
0.0801973
0.0799472
0.0796716
0.0793624
0.0790106
0.078606
0.0781369
0.0775896
0.0769484
0.0761946
0.0753061
0.0742562
0.0730121
0.0715334
0.0697687
0.0676517
0.0650936
0.0619712
0.058101
0.0531815
0.0466258
0.0368958
0.0181887
0.0847354
0.0843222
0.0839337
0.0835696
0.0832292
0.0829115
0.0826154
0.0823394
0.0820819
0.0818409
0.081614
0.0813987
0.081192
0.0809906
0.0807906
0.0805878
0.0803773
0.0801536
0.0799105
0.0796412
0.0793377
0.078991
0.0785909
0.0781256
0.0775818
0.0769434
0.076192
0.0753054
0.0742568
0.0730136
0.0715354
0.0697707
0.0676533
0.0650946
0.0619712
0.0581
0.0531797
0.0466234
0.0368927
0.0181748
0.0844045
0.0840233
0.0836643
0.0833273
0.0830118
0.0827169
0.0824417
0.0821848
0.0819446
0.0817193
0.0815068
0.0813045
0.0811095
0.0809187
0.0807284
0.0805342
0.0803316
0.080115
0.0798784
0.0796148
0.0793165
0.0789744
0.0785785
0.0781169
0.0775762
0.0769406
0.0761915
0.0753067
0.0742596
0.0730175
0.0715398
0.0697755
0.067658
0.0650991
0.0619753
0.0581037
0.0531831
0.0466266
0.0368953
0.0181636
0.0841171
0.0837617
0.0834269
0.0831125
0.0828181
0.0825428
0.0822857
0.0820455
0.0818206
0.0816094
0.0814097
0.0812191
0.0810348
0.0808537
0.0806721
0.0804859
0.0802905
0.0800805
0.0798498
0.0795916
0.079298
0.0789603
0.0785682
0.0781101
0.0775725
0.0769395
0.0761926
0.0753097
0.0742641
0.0730232
0.0715464
0.0697827
0.0676656
0.0651068
0.0619832
0.0581117
0.0531913
0.0466351
0.0369031
0.0181551
0.0838671
0.0835316
0.0832161
0.0829202
0.0826435
0.0823849
0.0821436
0.0819181
0.081707
0.0815085
0.0813204
0.0811405
0.080966
0.0807938
0.0806203
0.0804416
0.0802528
0.0800489
0.0798237
0.0795705
0.0792815
0.0789479
0.0785595
0.0781047
0.07757
0.0769396
0.076195
0.075314
0.07427
0.0730305
0.0715548
0.069792
0.0676756
0.0651175
0.0619944
0.0581236
0.0532039
0.0466484
0.0369158
0.0181493
0.0836484
0.0833273
0.0830266
0.0827457
0.0824836
0.0822395
0.0820119
0.0817996
0.0816009
0.0814139
0.0812366
0.0810666
0.0809013
0.0807374
0.0805716
0.0803998
0.0802174
0.0800192
0.0797993
0.0795509
0.0792662
0.0789365
0.0785516
0.0781
0.0775682
0.0769404
0.076198
0.0753191
0.0742769
0.0730389
0.0715646
0.0698029
0.0676877
0.0651305
0.0620086
0.0581389
0.0532205
0.0466661
0.036933
0.0181461
0.0834554
0.0831437
0.0828537
0.0825844
0.0823346
0.0821027
0.0818874
0.081687
0.0814997
0.0813235
0.0811563
0.0809957
0.080839
0.0806831
0.0805246
0.0803595
0.0801832
0.0799905
0.0797757
0.0795318
0.0792513
0.0789254
0.078544
0.0780956
0.0775666
0.0769413
0.0762013
0.0753245
0.0742842
0.0730479
0.0715752
0.069815
0.0677012
0.0651455
0.062025
0.058157
0.0532403
0.0466876
0.036954
0.0181452
0.0832831
0.082976
0.0826931
0.0824327
0.0821929
0.0819718
0.0817675
0.081578
0.0814014
0.0812354
0.0810778
0.0809263
0.0807779
0.0806298
0.0804784
0.0803197
0.0801493
0.0799621
0.0797521
0.0795127
0.0792363
0.0789142
0.0785362
0.0780908
0.0775646
0.076942
0.0762043
0.0753297
0.0742914
0.073057
0.071586
0.0698275
0.0677154
0.0651615
0.0620429
0.0581769
0.0532624
0.0467117
0.0369778
0.0181465
0.0831272
0.0828205
0.0825416
0.0822879
0.0820565
0.0818449
0.0816507
0.0814715
0.0813049
0.0811487
0.0810005
0.0808577
0.0807175
0.0805768
0.0804323
0.08028
0.0801154
0.0799334
0.0797282
0.0794932
0.0792208
0.0789023
0.0785276
0.0780853
0.0775619
0.0769418
0.0762066
0.0753341
0.0742979
0.0730655
0.0715964
0.0698398
0.0677296
0.0651776
0.0620612
0.0581976
0.0532856
0.0467371
0.0370031
0.0181491
0.0829848
0.0826753
0.0823982
0.0821494
0.0819252
0.0817222
0.0815373
0.0813678
0.0812109
0.081064
0.0809247
0.0807903
0.080658
0.0805247
0.0803868
0.0802406
0.0800816
0.0799047
0.0797041
0.0794734
0.0792048
0.0788898
0.0785183
0.0780789
0.0775583
0.0769407
0.0762077
0.0753375
0.0743033
0.0730728
0.0716057
0.069851
0.0677427
0.0651928
0.0620786
0.0582173
0.0533079
0.0467618
0.0370277
0.0181521
0.0828551
0.0825409
0.0822641
0.0820191
0.0818012
0.0816061
0.0814299
0.0812694
0.0811215
0.0809835
0.0808527
0.0807262
0.0806013
0.0804747
0.0803432
0.0802027
0.0800489
0.0798768
0.0796806
0.0794537
0.0791887
0.078877
0.0785085
0.0780718
0.0775537
0.0769384
0.0762077
0.0753394
0.0743072
0.0730785
0.0716132
0.0698602
0.0677538
0.0652057
0.0620934
0.0582343
0.0533271
0.0467829
0.0370484
0.0181539
0.0827401
0.0824209
0.0821441
0.0819026
0.0816903
0.0815022
0.0813338
0.0811814
0.0810416
0.0809115
0.0807881
0.0806687
0.0805504
0.0804299
0.0803039
0.0801685
0.0800193
0.0798514
0.079659
0.0794356
0.0791737
0.0788648
0.078499
0.0780647
0.0775487
0.0769355
0.0762066
0.0753401
0.0743095
0.0730825
0.0716186
0.0698672
0.0677621
0.0652154
0.0621044
0.0582465
0.0533403
0.0467965
0.0370603
0.0181515
0.082646
0.0823233
0.082047
0.0818086
0.0816011
0.0814189
0.0812569
0.081111
0.0809778
0.080854
0.0807367
0.0806229
0.0805098
0.0803941
0.0802725
0.0801411
0.0799955
0.0798309
0.0796415
0.0794208
0.0791614
0.0788547
0.0784908
0.0780584
0.0775441
0.0769324
0.076205
0.0753399
0.0743106
0.0730847
0.071622
0.0698715
0.0677674
0.0652214
0.0621108
0.0582527
0.0533452
0.0467981
0.0370548
0.018141
0.0825856
0.0822618
0.0819864
0.0817503
0.0815461
0.0813675
0.0812095
0.0810676
0.0809384
0.0808184
0.0807047
0.0805943
0.0804843
0.0803715
0.0802526
0.0801236
0.0799802
0.0798176
0.07963
0.0794109
0.079153
0.0788476
0.078485
0.0780537
0.0775404
0.0769297
0.0762031
0.0753388
0.0743103
0.0730851
0.0716231
0.0698732
0.0677695
0.0652238
0.062113
0.0582539
0.0533437
0.0467903
0.0370336
0.0181099
)
;

boundaryField
{
    leftWall
    {
        type            kqRWallFunction;
        value           nonuniform 0();
    }
    rightWall
    {
        type            kqRWallFunction;
        value           nonuniform List<scalar> 
43
(
0.019352
0.0193258
0.0192956
0.0192616
0.0192241
0.0191833
0.0191396
0.0190934
0.0190449
0.0189944
0.0189418
0.0188875
0.0188321
0.0187762
0.0187207
0.0186658
0.0186122
0.01856
0.0185095
0.0184618
0.0184211
0.018386
0.0183539
0.0183239
0.0182958
0.0182698
0.0182459
0.0182244
0.0182053
0.0181887
0.0181748
0.0181636
0.0181551
0.0181493
0.0181461
0.0181452
0.0181465
0.0181491
0.0181521
0.0181539
0.0181515
0.018141
0.0181099
)
;
    }
    lowerWall
    {
        type            kqRWallFunction;
        value           nonuniform 0();
    }
    atmosphere
    {
        type            inletOutlet;
        inletValue      uniform 0.1;
        value           nonuniform List<scalar> 
45
(
0.085055
0.0843762
0.0838208
0.08335
0.0829487
0.0825856
0.0822618
0.0819864
0.0817503
0.0815461
0.0813675
0.0812095
0.0810676
0.0809384
0.0808184
0.0807047
0.0805943
0.0804843
0.0803715
0.0802526
0.0801236
0.0799802
0.0798176
0.07963
0.0794109
0.079153
0.0788476
0.078485
0.0780537
0.0775404
0.0769297
0.0762031
0.0753388
0.0743103
0.0730851
0.0716231
0.0698732
0.0677695
0.0652238
0.062113
0.0582539
0.0533437
0.0467903
0.0370336
0.0181099
)
;
    }
    defaultFaces
    {
        type            empty;
    }
    procBoundary3to1
    {
        type            processor;
        value           nonuniform List<scalar> 
45
(
0.243392
0.248532
0.254048
0.259039
0.262027
0.261632
0.256315
0.246941
0.235131
0.22183
0.207683
0.19327
0.179159
0.165821
0.153562
0.142535
0.132781
0.124269
0.116923
0.110647
0.10533
0.100856
0.097108
0.0939738
0.0913466
0.0891288
0.0872335
0.0855841
0.0841138
0.0827638
0.0814819
0.0802205
0.0789342
0.0775777
0.0761038
0.0744598
0.0725848
0.0704038
0.0678204
0.0647025
0.0608555
0.0559582
0.0493797
0.0394335
0.0193741
)
;
    }
    procBoundary3to2
    {
        type            processor;
        value           nonuniform List<scalar> 
43
(
0.226839
0.215212
0.204339
0.194106
0.184453
0.175359
0.166831
0.158887
0.151541
0.144796
0.138637
0.133037
0.127956
0.123349
0.119168
0.115367
0.111907
0.108753
0.105878
0.10326
0.10088
0.0987239
0.0967792
0.0950343
0.0934782
0.0920995
0.0908866
0.0898274
0.0889098
0.088122
0.0874525
0.0868909
0.0864285
0.0860577
0.0857731
0.0855712
0.0854494
0.0854058
0.0854365
0.0855321
0.0856719
0.0858159
0.0859019
)
;
    }
}


// ************************************************************************* //
