/*--------------------------------*- C++ -*----------------------------------*\
  =========                 |
  \\      /  F ield         | OpenFOAM: The Open Source CFD Toolbox
   \\    /   O peration     | Website:  https://openfoam.org
    \\  /    A nd           | Version:  7
     \\/     M anipulation  |
\*---------------------------------------------------------------------------*/
FoamFile
{
    version     2.0;
    format      ascii;
    class       volScalarField;
    location    "0.25";
    object      p_rgh;
}
// * * * * * * * * * * * * * * * * * * * * * * * * * * * * * * * * * * * * * //

dimensions      [1 -1 -2 0 0 0 0];

internalField   nonuniform List<scalar> 
1935
(
-0.616927
-0.556174
-0.505371
-0.461764
-0.423503
-0.389316
-0.358347
-0.329959
-0.303674
-0.279194
-0.25641
-0.235312
-0.215879
-0.198029
-0.181646
-0.166648
-0.152998
-0.140661
-0.129534
-0.119425
-0.110074
-0.101207
-0.0925959
-0.0841088
-0.075728
-0.0675309
-0.0596501
-0.0522313
-0.0454002
-0.0392388
-0.0337751
-0.0289856
-0.0248077
-0.0211547
-0.0179281
-0.0150308
-0.0123764
-0.0098929
-0.00752492
-0.00524666
-0.00306
-0.000785704
0.00162348
-0.471539
-0.321047
-0.16675
-0.015797
-0.429879
-0.301084
-0.170483
-0.0430517
-0.395325
-0.284321
-0.172499
-0.0634928
-0.36545
-0.269019
-0.172305
-0.078038
-0.338785
-0.254393
-0.170031
-0.0878205
-0.314432
-0.240131
-0.166054
-0.0938601
-0.2919
-0.226179
-0.160768
-0.0969208
-0.270823
-0.21245
-0.154348
-0.0974666
-0.250877
-0.198795
-0.146876
-0.0958991
-0.231878
-0.185197
-0.138598
-0.092778
-0.21385
-0.171872
-0.129965
-0.0887683
-0.196942
-0.159142
-0.121448
-0.0844079
-0.181267
-0.147225
-0.113307
-0.0799448
-0.166809
-0.136137
-0.105553
-0.0753891
-0.153461
-0.12577
-0.0980953
-0.0707039
-0.141137
-0.11605
-0.0909103
-0.065959
-0.129821
-0.107002
-0.0840968
-0.0613356
-0.119527
-0.0987016
-0.0777914
-0.0570153
-0.110216
-0.0911649
-0.0720456
-0.0530597
-0.101742
-0.0842809
-0.0667642
-0.0493715
-0.0938675
-0.077832
-0.0617404
-0.0457523
-0.0863302
-0.0715745
-0.0567526
-0.0420099
-0.0789213
-0.0653279
-0.0516581
-0.0380491
-0.0715384
-0.0590282
-0.0464387
-0.0339011
-0.0641966
-0.0527274
-0.0411858
-0.0296945
-0.0569999
-0.0465538
-0.0360489
-0.0255941
-0.0500943
-0.0406579
-0.0311783
-0.0217454
-0.0436236
-0.03517
-0.0266868
-0.0182418
-0.0376984
-0.0301776
-0.0226361
-0.0151203
-0.0323815
-0.0257191
-0.0190411
-0.0123752
-0.0276855
-0.0217921
-0.0158853
-0.00997951
-0.0235827
-0.0183655
-0.0131364
-0.00790212
-0.0200168
-0.0153922
-0.0107578
-0.0061167
-0.0169147
-0.0128169
-0.00871147
-0.00460191
-0.0141962
-0.0105805
-0.00695936
-0.00333839
-0.0117823
-0.00862481
-0.00546328
-0.00230613
-0.00960218
-0.00689621
-0.00418644
-0.00148337
-0.00759724
-0.00534893
-0.0030951
-0.000847137
-0.00572292
-0.00394715
-0.00216083
-0.00037523
-0.0039581
-0.00267173
-0.00136532
-4.97329e-05
-0.00230684
-0.00152338
-0.000704396
0.000137587
-0.000657135
-0.000437185
-0.000149898
0.000183802
0.00106409
0.000649709
0.000339351
0.000114744
0.130885
0.261785
0.367677
0.449143
0.508013
0.547255
0.570758
0.582779
0.58714
0.586831
0.583951
0.57983
0.575222
0.570509
0.565869
0.561397
0.557164
0.553232
0.549653
0.546446
0.543597
0.541054
0.538754
0.53664
0.534683
0.532884
0.531274
0.5299
0.528805
0.528018
0.52755
0.527389
0.527505
0.52786
0.528418
0.529155
0.530071
0.531209
0.532544
0.53379
0.081763
0.195879
0.291423
0.368201
0.4271
0.470034
0.499653
0.518933
0.530701
0.537316
0.540558
0.541651
0.541375
0.54021
0.538468
0.536377
0.534121
0.531849
0.52967
0.527642
0.525775
0.52405
0.522437
0.520914
0.519481
0.518163
0.517002
0.516041
0.515318
0.514854
0.51465
0.514692
0.514954
0.515406
0.516025
0.516795
0.517725
0.518857
0.520168
0.521381
0.0439365
0.144036
0.23018
0.301847
0.359395
0.403996
0.437416
0.461712
0.478936
0.490897
0.499041
0.504443
0.507864
0.50984
0.510765
0.510949
0.510639
0.510028
0.50925
0.50839
0.507491
0.506573
0.505647
0.504732
0.503859
0.503068
0.502399
0.501889
0.501564
0.501432
0.501491
0.501729
0.502127
0.502669
0.503341
0.504141
0.505081
0.506205
0.507487
0.508662
0.0153168
0.103598
0.181293
0.247806
0.303159
0.348022
0.383517
0.411039
0.432055
0.447936
0.45984
0.468688
0.47519
0.479888
0.483208
0.485491
0.487007
0.487966
0.48852
0.488779
0.48882
0.488704
0.488482
0.488206
0.487927
0.487691
0.487535
0.487487
0.487558
0.487754
0.488069
0.488497
0.48903
0.489662
0.490392
0.491224
0.492176
0.493289
0.494536
0.495668
-0.00606573
0.0722148
0.142438
0.20401
0.256709
0.300856
0.33713
0.366466
0.389918
0.408521
0.4232
0.434731
0.443746
0.450754
0.456167
0.460318
0.463476
0.465857
0.46763
0.468932
0.469874
0.470553
0.471051
0.47144
0.47178
0.472115
0.472478
0.472883
0.473338
0.473846
0.474405
0.475016
0.475682
0.476407
0.4772
0.47807
0.479036
0.480137
0.481347
0.48243
-0.0217329
0.0481224
0.111805
0.168733
0.218517
0.261236
0.297308
0.327377
0.352206
0.372583
0.389239
0.402809
0.413827
0.42274
0.429915
0.435661
0.440237
0.443862
0.446723
0.448983
0.450784
0.452247
0.453472
0.45454
0.455508
0.456416
0.457285
0.458126
0.458943
0.459742
0.46053
0.461315
0.462112
0.462934
0.463794
0.464706
0.465688
0.466777
0.467947
0.468978
-0.0327791
0.0299665
0.0878874
0.140419
0.187109
0.227907
0.263083
0.293105
0.318542
0.339984
0.357991
0.373058
0.385615
0.39603
0.404622
0.41167
0.417423
0.422108
0.425928
0.429069
0.431688
0.433921
0.435871
0.437615
0.439203
0.440664
0.442012
0.443258
0.444408
0.445474
0.446472
0.447424
0.448349
0.449269
0.450201
0.451159
0.452161
0.453238
0.454365
0.455341
-0.0400212
0.0165978
0.0693213
0.117639
0.161131
0.199715
0.233572
0.263051
0.288571
0.310558
0.329418
0.345515
0.359177
0.370703
0.380366
0.388427
0.395129
0.400706
0.405375
0.409329
0.412731
0.415713
0.41837
0.420767
0.422943
0.424918
0.426705
0.428314
0.429762
0.431069
0.432262
0.433371
0.434424
0.435446
0.436454
0.437461
0.438484
0.43955
0.440633
0.441553
-0.044237
0.00692648
0.0548569
0.0991446
0.139456
0.175723
0.208068
0.236723
0.261974
0.284111
0.303404
0.320109
0.334473
0.346742
0.357161
0.365977
0.373435
0.379771
0.385199
0.38991
0.394055
0.397751
0.401077
0.404082
0.406793
0.409227
0.411399
0.413326
0.415034
0.416557
0.41793
0.41919
0.42037
0.421496
0.422584
0.423645
0.42469
0.425744
0.426783
0.427644
-0.0462757
-7.27476e-05
0.0434356
0.0839601
0.121252
0.155255
0.18603
0.213704
0.238434
0.260389
0.279743
0.296677
0.311385
0.32408
0.334994
0.344365
0.352433
0.359424
0.365542
0.370955
0.375793
0.380149
0.384081
0.387624
0.3908
0.393625
0.396121
0.398317
0.400251
0.401967
0.403507
0.404915
0.406224
0.407456
0.408626
0.409742
0.410811
0.411853
0.412846
0.413647
-0.0469266
-0.00521039
0.0343046
0.0714275
0.10596
0.137829
0.167032
0.193599
0.217585
0.239069
0.258162
0.275004
0.289766
0.302645
0.313863
0.323649
0.332225
0.339798
0.34654
0.352591
0.358051
0.362987
0.36744
0.371434
0.37499
0.378132
0.380893
0.383313
0.385442
0.387332
0.389032
0.390584
0.392021
0.393362
0.394616
0.395786
0.396878
0.397907
0.398853
0.399594
-0.0467225
-0.0089731
0.0270281
0.0611433
0.0931859
0.123047
0.150659
0.175985
0.199016
0.219783
0.238362
0.254878
0.269493
0.282399
0.293804
0.303915
0.312929
0.321014
0.328308
0.334913
0.340901
0.346314
0.351183
0.355528
0.359377
0.362763
0.365732
0.368337
0.370637
0.372687
0.374541
0.376236
0.377801
0.37925
0.380587
0.381811
0.382923
0.383937
0.384834
0.385513
-0.0458861
-0.0115775
0.0213632
0.0528106
0.0825668
0.110486
0.13646
0.160414
0.182314
0.202181
0.220084
0.23614
0.250505
0.263358
0.274885
0.285264
0.294648
0.303168
0.310919
0.317971
0.324368
0.330139
0.335309
0.339904
0.343961
0.347527
0.350658
0.353418
0.35587
0.358073
0.360075
0.361912
0.363602
0.365156
0.366571
0.367844
0.368973
0.369969
0.370817
0.371433
-0.0444634
-0.0131451
0.0170887
0.0461044
0.0736918
0.0996873
0.123969
0.146459
0.16713
0.186007
0.203165
0.218716
0.232801
0.245575
0.257187
0.267777
0.277455
0.286308
0.294398
0.301765
0.308438
0.31444
0.319798
0.32455
0.328742
0.332434
0.335692
0.338586
0.34118
0.343529
0.345676
0.347649
0.34946
0.351112
0.352599
0.353914
0.355054
0.356028
0.356825
0.35738
-0.0425171
-0.0138597
0.0139037
0.0406321
0.0661182
0.0902052
0.112785
0.133799
0.153234
0.171129
0.187555
0.202616
0.216428
0.229109
0.240767
0.251494
0.261362
0.270423
0.278711
0.28625
0.293063
0.299174
0.30462
0.309449
0.31372
0.317501
0.320865
0.32388
0.326608
0.329098
0.331384
0.333486
0.335409
0.33715
0.338699
0.340047
0.341191
0.342138
0.342883
0.343378
-0.0402268
-0.0140048
0.0114485
0.0359992
0.0594618
0.0817059
0.102651
0.122261
0.140539
0.157524
0.173281
0.18789
0.201432
0.213987
0.225621
0.236385
0.246316
0.255441
0.263779
0.271349
0.278176
0.284293
0.289746
0.294595
0.298907
0.302755
0.306211
0.30934
0.312197
0.314821
0.317238
0.319458
0.321479
0.323295
0.324894
0.326265
0.327405
0.328321
0.329012
0.329448
-0.0378448
-0.0138801
0.00941125
0.0319178
0.0534887
0.0740262
0.0934758
0.111817
0.12906
0.145235
0.160386
0.174562
0.187812
0.200174
0.211679
0.22235
0.232201
0.241244
0.249494
0.256972
0.263711
0.269755
0.27516
0.279994
0.284326
0.28823
0.291772
0.295011
0.29799
0.300739
0.303272
0.305594
0.307699
0.309574
0.311207
0.312588
0.313715
0.314595
0.315232
0.315611
-0.0355722
-0.0136793
0.00763047
0.028277
0.048145
0.067163
0.085293
0.10252
0.118848
0.134289
0.148864
0.162589
0.175481
0.187549
0.1988
0.209237
0.218865
0.227693
0.235739
0.243032
0.249613
0.255536
0.260864
0.265666
0.270011
0.273968
0.277593
0.280935
0.284026
0.286884
0.289517
0.291922
0.294088
0.296003
0.297655
0.299033
0.300138
0.300978
0.30156
0.301884
-0.0334591
-0.0134243
0.00612119
0.0251267
0.0435039
0.0611967
0.0781724
0.0944117
0.109904
0.124643
0.138622
0.151834
0.164271
0.175926
0.186791
0.196864
0.206149
0.214659
0.22242
0.229469
0.235855
0.241636
0.246878
0.251646
0.256006
0.260014
0.263718
0.267152
0.270338
0.273286
0.275996
0.27846
0.280665
0.282599
0.284251
0.285614
0.286687
0.287482
0.288007
0.288282
-0.0313982
-0.012995
0.0050105
0.022588
0.0396649
0.0561907
0.0721299
0.0874531
0.102134
0.116149
0.129472
0.142082
0.153958
0.165084
0.175451
0.185059
0.193916
0.202044
0.209476
0.216256
0.222436
0.228076
0.233237
0.237978
0.242354
0.246411
0.250183
0.253693
0.256953
0.259965
0.262724
0.26522
0.267439
0.269371
0.271005
0.272338
0.273372
0.274117
0.274587
0.274817
-0.0292053
-0.0122292
0.00442786
0.0207456
0.0366587
0.0521158
0.0670749
0.0814964
0.0953426
0.108577
0.121167
0.133083
0.144303
0.154812
0.164605
0.173687
0.182075
0.189797
0.196891
0.203405
0.209389
0.214899
0.219988
0.224707
0.229098
0.233193
0.237016
0.240578
0.243884
0.24693
0.249708
0.252207
0.254415
0.256323
0.257923
0.259214
0.260201
0.260894
0.261309
0.261497
-0.0267302
-0.0110281
0.00441351
0.0195773
0.0343998
0.0488269
0.0628112
0.0763067
0.0892702
0.101662
0.113449
0.124603
0.135106
0.144949
0.154133
0.162671
0.170587
0.177912
0.184685
0.190952
0.196759
0.202154
0.207181
0.211877
0.216271
0.220386
0.224233
0.227817
0.231135
0.234182
0.236947
0.23942
0.241592
0.243455
0.245006
0.246245
0.24718
0.247819
0.248181
0.248326
-0.0239334
-0.00941283
0.00488586
0.0189442
0.0326994
0.0460959
0.0590845
0.0716188
0.0836568
0.0951623
0.106106
0.116467
0.126233
0.135402
0.143985
0.151997
0.159465
0.166422
0.172904
0.17895
0.184599
0.18989
0.194852
0.199514
0.203892
0.207998
0.211837
0.215406
0.2187
0.221712
0.224433
0.226853
0.228965
0.230766
0.232255
0.233434
0.234312
0.234898
0.235209
0.235311
-0.020897
-0.00751458
0.00566974
0.0186357
0.0313221
0.0436754
0.0556494
0.0672022
0.0782975
0.0889057
0.0990045
0.10858
0.117629
0.126155
0.134171
0.141697
0.148758
0.155383
0.161603
0.167449
0.172951
0.178135
0.183022
0.187627
0.191959
0.196022
0.199814
0.20333
0.206564
0.209508
0.212153
0.214495
0.216529
0.218253
0.219669
0.220782
0.221601
0.222133
0.222396
0.222459
-0.017781
-0.00552006
0.00655924
0.0184361
0.0300536
0.0413637
0.0523263
0.0629067
0.073076
0.0828118
0.0920994
0.100932
0.10931
0.117242
0.124743
0.131829
0.138523
0.144848
0.150827
0.156482
0.161835
0.166899
0.171686
0.176204
0.180453
0.184433
0.188139
0.191564
0.194703
0.197547
0.200093
0.202335
0.204274
0.20591
0.207246
0.20829
0.209048
0.209527
0.209746
0.209772
-0.0147593
-0.00360643
0.00738111
0.0181841
0.0287522
0.0390443
0.049028
0.0586757
0.0679655
0.076882
0.085416
0.0935654
0.101333
0.108729
0.115763
0.122451
0.128809
0.134853
0.140598
0.146059
0.151244
0.156163
0.160818
0.165211
0.169337
0.173195
0.176776
0.180076
0.183088
0.185808
0.188232
0.19036
0.192192
0.193732
0.194984
0.195955
0.196653
0.197082
0.197258
0.197252
-0.0119674
-0.00189476
0.00803319
0.0178004
0.0273638
0.0366896
0.0457517
0.054529
0.0630054
0.0711704
0.0790185
0.0865489
0.093765
0.100673
0.107281
0.113599
0.119637
0.125404
0.130908
0.136154
0.141147
0.145887
0.150372
0.1546
0.158566
0.162263
0.165686
0.168831
0.171692
0.174267
0.176554
0.178555
0.180273
0.181712
0.182878
0.183777
0.184415
0.184796
0.184934
0.184898
-0.0094779
-0.000435178
0.00848863
0.0172811
0.0259056
0.0343346
0.0425473
0.0505276
0.0582632
0.0657463
0.0729724
0.0799403
0.086651
0.0931073
0.0993134
0.105274
0.110992
0.116472
0.121715
0.12672
0.131487
0.136012
0.14029
0.144316
0.148085
0.15159
0.154828
0.157793
0.160484
0.1629
0.165041
0.166909
0.168509
0.169845
0.170925
0.171752
0.172333
0.172668
0.172771
0.172709
-0.00730475
0.000779335
0.00877301
0.0166669
0.02443
0.0320395
0.0394789
0.0467351
0.0537979
0.0606601
0.0673164
0.0737636
0.0799998
0.0860243
0.0918369
0.0974376
0.102825
0.107998
0.112954
0.117687
0.122194
0.126469
0.130506
0.134298
0.137842
0.141131
0.144161
0.146932
0.14944
0.151688
0.153677
0.155409
0.15689
0.158125
0.159119
0.159877
0.160403
0.160695
0.160766
0.160683
-0.0054255
0.0017843
0.00893114
0.0160081
0.0229891
0.029855
0.0365919
0.0431883
0.0496348
0.055923
0.0620464
0.0679993
0.0737771
0.079376
0.0847923
0.090022
0.0950606
0.0999028
0.104543
0.108975
0.113192
0.117188
0.120956
0.124491
0.127787
0.130842
0.133653
0.136218
0.138538
0.140615
0.14245
0.144047
0.14541
0.146545
0.147456
0.148148
0.148621
0.148873
0.148917
0.148815
-0.00380646
0.00261635
0.00899953
0.0153384
0.0216108
0.0278004
0.0338949
0.0398833
0.0457556
0.0515026
0.0571161
0.0625886
0.0679134
0.073084
0.0780942
0.0829374
0.087607
0.0920959
0.096397
0.100503
0.104407
0.108102
0.111582
0.114843
0.11788
0.120691
0.123275
0.125631
0.127761
0.129666
0.131348
0.132812
0.134061
0.135099
0.135931
0.136559
0.136983
0.137199
0.137218
0.137101
-0.00242017
0.00329725
0.00899258
0.0146632
0.0202901
0.0258588
0.031358
0.0367766
0.0421042
0.0473312
0.052448
0.0574461
0.0623171
0.0670531
0.0716461
0.0760885
0.0803726
0.0844906
0.0884349
0.0921981
0.0957732
0.099154
0.102335
0.105313
0.108085
0.110649
0.113005
0.115153
0.117094
0.11883
0.120364
0.121698
0.122836
0.123781
0.124537
0.125105
0.125483
0.125666
0.125663
0.125534
-0.00125136
0.00383063
0.00890193
0.0139616
0.0189931
0.0239837
0.0289224
0.0337986
0.038602
0.0433225
0.0479504
0.0524764
0.0568914
0.0611868
0.0653543
0.069386
0.0732739
0.0770103
0.0805877
0.0839988
0.0872375
0.0902982
0.0931769
0.0958706
0.0983776
0.100697
0.102828
0.104771
0.106528
0.1081
0.109489
0.110698
0.111729
0.112586
0.113269
0.113779
0.114113
0.114265
0.114244
0.114106
-0.00029427
0.00420729
0.00870403
0.0131963
0.0176701
0.0221137
0.0265173
0.030871
0.0351647
0.0393886
0.0435332
0.0475892
0.0515477
0.0554003
0.059139
0.062756
0.0662437
0.0695947
0.0728018
0.0758588
0.0787603
0.0815019
0.0840806
0.0864941
0.088741
0.0908205
0.0927321
0.0944763
0.0960537
0.0974661
0.0987154
0.0998036
0.100733
0.101503
0.102117
0.102571
0.102864
0.102988
0.102951
0.102807
0.000453125
0.00441335
0.00837066
0.0123266
0.0162694
0.0201887
0.024076
0.0279219
0.0317175
0.0354534
0.0391207
0.042711
0.046216
0.0496282
0.0529399
0.056144
0.0592333
0.0622008
0.0650405
0.067747
0.070316
0.0727443
0.0750294
0.0771695
0.0791633
0.0810096
0.0827081
0.0842589
0.0856629
0.0869213
0.0880356
0.0890073
0.0898371
0.090525
0.0910707
0.0914724
0.0917262
0.091824
0.0917736
0.0916262
0.000994398
0.00443786
0.00787853
0.0113189
0.0147493
0.0181608
0.0215459
0.0248964
0.028204
0.0314608
0.0346588
0.0377906
0.040849
0.0438271
0.0467182
0.0495154
0.0522122
0.0548028
0.057282
0.0596456
0.0618904
0.0640137
0.0660136
0.0678883
0.0696362
0.0712564
0.0727481
0.0741116
0.0753475
0.0764568
0.0774405
0.078299
0.0790323
0.0796395
0.0801195
0.0804702
0.0806867
0.0807608
0.0806994
0.0805506
0.00133786
0.00427767
0.00721506
0.0101532
0.0130839
0.0159998
0.0188941
0.0217598
0.0245899
0.0273774
0.0301159
0.0327989
0.0354201
0.0379734
0.0404526
0.0428517
0.0451652
0.047388
0.0495163
0.0515468
0.0534769
0.0553044
0.0570274
0.0586442
0.0601533
0.0615535
0.0628445
0.0640261
0.0650988
0.0660631
0.0669194
0.0676673
0.0683061
0.0688345
0.0692508
0.0695522
0.0697336
0.0697861
0.0697155
0.0695672
0.00149705
0.00393836
0.00637942
0.00882342
0.0112634
0.0136929
0.0161062
0.0184972
0.0208602
0.0231893
0.0254791
0.027724
0.0299186
0.0320573
0.0341348
0.036146
0.0380864
0.0399521
0.0417399
0.0434472
0.0450719
0.0466119
0.0480655
0.0494311
0.0507073
0.0518932
0.0529884
0.0539926
0.054906
0.0557285
0.0564597
0.057099
0.0576452
0.0580966
0.0584512
0.0587057
0.0588542
0.058887
0.0588086
0.0586623
0.0014888
0.00343228
0.00538028
0.00733529
0.00929114
0.0112421
0.0131831
0.0151091
0.0170152
0.0188966
0.0207484
0.0225658
0.024344
0.0260784
0.0277645
0.0293982
0.0309759
0.0324946
0.0339515
0.0353445
0.0366716
0.0379311
0.0391215
0.0402414
0.0412898
0.042266
0.0431694
0.0439997
0.0447564
0.0454391
0.0460471
0.0465795
0.0470349
0.0474116
0.0477069
0.0479172
0.0480355
0.0480506
0.0479653
0.0478217
0.00133081
0.00277698
0.00423499
0.00570599
0.00718414
0.00866416
0.0101415
0.0116119
0.0130708
0.0145141
0.0159374
0.0173367
0.018708
0.0200474
0.0213515
0.022617
0.023841
0.0250211
0.0261548
0.0272403
0.0282759
0.0292602
0.0301921
0.0310706
0.0318949
0.0326645
0.0333787
0.0340368
0.0346382
0.0351823
0.0356682
0.0360951
0.0364616
0.0367658
0.0370049
0.0371743
0.0372657
0.0372658
0.0371741
0.0370342
0.00103329
0.00198332
0.0029548
0.00394683
0.00495345
0.00596954
0.00699083
0.00801324
0.00903282
0.0100457
0.0110484
0.0120373
0.0130093
0.0139616
0.0148913
0.0157959
0.0166731
0.0175208
0.0183369
0.0191199
0.0198685
0.0205817
0.0212589
0.0218993
0.0225024
0.0230675
0.023594
0.0240812
0.0245284
0.024935
0.0253005
0.0256241
0.0259047
0.0261403
0.0263278
0.0264621
0.0265331
0.0265235
0.0264266
0.0262916
0.00056262
0.000988728
0.00145227
0.00194928
0.0024727
0.00301682
0.00357698
0.00414897
0.00472887
0.00531311
0.00589846
0.006482
0.0070611
0.00763336
0.00819652
0.00874848
0.00928726
0.00981106
0.0103183
0.0108079
0.0112787
0.0117301
0.0121615
0.0125726
0.0129627
0.0133313
0.0136779
0.014002
0.0143032
0.0145812
0.0148358
0.0150668
0.0152735
0.0154546
0.0156078
0.0157293
0.0158092
0.0158225
0.0157393
0.0156199
-4.82626e-05
-0.000156193
-0.000207723
-0.000210705
-0.000173166
-0.00010165
-1.41183e-06
0.000123053
0.000267816
0.000429423
0.000604833
0.000791354
0.000986579
0.00118833
0.0013946
0.00160355
0.0018135
0.00202294
0.00223056
0.00243528
0.00263617
0.00283251
0.00302365
0.00320902
0.00338809
0.0035604
0.00372554
0.00388325
0.0040334
0.00417604
0.00431135
0.0044396
0.00456101
0.00467557
0.00478297
0.00488233
0.00496915
0.00502449
0.00500986
0.00493921
)
;

boundaryField
{
    leftWall
    {
        type            fixedFluxPressure;
        gradient        nonuniform 0();
        value           nonuniform 0();
    }
    rightWall
    {
        type            fixedFluxPressure;
        gradient        uniform 0;
        value           nonuniform List<scalar> 
43
(
0.53379
0.521381
0.508662
0.495668
0.48243
0.468978
0.455341
0.441553
0.427644
0.413647
0.399594
0.385513
0.371433
0.35738
0.343378
0.329448
0.315611
0.301884
0.288282
0.274817
0.261497
0.248326
0.235311
0.222459
0.209772
0.197252
0.184898
0.172709
0.160683
0.148815
0.137101
0.125534
0.114106
0.102807
0.0916262
0.0805506
0.0695672
0.0586623
0.0478217
0.0370342
0.0262916
0.0156199
0.00493921
)
;
    }
    lowerWall
    {
        type            fixedFluxPressure;
        gradient        nonuniform 0();
        value           nonuniform 0();
    }
    atmosphere
    {
        type            totalPressure;
        rho             rho;
        psi             none;
        gamma           1;
        p0              uniform 0;
        value           uniform 0;
    }
    defaultFaces
    {
        type            empty;
    }
    procBoundary3to1
    {
        type            processor;
        value           nonuniform List<scalar> 
45
(
-0.692236
-0.524946
-0.348048
-0.163522
0.0182275
0.193112
0.344216
0.461206
0.546473
0.60339
0.636243
0.650635
0.652665
0.647439
0.638579
0.628406
0.61825
0.608757
0.600157
0.59246
0.585589
0.579448
0.573959
0.569067
0.564727
0.560894
0.557509
0.554501
0.551802
0.549358
0.547141
0.545157
0.543434
0.542013
0.540927
0.540196
0.539817
0.539766
0.540003
0.540485
0.541181
0.542082
0.543225
0.544583
0.545861
)
;
    }
    procBoundary3to2
    {
        type            processor;
        value           nonuniform List<scalar> 
43
(
-0.752707
-0.676395
-0.611698
-0.555848
-0.506883
-0.463414
-0.424375
-0.388927
-0.356455
-0.326576
-0.299083
-0.273843
-0.250707
-0.229513
-0.210122
-0.19245
-0.17644
-0.162006
-0.148997
-0.137183
-0.126286
-0.116026
-0.106173
-0.0965789
-0.0871941
-0.0780592
-0.0692784
-0.0609857
-0.0533108
-0.0463476
-0.0401335
-0.0346489
-0.0298306
-0.0255873
-0.0218121
-0.0183948
-0.0152333
-0.012241
-0.00935039
-0.00652937
-0.00377409
-0.000818278
0.00239926
)
;
    }
}


// ************************************************************************* //
