/*--------------------------------*- C++ -*----------------------------------*\
  =========                 |
  \\      /  F ield         | OpenFOAM: The Open Source CFD Toolbox
   \\    /   O peration     | Website:  https://openfoam.org
    \\  /    A nd           | Version:  7
     \\/     M anipulation  |
\*---------------------------------------------------------------------------*/
FoamFile
{
    version     2.0;
    format      ascii;
    class       surfaceScalarField;
    location    "0.25";
    object      phi;
}
// * * * * * * * * * * * * * * * * * * * * * * * * * * * * * * * * * * * * * //

dimensions      [0 3 -1 0 0 0 0];

internalField   nonuniform List<scalar> 
3782
(
5.55384e-05
-2.90115e-05
5.27635e-05
-2.69711e-05
4.99608e-05
-2.56094e-05
4.71883e-05
-2.47733e-05
4.44795e-05
-2.4325e-05
4.18521e-05
-2.41471e-05
3.93146e-05
-2.41432e-05
3.68707e-05
-2.42366e-05
3.45213e-05
-2.43687e-05
3.22663e-05
-2.44964e-05
3.01053e-05
-2.45896e-05
2.80378e-05
-2.46285e-05
2.60634e-05
-2.46013e-05
2.4182e-05
-2.45014e-05
2.23936e-05
-2.43262e-05
2.0698e-05
-2.40761e-05
1.90952e-05
-2.37531e-05
1.75846e-05
-2.33603e-05
1.61655e-05
-2.29017e-05
1.48365e-05
-2.23814e-05
1.35959e-05
-2.18039e-05
1.24416e-05
-2.11739e-05
1.13709e-05
-2.04959e-05
1.03811e-05
-1.97745e-05
9.46904e-06
-1.90139e-05
8.63116e-06
-1.82183e-05
7.8639e-06
-1.7391e-05
7.16355e-06
-1.65353e-05
6.52642e-06
-1.56539e-05
5.94889e-06
-1.47491e-05
5.42751e-06
-1.38235e-05
4.95909e-06
-1.28795e-05
4.54079e-06
-1.19199e-05
4.17022e-06
-1.09483e-05
3.84565e-06
-9.96942e-06
3.56628e-06
-8.98977e-06
3.33249e-06
-8.01842e-06
3.1463e-06
-7.06795e-06
3.01171e-06
-6.15585e-06
2.9347e-06
-5.30686e-06
2.92206e-06
-4.55599e-06
2.97741e-06
-3.95299e-06
-3.58346e-06
-2.59339e-05
5.40931e-05
-2.21901e-05
5.55314e-05
-1.77496e-05
5.67214e-05
5.74858e-05
-1.27228e-05
-2.39402e-05
5.10623e-05
-2.04672e-05
5.20583e-05
-1.65566e-05
5.28109e-05
5.322e-05
-1.22908e-05
-2.26764e-05
4.81293e-05
-1.94524e-05
4.88343e-05
-1.59549e-05
4.93134e-05
4.951e-05
-1.22449e-05
-2.19588e-05
4.53148e-05
-1.89558e-05
4.58313e-05
-1.57848e-05
4.61424e-05
4.62165e-05
-1.24912e-05
-2.16347e-05
4.26245e-05
-1.88251e-05
4.30217e-05
-1.59163e-05
4.32335e-05
4.32429e-05
-1.29427e-05
-2.1579e-05
4.00565e-05
-1.89389e-05
4.03816e-05
-1.62446e-05
4.05392e-05
4.05212e-05
-1.35229e-05
-2.16923e-05
3.76057e-05
-1.92013e-05
3.78906e-05
-1.66861e-05
3.8024e-05
3.8003e-05
-1.41679e-05
-2.18969e-05
3.52659e-05
-1.95388e-05
3.55326e-05
-1.71765e-05
3.56617e-05
3.56535e-05
-1.4827e-05
-2.21343e-05
3.30314e-05
-1.98965e-05
3.32948e-05
-1.76677e-05
3.34329e-05
3.34476e-05
-1.54619e-05
-2.23623e-05
3.08974e-05
-2.02353e-05
3.11677e-05
-1.81258e-05
3.13234e-05
3.13675e-05
-1.60457e-05
-2.25521e-05
2.88599e-05
-2.05285e-05
2.91441e-05
-1.85281e-05
2.9323e-05
2.94001e-05
-1.65607e-05
-2.26848e-05
2.69162e-05
-2.07593e-05
2.72186e-05
-1.88604e-05
2.7424e-05
2.75363e-05
-1.69965e-05
-2.27491e-05
2.5064e-05
-2.09178e-05
2.53874e-05
-1.91149e-05
2.56211e-05
2.57691e-05
-1.73478e-05
-2.27391e-05
2.33018e-05
-2.09992e-05
2.36474e-05
-1.92883e-05
2.39102e-05
2.40938e-05
-1.76129e-05
-2.26528e-05
2.16283e-05
-2.10021e-05
2.19967e-05
-1.93801e-05
2.22883e-05
2.25064e-05
-1.77928e-05
-2.24906e-05
2.00428e-05
-2.09274e-05
2.04336e-05
-1.93921e-05
2.07529e-05
2.1004e-05
-1.78897e-05
-2.22546e-05
1.85443e-05
-2.07776e-05
1.89565e-05
-1.93268e-05
1.93021e-05
1.95841e-05
-1.79069e-05
-2.1948e-05
1.7132e-05
-2.05555e-05
1.75641e-05
-1.91875e-05
1.7934e-05
1.82446e-05
-1.78479e-05
-2.15743e-05
1.58045e-05
-2.02649e-05
1.62547e-05
-1.89776e-05
1.66468e-05
1.69833e-05
-1.77163e-05
-2.11374e-05
1.45606e-05
-1.99093e-05
1.50267e-05
-1.8701e-05
1.54384e-05
1.57981e-05
-1.75159e-05
-2.06416e-05
1.33982e-05
-1.94929e-05
1.38779e-05
-1.83614e-05
1.4307e-05
1.46871e-05
-1.72503e-05
-2.0091e-05
1.23153e-05
-1.90195e-05
1.28064e-05
-1.79626e-05
1.32501e-05
1.3648e-05
-1.69235e-05
-1.94901e-05
1.13095e-05
-1.84933e-05
1.18096e-05
-1.75087e-05
1.22656e-05
1.26786e-05
-1.65393e-05
-1.8843e-05
1.0378e-05
-1.79184e-05
1.0885e-05
-1.70037e-05
1.13509e-05
1.17764e-05
-1.61015e-05
-1.81539e-05
9.51797e-06
-1.72988e-05
1.00298e-05
-1.64512e-05
1.05034e-05
1.09391e-05
-1.5614e-05
-1.74266e-05
8.72631e-06
-1.6638e-05
9.2412e-06
-1.5855e-05
9.72042e-06
1.01643e-05
-1.50802e-05
-1.66645e-05
7.99984e-06
-1.59395e-05
8.51616e-06
-1.52184e-05
8.99929e-06
9.44942e-06
-1.45035e-05
-1.58708e-05
7.33532e-06
-1.52063e-05
7.85173e-06
-1.45443e-05
8.33728e-06
8.79204e-06
-1.3887e-05
-1.50481e-05
6.72955e-06
-1.44413e-05
7.24499e-06
-1.38358e-05
7.73172e-06
8.18974e-06
-1.32335e-05
-1.4199e-05
6.17942e-06
-1.36471e-05
6.69309e-06
-1.30954e-05
7.18003e-06
7.64018e-06
-1.25459e-05
-1.33261e-05
5.68198e-06
-1.28264e-05
6.19333e-06
-1.23261e-05
6.67976e-06
7.14116e-06
-1.18271e-05
-1.24321e-05
5.2345e-06
-1.1982e-05
5.74323e-06
-1.15309e-05
6.22867e-06
6.69066e-06
-1.10804e-05
-1.152e-05
4.83457e-06
-1.11174e-05
5.34061e-06
-1.07135e-05
5.8248e-06
6.28689e-06
-1.03098e-05
-1.05939e-05
4.48017e-06
-1.0237e-05
4.98364e-06
-9.87866e-06
5.46647e-06
5.92833e-06
-9.52011e-06
-9.65912e-06
4.16986e-06
-9.34651e-06
4.67101e-06
-9.03252e-06
5.15247e-06
5.61381e-06
-8.71801e-06
-8.72287e-06
3.90293e-06
-8.45391e-06
4.40204e-06
-8.18353e-06
4.88207e-06
5.34255e-06
-7.91228e-06
-7.79518e-06
3.67967e-06
-7.56998e-06
4.17682e-06
-7.34306e-06
4.65513e-06
5.11416e-06
-7.11468e-06
-6.88983e-06
3.50154e-06
-6.70932e-06
3.99631e-06
-6.52628e-06
4.47208e-06
4.92855e-06
-6.34067e-06
-6.02557e-06
3.37127e-06
-5.89145e-06
3.86218e-06
-5.753e-06
4.33363e-06
4.78561e-06
-5.61008e-06
-5.22797e-06
3.29239e-06
-5.14201e-06
3.77623e-06
-5.04852e-06
4.24014e-06
4.68458e-06
-4.94749e-06
-4.53148e-06
3.26789e-06
-4.49412e-06
3.73887e-06
-4.44417e-06
4.19019e-06
4.6228e-06
-4.3824e-06
-3.98208e-06
3.29698e-06
-3.98977e-06
3.74655e-06
-3.9783e-06
4.17872e-06
4.59434e-06
-3.94985e-06
-3.65252e-06
-3.69218e-06
-3.70711e-06
-3.70117e-06
-6.73151e-06
6.437e-05
-8.44749e-07
6.3459e-05
4.52779e-06
6.1492e-05
9.14678e-06
5.86678e-05
1.29002e-05
5.52258e-05
1.57619e-05
5.13994e-05
1.77789e-05
4.74061e-05
1.90542e-05
4.34319e-05
1.97165e-05
3.96153e-05
1.98954e-05
3.6046e-05
1.9707e-05
3.27737e-05
1.92495e-05
2.98179e-05
1.86022e-05
2.71782e-05
1.78277e-05
2.4841e-05
1.69744e-05
2.27852e-05
1.60787e-05
2.09858e-05
1.51677e-05
1.9417e-05
1.42604e-05
1.80536e-05
1.33699e-05
1.68721e-05
1.25049e-05
1.58515e-05
1.16703e-05
1.49731e-05
1.08686e-05
1.42207e-05
1.01004e-05
1.35804e-05
9.36483e-06
1.30405e-05
8.66041e-06
1.2591e-05
7.98487e-06
1.22235e-05
7.33562e-06
1.19314e-05
6.70985e-06
1.1709e-05
6.1046e-06
1.15517e-05
5.51683e-06
1.14561e-05
4.94352e-06
1.14196e-05
4.38165e-06
1.14403e-05
3.82829e-06
1.1517e-05
3.28056e-06
1.16492e-05
2.73571e-06
1.18365e-05
2.19119e-06
1.20782e-05
1.6448e-06
1.23722e-05
1.09499e-06
1.27114e-05
5.42139e-07
1.30691e-05
1.31884e-05
-7.3007e-06
5.93799e-05
-2.38226e-06
5.85405e-05
2.18673e-06
5.6923e-05
6.21576e-06
5.46388e-05
9.5978e-06
5.18438e-05
1.22925e-05
4.87047e-05
1.43156e-05
4.5383e-05
1.57258e-05
4.20217e-05
1.66062e-05
3.87348e-05
1.70481e-05
3.56041e-05
1.71398e-05
3.2682e-05
1.69605e-05
2.99971e-05
1.65783e-05
2.75604e-05
1.60494e-05
2.53699e-05
1.54192e-05
2.34154e-05
1.47233e-05
2.16817e-05
1.39891e-05
2.01512e-05
1.32371e-05
1.88056e-05
1.24822e-05
1.7627e-05
1.17349e-05
1.65988e-05
1.10022e-05
1.57058e-05
1.02885e-05
1.49344e-05
9.59614e-06
1.42728e-05
8.92612e-06
1.37105e-05
8.27826e-06
1.32388e-05
7.65165e-06
1.28501e-05
7.04486e-06
1.25382e-05
6.45608e-06
1.22978e-05
5.88322e-06
1.21246e-05
5.32404e-06
1.20153e-05
4.77617e-06
1.19675e-05
4.23719e-06
1.19792e-05
3.70468e-06
1.20495e-05
3.17623e-06
1.21777e-05
2.6495e-06
1.23632e-05
2.12235e-06
1.26054e-05
1.59293e-06
1.29016e-05
1.06006e-06
1.32443e-05
5.24491e-07
1.36047e-05
1.37129e-05
-7.97556e-06
5.51105e-05
-3.77167e-06
5.43366e-05
1.76907e-07
5.29745e-05
3.72515e-06
5.10906e-05
6.78119e-06
4.87877e-05
9.30125e-06
4.61846e-05
1.12834e-05
4.34008e-05
1.2759e-05
4.05462e-05
1.37808e-05
3.7713e-05
1.44126e-05
3.49723e-05
1.47202e-05
3.23743e-05
1.47664e-05
2.9951e-05
1.46074e-05
2.77194e-05
1.42919e-05
2.56853e-05
1.38609e-05
2.38464e-05
1.33474e-05
2.21951e-05
1.2778e-05
2.07206e-05
1.21733e-05
1.94103e-05
1.1549e-05
1.82513e-05
1.09168e-05
1.72311e-05
1.02851e-05
1.63375e-05
9.6597e-06
1.55598e-05
9.04456e-06
1.48879e-05
8.44197e-06
1.43131e-05
7.85305e-06
1.38277e-05
7.27805e-06
1.34251e-05
6.71659e-06
1.30997e-05
6.16776e-06
1.28466e-05
5.63032e-06
1.2662e-05
5.10272e-06
1.25429e-05
4.58327e-06
1.24869e-05
4.07011e-06
1.24924e-05
3.56133e-06
1.25583e-05
3.05499e-06
1.2684e-05
2.5492e-06
1.2869e-05
2.04221e-06
1.31123e-05
1.53258e-06
1.34112e-05
1.01948e-06
1.37574e-05
5.04051e-07
1.41201e-05
1.42169e-05
-8.75278e-06
5.13721e-05
-5.08268e-06
5.06665e-05
-1.61229e-06
4.95041e-05
1.55005e-06
4.79282e-05
4.32906e-06
4.60087e-05
6.68354e-06
4.38301e-05
8.60288e-06
4.14814e-05
1.01019e-05
3.90471e-05
1.12137e-05
3.66012e-05
1.19822e-05
3.42038e-05
1.24559e-05
3.19006e-05
1.26835e-05
2.97234e-05
1.27107e-05
2.76922e-05
1.25786e-05
2.58174e-05
1.23227e-05
2.41023e-05
1.19732e-05
2.25447e-05
1.15547e-05
2.1139e-05
1.10872e-05
1.98778e-05
1.05864e-05
1.87521e-05
1.00646e-05
1.77528e-05
9.53112e-06
1.6871e-05
8.99284e-06
1.60981e-05
8.45472e-06
1.5426e-05
7.92019e-06
1.48476e-05
7.39144e-06
1.43565e-05
6.86974e-06
1.39468e-05
6.3556e-06
1.36138e-05
5.84896e-06
1.33532e-05
5.34929e-06
1.31617e-05
4.85576e-06
1.30365e-05
4.36724e-06
1.29755e-05
3.88244e-06
1.29772e-05
3.39995e-06
1.30408e-05
2.91828e-06
1.31657e-05
2.43601e-06
1.33513e-05
1.95178e-06
1.35966e-05
1.46454e-06
1.38985e-05
9.73849e-07
1.42481e-05
4.8117e-07
1.46128e-05
1.46981e-05
-9.60455e-06
4.8034e-05
-6.33907e-06
4.74011e-05
-3.23935e-06
4.64044e-05
-3.8569e-07
4.50746e-05
2.16205e-06
4.34609e-05
4.36745e-06
4.16247e-05
6.21657e-06
3.96323e-05
7.71468e-06
3.7549e-05
8.88187e-06
3.54339e-05
9.74816e-06
3.33375e-05
1.0349e-05
3.12997e-05
1.07217e-05
2.93507e-05
1.09028e-05
2.75111e-05
1.09263e-05
2.57939e-05
1.08227e-05
2.42059e-05
1.06184e-05
2.27489e-05
1.03361e-05
2.14214e-05
9.99435e-06
2.02195e-05
9.60861e-06
1.91378e-05
9.19115e-06
1.81703e-05
8.75173e-06
1.73105e-05
8.29788e-06
1.65519e-05
7.83537e-06
1.58885e-05
7.36844e-06
1.53146e-05
6.90015e-06
1.48247e-05
6.43256e-06
1.44144e-05
5.96697e-06
1.40794e-05
5.50403e-06
1.38162e-05
5.04389e-06
1.36218e-05
4.58631e-06
1.3494e-05
4.13075e-06
1.3431e-05
3.67642e-06
1.34316e-05
3.22238e-06
1.34949e-05
2.76763e-06
1.36204e-05
2.31114e-06
1.38078e-05
1.85198e-06
1.40557e-05
1.38948e-06
1.4361e-05
9.23567e-07
1.4714e-05
4.55965e-07
1.50804e-05
1.51541e-05
-1.04939e-05
4.5005e-05
-7.54108e-06
4.44483e-05
-4.73182e-06
4.35951e-05
-2.12595e-06
4.24687e-05
2.29738e-07
4.11052e-05
2.3043e-06
3.95501e-05
4.08314e-06
3.78534e-05
5.56624e-06
3.60658e-05
6.76534e-06
3.42348e-05
7.70075e-06
3.24021e-05
8.39818e-06
3.06023e-05
8.886e-06
2.88628e-05
9.19312e-06
2.7204e-05
9.34732e-06
2.56397e-05
9.37434e-06
2.41789e-05
9.29721e-06
2.2826e-05
9.1361e-06
2.15825e-05
8.90825e-06
2.04473e-05
8.6282e-06
1.94179e-05
8.30797e-06
1.84905e-05
7.95736e-06
1.76611e-05
7.58428e-06
1.6925e-05
7.19495e-06
1.62779e-05
6.79421e-06
1.57153e-05
6.38575e-06
1.52332e-05
5.97229e-06
1.48278e-05
5.55574e-06
1.44959e-05
5.13738e-06
1.42345e-05
4.71793e-06
1.40413e-05
4.29769e-06
1.39143e-05
3.87664e-06
1.38521e-05
3.45446e-06
1.38537e-05
3.03069e-06
1.39186e-05
2.60473e-06
1.40464e-05
2.17597e-06
1.42365e-05
1.74389e-06
1.44878e-05
1.30816e-06
1.47967e-05
8.69069e-07
1.51531e-05
4.28621e-07
1.55209e-05
1.55827e-05
-1.13839e-05
4.2221e-05
-8.67807e-06
4.17424e-05
-6.10015e-06
4.10172e-05
-3.69523e-06
4.00637e-05
-1.49972e-06
3.89097e-05
4.60791e-07
3.75896e-05
2.1724e-06
3.61418e-05
3.63227e-06
3.4606e-05
4.84684e-06
3.30203e-05
5.82969e-06
3.14192e-05
6.5994e-06
2.98326e-05
7.17747e-06
2.82848e-05
7.5866e-06
2.67948e-05
7.84938e-06
2.53769e-05
7.98732e-06
2.4041e-05
8.02023e-06
2.27931e-05
7.9659e-06
2.16368e-05
7.83996e-06
2.05733e-05
7.65591e-06
1.96019e-05
7.42522e-06
1.87212e-05
7.15751e-06
1.79288e-05
6.86074e-06
1.72218e-05
6.54137e-06
1.65972e-05
6.20464e-06
1.6052e-05
5.85465e-06
1.55832e-05
5.49462e-06
1.51879e-05
5.12697e-06
1.48636e-05
4.75346e-06
1.4608e-05
4.37531e-06
1.44194e-05
3.9933e-06
1.42963e-05
3.60786e-06
1.42376e-05
3.21911e-06
1.42425e-05
2.82701e-06
1.43108e-05
2.43137e-06
1.4442e-05
2.03196e-06
1.4636e-05
1.62862e-06
1.48912e-05
1.22141e-06
1.52039e-05
8.10908e-07
1.55637e-05
3.99427e-07
1.59324e-05
1.59822e-05
-1.22426e-05
3.96366e-05
-9.7368e-06
3.92365e-05
-7.34704e-06
3.86274e-05
-5.10776e-06
3.78245e-05
-3.04745e-06
3.68494e-05
-1.18698e-06
3.57291e-05
4.61173e-07
3.44936e-05
1.89273e-06
3.31744e-05
3.1108e-06
3.18022e-05
4.12438e-06
3.04056e-05
4.94688e-06
2.90101e-05
5.59457e-06
2.76371e-05
6.08525e-06
2.63041e-05
6.4372e-06
2.5025e-05
6.66831e-06
2.38099e-05
6.79547e-06
2.2666e-05
6.83423e-06
2.15981e-05
6.79855e-06
2.06089e-05
6.70081e-06
1.96997e-05
6.55175e-06
1.88703e-05
6.36059e-06
1.81199e-05
6.13515e-06
1.74472e-05
5.88195e-06
1.68504e-05
5.60641e-06
1.63276e-05
5.31292e-06
1.58767e-05
5.00504e-06
1.54957e-05
4.68555e-06
1.5183e-05
4.35663e-06
1.49369e-05
4.0199e-06
1.47562e-05
3.67655e-06
1.46397e-05
3.32739e-06
1.45867e-05
2.97295e-06
1.4597e-05
2.61356e-06
1.46702e-05
2.2494e-06
1.48062e-05
1.88063e-06
1.50047e-05
1.50741e-06
1.52644e-05
1.13013e-06
1.55812e-05
7.49709e-07
1.59441e-05
3.68718e-07
1.63134e-05
1.63509e-05
-1.3045e-05
3.72197e-05
-1.07056e-05
3.68971e-05
-8.47269e-06
3.63945e-05
-6.37292e-06
3.57247e-05
-4.42877e-06
3.49053e-05
-2.65728e-06
3.39576e-05
-1.06929e-06
3.29056e-05
3.3047e-07
3.17746e-05
1.543e-06
3.05897e-05
2.57419e-06
2.93744e-05
3.43372e-06
2.81505e-05
4.13392e-06
2.69368e-05
4.68879e-06
2.57492e-05
5.11308e-06
2.46007e-05
5.4216e-06
2.35013e-05
5.62869e-06
2.24589e-05
5.74781e-06
2.1479e-05
5.79135e-06
2.05654e-05
5.77047e-06
1.97205e-05
5.69512e-06
1.89456e-05
5.57397e-06
1.82411e-05
5.41457e-06
1.76067e-05
5.22333e-06
1.70417e-05
5.00571e-06
1.65452e-05
4.76626e-06
1.61161e-05
4.50874e-06
1.57533e-05
4.23621e-06
1.54555e-05
3.95115e-06
1.5222e-05
3.6555e-06
1.50518e-05
3.3508e-06
1.49444e-05
3.03819e-06
1.48993e-05
2.71855e-06
1.49166e-05
2.39256e-06
1.49962e-05
2.06073e-06
1.5138e-05
1.72354e-06
1.5342e-05
1.38148e-06
1.56065e-05
1.03526e-06
1.59275e-05
6.86102e-07
1.62933e-05
3.36823e-07
1.66627e-05
1.66877e-05
-1.37731e-05
3.49472e-05
-1.15762e-05
3.47002e-05
-9.47756e-06
3.42959e-05
-7.49823e-06
3.37453e-05
-5.65614e-06
3.30632e-05
-3.96522e-06
3.22667e-05
-2.43483e-06
3.13752e-05
-1.06959e-06
3.04094e-05
1.30336e-07
2.93897e-05
1.1687e-06
2.83361e-05
2.05247e-06
2.72668e-05
2.79105e-06
2.61983e-05
3.39544e-06
2.51448e-05
3.87758e-06
2.41185e-05
4.24969e-06
2.31292e-05
4.52387e-06
2.21847e-05
4.71172e-06
2.12911e-05
4.82413e-06
2.0453e-05
4.87111e-06
1.96736e-05
4.86171e-06
1.8955e-05
4.80404e-06
1.82988e-05
4.70522e-06
1.77055e-05
4.57148e-06
1.71754e-05
4.40819e-06
1.67085e-05
4.21994e-06
1.63043e-05
4.0106e-06
1.59626e-05
3.78341e-06
1.56827e-05
3.54107e-06
1.54643e-05
3.28578e-06
1.53071e-05
3.01934e-06
1.52108e-05
2.74318e-06
1.51755e-05
2.4585e-06
1.52013e-05
2.16624e-06
1.52884e-05
1.86724e-06
1.54371e-05
1.56226e-06
1.56469e-05
1.25208e-06
1.59167e-05
9.37717e-07
1.62418e-05
6.20666e-07
1.66103e-05
3.03995e-07
1.69794e-05
1.69917e-05
-1.4416e-05
3.28024e-05
-1.23442e-05
3.26284e-05
-1.03636e-05
3.23152e-05
-8.49086e-06
3.18726e-05
-6.74054e-06
3.13128e-05
-5.12406e-06
3.06502e-05
-3.64938e-06
2.99006e-05
-2.3208e-06
2.90808e-05
-1.13913e-06
2.82081e-05
-1.0199e-07
2.72989e-05
7.95648e-07
2.63691e-05
1.56093e-06
2.5433e-05
2.20254e-06
2.45032e-05
2.73012e-06
2.3591e-05
3.15374e-06
2.27056e-05
3.4836e-06
2.18549e-05
3.72965e-06
2.10451e-05
3.90139e-06
2.02813e-05
4.00773e-06
1.95672e-05
4.05685e-06
1.89059e-05
4.05622e-06
1.82994e-05
4.01252e-06
1.77492e-05
3.93169e-06
1.72562e-05
3.81892e-06
1.68212e-05
3.67877e-06
1.64445e-05
3.51512e-06
1.61262e-05
3.33133e-06
1.58665e-05
3.13024e-06
1.56654e-05
2.91424e-06
1.55231e-05
2.68533e-06
1.54397e-05
2.4452e-06
1.54156e-05
2.19528e-06
1.54512e-05
1.93679e-06
1.55469e-05
1.6708e-06
1.5703e-05
1.39834e-06
1.59194e-05
1.12045e-06
1.61945e-05
8.38388e-07
1.65239e-05
5.53919e-07
1.68948e-05
2.70365e-07
1.7263e-05
1.72621e-05
-1.49676e-05
3.07734e-05
-1.30085e-05
3.06694e-05
-1.11342e-05
3.04409e-05
-9.35812e-06
3.00966e-05
-7.69212e-06
2.96468e-05
-6.1456e-06
2.91037e-05
-4.7253e-06
2.84802e-05
-3.43511e-06
2.77906e-05
-2.27615e-06
2.70491e-05
-1.24699e-06
2.62698e-05
-3.43962e-07
2.54661e-05
4.38391e-07
2.46506e-05
1.10689e-06
2.38347e-05
1.6693e-06
2.30285e-05
2.13396e-06
2.22409e-05
2.50942e-06
2.14794e-05
2.80419e-06
2.07504e-05
3.02653e-06
2.0059e-05
3.18431e-06
1.94095e-05
3.28491e-06
1.88053e-05
3.33512e-06
1.82492e-05
3.34115e-06
1.77431e-05
3.30859e-06
1.72888e-05
3.24243e-06
1.68874e-05
3.14709e-06
1.65399e-05
3.02643e-06
1.62469e-05
2.88384e-06
1.60091e-05
2.72225e-06
1.5827e-05
2.54417e-06
1.57012e-05
2.35178e-06
1.56321e-05
2.14696e-06
1.56204e-05
1.93132e-06
1.56668e-05
1.70631e-06
1.57719e-05
1.47323e-06
1.59361e-05
1.2333e-06
1.61593e-05
9.87801e-07
1.644e-05
7.38185e-07
1.67735e-05
4.86433e-07
1.71465e-05
2.36147e-07
1.75133e-05
1.74983e-05
-1.54259e-05
2.88516e-05
-1.35706e-05
2.88141e-05
-1.17941e-05
2.86643e-05
-1.01074e-05
2.84099e-05
-8.52025e-06
2.80597e-05
-7.04038e-06
2.76238e-05
-5.67349e-06
2.71134e-05
-4.42307e-06
2.65402e-05
-3.29036e-06
2.59164e-05
-2.27458e-06
2.5254e-05
-1.37307e-06
2.45646e-05
-5.81672e-07
2.38592e-05
1.0501e-07
2.3148e-05
6.9323e-07
2.24403e-05
1.18984e-06
2.17443e-05
1.60202e-06
2.10673e-05
1.93703e-06
2.04154e-05
2.20204e-06
1.9794e-05
2.40397e-06
1.92076e-05
2.54941e-06
1.86599e-05
2.64454e-06
1.81541e-05
2.69506e-06
1.76926e-05
2.7062e-06
1.72777e-05
2.68269e-06
1.69109e-05
2.62878e-06
1.65938e-05
2.54825e-06
1.63274e-05
2.44447e-06
1.61129e-05
2.32041e-06
1.59511e-05
2.17866e-06
1.58429e-05
2.02152e-06
1.57892e-05
1.85102e-06
1.57909e-05
1.66893e-06
1.58489e-05
1.47686e-06
1.5964e-05
1.2763e-06
1.61367e-05
1.06865e-06
1.6367e-05
8.55368e-07
1.66533e-05
6.38082e-07
1.69908e-05
4.18945e-07
1.73657e-05
2.01822e-07
1.77304e-05
1.77001e-05
-1.57918e-05
2.70305e-05
-1.40337e-05
2.7056e-05
-1.23487e-05
2.69793e-05
-1.0746e-05
2.68071e-05
-9.23347e-06
2.65471e-05
-7.81768e-06
2.6208e-05
-6.50347e-06
2.57992e-05
-5.2939e-06
2.53307e-05
-4.19029e-06
2.48128e-05
-3.19225e-06
2.42559e-05
-2.29792e-06
2.36702e-05
-1.50412e-06
2.30654e-05
-8.06615e-07
2.24505e-05
-2.00341e-07
2.1834e-05
3.20358e-07
2.12236e-05
7.61464e-07
2.06262e-05
1.12916e-06
2.00477e-05
1.42966e-06
1.94935e-05
1.66904e-06
1.89682e-05
1.85317e-06
1.84758e-05
1.98762e-06
1.80196e-05
2.07761e-06
1.76027e-05
2.12798e-06
1.72273e-05
2.14319e-06
1.68957e-05
2.12728e-06
1.66097e-05
2.08393e-06
1.63708e-05
2.01643e-06
1.61803e-05
1.92776e-06
1.60397e-05
1.82056e-06
1.59501e-05
1.6972e-06
1.59126e-05
1.55979e-06
1.59283e-05
1.41026e-06
1.59984e-05
1.25035e-06
1.61239e-05
1.08167e-06
1.63054e-05
9.05811e-07
1.65429e-05
7.2435e-07
1.68348e-05
5.39062e-07
1.71761e-05
3.52246e-07
1.75525e-05
1.67981e-07
1.79147e-05
1.78681e-05
-1.60677e-05
2.53055e-05
-1.44019e-05
2.53902e-05
-1.28036e-05
2.5381e-05
-1.12805e-05
2.52841e-05
-9.8394e-06
2.5106e-05
-8.48568e-06
2.48543e-05
-7.22352e-06
2.4537e-05
-6.05566e-06
2.41628e-05
-4.9834e-06
2.37405e-05
-4.00668e-06
2.32792e-05
-3.12421e-06
2.27877e-05
-2.33358e-06
2.22747e-05
-1.63146e-06
2.17484e-05
-1.01376e-06
2.12163e-05
-4.75841e-07
2.06857e-05
-1.26735e-08
2.0163e-05
3.81003e-07
1.9654e-05
7.10536e-07
1.9164e-05
9.81257e-07
1.86975e-05
1.19837e-06
1.82587e-05
1.36689e-06
1.78512e-05
1.49156e-06
1.7478e-05
1.57685e-06
1.71421e-05
1.62692e-06
1.68457e-05
1.6456e-06
1.6591e-05
1.63642e-06
1.63799e-05
1.6026e-06
1.62142e-05
1.54706e-06
1.60953e-05
1.47246e-06
1.60247e-05
1.38121e-06
1.60038e-05
1.27551e-06
1.6034e-05
1.15734e-06
1.61166e-05
1.02857e-06
1.62527e-05
8.90934e-07
1.6443e-05
7.46125e-07
1.66877e-05
5.95859e-07
1.69851e-05
4.42021e-07
1.733e-05
2.87025e-07
1.77076e-05
1.35083e-07
1.80667e-05
1.80032e-05
-1.6257e-05
2.36728e-05
-1.46794e-05
2.38125e-05
-1.31639e-05
2.38656e-05
-1.17172e-05
2.38373e-05
-1.03448e-05
2.37337e-05
-9.05152e-06
2.3561e-05
-7.8409e-06
2.33264e-05
-6.7154e-06
2.30373e-05
-5.67634e-06
2.27014e-05
-4.72389e-06
2.23267e-05
-3.85718e-06
2.1921e-05
-3.07441e-06
2.14919e-05
-2.37296e-06
2.10469e-05
-1.74954e-06
2.05929e-05
-1.20034e-06
2.01365e-05
-7.21142e-07
1.96838e-05
-3.0747e-07
1.92403e-05
4.52972e-08
1.88112e-05
3.41809e-07
1.8401e-05
5.86666e-07
1.80138e-05
7.84352e-07
1.76535e-05
9.39181e-07
1.73232e-05
1.05525e-06
1.7026e-05
1.13644e-06
1.67645e-05
1.18634e-06
1.65411e-05
1.20833e-06
1.63579e-05
1.20552e-06
1.6217e-05
1.18077e-06
1.612e-05
1.13671e-06
1.60687e-05
1.07578e-06
1.60648e-05
1.00019e-06
1.61097e-05
9.12008e-07
1.62048e-05
8.1317e-07
1.63515e-05
7.05508e-07
1.65507e-05
5.90811e-07
1.68024e-05
4.70892e-07
1.7105e-05
3.47726e-07
1.74531e-05
2.23804e-07
1.78315e-05
1.03384e-07
1.81871e-05
1.81066e-05
-1.63634e-05
2.21293e-05
-1.48706e-05
2.23197e-05
-1.34348e-05
2.24298e-05
-1.20616e-05
2.24641e-05
-1.07558e-05
2.24279e-05
-9.52154e-06
2.23267e-05
-8.36201e-06
2.21668e-05
-7.27943e-06
2.19547e-05
-6.27509e-06
2.16971e-05
-5.34935e-06
2.1401e-05
-4.50167e-06
2.10733e-05
-3.73073e-06
2.0721e-05
-3.03447e-06
2.03507e-05
-2.41024e-06
1.99687e-05
-1.85491e-06
1.95812e-05
-1.36496e-06
1.91938e-05
-9.36576e-07
1.88119e-05
-5.65792e-07
1.84404e-05
-2.48543e-07
1.80837e-05
1.92374e-08
1.77461e-05
2.4155e-07
1.74312e-05
4.22291e-07
1.71425e-05
5.65214e-07
1.68831e-05
6.73899e-07
1.66558e-05
7.51738e-07
1.64633e-05
8.01919e-07
1.63078e-05
8.27431e-07
1.61915e-05
8.31059e-07
1.61164e-05
8.15396e-07
1.60844e-05
7.82848e-07
1.60974e-05
7.35658e-07
1.61569e-05
6.75926e-07
1.62646e-05
6.05636e-07
1.64218e-05
5.26694e-07
1.66296e-05
4.40962e-07
1.68881e-05
3.50324e-07
1.71957e-05
2.56819e-07
1.75467e-05
1.62969e-07
1.79254e-05
7.30028e-08
1.82771e-05
1.81796e-05
-1.63907e-05
2.06721e-05
-1.49799e-05
2.0909e-05
-1.3621e-05
2.10709e-05
-1.23189e-05
2.1162e-05
-1.10778e-05
2.11868e-05
-9.90149e-06
2.11504e-05
-8.79266e-06
2.1058e-05
-7.75344e-06
2.09155e-05
-6.78509e-06
2.07287e-05
-5.8881e-06
2.0504e-05
-5.0622e-06
2.02474e-05
-4.30642e-06
1.99652e-05
-3.61919e-06
1.96634e-05
-2.99839e-06
1.93479e-05
-2.44143e-06
1.90242e-05
-1.94536e-06
1.86978e-05
-1.50696e-06
1.83735e-05
-1.12281e-06
1.80562e-05
-7.89386e-07
1.77503e-05
-5.031e-07
1.74598e-05
-2.60378e-07
1.71885e-05
-5.77037e-08
1.69398e-05
1.08348e-07
1.67171e-05
2.41079e-07
1.65231e-05
3.43658e-07
1.63607e-05
4.19101e-07
1.62323e-05
4.70263e-07
1.61403e-05
4.99836e-07
1.60868e-05
5.10347e-07
1.60739e-05
5.0417e-07
1.61036e-05
4.83541e-07
1.61775e-05
4.50577e-07
1.62976e-05
4.07296e-07
1.64651e-05
3.55648e-07
1.66813e-05
2.97547e-07
1.69462e-05
2.34927e-07
1.72583e-05
1.69851e-07
1.76118e-05
1.04826e-07
1.79904e-05
4.39832e-08
1.8338e-05
1.82236e-05
-1.63428e-05
1.92986e-05
-1.50115e-05
1.95776e-05
-1.3727e-05
1.97864e-05
-1.2494e-05
1.99289e-05
-1.13161e-05
2.00089e-05
-1.01966e-05
2.00309e-05
-9.13816e-06
1.99995e-05
-8.14263e-06
1.99199e-05
-7.2113e-06
1.97974e-05
-6.34476e-06
1.96375e-05
-5.54293e-06
1.94456e-05
-4.80516e-06
1.92275e-05
-4.13025e-06
1.89885e-05
-3.5165e-06
1.87342e-05
-2.96181e-06
1.84695e-05
-2.4637e-06
1.81996e-05
-2.01945e-06
1.79293e-05
-1.62613e-06
1.76629e-05
-1.28066e-06
1.74048e-05
-9.79888e-07
1.7159e-05
-7.2064e-07
1.69292e-05
-4.99745e-07
1.67189e-05
-3.14084e-07
1.65314e-05
-1.60609e-07
1.63696e-05
-3.63681e-08
1.62365e-05
6.14788e-08
1.61345e-05
1.35646e-07
1.60662e-05
1.88716e-07
1.60338e-05
2.23142e-07
1.60395e-05
2.41249e-07
1.60855e-05
2.45252e-07
1.61735e-05
2.37262e-07
1.63056e-05
2.19316e-07
1.64831e-05
1.93388e-07
1.67072e-05
1.61423e-07
1.69782e-05
1.2538e-07
1.72943e-05
8.73179e-08
1.76498e-05
4.96637e-08
1.80281e-05
1.62656e-08
1.83714e-05
1.82399e-05
-1.62237e-05
1.80064e-05
-1.49693e-05
1.83232e-05
-1.37573e-05
1.85744e-05
-1.25915e-05
1.87631e-05
-1.14753e-05
1.88928e-05
-1.04118e-05
1.89674e-05
-9.40339e-06
1.89911e-05
-8.4518e-06
1.89683e-05
-7.55831e-06
1.89039e-05
-6.72359e-06
1.88027e-05
-5.94776e-06
1.86698e-05
-5.2304e-06
1.85101e-05
-4.57061e-06
1.83287e-05
-3.96705e-06
1.81306e-05
-3.41801e-06
1.79205e-05
-2.92145e-06
1.77031e-05
-2.47505e-06
1.74829e-05
-2.0763e-06
1.72642e-05
-1.72253e-06
1.70511e-05
-1.41096e-06
1.68475e-05
-1.13877e-06
1.66571e-05
-9.03115e-07
1.64833e-05
-7.01144e-07
1.63294e-05
-5.30058e-07
1.61986e-05
-3.87114e-07
1.60935e-05
-2.69646e-07
1.6017e-05
-1.75082e-07
1.59716e-05
-1.00951e-07
1.59597e-05
-4.48887e-08
1.59835e-05
-4.62901e-09
1.60452e-05
2.20029e-08
1.61469e-05
3.71035e-08
1.62905e-05
4.27056e-08
1.64775e-05
4.0795e-08
1.67092e-05
3.33317e-08
1.69857e-05
2.22804e-08
1.73054e-05
9.67006e-09
1.76625e-05
-2.2392e-09
1.804e-05
-1.04373e-08
1.83796e-05
1.82295e-05
-1.60371e-05
1.67932e-05
-1.48576e-05
1.71438e-05
-1.3716e-05
1.74327e-05
-1.26157e-05
1.76628e-05
-1.15601e-05
1.78372e-05
-1.05517e-05
1.79591e-05
-9.59288e-06
1.80323e-05
-8.68534e-06
1.80608e-05
-7.83032e-06
1.80489e-05
-7.02856e-06
1.8001e-05
-6.28032e-06
1.79216e-05
-5.58538e-06
1.78152e-05
-4.9431e-06
1.76865e-05
-4.35245e-06
1.75399e-05
-3.81203e-06
1.73801e-05
-3.32017e-06
1.72112e-05
-2.87491e-06
1.70376e-05
-2.47409e-06
1.68634e-05
-2.1154e-06
1.66924e-05
-1.7964e-06
1.65285e-05
-1.51458e-06
1.63753e-05
-1.26738e-06
1.62361e-05
-1.0522e-06
1.61143e-05
-8.66472e-07
1.60128e-05
-7.07653e-07
1.59347e-05
-5.73249e-07
1.58826e-05
-4.60832e-07
1.58592e-05
-3.68052e-07
1.58669e-05
-2.92637e-07
1.59081e-05
-2.32391e-07
1.5985e-05
-1.85185e-07
1.60997e-05
-1.48954e-07
1.62543e-05
-1.21682e-07
1.64502e-05
-1.01387e-07
1.66889e-05
-8.611e-08
1.69704e-05
-7.38929e-08
1.72932e-05
-6.27573e-08
1.76514e-05
-5.06785e-08
1.8028e-05
-3.56873e-08
1.83647e-05
1.81938e-05
-1.5787e-05
1.56567e-05
-1.46803e-05
1.60371e-05
-1.36072e-05
1.63596e-05
-1.25709e-05
1.66266e-05
-1.15745e-05
1.68407e-05
-1.06204e-05
1.7005e-05
-9.71078e-06
1.71227e-05
-8.84731e-06
1.71974e-05
-8.03123e-06
1.72328e-05
-7.26333e-06
1.72331e-05
-6.544e-06
1.72022e-05
-5.87319e-06
1.71444e-05
-5.25047e-06
1.70637e-05
-4.67507e-06
1.69645e-05
-4.14587e-06
1.68509e-05
-3.66149e-06
1.67268e-05
-3.22029e-06
1.65964e-05
-2.82043e-06
1.64635e-05
-2.45989e-06
1.63319e-05
-2.13653e-06
1.62052e-05
-1.84812e-06
1.60869e-05
-1.59235e-06
1.59803e-05
-1.36687e-06
1.58888e-05
-1.16931e-06
1.58153e-05
-9.97324e-07
1.57627e-05
-8.48581e-07
1.57339e-05
-7.20799e-07
1.57314e-05
-6.11746e-07
1.57579e-05
-5.1925e-07
1.58156e-05
-4.41189e-07
1.5907e-05
-3.75497e-07
1.60341e-05
-3.20148e-07
1.61989e-05
-2.73156e-07
1.64033e-05
-2.32558e-07
1.66483e-05
-1.96405e-07
1.69343e-05
-1.62758e-07
1.72596e-05
-1.29698e-07
1.76183e-05
-9.53712e-08
1.79937e-05
-5.8094e-08
1.83274e-05
1.81357e-05
-1.54773e-05
1.45947e-05
-1.44413e-05
1.50011e-05
-1.34349e-05
1.53531e-05
-1.2461e-05
1.56527e-05
-1.15226e-05
1.59023e-05
-1.06219e-05
1.61043e-05
-9.76097e-06
1.62618e-05
-8.94147e-06
1.63779e-05
-8.16464e-06
1.6456e-05
-7.43133e-06
1.64998e-05
-6.742e-06
1.65129e-05
-6.09677e-06
1.64991e-05
-5.49537e-06
1.64623e-05
-4.93726e-06
1.64064e-05
-4.42156e-06
1.63351e-05
-3.94713e-06
1.62524e-05
-3.5126e-06
1.61619e-05
-3.1164e-06
1.60673e-05
-2.75678e-06
1.59723e-05
-2.43187e-06
1.58802e-05
-2.13966e-06
1.57946e-05
-1.87809e-06
1.57187e-05
-1.64502e-06
1.56557e-05
-1.43829e-06
1.56085e-05
-1.25571e-06
1.55801e-05
-1.09513e-06
1.55733e-05
-9.54396e-07
1.55907e-05
-8.31404e-07
1.56349e-05
-7.24077e-07
1.57083e-05
-6.3038e-07
1.58133e-05
-5.48308e-07
1.5952e-05
-4.75892e-07
1.61265e-05
-4.11182e-07
1.63386e-05
-3.52245e-07
1.65894e-05
-2.97152e-07
1.68792e-05
-2.43987e-07
1.72065e-05
-1.90859e-07
1.75652e-05
-1.35974e-07
1.79388e-05
-7.77311e-08
1.82692e-05
1.8058e-05
-1.51117e-05
1.36049e-05
-1.41444e-05
1.40338e-05
-1.32027e-05
1.44115e-05
-1.22898e-05
1.47398e-05
-1.1408e-05
1.50205e-05
-1.05598e-05
1.52561e-05
-9.74706e-06
1.5449e-05
-8.97137e-06
1.56022e-05
-8.23399e-06
1.57186e-05
-7.53581e-06
1.58016e-05
-6.87739e-06
1.58545e-05
-6.25895e-06
1.58807e-05
-5.6804e-06
1.58838e-05
-5.14136e-06
1.58674e-05
-4.64115e-06
1.58349e-05
-4.17886e-06
1.57901e-05
-3.75333e-06
1.57364e-05
-3.36323e-06
1.56772e-05
-3.00704e-06
1.56161e-05
-2.68312e-06
1.55563e-05
-2.38969e-06
1.55012e-05
-2.12488e-06
1.54539e-05
-1.88676e-06
1.54176e-05
-1.67335e-06
1.53951e-05
-1.48263e-06
1.53894e-05
-1.31261e-06
1.54033e-05
-1.16126e-06
1.54394e-05
-1.02661e-06
1.55003e-05
-9.06666e-07
1.55884e-05
-7.99492e-07
1.57061e-05
-7.03154e-07
1.58557e-05
-6.15738e-07
1.60391e-05
-5.35343e-07
1.62582e-05
-4.60072e-07
1.65141e-05
-3.88024e-07
1.68072e-05
-3.17304e-07
1.71358e-05
-2.46041e-07
1.7494e-05
-1.72464e-07
1.78653e-05
-9.4986e-08
1.81917e-05
1.7963e-05
-1.46939e-05
1.26849e-05
-1.3793e-05
1.31329e-05
-1.29144e-05
1.35328e-05
-1.20606e-05
1.3886e-05
-1.12343e-05
1.41943e-05
-1.04377e-05
1.44594e-05
-9.67249e-06
1.46838e-05
-8.94035e-06
1.487e-05
-8.24251e-06
1.50208e-05
-7.57989e-06
1.5139e-05
-6.95312e-06
1.52277e-05
-6.36252e-06
1.52901e-05
-5.80813e-06
1.53294e-05
-5.2897e-06
1.53489e-05
-4.80674e-06
1.5352e-05
-4.35851e-06
1.53419e-05
-3.94406e-06
1.53219e-05
-3.56225e-06
1.52954e-05
-3.21177e-06
1.52656e-05
-2.89117e-06
1.52357e-05
-2.59887e-06
1.52089e-05
-2.33319e-06
1.51883e-05
-2.09238e-06
1.51768e-05
-1.87464e-06
1.51774e-05
-1.67811e-06
1.51929e-05
-1.50094e-06
1.52261e-05
-1.34124e-06
1.52797e-05
-1.19713e-06
1.53562e-05
-1.06675e-06
1.5458e-05
-9.48231e-07
1.55876e-05
-8.39723e-07
1.57472e-05
-7.39375e-07
1.59388e-05
-6.4534e-07
1.61642e-05
-5.55761e-07
1.64246e-05
-4.68772e-07
1.67202e-05
-3.82503e-07
1.70495e-05
-2.95106e-07
1.74066e-05
-2.04826e-07
1.7775e-05
-1.10128e-07
1.80971e-05
1.78529e-05
-1.42274e-05
1.18321e-05
-1.33908e-05
1.22962e-05
-1.25731e-05
1.27152e-05
-1.1777e-05
1.309e-05
-1.10049e-05
1.34221e-05
-1.02588e-05