/*--------------------------------*- C++ -*----------------------------------*\
  =========                 |
  \\      /  F ield         | OpenFOAM: The Open Source CFD Toolbox
   \\    /   O peration     | Website:  https://openfoam.org
    \\  /    A nd           | Version:  7
     \\/     M anipulation  |
\*---------------------------------------------------------------------------*/
FoamFile
{
    version     2.0;
    format      ascii;
    class       Cloud<passiveParticle>;
    location    "0.00072/lagrangian/dsmc";
    object      positions;
}
// * * * * * * * * * * * * * * * * * * * * * * * * * * * * * * * * * * * * * //

81998
(
(0.979578 0.0102108 0 0.0102108) 2 2 1
(0.3705 0.31475 0 0.31475) 1 1 1
(0.553674 0.223163 0.223163 0) 2 1 1
(0.0429661 0.478517 0 0.478517) 1 1 1
(0.3887 0.30565 0.30565 0) 0 500 2
(0.184276 0.407862 0 0.407862) 0 0 1
(0.560843 0.219578 0.219578 0) 4 3 1
(0.931239 0.0343806 0.0343806 0) 0 0 2
(0.49877 0.250615 0 0.250615) 5 5 1
(0.265788 0.367106 0 0.367106) 5 5 1
(0.0793732 0.460313 0 0.460313) 5 4 2
(0.351925 0.324038 0 0.324038) 1 1 1
(0.589658 0.205171 0 0.205171) 0 0 1
(0.458152 0.270924 0.270924 0) 2 1 1
(0.353439 0.323281 0.323281 0) 1 0 1
(0.502999 0.2485 0.2485 0) 0 500 2
(0.500582 0.249709 0 0.249709) 4 4 1
(0.23827 0.380865 0.380865 0) 2 1 1
(0.671084 0.164458 0.164458 0) 1 1 2
(0.278596 0.360702 0.360702 0) 3 2 1
(0.946457 0.0267713 0 0.0267713) 2 1 2
(0.857978 0.071011 0.071011 0) 1 1 2
(0.122311 0.438845 0.438845 0) 0 500 2
(0.771525 0.114237 0 0.114237) 6 5 2
(0.45656 0.27172 0.27172 0) 0 0 2
(0.617374 0.191313 0 0.191313) 1 0 2
(0.910261 0.0448693 0.0448693 0) 1 1 2
(0.984287 0.00785649 0.00785649 0) 1 1 2
(0.392591 0.303705 0 0.303705) 4 4 1
(0.687917 0.156041 0.156041 0) 4 3 1
(0.497182 0.251409 0 0.251409) 1 0 2
(0.447214 0.276393 0.276393 0) 2 1 1
(0.315464 0.342268 0 0.342268) 6 5 2
(0.491339 0.25433 0.25433 0) 1 1 2
(0.0697754 0.465112 0.465112 0) 3 2 1
(0.957587 0.0212065 0.0212065 0) 6 6 2
(0.615865 0.192068 0 0.192068) 1 0 2
(0.205636 0.397182 0 0.397182) 1 0 2
(0.603788 0.198106 0 0.198106) 3 2 2
(0.143762 0.428119 0 0.428119) 1 0 2
(0.124562 0.437719 0 0.437719) 1 0 2
(0.542616 0.228692 0 0.228692) 2 1 2
(0.686283 0.156858 0 0.156858) 0 0 1
(0.961192 0.019404 0.019404 0) 3 3 2
(0.712628 0.143686 0.143686 0) 2 2 2
(0.370614 0.314693 0.314693 0) 2 2 2
(0.347493 0.326254 0 0.326254) 1 1 1
(0.0803202 0.45984 0 0.45984) 3 2 2
(0.651449 0.174276 0.174276 0) 1 0 1
(0.622875 0.188562 0.188562 0) 1 0 1
(0.744709 0.127645 0 0.127645) 2 1 2
(0.450689 0.274656 0 0.274656) 1 0 2
(0.665396 0.167302 0 0.167302) 2 2 1
(0.26878 0.36561 0 0.36561) 1 0 2
(0.120508 0.439746 0.439746 0) 1 1 2
(0.247866 0.376067 0 0.376067) 1 1 1
(0.180257 0.409872 0.409872 0) 0 0 2
(0.75274 0.12363 0 0.12363) 2 1 2
(0.337563 0.331219 0 0.331219) 1 0 2
(0.0410282 0.479486 0.479486 0) 5 4 1
(0.234551 0.382725 0 0.382725) 1 0 2
(0.906506 0.0467472 0.0467472 0) 3 3 2
(0.809159 0.0954204 0.0954204 0) 0 500 2
(0.597107 0.201447 0.201447 0) 1 0 1
(0.788208 0.105896 0.105896 0) 2 1 1
(0.623668 0.188166 0 0.188166) 1 1 1
(0.868039 0.0659803 0.0659803 0) 3 2 1
(0.982768 0.00861613 0 0.00861613) 2 1 2
(0.13496 0.43252 0 0.43252) 5 5 1
(0.914911 0.0425444 0.0425444 0) 0 500 2
(0.885081 0.0574594 0.0574594 0) 2 1 1
(0.130377 0.434811 0 0.434811) 1 1 1
(0.439541 0.280229 0.280229 0) 0 500 2
(0.133197 0.433401 0.433401 0) 1 0 1
(0.531206 0.234397 0 0.234397) 3 2 2
(0.418783 0.290609 0.290609 0) 0 500 2
(0.408712 0.295644 0.295644 0) 5 5 2
(0.522735 0.238632 0.238632 0) 0 0 2
(0.969852 0.0150739 0 0.0150739) 1 1 1
(0.475337 0.262332 0.262332 0) 0 500 2
(0.422119 0.28894 0.28894 0) 0 500 2
(0.316191 0.341905 0.341905 0) 2 1 1
(0.925385 0.0373076 0 0.0373076) 0 500 1
(0.631641 0.184179 0 0.184179) 1 0 2
(0.578685 0.210657 0 0.210657) 3 2 2
(0.394599 0.3027 0.3027 0) 4 3 1
(0.759223 0.120388 0 0.120388) 3 2 2
(0.0707205 0.46464 0 0.46464) 2 1 2
(0.685976 0.157012 0 0.157012) 2 1 2
(0.876047 0.0619764 0.0619764 0) 0 500 2
(0.0440281 0.477986 0 0.477986) 0 0 1
(0.433966 0.283017 0 0.283017) 3 2 2
(0.439702 0.280149 0.280149 0) 0 0 2
(0.857201 0.0713993 0 0.0713993) 0 500 1
(0.114001 0.442999 0 0.442999) 0 500 1
(0.732004 0.133998 0.133998 0) 3 3 2
(0.595664 0.202168 0.202168 0) 0 500 2
(0.540497 0.229751 0 0.229751) 0 500 1
(0.547192 0.226404 0.226404 0) 0 0 2
(0.190912 0.404544 0 0.404544) 2 1 2
(0.86044 0.06978 0.06978 0) 0 0 2
(0.92076 0.0396202 0 0.0396202) 0 500 1
(0.663412 0.168294 0 0.168294) 3 2 2
(0.601246 0.199377 0 0.199377) 2 2 1
(0.927982 0.036009 0.036009 0) 2 2 2
(0.289715 0.355143 0 0.355143) 2 2 1
(0.520053 0.239973 0 0.239973) 1 0 2
(0.224153 0.387924 0.387924 0) 4 4 2
(0.214457 0.392772 0 0.392772) 0 500 1
(0.767006 0.116497 0.116497 0) 2 2 2
(0.592817 0.203592 0 0.203592) 2 2 1
(0.0301634 0.484918 0 0.484918) 0 0 1
(0.97633 0.0118351 0 0.0118351) 1 1 1
(0.266053 0.366973 0 0.366973) 1 0 2
(0.661174 0.169413 0.169413 0) 1 1 2
(0.54096 0.22952 0.22952 0) 0 0 2
(0.911684 0.0441582 0.0441582 0) 2 2 2
(0.930405 0.0347974 0.0347974 0) 0 0 2
(0.315055 0.342473 0.342473 0) 0 0 2
(0.507902 0.246049 0.246049 0) 2 1 1
(0.474863 0.262568 0 0.262568) 1 0 2
(0.81238 0.0938098 0.0938098 0) 0 0 2
(0.337391 0.331304 0 0.331304) 4 3 2
(0.0841273 0.457936 0 0.457936) 1 0 2
(0.944064 0.0279679 0.0279679 0) 3 3 2
(0.620676 0.189662 0.189662 0) 1 1 2
(0.72862 0.13569 0 0.13569) 1 1 1
(0.508699 0.24565 0.24565 0) 3 3 2
(0.846104 0.0769482 0 0.0769482) 7 6 2
(0.466206 0.266897 0.266897 0) 1 0 1
(0.0193921 0.490304 0 0.490304) 3 2 2
(0.0018183 0.499091 0.499091 0) 1 1 2
(0.336011 0.331994 0.331994 0) 0 500 2
(0.507954 0.246023 0.246023 0) 0 500 2
(0.393451 0.303275 0 0.303275) 7 6 2
(0.0032469 0.498377 0.498377 0) 4 3 1
(0.292412 0.353794 0.353794 0) 1 1 2
(0.185747 0.407126 0.407126 0) 0 0 2
(0.341983 0.329008 0 0.329008) 0 500 1
(0.230029 0.384986 0 0.384986) 0 0 1
(0.884708 0.0576458 0 0.0576458) 2 1 2
(0.457069 0.271466 0.271466 0) 1 0 1
(0.480702 0.259649 0.259649 0) 1 1 2
(0.126879 0.43656 0 0.43656) 0 0 1
(0.565199 0.2174 0.2174 0) 2 1 1
(0.129148 0.435426 0.435426 0) 3 3 2
(0.0859897 0.457005 0.457005 0) 5 5 2
(0.418224 0.290888 0.290888 0) 4 3 1
(0.489553 0.255223 0 0.255223) 3 3 1
(0.931791 0.0341044 0.0341044 0) 3 2 1
(0.522638 0.238681 0.238681 0) 1 0 1
(0.975908 0.0120458 0 0.0120458) 0 500 1
(0.245291 0.377354 0.377354 0) 0 500 2
(0.100015 0.449993 0 0.449993) 3 2 2
(0.872579 0.0637104 0.0637104 0) 5 5 2
(0.643633 0.178183 0 0.178183) 3 2 2
(0.0299038 0.485048 0 0.485048) 1 0 2
(0.3281 0.33595 0 0.33595) 1 0 2
(0.790643 0.104679 0 0.104679) 0 500 1
(0.333784 0.333108 0.333108 0) 1 0 1
(0.348505 0.325748 0.325748 0) 0 500 2
(0.498992 0.250504 0.250504 0) 1 1 2
(0.760782 0.119609 0 0.119609) 1 0 2
(0.674769 0.162616 0 0.162616) 1 1 1
(0.834601 0.0826994 0 0.0826994) 3 2 2
(0.267271 0.366365 0.366365 0) 1 0 1
(0.796594 0.101703 0.101703 0) 3 3 2
(0.709355 0.145323 0 0.145323) 0 0 1
(0.695585 0.152208 0 0.152208) 2 2 1
(0.643051 0.178474 0 0.178474) 1 0 2
(0.642855 0.178572 0 0.178572) 3 2 2
(0.388748 0.305626 0.305626 0) 5 5 2
(0.737819 0.131091 0.131091 0) 1 0 1
(0.71866 0.14067 0 0.14067) 1 0 2
(0.435735 0.282132 0.282132 0) 0 0 2
(0.160068 0.419966 0 0.419966) 1 1 1
(0.436803 0.281598 0.281598 0) 2 2 2
(0.599272 0.200364 0.200364 0) 2 2 2
(0.745918 0.127041 0.127041 0) 0 0 2
(0.718623 0.140688 0 0.140688) 0 0 1
(0.443552 0.278224 0.278224 0) 0 500 2
(0.929417 0.0352916 0 0.0352916) 2 2 1
(0.547885 0.226058 0 0.226058) 0 500 1
(0.209127 0.395436 0.395436 0) 2 1 1
(0.987039 0.00648055 0 0.00648055) 3 3 1
(0.994018 0.00299089 0 0.00299089) 1 1 1
(0.57343 0.213285 0.213285 0) 1 1 2
(0.458837 0.270582 0 0.270582) 4 3 2
(0.779826 0.110087 0 0.110087) 0 0 1
(0.527692 0.236154 0.236154 0) 2 2 2
(0.374768 0.312616 0 0.312616) 1 0 2
(0.154188 0.422906 0.422906 0) 0 0 2
(0.485323 0.257338 0.257338 0) 2 2 2
(0.259591 0.370204 0.370204 0) 0 500 2
(0.977273 0.0113635 0.0113635 0) 0 500 2
(0.727092 0.136454 0.136454 0) 2 2 2
(0.962028 0.0189862 0 0.0189862) 0 0 1
(0.0524879 0.473756 0 0.473756) 0 0 1
(0.923076 0.0384621 0 0.0384621) 1 0 2
(0.428637 0.285682 0 0.285682) 2 1 2
(0.229153 0.385423 0 0.385423) 2 2 1
(0.116963 0.441518 0.441518 0) 2 1 1
(0.374338 0.312831 0.312831 0) 1 0 1
(0.981257 0.00937144 0.00937144 0) 0 500 2
(0.576132 0.211934 0 0.211934) 5 5 1
(0.990412 0.00479387 0.00479387 0) 3 3 2
(0.166941 0.416529 0 0.416529) 2 2 1
(0.435821 0.28209 0.28209 0) 0 0 2
(0.102312 0.448844 0.448844 0) 0 500 2
(0.617773 0.191114 0 0.191114) 1 0 2
(0.230892 0.384554 0 0.384554) 0 500 1
(0.259175 0.370412 0.370412 0) 2 2 2
(0.453674 0.273163 0.273163 0) 0 0 2
(0.207111 0.396445 0.396445 0) 0 500 2
(0.441064 0.279468 0 0.279468) 2 1 2
(0.27857 0.360715 0 0.360715) 2 2 1
(0.742503 0.128749 0.128749 0) 0 500 2
(0.254404 0.372798 0.372798 0) 3 2 1
(0.81128 0.0943602 0 0.0943602) 1 1 1
(0.78676 0.10662 0.10662 0) 2 2 2
(0.355918 0.322041 0 0.322041) 0 0 1
(0.0618198 0.46909 0 0.46909) 6 6 1
(0.288682 0.355659 0 0.355659) 1 1 1
(0.975776 0.0121122 0 0.0121122) 4 3 2
(0.912451 0.0437747 0.0437747 0) 1 1 2
(0.968404 0.0157979 0 0.0157979) 1 0 2
(0.0433815 0.478309 0 0.478309) 2 1 2
(0.998178 0.000911166 0 0.000911166) 2 2 1
(0.0141998 0.4929 0.4929 0) 0 500 2
(0.944984 0.027508 0.027508 0) 2 1 1
(0.394404 0.302798 0.302798 0) 0 500 2
(0.797832 0.101084 0.101084 0) 4 4 2
(0.194695 0.402652 0 0.402652) 3 3 1
(0.00348322 0.498258 0.498258 0) 0 0 2
(0.0620107 0.468995 0.468995 0) 3 2 1
(0.649845 0.175078 0.175078 0) 3 2 1
(0.43073 0.284635 0.284635 0) 2 1 1
(0.0324298 0.483785 0.483785 0) 0 500 2
(0.867234 0.0663829 0.0663829 0) 2 2 2
(0.803276 0.0983619 0.0983619 0) 3 2 1
(0.716343 0.141829 0.141829 0) 1 0 1
(0.499585 0.250208 0.250208 0) 3 2 1
(0.166553 0.416723 0 0.416723) 1 0 2
(0.775077 0.112462 0 0.112462) 4 3 2
(0.574859 0.212571 0.212571 0) 4 3 1
(0.203048 0.398476 0.398476 0) 0 500 2
(0.430085 0.284957 0.284957 0) 1 0 1
(0.78493 0.107535 0 0.107535) 0 0 1
(0.422372 0.288814 0.288814 0) 1 0 1
(0.906648 0.0466762 0.0466762 0) 3 3 2
(0.356719 0.32164 0.32164 0) 1 0 1
(0.336285 0.331858 0 0.331858) 1 0 2
(0.625829 0.187086 0 0.187086) 2 2 1
(0.567559 0.216221 0 0.216221) 1 1 1
(0.94845 0.0257752 0 0.0257752) 0 500 1
(0.406191 0.296905 0.296905 0) 2 2 2
(0.466859 0.26657 0 0.26657) 0 0 1
(0.0365726 0.481714 0.481714 0) 1 1 2
(0.838298 0.080851 0 0.080851) 2 1 2
(0.827937 0.0860315 0.0860315 0) 3 2 1
(0.901864 0.0490681 0.0490681 0) 1 1 2
(0.227448 0.386276 0.386276 0) 3 2 1
(0.177153 0.411423 0 0.411423) 4 3 2
(0.25416 0.37292 0.37292 0) 0 0 2
(0.593822 0.203089 0 0.203089) 2 2 1
(0.733939 0.133031 0.133031 0) 0 0 2
(0.0812152 0.459392 0.459392 0) 0 0 2
(0.458767 0.270616 0.270616 0) 5 4 1
(0.472092 0.263954 0.263954 0) 4 3 1
(0.594888 0.202556 0 0.202556) 3 3 1
(0.0902698 0.454865 0.454865 0) 3 3 2
(0.486158 0.256921 0.256921 0) 1 1 2
(0.37186 0.31407 0.31407 0) 2 2 2
(0.694809 0.152595 0.152595 0) 3 3 2
(0.952801 0.0235995 0.0235995 0) 3 2 1
(0.435087 0.282457 0.282457 0) 5 4 1
(0.678219 0.16089 0 0.16089) 3 2 2
(0.162251 0.418875 0.418875 0) 4 3 1
(0.372183 0.313909 0 0.313909) 2 1 2
(0.852063 0.0739684 0.0739684 0) 4 3 1
(0.0936336 0.453183 0.453183 0) 0 0 2
(0.438518 0.280741 0.280741 0) 0 500 2
(0.0734646 0.463268 0 0.463268) 3 3 1
(0.780353 0.109823 0 0.109823) 4 3 2
(0.359118 0.320441 0.320441 0) 1 1 2
(0.506905 0.246548 0.246548 0) 0 0 2
(0.702695 0.148653 0.148653 0) 0 0 2
(0.0896269 0.455187 0 0.455187) 1 0 2
(0.544677 0.227662 0 0.227662) 4 4 1
(0.985247 0.00737642 0.00737642 0) 3 2 1
(0.77029 0.114855 0.114855 0) 2 2 2
(0.400275 0.299862 0.299862 0) 0 500 2
(0.604377 0.197811 0.197811 0) 1 1 2
(0.800563 0.0997183 0 0.0997183) 0 500 1
(0.571507 0.214246 0.214246 0) 0 0 2
(0.422217 0.288892 0.288892 0) 1 0 1
(0.267304 0.366348 0 0.366348) 3 3 1
(0.656377 0.171811 0 0.171811) 2 1 2
(0.647218 0.176391 0 0.176391) 2 2 1
(0.304926 0.347537 0 0.347537) 4 3 2
(0.549098 0.225451 0 0.225451) 1 0 2
(0.209563 0.395219 0 0.395219) 0 0 1
(0.243244 0.378378 0.378378 0) 6 5 1
(0.699241 0.150379 0 0.150379) 0 500 1
(0.518943 0.240528 0 0.240528) 1 0 2
(0.690759 0.15462 0.15462 0) 2 1 1
(0.0549393 0.47253 0 0.47253) 5 4 2
(0.362532 0.318734 0.318734 0) 3 2 1
(0.0627351 0.468632 0.468632 0) 1 0 1
(0.440519 0.279741 0 0.279741) 1 0 2
(0.81753 0.091235 0 0.091235) 4 3 2
(0.0953808 0.45231 0.45231 0) 1 1 2
(0.137989 0.431006 0 0.431006) 2 1 2
(0.853687 0.0731564 0.0731564 0) 5 5 2
(0.657912 0.171044 0 0.171044) 2 2 1
(0.265074 0.367463 0 0.367463) 0 0 1
(0.305018 0.347491 0.347491 0) 1 0 1
(0.607964 0.196018 0 0.196018) 2 1 2
(0.497535 0.251233 0 0.251233) 2 2 1
(0.924528 0.0377362 0 0.0377362) 0 500 1
(0.0371407 0.48143 0.48143 0) 2 2 2
(0.282291 0.358855 0.358855 0) 0 500 2
(0.0654858 0.467257 0 0.467257) 4 3 2
(0.423153 0.288423 0 0.288423) 0 500 1
(0.310922 0.344539 0.344539 0) 3 2 1
(0.269787 0.365106 0.365106 0) 2 2 2
(0.181623 0.409189 0.409189 0) 2 1 1
(0.0828798 0.45856 0.45856 0) 0 0 2
(0.621554 0.189223 0 0.189223) 4 3 2
(0.878891 0.0605545 0.0605545 0) 0 0 2
(0.117822 0.441089 0.441089 0) 4 4 2
(0.287231 0.356385 0 0.356385) 3 2 2
(0.632539 0.18373 0.18373 0) 1 0 1
(0.915058 0.0424711 0.0424711 0) 1 0 1
(0.700596 0.149702 0.149702 0) 3 3 2
(0.667971 0.166014 0.166014 0) 2 2 2
(0.170132 0.414934 0.414934 0) 3 2 1
(0.648981 0.17551 0.17551 0) 2 1 1
(0.559124 0.220438 0.220438 0) 3 2 1
(0.425614 0.287193 0.287193 0) 3 3 2
(0.255559 0.37222 0.37222 0) 0 500 2
(0.594828 0.202586 0 0.202586) 1 1 1
(0.0210092 0.489495 0.489495 0) 1 0 1
(0.972597 0.0137013 0 0.0137013) 5 5 1
(0.629085 0.185458 0 0.185458) 0 0 1
(0.750007 0.124997 0.124997 0) 1 0 1
(0.0167655 0.491617 0.491617 0) 1 1 2
(0.560394 0.219803 0 0.219803) 3 2 2
(0.0666337 0.466683 0.466683 0) 1 0 1
(0.416869 0.291566 0 0.291566) 0 500 1
(0.725228 0.137386 0 0.137386) 0 0 1
(0.432892 0.283554 0.283554 0) 1 0 1
(0.243289 0.378355 0 0.378355) 0 500 1
(0.226505 0.386747 0 0.386747) 2 2 1
(0.536927 0.231537 0.231537 0) 4 3 1
(0.272333 0.363834 0 0.363834) 0 500 1
(0.549313 0.225344 0.225344 0) 1 1 2
(0.847524 0.0762378 0 0.0762378) 2 2 1
(0.585808 0.207096 0 0.207096) 5 5 1
(0.730418 0.134791 0 0.134791) 2 2 1
(0.337458 0.331271 0.331271 0) 3 2 1
(0.778125 0.110937 0 0.110937) 0 500 1
(0.317356 0.341322 0.341322 0) 1 1 2
(0.166777 0.416611 0 0.416611) 0 0 1
(0.889909 0.0550454 0 0.0550454) 0 0 1
(0.189475 0.405262 0.405262 0) 0 500 2
(0.911745 0.0441275 0 0.0441275) 0 500 1
(0.9954 0.00230013 0.00230013 0) 0 500 2
(0.148087 0.425956 0.425956 0) 0 500 2
(0.81251 0.093745 0 0.093745) 3 2 2
(0.609905 0.195047 0.195047 0) 1 0 1
(0.511271 0.244364 0.244364 0) 1 0 1
(0.413588 0.293206 0.293206 0) 4 4 2
(0.673425 0.163288 0.163288 0) 1 1 2
(0.612783 0.193609 0.193609 0) 0 0 2
(0.107406 0.446297 0.446297 0) 4 3 1
(0.727842 0.136079 0 0.136079) 0 500 1
(0.285646 0.357177 0 0.357177) 4 4 1
(0.717243 0.141378 0.141378 0) 2 1 1
(0.0184504 0.490775 0 0.490775) 3 3 1
(0.572857 0.213572 0.213572 0) 4 4 2
(0.203037 0.398482 0.398482 0) 0 0 2
(0.485675 0.257163 0.257163 0) 2 1 1
(0.513898 0.243051 0.243051 0) 2 1 1
(0.963974 0.0180128 0.0180128 0) 2 1 1
(0.732568 0.133716 0 0.133716) 0 0 1
(0.457219 0.27139 0 0.27139) 3 3 1
(0.828386 0.0858068 0 0.0858068) 0 500 1
(0.613688 0.193156 0.193156 0) 5 4 1
(0.579193 0.210403 0 0.210403) 1 1 1
(0.870756 0.0646222 0 0.0646222) 2 1 2
(0.224127 0.387937 0.387937 0) 1 0 1
(0.815005 0.0924976 0 0.0924976) 4 4 1
(0.109944 0.445028 0 0.445028) 0 0 1
(0.491775 0.254112 0.254112 0) 0 500 2
(0.475511 0.262244 0 0.262244) 1 1 1
(0.467214 0.266393 0 0.266393) 2 2 1
(0.415124 0.292438 0.292438 0) 2 1 1
(0.532699 0.23365 0.23365 0) 1 1 2
(0.844542 0.0777288 0.0777288 0) 0 500 2
(0.660148 0.169926 0.169926 0) 0 500 2
(0.766827 0.116587 0.116587 0) 1 1 2
(0.798035 0.100982 0.100982 0) 3 3 2
(0.12416 0.43792 0 0.43792) 1 0 2
(0.390758 0.304621 0.304621 0) 3 2 1
(0.449677 0.275161 0 0.275161) 0 0 1
(0.488574 0.255713 0 0.255713) 2 2 1
(0.496941 0.25153 0.25153 0) 0 500 2
(0.138934 0.430533 0.430533 0) 2 1 1
(0.286075 0.356963 0 0.356963) 1 1 1
(0.618683 0.190658 0 0.190658) 2 2 1
(0.241894 0.379053 0.379053 0) 0 500 2
(0.520496 0.239752 0.239752 0) 3 2 1
(0.413678 0.293161 0 0.293161) 0 500 1
(0.631458 0.184271 0.184271 0) 0 500 2
(0.349777 0.325111 0 0.325111) 1 1 1
(0.602144 0.198928 0.198928 0) 0 0 2
(0.827443 0.0862787 0 0.0862787) 2 1 2
(0.131446 0.434277 0.434277 0) 0 500 2
(0.976185 0.0119075 0.0119075 0) 1 0 1
(0.618214 0.190893 0 0.190893) 5 5 1
(0.255095 0.372452 0 0.372452) 2 1 2
(0.187524 0.406238 0.406238 0) 6 5 1
(0.659142 0.170429 0.170429 0) 1 0 1
(0.762281 0.11886 0 0.11886) 3 2 2
(0.231334 0.384333 0.384333 0) 0 500 2
(0.789505 0.105248 0.105248 0) 2 2 2
(0.823726 0.0881369 0 0.0881369) 4 3 2
(0.221384 0.389308 0.389308 0) 1 0 1
(0.365332 0.317334 0.317334 0) 3 2 1
(0.897049 0.0514753 0.0514753 0) 0 500 2
(0.643813 0.178093 0.178093 0) 6 5 1
(0.178668 0.410666 0 0.410666) 1 0 2
(0.0687103 0.465645 0.465645 0) 1 0 1
(0.771832 0.114084 0.114084 0) 0 0 2
(0.185618 0.407191 0 0.407191) 3 2 2
(0.606194 0.196903 0.196903 0) 3 2 1
(0.450359 0.27482 0.27482 0) 3 2 1
(0.503857 0.248072 0.248072 0) 0 0 2
(0.229943 0.385029 0 0.385029) 4 4 1
(0.22018 0.38991 0.38991 0) 3 3 2
(0.492465 0.253768 0 0.253768) 6 6 1
(0.890092 0.054954 0.054954 0) 2 2 2
(0.953328 0.0233362 0 0.0233362) 2 1 2
(0.014781 0.49261 0.49261 0) 0 0 2
(0.524584 0.237708 0.237708 0) 5 5 2
(0.0447055 0.477647 0.477647 0) 4 3 1
(0.792187 0.103907 0 0.103907) 2 1 2
(0.970337 0.0148315 0.0148315 0) 0 0 2
(0.0436502 0.478175 0 0.478175) 0 500 1
(0.930875 0.0345627 0.0345627 0) 1 0 1
(0.91278 0.0436101 0.0436101 0) 0 500 2
(0.486634 0.256683 0 0.256683) 1 1 1
(0.229425 0.385287 0.385287 0) 4 3 1
(0.364744 0.317628 0.317628 0) 0 0 2
(0.678579 0.160711 0.160711 0) 2 1 1
(0.999867 6.64706e-05 6.64706e-05 0) 3 2 1
(0.769385 0.115307 0.115307 0) 2 2 2
(0.695819 0.15209 0 0.15209) 5 4 2
(0.801553 0.0992235 0 0.0992235) 2 1 2
(0.80288 0.0985598 0.0985598 0) 1 1 2
(0.302214 0.348893 0 0.348893) 4 3 2
(0.955371 0.0223144 0.0223144 0) 3 3 2
(0.963531 0.0182344 0.0182344 0) 0 0 2
(0.0456104 0.477195 0.477195 0) 1 1 2
(0.257567 0.371217 0.371217 0) 5 4 1
(0.546802 0.226599 0.226599 0) 0 500 2
(0.547703 0.226149 0.226149 0) 3 2 1
(0.0357422 0.482129 0.482129 0) 0 500 2
(0.353014 0.323493 0 0.323493) 0 0 1
(0.801671 0.0991643 0.0991643 0) 4 3 1
(0.181171 0.409414 0.409414 0) 2 1 1
(0.64712 0.17644 0 0.17644) 0 0 1
(0.612223 0.193889 0 0.193889) 1 1 1
(0.658503 0.170748 0.170748 0) 2 1 1
(0.73134 0.13433 0 0.13433) 4 4 1
(0.364978 0.317511 0 0.317511) 4 4 1
(0.04983 0.475085 0.475085 0) 0 500 2
(0.462277 0.268862 0 0.268862) 0 0 1
(0.650305 0.174848 0.174848 0) 2 1 1
(0.499586 0.250207 0.250207 0) 0 500 2
(0.0272219 0.486389 0 0.486389) 6 6 1
(0.183683 0.408159 0 0.408159) 0 500 1
(0.0215894 0.489205 0 0.489205) 0 500 1
(0.298743 0.350628 0.350628 0) 0 500 2
(0.259267 0.370367 0.370367 0) 0 0 2
(0.941025 0.0294874 0.0294874 0) 1 0 1
(0.843949 0.0780257 0 0.0780257) 2 1 2
(0.853177 0.0734115 0 0.0734115) 3 2 2
(0.813415 0.0932927 0.0932927 0) 1 0 1
(0.613288 0.193356 0 0.193356) 2 2 1
(0.690086 0.154957 0.154957 0) 0 0 2
(0.299647 0.350176 0.350176 0) 0 0 2
(0.30598 0.34701 0.34701 0) 0 500 2
(0.482337 0.258832 0 0.258832) 0 500 1
(0.306296 0.346852 0 0.346852) 4 4 1
(0.197039 0.401481 0.401481 0) 3 2 1
(0.976269 0.0118653 0.0118653 0) 0 500 2
(0.17648 0.41176 0.41176 0) 2 2 2
(0.631411 0.184295 0.184295 0) 3 2 1
(0.772598 0.113701 0 0.113701) 2 1 2
(0.545608 0.227196 0.227196 0) 1 1 2
(0.987501 0.00624966 0 0.00624966) 2 1 2
(0.179721 0.410139 0.410139 0) 0 0 2
(0.980342 0.00982876 0 0.00982876) 0 0 1
(0.505506 0.247247 0.247247 0) 4 4 2
(0.155643 0.422179 0.422179 0) 0 500 2
(0.968276 0.0158622 0 0.0158622) 1 0 2
(0.37846 0.31077 0.31077 0) 11 11 2
(0.239478 0.380261 0.380261 0) 0 500 2
(0.101588 0.449206 0.449206 0) 1 0 1
(0.359207 0.320396 0.320396 0) 7 7 2
(0.743864 0.128068 0.128068 0) 4 3 1
(0.286794 0.356603 0.356603 0) 5 4 1
(0.186318 0.406841 0.406841 0) 6 5 1
(0.534683 0.232658 0 0.232658) 3 3 1
(0.472287 0.263856 0.263856 0) 2 2 2
(0.00599498 0.497003 0 0.497003) 5 4 2
(0.431693 0.284154 0.284154 0) 2 2 2
(0.652401 0.173799 0.173799 0) 2 1 1
(0.989732 0.00513414 0.00513414 0) 1 0 1
(0.907766 0.0461169 0 0.0461169) 0 0 1
(0.284595 0.357703 0 0.357703) 0 0 1
(0.474538 0.262731 0 0.262731) 0 0 1
(0.94103 0.0294851 0.0294851 0) 3 2 1
(0.0441887 0.477906 0.477906 0) 3 2 1
(0.378918 0.310541 0 0.310541) 2 2 1
(0.0290008 0.4855 0.4855 0) 0 500 2
(0.860595 0.0697027 0.0697027 0) 2 1 1
(0.165736 0.417132 0 0.417132) 6 5 2
(0.0494516 0.475274 0.475274 0) 4 4 2
(0.85407 0.0729651 0.0729651 0) 2 2 2
(0.310487 0.344757 0 0.344757) 3 2 2
(0.740156 0.129922 0 0.129922) 3 3 1
(0.330102 0.334949 0.334949 0) 4 4 2
(0.539571 0.230215 0.230215 0) 1 1 2
(0.0112846 0.494358 0 0.494358) 1 0 2
(0.418282 0.290859 0.290859 0) 4 4 2
(0.68669 0.156655 0 0.156655) 4 3 2
(0.940916 0.0295418 0 0.0295418) 2 2 1
(0.372491 0.313754 0.313754 0) 6 5 1
(0.76336 0.11832 0 0.11832) 4 3 2
(0.217304 0.391348 0 0.391348) 0 0 1
(0.869966 0.0650172 0 0.0650172) 6 5 2
(0.916592 0.0417039 0.0417039 0) 5 4 1
(0.0259756 0.487012 0.487012 0) 4 3 1
(0.0761978 0.461901 0.461901 0) 1 0 1
(0.00510069 0.49745 0.49745 0) 3 2 1
(0.733928 0.133036 0.133036 0) 2 1 1
(0.148462 0.425769 0 0.425769) 1 0 2
(0.987142 0.0064289 0.0064289 0) 0 0 2
(0.63849 0.180755 0.180755 0) 2 2 2
(0.110744 0.444628 0.444628 0) 3 3 2
(0.964034 0.0179832 0.0179832 0) 5 5 2
(0.941096 0.029452 0 0.029452) 2 2 1
(0.340532 0.329734 0 0.329734) 2 1 2
(0.554221 0.222889 0.222889 0) 4 3 1
(0.201197 0.399401 0 0.399401) 2 1 2
(0.57206 0.21397 0 0.21397) 3 2 2
(0.584386 0.207807 0.207807 0) 2 1 1
(0.270821 0.36459 0.36459 0) 2 1 1
(0.441418 0.279291 0.279291 0) 2 2 2
(0.328917 0.335541 0 0.335541) 2 1 2
(0.561394 0.219303 0.219303 0) 3 3 2
(0.365136 0.317432 0.317432 0) 5 4 1
(0.754983 0.122508 0.122508 0) 4 3 1
(0.17041 0.414795 0 0.414795) 0 500 1
(0.0119351 0.494032 0.494032 0) 3 3 2
(0.358782 0.320609 0.320609 0) 7 6 1
(0.991431 0.00428437 0 0.00428437) 1 0 2
(0.769269 0.115366 0 0.115366) 3 2 2
(0.769503 0.115249 0 0.115249) 1 1 1
(0.0423624 0.478819 0.478819 0) 6 5 1
(0.176376 0.411812 0.411812 0) 2 1 1
(0.975913 0.0120433 0 0.0120433) 2 2 1
(0.407232 0.296384 0.296384 0) 5 5 2
(0.241486 0.379257 0.379257 0) 3 2 1
(0.426213 0.286894 0.286894 0) 1 0 1
(0.60956 0.19522 0 0.19522) 0 0 1
(0.66457 0.167715 0.167715 0) 2 1 1
(0.927343 0.0363286 0.0363286 0) 7 6 1
(0.810314 0.0948431 0 0.0948431) 5 4 2
(0.440237 0.279881 0.279881 0) 3 2 1
(0.928643 0.0356786 0.0356786 0) 0 500 2
(0.464849 0.267575 0.267575 0) 1 1 2
(0.700129 0.149935 0 0.149935) 2 1 2
(0.375059 0.312471 0 0.312471) 1 0 2
(0.00688294 0.496559 0.496559 0) 0 0 2
(0.156767 0.421617 0 0.421617) 1 0 2
(0.890937 0.0545316 0 0.0545316) 0 0 1
(0.993663 0.00316833 0.00316833 0) 2 2 2
(0.440366 0.279817 0.279817 0) 1 1 2
(0.314679 0.34266 0 0.34266) 3 3 1
(0.536939 0.231531 0 0.231531) 1 0 2
(0.104425 0.447788 0.447788 0) 0 0 2
(0.381826 0.309087 0.309087 0) 4 4 2
(0.861219 0.0693905 0.0693905 0) 2 2 2
(0.773079 0.11346 0 0.11346) 0 500 1
(0.234926 0.382537 0.382537 0) 2 1 1
(0.536408 0.231796 0.231796 0) 4 3 1
(0.340443 0.329778 0 0.329778) 2 1 2
(0.410515 0.294743 0.294743 0) 0 0 2
(0.358626 0.320687 0 0.320687) 4 3 2
(0.654454 0.172773 0 0.172773) 6 6 1
(0.126767 0.436616 0.436616 0) 1 1 2
(0.541938 0.229031 0.229031 0) 5 5 2
(0.963612 0.018194 0 0.018194) 0 0 1
(0.818706 0.0906471 0 0.0906471) 0 0 1
(0.8703 0.06485 0.06485 0) 0 0 2
(0.931483 0.0342586 0.0342586 0) 0 500 2
(0.364668 0.317666 0.317666 0) 3 2 1
(0.548401 0.2258 0.2258 0) 5 4 1
(0.606521 0.196739 0 0.196739) 3 3 1
(0.278713 0.360644 0.360644 0) 2 1 1
(0.90468 0.0476598 0.0476598 0) 0 500 2
(0.94109 0.0294551 0 0.0294551) 1 0 2
(0.888587 0.0557066 0.0557066 0) 4 3 1
(0.840997 0.0795014 0 0.0795014) 3 2 2
(0.085533 0.457233 0.457233 0) 3 2 1
(0.0800741 0.459963 0.459963 0) 2 1 1
(0.220946 0.389527 0 0.389527) 2 1 2
(0.404328 0.297836 0.297836 0) 1 1 2
(0.764562 0.117719 0.117719 0) 1 1 2
(0.431088 0.284456 0.284456 0) 0 0 2
(0.637016 0.181492 0.181492 0) 0 500 2
(0.0605289 0.469736 0 0.469736) 1 1 1
(0.268955 0.365522 0 0.365522) 3 3 1
(0.413536 0.293232 0.293232 0) 3 2 1
(0.419961 0.29002 0.29002 0) 2 1 1
(0.631037 0.184481 0.184481 0) 0 0 2
(0.537577 0.231212 0.231212 0) 0 500 2
(0.0443824 0.477809 0 0.477809) 10 10 1
(0.429876 0.285062 0 0.285062) 5 4 2
(0.950365 0.0248174 0 0.0248174) 4 3 2
(0.434274 0.282863 0.282863 0) 0 500 2
(0.0585703 0.470715 0.470715 0) 3 3 2
(0.146194 0.426903 0 0.426903) 7 7 1
(0.2117 0.39415 0.39415 0) 0 0 2
(0.323983 0.338009 0 0.338009) 1 0 2
(0.471377 0.264311 0 0.264311) 1 1 1
(0.874331 0.0628346 0 0.0628346) 3 2 2
(0.372837 0.313581 0 0.313581) 8 8 1
(0.715297 0.142351 0 0.142351) 0 0 1
(0.749488 0.125256 0.125256 0) 0 0 2
(0.0939506 0.453025 0.453025 0) 1 0 1
(0.0562816 0.471859 0 0.471859) 4 3 2
(0.665132 0.167434 0 0.167434) 5 5 1
(0.315394 0.342303 0 0.342303) 6 6 1
(0.623391 0.188304 0 0.188304) 1 1 1
(0.831219 0.0843905 0.0843905 0) 2 2 2
(0.0725493 0.463725 0 0.463725) 2 1 2
(0.453302 0.273349 0.273349 0) 1 0 1
(0.110031 0.444985 0 0.444985) 0 0 1
(0.695561 0.152219 0 0.152219) 2 1 2
(0.848832 0.0755838 0 0.0755838) 0 0 1
(0.879547 0.0602265 0.0602265 0) 3 2 1
(0.58778 0.20611 0 0.20611) 2 1 2
(0.600116 0.199942 0 0.199942) 7 6 2
(0.75562 0.12219 0 0.12219) 0 500 1
(0.159375 0.420312 0 0.420312) 0 500 1
(0.442342 0.278829 0 0.278829) 0 0 1
(0.581182 0.209409 0 0.209409) 3 3 1
(0.245056 0.377472 0.377472 0) 3 3 2
(0.916355 0.0418223 0 0.0418223) 1 0 2
(0.403346 0.298327 0 0.298327) 2 1 2
(0.20684 0.39658 0 0.39658) 1 0 2
(0.34957 0.325215 0 0.325215) 4 3 2
(0.170014 0.414993 0 0.414993) 5 5 1
(0.611384 0.194308 0 0.194308) 5 5 1
(0.0607196 0.46964 0 0.46964) 1 0 2
(0.175187 0.412407 0 0.412407) 0 500 1
(0.927056 0.0364718 0 0.0364718) 2 1 2
(0.920332 0.0398339 0 0.0398339) 5 5 1
(0.0542496 0.472875 0.472875 0) 5 4 1
(0.690362 0.154819 0.154819 0) 0 500 2
(0.762323 0.118839 0 0.118839) 5 5 1
(0.776444 0.111778 0 0.111778) 5 5 1
(0.86133 0.069335 0.069335 0) 1 0 1
(0.794988 0.102506 0.102506 0) 5 5 2
(0.0926672 0.453666 0.453666 0) 0 500 2
(0.849418 0.0752911 0 0.0752911) 3 2 2
(0.010597 0.494701 0.494701 0) 3 3 2
(0.481517 0.259241 0 0.259241) 0 500 1
(0.125601 0.437199 0.437199 0) 2 1 1
(0.893101 0.0534494 0.0534494 0) 1 1 2
(0.204668 0.397666 0.397666 0) 2 1 1
(0.661535 0.169233 0.169233 0) 3 3 2
(0.751998 0.124001 0.124001 0) 1 0 1
(0.06215 0.468925 0 0.468925) 3 2 2
(0.807854 0.096073 0 0.096073) 2 2 1
(0.520534 0.239733 0 0.239733) 0 500 1
(0.14559 0.427205 0.427205 0) 0 0 2
(0.195343 0.402329 0.402329 0) 3 2 1
(0.510915 0.244542 0.244542 0) 3 3 2
(0.971244 0.0143779 0 0.0143779) 3 3 1
(0.891592 0.0542039 0.0542039 0) 3 2 1
(0.69911 0.150445 0.150445 0) 2 1 1
(0.687662 0.156169 0.156169 0) 3 3 2
(0.0238132 0.488093 0 0.488093) 5 4 2
(0.0871939 0.456403 0 0.456403) 4 3 2
(0.533387 0.233306 0 0.233306) 0 0 1
(0.300781 0.349609 0 0.349609) 0 500 1
(0.831385 0.0843076 0 0.0843076) 1 0 2
(0.690975 0.154512 0 0.154512) 6 6 1
(0.589686 0.205157 0 0.205157) 3 2 2
(0.174187 0.412906 0 0.412906) 0 500 1
(0.813696 0.0931519 0 0.0931519) 0 500 1
(0.337166 0.331417 0.331417 0) 1 0 1
(0.772395 0.113802 0 0.113802) 4 4 1
(0.0444976 0.477751 0 0.477751) 5 5 1
(0.538061 0.230969 0 0.230969) 3 3 1
(0.889393 0.0553033 0 0.0553033) 2 1 2
(0.831412 0.0842938 0 0.0842938) 0 0 1
(0.293086 0.353457 0.353457 0) 1 0 1
(0.0547419 0.472629 0.472629 0) 0 500 2
(0.126638 0.436681 0 0.436681) 1 0 2
(0.836667 0.0816665 0.0816665 0) 4 3 1
(0.0430919 0.478454 0.478454 0) 3 2 1
(0.956499 0.0217507 0 0.0217507) 3 3 1
(0.428417 0.285791 0.285791 0) 1 0 1
(0.626073 0.186963 0.186963 0) 5 5 2
(0.39786 0.30107 0.30107 0) 1 1 2
(0.111363 0.444319 0 0.444319) 3 3 1
(0.110497 0.444752 0 0.444752) 1 1 1
(0.269636 0.365182 0.365182 0) 3 3 2
(0.91514 0.0424298 0 0.0424298) 0 0 1
(0.860106 0.0699471 0 0.0699471) 3 2 2
(0.0932925 0.453354 0 0.453354) 0 0 1
(0.158388 0.420806 0.420806 0) 4 3 1
(0.610112 0.194944 0 0.194944) 0 0 1
(0.45639 0.271805 0 0.271805) 2 2 1
(0.451632 0.274184 0 0.274184) 2 2 1
(0.174868 0.412566 0.412566 0) 1 0 1
(0.987832 0.00608403 0 0.00608403) 1 0 2
(0.10354 0.44823 0 0.44823) 0 500 1
(0.147896 0.426052 0 0.426052) 1 1 1
(0.38771 0.306145 0.306145 0) 4 3 1
(0.255554 0.372223 0.372223 0) 3 3 2
(0.322747 0.338626 0 0.338626) 3 3 1
(0.782816 0.108592 0 0.108592) 3 2 2
(0.147032 0.426484 0.426484 0) 3 2 1
(0.72128 0.13936 0.13936 0) 6 5 1
(0.770567 0.114717 0 0.114717) 2 2 1
(0.133622 0.433189 0 0.433189) 0 500 1
(0.0674421 0.466279 0.466279 0) 0 0 2
(0.256723 0.371638 0 0.371638) 0 500 1
(0.68112 0.15944 0 0.15944) 3 2 2
(0.930381 0.0348095 0 0.0348095) 0 500 1
(0.0857564 0.457122 0 0.457122) 0 500 1
(0.120083 0.439959 0 0.439959) 0 0 1
(0.54844 0.22578 0 0.22578) 2 2 1
(0.7968 0.1016 0.1016 0) 7 7 2
(0.427604 0.286198 0 0.286198) 0 500 1
(0.157081 0.42146 0 0.42146) 4 3 2
(0.862675 0.0686624 0 0.0686624) 3 2 2
(0.211617 0.394191 0 0.394191) 2 1 2
(0.892189 0.0539054 0.0539054 0) 4 4 2
(0.146649 0.426675 0.426675 0) 2 1 1
(0.501257 0.249372 0 0.249372) 1 1 1
(0.432843 0.283578 0.283578 0) 1 1 2
(0.765955 0.117023 0 0.117023) 1 0 2
(0.113103 0.443448 0 0.443448) 2 2 1
(0.860195 0.0699027 0.0699027 0) 1 0 1
(0.615528 0.192236 0 0.192236) 5 5 1
(0.0277528 0.486124 0.486124 0) 4 3 1
(0.255004 0.372498 0.372498 0) 5 4 1
(0.381841 0.309079 0 0.309079) 2 2 1
(0.518354 0.240823 0 0.240823) 4 3 2
(0.205211 0.397394 0.397394 0) 0 500 2
(0.317773 0.341114 0 0.341114) 2 2 1
(0.359307 0.320346 0 0.320346) 1 1 1
(0.723968 0.138016 0.138016 0) 3 2 1
(0.104768 0.447616 0 0.447616) 2 2 1
(0.283123 0.358439 0.358439 0) 4 3 1
(0.0961944 0.451903 0 0.451903) 2 1 2
(0.59323 0.203385 0.203385 0) 5 4 1
(0.565247 0.217376 0.217376 0) 5 4 1
(0.474802 0.262599 0.262599 0) 2 1 1
(0.693874 0.153063 0.153063 0) 3 3 2
(0.907506 0.0462469 0.0462469 0) 5 5 2
(0.61159 0.194205 0 0.194205) 7 7 1
(0.771421 0.114289 0 0.114289) 7 6 2
(0.888921 0.0555394 0 0.0555394) 7 7 1