/*--------------------------------*- C++ -*----------------------------------*\
  =========                 |
  \\      /  F ield         | OpenFOAM: The Open Source CFD Toolbox
   \\    /   O peration     | Website:  https://openfoam.org
    \\  /    A nd           | Version:  7
     \\/     M anipulation  |
\*---------------------------------------------------------------------------*/
FoamFile
{
    version     2.0;
    format      ascii;
    class       volScalarField;
    location    "0.003";
    object      dsmcSigmaTcRMax;
}
// * * * * * * * * * * * * * * * * * * * * * * * * * * * * * * * * * * * * * //

dimensions      [0 3 -1 0 0 0 0];

internalField   nonuniform List<scalar> 
1000
(
5.77333e-16
5.93871e-16
5.93574e-16
6.39736e-16
5.78423e-16
5.99968e-16
6.11245e-16
6.58457e-16
6.03126e-16
6.3173e-16
5.96255e-16
6.02987e-16
6.26326e-16
6.1344e-16
6.24469e-16
6.24334e-16
6.24923e-16
6.08311e-16
6.62867e-16
6.47829e-16
6.4319e-16
6.61258e-16
6.40622e-16
6.621e-16
6.29597e-16
6.16645e-16
6.34172e-16
6.60596e-16
6.19621e-16
6.38133e-16
6.32004e-16
6.7873e-16
6.58208e-16
6.46109e-16
6.29224e-16
6.84656e-16
6.30159e-16
6.42838e-16
6.26051e-16
6.36295e-16
6.28654e-16
6.18986e-16
6.32807e-16
6.33335e-16
6.2981e-16
6.42151e-16
6.49413e-16
6.50452e-16
6.53056e-16
6.57511e-16
6.79238e-16
6.29326e-16
6.79833e-16
6.76262e-16
6.34296e-16
6.31001e-16
6.25235e-16
6.49267e-16
6.41202e-16
6.46422e-16
6.28039e-16
6.57635e-16
6.42498e-16
6.54312e-16
6.59561e-16
6.49402e-16
6.60208e-16
6.57648e-16
6.49489e-16
6.66875e-16
6.49859e-16
6.47187e-16
6.63431e-16
6.7856e-16
6.41997e-16
6.71302e-16
6.68967e-16
6.55862e-16
6.84536e-16
6.68074e-16
6.32593e-16
6.64969e-16
6.70122e-16
6.63918e-16
6.67357e-16
6.76108e-16
6.86157e-16
6.50761e-16
6.55756e-16
6.57706e-16
6.57568e-16
6.36702e-16
6.59303e-16
6.64144e-16
6.54607e-16
6.47352e-16
6.41323e-16
6.58032e-16
6.4339e-16
6.55591e-16
6.6343e-16
6.56992e-16
6.55381e-16
6.49641e-16
6.70619e-16
6.3848e-16
6.69561e-16
6.51862e-16
6.49037e-16
6.5674e-16
6.83071e-16
6.55714e-16
6.88327e-16
6.46609e-16
6.66909e-16
6.71595e-16
6.23965e-16
6.68301e-16
6.62766e-16
6.55192e-16
6.80058e-16
6.59283e-16
6.48379e-16
6.65185e-16
6.61256e-16
6.81125e-16
6.51197e-16
6.65828e-16
6.73406e-16
6.7169e-16
6.73228e-16
6.75138e-16
6.58035e-16
6.95274e-16
6.62972e-16
6.3674e-16
6.87768e-16
6.41184e-16
6.6168e-16
6.59918e-16
6.50071e-16
6.88881e-16
6.85016e-16
6.7964e-16
7.02498e-16
6.57566e-16
6.72615e-16
6.45994e-16
6.60485e-16
6.65097e-16
6.55108e-16
6.92919e-16
6.61693e-16
6.64998e-16
6.60343e-16
6.4805e-16
6.63402e-16
6.51483e-16
6.53219e-16
6.53616e-16
6.74443e-16
6.67765e-16
6.83859e-16
6.45024e-16
6.85404e-16
6.60425e-16
6.7039e-16
6.52615e-16
6.51064e-16
6.3998e-16
6.68806e-16
6.41439e-16
6.41019e-16
6.81256e-16
6.63604e-16
6.55702e-16
6.61994e-16
6.67216e-16
6.87206e-16
6.68748e-16
6.53702e-16
6.67627e-16
6.46726e-16
6.66822e-16
7.04555e-16
6.69333e-16
6.50839e-16
6.33523e-16
6.614e-16
6.86749e-16
6.64255e-16
6.51605e-16
6.59455e-16
6.51127e-16
6.58332e-16
6.50658e-16
6.78874e-16
6.4629e-16
6.66843e-16
6.63447e-16
7.05192e-16
6.78232e-16
6.41493e-16
6.55398e-16
6.46654e-16
6.47766e-16
6.84814e-16
7.05929e-16
6.95103e-16
6.67108e-16
6.80217e-16
6.85567e-16
6.29751e-16
6.98375e-16
6.85616e-16
6.66205e-16
6.4182e-16
6.58406e-16
6.75448e-16
6.75343e-16
7.024e-16
6.48965e-16
6.65424e-16
6.72577e-16
6.74085e-16
6.5698e-16
6.90955e-16
6.59652e-16
6.48593e-16
6.49803e-16
6.60079e-16
6.51353e-16
6.77778e-16
6.50821e-16
6.71775e-16
6.73219e-16
6.62609e-16
6.57713e-16
6.50858e-16
6.53596e-16
6.86814e-16
6.48672e-16
6.5887e-16
6.54723e-16
6.66021e-16
6.52516e-16
6.73938e-16
6.83894e-16
6.60425e-16
6.4724e-16
6.83115e-16
6.65443e-16
6.6858e-16
6.79403e-16
6.71444e-16
6.56456e-16
6.50769e-16
6.77303e-16
6.87459e-16
6.60851e-16
6.58777e-16
6.82626e-16
6.82953e-16
6.36433e-16
6.54401e-16
7.0398e-16
6.52599e-16
6.61169e-16
6.69539e-16
6.85634e-16
6.5303e-16
6.8e-16
6.72421e-16
6.63815e-16
6.89807e-16
6.6165e-16
6.45477e-16
7.24779e-16
6.64272e-16
6.29604e-16
6.54224e-16
7.1752e-16
6.78342e-16
6.83744e-16
6.52033e-16
6.82694e-16
6.79414e-16
7.22753e-16
6.69353e-16
6.77128e-16
6.92751e-16
6.53843e-16
6.74555e-16
6.45668e-16
6.51541e-16
6.64139e-16
6.57255e-16
6.50291e-16
6.40552e-16
6.47744e-16
6.52101e-16
6.59871e-16
6.83877e-16
6.68892e-16
7.16046e-16
6.65114e-16
6.54322e-16
6.51381e-16
6.75994e-16
6.46998e-16
6.54505e-16
6.55875e-16
6.86618e-16
6.40735e-16
6.62391e-16
6.72395e-16
6.96682e-16
6.66792e-16
6.42223e-16
6.64071e-16
6.43658e-16
6.49107e-16
6.42666e-16
6.70501e-16
6.59843e-16
6.51671e-16
6.39389e-16
6.30587e-16
6.33045e-16
6.37754e-16
6.44973e-16
6.48769e-16
6.32087e-16
6.70016e-16
6.57923e-16
6.7177e-16
6.93294e-16
6.75335e-16
6.72222e-16
6.64487e-16
6.46897e-16
6.51565e-16
6.76515e-16
6.47941e-16
6.57034e-16
6.78279e-16
6.34377e-16
6.36228e-16
6.68234e-16
6.97718e-16
6.75311e-16
6.6894e-16
6.47393e-16
6.36292e-16
6.76153e-16
6.695e-16
6.69005e-16
6.54943e-16
6.44577e-16
6.61211e-16
6.56281e-16
6.48674e-16
7.00256e-16
6.57104e-16
6.58393e-16
6.56762e-16
7.21693e-16
6.63838e-16
6.73282e-16
6.53215e-16
6.74703e-16
6.7021e-16
6.63589e-16
6.6585e-16
6.41717e-16
6.82868e-16
6.68745e-16
6.93459e-16
6.53809e-16
6.44919e-16
6.68433e-16
7.28773e-16
6.69166e-16
6.49865e-16
6.84261e-16
6.70301e-16
6.44989e-16
6.54053e-16
6.75171e-16
6.80368e-16
6.42481e-16
6.89833e-16
6.5665e-16
6.38962e-16
6.49999e-16
6.66347e-16
6.76677e-16
6.76857e-16
6.80825e-16
6.38688e-16
6.40933e-16
6.66978e-16
6.63658e-16
7.04096e-16
6.41315e-16
6.64895e-16
6.55473e-16
6.62215e-16
6.66479e-16
6.52408e-16
6.40859e-16
6.59504e-16
6.66626e-16
6.51739e-16
6.28963e-16
6.6744e-16
6.69559e-16
6.26028e-16
6.52095e-16
6.32871e-16
6.93042e-16
6.68487e-16
6.58106e-16
6.485e-16
6.53178e-16
6.73012e-16
6.97109e-16
6.45793e-16
6.40586e-16
6.75617e-16
6.69501e-16
6.42716e-16
6.47729e-16
6.49788e-16
6.50445e-16
6.4776e-16
6.84663e-16
6.58144e-16
6.62784e-16
6.64895e-16
6.33746e-16
6.39341e-16
6.4579e-16
6.65933e-16
6.39176e-16
6.34083e-16
6.52253e-16
7.00946e-16
6.58156e-16
6.47578e-16
6.69242e-16
6.44563e-16
6.83766e-16
7.22615e-16
6.61542e-16
6.62566e-16
6.64998e-16
7.25082e-16
6.81548e-16
6.50307e-16
6.3815e-16
6.56018e-16
6.83593e-16
6.54966e-16
6.63771e-16
6.50017e-16
6.57554e-16
6.71749e-16
6.40803e-16
6.7544e-16
6.58459e-16
6.40091e-16
6.60917e-16
6.46387e-16
6.65491e-16
6.86632e-16
6.58684e-16
6.8786e-16
6.71187e-16
6.69249e-16
7.16653e-16
6.96697e-16
6.44337e-16
6.94378e-16
6.63296e-16
6.55182e-16
6.66408e-16
6.90605e-16
6.48751e-16
6.68108e-16
6.65025e-16
6.61433e-16
6.52571e-16
6.603e-16
6.64059e-16
6.59413e-16
6.46059e-16
6.59058e-16
6.5704e-16
6.75765e-16
6.48252e-16
6.5028e-16
6.46985e-16
6.75539e-16
6.72422e-16
6.70108e-16
6.28197e-16
6.78623e-16
6.40366e-16
6.5219e-16
6.48473e-16
6.38453e-16
6.30124e-16
6.43382e-16
6.42943e-16
6.64106e-16
6.5818e-16
6.57299e-16
6.70113e-16
6.58906e-16
6.71742e-16
6.68561e-16
6.43967e-16
6.77985e-16
6.70891e-16
6.83193e-16
6.64064e-16
6.45545e-16
6.57977e-16
6.82759e-16
6.55224e-16
6.51279e-16
6.62054e-16
6.51669e-16
6.83315e-16
6.48085e-16
6.96656e-16
6.7199e-16
6.56873e-16
6.38014e-16
6.65893e-16
6.73815e-16
6.96275e-16
6.73009e-16
6.36476e-16
6.36814e-16
6.34278e-16
6.472e-16
6.89266e-16
6.44051e-16
6.80122e-16
6.62124e-16
6.88378e-16
6.35827e-16
6.58681e-16
6.77362e-16
7.29186e-16
6.4537e-16
6.38299e-16
6.61569e-16
6.25693e-16
6.50885e-16
6.59718e-16
6.71217e-16
6.55946e-16
6.86842e-16
6.7517e-16
6.40602e-16
6.69549e-16
6.73138e-16
7.00783e-16
6.69766e-16
6.68234e-16
6.53688e-16
6.48095e-16
6.57211e-16
6.9565e-16
6.62624e-16
6.41714e-16
6.79439e-16
6.39363e-16
6.56731e-16
6.61601e-16
6.49634e-16
6.65205e-16
6.36533e-16
6.54867e-16
6.50312e-16
6.82042e-16
6.89427e-16
6.73175e-16
6.6811e-16
6.60564e-16
6.78154e-16
6.42352e-16
6.67949e-16
6.5002e-16
6.79564e-16
6.29841e-16
6.61319e-16
6.62096e-16
6.45794e-16
6.55155e-16
6.6174e-16
6.57377e-16
6.90548e-16
6.57227e-16
6.36896e-16
6.33261e-16
6.90231e-16
6.7893e-16
6.43739e-16
6.53507e-16
6.91802e-16
6.70536e-16
6.83483e-16
6.45933e-16
6.3547e-16
6.84819e-16
6.37451e-16
6.53873e-16
6.72825e-16
6.38079e-16
6.45663e-16
6.45878e-16
6.44473e-16
6.66657e-16
6.61079e-16
6.67972e-16
6.87405e-16
6.51311e-16
6.50835e-16
6.52024e-16
6.6892e-16
6.37963e-16
6.93073e-16
6.60127e-16
6.49852e-16
6.64572e-16
6.51541e-16
6.63037e-16
6.38666e-16
6.93063e-16
6.80741e-16
6.68008e-16
6.60925e-16
6.68371e-16
6.77871e-16
6.40492e-16
6.52244e-16
6.32907e-16
6.76975e-16
6.90994e-16
6.45036e-16
6.47448e-16
6.8284e-16
6.60256e-16
6.55342e-16
6.46807e-16
6.75288e-16
6.58508e-16
7.26127e-16
6.75907e-16
6.57613e-16
6.74829e-16
6.40659e-16
6.65339e-16
6.59016e-16
6.3463e-16
6.84657e-16
6.28872e-16
6.61429e-16
6.55138e-16
6.59067e-16
6.46728e-16
6.55915e-16
6.5755e-16
6.51471e-16
6.50588e-16
6.67612e-16
6.59433e-16
6.76925e-16
6.66129e-16
6.49102e-16
6.97587e-16
6.44324e-16
6.64628e-16
6.54341e-16
6.60508e-16
6.49503e-16
6.86038e-16
6.87413e-16
7.03747e-16
7.00544e-16
6.55559e-16
6.7623e-16
6.72985e-16
6.68192e-16
6.57761e-16
6.71074e-16
6.73665e-16
6.49872e-16
6.79564e-16
6.73761e-16
6.90282e-16
6.6363e-16
6.51225e-16
6.9654e-16
6.64439e-16
6.85427e-16
6.84152e-16
6.66177e-16
6.58744e-16
6.74352e-16
6.79238e-16
6.60936e-16
6.66006e-16
6.50997e-16
6.49807e-16
6.50088e-16
6.76196e-16
6.75153e-16
6.56549e-16
6.59947e-16
6.34372e-16
6.77845e-16
6.60467e-16
6.84523e-16
6.64312e-16
6.48961e-16
6.47111e-16
6.43986e-16
7.03071e-16
6.43782e-16
6.5247e-16
6.49733e-16
6.967e-16
6.51864e-16
6.94119e-16
6.55235e-16
6.76218e-16
6.60552e-16
6.60641e-16
6.77635e-16
6.50173e-16
6.75325e-16
6.48995e-16
6.5623e-16
6.52529e-16
6.50315e-16
6.39832e-16
6.68177e-16
6.58687e-16
6.64511e-16
6.49931e-16
6.88063e-16
6.56429e-16
6.49834e-16
6.62904e-16
6.6421e-16
6.69603e-16
6.72388e-16
6.97218e-16
6.42738e-16
6.75247e-16
6.55486e-16
6.74117e-16
6.54853e-16
6.71948e-16
7.11314e-16
6.4253e-16
6.5612e-16
6.51067e-16
6.68804e-16
6.66733e-16
6.6634e-16
6.42946e-16
6.9739e-16
6.73951e-16
6.85941e-16
6.87305e-16
6.48789e-16
6.63231e-16
6.76817e-16
6.66139e-16
6.75235e-16
6.50747e-16
6.3563e-16
6.72992e-16
6.51168e-16
6.94916e-16
6.44132e-16
6.67559e-16
6.6717e-16
6.92804e-16
6.73417e-16
6.60761e-16
6.68359e-16
6.78832e-16
6.50395e-16
6.82409e-16
6.64999e-16
6.71096e-16
6.59472e-16
6.48552e-16
6.51351e-16
6.43672e-16
7.03994e-16
6.5063e-16
6.69233e-16
6.7985e-16
6.41449e-16
6.44809e-16
6.54397e-16
6.47488e-16
6.6658e-16
6.83342e-16
6.58038e-16
6.72277e-16
6.67547e-16
6.4291e-16
6.70143e-16
6.86317e-16
6.59725e-16
6.57577e-16
6.61727e-16
6.46898e-16
6.34908e-16
6.5563e-16
6.7568e-16
6.49293e-16
6.84864e-16
6.47972e-16
6.40499e-16
6.38033e-16
6.42814e-16
6.75149e-16
6.74836e-16
6.76599e-16
6.62745e-16
6.7371e-16
7.11486e-16
6.46057e-16
6.56379e-16
6.7852e-16
6.30008e-16
6.6239e-16
6.39675e-16
6.48034e-16
6.72417e-16
6.63984e-16
6.69733e-16
6.66717e-16
6.50984e-16
6.52349e-16
6.78389e-16
6.71877e-16
6.75869e-16
6.93082e-16
6.49221e-16
6.54712e-16
6.55294e-16
6.47716e-16
6.69792e-16
6.5865e-16
6.75882e-16
6.56225e-16
6.50374e-16
6.50166e-16
6.421e-16
6.62505e-16
6.50873e-16
6.55844e-16
6.86703e-16
6.45751e-16
6.64409e-16
6.3775e-16
6.49327e-16
6.65054e-16
6.44005e-16
6.61652e-16
6.7677e-16
6.51912e-16
6.48058e-16
6.61209e-16
6.80431e-16
6.6414e-16
6.7174e-16
6.48771e-16
6.62707e-16
6.62601e-16
6.42951e-16
6.47337e-16
6.77339e-16
6.53129e-16
6.76899e-16
6.73399e-16
6.31837e-16
6.45573e-16
6.49749e-16
6.80999e-16
6.55932e-16
6.7321e-16
6.89844e-16
6.62915e-16
6.60476e-16
6.8672e-16
6.66925e-16
6.36658e-16
6.61045e-16
6.5554e-16
6.5647e-16
6.69225e-16
6.93114e-16
6.74964e-16
6.69831e-16
6.58504e-16
6.94159e-16
6.7597e-16
6.63484e-16
6.69342e-16
6.78054e-16
6.44567e-16
6.81554e-16
6.49003e-16
6.60773e-16
6.75245e-16
6.827e-16
6.44651e-16
6.78401e-16
6.77453e-16
6.52233e-16
6.53298e-16
6.43684e-16
7.02034e-16
6.77593e-16
6.78147e-16
6.71567e-16
6.59805e-16
6.56936e-16
6.5437e-16
6.37269e-16
6.3992e-16
6.57123e-16
6.44733e-16
6.6459e-16
6.42734e-16
6.3222e-16
6.50846e-16
6.511e-16
6.62598e-16
6.67357e-16
6.54302e-16
6.32761e-16
6.60961e-16
6.60683e-16
6.53649e-16
6.6154e-16
7.07381e-16
6.58907e-16
6.12344e-16
6.33306e-16
6.57653e-16
6.51519e-16
6.37301e-16
6.40807e-16
6.55857e-16
6.48549e-16
6.29766e-16
6.77288e-16
6.50821e-16
6.31072e-16
6.51659e-16
6.52011e-16
6.41521e-16
6.48076e-16
6.42604e-16
6.66431e-16
6.77073e-16
6.08069e-16
6.95793e-16
6.4523e-16
6.23245e-16
6.55355e-16
6.40523e-16
6.31467e-16
6.65862e-16
6.09229e-16
6.20929e-16
5.90461e-16
6.13226e-16
6.10098e-16
6.09811e-16
5.84482e-16
6.24697e-16
6.10955e-16
6.51938e-16
5.70988e-16
6.03581e-16
5.40149e-16
)
;

boundaryField
{
    sides
    {
        type            zeroGradient;
    }
    empty
    {
        type            empty;
    }
}


// ************************************************************************* //
