/*--------------------------------*- C++ -*----------------------------------*\
  =========                 |
  \\      /  F ield         | OpenFOAM: The Open Source CFD Toolbox
   \\    /   O peration     | Website:  https://openfoam.org
    \\  /    A nd           | Version:  7
     \\/     M anipulation  |
\*---------------------------------------------------------------------------*/
FoamFile
{
    version     2.0;
    format      ascii;
    class       volScalarField;
    location    "0.003";
    object      p;
}
// * * * * * * * * * * * * * * * * * * * * * * * * * * * * * * * * * * * * * //

dimensions      [1 -1 -2 0 0 0 0];

internalField   nonuniform List<scalar> 
1000
(
0.272585
0.329694
0.353926
0.396724
0.424355
0.457472
0.470388
0.498977
0.503007
0.536565
0.553063
0.556859
0.560477
0.576553
0.592221
0.623035
0.625287
0.642346
0.681679
0.682462
0.668787
0.698635
0.714143
0.728596
0.721709
0.746405
0.759186
0.773854
0.765646
0.783047
0.782774
0.796278
0.812977
0.826178
0.827917
0.837517
0.828398
0.841184
0.857229
0.883601
0.902728
0.903716
0.89353
0.900064
0.923614
0.915926
0.921382
0.958206
0.929841
0.945045
0.956055
0.968396
0.963586
0.97209
0.9778
0.980102
1.00856
0.998374
0.997443
1.00269
1.00833
1.01473
1.03568
1.02643
1.01474
1.03587
1.06503
1.06193
1.05823
1.0777
1.06647
1.09554
1.07307
1.07365
1.10351
1.10359
1.10378
1.09983
1.1014
1.10767
1.10627
1.1068
1.11807
1.12477
1.13082
1.12883
1.12412
1.12246
1.12988
1.13749
1.12006
1.12906
1.15624
1.15825
1.1407
1.15679
1.14912
1.15836
1.14997
1.15542
1.13755
1.13794
1.14854
1.16515
1.16118
1.1558
1.16171
1.15794
1.15898
1.15255
1.16831
1.175
1.15534
1.15334
1.14693
1.15452
1.14744
1.16138
1.16506
1.17006
1.16622
1.16678
1.15945
1.16776
1.16406
1.15428
1.17011
1.17888
1.16474
1.1458
1.17497
1.17397
1.16288
1.17972
1.16923
1.17527
1.15086
1.15314
1.1692
1.17343
1.15499
1.15533
1.16584
1.15452
1.16338
1.14944
1.15804
1.15276
1.17075
1.14448
1.1584
1.16721
1.17203
1.16031
1.14532
1.15694
1.14697
1.13446
1.15342
1.13447
1.14418
1.16314
1.16574
1.14242
1.14941
1.15921
1.14794
1.14429
1.14727
1.16526
1.13476
1.13909
1.12693
1.14378
1.14223
1.15592
1.15859
1.15233
1.14361
1.14202
1.13601
1.15434
1.16024
1.14639
1.1642
1.15824
1.13725
1.15787
1.12488
1.15954
1.1393
1.14408
1.14208
1.12514
1.1361
1.15515
1.13265
1.16112
1.14103
1.158
1.14667
1.15653
1.14201
1.14648
1.1423
1.13616
1.12966
1.14987
1.13539
1.14572
1.14868
1.15717
1.1568
1.16927
1.14711
1.15934
1.15949
1.1577
1.16399
1.15683
1.13756
1.13196
1.14662
1.15316
1.14325
1.14139
1.14845
1.14418
1.1335
1.15763
1.14078
1.14411
1.14149
1.13072
1.14396
1.13639
1.13674
1.13689
1.14302
1.15691
1.14557
1.13272
1.13873
1.15673
1.13185
1.14183
1.14615
1.15383
1.14083
1.135
1.14266
1.14888
1.14466
1.12578
1.1453
1.13988
1.13479
1.13127
1.14579
1.1379
1.14583
1.13299
1.1429
1.12626
1.14495
1.1482
1.15973
1.17891
1.1643
1.14818
1.14736
1.14297
1.14125
1.16303
1.14862
1.13525
1.13921
1.14427
1.16278
1.13903
1.15134
1.14808
1.17436
1.1417
1.14878
1.14999
1.14937
1.13385
1.12959
1.14284
1.1409
1.15144
1.15434
1.15514
1.15514
1.14388
1.15899
1.14666
1.141
1.14375
1.14968
1.16222
1.14159
1.15116
1.13338
1.16209
1.14532
1.13691
1.13237
1.14086
1.14162
1.14449
1.14965
1.16887
1.15945
1.14786
1.15066
1.14428
1.12867
1.15621
1.14764
1.16988
1.14824
1.15368
1.14875
1.15556
1.14453
1.15638
1.15247
1.1386
1.14506
1.14329
1.14153
1.15573
1.16217
1.16317
1.14366
1.14505
1.14532
1.14815
1.1572
1.13658
1.15379
1.15772
1.14736
1.13827
1.15688
1.16336
1.15571
1.14408
1.15327
1.16944
1.17246
1.13876
1.16397
1.12735
1.13318
1.15317
1.12454
1.12583
1.15015
1.15538
1.12592
1.1534
1.14637
1.14038
1.15484
1.15945
1.1619
1.14698
1.14739
1.12996
1.14469
1.13088
1.12384
1.137
1.12384
1.13338
1.13804
1.13993
1.14119
1.139
1.1427
1.14248
1.1393
1.14971
1.15916
1.1656
1.15526
1.14603
1.1188
1.12772
1.15158
1.14965
1.15123
1.14546
1.13214
1.12954
1.12947
1.16923
1.14574
1.15847
1.12903
1.14343
1.15333
1.15671
1.15429
1.12449
1.12636
1.13694
1.13613
1.1339
1.11911
1.1215
1.12457
1.12881
1.12141
1.1251
1.13192
1.12396
1.14512
1.13421
1.14174
1.13958
1.14547
1.14628
1.13285
1.12615
1.12699
1.13308
1.11015
1.12011
1.124
1.13639
1.121
1.12523
1.13275
1.12749
1.1145
1.1285
1.12957
1.14128
1.12713
1.11863
1.12987
1.13089
1.13323
1.12596
1.13759
1.11384
1.10113
1.10884
1.12471
1.11151
1.12322
1.12585
1.12664
1.14535
1.1317
1.13293
1.11366
1.13257
1.11789
1.12249
1.12602
1.10624
1.12886
1.13876
1.12801
1.12777
1.1188
1.16147
1.1407
1.12312
1.13184
1.13314
1.12891
1.12819
1.13768
1.15421
1.13606
1.13651
1.13335
1.12614
1.1291
1.12729
1.14351
1.14151
1.12679
1.11946
1.15252
1.13858
1.14371
1.13114
1.14313
1.13464
1.13841
1.13351
1.14448
1.14415
1.11529
1.14666
1.13785
1.13151
1.13032
1.13554
1.1384
1.12903
1.14208
1.1335
1.13475
1.13573
1.14288
1.13735
1.14835
1.13765
1.13676
1.136
1.14077
1.1309
1.11662
1.14736
1.13162
1.13704
1.11961
1.13161
1.14726
1.15347
1.14954
1.15424
1.15157
1.14666
1.16316
1.15923
1.14782
1.158
1.14575
1.14095
1.1466
1.14841
1.13632
1.13928
1.14753
1.1326
1.12888
1.1441
1.14457
1.14706
1.12517
1.13705
1.12829
1.15028
1.15539
1.1481
1.14684
1.12413
1.13778
1.14859
1.13421
1.14279
1.15516
1.16559
1.15043
1.15819
1.13517
1.14299
1.12669
1.13799
1.15021
1.14845
1.14912
1.1472
1.14703
1.17329
1.15752
1.15758
1.16296
1.16883
1.17106
1.16509
1.13206
1.15416
1.15848
1.15685
1.13705
1.14269
1.14634
1.15856
1.15637
1.15597
1.16505
1.15224
1.16194
1.1792
1.14318
1.14547
1.1624
1.1632
1.16566
1.1556
1.15651
1.14853
1.15574
1.15904
1.15057
1.15305
1.16337
1.15527
1.16244
1.16815
1.1444
1.15219
1.12824
1.14289
1.15193
1.15777
1.15996
1.14849
1.1227
1.14652
1.16561
1.15338
1.14892
1.14733
1.13551
1.14161
1.13071
1.16639
1.15853
1.15615
1.15784
1.1498
1.13368
1.14421
1.16561
1.1507
1.16381
1.14162
1.13379
1.14452
1.14352
1.14906
1.13192
1.15245
1.16149
1.15543
1.16139
1.16785
1.14568
1.14298
1.15557
1.14594
1.13676
1.13804
1.15232
1.15156
1.1418
1.16491
1.17078
1.15636
1.16162
1.15248
1.15305
1.1415
1.16145
1.15306
1.1463
1.15759
1.13182
1.1478
1.15748
1.15517
1.15114
1.14416
1.15633
1.15325
1.14352
1.17361
1.15641
1.14971
1.17533
1.18284
1.17559
1.14705
1.15666
1.15147
1.14888
1.16173
1.15976
1.14906
1.15651
1.16214
1.14637
1.15718
1.15522
1.16615
1.16582
1.1495
1.16297
1.16609
1.15654
1.15562
1.16615
1.16828
1.1529
1.15808
1.1527
1.1511
1.15299
1.14922
1.14803
1.13298
1.16252
1.14005
1.15795
1.15274
1.17198
1.15658
1.17848
1.17259
1.16342
1.1683
1.1673
1.18613
1.15782
1.16639
1.17793
1.17022
1.16341
1.17426
1.19483
1.16885
1.18084
1.15624
1.15573
1.17063
1.18
1.19051
1.18468
1.1989
1.17929
1.15302
1.18248
1.17998
1.16727
1.17096
1.16203
1.18326
1.16954
1.16346
1.14792
1.18017
1.17781
1.1674
1.17364
1.16825
1.16063
1.15445
1.16768
1.16466
1.14959
1.16125
1.17502
1.17443
1.15739
1.15756
1.15194
1.17117
1.17176
1.17096
1.18292
1.17133
1.16975
1.14638
1.14974
1.16514
1.15824
1.17136
1.13909
1.1637
1.17989
1.17668
1.16794
1.16849
1.15613
1.17019
1.15994
1.15981
1.15349
1.16895
1.1585
1.15676
1.15564
1.14427
1.17059
1.15806
1.16788
1.16774
1.16255
1.16939
1.16789
1.16219
1.14658
1.16208
1.15867
1.14165
1.13702
1.13745
1.15837
1.16471
1.16543
1.14182
1.1525
1.15891
1.15125
1.139
1.15238
1.15297
1.14989
1.13793
1.14342
1.16687
1.1591
1.17026
1.15337
1.15733
1.16567
1.12229
1.13717
1.1495
1.13483
1.14663
1.16005
1.16757
1.14439
1.14277
1.14368
1.15393
1.17665
1.18489
1.15126
1.13989
1.14662
1.15612
1.17362
1.1527
1.16312
1.17636
1.16636
1.16511
1.1672
1.1565
1.16584
1.15851
1.18482
1.16954
1.15518
1.17926
1.16846
1.15858
1.15626
1.14991
1.16199
1.1711
1.15187
1.14985
1.15056
1.15769
1.15359
1.14381
1.16462
1.16136
1.17062
1.16482
1.17131
1.15562
1.16634
1.17292
1.1578
1.16366
1.166
1.16365
1.14773
1.1426
1.15492
1.15715
1.15861
1.16268
1.1703
1.16225
1.15244
1.13362
1.15729
1.1684
1.15925
1.11141
1.12593
1.1402
1.13594
1.15128
1.14446
1.14149
1.12531
1.12643
1.12671
1.13559
1.11215
1.13666
1.14343
1.13179
1.13765
1.13693
1.13016
1.13029
1.12211
1.09657
1.11348
1.10177
1.11443
1.10986
1.10389
1.08009
1.07537
1.08645
1.09502
1.08828
1.07026
1.08356
1.06961
1.0593
1.06449
1.06418
1.04737
1.0414
1.03577
1.03509
1.039
1.02117
1.02701
0.996868
1.00057
1.0138
1.00731
0.994691
1.00922
0.988165
0.979596
0.973356
0.951446
0.966632
0.952432
0.945573
0.958376
0.925647
0.914946
0.900768
0.910728
0.896895
0.88403
0.870024
0.873717
0.875634
0.873286
0.853655
0.839489
0.842512
0.832598
0.809799
0.811534
0.78807
0.818268
0.774265
0.7499
0.739058
0.733693
0.726433
0.712117
0.708678
0.708542
0.692827
0.664982
0.659808
0.647834
0.635121
0.61816
0.613198
0.583811
0.567382
0.545465
0.53869
0.521691
0.501204
0.474952
0.44207
0.413898
0.396846
0.374994
0.359366
0.313607
0.268436
)
;

boundaryField
{
    sides
    {
        type            calculated;
        value           nonuniform List<scalar> 2(0.268436 0.272585);
    }
    empty
    {
        type            empty;
    }
}


// ************************************************************************* //
