/*--------------------------------*- C++ -*----------------------------------*\
  =========                 |
  \\      /  F ield         | OpenFOAM: The Open Source CFD Toolbox
   \\    /   O peration     | Website:  https://openfoam.org
    \\  /    A nd           | Version:  7
     \\/     M anipulation  |
\*---------------------------------------------------------------------------*/
FoamFile
{
    version     2.0;
    format      ascii;
    class       volScalarField;
    location    "0.003";
    object      rhoMMean;
}
// * * * * * * * * * * * * * * * * * * * * * * * * * * * * * * * * * * * * * //

dimensions      [1 -3 0 0 0 0 0];

internalField   nonuniform List<scalar> 
1000
(
4.76319e-06
5.34138e-06
5.62886e-06
5.96157e-06
6.30931e-06
6.66701e-06
6.72754e-06
6.94315e-06
7.0463e-06
7.35448e-06
7.45922e-06
7.62681e-06
7.59236e-06
7.68819e-06
7.88132e-06
8.14331e-06
8.13684e-06
8.40174e-06
8.56162e-06
8.72088e-06
8.48063e-06
8.81384e-06
9.02526e-06
9.05429e-06
8.88755e-06
9.05549e-06
9.30264e-06
9.58338e-06
9.60206e-06
9.86067e-06
9.63356e-06
9.63058e-06
9.68378e-06
9.97061e-06
1.00008e-05
1.00536e-05
1.00461e-05
1.00647e-05
1.00514e-05
1.03907e-05
1.07418e-05
1.06876e-05
1.06831e-05
1.06808e-05
1.08239e-05
1.08123e-05
1.08842e-05
1.10342e-05
1.06272e-05
1.08772e-05
1.09633e-05
1.12872e-05
1.12315e-05
1.14261e-05
1.14556e-05
1.15151e-05
1.18061e-05
1.17125e-05
1.1665e-05
1.15977e-05
1.16055e-05
1.16514e-05
1.19958e-05
1.17441e-05
1.15312e-05
1.17536e-05
1.21195e-05
1.20508e-05
1.20894e-05
1.24064e-05
1.21513e-05
1.23478e-05
1.2115e-05
1.20919e-05
1.24129e-05
1.25647e-05
1.25225e-05
1.24058e-05
1.22319e-05
1.2435e-05
1.2596e-05
1.24651e-05
1.23363e-05
1.2742e-05
1.26954e-05
1.25069e-05
1.26271e-05
1.26065e-05
1.25516e-05
1.27153e-05
1.27114e-05
1.28023e-05
1.31472e-05
1.29108e-05
1.27238e-05
1.29844e-05
1.33289e-05
1.34146e-05
1.29532e-05
1.27326e-05
1.24941e-05
1.25867e-05
1.2815e-05
1.30815e-05
1.31832e-05
1.29529e-05
1.29734e-05
1.31658e-05
1.29425e-05
1.28182e-05
1.29483e-05
1.31521e-05
1.31127e-05
1.31857e-05
1.31178e-05
1.31837e-05
1.31023e-05
1.33629e-05
1.32824e-05
1.31501e-05
1.29163e-05
1.30527e-05
1.30671e-05
1.33322e-05
1.31075e-05
1.3084e-05
1.30823e-05
1.27579e-05
1.28101e-05
1.28951e-05
1.32557e-05
1.33465e-05
1.31039e-05
1.30867e-05
1.30212e-05
1.30475e-05
1.28942e-05
1.29589e-05
1.30367e-05
1.2974e-05
1.26482e-05
1.26416e-05
1.28192e-05
1.25612e-05
1.30637e-05
1.30863e-05
1.31022e-05
1.31569e-05
1.30611e-05
1.28077e-05
1.29971e-05
1.3185e-05
1.30564e-05
1.28537e-05
1.30151e-05
1.29094e-05
1.29815e-05
1.27573e-05
1.29259e-05
1.24623e-05
1.26734e-05
1.28093e-05
1.27754e-05
1.26365e-05
1.28075e-05
1.28893e-05
1.29433e-05
1.29612e-05
1.29148e-05
1.31507e-05
1.26028e-05
1.27934e-05
1.26884e-05
1.27961e-05
1.28343e-05
1.30584e-05
1.27583e-05
1.28982e-05
1.26103e-05
1.25366e-05
1.23897e-05
1.24601e-05
1.27108e-05
1.29126e-05
1.28139e-05
1.27739e-05
1.26868e-05
1.26916e-05
1.24202e-05
1.27477e-05
1.25898e-05
1.27953e-05
1.28149e-05
1.27711e-05
1.30792e-05
1.3081e-05
1.30191e-05
1.3025e-05
1.29308e-05
1.29408e-05
1.29618e-05
1.29523e-05
1.27197e-05
1.26916e-05
1.25922e-05
1.26745e-05
1.28032e-05
1.32428e-05
1.30342e-05
1.32876e-05
1.3413e-05
1.32997e-05
1.33565e-05
1.35372e-05
1.29469e-05
1.31872e-05
1.31718e-05
1.28211e-05
1.30828e-05
1.30089e-05
1.26509e-05
1.2723e-05
1.29776e-05
1.31611e-05
1.29346e-05
1.28226e-05
1.27797e-05
1.2587e-05
1.24066e-05
1.28297e-05
1.29243e-05
1.31001e-05
1.31538e-05
1.27288e-05
1.27125e-05
1.26032e-05
1.2991e-05
1.2783e-05
1.29259e-05
1.28503e-05
1.27884e-05
1.26737e-05
1.26611e-05
1.29954e-05
1.26694e-05
1.28829e-05
1.28187e-05
1.29128e-05
1.26054e-05
1.25238e-05
1.26437e-05
1.26651e-05
1.27473e-05
1.28133e-05
1.26499e-05
1.29402e-05
1.28037e-05
1.27211e-05
1.28834e-05
1.27952e-05
1.27682e-05
1.27737e-05
1.28142e-05
1.25992e-05
1.27021e-05
1.26755e-05
1.24029e-05
1.27494e-05
1.28509e-05
1.2747e-05
1.27798e-05
1.26266e-05
1.27002e-05
1.29964e-05
1.28351e-05
1.25388e-05
1.26913e-05
1.28423e-05
1.30476e-05
1.29637e-05
1.31822e-05
1.29897e-05
1.34375e-05
1.27624e-05
1.28234e-05
1.31782e-05
1.31383e-05
1.30065e-05
1.28724e-05
1.29091e-05
1.29897e-05
1.291e-05
1.3066e-05
1.29821e-05
1.32032e-05
1.29615e-05
1.29633e-05
1.27745e-05
1.28442e-05
1.28269e-05
1.2808e-05
1.30225e-05
1.28085e-05
1.29875e-05
1.32606e-05
1.34562e-05
1.32395e-05
1.33134e-05
1.32467e-05
1.30643e-05
1.31075e-05
1.30761e-05
1.30156e-05
1.31863e-05
1.30415e-05
1.30257e-05
1.29746e-05
1.27956e-05
1.25801e-05
1.28481e-05
1.29657e-05
1.32096e-05
1.31332e-05
1.32645e-05
1.32572e-05
1.33254e-05
1.30732e-05
1.37218e-05
1.35678e-05
1.30681e-05
1.29584e-05
1.28891e-05
1.29481e-05
1.30628e-05
1.33178e-05
1.31916e-05
1.27915e-05
1.2799e-05
1.27083e-05
1.27673e-05
1.3057e-05
1.27327e-05
1.29754e-05
1.32121e-05
1.30419e-05
1.29976e-05
1.32514e-05
1.30879e-05
1.29694e-05
1.29813e-05
1.30536e-05
1.31878e-05
1.31916e-05
1.28729e-05
1.29831e-05
1.25729e-05
1.27749e-05
1.29175e-05
1.28287e-05
1.2799e-05
1.31099e-05
1.30621e-05
1.26463e-05
1.29086e-05
1.29993e-05
1.28613e-05
1.3061e-05
1.33245e-05
1.30916e-05
1.29301e-05
1.31704e-05
1.29503e-05
1.29915e-05
1.27517e-05
1.25552e-05
1.26071e-05
1.2577e-05
1.28188e-05
1.30847e-05
1.31255e-05
1.30221e-05
1.29897e-05
1.29376e-05
1.27618e-05
1.26776e-05
1.2786e-05
1.26456e-05
1.25767e-05
1.25709e-05
1.27608e-05
1.25788e-05
1.26371e-05
1.28558e-05
1.297e-05
1.27596e-05
1.2794e-05
1.28496e-05
1.26463e-05
1.28022e-05
1.3081e-05
1.28356e-05
1.31552e-05
1.28546e-05
1.29262e-05
1.30243e-05
1.3254e-05
1.32141e-05
1.25537e-05
1.25788e-05
1.25755e-05
1.28528e-05
1.27653e-05
1.28124e-05
1.30039e-05
1.29487e-05
1.31896e-05
1.30369e-05
1.2968e-05
1.30848e-05
1.32601e-05
1.35038e-05
1.3278e-05
1.31642e-05
1.32037e-05
1.3084e-05
1.30161e-05
1.26501e-05
1.24412e-05
1.23057e-05
1.22422e-05
1.2083e-05
1.25183e-05
1.27676e-05
1.31349e-05
1.30179e-05
1.2948e-05
1.2813e-05
1.31598e-05
1.2845e-05
1.30527e-05
1.28056e-05
1.32812e-05
1.2984e-05
1.30836e-05
1.28254e-05
1.31204e-05
1.30193e-05
1.27391e-05
1.30319e-05
1.27333e-05
1.25926e-05
1.24978e-05
1.2776e-05
1.25178e-05
1.25442e-05
1.26214e-05
1.2773e-05
1.29964e-05
1.2872e-05
1.30207e-05
1.31209e-05
1.32742e-05
1.3103e-05
1.2753e-05
1.29126e-05
1.2646e-05
1.28181e-05
1.2962e-05
1.27123e-05
1.24206e-05
1.22534e-05
1.26666e-05
1.25541e-05
1.26052e-05
1.25654e-05
1.25658e-05
1.25917e-05
1.24371e-05
1.25241e-05
1.25863e-05
1.24321e-05
1.24971e-05
1.25246e-05
1.24924e-05
1.24345e-05
1.26281e-05
1.29539e-05
1.30543e-05
1.30606e-05
1.28213e-05
1.2953e-05
1.29608e-05
1.28558e-05
1.2651e-05
1.26776e-05
1.27067e-05
1.28163e-05
1.28018e-05
1.30977e-05
1.31023e-05
1.27909e-05
1.32005e-05
1.31909e-05
1.33008e-05
1.30293e-05
1.30116e-05
1.30326e-05
1.29127e-05
1.30823e-05
1.31385e-05
1.30369e-05
1.30062e-05
1.29873e-05
1.29964e-05
1.30541e-05
1.26989e-05
1.28585e-05
1.2663e-05
1.29032e-05
1.26733e-05
1.26807e-05
1.31507e-05
1.28293e-05
1.26437e-05
1.26434e-05
1.25265e-05
1.2799e-05
1.28106e-05
1.29655e-05
1.27553e-05
1.27329e-05
1.24678e-05
1.28304e-05
1.28539e-05
1.27044e-05
1.27311e-05
1.25717e-05
1.25544e-05
1.25742e-05
1.27747e-05
1.25888e-05
1.25608e-05
1.2668e-05
1.25196e-05
1.25305e-05
1.2773e-05
1.29737e-05
1.27858e-05
1.23281e-05
1.25171e-05
1.26199e-05
1.3003e-05
1.30286e-05
1.2973e-05
1.30439e-05
1.27251e-05
1.29869e-05
1.29907e-05
1.26229e-05
1.27263e-05
1.27472e-05
1.27581e-05
1.24305e-05
1.24785e-05
1.24598e-05
1.28389e-05
1.25974e-05
1.26361e-05
1.29029e-05
1.28359e-05
1.30731e-05
1.29511e-05
1.29336e-05
1.31704e-05
1.32597e-05
1.31644e-05
1.31604e-05
1.33825e-05
1.34859e-05
1.30778e-05
1.28205e-05
1.29316e-05
1.30309e-05
1.32081e-05
1.30535e-05
1.30845e-05
1.2982e-05
1.32575e-05
1.31365e-05
1.29434e-05
1.30731e-05
1.28944e-05
1.29136e-05
1.31431e-05
1.25553e-05
1.26637e-05
1.27331e-05
1.27724e-05
1.28155e-05
1.29441e-05
1.29718e-05
1.27995e-05
1.29708e-05
1.29094e-05
1.28854e-05
1.28654e-05
1.28151e-05
1.2787e-05
1.28748e-05
1.29974e-05
1.26817e-05
1.29659e-05
1.28175e-05
1.32478e-05
1.31378e-05
1.35024e-05
1.33175e-05
1.33767e-05
1.30996e-05
1.32104e-05
1.31649e-05
1.31251e-05
1.32876e-05
1.2952e-05
1.30781e-05
1.30197e-05
1.28654e-05
1.30321e-05
1.33112e-05
1.33155e-05
1.29425e-05
1.29623e-05
1.28703e-05
1.27577e-05
1.31105e-05
1.29389e-05
1.31999e-05
1.27989e-05
1.27041e-05
1.29806e-05
1.28142e-05
1.27171e-05
1.21867e-05
1.24238e-05
1.26831e-05
1.29673e-05
1.30269e-05
1.29283e-05
1.27635e-05
1.26545e-05
1.26457e-05
1.2788e-05
1.26838e-05
1.27048e-05
1.26957e-05
1.24833e-05
1.25031e-05
1.26768e-05
1.27522e-05
1.2678e-05
1.28002e-05
1.26714e-05
1.29015e-05
1.27029e-05
1.25786e-05
1.27083e-05
1.25566e-05
1.26175e-05
1.25191e-05
1.27719e-05
1.30872e-05
1.29533e-05
1.29833e-05
1.30976e-05
1.2894e-05
1.3074e-05
1.31435e-05
1.31693e-05
1.30576e-05
1.32001e-05
1.31914e-05
1.29685e-05
1.28247e-05
1.24646e-05
1.2792e-05
1.26104e-05
1.27133e-05
1.2784e-05
1.29444e-05
1.29608e-05
1.2788e-05
1.27368e-05
1.27992e-05
1.26074e-05
1.27077e-05
1.28995e-05
1.28774e-05
1.28019e-05
1.31554e-05
1.30589e-05
1.29683e-05
1.29776e-05
1.29144e-05
1.27856e-05
1.27095e-05
1.30918e-05
1.31042e-05
1.30977e-05
1.31335e-05
1.31852e-05
1.32654e-05
1.30613e-05
1.31866e-05
1.28338e-05
1.29884e-05
1.27363e-05
1.31229e-05
1.30468e-05
1.31271e-05
1.31312e-05
1.29227e-05
1.29037e-05
1.29368e-05
1.31319e-05
1.29173e-05
1.32964e-05
1.33977e-05
1.30093e-05
1.31782e-05
1.3249e-05
1.36287e-05
1.30617e-05
1.31633e-05
1.27644e-05
1.29956e-05
1.31334e-05
1.28287e-05
1.28471e-05
1.27556e-05
1.29844e-05
1.28672e-05
1.26947e-05
1.28479e-05
1.31795e-05
1.31175e-05
1.29466e-05
1.30538e-05
1.33479e-05
1.3221e-05
1.34417e-05
1.32689e-05
1.35258e-05
1.32013e-05
1.32416e-05
1.31615e-05
1.29588e-05
1.28734e-05
1.28133e-05
1.2984e-05
1.29005e-05
1.25387e-05
1.26511e-05
1.28852e-05
1.28379e-05
1.25825e-05
1.26889e-05
1.27387e-05
1.29561e-05
1.29368e-05
1.30162e-05
1.28367e-05
1.29645e-05
1.29738e-05
1.28776e-05
1.2907e-05
1.30779e-05
1.29518e-05
1.31228e-05
1.27076e-05
1.28435e-05
1.29454e-05
1.27167e-05
1.26634e-05
1.2704e-05
1.25718e-05
1.29626e-05
1.30053e-05
1.31158e-05
1.2846e-05
1.28851e-05
1.28534e-05
1.26357e-05
1.28558e-05
1.29615e-05
1.29484e-05
1.29623e-05
1.31294e-05
1.29683e-05
1.26404e-05
1.27821e-05
1.26915e-05
1.2696e-05
1.26273e-05
1.27763e-05
1.26125e-05
1.25317e-05
1.24444e-05
1.24197e-05
1.26477e-05
1.30202e-05
1.31313e-05
1.30365e-05
1.3154e-05
1.2964e-05
1.29642e-05
1.27966e-05
1.2906e-05
1.28518e-05
1.28677e-05
1.26533e-05
1.28765e-05
1.28536e-05
1.28197e-05
1.30065e-05
1.29134e-05
1.31517e-05
1.31647e-05
1.28771e-05
1.29537e-05
1.2999e-05
1.30029e-05
1.28213e-05
1.27883e-05
1.30162e-05
1.28105e-05
1.2568e-05
1.28481e-05
1.29452e-05
1.3016e-05
1.31766e-05
1.30174e-05
1.29019e-05
1.29251e-05
1.31676e-05
1.32954e-05
1.30908e-05
1.32167e-05
1.30515e-05
1.30249e-05
1.32303e-05
1.31219e-05
1.31201e-05
1.30404e-05
1.26499e-05
1.2975e-05
1.28951e-05
1.3002e-05
1.31422e-05
1.31254e-05
1.29712e-05
1.29408e-05
1.3037e-05
1.31589e-05
1.34223e-05
1.31943e-05
1.30462e-05
1.30269e-05
1.31302e-05
1.28982e-05
1.28299e-05
1.32017e-05
1.30899e-05
1.31222e-05
1.28659e-05
1.31294e-05
1.30654e-05
1.31847e-05
1.31912e-05
1.31077e-05
1.28471e-05
1.30325e-05
1.29689e-05
1.28052e-05
1.27892e-05
1.28244e-05
1.28449e-05
1.31027e-05
1.31245e-05
1.29506e-05
1.28521e-05
1.2841e-05
1.28505e-05
1.30427e-05
1.32742e-05
1.3047e-05
1.27637e-05
1.27598e-05
1.28977e-05
1.29204e-05
1.3072e-05
1.28187e-05
1.30129e-05
1.28851e-05
1.28784e-05
1.27529e-05
1.30772e-05
1.27323e-05
1.26609e-05
1.31155e-05
1.28689e-05
1.27619e-05
1.25696e-05
1.23361e-05
1.24698e-05
1.24827e-05
1.20742e-05
1.20602e-05
1.23732e-05
1.23177e-05
1.24402e-05
1.20494e-05
1.20391e-05
1.20761e-05
1.21979e-05
1.22533e-05
1.23206e-05
1.23258e-05
1.24394e-05
1.24427e-05
1.23402e-05
1.21896e-05
1.21301e-05
1.20279e-05
1.17785e-05
1.16319e-05
1.1746e-05
1.18062e-05
1.18699e-05
1.17717e-05
1.15907e-05
1.13721e-05
1.15901e-05
1.16802e-05
1.14203e-05
1.15108e-05
1.16343e-05
1.13354e-05
1.12288e-05
1.07667e-05
1.09387e-05
1.08646e-05
1.07479e-05
1.09121e-05
1.07174e-05
1.07545e-05
1.05185e-05
1.06385e-05
1.05601e-05
1.04725e-05
1.03757e-05
1.05665e-05
1.04906e-05
1.03985e-05
1.01727e-05
9.98529e-06
9.94228e-06
9.9956e-06
9.72245e-06
9.77891e-06
9.67181e-06
1.00229e-05
9.55207e-06
9.31e-06
9.02329e-06
9.07761e-06
9.10373e-06
8.94183e-06
8.76234e-06
8.86604e-06
8.76475e-06
8.59401e-06
8.46509e-06
8.29362e-06
8.08271e-06
7.8642e-06
7.85207e-06
7.44822e-06
7.30744e-06
7.12702e-06
7.03746e-06
6.98012e-06
6.82721e-06
6.59091e-06
6.24011e-06
6.02776e-06
5.92402e-06
5.68408e-06
5.53637e-06
5.07203e-06
4.64961e-06
)
;

boundaryField
{
    sides
    {
        type            calculated;
        value           nonuniform List<scalar> 2(4.64961e-06 4.76319e-06);
    }
    empty
    {
        type            empty;
    }
}


// ************************************************************************* //
