/*--------------------------------*- C++ -*----------------------------------*\
  =========                 |
  \\      /  F ield         | OpenFOAM: The Open Source CFD Toolbox
   \\    /   O peration     | Website:  https://openfoam.org
    \\  /    A nd           | Version:  7
     \\/     M anipulation  |
\*---------------------------------------------------------------------------*/
FoamFile
{
    version     2.0;
    format      ascii;
    class       scalarField;
    location    "0.003/lagrangian/dsmc";
    object      Ei;
}
// * * * * * * * * * * * * * * * * * * * * * * * * * * * * * * * * * * * * * //


4835
(
1.73363139e-20
2.329213066e-21
1.503862622e-20
1.622314977e-21
1.438006489e-21
3.376408506e-21
1.577397455e-21
1.276900528e-21
6.326262199e-22
1.571053913e-22
1.515719199e-21
8.068122665e-21
2.530464905e-21
7.614262817e-21
6.212602266e-21
2.316194199e-21
3.00085331e-21
1.353523542e-21
2.017221302e-21
4.347024961e-21
1.113548379e-21
2.204298246e-21
5.301704975e-21
4.835810258e-21
1.011595445e-20
1.016773468e-20
9.329276547e-22
9.556288819e-22
7.142477713e-21
3.282069776e-21
6.945055479e-21
5.813183571e-21
3.450338717e-21
7.863539581e-21
3.373132265e-21
1.399951133e-22
2.074636999e-21
2.7975389e-21
8.053138796e-21
1.558802259e-21
1.780056093e-21
5.39694654e-21
7.331992243e-21
4.384123414e-23
1.00125354e-21
1.785180534e-20
2.460804866e-21
4.246089209e-21
9.590326044e-21
6.609894247e-21
1.061562001e-21
6.786313064e-21
4.733897963e-21
5.445188003e-22
4.639048671e-21
3.74525149e-21
4.802221014e-21
3.883162066e-21
3.528895287e-21
8.165441685e-21
5.667694128e-21
4.831803518e-23
1.747021514e-23
2.397606124e-22
2.307000203e-21
2.560570498e-21
1.029215937e-20
1.372447923e-21
1.129084825e-21
8.830006682e-22
2.081456521e-21
2.818417962e-21
8.792098775e-21
5.812316595e-21
9.266067063e-22
7.320822453e-21
3.425069041e-21
8.726114382e-21
1.893014056e-21
1.497010032e-20
2.547315254e-21
1.877586878e-21
3.87967765e-21
4.673233248e-21
4.874155273e-21
2.152644761e-21
3.303838148e-21
3.647181484e-23
5.801262604e-21
3.976842506e-22
4.884132888e-21
3.319503166e-22
6.737374569e-22
1.869540354e-21
9.692284185e-22
7.060920836e-22
1.48602488e-21
1.210872384e-21
8.851582699e-21
2.227469413e-22
2.110221561e-21
5.166748448e-21
6.79554601e-22
4.349647105e-21
1.25647568e-20
7.358698365e-21
1.352069667e-20
2.927393209e-22
8.368256649e-21
1.85779888e-21
2.126646138e-22
3.737992188e-21
6.603375463e-22
1.159576387e-21
4.629992756e-21
4.38505377e-22
2.454754829e-21
1.352913303e-21
2.991803265e-21
1.248519403e-20
6.107945107e-22
7.265262928e-22
8.157019796e-21
6.22364035e-21
1.642776812e-20
3.174209242e-21
2.230664056e-21
1.755026145e-21
6.680751466e-21
2.953846476e-21
8.485796493e-21
9.885732728e-21
2.605824695e-21
6.430889147e-21
6.233060394e-22
3.085176039e-21
7.062372138e-22
1.597726349e-20
4.418515243e-21
5.479082449e-21
1.795018041e-21
1.758760414e-22
2.19045767e-21
8.661176501e-21
3.421110767e-21
2.084759457e-21
4.292666754e-21
3.423805346e-22
1.45008811e-21
4.367294319e-21
1.107425601e-20
7.077652356e-21
6.015133589e-21
1.494047028e-20
3.845496871e-21
1.966890673e-21
3.022389308e-22
7.825824474e-22
3.824673615e-21
3.565227471e-21
3.543143022e-22
9.652840364e-21
3.551010349e-21
1.576004327e-21
1.046760184e-21
1.872276163e-21
1.065571932e-21
1.368337702e-20
2.028173523e-22
2.388661872e-21
1.223005443e-21
2.725229128e-21
5.475504006e-21
3.416055012e-21
1.300372841e-21
3.934657939e-21
5.527381394e-21
1.132606503e-21
3.670085913e-21
8.358588723e-23
3.357658272e-21
1.385785591e-21
2.52082873e-21
4.923594285e-21
2.063416178e-21
4.628853263e-21
3.323973536e-21
1.171441796e-20
1.19963615e-21
1.62356371e-21
4.671398819e-21
1.813661782e-21
8.667226668e-21
1.470987816e-21
1.714904588e-20
1.323516702e-20
1.610928482e-21
5.390072146e-21
1.577330811e-20
1.781587606e-21
9.893512606e-21
1.411576588e-21
7.094180832e-21
1.859699323e-22
2.619724846e-21
1.41174834e-20
2.205134636e-21
2.934821223e-21
2.548476208e-23
5.094341058e-21
1.518155656e-21
4.175307146e-21
1.244697711e-20
2.484136305e-20
6.205812051e-22
4.236152761e-21
2.29206449e-21
2.646359076e-21
9.531426878e-22
5.530759657e-22
8.342198296e-21
1.910477097e-20
6.76151689e-22
6.719141256e-21
1.314000879e-21
2.189673041e-21
6.736488354e-21
1.57000848e-20
6.47434839e-22
1.027582209e-21
5.174297441e-22
2.796126908e-22
4.134168371e-21
5.367503603e-21
4.238554056e-21
9.977367464e-21
1.563023157e-20
5.801760551e-21
4.767805717e-21
1.513086287e-21
5.309617145e-21
1.289101301e-21
6.111572419e-22
1.183630992e-20
1.104855404e-21
1.352893542e-21
5.097313067e-21
4.579415481e-21
4.446886686e-21
2.031553438e-21
3.968821114e-21
1.544974641e-21
1.738388843e-21
6.537727164e-21
8.884692784e-21
6.900175009e-22
4.568876111e-21
1.977551491e-20
6.694066518e-21
2.123474588e-21
1.253202611e-21
1.295783592e-21
9.147131499e-22
1.371308792e-21
4.721382474e-21
1.26444453e-21
1.457896597e-21
5.193824789e-21
4.775691675e-22
7.537643735e-21
6.730438911e-21
1.937713314e-21
2.473510083e-21
2.146017655e-21
3.705734749e-21
3.626522659e-21
7.466345584e-21
8.900620242e-23
6.311282939e-21
1.445988561e-21
6.196543931e-21
9.480020816e-21
1.482997664e-21
4.918059885e-22
3.094531132e-21
2.391914661e-20
3.781779569e-21
2.174006963e-21
3.497899634e-21
5.221495235e-21
8.201894573e-22
1.111471161e-20
7.166236889e-21
5.902855064e-21
4.026808686e-22
1.083911814e-20
8.446630525e-21
2.816365181e-21
1.63099448e-20
6.055953463e-22
1.753739004e-21
4.829536281e-21
5.122072131e-21
2.36102167e-22
1.074630775e-22
2.552131317e-21
3.985424347e-21
4.846422271e-21
7.788133753e-22
1.441961532e-21
6.555587042e-21
1.016721737e-20
1.205641343e-20
6.21678386e-21
4.37217362e-22
5.019248868e-22
8.861005971e-21
1.896068485e-21
2.121628008e-22
1.65257914e-20
5.513446889e-21
4.334600486e-21
2.620691535e-21
1.162738296e-20
8.599495035e-21
2.73393947e-21
1.362109181e-21
2.863981366e-21
2.554940921e-21
2.996471685e-21
6.482560272e-21
6.650626027e-21
6.072512527e-21
3.853523272e-21
4.652032401e-21
4.72656815e-22
6.803381181e-22
1.672073381e-20
1.626265111e-21
2.971698461e-21
5.681036112e-21
2.550818157e-21
1.199833194e-21
3.730964105e-21
7.884359027e-21
1.223326476e-20
1.947138918e-21
1.629406495e-21
1.602416774e-21
1.128382009e-21
1.578154788e-21
1.647909601e-21
4.75002008e-21
1.926372929e-21
1.728548082e-20
1.118535346e-21
3.519283977e-21
9.625679999e-22
2.871263807e-21
4.530020832e-21
2.829274927e-21
4.460304566e-23
2.121975564e-21
2.215169078e-21
7.708818621e-21
1.023301166e-20
3.577772464e-21
7.871004784e-23
4.935852571e-21
2.134985677e-21
1.237270338e-21
2.347843053e-21
2.368892962e-21
9.257321929e-22
5.895773971e-21
1.259097311e-20
6.907554847e-21
1.973415039e-21
1.277821983e-21
4.24492548e-23
1.388861056e-21
7.264211213e-21
3.890588193e-21
9.188077403e-23
2.506473302e-20
1.042304627e-22
8.188011111e-23
3.303646187e-21
1.850048855e-22
3.670502852e-21
3.576085983e-21
5.500076513e-21
2.887776552e-21
3.424504211e-22
9.167445098e-22
7.498510007e-22
1.849517914e-21
5.070661251e-21
7.928496723e-21
1.592671877e-21
1.749096683e-21
3.455791385e-21
3.230466374e-21
1.80995082e-20
3.766424794e-23
3.017208299e-21
7.549533242e-21
8.077882948e-21
4.913979586e-21
1.50884285e-21
6.741201643e-21
5.707990264e-21
3.413496615e-21
9.317371655e-21
1.037951364e-21
1.288836247e-21
1.419156305e-21
1.401820318e-20
1.049421775e-21
1.11864822e-21
1.311254566e-20
4.300465051e-21
6.0042666e-22
2.801471e-21
9.391013043e-21
3.919290989e-21
9.109511638e-21
6.166093317e-21
5.425344827e-22
5.2192226e-21
6.237345704e-21
2.276167395e-21
2.470406391e-20
4.869663788e-21
5.579660419e-21
3.337837298e-22
9.623005734e-23
1.134239501e-22
2.205600258e-21
2.929883362e-21
6.33513228e-21
8.503678793e-21
6.663430885e-22
5.501161634e-21
5.210771835e-22
3.667266268e-21
4.048171903e-21
2.304446065e-21
3.826511724e-22
4.061948316e-21
2.816929292e-21
9.615333031e-22
4.692628908e-21
5.353651797e-22
1.08035646e-20
4.251412634e-21
2.017022495e-21
1.224005777e-21
1.117170023e-20
5.977130178e-21
3.659646978e-22
1.136846207e-21
1.010919039e-21
1.072533834e-20
7.534894862e-21
1.02419697e-20
1.883668552e-22
4.225910549e-21
3.933197918e-21
1.533036611e-20
7.066336249e-22
2.168395154e-21
2.249761406e-22
9.724317826e-22
3.928074694e-21
1.227235427e-20
9.879367515e-22
1.767477496e-21
2.242545832e-21
2.349625794e-21
8.417438731e-21
6.476682975e-22
9.596083849e-21
5.300234153e-22
4.662114994e-21
2.312733192e-21
1.093009405e-21
1.584882964e-20
1.154337145e-20
5.368348222e-22
1.173615079e-20
6.006564837e-22
2.202355527e-20
3.619699321e-21
7.89063089e-21
1.066259078e-21
4.888595504e-21
4.387271366e-22
8.277160271e-21
9.700230108e-22
4.030715961e-21
5.76840749e-22
4.306975257e-21
6.386589753e-21
9.539195287e-23
1.505505766e-20
1.404608895e-20
2.316711976e-21
2.034607767e-20
8.853042975e-22
3.701914329e-21
1.458678787e-20
5.934495148e-22
1.444543185e-21
2.375736568e-21
5.019745596e-21
2.877981751e-21
1.111478907e-21
2.694679744e-22
4.397311944e-21
2.639480489e-21
1.454879992e-20
1.624411506e-21
7.574243939e-21
1.981992171e-21
3.215616717e-22
2.101125089e-20
3.080884514e-21
4.35111296e-24
3.46974311e-21
8.420170963e-21
1.586198901e-21
7.261174866e-21
4.557850288e-21
6.813120851e-23
2.940542025e-21
4.813835693e-21
1.022705518e-22
4.992293508e-21
7.552803743e-21
2.346443715e-20
1.411733665e-20
5.266956182e-22
5.103176064e-21
1.182406368e-20
9.714899004e-22
9.433957243e-22
2.041465594e-22
6.398254732e-21
6.706580184e-21
2.048286531e-21
1.087092866e-20
6.738174865e-21
5.221416056e-21
4.461629259e-21
9.725742064e-21
7.503173351e-21
5.764155809e-22
5.064237607e-22
1.185230361e-21
5.079316974e-21
1.960982636e-21
4.877643016e-21
1.923323784e-21
3.130166969e-21
8.379975218e-21
6.560989056e-22
4.892706661e-21
1.021372671e-22
2.771169812e-21
1.426667603e-23
6.919765659e-21
3.362724943e-21
3.161865046e-21
2.941822993e-21
1.071055265e-21
2.400287288e-21
5.108805614e-21
2.519207871e-21
4.113496417e-22
2.104786285e-21
1.023237036e-20
1.724593721e-21
6.632906316e-21
2.462590056e-20
1.106060574e-21
1.967309648e-21
1.985689419e-21
1.018245226e-20
1.39071907e-20
2.932610269e-21
3.363680107e-21
7.995790335e-21
4.523445477e-21
3.572852514e-21
6.876705514e-22
4.167819574e-21
7.689497143e-22
3.90329388e-21
1.54348028e-20
1.534692296e-20
1.238417513e-21
2.940580108e-21
1.330434154e-22
7.540493987e-21
5.763785846e-21
1.609618707e-21
1.045981909e-21
2.137367806e-21
8.246932305e-22
3.636810363e-21
9.051625226e-22
9.624004212e-22
6.827213732e-22
5.779323466e-21
9.361311104e-22
1.386282049e-22
4.038848581e-22
3.79564982e-21
1.293784348e-20
2.145816138e-21
1.472877688e-20
9.052098132e-23
1.612258657e-21
2.392260598e-21
5.465677616e-21
2.219627515e-20
1.230584986e-20
7.579628355e-21
1.166253657e-21
1.646838692e-20
2.762485108e-21
2.883719484e-21
1.223142119e-21
4.584971925e-21
7.327666489e-22
6.161862418e-22
3.162696414e-22
6.138550142e-21
3.796828609e-21
6.266440441e-21
9.490285525e-21
3.654434579e-21
5.937060235e-21
8.212804471e-22
7.967944918e-21
2.484879932e-21
1.881156903e-21
1.086581649e-21
1.4034334e-22
6.379811693e-22
1.344160874e-22
5.909000178e-21
9.917328661e-21
3.939111661e-21
3.944060813e-21
9.406937602e-23
3.627504696e-21
2.081525173e-22
9.983112692e-22
2.28164002e-21
7.515152396e-21
8.924643234e-21
3.826748254e-21
8.602859137e-22
3.927714583e-21
6.328213554e-21
5.855200549e-21
1.86754962e-21
5.236001966e-21
1.643110072e-21
6.280103039e-21
1.318573956e-21
4.15324459e-23
4.006862479e-22
5.13283696e-21
2.207275148e-21
1.187510954e-20
3.930214004e-21
3.174803421e-21
2.615452405e-21
2.931015136e-21
6.877884036e-21
2.211832549e-21
1.109890843e-20
7.513168406e-21
5.807187253e-21
5.139433531e-21
2.138199682e-21
1.697947712e-20
3.632042708e-21
2.901404336e-21
9.947581107e-21
2.456375731e-21
3.236416382e-22
7.247213204e-21
3.000494113e-21
5.632170413e-21
1.299171932e-21
6.0757548e-21
3.831611704e-21
3.929125449e-22
1.310110835e-20
1.36844765e-21
4.504638288e-21
2.917904589e-21
2.101607627e-21
1.815748319e-22
1.961764513e-22
1.025929593e-21
5.335037315e-22
1.589063698e-21
3.582066181e-21
3.881921295e-21
2.005343676e-21
1.29074846e-21
5.014903768e-22
1.216244677e-20
2.059388882e-21
9.784495983e-22
2.24985552e-21
7.293099821e-21
2.719476993e-21
1.960710199e-22
6.051126646e-21
1.467327889e-21
2.592333991e-21
1.117892545e-21
1.158668035e-21
2.337937504e-21
9.502085823e-22
1.993227524e-21
2.706635287e-21
2.606913653e-21
8.154265441e-21
4.144240612e-21
2.557252425e-21
9.003852786e-21
4.919180781e-21
4.317936209e-21
4.161454216e-22
9.218183475e-21
7.706618701e-21
5.261676277e-21
3.137607426e-21
5.570821949e-22
3.906443427e-22
3.305762786e-21
5.080633061e-21
6.818901561e-21
9.905270358e-22
4.012603449e-21
1.321039118e-20
6.25423719e-21
1.113319198e-21
1.251539318e-21
1.08706436e-21
4.623017128e-21
1.492941662e-22
3.820367561e-21
5.354606311e-21
7.456376162e-22
6.999813298e-22
8.857209009e-23
7.441115338e-22
9.339714979e-22
1.684167758e-21
1.542687657e-21
2.389211905e-21
2.098997443e-23
1.73302964e-21
5.71798458e-21
5.319572674e-22
2.04086575e-21
6.621630959e-22
4.066592581e-21
5.515351136e-22
5.449714317e-21
4.600152084e-21
1.247653463e-20
2.552219298e-21
2.472175911e-20
2.027328847e-21
1.894375131e-20
1.779274603e-21
6.445696367e-21
2.019687065e-21
5.666507646e-22
2.411163848e-22
2.354685446e-21
7.303654569e-21
2.265059874e-21
3.767688579e-21
5.696668674e-22
2.544692186e-21
7.599670428e-21
2.960098897e-22
4.354238856e-21
9.16057675e-21
7.098526469e-21
1.881246566e-21
3.267326191e-21
1.197366146e-22
4.845602229e-21
1.413060605e-21
4.483296956e-21
3.854163982e-22
3.499187342e-22
7.556825978e-21
6.17469685e-24
1.835989635e-21
1.499035635e-21
3.574819819e-21
2.84452697e-21
4.662845393e-21
3.916514034e-21
2.964107359e-21
1.571838374e-20
4.189620522e-21
4.501281577e-21
4.754867347e-21
1.124615758e-21
4.46495853e-21
2.469749638e-21
7.331792103e-22
2.789528424e-22
3.951726812e-21
1.994135659e-21
4.652495056e-22
2.418130973e-22
7.806643928e-22
1.224443839e-20
3.225229153e-21
1.365585469e-21
2.717470063e-21
8.766160249e-21
1.278850388e-20
6.851524024e-21
2.298659475e-20
3.783840224e-21
2.007268796e-22
7.576674434e-21
4.767415157e-21
1.612613464e-21
7.725089231e-21
2.703679743e-21
1.568174066e-21
2.197892352e-22
5.53874639e-21
5.066634676e-21
8.06192948e-21
3.896228747e-21
8.999462924e-21
1.474996381e-20
1.01700408e-20
3.472798353e-21
2.117162971e-21
1.94616901e-21
2.393214302e-21
3.559550409e-21
6.053311247e-21
7.888042487e-22
1.57453976e-21
4.138696737e-21
1.107749299e-20
1.954091276e-21
5.695820791e-21
2.648909875e-21
2.084830985e-21
3.317850436e-21
6.603929353e-21
6.205995576e-21
6.725946461e-22
2.481755366e-21
1.48654129e-21
8.04515404e-21
5.411041796e-21
5.7616408e-22
2.409420056e-21
1.859573776e-22
1.866597452e-20
7.745582214e-21
1.011006138e-20
2.861685304e-21
3.998434923e-21
2.438315911e-20
8.670491903e-22
2.850288629e-22
1.575577878e-20
5.371937046e-21
1.913569617e-21
5.478950114e-21
3.037975871e-21
1.413512114e-20
1.945261723e-20
3.573911934e-21
1.626068127e-22
3.133377911e-21
2.78908399e-22
1.137174897e-23
1.140011329e-20
3.865467391e-23
4.180635424e-21
3.469944414e-21
2.443139247e-23
4.209681499e-21
5.488728504e-22
3.94817833e-21
5.051961328e-22
6.720487627e-21
3.958634326e-21
5.799814372e-21
1.90999143e-21
1.024545959e-20
1.046030938e-21
5.475056281e-21
1.351407566e-20
8.566798652e-22
6.911346711e-21
5.892931417e-21
4.044645212e-21
3.975885082e-21
7.074944204e-21
8.684724635e-21
5.844681015e-23
2.225044555e-21
7.627671331e-21
1.780012235e-21
5.674518268e-21
8.341498205e-21
8.79439974e-21
1.294385087e-20
7.993687766e-21
9.204801169e-21
1.082756175e-20
2.277264839e-21
6.333009404e-21
3.202358212e-21
1.436978496e-21
1.181832131e-21
1.792671336e-21
1.480477765e-21
2.321077337e-21
6.333978838e-21
2.055804549e-22
9.788883293e-21
7.252339696e-21
6.606147199e-21
7.020293932e-22
8.033917037e-21
8.781662318e-23
2.057908203e-21
9.22424352e-21
4.096646881e-21
6.626078321e-21
1.201176668e-21
6.779892515e-23
7.821113597e-21
1.624397415e-21
6.892333601e-23
2.648483186e-20
1.8746001e-22
4.617306215e-21
4.460957151e-21
8.113945169e-21
4.805252083e-21
1.207067128e-21
2.446602186e-21
7.710040428e-21
2.518821049e-21
1.013773285e-20
1.67385422e-22
1.840617133e-20
4.289036879e-21
3.45564942e-21
4.414752861e-22
5.845630738e-21
2.606463544e-21
2.478270556e-21
7.341866911e-21
1.826281817e-21
2.642895266e-20
4.261097672e-22
8.779071601e-23
4.173061362e-21
5.873205676e-21
1.174770364e-20
9.67085421e-21
1.627196651e-21
5.689079674e-21
5.478274185e-21
1.522006888e-21
3.422665289e-21
8.090229552e-22
9.351723037e-22
1.576831507e-21
4.856807836e-21
2.044544919e-21
6.527154587e-21
1.451303741e-21
3.004600176e-21
4.627562634e-21
1.315114134e-21
2.670385781e-21
2.28811588e-21
1.215535522e-20
7.451476495e-21
2.859590275e-21
2.86743901e-21
8.400079582e-22
1.809341863e-21
9.226904145e-21
2.876012291e-21
4.332849032e-21
4.518818363e-21
4.023033327e-21
3.22806561e-22
7.42561178e-22
5.74637525e-22
4.422399458e-21
1.507880805e-20
9.209894022e-21
1.208648101e-20
2.062044616e-21
5.816354955e-22
3.2895576e-22
9.046400143e-21
5.097516376e-21
8.317513919e-21
4.099800071e-21
5.757677923e-21
4.590846304e-21
2.284474973e-21
7.729647964e-22
1.331979021e-21
3.352355722e-21
3.625505749e-21
8.787071733e-21
2.631954686e-21
1.044572086e-20
4.271259545e-21
8.592055276e-21
4.89875911e-21
6.94258605e-21
1.90059826e-21
1.009209334e-21
6.184112355e-21
3.343877294e-21
8.190737274e-21
2.089880323e-21
1.306943463e-20
9.021058042e-21
1.264436099e-20
4.814523408e-22
4.452733251e-21
3.47518736e-21
5.983978998e-21
2.60187541e-22
2.826819731e-22
3.730311369e-21
1.115492743e-22
4.62652752e-22
5.688064947e-21
4.047651876e-22
7.191889183e-21
1.650087076e-21
2.319023607e-21
8.091906446e-22
7.363341442e-21
5.987198536e-21
2.511670992e-21
4.798558683e-21
3.767134876e-21
1.268827232e-21
4.746640489e-21
1.65025298e-21
2.630227287e-21
4.001502362e-21
5.257451425e-22
8.504015178e-21
4.307767773e-21
9.453351282e-22
8.739185304e-22
1.165514329e-22
1.6418824e-21
2.204675854e-22
9.281140785e-22
2.182054018e-22
6.065301235e-21
2.173866552e-22
1.760303072e-21
1.888565996e-21
4.287286235e-21
1.53320966e-22
4.884431195e-21
1.680108646e-20
2.413295298e-21
4.227814744e-21
1.07867871e-21
2.450316265e-21
2.693876145e-21
8.972909476e-22
7.447172943e-21
2.784198358e-21
1.178763982e-20
2.401148568e-21
2.303158018e-21
7.873248532e-21
1.397071599e-20
2.690124283e-22
8.10071366e-21
5.215541757e-21
7.831158227e-21
5.464612975e-21
4.954966159e-21
2.166081503e-21
9.058880803e-22
2.522328652e-21
3.484731771e-22
4.509275426e-21
1.921180627e-21
1.253889096e-21
2.92899571e-21
1.620914378e-22
7.360031457e-21
6.253322514e-22
2.189904244e-22
2.005865533e-21
7.222807108e-21
7.010152097e-21
2.177552152e-21
3.179879926e-21
1.053352976e-20
6.83656407e-22
2.427769909e-21
3.975827902e-21
1.024406618e-21
3.636675882e-21
1.379976227e-20
4.332392389e-21
4.220003718e-21
3.773310646e-21
4.006892979e-21
1.466431368e-21
1.389294946e-22
2.31711112e-21
2.551476882e-21
6.126456661e-21
9.706036331e-21
8.864525044e-22
7.551592576e-22
5.506790748e-21
2.968856308e-21
2.614712618e-21
1.253194754e-20
2.961341564e-21
2.165210175e-21
1.056784144e-20
2.259264997e-21
3.962463712e-22
1.529011348e-21
3.260415084e-22
2.75525485e-21
7.631646583e-22
2.938534285e-21
1.677679906e-21
1.602718628e-21
5.297878241e-21
2.51084238e-21
9.852529298e-22
1.318195763e-20
3.226297656e-21
1.665545723e-21
1.687072187e-21
3.973826534e-22
7.432915279e-21
9.880279246e-22
6.44687652e-23
6.492502346e-21
1.021153836e-21
2.070007322e-21
1.264506672e-20
3.885594416e-21
6.346162875e-21
3.871361936e-21
9.737945875e-22
3.126623002e-21
1.195236333e-21
4.08934091e-21
1.666015801e-21
2.123318212e-21
5.380049303e-21
1.615446335e-21
4.37016536e-21
8.70195437e-22
3.996244831e-22
7.115861961e-21
9.244820271e-22
4.609872553e-21
3.883378082e-22
1.029197006e-21
4.056818722e-21
3.29688466e-21
6.612684764e-22
4.657825018e-21
8.48661337e-23
1.334508949e-21
2.816074997e-21
1.941120485e-21
9.855506068e-22
1.846408334e-22
3.223803389e-21
5.052030584e-21
9.319344179e-21
3.022533399e-21
1.058416271e-20
2.585092464e-21
3.013992838e-22
2.821806588e-21
8.903407221e-22
1.521750399e-22
4.74303755e-21
1.978934345e-21
9.307762272e-21
3.488052854e-22
3.392454933e-21
7.522961928e-21
7.33651353e-21
4.346943804e-21
2.733309984e-21
2.080158194e-21
2.541222617e-21
3.682548755e-21
2.235716765e-21
5.46143935e-21
4.830558195e-21
1.114405134e-22
1.288850854e-20
8.993174558e-21
3.813089529e-21
4.709749173e-21
1.366374574e-20
5.511119647e-21
2.116101305e-21
8.991085918e-21
6.102113023e-21
1.730383471e-21
9.66058579e-22
9.213378355e-21
4.018229354e-21
2.321507345e-21
8.375903532e-21
9.730231027e-22
3.319067817e-21
8.782569268e-21
8.874767559e-21
1.531861705e-21
4.277142748e-21
5.247584851e-22
1.02271806e-20
8.592717747e-22
6.147455513e-21
2.143112604e-21
5.053459493e-21
5.885900387e-22
1.968761964e-21
1.118254816e-21
1.06599601e-20
1.304597905e-22
3.828629448e-21
6.357529698e-22
1.328360072e-21
8.541213832e-21
1.814796111e-20
1.289568494e-20
3.6442048e-21
7.821104301e-21
9.834373533e-21
2.196308935e-21
2.949773521e-21
1.135927456e-20
8.721497967e-23
5.712930231e-21
6.303465114e-22
1.462626705e-21
1.920195244e-22
3.794401275e-21
1.744187265e-21
3.434352973e-21
1.291572022e-21
1.136194955e-21
2.625874018e-21
2.304991023e-21
7.166646604e-21
1.820009522e-21
1.208735841e-20
8.639134817e-22
3.65873335e-21
1.206484477e-22
7.146719393e-22
6.103729867e-22
3.117929084e-21
8.569198934e-22
4.783690002e-21
5.518901854e-22
1.655420275e-21
6.618148627e-21
3.71736848e-21
5.56655263e-21
3.218991083e-21
7.830031824e-21
5.923669077e-23
2.960222646e-21
3.854309723e-21
1.149148814e-21
1.456918504e-21
1.595556642e-21
7.814087897e-22
1.024809246e-20
4.681905701e-21
1.225340621e-21
1.764590093e-21
7.126603235e-22
6.736161324e-21
1.165251037e-20
3.169842458e-21
2.768608419e-21
3.943211631e-22
3.301859953e-22
2.111864035e-22
3.424495794e-22
3.405834847e-21
1.932282163e-21
1.021290092e-20
1.700092642e-20
5.994111271e-22
5.132579355e-21
4.265741583e-21
7.987388763e-21
9.383623108e-23
2.224946692e-21
3.995451564e-21
3.747240791e-21
2.398944992e-21
1.327408915e-20
2.278969803e-21
4.401460179e-21
1.463808895e-20
3.775125671e-21
2.500521172e-22
2.390422454e-21
9.343890473e-21
2.212959696e-21
1.198400985e-21
4.072130056e-22
2.941421949e-21
4.5842887e-21
1.086041847e-20
4.069736468e-21
4.795092548e-22
8.072097586e-21
7.787327216e-22
2.4887242e-22
7.857675164e-21
3.157052667e-21
1.777017831e-21
2.043080059e-21
7.478426002e-21
1.039861177e-21
6.659612299e-21
8.292054043e-21
6.792375699e-21
6.850492234e-21
5.893489061e-21
2.295320271e-21
4.809398619e-21
9.608319193e-22
4.449611503e-23
1.984325423e-21
2.181981331e-21
3.813401097e-21
4.098993914e-22
5.609791964e-21
9.618398477e-22
1.583013525e-21
1.535112515e-21
2.989754082e-21
5.495361483e-21
2.320383459e-21
2.971175637e-21
5.805065928e-21
9.242261454e-21
1.9291255e-21
1.6957686e-21
8.10707403e-22
7.633634023e-21
2.931361145e-22
2.106106786e-21
2.924345428e-21
3.15205535e-21
1.037686999e-21
3.081091504e-21
8.992661346e-22
1.056608605e-20
8.644572905e-22
2.754837026e-22
1.363198861e-21
3.008733179e-21
2.889855201e-22
9.585377011e-21
1.146305676e-20
1.307574679e-20
8.101268489e-22
1.705166864e-21
5.414923121e-21
2.916625315e-21
2.515126319e-22
7.286376268e-21
3.956678366e-21
1.331457982e-20
1.125418639e-20
2.428880686e-21
2.660597337e-21
2.868621857e-21
1.336735114e-22
6.467636152e-22
9.786704976e-22
3.431430461e-21
1.438333109e-21
1.193568749e-21
1.148021296e-20
4.186846302e-22
5.962350799e-21
3.295714345e-21
4.192563683e-21
1.470779349e-22
3.226273665e-21
9.675513035e-21
1.304552011e-21
6.632233175e-21
3.091934198e-21
1.658508294e-21
1.325454878e-21
5.281282194e-21
5.084131002e-21
2.415108047e-21
6.449891097e-22
4.362277931e-23
2.681158594e-21
2.105469989e-21
5.513793639e-21
3.969123389e-21
1.933994305e-20
4.804420718e-22
5.374783417e-21
4.000722395e-21
3.5199354e-21
5.589763963e-21
5.673805215e-21
2.827072914e-21
9.772051582e-21
2.007833656e-21
8.436106478e-22
3.203699774e-21
7.989600658e-21
1.35823527e-21
1.66490057e-20
7.536101677e-21
8.885791235e-22
1.887055993e-20
5.157969707e-21
1.498451677e-21
6.88110428e-21
1.212003421e-20
8.492794382e-22
7.193242508e-21
2.320737564e-21
1.061214095e-20
1.699008402e-21
2.426898696e-21
2.476298842e-21
4.819308351e-21
8.7713057e-22
5.441438425e-21
2.709434383e-21
4.934195148e-21
1.032598123e-20
7.359166831e-21
8.077219099e-21
5.330975515e-21
2.694498588e-21
1.031866609e-20
4.148274312e-22
3.760390447e-21
2.026395344e-21
6.74146255e-23
1.989701061e-21
2.096489255e-21
1.767616839e-21
4.798576278e-22
2.565714489e-21
8.197394985e-21
1.31286449e-21
2.446787853e-22
4.153500183e-21
6.998246704e-22
5.819286621e-21
1.048970344e-20
1.36514728e-21
1.301997809e-20
1.862276302e-20
3.17629026e-21
6.578703232e-21
1.939483747e-21
2.933239433e-21
2.526854103e-21
5.724694227e-21
4.477256239e-21
4.789141333e-21
7.400305314e-21
9.569876939e-21
3.852493489e-21
1.271793526e-21
1.213778814e-20
2.05721638e-21
1.648097499e-20
2.6440651e-21
7.047796166e-21
3.229165189e-21
3.294944051e-21
6.266370415e-21
8.090693889e-21
1.874893478e-21
2.19261588e-21
6.001443057e-22
4.083511205e-21
1.622954358e-20
3.193958896e-22
1.891304864e-21
1.42220202e-21
3.095748221e-21
7.678882742e-22
3.413156787e-21
4.316967138e-21
5.176745549e-21
2.388610652e-21
1.967429977e-21
6.289459324e-21
1.690143858e-20
1.719836093e-22
1.248947248e-20
2.278244495e-21
4.969036433e-21
5.177291198e-21
6.136023096e-21
4.475716361e-21
2.031093482e-21
1.663481649e-20
8.289394015e-21
3.451890434e-21
1.81373132e-21
1.301632191e-20
4.945618942e-22
1.331309742e-21
1.643175361e-21
1.129636596e-21
7.923903284e-21
1.124521404e-21
9.959545051e-21
8.345447959e-21
3.45326712e-21
7.265048938e-22
2.851910289e-21
3.928876979e-21
2.216903325e-21
3.752205064e-21
1.060018152e-21
1.713452318e-21
2.333343867e-21
7.176292869e-21
3.171958746e-21
9.907462555e-21
3.854314572e-21
4.587532299e-21
1.23740013e-20
6.479363911e-21
1.576851415e-21
7.20773692e-21
3.351803378e-21
3.332780387e-21
4.391295952e-21
1.097062523e-21
1.988694064e-21
2.712484599e-21
1.22027474e-20
7.670472446e-22
2.581488788e-21
3.690634076e-21
7.588174798e-21
3.329655135e-22
1.438591092e-20
5.279217663e-21
1.062437457e-21
1.780495111e-22
2.027981631e-21
1.806589508e-21
9.250539075e-21
1.38188394e-21
2.923686342e-21
4.647139323e-21
9.599141109e-22
2.398070922e-21
8.741792355e-21
2.674959521e-21
1.362021448e-21
4.244550722e-21
2.481829753e-21
6.47532231e-23
3.90628329e-21
3.813306706e-21
5.29076763e-21
1.962158585e-21
5.6395843e-21
2.714882474e-21
1.192955667e-21
2.522672178e-22
9.403665551e-21
6.173672432e-21
2.755880061e-21
1.440320235e-21
3.650735379e-21
2.171847944e-21
2.653851962e-21
3.31305156e-21
3.368266656e-22
2.307428046e-21
2.962287853e-21
1.177094923e-21
1.358084808e-21
7.247142893e-22
3.529319058e-21
1.249282598e-20
7.602493549e-22
3.228085757e-21
6.21769861e-21
4.534478536e-21
7.170811234e-21
2.985473917e-21
1.122222917e-21
5.592255085e-21
5.925947597e-21
2.445380544e-21
4.71754244e-21
2.516800105e-20
3.811543288e-22
8.383820153e-21
3.889439501e-21
4.094258927e-21
4.74723261e-21
1.411487446e-20
3.794380722e-21
8.007011781e-22
5.524496655e-21
6.726852081e-21
1.536845481e-20
4.172954132e-21
5.901017745e-22
2.635438182e-21
4.454673259e-21
1.113570901e-20
7.659279003e-21
1.486297305e-20
2.891000827e-22
1.48173373e-21
2.509118748e-20
5.52087374e-21
7.222640803e-21
2.004056375e-21
1.294457076e-21
7.514295162e-21
3.649174163e-21
9.049606629e-21
1.282651326e-21
8.86283906e-21
4.442150577e-21
4.055944848e-21
5.37294907e-21
2.523872288e-21
8.774018445e-22
5.378427651e-21
2.050995889e-20
6.251967735e-21
8.329067515e-22
5.266565013e-22
2.183475491e-22
1.956413621e-21
2.899941821e-21
4.84314624e-22
4.330833219e-22
3.63553051e-23
2.641743984e-21
5.097313795e-22
6.603788714e-21
9.692848435e-22
1.134948922e-21
7.470247141e-21
3.757664229e-21
9.310646067e-21
2.840652673e-22
1.815787847e-21
2.474902305e-21
1.430749758e-21
4.913398468e-22
2.922048463e-21
3.970618984e-21
1.192346379e-21
2.421544813e-21
4.631913599e-21
9.416063921e-23
8.171924212e-22
8.575761498e-21
4.530734322e-21
5.439675538e-21
5.766753899e-22
3.575341883e-21
4.077292596e-22
1.355503374e-21
4.140218594e-22
1.766235458e-21
2.492197204e-21
3.06119763e-22
7.307275212e-22
7.799931576e-21
1.70309071e-21
5.565126765e-22
6.97331727e-21
4.357732755e-22
3.5310702e-22
2.354600214e-21
2.220867493e-21
1.440563265e-20
1.626547989e-22
2.11990472e-21
7.881363702e-22
1.040464168e-21
9.527233877e-21
1.163678085e-21
3.721353408e-21
6.811383592e-22
2.083759609e-21
1.326615353e-20
3.579187525e-21
5.006936164e-21
9.210314026e-22
1.90291155e-21
4.598137911e-21
3.522661697e-21
2.211886828e-21
9.759860146e-21
9.170468941e-21
5.071971594e-21
8.370343681e-21
1.258868451e-21
3.596150583e-21
9.583929767e-22
1.625424739e-21
4.556561913e-21
1.110003089e-20
1.313100252e-20
3.836109539e-21
1.211069263e-20
5.072363837e-21
5.477688136e-22
3.704186082e-21
5.352567359e-21
4.619174477e-23
2.177898435e-21
1.098228361e-20
1.063820782e-21
2.86943088e-22
9.17994846e-22
3.034659474e-21
3.943084998e-21
2.56653732e-21
9.500551793e-21
3.352344534e-22
3.3956307e-21
7.095853571e-22
5.362829243e-22
2.259914402e-22
1.126383898e-20
3.558565243e-21
2.611425056e-21
6.608071911e-21
1.759598451e-20
1.863668055e-22
1.056906244e-21
9.051472367e-22
1.212053831e-22
4.84435561e-21
2.378666575e-21
2.215870041e-21
1.174251099e-21
1.386561622e-21
5.100571284e-21
2.298860258e-21
1.998644596e-22
2.690124822e-21
4.802756066e-21
2.092668314e-21
1.461383177e-21
2.464622292e-21
1.150821726e-20
3.428429564e-21
1.997650235e-20
6.013035503e-21
2.759156696e-21
1.271585653e-20
3.744810925e-21
6.680077524e-21
1.559332931e-20
8.75171368e-21
6.753989855e-21
1.139597236e-21
1.68204474e-20
4.423391762e-21
1.35091671e-21
3.278224211e-21
6.872209483e-21
9.838017665e-21
8.640149231e-21
1.817519769e-21
2.762145477e-21
2.053481457e-22
3.856231167e-21
4.563068499e-21
9.518178271e-21
1.545481592e-21
5.715804541e-21
1.747447197e-22
5.278326253e-21
8.395340784e-21
5.366245203e-21
1.374723474e-21
5.280373037e-21
1.853279136e-21
5.248547911e-21
1.076104373e-20