/*--------------------------------*- C++ -*----------------------------------*\
  =========                 |
  \\      /  F ield         | OpenFOAM: The Open Source CFD Toolbox
   \\    /   O peration     | Website:  https://openfoam.org
    \\  /    A nd           | Version:  7
     \\/     M anipulation  |
\*---------------------------------------------------------------------------*/
FoamFile
{
    version     2.0;
    format      ascii;
    class       Cloud<dsmcParcel>;
    location    "0.003/lagrangian/dsmc";
    object      positions;
}
// * * * * * * * * * * * * * * * * * * * * * * * * * * * * * * * * * * * * * //

4835
(
(0.09415596846 0.4529220158 0.3430154017 0.1099066141) 173 346 2
(0.1506973579 0.1478899545 0.424651321 0.2767613665) 279 558 2
(0.0362519975 0.4818740012 0.3742586864 0.1076153148) 95 151 1
(0.2927879648 0.3536060176 0.1505230742 0.2030829434) 152 305 1
(0.4195304485 0.2841738646 0.2902347757 0.006060911165) 539 1084 2
(0.4090047596 0.1925338695 0.2954976202 0.1029637507) 264 529 2
(0.3018726028 0.02193077943 0.3271329192 0.3490636986) 273 507 2
(0.1046059901 0.447697005 0.2222084252 0.2254885797) 420 815 1
(0.1598860276 0.4200569862 0.2195850665 0.2004719197) 292 545 1
(0.1901512927 0.003426291931 0.4049243537 0.4014980617) 211 420 1
(0.3688404302 0.3155797849 0.01201157462 0.3035682103) 35 68 2
(0.02641541186 0.4396948246 0.04709746952 0.4867922941) 113 226 1
(0.3172973862 0.3413513069 0.261250824 0.08010048289) 86 133 1
(0.457073269 0.2714633655 0.09551513783 0.1759482277) 227 452 2
(0.3485322605 0.3257338698 0.2909056058 0.03482826393) 86 133 1
(0.7161426789 0.1419286606 0.09412321845 0.04780544211) 159 316 2
(0.7382071167 0.1217535199 0.1308964417 0.009142921735) 169 336 1
(0.3146921914 0.2209543236 0.3426539043 0.1216995807) 67 135 2
(0.3984270035 0.3007864983 0.1117670422 0.189019456) 284 568 2
(0.007007277552 0.2938461159 0.2026502453 0.4964963612) 163 287 2
(0.4715588344 0.2085347177 0.2642205828 0.0556858651) 485 938 2
(0.1804244641 0.2739586611 0.4097877679 0.1358291068) 293 584 1
(0.02962073627 0.4851896319 0.4333356354 0.05185399647) 418 792 1
(0.4703885264 0.2648057368 0.03496507878 0.229840658) 211 383 1
(0.1656878354 0.4171560823 0.01116854173 0.4059875406) 289 539 1
(0.6751269993 0.1125726856 0.1624365004 0.04986381479) 283 564 1
(0.2704877355 0.09399887112 0.2707572611 0.3647561323) 384 728 2
(0.1464921208 0.1862517185 0.4267539396 0.240502221) 310 618 1
(0.5785536797 0.2107231602 0.1426352545 0.06808790567) 211 383 1
(0.6662205921 0.1476194993 0.01927020464 0.166889704) 232 425 2
(0.7243176041 0.1261702036 0.01167099433 0.1378411979) 399 774 1
(0.1536473771 0.3277920173 0.09538429413 0.4231763115) 130 221 2
(0.4150931563 0.2166320756 0.07582134625 0.2924534219) 202 365 2
(0.2898524805 0.3550737597 0.08371930724 0.2713544525) 379 737 1
(0.1249636464 0.4375181768 0.1954158934 0.2421022834) 236 472 2
(0.4851185008 0.09923964145 0.1582011081 0.2574407496) 448 867 1
(0.4083670677 0.2958164662 0.2757500649 0.02006640128) 254 509 1
(0.02710555873 0.4864472206 0.1553788471 0.3310683735) 22 5 1
(0.2920199387 0.3539900307 0.3013390867 0.05265094397) 77 154 2
(0.07036771857 0.4648161407 0.1640190089 0.3007971318) 397 752 1
(0.05495316334 0.2558123139 0.4725234183 0.2167111044) 257 515 2
(0.4425496587 0.2540913811 0.02463378954 0.2787251706) 173 346 1
(0.0155798363 0.2141099812 0.2781001006 0.4922100818) 376 712 2
(0.4107861475 0.1067813412 0.187825585 0.2946069263) 118 197 2
(0.7777446086 0.1111276957 0.05629742583 0.05483026987) 342 645 1
(0.08580339074 0.4570983046 0.2820244318 0.1750738729) 71 142 2
(0.3220686802 0.167525061 0.3389656599 0.1714405989) 205 408 1
(0.6596191976 0.03155665353 0.1386337477 0.1701904012) 460 890 1
(0.4400010159 0.2799994921 0.1750899298 0.1049095623) 492 933 1
(0.09226082551 0.2232690393 0.4538695872 0.230600548) 476 479 1
(0.4845216475 0.2577391762 0.03391920801 0.2238199682) 150 300 2
(0.6160492073 0.1919753964 0.08399033565 0.1079850607) 218 437 1
(0.667463856 0.1419741925 0.02429387954 0.166268072) 545 1033 2
(0.1253689619 0.4373155191 0.09150762102 0.3458078981) 139 278 1
(0.2414394863 0.1574881975 0.2217920594 0.3792802569) 111 183 2
(0.4416152446 0.2791923777 0.05995216027 0.2192402174) 162 324 2
(0.6246439844 0.141555585 0.1876780078 0.04612242276) 231 460 1
(0.3527028223 0.1418791375 0.3236485888 0.1817694513) 428 830 2
(0.07915744636 0.4604212768 0.1290889673 0.3313323095) 146 292 2
(0.2856071022 0.3095186764 0.04767777251 0.3571964489) 214 428 1
(0.3494453872 0.3252773064 0.13346861 0.1918086965) 259 478 1
(0.6489357775 0.04220696578 0.1755321112 0.1333251455) 78 154 1
(0.07106506038 0.4644674698 0.1667354475 0.2977320223) 225 450 2
(0.4116947702 0.2941526149 0.03407991751 0.2600726974) 386 750 1
(0.589088364 0.205455818 0.03150660613 0.1739492119) 331 623 1
(0.5035792339 0.1449407215 0.1032696616 0.2482103831) 323 646 1
(0.3372519273 0.3313740363 0.0380287683 0.293345268) 499 965 1
(0.3085040993 0.3258379024 0.3457479504 0.01991004794) 191 380 1
(0.04811221955 0.4759438902 0.2426364949 0.2333073953) 413 783 1
(0.9405805658 0.006259026272 0.02345069085 0.02970971712) 174 348 1
(0.5207441217 0.2255340818 0.01409385737 0.2396279392) 291 543 2
(0.1965481254 0.09064484602 0.3110810913 0.4017259373) 110 220 1
(0.4717712578 0.2641143711 0.07779414129 0.1863202298) 13 27 1
(0.1048117571 0.4475941214 0.06235148729 0.3852426341) 272 542 2
(0.47281589 0.263592055 0.05835526486 0.2052367902) 510 986 1
(0.3729503602 0.2653390684 0.3135248199 0.04818575148) 472 911 1
(0.1274113873 0.4362943063 0.3131323564 0.1231619499) 45 90 2
(0.217358306 0.391320847 0.2360344535 0.1552863935) 477 920 2
(0.541060395 0.2294698025 0.2197718417 0.009697960771) 323 647 1
(0.1778793546 0.4110603227 0.2155394701 0.1955208525) 398 770 2
(0.3054268965 0.3472865517 0.04547359731 0.3018129544) 148 296 2
(0.4750616964 0.09936495634 0.1631041954 0.2624691518) 431 835 1
(0.08801482645 0.199776105 0.2562164818 0.4559925868) 129 219 2
(0.01576546503 0.1771859788 0.3149312887 0.4921172675) 279 518 2
(0.8577387782 0.01074791541 0.0711306109 0.06038269548) 256 513 2
(0.3213181006 0.3393409497 0.07730811463 0.2620328351) 296 592 2
(0.8604951757 0.06975241214 0.06060654349 0.009145868646) 369 718 1
(0.02537644087 0.4873117796 0.07481767645 0.4124941031) 231 463 1
(0.2885228538 0.3557385731 0.05412760741 0.3016109657) 227 454 2
(0.1574298101 0.4212850949 0.04954917655 0.3717359184) 162 324 2
(0.3185752449 0.3407123776 0.2608570874 0.07985529013) 9 19 1
(0.4610824166 0.2694587917 0.2226015586 0.04685723315) 225 448 2
(0.6227158086 0.006380220749 0.1822618749 0.1886420957) 416 788 2
(0.5271479407 0.2364260296 0.09378540682 0.1426406228) 63 126 2
(0.7341908869 0.03025240443 0.1026521521 0.1329045566) 291 543 2
(0.03445254733 0.4827737263 0.2333731099 0.2494006164) 425 824 1
(0.9064348579 0.04678257105 0.01491701792 0.03186555313) 211 383 1
(0.6939728864 0.0624281738 0.09058538298 0.1530135568) 257 475 2
(0.360897506 0.319551247 0.1076358368 0.2119154102) 129 256 2
(0.03843118388 0.4807844081 0.1929322799 0.2878521282) 417 790 1
(0.5665557567 0.06728511087 0.1494370108 0.2167221217) 421 798 2
(0.719751148 0.140124426 0.05962611692 0.08049830909) 528 1001 1
(0.7269650889 0.02417765233 0.1365174556 0.1123398032) 138 274 1
(0.2494951397 0.1030240311 0.3752524302 0.272228399) 133 267 2
(0.1342228914 0.2698021074 0.1630864469 0.4328885543) 180 360 1
(0.04863806698 0.4756809665 0.3708317881 0.1048491784) 291 582 2
(0.5332950012 0.01826935142 0.2333524994 0.215083148) 232 465 2
(0.3787618329 0.3106190836 0.0755260734 0.2350930102) 312 624 2
(0.1240649211 0.4379675394 0.05942147427 0.3785460652) 297 595 1
(0.818411217 0.09079439148 0.08601485141 0.004779540072) 288 537 1
(0.1800728733 0.1924214534 0.4099635633 0.2175421099) 7 12 1
(0.4420333169 0.2789833415 0.08185364155 0.1971297) 254 508 2
(0.3247397916 0.3376301042 0.1964518001 0.1411783041) 490 929 1
(0.2066971882 0.3966514059 0.3498700343 0.04678137164) 50 100 2
(0.02125662079 0.4893716896 0.1352115439 0.3541601457) 349 659 1
(0.6139379481 0.1930310259 0.1349822162 0.0580488097) 102 204 2
(0.7127961373 0.05211335056 0.1436019313 0.09148858079) 445 860 1
(0.576135782 0.211932109 0.03574433619 0.1761877728) 211 422 2
(0.4707287278 0.2646356361 0.02159612686 0.2430395093) 490 945 2
(0.6251138815 0.117439241 0.1874430592 0.07000381822) 354 693 1
(0.1896559336 0.4051720332 0.3297111137 0.07546091949) 433 821 1
(0.003858933006 0.4326421188 0.4980705335 0.06542841468) 129 259 2
(0.1009262264 0.1754976235 0.4495368868 0.2740392633) 450 869 1
(0.2074868844 0.3962565578 0.3211397507 0.07511680712) 250 461 1
(0.6169939181 0.03237154032 0.1591315006 0.191503041) 73 107 2
(0.0423175892 0.4788412054 0.2860159676 0.1928252378) 132 264 2
(0.08232956322 0.08178398359 0.4588352184 0.3770512348) 235 468 1
(0.5895459609 0.04036829421 0.2052270196 0.1648587254) 285 571 2
(0.2265656896 0.3867171552 0.1900983292 0.196618826) 234 466 2
(0.1527124564 0.3973042198 0.4236437718 0.02633955203) 449 867 1
(0.5262370153 0.1369542629 0.2368814924 0.09992722951) 116 230 1
(0.1062438723 0.148542083 0.2983359808 0.4468780638) 36 72 1
(0.06104441165 0.4504194387 0.4694777942 0.01905835545) 463 897 2
(0.1144036919 0.04182522108 0.4427981541 0.400972933) 496 559 1
(0.003736517597 0.4981317412 0.3189574305 0.1791743108) 181 323 1
(0.02630229931 0.4868488503 0.4195402176 0.06730863278) 242 485 1
(0.6536566988 0.1514963856 0.02167526501 0.1731716506) 186 372 1
(0.1746862332 0.08755174033 0.4126568834 0.3251051431) 89 176 1
(0.02437081431 0.4878145928 0.3177857739 0.170028819) 289 576 2
(0.022591314 0.488704343 0.01436760165 0.4743367414) 236 473 1
(0.1445450851 0.4277274574 0.1242638948 0.3034635626) 171 340 2
(0.4518363509 0.2740818246 0.0997275028 0.1743543218) 161 323 1
(0.1984795143 0.4007602429 0.1733584249 0.2274018179) 300 561 1
(0.2227733909 0.3886133046 0.2242153461 0.1643979584) 387 751 2
(0.5098066655 0.1096935549 0.1354031123 0.2450966673) 253 467 2
(0.5588826531 0.2205586735 0.01852128209 0.2020373914) 75 148 2
(0.09136497169 0.4543175142 0.4198017899 0.03451572424) 508 981 2
(0.5174601834 0.2412699083 0.1622601375 0.07900977078) 93 186 2
(0.4879895368 0.2560052316 0.09346979568 0.1625354359) 112 224 2
(0.0879697475 0.4560151262 0.1473177974 0.3086973288) 371 719 2
(0.8591706022 0.05407973044 0.01633496844 0.07041469888) 114 228 1
(0.5751876804 0.2124061598 0.2059746647 0.00643149513) 73 146 2
(0.3500899475 0.3249550263 0.2521087068 0.07284631946) 178 357 1
(0.4361353419 0.2819323291 0.04525795761 0.2366743715) 461 893 1
(0.06211337115 0.4689433144 0.09981169865 0.3691316158) 117 232 2
(0.4626159117 0.138620587 0.1300714571 0.2686920441) 509 965 2
(0.1839124061 0.408043797 0.386482455 0.021561342) 183 366 2
(0.6632539208 0.1305561056 0.1683730396 0.03781693394) 443 859 2
(0.009733785835 0.4888631271 0.4951331071 0.00626998002) 115 228 1
(0.1226928792 0.4386535604 0.02919504253 0.4094585179) 181 362 2
(0.5843992069 0.06566004678 0.1421403498 0.2078003966) 315 630 1
(0.4496363308 0.04026998156 0.2751818346 0.234911853) 175 348 1
(0.4155663341 0.144302459 0.1479143739 0.2922168329) 187 374 1
(0.587928856 0.206035572 0.0149092232 0.1911263488) 272 542 2
(0.2196713344 0.08872000615 0.3014443266 0.3901643328) 34 68 1
(0.2688599795 0.1114469461 0.3655700103 0.2541230642) 467 904 2
(0.0307702013 0.08796645049 0.3966484489 0.4846148994) 124 209 2
(0.5451834635 0.2274082683 0.04243483633 0.1849734319) 439 850 2
(0.4096082926 0.2951958537 0.1331135051 0.1620823486) 432 838 1
(0.3032928742 0.1313995451 0.2169540178 0.3483535629) 155 271 2
(0.4848967566 0.0609102898 0.2575516217 0.1966413319) 111 220 1
(0.2711775571 0.3080801919 0.05633102956 0.3644112214) 231 462 1
(0.07854165714 0.4607291714 0.2254371358 0.2352920356) 70 141 1
(0.5173161596 0.09279974508 0.2413419202 0.1485421751) 305 611 2
(0.9833164454 0.008086364199 0.000255413078 0.008341777277) 52 65 2
(0.7525744723 0.1237127638 0.1007523382 0.02296042558) 355 694 2
(0.09568082367 0.2385048785 0.2136547097 0.4521595882) 389 737 2
(0.6122498151 0.1281999765 0.1938750924 0.06567511597) 161 323 2
(0.03074913597 0.3166008508 0.1680245812 0.484625432) 209 418 1
(0.01859070787 0.02608898815 0.4646156579 0.4907046461) 425 2220 1
(0.474807073 0.2625964635 0.2310221177 0.03157434579) 496 940 1
(0.3294116306 0.3352941847 0.07122026893 0.2640739158) 478 924 2
(0.4893769092 0.05927118415 0.2553115454 0.1960403613) 389 756 2
(0.448261599 0.2758692005 0.1041721602 0.1716970403) 506 978 1
(0.4769387702 0.1259478774 0.1355827376 0.2615306149) 231 423 2
(0.3048778405 0.3475610797 0.1245371029 0.2230239769) 30 58 2
(0.1671158848 0.03914036606 0.4164420576 0.3773016915) 215 428 1
(0.1219204953 0.114769242 0.4390397524 0.3242705104) 59 118 2
(0.5794017794 0.2102991103 0.05035770467 0.1599414056) 110 181 1
(0.1370207808 0.3349380558 0.4314896096 0.09655155379) 241 480 1
(0.1725905188 0.02941991382 0.4137047406 0.3842848268) 172 345 2
(0.1673356718 0.4111758936 0.4163321641 0.005156270534) 175 351 2
(0.606102848 0.196948576 0.08032288385 0.1166256921) 441 855 1
(0.1624813887 0.4187593057 0.1939318944 0.2248274112) 396 768 2
(0.2674454257 0.3662772872 0.315961293 0.05031599417) 257 514 2
(0.3720091309 0.2835218202 0.03047361431 0.3139954345) 45 51 2
(0.8879818265 0.03664828898 0.05600908673 0.01936079775) 7 15 2
(0.09951564057 0.2887391232 0.1615030565 0.4502421797) 470 891 2
(0.06363227514 0.4681838624 0.2732752731 0.1949085893) 401 778 2
(0.4330202125 0.2834898937 0.08696637151 0.1965235222) 133 227 1
(0.14298671 0.3955032026 0.428506645 0.03300344239) 107 212 1
(0.4182386886 0.007943333886 0.2908806557 0.2829373218) 118 237 2
(0.7049533445 0.1475233277 0.07112351848 0.07639980924) 438 849 1
(0.1839138072 0.1602888088 0.2477542876 0.4080430964) 427 809 2
(0.7728062705 0.1135968648 0.02196441178 0.09163245297) 154 309 1
(0.08044162284 0.07519854935 0.4597791886 0.3845806392) 182 365 2
(0.1636627832 0.3440499784 0.07411862995 0.4181686084) 323 646 1
(0.2857315056 0.01463719697 0.3424970502 0.3571342472) 130 260 1
(0.4693554642 0.2653222679 0.1008309518 0.1644913161) 147 295 1
(0.328934804 0.335532598 0.08393875928 0.2515938387) 295 588 2
(0.3096835398 0.1048936209 0.3451582301 0.2402646092) 265 531 2
(0.3493473118 0.2926027846 0.3253263441 0.03272355955) 232 465 2
(0.1951185627 0.4024407187 0.1265246049 0.2759161137) 177 315 1
(0.3597384755 0.3201307623 0.05621513502 0.2639156272) 397 768 2
(0.6115856083 0.02874562273 0.1942071958 0.1654615731) 291 580 1
(0.8329730064 0.01835476023 0.08351349679 0.06515873656) 173 344 1
(0.1386146494 0.4306926753 0.09032459251 0.3403680828) 152 302 2
(0.003931632702 0.4980341836 0.119710676 0.3783235077) 236 433 1
(0.1021957868 0.4489021066 0.0946949 0.3542072066) 34 69 1
(0.04781290555 0.4760935472 0.184683088 0.2914104593) 238 437 1
(0.5735390323 0.2132304838 0.05552992345 0.1577005604) 28 56 2
(0.1578590002 0.4210704999 0.1298311772 0.2912393227) 81 162 2
(0.05953138157 0.4702343092 0.166019803 0.3042145062) 278 557 1
(0.7397434855 0.1301282572 0.04724969252 0.08287856472) 150 261 1
(0.5640063758 0.1149729517 0.2179968121 0.1030238604) 81 160 1
(0.08165190365 0.1610204465 0.4591740482 0.2981536016) 343 682 1
(0.08661513194 0.456692434 0.2196496153 0.2370428187) 133 267 1
(0.2176251414 0.3911874293 0.06661264167 0.3245747876) 506 599 2
(0.4646769209 0.2676615396 0.1506411498 0.1170203897) 542 1087 1
(0.2812176782 0.09197905229 0.2674121086 0.3593911609) 227 454 1
(0.3175825808 0.09409424813 0.3412087096 0.2471144615) 199 398 2
(0.9490293337 0.006143295343 0.02548533317 0.01934203783) 373 726 2
(0.2519445409 0.1086218662 0.3740277295 0.2654058633) 144 286 1
(0.08952710022 0.07106437248 0.4552364499 0.3841720774) 259 516 1
(0.3642031059 0.3178984471 0.2084904827 0.1094079643) 38 77 1
(0.08255272202 0.458723639 0.4123943067 0.04632933224) 298 597 1
(0.428222275 0.03528504723 0.2506038153 0.2858888625) 490 947 1
(0.1607101355 0.1184857229 0.3011592093 0.4196449323) 215 430 1
(0.4563675827 0.2718162087 0.2084262308 0.06338997789) 190 380 2
(0.3582955605 0.3208522197 0.3034383955 0.01741382425) 249 498 2
(0.4777909702 0.2611045149 0.07862571046 0.1824788045) 515 993 2
(0.6767136247 0.04556478324 0.1616431877 0.1160784044) 54 106 1
(0.06663296825 0.01004614245 0.4566373734 0.4666835159) 154 308 1
(0.05063189025 0.4746840549 0.4159685515 0.05871550341) 332 625 1
(0.1082794628 0.3292775133 0.1165827553 0.4458602686) 379 736 1
(0.5868130695 0.2065934652 0.06365024717 0.1429432181) 114 228 2
(0.6519800159 0.1740099921 0.06123168023 0.1127783118) 83 127 1
(0.8190494366 0.05358963186 0.09047528168 0.03688564982) 352 691 1
(0.1146240965 0.1778963477 0.2647916041 0.4426879517) 175 350 1
(0.2136785876 0.2489887279 0.1441719783 0.3931607062) 78 117 2
(0.06531435384 0.4673428231 0.04100121863 0.4263416044) 72 145 1
(0.589820272 0.1593408369 0.0457490271 0.205089864) 498 962 1
(0.4202718664 0.2898640668 0.13381515 0.1560489168) 195 390 2
(0.01734566642 0.03947432725 0.4913271668 0.4518528395) 208 417 2
(0.3735613793 0.3031265249 0.3132193104 0.01009278549) 272 542 1
(0.2085748398 0.3957125801 0.1874529428 0.2082596373) 294 589 1
(0.4398028234 0.2800985883 0.07285469163 0.2072438966) 168 337 1
(0.5558965704 0.05190592422 0.2220517148 0.1701457906) 252 502 1
(0.3899828775 0.2747781689 0.03023039236 0.3050085612) 288 576 1
(0.5341455394 0.2329272303 0.2324801986 0.0004470317251) 433 839 2
(0.1880240811 0.01907837762 0.4059879594 0.3869095818) 181 360 1
(0.02989707948 0.4850514603 0.02916584253 0.4558856177) 206 410 2
(0.1407930988 0.388129106 0.04147434461 0.4296034506) 191 382 1
(0.1072186318 0.4463906841 0.2006757461 0.245714938) 488 944 1
(0.2614152351 0.121339618 0.3692923824 0.2479527644) 498 963 2
(0.3237899176 0.2924635256 0.3381050412 0.04564151559) 121 240 1
(0.4737930636 0.06668104559 0.2631034682 0.1964224226) 269 536 1
(0.6583491781 0.1708254109 0.1276108333 0.04321457769) 545 1042 2
(0.2308741785 0.3845629107 0.2098886194 0.1746742914) 90 180 2
(0.4819378728 0.2590310636 0.06480217457 0.194228889) 138 274 2
(0.363507861 0.2118352015 0.3182460695 0.1064108681) 171 343 2
(0.2251958689 0.3789655976 0.008436467991 0.3874020656) 275 511 2
(0.1866124967 0.1549786678 0.4066937516 0.2517150838) 154 309 2
(0.03263254738 0.3185189846 0.4836837263 0.1651647417) 336 673 2
(0.5682768945 0.2158615528 0.09608539644 0.1197761563) 439 850 2
(0.4933294887 0.2533352556 0.1731965139 0.08013874175) 384 728 1
(0.2468475369 0.1550700573 0.2215061742 0.3765762315) 266 493 2
(0.08962826818 0.4551858659 0.2704465924 0.1847392735) 336 672 2
(0.2550353883 0.3563915014 0.01609080446 0.3724823058) 335 670 1
(0.2113552836 0.00811610618 0.3943223582 0.386206252) 279 558 2
(0.4696378174 0.2651810913 0.006534316376 0.2586467749) 222 444 2
(0.2173885756 0.3913057122 0.2671459495 0.1241597627) 269 499 1
(0.4624341384 0.102123107 0.2687829308 0.1666598238) 402 778 1
(0.03407521822 0.4829623909 0.09843261088 0.38452978) 281 560 2
(0.03104898584 0.4844755071 0.4726527001 0.01182280702) 351 691 2
(0.3587993948 0.3206003026 0.2782575832 0.04234271937) 402 780 2
(0.5566057047 0.2216971476 0.2023547914 0.01934235623) 333 664 2
(0.2250056444 0.3793156263 0.3874971778 0.008181551512) 87 175 2
(0.04548264373 0.03729128949 0.4399673886 0.4772586781) 193 347 2
(0.5685036024 0.2157481988 0.06556185762 0.1501863412) 311 622 2
(0.1599891841 0.420005408 0.4020815101 0.01792389791) 451 855 1
(0.6219832748 0.1890083626 0.07981319218 0.1091951704) 177 315 1
(0.2046825084 0.1897206583 0.3976587458 0.2079380875) 518 1001 2
(0.189128779 0.3623988552 0.4054356105 0.04303675527) 265 531 2
(0.1711121551 0.09025731157 0.3241866109 0.4144439225) 198 357 2
(0.1752960169 0.4123519916 0.1404788293 0.2718731623) 538 1083 1
(0.6619901261 0.0645738663 0.1690049369 0.1044310706) 460 891 2
(0.2113572004 0.3943213998 0.1936034413 0.2007179585) 52 102 2
(0.5246128732 0.2376935634 0.02044556457 0.2172479988) 112 222 2
(0.02292434448 0.267317965 0.4885378278 0.2212198628) 251 500 1
(0.1845581815 0.3234817528 0.08423915646 0.4077209093) 388 735 2
(0.2678808668 0.3660595666 0.2022273954 0.1638321712) 419 794 1
(0.05578763408 0.472106183 0.1278114772 0.3442947057) 463 894 2
(0.4870145258 0.08232932615 0.2564927371 0.174163411) 84 169 2
(0.6176051209 0.1911974395 0.03477657438 0.1564208651) 137 275 1
(0.5613745879 0.0851770053 0.1341357007 0.219312706) 95 151 2
(0.1508094085 0.3971148372 0.4245952958 0.02748045856) 107 212 1
(0.1894007738 0.05406542333 0.3512341897 0.4052996131) 331 662 1
(0.2563282672 0.2784427282 0.3718358664 0.09339313818) 444 858 1
(0.09036437873 0.4548178106 0.3073666664 0.1474511442) 205 411 1
(0.6966483121 0.05668144494 0.09499439899 0.1516758439) 353 693 1
(0.2336738902 0.3831630549 0.2326398844 0.1505231705) 219 436 2
(0.09378940309 0.08383969727 0.3692656012 0.4531052985) 389 755 1
(0.3802471855 0.3098764073 0.05918884811 0.2506875591) 249 496 2
(0.1662314562 0.4168842719 0.003225925401 0.4136583465) 350 689 2
(0.8010177029 0.06037378901 0.09949114857 0.03911735956) 426 279 1
(0.1743022329 0.1840734657 0.4128488835 0.2287754178) 70 138 1
(0.7219219771 0.1390390114 0.01037602649 0.1286629849) 123 207 1
(0.115613698 0.442193151 0.3499299557 0.09226319525) 33 27 1
(0.7508688735 0.1245655633 0.09644093099 0.02812463227) 481 928 2
(0.2244937086 0.005482830233 0.3877531457 0.3822703155) 153 304 1
(0.1863468601 0.09652989965 0.4068265699 0.3102966703) 248 497 2
(0.1556304058 0.4221847971 0.3233217109 0.09886308619) 256 512 2
(0.4183508438 0.2908245781 0.1084348675 0.1823897106) 432 837 2
(0.1491907432 0.1154415105 0.3099631179 0.4254046284) 217 434 1
(0.1677829155 0.4161085423 0.3148351943 0.1012733479) 430 831 2
(0.2398881222 0.02395068679 0.3561052521 0.3800559389) 468 905 1
(0.5232404685 0.2383797658 0.05891940862 0.1794603571) 430 831 2
(0.1769785829 0.4115107086 0.1195954158 0.2919152928) 94 189 1
(0.7790204286 0.06476008652 0.0457296992 0.1104897857) 175 350 1
(0.04212591204 0.478937044 0.2311080534 0.2478289906) 91 180 2
(0.4999612846 0.2500193577 0.08175085293 0.1682685048) 58 77 1
(0.2581006114 0.1287576103 0.242192084 0.3709496943) 264 489 2
(0.4883361954 0.2558319023 0.107976511 0.1478553913) 167 334 2
(0.128894597 0.4355527015 0.09628173721 0.3392709643) 442 856 2
(0.2389043934 0.3805478033 0.1715567017 0.2089911016) 108 214 2
(0.1270436802 0.4364781599 0.1173586144 0.3191195455) 375 2215 2
(0.004361553838 0.3015582228 0.4978192231 0.1962610003) 376 79 1
(0.001304183125 0.4993479084 0.4773134386 0.02203446989) 218 437 1
(0.3072240328 0.1058990183 0.3463879836 0.2404889653) 536 1081 2
(0.714323361 0.1428383195 0.1057032518 0.03713506774) 530 1005 1
(0.368543334 0.3041090374 0.0116192956 0.315728333) 76 152 1
(0.5101105341 0.244944733 0.2109525118 0.03399222116) 106 210 2
(0.4188425517 0.2905787241 0.1749327259 0.1156459982) 249 459 1
(0.1096753773 0.2598840528 0.1852782585 0.4451623113) 451 855 2
(0.3298537388 0.1465313684 0.3350731306 0.1885417622) 114 226 1
(0.06683255988 0.4665837201 0.2457749503 0.2208087698) 503 973 1
(0.2149358695 0.3925320652 0.02133026758 0.3712017976) 195 391 1
(0.3304433612 0.2358039214 0.3347783194 0.09897439799) 418 811 2
(0.3825052993 0.3087473503 0.002003358019 0.3067439923) 114 189 1
(0.1497484102 0.170378304 0.2547474909 0.4251257949) 410 777 2
(0.5479035683 0.2260482158 0.1516190432 0.0744291726) 515 2229 2
(0.06775743651 0.4661212817 0.3847796587 0.08134162308) 192 385 1
(0.12284062 0.43857969 0.2763766923 0.1622029976) 170 341 1
(0.2962451509 0.06004278154 0.291834643 0.3518774246) 424 822 1
(0.2216720703 0.3891639648 0.05721878338 0.3319451815) 296 593 1
(0.02700358842 0.4864982058 0.4707193818 0.01577882395) 169 336 2
(0.1022944498 0.4488527751 0.3024087227 0.1464440524) 156 313 1
(0.3034157609 0.3110530744 0.03723904511 0.3482921195) 418 792 2
(0.1074359865 0.08205984106 0.3642221657 0.4462820067) 416 788 2
(0.1668281242 0.4165859379 0.2255198301 0.1910661078) 286 533 1
(0.4716299721 0.2641850139 0.2382415268 0.0259434871) 426 279 2
(0.3994112741 0.3002943629 0.06735168359 0.2329426794) 257 515 1
(0.4777289521 0.261135524 0.2481167869 0.01301873711) 245 491 1
(0.4611212574 0.2694393713 0.0001320002914 0.269307371) 179 358 1
(0.3028064481 0.348596776 0.0586883342 0.2899084418) 283 564 2
(0.2666743681 0.1466536889 0.2200091271 0.3666628159) 153 306 1
(0.08339129159 0.06240630021 0.395898054 0.4583043542) 283 566 1
(0.1135894735 0.4432052633 0.3895568312 0.05364843202) 112 225 1
(0.5649390119 0.2175304941 0.1903019828 0.02722851123) 104 169 1
(0.3735345898 0.3132327051 0.0735074175 0.2397252876) 421 816 2
(0.01788300978 0.244290842 0.4910584951 0.2467676531) 163 324 1
(0.1787282797 0.3430148403 0.0676210198 0.4106358602) 256 473 2
(0.2581492226 0.1235077175 0.3709253887 0.2474176712) 86 173 2
(0.6261561042 0.1179117337 0.1869219479 0.06901021417) 397 768 1
(0.461781745 0.2691091275 0.2449573143 0.02415181318) 509 983 2
(0.7344989072 0.03847164296 0.1327505464 0.09427890345) 501 966 1
(0.3447116928 0.253014242 0.07462991161 0.3276441536) 54 69 2
(0.826432423 0.05428144318 0.08678378848 0.0325023453) 143 287 2
(0.2257470898 0.1501122256 0.3871264551 0.2370142295) 145 288 1
(0.1485342026 0.21999735 0.4257328987 0.2057355487) 190 381 2
(0.1943334928 0.4028332536 0.1993849425 0.203448311) 441 852 2
(0.4719465193 0.1860259647 0.07800077566 0.2640267403) 282 525 2
(0.02435319093 0.4878234045 0.3806553186 0.1071680859) 93 184 2
(0.2980025304 0.06066548953 0.2903332453 0.3509987348) 200 361 2
(0.1558011751 0.3988424589 0.02325695352 0.4220994124) 148 257 2
(0.612118577 0.1939407115 1.956270367e-05 0.1939211488) 93 184 2
(0.3136241973 0.2131928887 0.3431879014 0.1299950127) 433 837 1
(0.07937834918 0.2439190432 0.2163917822 0.4603108254) 155 310 1
(0.003088454123 0.2847020332 0.4984557729 0.2137537398) 343 1064 2
(0.01870136752 0.1140432338 0.3766060824 0.4906493162) 218 397 2
(0.2130470398 0.2255306173 0.3934764801 0.1679458628) 230 461 2
(0.05814594653 0.08529362917 0.4709270267 0.3856333976) 210 418 1
(0.1133474311 0.2787565977 0.4433262845 0.1645696868) 293 587 2
(0.368885259 0.2291894202 0.3155573705 0.0863679503) 79 156 1
(0.05044308976 0.3044154167 0.4747784551 0.1703630384) 211 423 2
(0.6166789265 0.1916605367 0.05262926542 0.1390312713) 167 335 1
(0.3111922158 0.3444038921 0.1691633719 0.1752405202) 336 670 2
(0.3819377094 0.3090311453 0.1478613356 0.1611698097) 75 148 2
(0.1279088888 0.4360455556 0.4161406743 0.01990488131) 284 568 2
(0.03572535572 0.4821373221 0.4745861911 0.007551131006) 247 492 2
(0.617270065 0.02243243994 0.1913649675 0.1689325276) 455 879 1
(0.06114233107 0.07962717015 0.4694288345 0.3898016643) 134 269 2
(0.04784010394 0.476079948 0.4144088321 0.06167111588) 257 512 2
(0.1891792009 0.4054103996 0.04344503745 0.3619653621) 112 185 1
(0.09592935398 0.01634195989 0.4356933631 0.452035323) 286 533 2
(0.3105966128 0.3447016936 0.01531855438 0.3293831392) 256 512 2
(0.3843915114 0.3078042443 0.1298184475 0.1779857967) 156 273 1
(0.6731957011 0.1489453238 0.1634021495 0.01445682566) 347 686 1
(0.269440629 0.1577430216 0.2075366639 0.3652796855) 84 168 1
(0.5620280013 0.07259244159 0.1463935577 0.2189859993) 68 136 1
(0.9182535043 0.04087324783 0.005790514802 0.03508273303) 127 254 2
(0.2429090891 0.02220056709 0.3563448884 0.3785454554) 516 996 1
(0.4965726177 0.2517136912 0.07594861005 0.1757650811) 198 397 1
(0.3431705517 0.3284147242 0.3277203215 0.0006944026816) 201 402 2
(0.3761317352 0.3119341324 0.04421376976 0.2677203626) 165 291 1
(0.252788507 0.3736057465 0.04467482309 0.3289309234) 418 811 1
(0.7866420033 0.09862390636 0.008055091996 0.1066789984) 233 427 2
(0.6853014849 0.1573492576 0.06159201735 0.0957572402) 274 509 1
(0.4667809247 0.2322288985 0.2666095376 0.0343806391) 436 319 1
(0.5110770634 0.2444614683 0.05172935778 0.1927321105) 489 927 1
(0.4323192949 0.2766193436 0.2838403526 0.007221009) 92 182 1
(0.2863239587 0.3568380207 0.1223682427 0.234469778) 243 484 2
(0.04858771178 0.07664113164 0.3990650125 0.4757061441) 466 883 2
(0.2775322861 0.3612338569 0.2979155336 0.06331832332) 211 422 2
(0.1489462039 0.07505570287 0.3504711952 0.4255268981) 38 76 1
(0.5442910107 0.2278544947 0.1925314024 0.03532309226) 275 550 2
(0.7725748165 0.1137125918 0.07830099776 0.035411594) 230 461 1
(0.5314006167 0.01392172902 0.2342996916 0.2203779626) 72 145 2
(0.1236220051 0.4381889974 0.2963356077 0.1418533898) 146 290 2
(0.175467021 0.4122664895 0.3207421205 0.091524369) 106 173 1
(0.1328739924 0.2533363598 0.4335630038 0.1802266439) 238 477 2
(0.8167583373 0.07539218042 0.01622865091 0.09162083133) 212 385 2
(0.04300106884 0.3224772302 0.4784994656 0.1560222354) 271 540 1
(0.09570191163 0.4521490442 0.1327057188 0.3194433254) 209 418 2
(0.2111541423 0.3944229289 0.119420616 0.2750023129) 476 479 2
(0.1358073343 0.3801251276 0.4320963328 0.05197120527) 211 423 2
(0.8080110337 0.09599448317 0.02117319067 0.0748212925) 296 590 2
(0.1082589518 0.003388122289 0.4424824018 0.4458705241) 294 588 1
(0.1681917825 0.4159041088 0.2552463253 0.1606577834) 1 2184 2
(0.5107364443 0.2446317779 0.08403088747 0.1606008904) 223 444 2
(0.5148478636 0.08239270205 0.2425760682 0.1601833662) 351 1072 2
(0.5638269088 0.07651914104 0.1415674046 0.2180865456) 448 867 1
(0.3285891447 0.3357054277 0.1726044566 0.1631009711) 348 657 1
(0.03799011111 0.09320070372 0.3878042407 0.4810049444) 47 55 2
(0.8224743081 0.0004721419717 0.08829070399 0.08876284596) 233 427 2
(0.2049967813 0.3975016094 0.1972435479 0.2002580614) 251 500 2
(0.7582870997 0.07771225237 0.04314419776 0.1208564501) 441 836 2
(0.533335768 0.233332116 0.1960996552 0.03723246078) 436 844 2
(0.4875160766 0.239445523 0.01679643871 0.2562419617) 321 603 2
(0.121269276 0.439365362 0.240062663 0.199302699) 127 215 1
(0.5162383445 0.2418808278 0.08595807583 0.1559227519) 264 529 1
(0.06004476304 0.4699776185 0.3869368096 0.08304080893) 193 384 2
(0.591558396 0.204220802 0.1017639345 0.1024568675) 406 788 1
(0.5952279569 0.03932073002 0.2023860216 0.1630652915) 72 142 1