/*--------------------------------*- C++ -*----------------------------------*\
  =========                 |
  \\      /  F ield         | OpenFOAM: The Open Source CFD Toolbox
   \\    /   O peration     | Website:  https://openfoam.org
    \\  /    A nd           | Version:  7
     \\/     M anipulation  |
\*---------------------------------------------------------------------------*/
FoamFile
{
    version     2.0;
    format      ascii;
    class       volVectorField;
    location    "0.0018/particle";
    object      momentum;
}
// * * * * * * * * * * * * * * * * * * * * * * * * * * * * * * * * * * * * * //

dimensions      [1 -2 -1 0 0 0 0];

internalField   nonuniform List<vector> 
600
(
(-0.0011880263355091 -0.00190104248003347 0.0149026992108938)
(0.0192452791569025 0.00512893449113991 -0.0249404346900476)
(0.00806130146363661 0.013357734295069 -0.0170496489567496)
(0.025323587215048 -0.00841906148163056 0.00925235023824027)
(-5.77316768886828e-05 0.0183015921978199 0.00316870631839124)
(0.00336239184521592 0.00845867197266288 0.0175607389633532)
(0.00955503514924791 0.0119383869716573 -0.00648935226844996)
(-0.00329103631618558 0.00735967568200221 -0.0030203956537329)
(0.00335874847730051 -0.00700672131122862 -0.00391064624153083)
(-0.0135324480525092 0.0127169508989035 -0.0177728005016265)
(-0.00534747045023883 0.012930346381646 0.00834073928117788)
(-0.0214681473008627 0.0162333197004944 0.0272369655712139)
(0.00716847351747353 -0.0402987301312627 -0.00804324077261535)
(-0.0165727411527546 -0.0218103693390551 0.0129639755095791)
(0.0211664991470701 -0.0160171543894715 -0.00121672653881968)
(-0.0212601607115606 -0.0116990477055511 0.0120177980760791)
(-0.00355337806828541 0.00207307092571678 0.00605433490384582)
(0.0297809299971516 -0.00229726984707678 0.0052550225105847)
(-0.0036885968099825 0.00338135117897146 0.00502083310534163)
(0.00276354424068051 0.00964966405298037 -0.0111468555217691)
(0.0192776425052773 0.00450957741272147 0.0111007798041195)
(-0.00695179066359218 0.0167498039734286 0.00470506651775735)
(0.00365787367931875 0.00177847894094068 0.0166498883583089)
(0.00922583121178817 -0.0238779189382402 -0.00124177094424278)
(-0.00290756918378119 0.00394083156393639 0.0191334615980704)
(0.0292508465375157 -0.00529153462585192 -0.00676467383568478)
(-0.00144521961127231 -0.0163429022742313 0.0148933802274527)
(-0.00932138649496875 0.0116044024889552 0.00345054110316924)
(0.0117933118324339 0.000869066791854071 -0.00254803120535847)
(0.0227588778004896 -0.00813237435962133 0.00426030087659643)
(-0.0169727953394499 0.00658298510691984 -0.00667228079512613)
(-0.000955699791647762 -0.0207007325451749 0.00624291789548924)
(-0.00778169859253983 -0.00172702729152635 -0.0561642026907272)
(-0.00605740247976179 -0.0112478518970213 0.00728658789574294)
(0.002840092420699 0.0043298913947357 0.0122349440134746)
(0.0174958164222729 -0.00427816540462524 -0.0262315052197896)
(0.0100918689392622 -0.0200503254631932 0.0151832403024151)
(-0.000632625339488179 0.0225191659950463 0.00587813530093807)
(-0.00564092610039159 -0.00872773420191041 -0.0135789225509672)
(0.0372387032354662 -0.0120118304977936 0.00765705915569932)
(0.0033658876213923 -0.00862906852632018 0.00898338110667592)
(0.002602182905623 -0.0165905519182744 0.00663561374620008)
(-0.0166653282464722 -0.00709615161115057 0.00752664625672616)
(-0.00981019426355989 0.00656555987436668 0.0095163596043137)
(0.00624108361937964 0.040129715865811 -0.00748433830887294)
(0.0138634677688094 -0.011670778677682 0.0054914486138629)
(0.00304903360898366 0.0242425777063864 0.0392910234344587)
(0.00401196619100092 0.0148798394083199 -0.00152646422272472)
(-0.00456561792393511 0.00157989657025943 0.00789301745183554)
(-0.000909567874534772 0.00707851945083068 -0.0320504307500511)
(-0.0205051893862912 0.0229727451055378 0.000771752114507814)
(-0.00229024784752808 -0.00365857893927967 -0.0244858206070794)
(0.00695792666127565 0.00801893619447082 0.00327625209000114)
(0.0151077790944993 -0.0122340264084677 0.013749756569006)
(-0.0032297735307851 -0.0162891876676686 -0.0369298794624924)
(-0.021187475367015 0.0101267639990378 -0.000448366191758634)
(-0.0252509717749545 -0.0152199916551641 -0.016647625414335)
(-0.0240992479666906 -0.00680550285716265 -0.0268957167467441)
(-0.00135240934086439 0.00612460333330722 -0.0289872445296571)
(0.0156633827890268 -0.00759371107850093 0.00954128284917584)
(0.00941725152989457 0.00719986894933602 0.0116678681949438)
(0.0213816074810693 -0.00417459126039868 -0.00820438093324879)
(-0.0169633991320931 -0.0136671180978626 0.0141173025001804)
(-0.0220221094170203 0.0030515734959558 0.0142771940090528)
(0.00520439382991493 -0.0126847382949959 0.00377045415678383)
(-0.00434108928570544 -0.0115009496415889 -0.0154188035016739)
(-0.00174562516162995 -0.00671681232109633 -0.00704840530199041)
(-0.0263753555566814 -0.0090751372453843 -0.0335071486830106)
(0.00978335144960167 -0.0204324684053171 -0.0437548012105092)
(0.0205855906340344 -0.0110340348832354 0.0228645810345782)
(0.0126653555920965 -0.00670427274826107 -0.0110879795926528)
(-0.0103720909673801 -0.00845556974259906 0.00579358542195678)
(0.00402969215563885 0.0186863890467338 -0.00064179790262336)
(-0.000365070845977083 -0.00607943546943542 0.0062437541642934)
(0.0131543024209824 -0.00944276885010379 0.000674121350342263)
(0.0222466221888608 -0.00101201100538556 0.0180681705263184)
(-0.00110593196287025 0.00886658681225689 -0.0020500705468593)
(-0.0160985785131501 -0.0239124263786164 -0.00337954888487781)
(0.0205070217692046 0.00590083458260639 -0.0331391338330368)
(-0.0170061214681754 -0.00166972439425836 -0.00948796622120821)
(0.0185058977745927 0.00600455727497712 -0.00175527667501037)
(0.0234699400512171 -0.000392594581141178 0.0261514923757576)
(0.00657045872700665 0.00225573623411541 -0.00778654041222961)
(0.00280390873646752 -0.00590776407260442 0.00979386757891901)
(6.34242997117934e-05 0.0331135431040232 0.00620505348226071)
(0.00909705011988205 -0.0156252831578785 0.0042693613840057)
(-0.00872834454543657 -0.00444675911162632 0.00404033763319192)
(0.0172208682360761 0.0222600955885172 -0.013058156335235)
(0.00130150153552278 0.0182758938661923 0.0130262342414325)
(0.0189678338537583 0.0222920007759186 -0.0376136210413012)
(-0.00675148364221667 0.017084948774391 0.0227897570159749)
(0.0297493904944694 -0.00382300095890793 0.0122489924644701)
(0.0154345436132486 0.0018907425417794 0.0152533689220905)
(-0.00342452246432427 0.00966241084072377 0.00786345147275111)
(0.00435079068564997 0.0109708635892377 1.93351594327032e-05)
(0.00680018649365396 0.00230927062501045 0.00289797860238099)
(0.0061594757775624 0.0120135436885038 -8.33339782538203e-06)
(-0.00886943749041758 0.0251433647655886 0.0306858654898204)
(-0.0396841236996189 -0.00477608255804701 -0.000804703615246478)
(-0.00952592297865923 0.00914039865855884 -0.0110334575058217)
(0.0319381829668654 -0.0309884402075185 -0.00838204780113534)
(-0.018163605120984 0.0203245952181799 -0.0163268667037671)
(0.0046509315485985 0.00341985809264433 0.00916093119062058)
(-0.00150429537835885 0.0273439300092537 0.00786479715808405)
(-0.0201190014551206 -6.87767381876355e-06 0.00190408868372992)
(0.00725770370813294 -0.00620338662933562 0.00943591266835457)
(-0.0168314894702943 0.00533120109934248 0.00720694293701948)
(-0.0094560167799004 0.000590470940952567 -0.0147688073130308)
(0.026426119416776 0.0116836792915223 -6.16024091620624e-05)
(-0.00402198402293577 -0.0295837417849327 -0.00960577430398183)
(0.0180670364710853 0.0108199112481387 -0.0106370531559769)
(0.00840060532530027 0.0171996660581402 -0.00843545613458349)
(0.0029959897712623 -0.0148735388303593 -0.00314581464308781)
(0.00568291779043854 0.00329506709360828 0.00666613989272202)
(-0.0122219456953866 -0.0100638605288755 -0.00423292396004953)
(0.0242549175220248 0.00241008890242603 -0.043797003748728)
(-0.024857174912625 -0.00564956491654873 0.00140771392497433)
(-0.011271972837987 -0.0164622191678519 -0.00697276784090058)
(0.0126159343322035 -0.00526797720686303 -0.00130737879315959)
(-0.0043199861871982 0.018736216914228 0.0113208688348693)
(0.00182629351072376 0.017635693163429 -0.00508090490376992)
(0.0163137129248784 -0.00207545681489653 0.0199389238770025)
(-0.0249054857691386 0.0432478802055655 -0.0373101638756126)
(0.0194735787780982 -0.00911883216279297 -0.0092391416203716)
(0.000716417672110734 0.00347979754938566 0.00914493144140571)
(0.000604933904245116 -0.0110759479168094 -0.00925933602170447)
(0.0220581515146657 -0.00511094650109967 0.0148793624614367)
(-0.0112264817855983 0.0082821279922423 0.00239633223124373)
(-0.00744287080260447 0.00978815130852844 0.000339769198424193)
(0.0149130017184471 -0.0270173636843945 -0.0149250706555493)
(0.0165072537487787 -0.00771276687811675 0.016406175999274)
(0.00728283248266997 0.00422101062154125 -0.00894530273545354)
(-0.00340695832028741 0.0126065599201047 -0.0230134919296936)
(-0.0291323983427395 0.0102035543170925 0.00900582266567429)
(0.00220938601859854 0.00613792619132716 -0.00441798146749191)
(0.00334821157406397 0.000766820491625807 -0.00561488826837097)
(0.0189790326760679 -0.0147080855687392 0.0167739784324249)
(0.0214862122594689 0.00812179461970163 0.000791549099774134)
(-0.00721641314105642 -0.00163576219724671 -0.00334095143857377)
(0.0229882082583819 -0.01914070041013 0.00191011280405788)
(-0.0130025372021128 -0.0331877514426701 0.000727745771039952)
(0.0231214276359288 -0.00119708662387478 -0.0143491614290146)
(-0.0179657711346488 0.000658770081862006 -0.00244272890252595)
(0.000478473267431526 0.00266662110477358 -0.0103770053958469)
(-0.00759935863635747 -0.00184623661493195 0.0194889304798161)
(0.00111878751644409 -0.0165025135351912 0.000601609700406166)
(0.0283401538487917 0.00107502559763374 0.00579918485793988)
(-0.000573657055342491 -0.0163937771044133 -0.00515801266039881)
(0.000384115854801704 0.00372219091110868 -0.00205338908315974)
(-0.0134924871122096 0.0174422504791476 0.0203377057848702)
(0.0255308409601426 0.00404163853706774 0.00200018678982729)
(0.0107009859121132 0.00775160154074498 0.0106555715947951)
(0.013378073317179 -0.0289673861351745 0.0133524744027478)
(0.0325795010732347 -0.0161349575315671 0.0273584147647947)
(0.00349552173895817 0.0362695718098788 -0.0167346631466395)
(-0.00698325826567611 0.00605217136782416 -0.0110795485308762)
(0.00475060596905505 0.00519023999085135 -0.00167498295152269)
(0.0194130870187828 0.0175874658100053 -0.0343317256413656)
(-0.00252717826120768 -0.00717389961432557 0.014507785028788)
(-0.019057518630431 0.00974130667637105 0.0110507795740228)
(0.0118393840594399 0.0158760179215285 0.0147301083598709)
(-0.00193809808675605 -0.00556302336549858 -0.0062490979937293)
(0.00520327231323473 -0.00347368117263953 0.0152290873863791)
(-0.00429618826176227 -0.0147545456605907 -0.00349948946947388)
(0.00769853166973103 0.00896433217857098 0.0255900595538984)
(-0.0144838471735196 -0.00944949585037668 0.00237617132785819)
(0.0236856350204911 0.0032735126315801 -0.0186647370490514)
(-0.0126867373887633 -0.00637457027467822 -0.0066806394615618)
(-0.00627363131294287 0.0103691188489577 0.0130963228911709)
(0.0145676975614241 -0.015706203842851 0.00685904423601063)
(0.00954539851653925 -0.00124591218491981 0.000794285980145071)
(0.0176793677915913 0.0147252530662068 -0.00548607080995807)
(-0.00297637194416215 0.00470891565205976 -0.000220489399372857)
(0.00106414193910905 -0.000849495507415163 0.00267491214108458)
(0.0102856992653074 0.026803515245212 -0.00135516148431204)
(-0.024233050769914 0.01492307621741 0.00342345909844243)
(-0.00731620243205131 -0.00912094615257431 0.00236545102018725)
(0.012900374612461 0.000117584977416491 -0.00641445497221818)
(0.00115747071921408 -0.0127733507466813 0.00612014630972726)
(0.0012505160359347 -0.0289901193517664 0.00330770997587355)
(0.0096875209804128 0.0141680496366613 0.00402061586273837)
(0.00661619774054191 0.0122854669573151 0.0100225173217348)
(0.0207365962686377 0.0220780382247661 -0.00412892619609097)
(0.00602432101360497 0.00626668230876746 -0.0340378956761921)
(0.00938303557169699 -0.0202479424476127 0.00571774020362927)
(-0.010039572406571 -0.010799073777986 0.00395765197932251)
(-0.00607845818576055 -0.0079271319127721 0.00562461272660648)
(0.0173766242884928 0.0194089889958012 -0.0208980904403181)
(0.0200331552086804 0.0001941719043382 -0.000189404892419334)
(0.0059592563500621 -0.0125180140213996 0.000256730652040024)
(-0.0265916665580981 -0.0242670191922179 -0.00815812461762245)
(0.0392957667200089 -0.00315219746728299 -0.00749575895967446)
(0.013028861542038 0.00135863982104544 0.0159423015282148)
(0.00983226611196225 -0.0126978022173537 -0.00360155899474537)
(-0.000623091445695022 0.00932584184283961 -0.00974126001485384)
(0.000641183396119734 0.0146333465570146 0.00647342564480662)
(0.0151662814804332 0.00159435409368772 0.0019798239184357)
(0.0144936143079684 0.00111610006944135 -0.00509400391546909)
(-0.0134639942017014 -0.0233452102654108 -0.00450765685979256)
(0.0435091888388765 -0.0140641212345476 -0.00174804707136476)
(0.0093732797646429 -0.00889973429422548 0.00811502589740117)
(0.0211113017735904 -0.0337967318849568 -0.0103886902877833)
(0.0437163078751481 0.0170962953931767 -0.00129363585428395)
(0.0416759455038431 -0.0127704628067088 -0.0060849144047236)
(0.0413769787146322 -0.0047895112134033 -0.017379488241707)
(0.00944455821048134 0.0095601529816441 0.00219259171610956)
(0.0413138738461705 -0.00611190991061048 0.0100285749916719)
(0.0321267610831515 -0.00894697260411897 -0.0033912006109849)
(0.0263128953824073 -0.00925239094165406 0.00308704280678725)
(0.0443320226461749 0.0210839588704606 0.00643243026234986)
(0.0215288946538626 0.0106392930247481 -0.000479185621955038)
(0.0554849834239902 -0.00566671125876704 -0.00637172304484341)
(0.0372593208120504 0.0208438418235533 -0.00896640830353705)
(0.0451947941309281 0.005988801553485 0.0239313406325483)
(0.0495158029236788 0.00395292906173075 -0.00124037478252034)
(0.0560681644732864 -0.0031882594480595 0.0066403707664348)
(0.0295204285357731 -0.0104507693149433 1.42043156343468e-05)
(0.023048348391313 -0.00268862126364987 0.0105076256808786)
(0.0607435994174609 0.00542430120439472 -0.0149667759939698)
(0.0380647354206159 -0.00657936271369668 -0.0038095642615799)
(0.035411210343827 -0.0124018352573691 0.00620052404027485)
(0.0306770555211425 0.00265319779599829 0.0318732271890945)
(0.0429570432442625 -0.00988555685891354 -0.0129696657829232)
(0.0650838366754881 -6.31758531862392e-07 -0.000864418896031379)
(0.0562596738689173 -0.0250006024375455 -0.0184182604839798)
(0.0303714696238174 -0.00306277086392997 0.00393361446686558)
(0.0724037821083332 -0.0205287231663685 0.00442904472852783)
(0.054425585709906 -0.0213359435791051 0.00873134135672381)
(0.0434885357580816 -0.00419146438985991 -0.0028807786150093)
(0.0363821056673706 0.00172652894885837 -0.00476852296209774)
(0.0763369605706612 -0.0123063199520552 -0.00329342792037153)
(0.0614054593800972 0.0179955708019395 -0.00365932382282644)
(0.0439115161813869 -0.0026482572290877 -0.00130606170556208)
(0.0690171703508736 -0.00462462696340197 0.00368900042079564)
(0.0567575044642566 0.0034148895334945 -0.00379230842526809)
(0.0517531599345515 -0.00509287027414563 -0.0169798410619536)
(0.0486610569087478 0.000250670518038927 0.00626741037417305)
(0.0746234750968058 -0.000743872416874708 -0.00807673968328159)
(0.0592732450789555 0.0161271639593749 0.00284244839926948)
(0.0740351526127055 0.0104663482405795 -0.016508250061252)
(0.0682499587411377 0.00891448113584735 -0.00202019501134334)
(0.0525742401269001 -0.013404758179492 0.0125519303232372)
(0.0693625360455123 -0.00988690832915327 -0.0060870607157157)
(0.0769552139995135 -0.00431703605972856 -0.00689832055559141)
(0.040663179594389 -0.00890524567115025 0.0100613053014062)
(0.0757735969956723 0.00158818980325646 -0.0277012286318148)
(0.0874678610321843 0.018377331581144 0.00701164294233283)
(0.0846442798006358 -0.00179188193038892 0.0112572025178068)
(0.0651339681542474 -0.00255655199861249 -0.00292626167563633)
(0.0759741218184328 0.00375376767032176 -0.000531156065124595)
(0.065482316749365 -0.00392715946214721 -0.015682882323118)
(0.0720706665953412 -0.00407429136569316 0.00574336061658404)
(0.0779392930316744 -0.00179598344188681 -0.0118973894937762)
(0.0670349740250946 -0.00276942266421205 0.013682313605785)
(0.0757525686240785 0.00156225741782354 -0.00401486055136952)
(0.070002575380617 -0.0125194842114318 -0.0162794444306309)
(0.0530418467360478 -0.0158090562320503 -0.00631898923841954)
(0.0738544823542615 0.0192633502320337 -0.00229130624530061)
(0.0651084554867107 0.0141618799991871 -0.00913947934990024)
(0.0977592285610056 0.0096856587393389 -0.00720437222589749)
(0.0895234143948106 -0.0136620382558406 0.0147151529708408)
(0.0766323457347155 -0.00355974344680795 -0.00410846612820717)
(0.0764532568599945 0.00152035425534053 0.00661982015335059)
(0.0810134222278465 -0.00693794444691027 -0.0107315599407323)
(0.0849867919466337 -0.00523492687742716 -0.00574204918361787)
(0.0704267357151569 -0.0139435196211265 -0.00635608749417901)
(0.0712636494021341 0.0144079554466736 0.0122947311902912)
(0.100929375925393 -0.0184409952655461 0.00536777469924414)
(0.0940799546555856 -0.000827471216447187 0.00725493062988457)
(0.0675450238098463 0.00117935429387187 0.0112800876619226)
(0.0958186868907515 -0.00952035096441771 -0.00377693867003501)
(0.0804608274572026 0.00152265622362781 -0.021493911417782)
(0.0767632133887911 -0.0113958231574511 0.00134934105526456)
(0.0896571398336293 0.0140395225951465 0.0122424786303221)
(0.07535185538379 0.0130815199099047 0.0130204888155968)
(0.0746913601147326 -0.00221263501573196 0.00580131684696106)
(0.090509092619777 0.000374746935554973 -0.00203764450038832)
(0.0915454523593493 -0.0110995576081622 -0.0057200405442643)
(0.0718432645828363 -0.00754122213385739 -0.00137663338385294)
(0.0894402686237442 0.000872294749392814 -0.0164454283801882)
(0.0882664786483123 0.0130759039877167 -0.0086600060016259)
(0.0849679225474998 -0.00408396391495595 -0.00830324221565543)
(0.0703957482884289 0.0150952602822203 -0.0078551824775798)
(0.100344959296334 0.0157343638031126 -0.0035705288102595)
(0.0752758252528966 0.0146718360243116 0.00339815241617502)
(0.0619993693676957 -0.00383405767593575 0.00850535220861585)
(0.0721802442276427 0.0114322253915459 0.0047004818957365)
(0.0858618969494766 -0.0122830575162446 -0.00723990221859855)
(0.0881349437675084 0.00818580556283837 0.000228434471362124)
(0.076601506567014 -0.0139926444995009 0.00261727851073026)
(0.0685188886190447 -0.0121112301689641 0.0109467235339375)
(0.0934619910253335 -0.00238069484304498 -0.0104847241061974)
(0.0679745644854358 0.00962184084733762 -0.0117122244512556)
(0.0708534153098861 -0.00186280163535218 -0.0196185771014917)
(0.0858571438266247 -0.00463503705211864 0.00248680614301167)
(0.0793034382230306 -0.00137609722440062 0.0116204969089278)
(0.0858583461198439 0.00416501019287257 -0.0096680727981062)
(0.0783711621277554 -0.000712735160968941 -0.0129476732944596)
(0.0823196893822848 0.00542433357031014 0.000307022387026281)
(0.0839930300967992 0.000478983357983031 -0.00463523352399248)
(0.076591996838959 -0.0157467274877074 0.00922179328655519)
(0.0906492751275843 -0.00196737239828878 -0.000180209706844841)
(0.0995268119274643 -0.00946283099979751 0.0113283119980992)
(0.0905714712423645 -0.0151975082787496 0.00342067098793136)
(0.0821101002469182 0.0181170011602797 0.00231054800701502)
(0.0969324740476652 0.0026080010278387 -0.0135333245183229)
(0.0666522389853216 -0.00458703470773428 -0.000924801223272609)
(0.102086714329262 0.00620499450148427 -0.0092106171954276)
(0.0783899280169254 0.00367996925562759 -0.0132111445586316)
(0.0732173747455433 0.00675234833063056 0.00603678472951071)
(0.0701680195417089 0.00382799070666861 0.00128636290783658)
(0.0999706767963132 0.0012345250463988 -0.00149120749767418)
(0.0778417516438159 -0.0156703743227412 0.0024480875161291)
(0.0848995278810214 0.00501784454594513 -0.00606121677792977)
(0.080587132583048 0.00552799536443781 0.00845958915933044)
(0.099772211707724 0.0134408643605871 0.00144267654656399)
(0.0783086713416628 -0.00987117274320483 -0.0181945189144526)
(0.0915100228396078 0.00794674676655359 0.0117701512156598)
(0.0831025469181637 0.0160547913031526 -0.00960798233103193)
(0.0856686048380859 0.00331170794514531 0.00975086871567273)
(0.0800191959817191 0.00385317065982638 0.003255252676794)
(0.0678137331879365 -0.00862726835469206 -0.00143401465369215)
(0.0739770507871409 -0.00538460462353503 0.00757023431330479)
(0.0933093481737134 0.000291813719597098 0.00309046362161347)
(0.0759657737832145 0.00600917336873789 0.0126102739985863)
(0.103528303758727 -0.00256066019822321 -0.00164186198936938)
(0.0873389246274464 0.00783893421600412 0.000340702846167484)
(0.0712511435620073 -0.0101067259815265 -0.00050657627220232)
(0.0783688305234892 0.018857002665729 0.00306581661692543)
(0.0927049279125979 0.00830525354735289 -0.00511932058929806)
(0.109741944495692 -0.00192380442287156 -0.000865860441933508)
(0.0921297517167057 -0.00124482240497217 0.00771804516135769)
(0.0779967560741319 -0.00619116807168889 0.00312376651658792)
(0.0798042222329822 0.00555911107714384 0.0147538116341034)
(0.0995136397745704 0.00272303357503524 -0.00897572033553039)
(0.0785266959196911 0.00161716750043253 -0.00518255001811873)
(0.071739030816622 -0.000246317590674614 -0.00306680069646734)
(0.0804063580231447 0.00579500254320383 -0.0104543634329782)
(0.0571949766627726 0.00534146092917748 0.00619056923988028)
(0.0652725513877263 0.00143460179602081 0.0141048640791381)
(0.0787870857196491 -0.000694406296888265 -0.00834925156228005)
(0.0780640348778027 0.0172245930893127 0.00315938343876015)
(0.0958329831463346 -0.00903009758856078 0.0102539122741051)
(0.086599537789978 -0.000510605664859938 -0.00899245766914397)
(0.0940037342997336 3.64579974646535e-05 -0.0140489828855399)
(0.098897728402215 0.00753873598925793 -0.00554307518584015)
(0.103631238536804 0.0016308591883332 -0.0122474188971293)
(0.104014467037156 0.000747401797917482 0.00638248329526059)
(0.0963713783915252 0.00828038943517907 -0.0121539615512172)
(0.0935359971278808 0.00307885483257242 0.00649767394500225)
(0.0785304457003275 0.00105507571962549 -0.0143129531605304)
(0.101997047734629 0.0094876807404819 2.02785036659955e-05)
(0.0798306344788498 -0.007560610532651 -0.00458039698271694)
(0.0687092135854237 -0.0107664502245783 0.00251326387261364)
(0.0698844723873543 -0.0158439119652712 -0.00768584216912826)
(0.0907096073864057 6.62598399289712e-05 -0.00136715815739885)
(0.0921215124569932 0.00559953070286511 -0.0167505903235249)
(0.0792990141333871 -0.00252397518847226 0.00098571251487828)
(0.0709762514943225 0.000679867460420244 -0.00242234646953457)
(0.0981632026256772 -0.0185581274312457 -0.013136501407862)
(0.0971807985247791 -0.0198710572363228 -0.0119550382358085)
(0.0929386882484293 0.00541676511637207 0.00852543545981264)
(0.0895646261533915 -0.00652489554059478 0.0235533784214405)
(0.0823175676401696 0.00958309795199314 0.016516041206045)
(0.0863041042031238 -0.0131675447121436 -0.0104412043930122)
(0.0965286696046555 0.000374538193517639 0.0149178975536838)
(0.0888637762932226 0.00340640485414582 0.0142281186542504)
(0.0887611500219453 0.00688685245195894 0.00168724903330366)
(0.0776393091796867 -0.00463145101673913 -0.00296652557807655)
(0.101085925833752 -0.00761753191448936 0.0158194750311754)
(0.0759582837945428 0.00307855772517602 0.00672328418838954)
(0.110811605179041 -0.0135330556643903 -0.00122043719320004)
(0.126295504620251 0.00036621564849249 0.00903177513294838)
(0.110778916862597 -0.0167645566856446 -0.0110870986683021)
(0.0937005223451424 -0.0148735500408482 0.00830013688179773)
(0.1014282191767 0.00235709908275578 -0.00196778250473537)
(0.0872582488482921 0.00381588525827432 -0.00483564530010341)
(0.1309112229453 0.0136440453502105 0.00141640640688509)
(0.12915133417665 -0.00745983075156087 -0.00542203201115334)
(0.104707587859797 0.00700303721591677 -0.00917572053528525)
(0.129442197331576 0.00542421364433473 0.00939085772378456)
(0.129199512778263 0.0166729143330569 0.00837065968585846)
(0.134564522015895 -0.0134025261472965 -0.00607851826855564)
(0.141158545929743 0.00263400915522759 -0.0163811797928509)
(0.121220738351908 0.00422513561956435 -0.00627316978972698)
(0.108762984261304 0.00743694653149489 -0.00391225396027898)
(0.101413126812812 0.0101238613849124 0.00745276992423338)
(0.108894592202891 -0.0138619530680126 0.000973882123346697)
(0.113168813366397 0.0122422610055815 -0.00470675488541177)
(0.120215867331754 0.0173506929243837 -0.0119120748278843)
(0.11686572762357 0.00603366774047567 0.00169643369753894)
(0.106773922722696 -0.0052471005928489 -0.000790276203251547)
(0.138221361948076 -0.00317220989475735 -0.00380478391216623)
(0.105048279243221 -0.00699806891687685 0.00884791622505819)
(0.128355092429879 -0.00609158830613017 0.00382761079443204)
(0.0877982379558976 0.00670685164077375 -0.00378840334825727)
(0.118301120199849 -0.00415755200334537 0.00808582946836452)
(0.129924367891877 -0.00672016916957674 0.00305395963183966)
(0.102021718921438 -0.0110458708601469 -0.0026808913533005)
(0.119633910013832 0.000174386688716208 -0.00481891320878398)
(0.139821412606457 -0.0033284006363644 -0.0222197833763389)
(0.125100554992032 0.002081990179378 -0.00716396118505574)
(0.134466055036262 -0.000110701879187899 0.00228164949942716)
(0.113981104793384 -0.000152244837576985 0.0214544467979699)
(0.128606924773162 -0.00158429897809474 0.00955317012472374)
(0.121122251319916 -0.00388151730533841 0.00531722121147954)
(0.10641859758917 -0.0075306092296995 0.0092422828543661)
(0.112921268114599 0.00860727270615478 0.00252511698985096)
(0.0986292960214815 0.00720355910699706 -0.0199832826624903)
(0.131518786777227 -0.00982055199833671 -0.00428267617333586)
(0.113518124600995 0.00927718316136293 -0.012388927731991)
(0.12861349465032 0.0145814297876122 0.000524824803323445)
(0.148616490805337 -0.00559731638847471 0.0166469629524712)
(0.108978544648364 0.0029059537893964 -0.00746291440466155)
(0.121363527549591 0.00197707974938041 0.00474170796243585)
(0.122902322520688 -0.00515813603492346 -0.0047361076918241)
(0.109991804947665 0.00237465053737743 -0.00502707814063338)
(0.116590679785267 -0.0156831643096183 -0.00121729720611755)
(0.120181250523741 0.00921083188608557 0.00818576125295022)
(0.106112407388205 -0.0042963143114563 0.000432383815576479)
(0.0584385040106187 -0.0101448134297322 0.00160056727179039)
(-0.00613308346426578 0.00420520024245284 0.000442515799529718)
(0.00254675381303278 0.00531101383907837 -0.00299363135296473)
(0.00527884454084041 0.000306124134073857 0.00341187046394678)
(-0.00108902390293727 -0.00274643055607167 -0.00362931797255381)
(-0.00282859699175529 0.00364463688776778 -0.00228331388500087)
(0.000985111643531041 0.00143367223791852 -0.00165551862287261)
(-0.000720485043522508 0.00805697036814735 0.00787463437131754)
(-0.00329889653758999 0.00469247163552494 0.00498782743862587)
(0.000181001872527177 0.00150889965356354 0.00659846267640734)
(-0.00904892836257178 0.00881385304053009 -0.00198468209751012)
(-0.0013251787472452 -0.00631816244996089 0.00240692354671616)
(-0.003545353999413 0.00611442681449277 0.00154647562755911)
(0.000302440866238323 -0.00109747654247256 0.000716803615090557)
(-0.000668985166620912 0.00141745787689569 -0.00135073979558015)
(0.00582085533622372 -0.00773187352632654 -0.0113439654619658)
(0.00454077469666096 -0.00430052264028845 0.00257191507576435)
(-0.00398923553845614 -0.00173845176426693 -0.00371263619800678)
(0.000731115976242832 -0.00383225383263079 0.0052747624024128)
(-0.00645815231732491 0.000984516708295371 0.00104725175633995)
(-0.00633660185308942 -0.000406407279170877 -9.74082028956868e-06)
(0.00423736390461749 0.00224304752802949 -0.00147611711737742)
(-0.0132937539181806 -0.000379919337845829 -0.0102701056250112)
(0.00118164856813963 -0.00121268639131208 0.00688345459976749)
(-0.000565921262140416 0.00105416238835195 -0.00238509020238577)
(0.00503302670504219 0.00187232055739045 -0.0123408843750304)
(-0.000420654691776151 -0.00803277286941262 0.00227530031862882)
(-0.000907213259829521 0.00385423644044941 0.00716973904127257)
(-0.00207024765722566 0.00140940780587769 0.0012505382843751)
(0.00130289444075455 -0.000939533591733534 0.00388710277560854)
(0.000860136414796838 0.00544548736684271 0.0058283226249876)
(0.000131939988819395 -0.00713787323091385 -0.00197141509050074)
(-0.00303164734304259 -0.00780327463300576 -0.00161714143033061)
(0.00227456942117422 -0.00713411209431249 -0.00921324895009286)
(-0.00324576073859277 -0.00317424732191093 0.00554487793189246)
(0.00234659853226454 -0.00106875288483268 -0.0123532636285989)
(0.00985890810888868 -0.00377792075031128 0.000649903025717137)
(-0.00268317135031762 -0.00588871518441571 -0.00450411820577158)
(0.0038576205442937 -0.00228058802010148 0.00209097934130315)
(0.000970949828049044 -0.00716923331913761 0.00311222868541846)
(0.00677480443292639 0.00554176250887331 -0.00230538818889708)
(0.00457400274462005 0.00982671406064106 0.00582075269009567)
(-0.00409073700210767 0.00725379152561829 0.00534424256018746)
(0.00586245140567065 0.00554088323113201 0.00808003240752548)
(-0.00437095608193524 -0.00548949387861168 0.00371794429692037)
(0.00291463703590691 0.00025456335268814 0.00197432813850238)
(-0.000359239232166553 -0.00725705471009149 0.00640882021215147)
(-0.00355050202965504 0.00486878479995957 0.00105938090108969)
(-0.00285947687090742 -0.000763570138530163 -0.000338434663887303)
(0.00122683739409334 -0.000700651739552502 0.0028314113805189)
(0.00823523723059695 -0.00264380794800364 0.00234265043392682)
(0.00334277877731025 -0.00533413039573179 -0.00157677881605063)
(-0.00401843848468927 0.00164116267507764 -0.00504146914361455)
(-0.00189346561804474 -0.00479418973512288 -0.00901340444922354)