/*--------------------------------*- C++ -*----------------------------------*\
  =========                 |
  \\      /  F ield         | OpenFOAM: The Open Source CFD Toolbox
   \\    /   O peration     | Website:  https://openfoam.org
    \\  /    A nd           | Version:  7
     \\/     M anipulation  |
\*---------------------------------------------------------------------------*/
FoamFile
{
    version     2.0;
    format      ascii;
    class       volScalarField;
    location    "0.0018/particle";
    object      overallT;
}
// * * * * * * * * * * * * * * * * * * * * * * * * * * * * * * * * * * * * * //

dimensions      [1 2 -2 0 0 0 0];

internalField   nonuniform List<scalar> 
600
(
860.17847064342
884.086981195854
892.710633411165
906.43072734714
856.414130543861
945.942946525666
888.078965219188
911.500611579369
999.548448106239
888.74455595837
904.906704998591
868.917842093854
922.577461266569
913.477273183623
845.030320215085
959.241176606199
921.847845979831
906.155471441642
916.381518911751
948.511744626634
881.402974935425
873.397499631568
929.143277626894
863.62806439086
961.568292368434
880.945365948727
901.254415451532
874.258174592093
920.63305793211
891.720825755359
948.42876995222
841.263759698534
922.115367443682
942.506298135922
862.582824591988
943.422057767932
988.606530532887
890.149602689486
901.086597046964
893.78368855106
954.454518380844
877.065867852375
903.066951091192
876.301778339766
831.439756731351
919.438237605777
875.492986869448
952.202402715875
880.627330849896
898.144166896573
971.081848897271
884.412773211926
863.7373328408
886.408465750733
825.574743584161
873.182819786493
883.927336546194
947.741208797005
906.132357094223
903.811570630627
926.824494168846
924.942071724377
956.427128198612
860.906049973154
988.656623335018
858.006608547962
933.31204441735
843.711975191396
872.031271008103
979.93325687112
852.9864563341
879.748141040553
920.463141560724
853.574472611201
870.855052441854
844.325856190394
892.832770564705
894.297217838463
868.412524324134
924.367214850016
911.223941064532
895.557618397979
905.291500931395
871.859191779952
885.694624088208
875.304767448151
867.184819348054
906.333745433421
857.153776605162
882.396718827452
937.443774847465
936.16478699411
908.610528825522
912.424254030281
908.259573648216
919.58193146885
868.802216010347
898.685064215178
1060.69201990249
889.27399629812
911.477202132786
889.53592378577
928.883069525601
923.336118334433
824.354039146968
891.489217630583
851.079346303682
875.301369484248
894.137164484934
950.703443360055
855.263972766916
935.529372565245
829.937688213793
883.867352673761
902.479945525574
903.14340249681
877.82124298656
932.335091820685
874.29654624588
909.416377771911
842.428639575056
920.316906416152
919.653532720248
852.558540052289
862.553356688079
925.451427320535
955.416037021631
898.907907580778
939.821843070051
923.660569670676
888.568922211035
997.271056892019
882.664648844484
915.710027319068
841.445944256884
836.723726660254
895.414297841993
879.937720795578
923.337035789659
879.032720851845
852.158778833558
855.861210509254
934.906586855644
943.530879921395
877.653114444641
842.015615182397
893.967323755164
849.962829316606
846.958260003081
915.185181946025
907.976644593406
896.771803172397
892.789963181607
947.230337222057
833.150070752102
977.326916063643
866.750748455455
837.146515752012
912.120648819278
918.328799587396
826.530332186338
882.105368131536
924.506946625091
907.088985515687
906.453083577212
886.746702083892
871.268687272182
929.68661297717
895.984740564981
942.024084255093
816.515833179156
933.970895476928
972.352202588846
893.403739051599
903.223159993409
852.438677218486
915.389907989055
854.829533691315
903.249954226056
894.679574987906
889.532489340277
906.270580148156
908.304699293289
873.228651412716
809.594414673861
874.436287847807
863.003988427431
837.636935208143
871.599600757866
905.697568368452
816.630476750994
899.467809379661
808.032283969072
902.962662215224
883.065431982046
847.205747550658
912.122855743703
887.667197297906
844.445173447196
845.990598220104
847.456987555435
936.084924466715
813.788068726389
922.394406171049
816.768913798307
897.226436561178
832.514904673863
829.759439157012
915.675220876094
789.21408153904
928.069861651027
808.194980911554
840.752240984807
765.711248337093
779.083370967856
797.659137428384
824.351168741789
812.762571666381
875.321713435696
832.715825391072
831.539465021062
820.588233079122
837.568927715325
821.131400667325
748.686452122978
755.423966412326
856.98322345339
833.866870287734
864.859645767852
813.14815933663
797.594923518222
769.981743691062
739.439201001518
773.589812788802
774.277669431893
757.187137491356
802.61560741135
806.615194481421
827.531483639707
829.267540901324
739.491456426921
769.207578590442
743.721543365094
698.369339743522
704.410928339264
770.4929186817
740.869743356365
774.61988152949
773.955208557814
775.547926917278
678.563916010401
745.943543293051
755.449870577561
689.676704244279
725.480159193228
775.167996521265
784.222630855641
725.269967885268
704.460894798663
692.344589608265
721.112933807903
635.114568028986
759.634982297754
653.473419672385
743.402338501245
704.845015741191
693.340398913701
700.027608560765
692.206068325473
731.910120205415
660.372590189564
627.709430048717
691.104339817884
693.48581927319
737.369537382228
732.440092467131
642.095364898252
624.283208998794
716.116561668812
706.079790239251
670.186321990053
729.147152466972
702.437442724941
614.083139049449
653.079495903808
697.023287214557
694.103464718888
711.866070262409
682.051658135346
681.835307459715
641.335796607403
679.839901884172
704.947847890432
707.051123933688
692.648987209761
611.57739949774
662.104707788454
768.839490695108
700.338785294855
678.681713766836
721.9607312405
652.291882319698
591.248754717725
663.114962341104
659.171075488609
631.619526101715
681.656435098689
638.716522513135
735.436348830789
657.87856596906
601.994174460348
625.245542552161
662.166914344819
748.274021736474
585.301119823377
741.656998556842
788.570865589333
670.157425850197
693.560241318728
736.737177138417
739.354241288745
597.396389756168
679.570237626446
638.042663704621
678.724004940674
702.64373524089
689.959397882121
678.417890124452
660.55798378872
704.188412132025
654.668909330707
758.780727522344
715.289394717341
626.02378438458
646.911071806084
685.873800071435
659.835026138728
616.496533663208
769.076202152909
721.049065519046
670.484389950933
683.001735728745
696.476557962951
715.563121845805
648.906037299497
680.702369143725
681.55352265728
646.25111823739
663.55343279668
687.619813020681
686.697423757093
655.518512437621
662.827545421493
636.428425017233
631.844614959719
756.224614150314
680.317544617651
666.578738671207
593.676958058625
662.801664832356
700.252080254622
636.735038070106
645.475591718893
682.817428331184
669.694363535921
701.0336533345
636.212305847726
628.671241386109
534.262825338172
633.676056989346
570.092373102169
536.001025203794
543.780923468952
542.718836238027
491.248111674495
504.534905578784
463.589972920237
523.792849145364
484.088689584932
570.14805977295
485.190684840151
464.181752106007
493.7522896725
488.871347167179
481.468001527164
479.062209056226
450.485423905764
480.687681859489
454.816177580346
476.334449812984
478.059688313051
495.484251222674
497.893795285181
484.938012782882
458.940697716126
464.305538375329
489.12769038413
452.753941582279
460.714787575589
504.122514562349
478.179085774563
493.585332188511
410.467100297339
442.751835047716
492.94738711434
426.307012976945
512.983350096922
463.344160308551
484.789959426964
490.001809361903
487.128547623763
472.170188201292
497.332497026024
457.018677771825
426.639342492282
479.113020085634
471.643959075192
433.373982279463
522.16894873977
469.949256845132
427.721082889937
265.270217033392
250.995276815989
321.886996497787
306.568595919479
319.562474221422
301.081367361836
275.51663452529
291.25981110427
321.945190180195
285.948414560255
256.928878340442
323.969944278869
324.52238875711
331.05962801871
326.051283914565
280.013155963156
318.305534143347
297.39362177583
294.464798319918
291.912570795665
323.436125673298
298.188787948156
261.191336963627
271.69305135219
320.664500807051
308.015023074476
282.457219120915
261.200312041303
319.977710421336
285.136530392792
349.910452461736
313.481449408083
253.818863746008
285.678804260172
327.810807941057
265.281236828347
285.153883765387
254.166956428057
315.21206232117
290.812063875272
306.735171941999
304.210781446081
284.882492679256
276.698322443892
297.954906267102
293.819861996806
292.044098210541
287.67934721053
328.150266447637
296.862857102314
273.11584672083
284.682954836154
258.520333332023
301.151193149698
341.144631825496
293.987717868152
295.125671719264
321.907435615048
283.772788828835
293.46411302488
263.588061965022
283.435250398996
319.673681359266
312.922408047029
315.376629140248
293.004350159057
254.872169738173
308.791714348321
283.327001495658
357.625618337627
315.231628743322
299.654950731966
265.607516783703
307.237226563814
272.81153269674
332.680279201136
290.151679507731
347.092807047957
375.858242594236
307.914308513026
312.795553492494
316.735097900266
308.215901708178
273.105542808104
336.402816076143
283.532825864369
297.771321616264
286.042629204668
293.511131163216
261.2280344527
276.176282613082
313.615864130799
317.593833969266
266.448597468191
292.602084663972
277.867129405392
281.427611737803
286.82473190815
306.139285729659
301.187690705182
295.448761419466
329.784452822926
305.862217850886
322.253875778801
318.551543106694
308.312745844276
242.66111511017
283.539028140152
313.042675239256
278.6275291319
288.882728664482
318.761628917626
293.385638755059
372.292137846283
281.720079587523
282.195831209763
313.616053894005
303.773701897177
294.514443698851
261.161931946998
325.606324064157
364.860096726781
320.228270762535
272.689683401347
310.827988661137
304.362181446974
263.027535352792
302.24843705918
327.749572806292
305.735646941543
307.224288530924
286.899090263052
331.327134826992
284.26688758896
334.112372198056
305.019928974078
273.474625836657
278.211736279225
291.048265557696
268.849641381909
281.75106515589
280.760104463628
333.48840522333
323.775223488957
291.555005833253
294.777395877407
285.150476024874
304.986233934928
306.961969444758
317.103575728339
291.56400775938
319.944700990886
272.558101876973
306.124570973916
302.726208335113
324.239251117418
317.305010178673
318.732553574645
278.111257351481
306.935691589584
323.472269265558
293.452789839948
266.486137422374
322.917313599712
315.744552881401
283.295154516599
311.854185643471
320.268655522064
272.27159979753
331.040651388036
335.428696793933
314.750776188292
300.937889880779
294.268286131659
294.843412254399
317.695535296658
275.515572905362
327.049387756663
288.442045830134
)
;

boundaryField
{
    DSMCSide
    {
        type            symmetry;
    }
    DSMCBound
    {
        type            symmetry;
    }
    nullDims
    {
        type            empty;
    }
}


// ************************************************************************* //
