/*--------------------------------*- C++ -*----------------------------------*\
  =========                 |
  \\      /  F ield         | OpenFOAM: The Open Source CFD Toolbox
   \\    /   O peration     | Website:  https://openfoam.org
    \\  /    A nd           | Version:  7
     \\/     M anipulation  |
\*---------------------------------------------------------------------------*/
FoamFile
{
    version     2.0;
    format      ascii;
    class       volScalarField;
    location    "0.2/particle";
    object      dsmcRhoN;
}
// * * * * * * * * * * * * * * * * * * * * * * * * * * * * * * * * * * * * * //

dimensions      [0 -3 0 0 0 0 0];

internalField   nonuniform List<scalar> 
800
(
958
1069
1045
1017
1090
1050
1080
1087
1052
1069
1045
1123
1113
1067
1048
1055
1098
1154
1108
1082
1093
1015
1024
1123
1065
1064
1099
1059
1058
1110
1096
1067
1029
1117
1072
1099
1114
1083
1047
1082
1051
1156
1123
1105
1104
1049
1081
1113
1076
1099
1074
1077
1100
1041
1052
1054
1049
1165
1129
1051
1056
1037
1107
1098
1073
1003
1062
1020
1015
1030
1042
1023
1051
1081
1070
1047
922
973
1001
1006
1052
1028
1041
1001
1002
978
999
953
961
984
952
938
1039
975
987
981
944
964
893
918
983
930
933
898
928
955
960
919
948
939
866
923
919
892
910
862
851
896
864
949
880
855
863
839
892
818
823
824
891
847
850
851
902
876
822
819
850
879
880
874
793
824
800
802
773
819
841
814
776
743
774
775
828
732
844
829
731
737
786
768
699
787
766
784
745
763
722
727
774
715
762
742
722
735
764
708
746
708
739
692
689
729
647
695
692
712
677
699
686
710
681
687
756
675
637
650
690
708
656
670
629
639
640
626
685
657
644
677
647
612
660
616
677
586
656
634
650
624
623
625
595
568
573
600
584
561
615
608
590
570
511
580
603
562
603
559
552
592
572
579
603
590
552
508
593
540
540
562
553
538
562
498
523
566
532
536
548
549
514
515
498
537
478
525
503
544
473
494
471
523
510
520
448
496
488
510
467
477
497
507
482
504
474
449
471
494
491
473
484
469
475
453
477
473
454
451
439
493
467
439
468
495
453
468
458
490
435
446
454
450
494
462
492
430
478
444
445
457
407
422
470
424
448
441
462
461
454
457
468
453
469
447
444
475
491
473
493
481
455
478
504
446
437
445
505
473
454
471
471
466
451
436
460
473
457
449
489
430
472
444
454
462
459
471
413
477
459
450
442
478
483
479
438
443
461
482
441
487
440
454
489
479
465
465
448
444
513
458
429
442
466
450
456
437
472
444
466
444
453
453
451
483
461
459
455
434
416
464
411
502
444
503
438
456
450
454
471
453
444
471
461
436
412
484
457
462
444
458
487
458
476
445
452
456
440
437
458
483
445
430
445
467
464
459
470
453
487
496
475
476
430
433
454
462
430
469
514
461
446
436
483
449
442
493
421
466
456
457
463
450
486
432
447
430
476
385
429
407
438
406
419
397
377
387
357
367
341
337
342
318
347
319
342
322
319
350
312
312
271
303
304
284
256
300
287
264
292
284
261
253
312
272
261
289
284
268
291
274
305
259
303
277
265
262
262
288
324
278
284
290
269
288
296
289
294
295
289
287
290
278
304
299
286
268
269
325
303
300
285
305
296
272
259
307
289
276
290
327
284
280
284
288
305
290
267
273
308
283
303
268
288
240
300
292
281
280
279
268
284
286
310
296
295
295
284
294
262
299
291
266
261
276
280
305
275
268
275
299
313
300
260
259
310
271
287
258
247
309
300
324
310
322
281
306
302
288
291
277
297
279
254
288
293
289
285
282
288
284
282
294
280
263
304
260
303
276
287
271
290
272
292
310
290
306
318
315
288
290
299
285
233
205
153
127
148
151
140
131
123
138
107
131
151
143
148
132
115
146
135
144
138
121
129
125
138
141
132
142
122
142
132
132
140
142
147
150
156
121
122
141
140
165
147
141
124
127
121
148
139
134
137
121
152
132
113
130
131
138
129
134
124
137
137
146
131
147
147
146
124
135
131
135
146
122
133
122
131
139
122
134
124
117
128
123
168
116
144
140
137
130
130
133
131
114
142
125
141
127
143
123
134
112
136
138
120
141
142
133
125
125
160
143
118
140
125
146
115
149
124
115
135
142
151
144
106
147
148
134
133
119
151
135
141
137
142
137
125
134
135
139
135
134
126
152
125
136
133
134
127
114
)
;

boundaryField
{
    partSide
    {
        type            symmetry;
    }
    partBound
    {
        type            zeroGradient;
    }
    nullDims
    {
        type            empty;
    }
}


// ************************************************************************* //
