/*--------------------------------*- C++ -*----------------------------------*\
  =========                 |
  \\      /  F ield         | OpenFOAM: The Open Source CFD Toolbox
   \\    /   O peration     | Website:  https://openfoam.org
    \\  /    A nd           | Version:  7
     \\/     M anipulation  |
\*---------------------------------------------------------------------------*/
FoamFile
{
    version     2.0;
    format      ascii;
    class       scalarField;
    location    "0.0018/lagrangian/dsmc";
    object      Ei;
}
// * * * * * * * * * * * * * * * * * * * * * * * * * * * * * * * * * * * * * //


25329
(
1.17287e-20
6.81445e-21
2.46325e-21
8.28959e-21
1.40572e-21
3.45573e-20
6.11463e-21
3.37739e-20
3.55207e-21
6.09738e-21
1.19385e-20
6.13503e-21
7.52076e-20
2.39662e-21
1.04254e-20
1.84757e-20
3.31713e-20
7.58248e-21
1.48539e-20
3.10975e-20
1.69559e-21
4.87048e-21
3.159e-20
3.88821e-21
6.11261e-21
5.9101e-21
5.22727e-21
7.1216e-21
6.46682e-22
6.18822e-21
2.08859e-20
1.68398e-21
6.14096e-21
3.45921e-20
2.81415e-21
1.09284e-20
1.28607e-20
4.72906e-20
1.19316e-20
3.01473e-21
3.90304e-20
1.54221e-20
1.8594e-20
2.10263e-21
1.80338e-20
5.88962e-21
5.36301e-21
2.03974e-20
3.4901e-21
2.12202e-21
7.98047e-22
7.12771e-21
9.84524e-21
1.51862e-22
8.30667e-21
1.14007e-20
3.73699e-21
1.15493e-20
3.81462e-21
1.28501e-20
8.76532e-22
9.29128e-21
5.92669e-21
9.17864e-21
1.06788e-20
9.85456e-21
2.87894e-20
9.22207e-21
3.06982e-20
1.30407e-20
8.6659e-21
9.79997e-21
1.14015e-20
8.2846e-21
1.17189e-20
3.86469e-21
3.03429e-21
6.40825e-21
1.00999e-20
3.41697e-20
3.9993e-20
2.88029e-20
2.0787e-21
9.47373e-21
3.07864e-21
4.65732e-21
3.01746e-20
1.41298e-20
1.89914e-20
1.53796e-20
3.64566e-22
1.56513e-20
6.10004e-21
2.5439e-22
3.08818e-21
4.38216e-22
1.11348e-21
1.52912e-20
6.50399e-21
5.13215e-22
6.27332e-22
5.63482e-21
2.45744e-21
7.96252e-21
8.68375e-21
1.20777e-20
1.34565e-20
2.76008e-21
3.75226e-21
3.13395e-21
2.25229e-20
8.42065e-21
2.4931e-21
2.3888e-21
2.94327e-20
4.02661e-20
5.32328e-21
2.02261e-21
5.26794e-20
5.96721e-21
1.68095e-20
3.51253e-21
4.3826e-20
6.1021e-21
2.6449e-20
1.56824e-20
2.25608e-22
1.00273e-20
8.15854e-21
3.59806e-20
9.11555e-21
1.19507e-20
9.77105e-21
1.52189e-20
3.92508e-21
2.62452e-20
9.34102e-21
1.52034e-20
6.40226e-21
4.35013e-21
1.61945e-20
6.83808e-21
1.80806e-21
1.32195e-20
1.77495e-20
3.3853e-20
2.93493e-20
1.51827e-20
2.28809e-20
2.59241e-20
1.22639e-20
2.93999e-20
2.59081e-21
6.58732e-21
1.7763e-21
1.15974e-20
1.9418e-20
3.81675e-21
1.89278e-20
5.98559e-21
6.79385e-21
4.14442e-21
1.27759e-20
1.28823e-20
1.22307e-20
3.64247e-21
4.24719e-20
1.69303e-21
1.00096e-20
1.6657e-20
5.36302e-21
9.22501e-21
2.04667e-20
3.59179e-21
1.0192e-21
3.86358e-21
2.42885e-20
2.86177e-20
1.0976e-20
4.92473e-21
2.09729e-20
1.38692e-21
5.66495e-21
4.5485e-20
2.5156e-21
1.41525e-20
6.28057e-21
1.42819e-20
3.39523e-21
2.6413e-21
4.97153e-21
5.10521e-20
1.40421e-21
2.31851e-21
5.04643e-21
9.59e-21
7.98903e-21
2.00421e-21
1.85452e-22
3.36039e-20
5.18383e-21
1.98406e-20
5.03059e-21
1.36275e-20
3.53116e-21
4.08983e-20
1.83655e-20
1.80523e-20
7.1597e-21
6.58078e-22
1.6132e-21
1.00183e-21
1.24829e-20
9.06026e-21
4.01288e-21
1.13048e-20
3.88739e-20
5.11525e-20
3.69627e-20
4.11628e-21
1.14064e-20
7.78794e-22
3.33719e-20
2.4028e-21
1.13912e-21
6.2246e-21
3.16116e-20
2.07287e-20
1.3547e-20
1.80966e-20
4.04392e-20
2.54627e-20
3.96604e-21
1.1815e-20
1.41417e-20
2.27998e-20
1.8875e-20
1.54584e-20
2.85693e-20
5.54047e-21
8.15118e-21
3.70959e-20
2.31199e-21
6.41238e-21
1.38447e-20
6.0513e-21
3.22327e-21
2.26565e-21
1.77795e-20
9.94766e-22
2.14506e-20
8.942e-21
1.14452e-20
1.25843e-20
2.99604e-20
2.28938e-22
6.57253e-20
4.9669e-21
2.95459e-21
1.44688e-20
4.6002e-21
1.15906e-20
1.0522e-20
1.93085e-21
1.04141e-20
3.85846e-22
1.23092e-20
5.05179e-21
1.00861e-20
1.90044e-20
3.9042e-21
2.02602e-20
8.43032e-21
1.01184e-20
1.38221e-20
4.07812e-21
3.82367e-20
7.8693e-21
2.75952e-20
6.92457e-21
6.21255e-21
2.21133e-20
7.68845e-21
2.65254e-20
1.73917e-20
6.12903e-21
6.01757e-21
6.8208e-21
2.26317e-21
1.06381e-20
9.74335e-21
2.48045e-21
2.99069e-21
2.8462e-20
4.43055e-21
6.82481e-21
5.86056e-20
8.96513e-22
1.80385e-20
2.61557e-21
2.11917e-20
7.64049e-22
4.48973e-20
6.61051e-21
8.51049e-21
3.75826e-21
1.41921e-20
1.48225e-21
1.76428e-21
1.17729e-20
1.68713e-21
2.08165e-20
3.92734e-20
2.00633e-20
3.64607e-21
1.04921e-21
1.45073e-20
4.07362e-20
4.65243e-21
1.5853e-20
9.01162e-21
9.25602e-21
2.44143e-20
9.78228e-21
9.12025e-21
1.45363e-20
2.66715e-22
1.56829e-21
2.06216e-20
1.17431e-20
2.43119e-20
2.28963e-20
9.41437e-22
1.17022e-21
3.07566e-21
1.08549e-20
5.63105e-21
4.06828e-21
1.58131e-20
3.40962e-21
8.75052e-21
1.73278e-21
1.66342e-20
1.75006e-20
7.79395e-21
5.53671e-21
1.97069e-20
2.48541e-20
1.91553e-20
1.15069e-20
1.44837e-20
7.57529e-21
1.88404e-20
1.03788e-20
1.0209e-20
1.29459e-20
9.30813e-21
1.47453e-20
2.77764e-20
1.22819e-21
7.71076e-22
5.32915e-20
1.28638e-20
9.25398e-21
2.34836e-21
8.89996e-21
1.7273e-20
5.84315e-20
5.55443e-22
1.00626e-21
6.38311e-20
1.10276e-20
6.75522e-21
1.25645e-20
1.44459e-21
9.07147e-21
3.76317e-21
2.67465e-20
6.67372e-22
8.9553e-22
1.62751e-20
1.0325e-20
4.54695e-20
5.76219e-21
3.07743e-20
7.7675e-21
3.69933e-20
1.69764e-21
5.37481e-21
2.11828e-21
3.49666e-21
1.64772e-20
1.662e-21
3.12849e-20
2.6526e-20
3.55924e-21
3.58921e-21
9.47847e-21
2.35404e-20
1.08408e-20
5.72878e-22
3.11437e-21
3.81525e-20
1.76605e-20
6.56966e-21
5.23318e-21
9.09045e-21
1.29321e-20
5.3919e-21
7.89859e-20
7.57252e-21
5.36152e-21
1.9866e-20
1.85589e-20
1.00983e-20
1.19246e-20
2.73144e-20
2.10401e-20
1.2259e-20
6.03172e-20
2.08537e-21
1.59195e-20
2.46634e-21
2.36237e-20
9.36212e-21
5.11703e-20
1.23024e-22
9.7423e-21
4.22684e-21
9.18079e-21
2.92694e-22
1.6122e-20
2.49156e-20
2.96507e-21
6.31178e-21
2.03137e-20
2.45262e-20
6.33932e-21
1.11248e-20
3.97113e-21
5.15138e-21
7.03494e-21
1.6487e-20
2.13023e-20
6.04783e-21
5.71486e-21
2.32582e-20
7.42585e-21
4.79697e-21
7.77831e-21
9.85633e-21
6.63526e-22
6.84966e-21
8.15208e-21
3.65543e-21
2.48878e-20
5.92303e-21
6.35076e-20
1.11153e-20
2.06239e-20
1.09973e-20
2.00711e-21
6.48216e-21
3.56243e-21
9.41939e-22
4.87441e-21
6.21267e-21
7.63055e-20
4.29438e-21
3.19322e-22
4.8915e-21
1.90247e-20
1.86756e-22
2.51563e-20
5.431e-21
2.33942e-21
8.37548e-20
2.60388e-20
1.05056e-20
2.45101e-20
1.02338e-21
5.16827e-21
5.68428e-21
4.26289e-21
2.5283e-21
2.00004e-21
1.8401e-21
9.67993e-21
1.07073e-21
1.49487e-20
1.61987e-20
3.23963e-20
4.05647e-20
1.35226e-20
3.35231e-20
8.12206e-21
1.64316e-20
2.50893e-20
2.2256e-21
4.58334e-21
4.23193e-22
2.87754e-20
2.25885e-21
1.14482e-20
1.15732e-20
1.76257e-20
1.31252e-20
2.53145e-20
1.00481e-21
2.28251e-21
9.51535e-21
2.68884e-20
1.77844e-20
1.14319e-20
5.26389e-21
1.68948e-21
7.43851e-21
2.55062e-21
1.04262e-20
6.25533e-21
1.79498e-21
1.26496e-20
1.16979e-20
9.19685e-21
2.04664e-20
1.98738e-20
9.12886e-21
7.46243e-22
1.21708e-20
8.70238e-21
1.59338e-20
2.20561e-20
2.83357e-21
2.05872e-20
4.78049e-21
1.38536e-21
2.11841e-20
6.98084e-21
8.92482e-21
1.44734e-20
2.28706e-20
1.31228e-20
2.23716e-20
5.52748e-21
2.03458e-20
4.66302e-21
4.13505e-21
7.45731e-22
1.33491e-20
1.22277e-20
4.7306e-20
3.88263e-21
2.25411e-20
2.05483e-20
2.94646e-20
1.16726e-20
2.61724e-20
4.89034e-21
8.90596e-21
2.1836e-20
5.75524e-22
1.89667e-20
1.74305e-20
6.87919e-21
8.41619e-21
7.6847e-21
2.47351e-20
7.16527e-21
6.23418e-21
1.40444e-20
2.83411e-21
3.85121e-22
4.79083e-21
1.42468e-20
8.28946e-21
1.15721e-20
6.50333e-21
3.26406e-20
9.04958e-21
6.20559e-21
1.25964e-21
2.55638e-21
1.32566e-20
2.73806e-20
1.51664e-20
3.56632e-21
8.0389e-21
8.05517e-21
3.43321e-20
1.31857e-20
4.91634e-22
8.20614e-21
1.23026e-20
3.5322e-20
2.98782e-21
1.8598e-21
8.82854e-21
8.83609e-21
1.43238e-21
1.33356e-20
7.42671e-21
3.40541e-22
8.65387e-21
7.27848e-21
2.74761e-21
2.31699e-20
1.47795e-21
2.19058e-21
1.99267e-20
1.01099e-21
1.73019e-20
1.05436e-20
1.22595e-20
1.42031e-20
1.40239e-20
9.04784e-21
1.69313e-21
1.53833e-20
1.14358e-21
5.52608e-20
1.15196e-20
1.88985e-20
1.49223e-20
1.05546e-20
8.04635e-21
4.81128e-21
3.2445e-20
3.31022e-21
1.20733e-20
5.76225e-21
6.73165e-22
9.45111e-21
4.84982e-21
1.27018e-20
1.32922e-20
5.3424e-22
1.77092e-20
2.14252e-20
1.05663e-21
2.45782e-21
2.59152e-21
2.01752e-20
1.31898e-20
6.35055e-20
5.62731e-22
1.56401e-21
1.4821e-22
1.0787e-20
6.18974e-22
1.72962e-21
1.85146e-20
4.27113e-21
7.55803e-21
8.89247e-21
1.70429e-20
3.28962e-20
9.0737e-21
2.66695e-21
8.81827e-21
5.35966e-21
1.37221e-22
4.9047e-23
1.17951e-21
1.54063e-20
1.43956e-21
2.26056e-21
9.31058e-22
1.10211e-20
9.26602e-21
1.72269e-20
5.25904e-20
3.48518e-20
1.76805e-20
4.38288e-21
8.54499e-21
5.68522e-21
7.15867e-21
1.69681e-20
2.65989e-20
2.96904e-21
2.51286e-20
5.77821e-21
3.90439e-21
4.88001e-22
1.21989e-20
4.66399e-22
1.34669e-21
2.42324e-21
5.18333e-21
5.26921e-21
7.45882e-21
2.09327e-20
1.73658e-21
5.42791e-23
1.54652e-22
3.45274e-21
6.81239e-21
3.11707e-21
4.25715e-21
2.96548e-20
1.84514e-20
1.43192e-20
4.67623e-21
1.26094e-20
3.26965e-20
1.25639e-21
3.52634e-21
3.03188e-22
7.60477e-21
3.33841e-21
7.25515e-21
4.34832e-21
3.34469e-20
3.29373e-20
1.79246e-21
4.63848e-21
3.04886e-21
1.7368e-20
4.33276e-21
3.69439e-20
5.43858e-21
4.98746e-21
4.97427e-21
3.04766e-20
3.31707e-21
7.56392e-21
1.95345e-20
3.33216e-21
1.28279e-21
1.32753e-20
3.46248e-20
1.57635e-20
6.12215e-22
2.38057e-20
3.44114e-21
8.50607e-22
1.3128e-20
1.17255e-20
6.69328e-21
1.66964e-20
9.62537e-21
1.39424e-20
8.21064e-21
3.26169e-21
7.64802e-22
2.43916e-22
6.62888e-22
1.97832e-20
2.64427e-20
4.30147e-21
1.18086e-20
3.11819e-20
2.11316e-20
1.53595e-20
2.70726e-20
5.98304e-22
9.1579e-22
4.98327e-22
1.07429e-20
1.05668e-20
1.19174e-20
7.53058e-21
1.9072e-20
4.28057e-21
1.42456e-21
1.52853e-20
3.40403e-21
2.02624e-20
1.17512e-21
2.13022e-20
3.95492e-21
1.70125e-20
4.26936e-20
1.55491e-20
1.12467e-20
8.74252e-21
1.14498e-21
3.44228e-20
3.81674e-21
8.40095e-20
2.89303e-20
2.49121e-21
1.03076e-21
2.65701e-20
4.5079e-21
1.75408e-20
3.47916e-21
1.28551e-21
3.03932e-22
4.02214e-22
3.88236e-20
1.04549e-21
7.38329e-21
1.44591e-20
1.299e-20
1.91749e-20
3.79412e-20
1.34427e-20
1.84036e-20
3.3385e-20
9.14491e-21
6.46306e-21
9.37271e-21
1.04523e-20
6.39996e-21
4.387e-21
2.35573e-20
5.48512e-21
3.2524e-22
7.47713e-22
3.58517e-21
2.85627e-21
3.10528e-20
3.43723e-21
2.88415e-20
1.32423e-20
1.71665e-21
2.1636e-20
2.52644e-21
1.08205e-20
1.37893e-22
1.13696e-20
9.10245e-21
1.27061e-20
1.1503e-21
6.01294e-20
3.11157e-20
3.40369e-21
3.38439e-20
2.39166e-21
9.56828e-22
2.92519e-20
1.23335e-20
1.12321e-20
2.93437e-21
7.03663e-22
7.6765e-21
1.85655e-21
3.74499e-21
4.80087e-21
2.12486e-20
1.15236e-20
3.16246e-22
1.45748e-20
1.41622e-20
1.51282e-21
1.16639e-20
1.70768e-20
2.21699e-20
2.62174e-20
6.76741e-21
2.55878e-20
2.19979e-20
1.40148e-20
1.46033e-20
3.48997e-20
2.64424e-20
7.22054e-21
1.81484e-21
1.28021e-20
2.67574e-20
5.37252e-22
1.59902e-20
4.61552e-21
8.36263e-21
1.5381e-20
2.19534e-20
1.06432e-21
7.44368e-21
1.23958e-20
1.48243e-20
2.83989e-21
6.99376e-22
1.21171e-21
4.11287e-20
1.97379e-20
7.43213e-20
1.56255e-21
1.60699e-20
1.91613e-22
3.27909e-22
2.75185e-20
2.58297e-21
4.71295e-21
4.7294e-21
2.90267e-21
1.8055e-20
1.53662e-21
1.09877e-20
1.79445e-20
1.19878e-20
4.10627e-21
1.07242e-22
2.56753e-20
2.23666e-20
1.63105e-20
1.13294e-20
1.15759e-20
3.0724e-20
5.18704e-20
3.65567e-21
2.39879e-21
1.16375e-20
1.23923e-20
8.27417e-22
1.59751e-21
1.45732e-20
2.33062e-20
2.49603e-21
2.31448e-20
1.80975e-20
1.5326e-20
1.41705e-20
8.3717e-21
5.17366e-21
4.07244e-20
1.92732e-20
9.27846e-21
1.07809e-20
4.37033e-21
4.17267e-21
1.52467e-20
2.55618e-20
5.65608e-22
6.31424e-20
2.39639e-20
8.10241e-22
7.00067e-21
6.7724e-21
1.12822e-20
8.41189e-21
1.16195e-20
1.51239e-21
4.66744e-21
3.25619e-21
4.01244e-21
1.85963e-20
2.08313e-21
3.23216e-21
9.76723e-22
5.83331e-21
1.6258e-21
3.80006e-21
2.50595e-20
1.28913e-20
2.76309e-21
1.47316e-20
2.42332e-20
1.00705e-20
6.64917e-21
9.83035e-21
4.70787e-21
7.39187e-21
4.89485e-21
1.14068e-20
5.3247e-21
1.10516e-20
9.55105e-22
3.27453e-20
3.07417e-20
3.54363e-20
2.13817e-20
2.52247e-20
2.55999e-20
8.73333e-21
1.01806e-20
3.15557e-20
4.31666e-21
1.42594e-20
7.76657e-21
1.80754e-20
7.97029e-21
6.64003e-22
4.55771e-21
5.52629e-21
6.94884e-21
1.7297e-20
1.58327e-21
2.07589e-21
6.55001e-21
1.49406e-20
2.81068e-21
7.48699e-22
4.86926e-21
2.63484e-20
2.24824e-21
2.09353e-21
1.65106e-20
8.36809e-21
5.77553e-21
2.09734e-20
3.28059e-21
3.84064e-20
1.16038e-21
1.06848e-20
8.48539e-21
2.67986e-21
3.9323e-21
1.92818e-21
3.89518e-21
3.36967e-20
1.22848e-20
1.71756e-20
5.49009e-21
1.58201e-20
9.55096e-21
2.89614e-21
2.3716e-20
1.71998e-21
6.71783e-21
1.80461e-20
1.56516e-20
5.63668e-21
2.42156e-20
3.82288e-20
4.79613e-21
3.54518e-20
3.01844e-20
9.21646e-21
7.79284e-21
7.57354e-21
1.26626e-20
2.81973e-21
3.09222e-20
9.99117e-21
2.86211e-20
6.69873e-22
1.98862e-20
3.41981e-21
4.57322e-21
1.62701e-20
2.87666e-21
5.02484e-21
2.1472e-21
1.62784e-20
5.41359e-21
3.66616e-20
1.16919e-20
1.08578e-20
4.03749e-21
7.22351e-21
2.36494e-21
2.23002e-21
1.50976e-20
4.54292e-21
4.27573e-21
1.95235e-20
3.9552e-20
2.55849e-21
3.92754e-21
5.97543e-21
5.91069e-21
6.4698e-21
2.20696e-20
1.16088e-21
1.04591e-20
3.36941e-21
1.12839e-20
4.45349e-21
2.06285e-20
3.25681e-20
4.30048e-21
1.7607e-20
1.03118e-20
1.07251e-21
1.50267e-20
1.60248e-20
1.01787e-21
2.01041e-20
9.58803e-21
1.14746e-20
1.37212e-20
2.61255e-20
1.34506e-20
4.90418e-21
4.00062e-22
4.49963e-21
3.94022e-21
2.24707e-21
3.51725e-20
1.3473e-20
5.71278e-21
1.23834e-21
1.45192e-20
1.7713e-20
1.27905e-22
2.17817e-21
1.83687e-20
1.88117e-20
2.72463e-20
8.11287e-22
4.57222e-21
4.32937e-21
8.39316e-21
2.39003e-22
2.39651e-21
2.11122e-20
1.08857e-20
1.23252e-20
5.01128e-22
6.3513e-21
1.2343e-21
1.32421e-22
4.31253e-21
3.07982e-20
6.90183e-20
3.10244e-21
2.05492e-20
2.90859e-21
6.02732e-22
7.37669e-21
1.1697e-21
2.14949e-20
5.43137e-21
2.41816e-20
2.58265e-20
5.60347e-21
1.23473e-20
5.63911e-21
7.67872e-21
6.91981e-21
3.39601e-21
1.00984e-20
2.17876e-21
1.5046e-20
2.25479e-20
1.23961e-20
1.03639e-20
2.16443e-21
2.34794e-20
2.04277e-20
2.38616e-21
1.45386e-20
4.19165e-21
3.66488e-22
1.0622e-20
9.44004e-21
4.24099e-21
4.31843e-21
1.87603e-21
4.21774e-20
1.94702e-21
1.05688e-20
6.4536e-21
8.04051e-21
7.88997e-21
5.3986e-22
1.42128e-20
8.65883e-21
1.18926e-21
3.84574e-21
6.45203e-21
1.01978e-20
2.71899e-21
1.73245e-21
6.09973e-21
9.36291e-21
9.8593e-22
2.50692e-21
2.64188e-21
1.12639e-21
1.03674e-20
1.31307e-21
4.72401e-21
5.57488e-20
7.74994e-21
1.01572e-20
1.5504e-20
1.4206e-20
1.19322e-22
7.5601e-22
1.31682e-20
1.7557e-20
2.26492e-21
1.3136e-21
1.84981e-20
2.45447e-20
8.73734e-21
4.35566e-21
5.93293e-20
5.03932e-21
1.36911e-20
3.49582e-20
1.47118e-21
1.21222e-21
1.09506e-20
8.39967e-21
1.7772e-20
3.71828e-21
5.72735e-21
2.11701e-21
1.53399e-20
1.14034e-20
2.75913e-21
9.13253e-21
1.62056e-20
3.15058e-20
1.02462e-20
4.26534e-21
1.13752e-20
3.97458e-21
1.06604e-21
5.34483e-21
6.58075e-21
3.32068e-20
1.14465e-20
1.44516e-20
2.35956e-21
4.54363e-21
1.63548e-20
8.5787e-21
1.69035e-20
4.49619e-20
2.52192e-20
5.31037e-21
2.87634e-21
3.03369e-21
1.44267e-20
4.84306e-20
6.52525e-21
3.83551e-21
1.98655e-20
2.42501e-20
3.61348e-20
9.52233e-21
1.95202e-21
9.30864e-21
1.79359e-20
6.27574e-21
1.96839e-20
2.43956e-20
1.16081e-20
2.69245e-21
6.24137e-21
6.92633e-21
1.41639e-20
1.56748e-20
6.5807e-20
2.62674e-20
2.10727e-20
1.09132e-20
4.78264e-22
4.11983e-21
2.21912e-20
2.23979e-20
1.57912e-21
1.39412e-20
7.32654e-21
5.68114e-21
8.90001e-21
5.43571e-21
8.91808e-21
5.77523e-21
9.08918e-21
3.70417e-20
2.34055e-21
1.84865e-21
7.03409e-21
6.17611e-22
5.87466e-22
3.2903e-22
1.04994e-21
1.88021e-20
5.15435e-21
3.5111e-20
2.97163e-21
6.44285e-21
1.60551e-20
5.1385e-21
3.10775e-20
5.1716e-20
2.55552e-21
3.62163e-21
4.89993e-20
5.83701e-20
2.3392e-20
4.51978e-21
7.65315e-21
1.60089e-21
3.41158e-20
5.17574e-21
1.96554e-20
5.642e-21
8.34658e-21
6.3587e-20
1.26876e-20
1.28219e-21
2.4036e-21
6.41673e-21
4.01732e-22
7.99912e-21
1.4242e-20
1.0267e-21
5.11964e-21
1.88373e-20
1.46681e-20
1.76736e-20
5.65205e-20
3.1059e-20
2.17862e-21
1.05437e-20
4.92982e-20
3.11996e-20
2.03697e-20
4.08295e-21
9.84938e-22
6.03962e-21
4.31569e-21
1.85786e-20
2.71563e-21
4.45037e-21
1.47135e-20
4.51782e-21
6.30141e-22
5.41235e-22
3.9738e-21
3.33154e-20
7.26782e-22
1.22769e-20
6.97038e-21
1.15438e-20
1.24413e-21
5.67643e-21
3.1056e-20
2.00048e-20
1.43073e-20
1.65004e-20
4.57198e-21
6.90082e-21
1.63998e-20
6.69022e-21
9.47035e-21
5.03574e-20
2.64841e-20
2.9103e-20
1.29439e-20
1.10428e-21
4.76783e-21
1.15165e-20
8.15149e-21
1.72363e-20
4.48832e-21
2.65515e-21
3.00665e-20
6.78097e-20
2.20182e-20
2.18927e-20
6.06183e-20
2.02403e-20
4.66494e-20
4.97043e-20
2.84453e-21
3.23539e-20
2.62372e-20
5.9419e-21
8.44986e-21
1.43412e-20
1.51321e-21
3.37864e-20
1.46305e-20
1.66471e-20
5.58927e-20
2.21389e-20
3.33225e-20
7.0389e-21
2.40762e-22
1.24531e-20
3.89253e-21
4.3884e-21
9.22871e-21
4.60792e-21
6.13383e-21
7.14254e-21
2.43119e-20
1.27867e-21
2.43213e-21
5.17203e-21
1.55652e-20
1.33708e-21
5.86865e-21
5.19519e-21
2.70516e-21
8.51564e-21
1.36103e-20
5.2254e-21
1.65953e-20
6.14097e-21
1.20509e-20
3.76729e-20
4.06537e-20
9.91538e-21
4.40873e-21
6.2903e-21
8.23511e-21
1.83981e-21
1.04181e-20
1.85721e-21
2.8753e-21
4.70106e-20
2.22874e-21
1.48977e-20
3.06957e-21
1.40248e-20
3.8104e-21
7.54401e-22
1.31203e-21
9.06173e-21
3.14643e-21
1.40318e-20
1.62147e-20
1.33836e-21
5.47227e-22
8.62497e-21
4.47309e-21
1.15871e-20
1.61626e-20
1.57349e-20
2.55347e-21
9.92507e-22
6.96293e-21
6.13493e-22
7.52714e-22
2.63391e-21
2.94826e-20
6.21801e-21
1.01744e-20
2.57224e-20
2.0303e-20
5.89223e-21
8.11153e-21
5.00861e-21
1.671e-20
5.15102e-21
5.77501e-21
1.47426e-20
6.60199e-21
3.69158e-20
2.30426e-20
2.40668e-21
2.2409e-23
7.71398e-21
3.291e-20
1.33027e-21
3.907e-20
8.22536e-21
5.56738e-21
6.43595e-21
2.32165e-20
3.95312e-22
6.01141e-21
1.36089e-20
8.56352e-21
8.02751e-22
1.19059e-20
6.87531e-21
1.0193e-20
2.69323e-20
9.64476e-22
3.47707e-20
7.53355e-21
1.79544e-20
8.88271e-21
4.78321e-21
3.22301e-20
2.55241e-20
7.85823e-21
8.63858e-21
2.40804e-20
5.92609e-21
1.49659e-20
1.64753e-20
8.37554e-21
8.79846e-22
1.91988e-20
5.63374e-20
4.87356e-20
2.50279e-20
9.88428e-21
4.75477e-20
2.30551e-22
6.3996e-21
1.51312e-20
3.2152e-20
2.59527e-21
1.08632e-20
5.80462e-21
7.86947e-21
4.32112e-20
5.6773e-21
1.36424e-21
2.41256e-20
3.95409e-20
1.09852e-20
1.76531e-21
8.88778e-21
2.46168e-20
2.01332e-22
3.18057e-20
1.06927e-20
2.25955e-20
1.18453e-21
2.42438e-20
2.44718e-21
7.72148e-22
5.19966e-21
3.45591e-21
3.25722e-23
5.25472e-20
5.64989e-21
8.40163e-21
2.461e-20
3.86376e-21
2.8771e-20
5.49523e-21
3.85059e-21
5.47705e-21
2.63455e-21
5.38868e-21
1.03299e-20
1.5387e-20
1.77703e-20
7.53065e-21
8.58969e-21
3.26305e-21
1.3689e-20
2.32131e-22
3.65933e-21
1.85575e-21
1.61737e-20
1.63691e-20
1.03828e-20
1.0339e-20
9.26054e-21
1.04319e-20
7.50881e-21
6.50716e-21
2.78413e-20
1.93879e-20
4.09263e-21
5.15169e-21
2.54259e-21
3.13327e-21
1.36583e-20
1.39636e-20
3.35326e-21
1.08506e-20
5.98952e-23
2.98339e-20
7.80028e-21
5.4629e-21
5.77201e-21
1.11072e-20
5.26926e-21
6.81794e-21
2.08192e-20
3.98606e-20
7.06125e-21
5.72719e-21
5.94659e-21
2.27167e-20
4.18346e-21
2.0211e-23
2.93576e-21
2.87027e-21
2.6099e-20
1.14703e-21
1.13273e-21
4.84134e-21
2.12844e-20
7.83617e-21
4.23266e-20
3.64963e-20
7.19166e-21
2.0249e-20
7.16437e-21
7.3302e-21
1.32724e-22
6.55356e-21
3.35633e-21
4.44941e-20
1.87332e-20
9.38169e-21
3.42137e-21
2.50802e-21
1.84701e-20
1.90882e-21
2.65541e-21
7.88189e-21
2.04868e-20
1.01698e-20
2.80391e-20
5.77006e-20
7.74675e-21
2.61187e-20
6.27563e-21
7.1735e-21
7.30394e-21
1.90869e-20
5.24142e-24
2.72752e-21
8.5127e-21
6.29604e-20
3.44057e-20
4.53685e-21
1.52816e-20
3.42329e-21
1.47335e-21
1.06264e-21
1.65479e-21
1.1764e-21
9.13636e-21
1.85757e-20
1.47525e-20
1.51055e-21
5.29978e-21
3.41839e-21
8.52868e-22
9.28814e-21
3.19114e-20
3.57827e-20
2.4614e-20
3.91694e-20
7.75093e-21
2.68875e-21
6.44978e-21
2.49555e-20
3.37363e-20
2.94806e-20
2.26915e-20
4.22501e-21
2.10817e-20
4.56164e-21
1.03638e-20
1.61722e-20
1.62102e-20
1.08283e-20
9.58849e-20
1.32928e-20
1.43323e-20
9.88903e-21
6.47031e-21
7.73722e-21
1.2278e-20
1.81781e-20
1.20823e-20
9.10159e-21
1.21389e-20
1.15079e-21
1.44487e-20
5.29863e-21
7.90245e-21
1.79996e-21
3.07552e-21
1.08066e-20
1.47961e-21
1.09873e-21
5.56214e-21
1.65265e-20
1.04891e-20
7.66095e-20
3.30018e-20
3.76751e-21
1.7306e-21
6.20452e-20
2.64501e-20
4.18485e-21
2.68763e-20
1.21788e-21
5.00565e-21
7.38602e-21
1.58526e-20
3.82644e-22
1.13309e-20
9.58178e-22
5.12977e-20
1.80275e-20
7.91044e-21
2.31497e-20
2.41661e-20
1.03007e-20
1.19668e-21
3.63413e-21
1.86896e-20
2.41284e-21
5.25158e-21
5.06978e-22
8.24092e-21
1.5971e-20
2.11659e-20
1.19314e-20
1.18053e-21
4.6352e-21
1.95318e-21
1.21673e-22
2.9092e-23
3.04606e-21
8.68486e-21
8.38961e-21
1.42094e-21
1.39107e-20
9.42878e-21
1.58781e-20
4.98739e-21
1.61419e-20
1.24014e-20
9.29533e-21
2.34494e-22
1.69113e-21
1.38247e-20
1.12871e-20
2.71004e-20
8.41482e-22
2.45574e-20
1.76343e-22
2.25181e-20
5.45823e-21
2.25879e-20
1.57794e-21
1.46533e-20
4.13837e-21
1.64963e-20
2.65264e-20
1.23647e-20
1.57518e-21
6.63334e-21
4.60375e-20
6.16591e-21
8.74882e-21
3.99638e-21
7.9445e-21
1.38791e-20
1.36714e-20
8.04863e-21
9.89e-21
1.47997e-20
2.51512e-20
1.41527e-20
2.144e-20
1.06286e-20
5.83275e-20
1.28198e-20
2.00921e-20
2.66595e-20
2.03908e-20
5.5674e-21
5.87502e-24
1.18467e-21
7.55495e-20
1.18499e-20
5.24163e-21
8.91693e-21
5.76471e-21
3.14585e-20
4.11184e-21
1.04144e-20
6.26087e-21
2.95621e-21
4.72419e-21
7.6011e-21
2.15675e-20
4.31748e-21
2.54171e-20
9.88587e-21
1.72711e-21
2.63039e-20
6.6893e-21
1.55487e-21
2.29389e-20
4.79579e-22
2.35603e-21
1.16712e-19
1.06546e-21
7.62512e-21
7.608e-21
1.55278e-20
1.33732e-20
7.70276e-21
6.14668e-21
1.78495e-21
2.30934e-21
2.32864e-21
1.95692e-21
4.53605e-21
9.3656e-21
2.25175e-22
2.87395e-21
2.22127e-20
1.83481e-20
5.08656e-21
7.65391e-21
1.22262e-20
1.67789e-21
2.39698e-20
5.09802e-21
5.53244e-21
1.47349e-20
1.66139e-20
5.73783e-21
3.32942e-22
7.17925e-21
8.56606e-21
2.09161e-20
2.67292e-20
4.92262e-20
1.96668e-21
2.4382e-21
1.67651e-20
1.00463e-20
5.35579e-21
1.67376e-20
3.58398e-21
5.56562e-21
5.75024e-21
1.86757e-21
1.2398e-20
1.21275e-20
1.89267e-20
1.41382e-20
7.7842e-21
8.93859e-21
9.79498e-21
6.16042e-20
7.12242e-21
1.00575e-20
4.10326e-20
1.01013e-21
4.27343e-20
3.83409e-20
1.83004e-20
2.80506e-20
2.53456e-20
9.35885e-21
6.62744e-21
2.09985e-20
3.41384e-21
6.32501e-21
1.23357e-22
5.06773e-21
1.01708e-20
1.40016e-20
4.40751e-21
4.52038e-20
7.13063e-21
7.46678e-20
1.43341e-20
2.27253e-20
2.91615e-20
1.26514e-20
3.10247e-21
7.83592e-21
4.91598e-21
4.3478e-20
9.5629e-22
3.07951e-21
2.08644e-20
8.61786e-21
3.35035e-21
5.29555e-20
1.75387e-21
1.13994e-20
3.16481e-20
2.28784e-20
2.53886e-21
2.97419e-20
1.33646e-20
2.89691e-21
3.06779e-21
8.01464e-21
8.90202e-21
1.48402e-20
1.52064e-21
4.78891e-23
2.69573e-22
9.30125e-21
1.74262e-20
9.76884e-22
1.75868e-21
8.6524e-21
8.79099e-21
1.41042e-20
1.00429e-20
2.32158e-21
1.94871e-21
1.34596e-20
3.02399e-21
2.55355e-20
3.14643e-20
6.66242e-21
1.48377e-20
5.59384e-21
1.56647e-20
7.59553e-21
3.24241e-21
4.07692e-21
3.19781e-20
1.0907e-21
1.80917e-21
6.42734e-21
3.32238e-20
1.70509e-20
1.79109e-20
2.16609e-20
6.26327e-22
1.07823e-20
2.14563e-20
1.34963e-20
3.44662e-20
4.62067e-22
2.32372e-21
2.16125e-20
3.73808e-21
3.96285e-20
1.99549e-20
2.24216e-20
3.49789e-21
2.52638e-20
6.21637e-21
3.617e-21
1.37895e-20
8.91121e-21
2.34947e-20
2.3077e-20
3.85567e-21
2.36307e-20
1.18566e-20
1.53619e-20
3.01308e-20
1.03221e-20
1.93155e-21
8.98419e-21
1.10176e-22
4.629e-21
7.02988e-23
7.09487e-21
2.10781e-20
4.53894e-20
1.29407e-21
6.60223e-21
5.38503e-21
1.72774e-20
1.6952e-20
1.01479e-20
1.62141e-21
2.08043e-20
2.21754e-20
1.31512e-20
2.7283e-20
4.87291e-20
5.94444e-21
1.50085e-20
1.28235e-20
1.22614e-21
2.49968e-20
4.83642e-22
1.41733e-20
1.05609e-20
1.13769e-20
1.30496e-21
6.86275e-21
6.38743e-21
1.86079e-20
8.23726e-21
7.10619e-21
4.55782e-21
2.20161e-20
7.2026e-21
1.02532e-20
9.49389e-21
3.0526e-20
6.54348e-22
1.47792e-20
6.33401e-21
3.81843e-20
5.64228e-22
2.47647e-20
5.92416e-21
8.40198e-21
1.28558e-20
4.42727e-21
2.39734e-20
5.30869e-21
3.94417e-20
3.20266e-20
8.56602e-21
1.7592e-20
3.06802e-21
1.33278e-20
5.81416e-21
1.07529e-20
2.22373e-20
8.11167e-21
2.42243e-20
5.96443e-21
6.08885e-21
5.2459e-21
4.69126e-21
1.97249e-20
1.13208e-20
1.74735e-20
8.52329e-21
1.24598e-20
9.26145e-21
4.89097e-20
1.36571e-20
3.8626e-21
3.84174e-20
3.88769e-21
3.59487e-21
1.16276e-20
1.49637e-20
6.42528e-21
6.02472e-21
4.80063e-21
1.85899e-20
1.26736e-20
9.00916e-21
1.07809e-20
1.25162e-20
1.11086e-20
5.19423e-21
5.6784e-21
1.63275e-21
8.14954e-21
8.50486e-21
1.17737e-23
1.04268e-20
8.83559e-21
8.68154e-21
8.33503e-21
1.0489e-21
5.20943e-21
3.73882e-21
6.53073e-21
3.03284e-20
5.48875e-20
1.52633e-22
7.63061e-22
1.17227e-20
1.07663e-20
1.99976e-20
1.0703e-21
3.44432e-20
9.36647e-21
3.42472e-20
3.19034e-21
1.54746e-20
4.05638e-21
9.54226e-21
5.1709e-20
4.24289e-23
1.7196e-21
1.26237e-21
7.62344e-21
3.758e-20
5.93724e-21
3.98558e-20
2.67569e-21
3.96921e-20
5.21027e-21
2.81859e-20
5.94179e-21
1.7632e-20
1.61953e-20
3.64703e-20
7.0597e-21
3.38495e-21
9.63481e-21
3.74212e-20
2.70799e-20
1.79896e-21
6.06519e-21
7.70212e-20
3.44188e-21
5.77599e-21
1.58915e-20
1.16502e-20
6.7388e-21
4.96983e-21
1.58782e-20
3.08801e-21
9.72792e-21
1.78461e-20
8.66385e-21
1.16106e-20
2.48831e-20
6.82211e-21
7.53652e-21
1.58394e-20
1.27469e-21
3.30911e-22
6.79595e-21
2.76273e-20
5.21377e-21
7.35734e-21
2.60966e-20
3.77948e-21
1.24759e-20
2.18234e-20
1.12139e-22
1.74782e-20
7.5027e-21
2.93322e-20
2.25467e-20
1.81897e-20
9.17276e-21
1.68764e-21
1.38843e-20
1.179e-20
1.17851e-20
8.57539e-21
5.31271e-21
2.98838e-20
1.49693e-20
3.50622e-21
3.31199e-21
4.63057e-21
7.40311e-21
1.3113e-20
2.63954e-20
7.00231e-21
2.38541e-20
1.7209e-20
1.58746e-21
9.69874e-21
1.98705e-20
1.95141e-20
5.67269e-22
1.1075e-20
2.19724e-20
2.09142e-21
8.47842e-21
7.83569e-21
1.2251e-20
2.1957e-22
2.00122e-20
1.24527e-22
1.60892e-20
1.13926e-21
8.76346e-21
4.90763e-21
2.22344e-21
1.79917e-20
1.60196e-20
1.61873e-20
7.94074e-21
1.59566e-20
3.27991e-20
1.9428e-21
5.40175e-21
2.91108e-21
1.92957e-21
4.02923e-21
8.24192e-21
4.63532e-20
1.79518e-21
2.92049e-21
1.40555e-20
2.94267e-21
3.88378e-20
1.45542e-21
1.92958e-20
5.30714e-21
3.60194e-20
2.68406e-21
3.20866e-20
6.25146e-21
2.38252e-20
2.96844e-21
7.39416e-21
5.9471e-21
9.49307e-21
4.58333e-21
3.22214e-20
1.9272e-20
7.39316e-21
1.42532e-20
3.42951e-20
1.2989e-20
2.59513e-21
1.20809e-21
1.19062e-20
1.91608e-20
6.41826e-21
1.39021e-21
6.71343e-21
8.12752e-21
2.60479e-21
4.40523e-21
5.76655e-21
3.5059e-20
1.77428e-20
6.68103e-21
2.81102e-21
1.51144e-20
9.32019e-22
2.54314e-20
7.69968e-21
1.6832e-20
8.85127e-21
1.00814e-21
3.05125e-22
1.56816e-20
1.69298e-20
8.35645e-21
7.52444e-21
2.50348e-20
1.03279e-20
1.00144e-20
1.19905e-21
3.8117e-21
2.24114e-20
1.50034e-20
1.54358e-20
3.35116e-20
8.27441e-21
8.70527e-21
3.48496e-21
2.47679e-20
1.4103e-20
3.95578e-21
1.74978e-20
2.29095e-20
4.90106e-22
1.41288e-20
1.83334e-20
3.94104e-21
1.41754e-20
1.32682e-20
3.24648e-21
3.90683e-21
5.13419e-21
1.21437e-20
1.02063e-20
1.08075e-20
3.00067e-21
4.46036e-21
1.40052e-21
2.76801e-20
1.22181e-20
7.88276e-21
6.79054e-21
2.05736e-20
1.65327e-21
5.03672e-21
7.11711e-21
2.38773e-20
1.83566e-21
2.10901e-21
1.21328e-20
2.21374e-21
4.85114e-21
7.93646e-22
4.46743e-21
8.69357e-21
2.52425e-21
1.06989e-21
1.17643e-21
2.72209e-20
1.46728e-20
2.86766e-21
1.26865e-20
1.13713e-20
5.32874e-21
3.24915e-21
1.1989e-21
9.71803e-22
2.52661e-20
8.50486e-21
1.46786e-22
2.89381e-20
5.33202e-21
1.47743e-21
3.02609e-22
8.95627e-22
2.59186e-21
2.8199e-22
1.41684e-20
1.24582e-21
1.01281e-20
3.16988e-21
2.76541e-20
4.58923e-21
4.29818e-22
2.68483e-20
8.66771e-22
1.31936e-20
4.14307e-20
7.54382e-21
1.14445e-21
2.00257e-20
1.06955e-20
1.77999e-20
5.10833e-21
1.08521e-21
6.04359e-21
2.52778e-20
4.46174e-20
9.12245e-21
3.82651e-21
2.92509e-21
1.93759e-20
5.09327e-21
1.06661e-20
5.32911e-21
1.12053e-20
1.51236e-20
2.53421e-21
1.54175e-21
1.10613e-20
7.5879e-21
3.52403e-21
1.46821e-20
4.35796e-21
1.14361e-21
9.22888e-21
5.295e-21
2.18809e-20
3.99327e-21
9.31686e-21
5.97994e-21
2.19841e-20
1.72786e-21
4.46221e-21
1.85481e-20
7.89757e-22
1.54174e-20
1.22204e-20
4.52511e-20
2.37121e-20
4.14365e-21
3.16722e-21
1.46595e-20
1.57752e-20
1.23921e-20
9.51453e-21
2.77704e-21
2.72992e-20
1.63989e-20
5.57431e-21
7.54861e-21
8.83424e-21
3.12345e-20
2.38666e-20
1.54967e-21
2.59047e-20
1.0173e-21
1.96167e-22
7.57504e-21
4.68496e-20
1.38214e-20
1.85118e-21
1.18023e-20
2.66644e-20
5.78953e-22
7.67033e-21
1.59426e-20
1.60166e-20
1.89089e-21
2.9394e-23
6.40945e-21
2.34369e-20
1.683e-20
1.25552e-20
3.13684e-20
3.76109e-22
5.80415e-21
9.54147e-21
2.03767e-21
1.14107e-20
4.43942e-21
2.48127e-21
5.5373e-21
1.33116e-21
1.65441e-20
1.42351e-20
3.55878e-22
2.81277e-21
1.03199e-20
1.10401e-20
2.9386e-20
6.02651e-20
2.58831e-21
1.80483e-21
3.44286e-22
1.50787e-20
2.8385e-21
6.31695e-22
7.09923e-21
1.37988e-20
5.51583e-21
6.42093e-21
1.6725e-20
1.75212e-20
3.75004e-20
4.03448e-21
1.92591e-20
1.31937e-20
2.2149e-20
1.14516e-20
4.7205e-21
7.26664e-22
5.6206e-21
2.91106e-20
5.09529e-21
1.91358e-20
8.76998e-21
1.65088e-20
7.81664e-21
2.49944e-20
3.17371e-21
1.42582e-20
1.81066e-20
3.98419e-21
3.26553e-20
8.97631e-21
3.7619e-20
1.3709e-20
3.4483e-20
5.18e-21
5.81979e-21
2.91507e-20
1.49195e-20
4.2223e-21
5.00453e-21
2.33405e-20
2.01161e-21
6.2198e-22
9.63359e-21
4.88106e-20
6.80196e-21
2.30848e-21
1.61896e-20
2.06337e-20
9.23711e-21
1.1717e-20
1.61892e-20
1.40117e-20
8.75402e-22
1.3833e-20
4.91273e-20
2.74798e-21
1.76229e-20
1.25957e-21
5.78067e-21
6.06196e-21
9.37622e-21
1.6614e-21
3.45846e-21
2.40486e-20
6.17668e-21
2.34143e-21
1.10287e-21
1.16862e-20
1.18397e-20
1.70814e-20
8.82248e-21
1.33615e-20
1.66273e-20
5.67134e-21
3.01949e-21
2.56634e-20
1.23169e-21
5.63138e-21
9.09559e-20
6.63348e-21
4.85096e-21
1.54972e-21
4.48273e-21
1.4159e-21