/*--------------------------------*- C++ -*----------------------------------*\
  =========                 |
  \\      /  F ield         | OpenFOAM: The Open Source CFD Toolbox
   \\    /   O peration     | Website:  https://openfoam.org
    \\  /    A nd           | Version:  7
     \\/     M anipulation  |
\*---------------------------------------------------------------------------*/
FoamFile
{
    version     2.0;
    format      ascii;
    class       Cloud<dsmcParcel>;
    location    "0.0018/lagrangian/dsmc";
    object      positions;
}
// * * * * * * * * * * * * * * * * * * * * * * * * * * * * * * * * * * * * * //

25329
(
(0.13847 0.430765 0.430765 0) 1 0 1
(0.619619 0.190191 0.190191 0) 5 4 1
(0.411096 0.294452 0.294452 0) 1 0 1
(0.699483 0.150259 0.150259 0) 7 6 1
(0.795661 0.10217 0 0.10217) 4 4 1
(0.363011 0.318494 0 0.318494) 5 5 1
(0.327628 0.336186 0.336186 0) 7 7 2
(0.735826 0.132087 0 0.132087) 5 5 1
(0.766783 0.116609 0.116609 0) 2 2 2
(0.956205 0.0218975 0.0218975 0) 3 3 2
(0.704055 0.147973 0.147973 0) 3 3 2
(0.854466 0.0727672 0.0727672 0) 8 8 2
(0.687082 0.156459 0.156459 0) 7 7 2
(0.993506 0.00324718 0.00324718 0) 4 3 1
(0.721341 0.13933 0 0.13933) 3 3 1
(0.418575 0.290713 0.290713 0) 4 3 1
(0.840813 0.0795933 0.0795933 0) 3 2 1
(0.78107 0.109465 0 0.109465) 6 5 2
(0.948101 0.0259493 0.0259493 0) 4 4 2
(0.887822 0.056089 0.056089 0) 2 1 1
(0.851624 0.074188 0 0.074188) 9 9 1
(0.551651 0.224175 0.224175 0) 3 2 1
(0.183108 0.408446 0.408446 0) 3 2 1
(0.912227 0.0438864 0.0438864 0) 2 1 1
(0.114414 0.442793 0.442793 0) 3 2 1
(0.33239 0.333805 0.333805 0) 0 624 2
(0.620934 0.189533 0 0.189533) 2 2 1
(0.109479 0.445261 0.445261 0) 3 3 2
(0.412413 0.293794 0 0.293794) 3 3 1
(0.865546 0.0672269 0.0672269 0) 3 2 1
(0.206276 0.396862 0 0.396862) 7 6 2
(0.887093 0.0564536 0.0564536 0) 7 6 1
(0.268987 0.365506 0.365506 0) 5 4 1
(0.0288153 0.485592 0.485592 0) 9 8 1
(0.384276 0.307862 0.307862 0) 3 2 1
(0.0123189 0.493841 0 0.493841) 7 6 2
(0.130384 0.434808 0 0.434808) 4 3 2
(0.77527 0.112365 0.112365 0) 2 1 1
(0.996606 0.00169707 0.00169707 0) 11 10 1
(0.084007 0.457997 0.457997 0) 5 5 2
(0.418314 0.290843 0.290843 0) 5 4 1
(0.265489 0.367255 0 0.367255) 4 3 2
(0.640708 0.179646 0.179646 0) 7 7 2
(0.982217 0.0088916 0 0.0088916) 5 4 2
(0.382746 0.308627 0 0.308627) 5 4 2
(0.890505 0.0547477 0 0.0547477) 8 8 1
(0.979268 0.0103658 0.0103658 0) 3 3 2
(0.0595517 0.470224 0.470224 0) 3 3 2
(0.422057 0.288971 0.288971 0) 1 1 2
(0.22285 0.388575 0 0.388575) 8 7 2
(0.563668 0.218166 0.218166 0) 3 2 1
(0.276442 0.361779 0.361779 0) 7 6 1
(0.765106 0.117447 0 0.117447) 5 5 1
(0.844383 0.0778086 0.0778086 0) 7 6 1
(0.493439 0.253281 0 0.253281) 2 1 2
(0.245074 0.377463 0 0.377463) 4 3 2
(0.697384 0.151308 0.151308 0) 5 5 2
(0.800918 0.0995412 0 0.0995412) 3 2 2
(0.54542 0.22729 0.22729 0) 0 0 2
(0.924435 0.0377824 0.0377824 0) 2 2 2
(0.474743 0.262628 0.262628 0) 3 2 1
(0.0333656 0.483317 0 0.483317) 7 6 2
(0.925398 0.037301 0.037301 0) 8 8 2
(0.551015 0.224493 0 0.224493) 3 3 1
(0.221939 0.389031 0 0.389031) 3 3 1
(0.567498 0.216251 0 0.216251) 2 2 1
(0.342781 0.328609 0.328609 0) 6 5 1
(0.307685 0.346157 0.346157 0) 3 3 2
(0.580316 0.209842 0.209842 0) 4 4 2
(0.068526 0.465737 0.465737 0) 3 3 2
(0.932536 0.0337319 0.0337319 0) 1 0 1
(0.213474 0.393263 0 0.393263) 3 2 2
(0.0313997 0.4843 0 0.4843) 5 4 2
(0.406975 0.296512 0.296512 0) 3 2 1
(0.044669 0.477665 0.477665 0) 7 6 1
(0.366562 0.316719 0 0.316719) 3 3 1
(0.958983 0.0205085 0.0205085 0) 8 7 1
(0.992285 0.00385742 0 0.00385742) 6 6 1
(0.195903 0.402048 0.402048 0) 2 1 1
(0.305362 0.347319 0 0.347319) 7 7 1
(0.740743 0.129628 0 0.129628) 3 3 1
(0.63251 0.183745 0.183745 0) 1 1 2
(0.0983839 0.450808 0 0.450808) 1 0 2
(0.849299 0.0753504 0.0753504 0) 3 2 1
(0.196517 0.401741 0 0.401741) 0 624 1
(0.889104 0.055448 0.055448 0) 6 5 1
(0.885669 0.0571657 0.0571657 0) 8 8 2
(0.976898 0.011551 0.011551 0) 5 4 1
(0.23496 0.38252 0 0.38252) 4 3 2
(0.458984 0.270508 0.270508 0) 5 4 1
(0.933349 0.0333257 0 0.0333257) 4 4 1
(0.693495 0.153253 0 0.153253) 12 11 2
(0.0558743 0.472063 0 0.472063) 6 6 1
(0.49208 0.25396 0 0.25396) 8 8 1
(0.298868 0.350566 0.350566 0) 3 3 2
(0.300547 0.349727 0.349727 0) 8 7 1
(0.216639 0.39168 0 0.39168) 9 8 2
(0.475013 0.262494 0.262494 0) 4 4 2
(0.389457 0.305271 0 0.305271) 1 0 2
(0.273946 0.363027 0.363027 0) 3 2 1
(0.988709 0.00564566 0.00564566 0) 2 2 2
(0.241129 0.379436 0 0.379436) 0 0 1
(0.229012 0.385494 0.385494 0) 5 4 1
(0.663919 0.16804 0 0.16804) 8 8 1
(0.648422 0.175789 0 0.175789) 1 0 2
(0.976699 0.0116504 0.0116504 0) 2 1 1
(0.392769 0.303616 0.303616 0) 1 0 1
(0.931498 0.0342508 0 0.0342508) 9 8 2
(0.3561 0.32195 0.32195 0) 1 1 2
(0.983272 0.00836413 0 0.00836413) 4 4 1
(0.0526008 0.4737 0 0.4737) 3 2 2
(0.704632 0.147684 0 0.147684) 7 6 2
(0.465477 0.267262 0.267262 0) 7 7 2
(0.63468 0.18266 0 0.18266) 2 1 2
(0.113496 0.443252 0 0.443252) 5 5 1
(0.0948485 0.452576 0.452576 0) 3 2 1
(0.667832 0.166084 0.166084 0) 1 0 1
(0.431804 0.284098 0 0.284098) 3 3 1
(0.361349 0.319326 0 0.319326) 2 2 1
(0.391967 0.304017 0.304017 0) 2 1 1
(0.00084724 0.499576 0.499576 0) 6 5 1
(0.551214 0.224393 0.224393 0) 1 0 1
(0.542713 0.228643 0.228643 0) 1 0 1
(0.325288 0.337356 0 0.337356) 4 4 1
(0.268063 0.365969 0 0.365969) 1 1 1
(0.262989 0.368506 0 0.368506) 3 3 1
(0.307445 0.346278 0 0.346278) 5 4 2
(0.87655 0.0617249 0 0.0617249) 10 10 1
(0.587557 0.206222 0 0.206222) 7 7 1
(0.861008 0.0694962 0 0.0694962) 5 5 1
(0.823983 0.0880084 0 0.0880084) 5 5 1
(0.357557 0.321222 0.321222 0) 7 7 2
(0.874964 0.0625182 0 0.0625182) 10 9 2
(0.130808 0.434596 0.434596 0) 15 14 1
(0.502036 0.248982 0 0.248982) 6 5 2
(0.281382 0.359309 0 0.359309) 6 6 1
(0.0520653 0.473967 0.473967 0) 7 6 1
(0.29543 0.352285 0.352285 0) 7 7 2
(0.496449 0.251775 0.251775 0) 2 2 2
(0.680691 0.159654 0 0.159654) 3 2 2
(0.911375 0.0443123 0 0.0443123) 8 7 2
(0.00115561 0.499422 0 0.499422) 4 3 2
(0.119448 0.440276 0.440276 0) 7 7 2
(0.806072 0.0969642 0.0969642 0) 5 5 2
(0.0702143 0.464893 0 0.464893) 9 8 2
(0.147827 0.426087 0.426087 0) 5 5 2
(0.320053 0.339973 0.339973 0) 1 0 1
(0.0141657 0.492917 0.492917 0) 1 1 2
(0.667079 0.166461 0.166461 0) 0 0 2
(0.123153 0.438423 0 0.438423) 4 4 1
(0.261197 0.369402 0.369402 0) 4 4 2
(0.494151 0.252924 0.252924 0) 1 1 2
(0.864889 0.0675556 0 0.0675556) 15 15 1
(0.266835 0.366582 0.366582 0) 4 4 2
(0.869088 0.0654561 0 0.0654561) 6 5 2
(0.177097 0.411452 0.411452 0) 3 3 2
(0.778172 0.110914 0 0.110914) 5 4 2
(0.614417 0.192792 0 0.192792) 7 6 2
(0.745714 0.127143 0.127143 0) 4 3 1
(0.918389 0.0408055 0.0408055 0) 2 1 1
(0.419615 0.290192 0 0.290192) 2 1 2
(0.607096 0.196452 0.196452 0) 3 2 1
(0.300792 0.349604 0.349604 0) 1 0 1
(0.0663396 0.46683 0 0.46683) 7 7 1
(0.921073 0.0394635 0.0394635 0) 3 3 2
(0.34507 0.327465 0.327465 0) 4 4 2
(0.123035 0.438482 0.438482 0) 1 1 2
(0.30411 0.347945 0.347945 0) 3 3 2
(0.532233 0.233883 0.233883 0) 3 3 2
(0.19905 0.400475 0 0.400475) 5 4 2
(0.369552 0.315224 0 0.315224) 7 7 1
(0.120957 0.439521 0.439521 0) 2 2 2
(0.858345 0.0708277 0.0708277 0) 5 5 2
(0.0338976 0.483051 0.483051 0) 5 4 1
(0.205112 0.397444 0 0.397444) 5 5 1
(0.338728 0.330636 0.330636 0) 8 8 2
(0.458865 0.270567 0 0.270567) 4 3 2
(0.370298 0.314851 0.314851 0) 5 5 2
(0.631127 0.184436 0 0.184436) 6 5 2
(0.000739061 0.49963 0.49963 0) 3 3 2
(0.228461 0.38577 0 0.38577) 0 0 1
(0.557504 0.221248 0 0.221248) 10 9 2
(0.976859 0.0115705 0 0.0115705) 8 7 2
(0.267706 0.366147 0 0.366147) 1 0 2
(0.689218 0.155391 0.155391 0) 6 6 2
(0.284269 0.357866 0.357866 0) 0 0 2
(0.905359 0.0473205 0 0.0473205) 6 5 2
(0.11494 0.44253 0.44253 0) 3 2 1
(0.718301 0.140849 0 0.140849) 5 5 1
(0.579063 0.210468 0.210468 0) 2 1 1
(0.121628 0.439186 0 0.439186) 8 7 2
(0.470184 0.264908 0.264908 0) 4 3 1
(0.588105 0.205948 0.205948 0) 4 4 2
(0.58884 0.20558 0 0.20558) 0 0 1
(0.306394 0.346803 0 0.346803) 5 5 1
(0.347423 0.326289 0 0.326289) 6 5 2
(0.134264 0.432868 0 0.432868) 3 3 1
(0.963116 0.0184421 0 0.0184421) 7 7 1
(0.532734 0.233633 0.233633 0) 3 2 1
(0.61826 0.19087 0.19087 0) 6 6 2
(0.227517 0.386242 0 0.386242) 3 2 2
(0.973123 0.0134383 0 0.0134383) 9 9 1
(0.44986 0.27507 0 0.27507) 3 3 1
(0.938215 0.0308927 0.0308927 0) 3 3 2
(0.634126 0.182937 0 0.182937) 8 8 1
(0.572937 0.213532 0.213532 0) 5 4 1
(0.635766 0.182117 0.182117 0) 6 5 1
(0.373993 0.313004 0.313004 0) 6 5 1
(0.728566 0.135717 0.135717 0) 1 1 2
(0.994663 0.00266825 0.00266825 0) 7 7 2
(0.485323 0.257339 0 0.257339) 6 6 1
(0.513409 0.243295 0 0.243295) 6 6 1
(0.338118 0.330941 0 0.330941) 4 4 1
(0.385384 0.307308 0.307308 0) 8 7 1
(0.0482095 0.475895 0.475895 0) 0 0 2
(0.639158 0.180421 0 0.180421) 6 5 2
(0.22997 0.385015 0 0.385015) 4 4 1
(0.620171 0.189914 0.189914 0) 5 4 1
(0.959314 0.0203429 0 0.0203429) 1 1 1
(0.247587 0.376207 0 0.376207) 9 9 1
(0.100924 0.449538 0 0.449538) 1 0 2
(0.486454 0.256773 0 0.256773) 2 2 1
(0.410172 0.294914 0 0.294914) 7 6 2
(0.368733 0.315633 0 0.315633) 3 3 1
(0.492101 0.253949 0.253949 0) 2 1 1
(0.0391387 0.480431 0 0.480431) 4 4 1
(0.296586 0.351707 0.351707 0) 7 6 1
(0.532809 0.233595 0 0.233595) 7 6 2
(0.19293 0.403535 0 0.403535) 9 8 2
(0.639311 0.180345 0.180345 0) 5 4 1
(0.405244 0.297378 0 0.297378) 0 0 1
(0.250033 0.374984 0.374984 0) 4 4 2
(0.821504 0.0892479 0 0.0892479) 7 6 2
(0.382337 0.308832 0 0.308832) 3 2 2
(0.263055 0.368473 0.368473 0) 4 4 2
(0.11425 0.442875 0.442875 0) 2 2 2
(0.644362 0.177819 0 0.177819) 0 0 1
(0.883759 0.0581204 0 0.0581204) 10 9 2
(0.851164 0.0744181 0.0744181 0) 2 2 2
(0.857569 0.0712155 0 0.0712155) 10 9 2
(0.604106 0.197947 0.197947 0) 3 3 2
(0.0838395 0.45808 0.45808 0) 7 7 2
(0.0737838 0.463108 0 0.463108) 3 3 1
(0.509008 0.245496 0.245496 0) 9 9 2
(0.0108676 0.494566 0 0.494566) 3 2 2
(0.0924608 0.45377 0.45377 0) 4 3 1
(0.360664 0.319668 0 0.319668) 5 5 1
(0.00756737 0.496216 0.496216 0) 2 1 1
(0.0860371 0.456981 0 0.456981) 3 3 1
(0.0713716 0.464314 0 0.464314) 2 2 1
(0.438462 0.280769 0.280769 0) 9 8 1
(0.889956 0.0550221 0.0550221 0) 7 7 2
(0.859027 0.0704867 0.0704867 0) 10 9 1
(0.649209 0.175396 0 0.175396) 6 5 2
(0.944764 0.027618 0.027618 0) 7 6 1
(0.718094 0.140953 0.140953 0) 3 2 1
(0.166686 0.416657 0 0.416657) 3 3 1
(0.827086 0.086457 0.086457 0) 3 3 2
(0.962814 0.0185929 0.0185929 0) 6 6 2
(0.687297 0.156351 0 0.156351) 2 2 1
(0.286978 0.356511 0 0.356511) 5 5 1
(0.983314 0.00834293 0 0.00834293) 1 0 2
(0.79334 0.10333 0.10333 0) 2 2 2
(0.0173778 0.491311 0 0.491311) 5 4 2
(0.769539 0.11523 0 0.11523) 9 9 1
(0.29893 0.350535 0.350535 0) 4 3 1
(0.015186 0.492407 0.492407 0) 2 1 1
(0.731591 0.134204 0 0.134204) 3 3 1
(0.0191381 0.490431 0 0.490431) 8 7 2
(0.073979 0.46301 0 0.46301) 10 9 2
(0.844768 0.0776162 0 0.0776162) 6 5 2
(0.594545 0.202728 0 0.202728) 3 2 2
(0.980583 0.0097085 0 0.0097085) 0 0 1
(0.185226 0.407387 0.407387 0) 6 6 2
(0.0165916 0.491704 0.491704 0) 11 10 1
(0.360111 0.319944 0 0.319944) 5 5 1
(0.0523169 0.473842 0.473842 0) 5 5 2
(0.448226 0.275887 0.275887 0) 2 1 1
(0.0844985 0.457751 0.457751 0) 3 2 1
(0.695697 0.152151 0 0.152151) 6 5 2
(0.132994 0.433503 0 0.433503) 4 4 1
(0.0914072 0.454296 0 0.454296) 6 5 2
(0.81931 0.090345 0 0.090345) 0 0 1
(0.741083 0.129459 0 0.129459) 3 3 1
(0.208316 0.395842 0 0.395842) 9 8 2
(0.0492267 0.475387 0.475387 0) 4 4 2
(0.36643 0.316785 0 0.316785) 5 4 2
(0.824298 0.0878512 0 0.0878512) 5 4 2
(0.958757 0.0206214 0.0206214 0) 3 3 2
(0.727009 0.136496 0.136496 0) 7 7 2
(0.0753106 0.462345 0 0.462345) 4 4 1
(0.425263 0.287369 0.287369 0) 4 3 1
(0.658572 0.170714 0.170714 0) 2 2 2
(0.220768 0.389616 0.389616 0) 12 12 2
(0.401189 0.299405 0.299405 0) 4 4 2
(0.654004 0.172998 0 0.172998) 7 7 1
(0.755151 0.122425 0.122425 0) 1 1 2
(0.649605 0.175197 0 0.175197) 5 4 2
(0.188044 0.405978 0.405978 0) 1 0 1
(0.514884 0.242558 0.242558 0) 4 4 2
(0.603463 0.198269 0.198269 0) 3 3 2
(0.465631 0.267185 0.267185 0) 3 2 1
(0.65351 0.173245 0.173245 0) 4 4 2
(0.709505 0.145248 0.145248 0) 12 12 2
(0.547222 0.226389 0 0.226389) 0 0 1
(0.863977 0.0680116 0.0680116 0) 4 4 2
(0.76095 0.119525 0.119525 0) 2 2 2
(0.835795 0.0821023 0.0821023 0) 10 10 2
(0.618431 0.190784 0 0.190784) 10 9 2
(0.282196 0.358902 0.358902 0) 4 4 2
(0.80325 0.098375 0 0.098375) 10 9 2
(0.416837 0.291581 0.291581 0) 3 2 1
(0.596548 0.201726 0 0.201726) 7 6 2
(0.3522 0.3239 0.3239 0) 8 7 1
(0.455215 0.272393 0.272393 0) 3 3 2
(0.950207 0.0248964 0 0.0248964) 5 5 1
(0.65741 0.171295 0.171295 0) 6 6 2
(0.0698922 0.465054 0 0.465054) 9 8 2
(0.358067 0.320966 0 0.320966) 7 6 2
(0.794664 0.102668 0.102668 0) 11 10 1
(0.36522 0.31739 0.31739 0) 3 3 2
(0.415569 0.292215 0.292215 0) 6 6 2
(0.137487 0.431256 0 0.431256) 4 4 1
(0.694404 0.152798 0 0.152798) 2 2 1
(0.357404 0.321298 0 0.321298) 9 8 2
(0.112785 0.443608 0 0.443608) 0 0 1
(0.171237 0.414381 0 0.414381) 6 6 1
(0.768274 0.115863 0 0.115863) 2 2 1
(0.747965 0.126017 0.126017 0) 1 0 1
(0.827361 0.0863195 0.0863195 0) 5 5 2
(0.562309 0.218846 0 0.218846) 7 6 2
(0.786383 0.106808 0.106808 0) 5 4 1
(0.573832 0.213084 0 0.213084) 4 3 2
(0.875896 0.0620521 0 0.0620521) 10 10 1
(0.338151 0.330924 0.330924 0) 9 8 1
(0.416646 0.291677 0.291677 0) 13 12 1
(0.151988 0.424006 0.424006 0) 2 1 1
(0.166121 0.416939 0.416939 0) 0 624 2
(0.88381 0.058095 0.058095 0) 5 4 1
(0.586864 0.206568 0.206568 0) 4 3 1
(0.906846 0.046577 0.046577 0) 4 3 1
(0.544591 0.227704 0.227704 0) 4 4 2
(0.614467 0.192766 0.192766 0) 11 10 1
(0.534872 0.232564 0 0.232564) 5 4 2
(0.773652 0.113174 0.113174 0) 4 4 2
(0.172973 0.413513 0.413513 0) 5 5 2
(0.84758 0.07621 0.07621 0) 1 1 2
(0.550638 0.224681 0 0.224681) 0 624 1
(0.782445 0.108777 0 0.108777) 11 10 2
(0.882601 0.0586996 0.0586996 0) 6 5 1
(0.173933 0.413033 0.413033 0) 4 3 1
(0.326063 0.336969 0 0.336969) 3 2 2
(0.105949 0.447025 0.447025 0) 1 1 2
(0.33982 0.33009 0.33009 0) 4 4 2
(0.204658 0.397671 0 0.397671) 5 5 1
(0.399279 0.300361 0.300361 0) 1 0 1
(0.995229 0.00238547 0 0.00238547) 6 6 1
(0.626645 0.186678 0 0.186678) 9 8 2
(0.887779 0.0561106 0 0.0561106) 1 0 2
(0.88937 0.0553148 0 0.0553148) 7 7 1
(0.404067 0.297967 0 0.297967) 3 3 1
(0.902622 0.0486891 0.0486891 0) 5 4 1
(0.583541 0.208229 0.208229 0) 4 3 1
(0.235529 0.382235 0.382235 0) 5 5 2
(0.475505 0.262247 0 0.262247) 1 1 1
(0.0148225 0.492589 0.492589 0) 4 4 2
(0.0621829 0.468909 0.468909 0) 1 1 2
(0.206806 0.396597 0 0.396597) 4 3 2
(0.247825 0.376088 0.376088 0) 7 7 2
(0.0729781 0.463511 0 0.463511) 3 3 1
(0.670617 0.164691 0 0.164691) 2 2 1
(0.730753 0.134623 0.134623 0) 7 6 1
(0.196641 0.401679 0.401679 0) 8 7 1
(0.941503 0.0292484 0 0.0292484) 4 4 1
(0.428956 0.285522 0.285522 0) 6 5 1
(0.602514 0.198743 0.198743 0) 9 8 1
(0.232654 0.383673 0 0.383673) 6 6 1
(0.696691 0.151654 0 0.151654) 6 6 1
(0.507264 0.246368 0.246368 0) 4 3 1
(0.241551 0.379224 0 0.379224) 3 3 1
(0.949397 0.0253015 0.0253015 0) 6 5 1
(0.342625 0.328687 0 0.328687) 2 2 1
(0.754002 0.122999 0 0.122999) 2 2 1
(0.810907 0.0945465 0 0.0945465) 4 4 1
(0.264138 0.367931 0.367931 0) 5 4 1
(0.810412 0.094794 0 0.094794) 2 2 1
(0.188131 0.405935 0.405935 0) 3 2 1
(0.163083 0.418458 0 0.418458) 2 2 1
(0.624155 0.187923 0 0.187923) 6 5 2
(0.216253 0.391873 0.391873 0) 2 2 2
(0.758211 0.120894 0.120894 0) 2 2 2
(0.49294 0.25353 0 0.25353) 4 4 1
(0.718269 0.140865 0 0.140865) 2 2 1
(0.0398925 0.480054 0.480054 0) 0 0 2
(0.119122 0.440439 0 0.440439) 4 3 2
(0.1199 0.44005 0.44005 0) 3 3 2
(0.468343 0.265828 0.265828 0) 10 10 2
(0.868753 0.0656234 0.0656234 0) 2 2 2
(0.253865 0.373068 0 0.373068) 7 7 1
(0.847256 0.0763722 0 0.0763722) 4 4 1
(0.883363 0.0583186 0 0.0583186) 2 1 2
(0.305205 0.347398 0 0.347398) 6 5 2
(0.15861 0.420695 0 0.420695) 4 4 1
(0.357466 0.321267 0.321267 0) 2 1 1
(0.108014 0.445993 0 0.445993) 2 1 2
(0.265006 0.367497 0.367497 0) 3 2 1
(0.670455 0.164772 0 0.164772) 6 6 1
(0.661299 0.169351 0.169351 0) 12 11 1
(0.820643 0.0896787 0.0896787 0) 6 6 2
(0.0442633 0.477868 0 0.477868) 3 3 1
(0.191272 0.404364 0 0.404364) 4 4 1
(0.136267 0.431867 0.431867 0) 5 5 2
(0.235755 0.382122 0 0.382122) 4 3 2
(0.989377 0.00531142 0.00531142 0) 5 4 1
(0.459224 0.270388 0.270388 0) 5 5 2
(0.316132 0.341934 0 0.341934) 5 4 2
(0.356126 0.321937 0 0.321937) 3 2 2
(0.461867 0.269067 0.269067 0) 5 4 1
(0.340934 0.329533 0.329533 0) 7 6 1
(0.36035 0.319825 0 0.319825) 6 6 1
(0.745807 0.127097 0 0.127097) 5 4 2
(0.441346 0.279327 0.279327 0) 4 4 2
(0.747909 0.126045 0.126045 0) 3 3 2
(0.712853 0.143574 0.143574 0) 13 12 1
(0.788247 0.105876 0.105876 0) 5 5 2
(0.321494 0.339253 0 0.339253) 8 7 2
(0.403274 0.298363 0.298363 0) 2 1 1
(0.127385 0.436308 0.436308 0) 6 5 1
(0.616728 0.191636 0 0.191636) 10 10 1
(0.927454 0.036273 0 0.036273) 7 6 2
(0.874196 0.0629018 0.0629018 0) 8 7 1
(0.477964 0.261018 0.261018 0) 8 7 1
(0.507707 0.246147 0 0.246147) 6 5 2
(0.695739 0.15213 0.15213 0) 5 4 1
(0.645354 0.177323 0 0.177323) 4 4 1
(0.568111 0.215945 0 0.215945) 2 1 2
(0.219114 0.390443 0 0.390443) 2 1 2
(0.530576 0.234712 0 0.234712) 1 0 2
(0.294957 0.352521 0 0.352521) 7 7 1
(0.16496 0.41752 0.41752 0) 6 6 2
(0.792702 0.103649 0.103649 0) 11 11 2
(0.810454 0.0947732 0.0947732 0) 7 7 2
(0.922526 0.0387368 0.0387368 0) 5 5 2
(0.644092 0.177954 0 0.177954) 5 4 2
(0.187639 0.406181 0 0.406181) 3 3 1
(0.309413 0.345294 0.345294 0) 1 1 2
(0.764962 0.117519 0 0.117519) 9 9 1
(0.107143 0.446429 0 0.446429) 7 6 2
(0.982248 0.00887594 0 0.00887594) 3 2 2
(0.171941 0.41403 0.41403 0) 10 10 2
(0.616492 0.191754 0 0.191754) 8 8 1
(0.473769 0.263116 0 0.263116) 0 0 1
(0.650793 0.174603 0.174603 0) 4 4 2
(0.654547 0.172727 0.172727 0) 6 6 2
(0.639409 0.180295 0.180295 0) 1 1 2
(0.995063 0.00246844 0 0.00246844) 1 0 2
(0.342668 0.328666 0.328666 0) 1 0 1
(0.694458 0.152771 0.152771 0) 10 10 2
(0.52244 0.23878 0 0.23878) 6 5 2
(0.643354 0.178323 0.178323 0) 0 0 2
(0.949954 0.025023 0.025023 0) 7 6 1
(0.471431 0.264284 0 0.264284) 10 10 1
(0.00828315 0.495858 0.495858 0) 1 1 2
(0.92284 0.03858 0 0.03858) 5 4 2
(0.558777 0.220612 0 0.220612) 7 6 2
(0.391807 0.304096 0.304096 0) 4 4 2
(0.418293 0.290854 0.290854 0) 2 2 2
(0.706119 0.14694 0.14694 0) 9 8 1
(0.414062 0.292969 0 0.292969) 9 8 2
(0.758535 0.120732 0.120732 0) 6 5 1
(0.290243 0.354878 0.354878 0) 5 4 1
(0.626617 0.186691 0.186691 0) 5 5 2
(0.861361 0.0693195 0.0693195 0) 9 8 1
(0.356598 0.321701 0.321701 0) 6 5 1
(0.742331 0.128834 0.128834 0) 3 2 1
(0.904065 0.0479675 0 0.0479675) 8 8 1
(0.799148 0.100426 0.100426 0) 5 4 1
(0.770258 0.114871 0 0.114871) 2 1 2
(0.327384 0.336308 0.336308 0) 5 4 1
(0.164484 0.417758 0 0.417758) 3 2 2
(0.514565 0.242718 0 0.242718) 3 3 1
(0.145818 0.427091 0 0.427091) 2 2 1
(0.881943 0.0590285 0.0590285 0) 6 6 2
(0.971959 0.0140203 0 0.0140203) 9 8 2
(0.646588 0.176706 0.176706 0) 1 1 2
(0.0386849 0.480658 0.480658 0) 16 15 1
(0.543294 0.228353 0 0.228353) 11 11 1
(0.122035 0.438983 0.438983 0) 2 2 2
(0.682559 0.158721 0.158721 0) 9 9 2
(0.520148 0.239926 0.239926 0) 0 0 2
(0.186259 0.40687 0 0.40687) 5 5 1
(0.956998 0.0215011 0.0215011 0) 5 5 2
(0.860499 0.0697505 0 0.0697505) 8 7 2
(0.490837 0.254582 0.254582 0) 7 7 2
(0.303414 0.348293 0.348293 0) 7 7 2
(0.342573 0.328714 0 0.328714) 7 7 1
(0.58638 0.20681 0 0.20681) 11 10 2
(0.166116 0.416942 0.416942 0) 3 2 1
(0.286628 0.356686 0 0.356686) 8 8 1
(0.801739 0.0991305 0 0.0991305) 7 6 2
(0.129773 0.435113 0.435113 0) 3 2 1
(0.695686 0.152157 0 0.152157) 7 6 2
(0.331402 0.334299 0 0.334299) 4 3 2
(0.611774 0.194113 0.194113 0) 6 5 1
(0.112165 0.443918 0 0.443918) 3 3 1
(0.19666 0.40167 0 0.40167) 6 6 1
(0.331044 0.334478 0 0.334478) 2 2 1
(0.926389 0.0368054 0.0368054 0) 8 7 1
(0.895561 0.0522196 0.0522196 0) 8 7 1
(0.568724 0.215638 0.215638 0) 3 2 1
(0.351547 0.324226 0.324226 0) 3 2 1
(0.888482 0.0557591 0 0.0557591) 7 7 1
(0.961552 0.0192239 0.0192239 0) 2 2 2
(0.0918807 0.45406 0 0.45406) 5 5 1
(0.480516 0.259742 0.259742 0) 7 7 2
(0.152026 0.423987 0.423987 0) 3 3 2
(0.520722 0.239639 0.239639 0) 4 4 2
(0.635818 0.182091 0.182091 0) 6 6 2
(0.617148 0.191426 0 0.191426) 3 3 1
(0.545079 0.227461 0 0.227461) 5 4 2
(0.434113 0.282943 0.282943 0) 2 2 2
(0.651686 0.174157 0.174157 0) 1 1 2
(0.480259 0.259871 0.259871 0) 0 0 2
(0.0870563 0.456472 0.456472 0) 9 8 1
(0.648845 0.175578 0 0.175578) 5 5 1
(0.720167 0.139916 0 0.139916) 3 3 1
(0.393056 0.303472 0.303472 0) 10 9 1
(0.80764 0.0961801 0.0961801 0) 4 3 1
(0.471997 0.264002 0 0.264002) 5 4 2
(0.563724 0.218138 0 0.218138) 1 1 1
(0.0792707 0.460365 0 0.460365) 7 7 1
(0.321855 0.339073 0.339073 0) 9 8 1
(0.481168 0.259416 0.259416 0) 6 5 1
(0.199314 0.400343 0 0.400343) 7 7 1
(0.0466594 0.47667 0.47667 0) 7 6 1
(0.23972 0.38014 0 0.38014) 16 15 2
(0.119948 0.440026 0 0.440026) 1 1 1
(0.673332 0.163334 0.163334 0) 6 5 1
(0.366864 0.316568 0 0.316568) 4 4 1
(0.224432 0.387784 0.387784 0) 6 6 2
(0.213973 0.393014 0 0.393014) 6 5 2
(0.813031 0.0934847 0.0934847 0) 5 5 2
(0.939615 0.0301923 0 0.0301923) 2 1 2
(0.538556 0.230722 0.230722 0) 1 1 2
(0.523367 0.238316 0 0.238316) 6 6 1
(0.249752 0.375124 0 0.375124) 5 4 2
(0.199962 0.400019 0.400019 0) 10 9 1
(0.846883 0.0765585 0 0.0765585) 3 3 1
(0.968407 0.0157964 0.0157964 0) 7 6 1
(0.399192 0.300404 0 0.300404) 5 4 2
(0.557905 0.221047 0 0.221047) 4 3 2
(0.909494 0.0452528 0 0.0452528) 5 4 2
(0.653132 0.173434 0 0.173434) 9 9 1
(0.88731 0.0563451 0.0563451 0) 1 1 2
(0.968437 0.0157815 0.0157815 0) 6 5 1
(0.108607 0.445697 0.445697 0) 2 1 1
(0.407251 0.296375 0.296375 0) 7 7 2
(0.771773 0.114113 0.114113 0) 2 1 1
(0.1228 0.4386 0.4386 0) 3 2 1
(0.182548 0.408726 0 0.408726) 8 7 2
(0.673598 0.163201 0.163201 0) 6 5 1
(0.95383 0.0230849 0.0230849 0) 6 6 2
(0.138131 0.430934 0.430934 0) 3 3 2
(0.877094 0.061453 0 0.061453) 6 6 1
(0.521716 0.239142 0.239142 0) 8 8 2
(0.391948 0.304026 0.304026 0) 5 5 2
(0.764405 0.117798 0.117798 0) 3 2 1
(0.97929 0.010355 0 0.010355) 7 7 1
(0.211132 0.394434 0 0.394434) 2 2 1
(0.457829 0.271086 0 0.271086) 14 14 1
(0.743734 0.128133 0 0.128133) 3 2 2
(0.834576 0.082712 0.082712 0) 9 8 1
(0.413363 0.293319 0 0.293319) 10 10 1
(0.343712 0.328144 0.328144 0) 5 4 1
(0.267011 0.366495 0.366495 0) 8 8 2
(0.343106 0.328447 0 0.328447) 3 2 2
(0.778682 0.110659 0.110659 0) 9 9 2
(0.250827 0.374587 0.374587 0) 4 3 1
(0.426632 0.286684 0.286684 0) 4 4 2
(0.482759 0.25862 0 0.25862) 9 8 2
(0.786693 0.106653 0 0.106653) 2 1 2
(0.0996724 0.450164 0.450164 0) 5 5 2
(0.658688 0.170656 0 0.170656) 3 3 1
(0.299828 0.350086 0 0.350086) 6 5 2
(0.24996 0.37502 0 0.37502) 3 2 2
(0.670035 0.164982 0 0.164982) 5 4 2
(0.1862 0.4069 0 0.4069) 5 4 2
(0.639754 0.180123 0.180123 0) 8 7 1
(0.594482 0.202759 0 0.202759) 2 2 1
(0.901117 0.0494413 0.0494413 0) 5 4 1
(0.26394 0.36803 0.36803 0) 9 8 1
(0.0688518 0.465574 0 0.465574) 4 4 1
(0.302729 0.348635 0.348635 0) 7 6 1
(0.691049 0.154476 0.154476 0) 4 3 1
(0.161239 0.41938 0 0.41938) 4 4 1
(0.748126 0.125937 0.125937 0) 4 3 1
(0.364486 0.317757 0 0.317757) 0 624 1
(0.303508 0.348246 0 0.348246) 4 4 1
(0.544871 0.227564 0.227564 0) 6 5 1
(0.360915 0.319542 0 0.319542) 5 5 1
(0.575954 0.212023 0 0.212023) 4 3 2
(0.982041 0.0089795 0.0089795 0) 1 0 1
(0.164567 0.417716 0 0.417716) 6 6 1
(0.973228 0.013386 0.013386 0) 3 2 1
(0.040758 0.479621 0.479621 0) 8 7 1
(0.24425 0.377875 0.377875 0) 10 9 1
(0.419443 0.290279 0.290279 0) 7 7 2
(0.0843937 0.457803 0.457803 0) 7 6 1
(0.973143 0.0134286 0.0134286 0) 4 4 2
(0.177149 0.411425 0 0.411425) 7 6 2
(0.326417 0.336791 0.336791 0) 3 3 2
(0.0903037 0.454848 0.454848 0) 3 3 2
(0.810378 0.0948108 0 0.0948108) 9 8 2
(0.82634 0.0868301 0.0868301 0) 7 7 2
(0.187575 0.406212 0.406212 0) 12 12 2
(0.470613 0.264693 0 0.264693) 6 5 2
(0.640993 0.179504 0 0.179504) 1 0 2
(0.751651 0.124174 0 0.124174) 11 11 1
(0.149022 0.425489 0 0.425489) 10 9 2
(0.373582 0.313209 0.313209 0) 15 15 2
(0.460871 0.269565 0 0.269565) 6 5 2
(0.881062 0.0594688 0.0594688 0) 8 8 2
(0.0322638 0.483868 0.483868 0) 6 6 2
(0.625135 0.187432 0 0.187432) 7 6 2
(0.0129811 0.493509 0 0.493509) 4 3 2
(0.726019 0.13699 0.13699 0) 8 8 2
(0.630825 0.184588 0.184588 0) 8 8 2
(0.693528 0.153236 0 0.153236) 11 11 1
(0.721353 0.139323 0 0.139323) 7 6 2
(0.727502 0.136249 0.136249 0) 7 6 1
(0.388258 0.305871 0.305871 0) 6 6 2
(0.88198 0.0590101 0.0590101 0) 12 11 1
(0.0191538 0.490423 0.490423 0) 3 3 2
(0.242544 0.378728 0 0.378728) 2 2 1
(0.0306455 0.484677 0 0.484677) 1 0 2
(0.668333 0.165834 0.165834 0) 5 5 2
(0.200124 0.399938 0 0.399938) 10 9 2
(0.717387 0.141306 0 0.141306) 9 8 2
(0.831173 0.0844135 0 0.0844135) 5 4 2
(0.166947 0.416526 0 0.416526) 6 6 1
(0.249722 0.375139 0.375139 0) 6 5 1
(0.173964 0.413018 0.413018 0) 3 2 1
(0.506696 0.246652 0.246652 0) 4 3 1
(0.0180601 0.49097 0.49097 0) 10 9 1
(0.890339 0.0548307 0.0548307 0) 4 3 1
(0.435957 0.282021 0.282021 0) 8 7 1
(0.898579 0.0507105 0.0507105 0) 3 2 1
(0.123506 0.438247 0.438247 0) 2 2 2
(0.327262 0.336369 0.336369 0) 3 2 1
(0.951117 0.0244415 0 0.0244415) 3 3 1
(0.214689 0.392655 0 0.392655) 8 7 2
(0.701652 0.149174 0 0.149174) 4 3 2
(0.275395 0.362303 0 0.362303) 12 11 2
(0.327594 0.336203 0.336203 0) 6 5 1
(0.880881 0.0595594 0 0.0595594) 1 0 2
(0.017199 0.4914 0 0.4914) 12 11 2
(0.370639 0.31468 0.31468 0) 4 3 1
(0.727535 0.136232 0 0.136232) 1 1 1
(0.0466176 0.476691 0.476691 0) 6 6 2
(0.492825 0.253588 0.253588 0) 3 2 1
(0.310018 0.344991 0 0.344991) 8 7 2
(0.104252 0.447874 0.447874 0) 6 6 2
(0.888301 0.0558494 0 0.0558494) 3 2 2
(0.247616 0.376192 0 0.376192) 9 8 2
(0.960646 0.0196769 0 0.0196769) 6 6 1
(0.449788 0.275106 0 0.275106) 6 5 2
(0.695734 0.152133 0.152133 0) 5 5 2
(0.463958 0.268021 0 0.268021) 14 13 2
(0.752254 0.123873 0.123873 0) 12 12 2
(0.47871 0.260645 0 0.260645) 5 4 2
(0.804614 0.097693 0 0.097693) 15 14 2
(0.428239 0.28588 0 0.28588) 3 2 2
(0.660602 0.169699 0 0.169699) 11 11 1
(0.179284 0.410358 0.410358 0) 16 16 2
(0.399718 0.300141 0.300141 0) 1 1 2
(0.374974 0.312513 0.312513 0) 6 6 2
(0.654353 0.172824 0.172824 0) 3 3 2
(0.267203 0.366399 0.366399 0) 0 0 2
(0.579513 0.210244 0.210244 0) 7 6 1
(0.00483329 0.497583 0 0.497583) 11 11 1
(0.927145 0.0364273 0 0.0364273) 9 8 2
(0.634698 0.182651 0 0.182651) 9 8 2
(0.707146 0.146427 0 0.146427) 3 2 2
(0.824608 0.087696 0.087696 0) 9 9 2
(0.160413 0.419794 0 0.419794) 4 4 1
(0.498418 0.250791 0 0.250791) 10 10 1
(0.194893 0.402554 0 0.402554) 7 7 1
(0.280066 0.359967 0 0.359967) 3 2 2
(0.253359 0.37332 0 0.37332) 7 6 2
(0.560168 0.219916 0.219916 0) 2 2 2
(0.800473 0.0997634 0.0997634 0) 6 5 1
(0.130351 0.434825 0 0.434825) 14 13 2
(0.862885 0.0685575 0 0.0685575) 1 0 2
(0.396014 0.301993 0 0.301993) 1 1 1
(0.267634 0.366183 0.366183 0) 2 2 2
(0.353723 0.323139 0.323139 0) 6 5 1
(0.975114 0.0124432 0.0124432 0) 10 9 1
(0.594952 0.202524 0.202524 0) 8 8 2
(0.12109 0.439455 0 0.439455) 5 5 1
(0.61132 0.19434 0.19434 0) 6 5 1
(0.758735 0.120632 0.120632 0) 8 7 1
(0.655919 0.172041 0.172041 0) 6 5 1
(0.414772 0.292614 0.292614 0) 8 8 2
(0.336184 0.331908 0.331908 0) 9 9 2
(0.786175 0.106913 0 0.106913) 8 7 2
(0.0411056 0.479447 0.479447 0) 4 4 2
(0.220529 0.389735 0.389735 0) 4 3 1
(0.986719 0.00664026 0 0.00664026) 4 4 1
(0.541931 0.229034 0 0.229034) 12 12 1
(0.443716 0.278142 0 0.278142) 8 7 2
(0.933847 0.0330764 0 0.0330764) 1 1 1
(0.798296 0.100852 0.100852 0) 8 7 1
(0.388873 0.305563 0.305563 0) 2 2 2
(0.711825 0.144088 0.144088 0) 6 5 1
(0.893003 0.0534985 0 0.0534985) 10 10 1
(0.821289 0.0893555 0.0893555 0) 5 4 1
(0.593145 0.203428 0 0.203428) 3 2 2
(0.758152 0.120924 0 0.120924) 5 4 2
(0.28656 0.35672 0.35672 0) 13 13 2
(0.775064 0.112468 0.112468 0) 2 1 1
(0.159521 0.42024 0 0.42024) 8 8 1
(0.606176 0.196912 0 0.196912) 10 10 1
(0.381656 0.309172 0 0.309172) 11 10 2
(0.541617 0.229192 0 0.229192) 3 3 1
(0.37949 0.310255 0 0.310255) 5 5 1
(0.588697 0.205652 0 0.205652) 1 1 1
(0.870658 0.0646712 0.0646712 0) 3 3 2
(0.62954 0.18523 0.18523 0) 11 10 1
(0.0108768 0.494562 0.494562 0) 11 10 1
(0.721977 0.139012 0.139012 0) 2 1 1
(0.429473 0.285263 0 0.285263) 6 6 1
(0.817047 0.0914766 0.0914766 0) 2 1 1
(0.0183721 0.490814 0.490814 0) 9 9 2
(0.407358 0.296321 0 0.296321) 6 5 2
(0.803768 0.0981162 0 0.0981162) 3 3 1
(0.184441 0.407779 0 0.407779) 3 3 1
(0.301762 0.349119 0.349119 0) 3 2 1
(0.115263 0.442369 0 0.442369) 9 9 1
(0.938345 0.0308277 0.0308277 0) 14 14 2
(0.746787 0.126607 0 0.126607) 7 6 2
(0.319279 0.340361 0.340361 0) 4 3 1
(0.803433 0.0982834 0 0.0982834) 7 7 1
(0.918952 0.0405239 0 0.0405239) 4 4 1
(0.491152 0.254424 0 0.254424) 2 2 1
(0.846371 0.0768143 0 0.0768143) 4 4 1
(0.0297371 0.485131 0 0.485131) 9 9 1
(0.611694 0.194153 0 0.194153) 12 12 1
(0.215124 0.392438 0.392438 0) 11 10 1
(0.546487 0.226756 0.226756 0) 5 5 2
(0.329092 0.335454 0.335454 0) 3 3 2
(0.0431664 0.478417 0.478417 0) 7 6 1
(0.428328 0.285836 0 0.285836) 8 7 2
(0.834484 0.0827579 0 0.0827579) 4 3 2
(0.0377729 0.481114 0.481114 0) 5 4 1
(0.872136 0.063932 0.063932 0) 3 2 1
(0.563949 0.218025 0.218025 0) 4 3 1
(0.9873 0.00634986 0 0.00634986) 0 0 1
(0.430882 0.284559 0 0.284559) 5 5 1
(0.173903 0.413048 0 0.413048) 9 9 1
(0.393939 0.303031 0.303031 0) 4 4 2
(0.0865536 0.456723 0 0.456723) 4 3 2
(0.0854916 0.457254 0.457254 0) 13 12 1
(0.997413 0.00129359 0 0.00129359) 3 2 2
(0.960502 0.0197491 0 0.0197491) 2 2 1
(0.854476 0.072762 0 0.072762) 3 3 1
(0.466544 0.266728 0.266728 0) 4 4 2
(0.756544 0.121728 0.121728 0) 2 1 1
(0.710661 0.144669 0 0.144669) 11 11 1
(0.10041 0.449795 0 0.449795) 5 4 2
(0.704964 0.147518 0.147518 0) 2 1 1
(0.367299 0.316351 0 0.316351) 11 11 1
(0.0291896 0.485405 0.485405 0) 6 5 1
(0.246726 0.376637 0.376637 0) 1 0 1
(0.586268 0.206866 0.206866 0) 15 15 2
(0.825383 0.0873087 0 0.0873087) 3 3 1
(0.801836 0.0990821 0.0990821 0) 4 3 1
(0.789202 0.105399 0 0.105399) 4 3 2
(0.667114 0.166443 0 0.166443) 8 8 1
(0.930219 0.0348905 0.0348905 0) 4 4 2
(0.66247 0.168765 0.168765 0) 4 3 1
(0.41011 0.294945 0.294945 0) 4 4 2
(0.143358 0.428321 0.428321 0) 3 2 1
(0.154703 0.422649 0.422649 0) 11 10 1
(0.59605 0.201975 0 0.201975) 5 4 2
(0.33272 0.33364 0 0.33364) 3 2 2