/*--------------------------------*- C++ -*----------------------------------*\
  =========                 |
  \\      /  F ield         | OpenFOAM: The Open Source CFD Toolbox
   \\    /   O peration     | Website:  https://openfoam.org
    \\  /    A nd           | Version:  7
     \\/     M anipulation  |
\*---------------------------------------------------------------------------*/
FoamFile
{
    version     2.0;
    format      ascii;
    class       Cloud<dsmcParcel>;
    location    "0.0018/lagrangian/dsmc";
    object      positions;
}
// * * * * * * * * * * * * * * * * * * * * * * * * * * * * * * * * * * * * * //

25291
(
(0.149425 0.425287 0 0.425287) 2 2 1
(0.876117 0.0619417 0 0.0619417) 4 4 1
(0.666359 0.166821 0.166821 0) 1 0 1
(0.15849 0.420755 0.420755 0) 3 3 2
(0.202335 0.398833 0.398833 0) 4 4 2
(0.559659 0.220171 0 0.220171) 5 4 2
(0.246631 0.376685 0 0.376685) 4 4 1
(0.731737 0.134132 0.134132 0) 2 2 2
(0.394469 0.302766 0 0.302766) 2 1 2
(0.176915 0.411542 0.411542 0) 4 4 2
(0.809485 0.0952577 0 0.0952577) 4 3 2
(0.751098 0.124451 0 0.124451) 2 2 1
(0.325585 0.337208 0 0.337208) 1 0 2
(0.949703 0.0251487 0 0.0251487) 1 0 2
(0.1238 0.4381 0 0.4381) 1 0 2
(0.969902 0.0150488 0.0150488 0) 4 3 1
(0.886307 0.0568463 0.0568463 0) 1 0 1
(0.605782 0.197109 0.197109 0) 3 3 2
(0.820915 0.0895426 0.0895426 0) 5 4 1
(0.93825 0.0308752 0.0308752 0) 2 1 1
(0.049707 0.475147 0.475147 0) 4 4 2
(0.586661 0.20667 0.20667 0) 3 2 1
(0.422363 0.288819 0.288819 0) 4 3 1
(0.0558422 0.472079 0.472079 0) 3 2 1
(0.512177 0.243911 0.243911 0) 4 3 1
(0.747513 0.126244 0 0.126244) 4 4 1
(0.902604 0.0486982 0 0.0486982) 5 5 1
(0.456572 0.271714 0 0.271714) 5 4 2
(0.141112 0.429444 0 0.429444) 2 2 1
(0.506367 0.246817 0 0.246817) 4 4 1
(0.0828802 0.45856 0.45856 0) 3 2 1
(0.607482 0.196259 0 0.196259) 4 3 2
(0.846255 0.0768725 0 0.0768725) 4 4 1
(0.883222 0.0583888 0 0.0583888) 4 4 1
(0.162561 0.41872 0.41872 0) 2 1 1
(0.797865 0.101068 0.101068 0) 4 4 2
(0.0849348 0.457533 0.457533 0) 4 3 1
(0.0231766 0.488412 0 0.488412) 1 0 2
(0.579682 0.210159 0.210159 0) 3 2 1
(0.799333 0.100333 0.100333 0) 7 6 1
(0.223209 0.388395 0.388395 0) 2 1 1
(0.409203 0.295399 0 0.295399) 0 0 1
(0.493008 0.253496 0 0.253496) 3 2 2
(0.545721 0.22714 0.22714 0) 3 3 2
(0.0194234 0.490288 0 0.490288) 1 1 1
(0.060206 0.469897 0.469897 0) 1 1 2
(0.547241 0.22638 0 0.22638) 2 2 1
(0.411831 0.294084 0 0.294084) 1 0 2
(0.0638283 0.468086 0.468086 0) 2 2 2
(0.755192 0.122404 0.122404 0) 4 3 1
(0.434262 0.282869 0 0.282869) 3 3 1
(0.432646 0.283677 0 0.283677) 2 2 1
(0.626548 0.186726 0 0.186726) 1 1 1
(0.598711 0.200644 0.200644 0) 5 4 1
(0.0569371 0.471531 0.471531 0) 3 3 2
(0.00564365 0.497178 0 0.497178) 5 4 2
(0.703988 0.148006 0.148006 0) 5 5 2
(0.173806 0.413097 0.413097 0) 1 1 2
(0.626515 0.186743 0 0.186743) 6 6 1
(0.0520734 0.473963 0 0.473963) 1 0 2
(0.806568 0.0967158 0 0.0967158) 4 3 2
(0.985836 0.00708178 0 0.00708178) 7 6 2
(0.812995 0.0935024 0 0.0935024) 5 4 2
(0.106178 0.446911 0.446911 0) 3 3 2
(0.281692 0.359154 0 0.359154) 1 1 1
(0.262921 0.36854 0.36854 0) 3 3 2
(0.902153 0.0489234 0.0489234 0) 8 8 2
(0.570823 0.214589 0.214589 0) 1 0 1
(0.878074 0.060963 0 0.060963) 2 1 2
(0.361217 0.319392 0 0.319392) 5 4 2
(0.215479 0.392261 0 0.392261) 7 7 1
(0.830131 0.0849346 0.0849346 0) 5 5 2
(0.0692619 0.465369 0 0.465369) 1 1 1
(0.944682 0.0276588 0 0.0276588) 4 4 1
(0.492625 0.253687 0 0.253687) 4 3 2
(0.579805 0.210097 0.210097 0) 4 4 2
(0.228737 0.385632 0.385632 0) 7 7 2
(0.730203 0.134899 0.134899 0) 2 2 2
(0.87007 0.0649649 0 0.0649649) 2 1 2
(0.523384 0.238308 0.238308 0) 2 1 1
(0.0125936 0.493703 0 0.493703) 5 4 2
(0.0477852 0.476107 0.476107 0) 0 0 2
(0.465271 0.267364 0.267364 0) 3 2 1
(0.826096 0.0869519 0.0869519 0) 4 4 2
(0.978814 0.0105931 0 0.0105931) 1 1 1
(0.40983 0.295085 0 0.295085) 4 3 2
(0.239469 0.380265 0.380265 0) 1 1 2
(0.218268 0.390866 0.390866 0) 2 2 2
(0.0401614 0.479919 0.479919 0) 3 3 2
(0.0763004 0.46185 0 0.46185) 0 0 1
(0.277059 0.36147 0.36147 0) 3 3 2
(0.226309 0.386846 0 0.386846) 0 0 1
(0.746798 0.126601 0.126601 0) 0 0 2
(0.584727 0.207637 0 0.207637) 4 3 2
(0.820518 0.0897409 0.0897409 0) 2 1 1
(0.519702 0.240149 0.240149 0) 6 6 2
(0.10301 0.448495 0.448495 0) 4 4 2
(0.186322 0.406839 0 0.406839) 6 6 1
(0.427005 0.286497 0.286497 0) 3 2 1
(0.952335 0.0238326 0 0.0238326) 4 4 1
(0.579164 0.210418 0 0.210418) 4 3 2
(0.179123 0.410439 0 0.410439) 2 2 1
(0.429758 0.285121 0 0.285121) 3 2 2
(0.480859 0.25957 0.25957 0) 2 1 1
(0.246814 0.376593 0 0.376593) 5 4 2
(0.64028 0.17986 0.17986 0) 8 7 1
(0.825823 0.0870883 0.0870883 0) 1 0 1
(0.458045 0.270977 0 0.270977) 3 2 2
(0.833295 0.0833524 0.0833524 0) 3 3 2
(0.0993116 0.450344 0 0.450344) 4 4 1
(0.580018 0.209991 0.209991 0) 5 4 1
(0.78399 0.108005 0.108005 0) 3 2 1
(0.606661 0.19667 0 0.19667) 3 3 1
(0.265646 0.367177 0.367177 0) 5 4 1
(0.228419 0.385791 0 0.385791) 7 7 1
(0.676625 0.161688 0 0.161688) 4 4 1
(0.669799 0.165101 0.165101 0) 5 5 2
(0.577739 0.211131 0 0.211131) 3 3 1
(0.868795 0.0656027 0 0.0656027) 6 6 1
(0.637033 0.181484 0 0.181484) 1 0 2
(0.742092 0.128954 0.128954 0) 0 0 2
(0.353909 0.323046 0 0.323046) 5 4 2
(0.273023 0.363489 0 0.363489) 0 0 1
(0.791366 0.104317 0 0.104317) 6 5 2
(0.326309 0.336845 0.336845 0) 5 4 1
(0.499741 0.25013 0 0.25013) 3 3 1
(0.412482 0.293759 0.293759 0) 2 1 1
(0.17446 0.41277 0 0.41277) 5 5 1
(0.242546 0.378727 0.378727 0) 4 3 1
(0.833398 0.0833008 0.0833008 0) 1 0 1
(0.590562 0.204719 0 0.204719) 1 1 1
(0.135013 0.432493 0.432493 0) 5 4 1
(0.00582315 0.497088 0 0.497088) 3 3 1
(0.3059 0.34705 0 0.34705) 0 0 1
(0.0481735 0.475913 0.475913 0) 6 6 2
(0.869318 0.0653408 0.0653408 0) 6 6 2
(0.421928 0.289036 0.289036 0) 0 0 2
(0.488398 0.255801 0 0.255801) 1 0 2
(0.554245 0.222877 0 0.222877) 1 1 1
(0.608866 0.195567 0 0.195567) 4 4 1
(0.0894745 0.455263 0 0.455263) 5 5 1
(0.652316 0.173842 0.173842 0) 4 3 1
(0.993317 0.0033413 0 0.0033413) 2 2 1
(0.962886 0.018557 0.018557 0) 6 5 1
(0.530845 0.234577 0 0.234577) 1 1 1
(0.123575 0.438212 0 0.438212) 6 5 2
(0.826454 0.0867729 0 0.0867729) 3 2 2
(0.679468 0.160266 0.160266 0) 5 4 1
(0.602039 0.198981 0 0.198981) 3 3 1
(0.669282 0.165359 0.165359 0) 3 2 1
(0.871303 0.0643483 0.0643483 0) 2 2 2
(0.0468947 0.476553 0 0.476553) 1 0 2
(0.464971 0.267515 0.267515 0) 1 1 2
(0.210415 0.394793 0.394793 0) 5 4 1
(0.951155 0.0244224 0 0.0244224) 5 4 2
(0.0285446 0.485728 0.485728 0) 3 3 2
(0.359442 0.320279 0 0.320279) 4 4 1
(0.11305 0.443475 0 0.443475) 10 9 2
(0.190665 0.404668 0.404668 0) 1 1 2
(0.393602 0.303199 0.303199 0) 1 1 2
(0.978567 0.0107163 0 0.0107163) 1 1 1
(0.889612 0.0551939 0 0.0551939) 5 4 2
(0.697308 0.151346 0 0.151346) 6 5 2
(0.9685 0.0157498 0 0.0157498) 4 3 2
(0.596116 0.201942 0.201942 0) 2 2 2
(0.00788238 0.496059 0 0.496059) 2 1 2
(0.644198 0.177901 0.177901 0) 0 0 2
(0.124061 0.43797 0.43797 0) 4 4 2
(0.775057 0.112472 0 0.112472) 9 8 2
(0.723089 0.138455 0 0.138455) 4 3 2
(0.369391 0.315305 0.315305 0) 3 3 2
(0.092552 0.453724 0 0.453724) 2 1 2
(0.81381 0.0930951 0.0930951 0) 5 5 2
(0.615841 0.19208 0 0.19208) 2 2 1
(0.658904 0.170548 0.170548 0) 6 5 1
(0.0689455 0.465527 0.465527 0) 4 3 1
(0.902824 0.0485878 0.0485878 0) 3 3 2
(0.771793 0.114104 0.114104 0) 4 3 1
(0.631091 0.184455 0.184455 0) 5 4 1
(0.365987 0.317006 0.317006 0) 3 3 2
(0.319604 0.340198 0 0.340198) 2 1 2
(0.191371 0.404314 0.404314 0) 2 2 2
(0.54775 0.226125 0 0.226125) 4 4 1
(0.612272 0.193864 0.193864 0) 0 0 2
(0.567197 0.216401 0 0.216401) 6 5 2
(0.53314 0.23343 0.23343 0) 5 4 1
(0.997916 0.00104194 0.00104194 0) 2 1 1
(0.278934 0.360533 0.360533 0) 5 4 1
(0.855214 0.0723929 0.0723929 0) 3 2 1
(0.710679 0.14466 0 0.14466) 3 2 2
(0.523925 0.238037 0.238037 0) 0 0 2
(0.765515 0.117243 0.117243 0) 7 6 1
(0.145068 0.427466 0 0.427466) 2 2 1
(0.428222 0.285889 0 0.285889) 3 2 2
(0.860841 0.0695795 0.0695795 0) 4 4 2
(0.0181207 0.49094 0.49094 0) 1 1 2
(0.807454 0.0962732 0 0.0962732) 0 624 1
(0.51431 0.242845 0.242845 0) 3 3 2
(0.174966 0.412517 0 0.412517) 5 4 2
(0.756795 0.121602 0.121602 0) 2 1 1
(0.195664 0.402168 0 0.402168) 1 0 2
(0.282551 0.358724 0 0.358724) 4 3 2
(0.452609 0.273696 0.273696 0) 0 0 2
(0.780385 0.109807 0.109807 0) 6 5 1
(0.914936 0.042532 0.042532 0) 4 3 1
(0.356456 0.321772 0 0.321772) 2 1 2
(0.492933 0.253533 0 0.253533) 1 0 2
(0.359844 0.320078 0.320078 0) 4 4 2
(0.100695 0.449652 0.449652 0) 1 1 2
(0.180892 0.409554 0.409554 0) 5 4 1
(0.675693 0.162153 0 0.162153) 6 5 2
(0.497294 0.251353 0.251353 0) 1 1 2
(0.50295 0.248525 0.248525 0) 5 5 2
(0.249076 0.375462 0.375462 0) 4 4 2
(0.149823 0.425089 0.425089 0) 3 3 2
(0.515635 0.242183 0.242183 0) 3 3 2
(0.235099 0.382451 0.382451 0) 5 5 2
(0.980206 0.00989705 0.00989705 0) 1 0 1
(0.881825 0.0590874 0.0590874 0) 6 6 2
(0.792958 0.103521 0 0.103521) 1 0 2
(0.453402 0.273299 0.273299 0) 4 3 1
(0.13487 0.432565 0 0.432565) 3 3 1
(0.139556 0.430222 0.430222 0) 3 2 1
(0.23827 0.380865 0.380865 0) 5 5 2
(0.550224 0.224888 0 0.224888) 2 2 1
(0.587252 0.206374 0.206374 0) 3 2 1
(0.458015 0.270993 0 0.270993) 4 4 1
(0.5698 0.2151 0 0.2151) 3 2 2
(0.0435474 0.478226 0 0.478226) 0 0 1
(0.457296 0.271352 0 0.271352) 5 5 1
(0.620169 0.189916 0 0.189916) 4 4 1
(0.211466 0.394267 0 0.394267) 3 2 2
(0.754144 0.122928 0 0.122928) 4 4 1
(0.292716 0.353642 0 0.353642) 5 4 2
(0.400079 0.29996 0 0.29996) 0 624 1
(0.291544 0.354228 0.354228 0) 3 2 1
(0.631611 0.184194 0 0.184194) 6 6 1
(0.756607 0.121696 0.121696 0) 4 3 1
(0.190008 0.404996 0 0.404996) 4 3 2
(0.74894 0.12553 0.12553 0) 6 6 2
(0.749906 0.125047 0 0.125047) 3 3 1
(0.203349 0.398326 0 0.398326) 2 2 1
(0.437699 0.281151 0.281151 0) 4 3 1
(0.606556 0.196722 0 0.196722) 3 2 2
(0.545397 0.227301 0 0.227301) 4 4 1
(0.472676 0.263662 0 0.263662) 5 5 1
(0.444218 0.277891 0 0.277891) 4 4 1
(0.195887 0.402057 0 0.402057) 3 3 1
(0.0682712 0.465864 0.465864 0) 5 5 2
(0.342139 0.328931 0.328931 0) 4 4 2
(0.563974 0.218013 0 0.218013) 6 6 1
(0.637146 0.181427 0 0.181427) 5 5 1
(0.610753 0.194624 0.194624 0) 2 2 2
(0.848021 0.0759894 0 0.0759894) 4 4 1
(0.00124501 0.499377 0 0.499377) 7 7 1
(0.490535 0.254732 0.254732 0) 6 5 1
(0.310555 0.344722 0 0.344722) 4 4 1
(0.0431596 0.47842 0.47842 0) 3 2 1
(0.0133634 0.493318 0 0.493318) 4 3 2
(0.215115 0.392442 0.392442 0) 7 6 1
(0.723608 0.138196 0 0.138196) 7 6 2
(0.101902 0.449049 0 0.449049) 4 4 1
(0.460734 0.269633 0 0.269633) 3 3 1
(0.809831 0.0950847 0.0950847 0) 7 7 2
(0.591578 0.204211 0 0.204211) 5 5 1
(0.595184 0.202408 0.202408 0) 5 4 1
(0.63851 0.180745 0 0.180745) 1 0 2
(0.403628 0.298186 0 0.298186) 1 1 1
(0.500965 0.249518 0 0.249518) 0 0 1
(0.471818 0.264091 0 0.264091) 4 4 1
(0.780972 0.109514 0.109514 0) 7 6 1
(0.0481558 0.475922 0 0.475922) 7 6 2
(0.509085 0.245458 0.245458 0) 4 3 1
(0.972385 0.0138073 0 0.0138073) 7 6 2
(0.0933669 0.453317 0.453317 0) 0 0 2
(0.30269 0.348655 0 0.348655) 2 2 1
(0.127439 0.43628 0 0.43628) 4 4 1
(0.33205 0.333975 0.333975 0) 6 5 1
(0.188746 0.405627 0.405627 0) 3 2 1
(0.957643 0.0211783 0 0.0211783) 2 1 2
(0.285175 0.357412 0 0.357412) 4 4 1
(0.101764 0.449118 0 0.449118) 5 4 2
(0.654667 0.172667 0 0.172667) 2 1 2
(0.169902 0.415049 0 0.415049) 2 2 1
(0.59385 0.203075 0.203075 0) 3 3 2
(0.25201 0.373995 0.373995 0) 5 4 1
(0.0519078 0.474046 0.474046 0) 2 1 1
(0.43546 0.28227 0 0.28227) 3 3 1
(0.355319 0.32234 0 0.32234) 3 2 2
(0.701662 0.149169 0.149169 0) 5 5 2
(0.855274 0.0723628 0 0.0723628) 5 4 2
(0.864082 0.0679592 0.0679592 0) 4 3 1
(0.982248 0.00887585 0 0.00887585) 1 0 2
(0.21137 0.394315 0.394315 0) 6 6 2
(0.479534 0.260233 0 0.260233) 8 8 1
(0.61543 0.192285 0.192285 0) 2 1 1
(0.326794 0.336603 0 0.336603) 8 7 2
(0.790625 0.104688 0 0.104688) 2 1 2
(0.0790478 0.460476 0.460476 0) 7 6 1
(0.0709113 0.464544 0.464544 0) 1 0 1
(0.981465 0.00926747 0.00926747 0) 3 2 1
(0.741957 0.129021 0 0.129021) 4 4 1
(0.189285 0.405358 0 0.405358) 6 5 2
(0.68825 0.155875 0 0.155875) 5 5 1
(0.668958 0.165521 0.165521 0) 5 4 1
(0.282718 0.358641 0.358641 0) 4 4 2
(0.350607 0.324697 0.324697 0) 5 5 2
(0.0926483 0.453676 0 0.453676) 3 2 2
(0.720359 0.139821 0.139821 0) 5 5 2
(0.131889 0.434056 0 0.434056) 4 4 1
(0.377841 0.311079 0.311079 0) 4 3 1
(0.498791 0.250604 0 0.250604) 6 6 1
(0.274036 0.362982 0 0.362982) 4 4 1
(0.975952 0.0120241 0.0120241 0) 7 7 2
(0.570504 0.214748 0 0.214748) 2 1 2
(0.691545 0.154227 0.154227 0) 3 3 2
(0.145171 0.427414 0.427414 0) 3 2 1
(0.865819 0.0670904 0 0.0670904) 7 6 2
(0.605995 0.197003 0.197003 0) 11 10 1
(0.918658 0.040671 0 0.040671) 8 8 1
(0.973626 0.0131871 0 0.0131871) 6 5 2
(0.818327 0.0908363 0 0.0908363) 5 5 1
(0.031946 0.484027 0.484027 0) 1 0 1
(0.888391 0.0558043 0 0.0558043) 3 2 2
(0.0570893 0.471455 0.471455 0) 7 6 1
(0.455609 0.272195 0 0.272195) 5 5 1
(0.469878 0.265061 0.265061 0) 1 1 2
(0.259827 0.370087 0.370087 0) 4 4 2
(0.957391 0.0213047 0 0.0213047) 0 0 1
(0.0407119 0.479644 0.479644 0) 3 3 2
(0.512843 0.243578 0 0.243578) 2 2 1
(0.109162 0.445419 0 0.445419) 7 6 2
(0.555898 0.222051 0.222051 0) 8 7 1
(0.193546 0.403227 0 0.403227) 2 2 1
(0.981222 0.0093889 0.0093889 0) 1 0 1
(0.545498 0.227251 0.227251 0) 5 5 2
(0.314186 0.342907 0 0.342907) 4 3 2
(0.981496 0.00925221 0 0.00925221) 5 5 1
(0.218208 0.390896 0.390896 0) 2 1 1
(0.632634 0.183683 0 0.183683) 3 3 1
(0.915216 0.0423921 0 0.0423921) 4 3 2
(0.230381 0.38481 0.38481 0) 4 4 2
(0.0204452 0.489777 0.489777 0) 2 1 1
(0.442828 0.278586 0 0.278586) 4 3 2
(0.883901 0.0580497 0.0580497 0) 2 1 1
(0.26058 0.36971 0.36971 0) 5 4 1
(0.395259 0.302371 0 0.302371) 6 5 2
(0.40351 0.298245 0 0.298245) 2 2 1
(0.607377 0.196311 0 0.196311) 2 1 2
(0.570554 0.214723 0 0.214723) 5 4 2
(0.59319 0.203405 0 0.203405) 4 3 2
(0.489167 0.255416 0.255416 0) 2 2 2
(0.0169395 0.49153 0.49153 0) 1 1 2
(0.125841 0.437079 0 0.437079) 2 1 2
(0.37203 0.313985 0.313985 0) 1 1 2
(0.962812 0.0185941 0.0185941 0) 1 0 1
(0.115997 0.442002 0 0.442002) 0 0 1
(0.728048 0.135976 0.135976 0) 6 6 2
(0.0515935 0.474203 0.474203 0) 1 1 2
(0.145821 0.427089 0.427089 0) 3 3 2
(0.279617 0.360192 0.360192 0) 4 3 1
(0.314404 0.342798 0.342798 0) 1 1 2
(0.570071 0.214964 0 0.214964) 5 4 2
(0.445074 0.277463 0 0.277463) 4 3 2
(0.732342 0.133829 0 0.133829) 7 6 2
(0.0723307 0.463835 0 0.463835) 3 2 2
(0.217078 0.391461 0 0.391461) 0 0 1
(0.764971 0.117515 0 0.117515) 7 7 1
(0.500685 0.249657 0.249657 0) 2 1 1
(0.528389 0.235805 0 0.235805) 1 0 2
(0.737599 0.131201 0.131201 0) 5 5 2
(0.403243 0.298379 0.298379 0) 7 6 1
(0.0855662 0.457217 0.457217 0) 4 3 1
(0.440062 0.279969 0 0.279969) 3 3 1
(0.0605478 0.469726 0.469726 0) 5 4 1
(0.201557 0.399222 0 0.399222) 8 7 2
(0.768332 0.115834 0 0.115834) 3 2 2
(0.801199 0.0994007 0 0.0994007) 3 2 2
(0.0972695 0.451365 0.451365 0) 3 3 2
(0.683456 0.158272 0.158272 0) 5 5 2
(0.214715 0.392643 0 0.392643) 5 4 2
(0.133608 0.433196 0.433196 0) 6 5 1
(0.696154 0.151923 0.151923 0) 6 6 2
(0.713125 0.143437 0.143437 0) 4 4 2
(0.0145797 0.49271 0.49271 0) 7 6 1
(0.750953 0.124523 0 0.124523) 0 0 1
(0.775297 0.112351 0 0.112351) 4 3 2
(0.799959 0.10002 0 0.10002) 6 5 2
(0.535789 0.232106 0.232106 0) 0 0 2
(0.834923 0.0825387 0 0.0825387) 4 4 1
(0.618209 0.190895 0 0.190895) 1 0 2
(0.378064 0.310968 0 0.310968) 6 5 2
(0.29491 0.352545 0.352545 0) 6 5 1
(0.0357507 0.482125 0.482125 0) 3 2 1
(0.696132 0.151934 0 0.151934) 5 4 2
(0.417213 0.291394 0.291394 0) 7 6 1
(0.690191 0.154904 0 0.154904) 3 3 1
(0.345286 0.327357 0 0.327357) 0 624 1
(0.854307 0.0728466 0 0.0728466) 4 3 2
(0.0018841 0.499058 0.499058 0) 5 5 2
(0.250546 0.374727 0.374727 0) 6 5 1
(0.473931 0.263035 0.263035 0) 7 6 1
(0.495527 0.252236 0 0.252236) 3 3 1
(0.496496 0.251752 0.251752 0) 4 3 1
(0.108404 0.445798 0.445798 0) 3 3 2
(0.217195 0.391402 0 0.391402) 4 3 2
(0.127944 0.436028 0.436028 0) 6 5 1
(0.16975 0.415125 0 0.415125) 4 4 1
(0.998145 0.00092767 0.00092767 0) 4 3 1
(0.0224074 0.488796 0.488796 0) 3 2 1
(0.279097 0.360451 0 0.360451) 6 6 1
(0.0258913 0.487054 0.487054 0) 0 0 2
(0.485619 0.25719 0.25719 0) 5 4 1
(0.984834 0.00758321 0 0.00758321) 3 3 1
(0.0314207 0.48429 0 0.48429) 2 2 1
(0.703373 0.148313 0.148313 0) 1 1 2
(0.376783 0.311609 0.311609 0) 6 5 1
(0.0278499 0.486075 0.486075 0) 8 7 1
(0.797429 0.101285 0.101285 0) 2 1 1
(0.786163 0.106919 0 0.106919) 5 5 1
(0.378625 0.310688 0 0.310688) 7 7 1
(0.0926463 0.453677 0 0.453677) 3 2 2
(0.624933 0.187533 0.187533 0) 2 1 1
(0.131245 0.434377 0.434377 0) 6 5 1
(0.429611 0.285194 0 0.285194) 3 3 1
(0.9262 0.0369 0 0.0369) 3 3 1
(0.950059 0.0249705 0.0249705 0) 7 6 1
(0.0655306 0.467235 0.467235 0) 5 5 2
(0.731642 0.134179 0 0.134179) 5 5 1
(0.360196 0.319902 0.319902 0) 5 5 2
(0.445452 0.277274 0.277274 0) 7 6 1
(0.854185 0.0729075 0.0729075 0) 6 6 2
(0.102927 0.448537 0.448537 0) 3 3 2
(0.353848 0.323076 0.323076 0) 7 6 1
(0.517618 0.241191 0.241191 0) 1 0 1
(0.867146 0.0664268 0 0.0664268) 1 0 2
(0.0339849 0.483008 0 0.483008) 1 1 1
(0.660698 0.169651 0.169651 0) 5 4 1
(0.351594 0.324203 0 0.324203) 0 0 1
(0.169718 0.415141 0 0.415141) 1 1 1
(0.0410853 0.479457 0 0.479457) 3 3 1
(0.798501 0.100749 0.100749 0) 1 0 1
(0.682197 0.158902 0.158902 0) 4 4 2
(0.0632146 0.468393 0 0.468393) 8 8 1
(0.752017 0.123991 0.123991 0) 9 8 1
(0.82421 0.087895 0 0.087895) 2 2 1
(0.809337 0.0953316 0 0.0953316) 7 6 2
(0.955132 0.0224338 0 0.0224338) 7 7 1
(0.624912 0.187544 0.187544 0) 1 0 1
(0.652612 0.173694 0.173694 0) 3 2 1
(0.81187 0.0940649 0.0940649 0) 2 2 2
(0.571864 0.214068 0.214068 0) 2 2 2
(0.304883 0.347558 0 0.347558) 1 0 2
(0.886859 0.0565704 0.0565704 0) 3 2 1
(0.762862 0.118569 0.118569 0) 3 3 2
(0.282729 0.358636 0.358636 0) 3 2 1
(0.597601 0.2012 0 0.2012) 6 5 2
(0.795084 0.102458 0.102458 0) 2 1 1
(0.186449 0.406776 0 0.406776) 5 4 2
(0.698686 0.150657 0 0.150657) 2 2 1
(0.756373 0.121813 0.121813 0) 5 4 1
(0.027294 0.486353 0 0.486353) 6 6 1
(0.622093 0.188953 0.188953 0) 0 624 2
(0.914613 0.0426937 0 0.0426937) 6 6 1
(0.635637 0.182182 0.182182 0) 4 3 1
(0.562468 0.218766 0 0.218766) 0 0 1
(0.558008 0.220996 0 0.220996) 2 2 1
(0.22482 0.38759 0.38759 0) 4 3 1
(0.0799735 0.460013 0 0.460013) 4 4 1
(0.147192 0.426404 0 0.426404) 4 3 2
(0.292567 0.353717 0.353717 0) 2 1 1
(0.431607 0.284197 0 0.284197) 3 3 1
(0.65572 0.17214 0.17214 0) 3 2 1
(0.88934 0.0553301 0 0.0553301) 4 4 1
(0.636248 0.181876 0.181876 0) 3 2 1
(0.328419 0.33579 0 0.33579) 5 5 1
(0.0625869 0.468707 0.468707 0) 1 1 2
(0.511074 0.244463 0.244463 0) 3 2 1
(0.208816 0.395592 0 0.395592) 1 1 1
(0.0739945 0.463003 0 0.463003) 3 2 2
(0.361174 0.319413 0.319413 0) 1 1 2
(0.161996 0.419002 0.419002 0) 4 4 2
(0.762334 0.118833 0.118833 0) 3 3 2
(0.606316 0.196842 0.196842 0) 2 2 2
(0.367996 0.316002 0.316002 0) 3 3 2
(0.961403 0.0192987 0 0.0192987) 1 1 1
(0.872902 0.0635489 0.0635489 0) 4 3 1
(0.581775 0.209113 0 0.209113) 5 4 2
(0.776672 0.111664 0.111664 0) 6 6 2
(0.211472 0.394264 0.394264 0) 7 7 2
(0.421858 0.289071 0 0.289071) 3 3 1
(0.426856 0.286572 0 0.286572) 5 4 2
(0.349926 0.325037 0.325037 0) 4 4 2
(0.842894 0.0785528 0.0785528 0) 6 6 2
(0.120516 0.439742 0.439742 0) 6 6 2
(0.488695 0.255652 0 0.255652) 2 1 2
(0.488652 0.255674 0 0.255674) 4 3 2
(0.231922 0.384039 0.384039 0) 9 8 1
(0.479741 0.260129 0 0.260129) 2 2 1
(0.985999 0.00700059 0 0.00700059) 3 3 1
(0.279866 0.360067 0.360067 0) 4 3 1
(0.476503 0.261748 0.261748 0) 6 5 1
(0.750328 0.124836 0 0.124836) 1 0 2
(0.442838 0.278581 0.278581 0) 2 2 2
(0.774712 0.112644 0 0.112644) 3 2 2
(0.9301 0.0349502 0.0349502 0) 6 5 1
(0.245773 0.377113 0 0.377113) 7 7 1
(0.816779 0.0916104 0.0916104 0) 5 5 2
(0.220292 0.389854 0.389854 0) 8 7 1
(0.328517 0.335741 0.335741 0) 5 4 1
(0.14979 0.425105 0.425105 0) 2 2 2
(0.245002 0.377499 0.377499 0) 0 0 2
(0.105346 0.447327 0 0.447327) 8 7 2
(0.0741053 0.462947 0 0.462947) 3 2 2
(0.437582 0.281209 0 0.281209) 6 6 1
(0.547005 0.226498 0.226498 0) 4 4 2
(0.0432813 0.478359 0.478359 0) 1 1 2
(0.381832 0.309084 0.309084 0) 7 6 1
(0.205367 0.397317 0.397317 0) 6 5 1
(0.650025 0.174988 0.174988 0) 2 2 2
(0.837374 0.0813131 0.0813131 0) 3 3 2
(0.247727 0.376136 0.376136 0) 3 3 2
(0.991952 0.00402378 0.00402378 0) 2 1 1
(0.617009 0.191495 0 0.191495) 7 7 1
(0.41928 0.29036 0 0.29036) 5 5 1
(0.98564 0.00717983 0.00717983 0) 2 1 1
(0.817055 0.0914723 0.0914723 0) 2 2 2
(0.754579 0.12271 0 0.12271) 2 1 2
(0.860762 0.0696188 0.0696188 0) 0 624 2
(0.369903 0.315048 0 0.315048) 5 5 1
(0.0152612 0.492369 0.492369 0) 3 3 2
(0.319626 0.340187 0.340187 0) 4 3 1
(0.899182 0.0504089 0.0504089 0) 8 8 2
(0.125325 0.437337 0.437337 0) 6 6 2
(0.763441 0.11828 0.11828 0) 5 5 2
(0.303494 0.348253 0 0.348253) 6 5 2
(0.178696 0.410652 0.410652 0) 6 5 1
(0.969385 0.0153076 0 0.0153076) 3 2 2
(0.0887423 0.455629 0 0.455629) 2 2 1
(0.879111 0.0604444 0.0604444 0) 1 1 2
(0.364364 0.317818 0.317818 0) 7 7 2
(0.862992 0.0685039 0.0685039 0) 0 0 2
(0.359077 0.320462 0.320462 0) 2 1 1
(0.22201 0.388995 0.388995 0) 4 4 2
(0.829377 0.0853114 0.0853114 0) 4 4 2
(0.574215 0.212893 0 0.212893) 6 6 1
(0.548634 0.225683 0 0.225683) 4 4 1
(0.506886 0.246557 0 0.246557) 2 2 1
(0.816321 0.0918393 0.0918393 0) 5 4 1
(0.0983459 0.450827 0.450827 0) 3 2 1
(0.134187 0.432906 0 0.432906) 8 8 1
(0.284591 0.357704 0 0.357704) 2 2 1
(0.0816702 0.459165 0 0.459165) 5 4 2
(0.895639 0.0521803 0 0.0521803) 8 8 1
(0.945695 0.0271526 0 0.0271526) 1 0 2
(0.970939 0.0145303 0.0145303 0) 6 6 2
(0.197319 0.40134 0 0.40134) 3 2 2
(0.61375 0.193125 0 0.193125) 5 4 2
(0.00642707 0.496786 0 0.496786) 2 2 1
(0.861275 0.0693625 0.0693625 0) 1 1 2
(0.433499 0.283251 0 0.283251) 1 1 1
(0.994747 0.00262675 0.00262675 0) 4 4 2
(0.0268993 0.48655 0 0.48655) 7 7 1
(0.200367 0.399817 0.399817 0) 3 3 2
(0.282419 0.358791 0.358791 0) 3 2 1
(0.745565 0.127217 0 0.127217) 6 5 2
(0.603892 0.198054 0.198054 0) 1 1 2
(0.813317 0.0933415 0 0.0933415) 7 7 1
(0.485373 0.257313 0 0.257313) 8 7 2
(0.0375352 0.481232 0.481232 0) 0 0 2
(0.364943 0.317529 0.317529 0) 9 8 1
(0.0881591 0.45592 0.45592 0) 3 2 1
(0.494295 0.252852 0 0.252852) 2 1 2
(0.294991 0.352505 0 0.352505) 5 4 2
(0.828958 0.0855211 0.0855211 0) 4 3 1
(0.915411 0.0422945 0 0.0422945) 2 1 2
(0.444629 0.277685 0 0.277685) 7 6 2
(0.748407 0.125797 0 0.125797) 5 4 2
(0.205882 0.397059 0.397059 0) 8 8 2
(0.402514 0.298743 0.298743 0) 3 3 2
(0.232552 0.383724 0 0.383724) 8 8 1
(0.269619 0.36519 0 0.36519) 5 4 2
(0.514738 0.242631 0.242631 0) 12 11 1
(0.426369 0.286815 0.286815 0) 4 4 2
(0.982146 0.00892704 0.00892704 0) 11 11 2
(0.690724 0.154638 0.154638 0) 9 8 1
(0.39335 0.303325 0.303325 0) 7 7 2
(0.31688 0.34156 0.34156 0) 5 5 2
(0.741514 0.129243 0.129243 0) 10 10 2
(0.656726 0.171637 0.171637 0) 3 3 2
(0.917459 0.0412706 0.0412706 0) 1 0 1
(0.983725 0.00813752 0.00813752 0) 2 1 1
(0.887782 0.0561088 0 0.0561088) 5 4 2
(0.1775 0.41125 0 0.41125) 11 10 2
(0.183991 0.408005 0 0.408005) 3 3 1
(0.172617 0.413692 0 0.413692) 3 2 2
(0.345562 0.327219 0 0.327219) 6 5 2
(0.586751 0.206624 0 0.206624) 7 6 2
(0.911876 0.0440618 0 0.0440618) 0 624 1
(0.899757 0.0501214 0.0501214 0) 5 4 1
(0.0318296 0.484085 0.484085 0) 3 3 2
(0.110009 0.444996 0.444996 0) 3 3 2
(0.861307 0.0693463 0 0.0693463) 2 1 2
(0.863713 0.0681433 0.0681433 0) 0 624 2
(0.706821 0.146589 0 0.146589) 6 6 1
(0.961695 0.0191523 0.0191523 0) 2 2 2
(0.954622 0.0226891 0 0.0226891) 3 2 2
(0.263212 0.368394 0 0.368394) 4 3 2
(0.165986 0.417007 0.417007 0) 3 3 2
(0.578791 0.210605 0.210605 0) 8 7 1
(0.9429 0.0285498 0.0285498 0) 3 3 2
(0.0553987 0.472301 0.472301 0) 3 3 2
(0.274138 0.362931 0 0.362931) 4 4 1
(0.796132 0.101934 0 0.101934) 5 5 1
(0.0959264 0.452037 0.452037 0) 5 4 1
(0.480446 0.259777 0 0.259777) 3 2 2
(0.0111771 0.494411 0.494411 0) 10 9 1
(0.224767 0.387616 0.387616 0) 5 5 2
(0.519428 0.240286 0.240286 0) 3 3 2
(0.298951 0.350524 0 0.350524) 3 3 1
(0.0991971 0.450401 0 0.450401) 1 1 1
(0.672413 0.163794 0 0.163794) 9 9 1
(0.848013 0.0759933 0.0759933 0) 4 4 2
(0.890816 0.054592 0 0.054592) 2 2 1
(0.380305 0.309848 0.309848 0) 10 9 1
(0.961701 0.0191493 0.0191493 0) 8 7 1
(0.184719 0.40764 0.40764 0) 3 2 1
(0.416291 0.291855 0 0.291855) 3 2 2
(0.88343 0.0582849 0.0582849 0) 1 0 1
(0.582737 0.208632 0.208632 0) 8 8 2
(0.495973 0.252013 0 0.252013) 6 6 1
(0.522116 0.238942 0.238942 0) 10 9 1
(0.97909 0.0104551 0 0.0104551) 1 0 2
(0.0524788 0.473761 0 0.473761) 6 6 1
(0.512394 0.243803 0.243803 0) 0 624 2
(0.916427 0.0417867 0 0.0417867) 6 5 2
(0.221288 0.389356 0.389356 0) 5 5 2
(0.514187 0.242907 0.242907 0) 3 3 2
(0.274536 0.362732 0.362732 0) 0 0 2
(0.629847 0.185076 0.185076 0) 5 5 2
(0.801597 0.0992014 0.0992014 0) 4 4 2
(0.0268842 0.486558 0.486558 0) 5 5 2
(0.483758 0.258121 0.258121 0) 5 4 1
(0.510991 0.244505 0 0.244505) 0 0 1
(0.834971 0.0825144 0 0.0825144) 3 2 2
(0.671544 0.164228 0 0.164228) 6 5 2
(0.363249 0.318376 0 0.318376) 4 3 2
(0.886529 0.0567355 0 0.0567355) 5 5 1
(0.51525 0.242375 0.242375 0) 1 0 1
(0.0940282 0.452986 0.452986 0) 5 4 1
(0.956722 0.0216392 0.0216392 0) 5 5 2
(0.87691 0.0615449 0.0615449 0) 7 6 1
(0.313184 0.343408 0 0.343408) 4 4 1
(0.255796 0.372102 0.372102 0) 11 10 1
(0.832514 0.083743 0 0.083743) 2 2 1
(0.475735 0.262132 0.262132 0) 8 7 1
(0.076976 0.461512 0.461512 0) 2 2 2
(0.52451 0.237745 0.237745 0) 6 5 1
(0.374743 0.312628 0 0.312628) 4 4 1
(0.874624 0.0626878 0 0.0626878) 2 2 1
(0.0154554 0.492272 0.492272 0) 3 3 2
(0.756992 0.121504 0 0.121504) 5 4 2
(0.150388 0.424806 0.424806 0) 4 4 2
(0.985309 0.00734534 0.00734534 0) 5 4 1
(0.864067 0.0679666 0 0.0679666) 3 3 1
(0.83034 0.0848301 0 0.0848301) 3 3 1
(0.55189 0.224055 0.224055 0) 2 1 1
(0.804829 0.0975854 0.0975854 0) 2 1 1
(0.566612 0.216694 0 0.216694) 5 5 1
(0.983882 0.00805887 0.00805887 0) 5 4 1
(0.288082 0.355959 0.355959 0) 1 0 1
(0.0281637 0.485918 0.485918 0) 9 9 2
(0.0339847 0.483008 0 0.483008) 3 2 2
(0.254378 0.372811 0.372811 0) 6 6 2
(0.379242 0.310379 0.310379 0) 4 3 1
(0.10675 0.446625 0.446625 0) 7 7 2
(0.921986 0.039007 0.039007 0) 5 4 1
(0.87661 0.0616948 0 0.0616948) 6 6 1
(0.22454 0.38773 0.38773 0) 5 4 1
(0.851071 0.0744644 0 0.0744644) 2 1 2
(0.327854 0.336073 0 0.336073) 4 4 1
(0.914727 0.0426364 0.0426364 0) 0 624 2
(0.581332 0.209334 0 0.209334) 4 4 1
(0.458453 0.270774 0 0.270774) 6 6 1
(0.672642 0.163679 0.163679 0) 5 5 2
(0.144525 0.427737 0.427737 0) 7 6 1
(0.626541 0.18673 0 0.18673) 0 0 1
(0.760515 0.119742 0 0.119742) 2 1 2
(0.293482 0.353259 0.353259 0) 9 9 2
(0.68925 0.155375 0.155375 0) 5 5 2
(0.563679 0.218161 0 0.218161) 3 3 1
(0.219945 0.390027 0.390027 0) 7 6 1
(0.255072 0.372464 0.372464 0) 5 5 2
(0.227143 0.386428 0 0.386428) 4 3 2
(0.863276 0.0683619 0.0683619 0) 6 5 1
(0.284287 0.357856 0.357856 0) 5 4 1
(0.430541 0.284729 0.284729 0) 3 2 1
(0.614822 0.192589 0 0.192589) 3 3 1
(0.75609 0.121955 0.121955 0) 4 3 1
(0.0261255 0.486937 0.486937 0) 5 4 1
(0.74457 0.127715 0 0.127715) 4 4 1
(0.799387 0.100306 0 0.100306) 2 2 1
(0.0102748 0.494863 0.494863 0) 5 4 1
(0.670919 0.16454 0 0.16454) 2 2 1
(0.534966 0.232517 0.232517 0) 5 4 1
(0.708007 0.145997 0.145997 0) 4 4 2
(0.243396 0.378302 0 0.378302) 6 6 1
(0.529488 0.235256 0 0.235256) 2 1 2
(0.968005 0.0159975 0.0159975 0) 7 7 2
(0.430314 0.284843 0 0.284843) 4 4 1
(0.9976 0.00119989 0.00119989 0) 4 4 2
(0.524878 0.237561 0 0.237561) 8 7 2
(0.558556 0.220722 0.220722 0) 0 0 2
(0.886016 0.0569918 0 0.0569918) 7 6 2
(0.808021 0.0959897 0 0.0959897) 7 7 1
(0.261358 0.369321 0 0.369321) 7 6 2
(0.149687 0.425156 0.425156 0) 5 4 1
(0.66497 0.167515 0 0.167515) 3 2 2
(0.844238 0.077881 0.077881 0) 2 2 2
(0.123177 0.438412 0.438412 0) 4 4 2
(0.463461 0.268269 0.268269 0) 3 2 1
(0.658485 0.170757 0.170757 0) 3 2 1
(0.142139 0.42893 0 0.42893) 4 4 1
(0.764448 0.117776 0 0.117776) 6 6 1
(0.597646 0.201177 0.201177 0) 4 4 2
(0.779085 0.110457 0.110457 0) 8 8 2
(0.18804 0.40598 0.40598 0) 1 1 2
(0.692451 0.153774 0.153774 0) 3 3 2
(0.719935 0.140033 0 0.140033) 5 5 1
(0.90303 0.048485 0 0.048485) 2 2 1
(0.944031 0.0279847 0.0279847 0) 10 9 1
(0.412878 0.293561 0.293561 0) 7 6 1
(0.237859 0.381071 0 0.381071) 8 8 1
(0.697309 0.151345 0.151345 0) 4 3 1
(0.098461 0.45077 0.45077 0) 7 6 1
(0.270742 0.364629 0.364629 0) 4 3 1
(0.0732531 0.463373 0 0.463373) 8 8 1
(0.317443 0.341279 0 0.341279) 6 6 1
(0.0954364 0.452282 0.452282 0) 6 6 2
(0.710145 0.144928 0 0.144928) 7 6 2
(0.794611 0.102695 0.102695 0) 7 6 1
(0.0097256 0.495137 0 0.495137) 3 3 1
(0.491231 0.254384 0 0.254384) 10 10 1
(0.849543 0.0752285 0 0.0752285) 8 8 1
(0.839452 0.080274 0.080274 0) 6 5 1
(0.201929 0.399035 0 0.399035) 3 2 2
(0.973736 0.0131319 0 0.0131319) 6 6 1
(0.157394 0.421303 0.421303 0) 7 7 2
(0.925436 0.0372822 0 0.0372822) 4 3 2
(0.200456 0.399772 0 0.399772) 3 2 2
(0.704169 0.147916 0 0.147916) 5 4 2
(0.403936 0.298032 0 0.298032) 4 3 2
(0.832264 0.0838681 0.0838681 0) 10 10 2
(0.504861 0.24757 0 0.24757) 9 8 2
(0.678038 0.160981 0.160981 0) 5 5 2
(0.364537 0.317731 0 0.317731) 7 6 2
(0.888378 0.0558108 0 0.0558108) 9 8 2
(0.260856 0.369572 0 0.369572) 1 1 1
(0.270219 0.364891 0 0.364891) 1 0 2
(0.0350954 0.482452 0.482452 0) 1 1 2
(0.578264 0.210868 0 0.210868) 6 5 2
(0.267357 0.366322 0.366322 0) 7 7 2
(0.835139 0.0824307 0 0.0824307) 4 3 2
(0.939951 0.0300244 0 0.0300244) 6 5 2
(0.667552 0.166224 0.166224 0) 9 9 2
(0.672094 0.163953 0.163953 0) 3 3 2
(0.403047 0.298477 0.298477 0) 6 6 2
(0.236167 0.381916 0.381916 0) 3 3 2
(0.823948 0.088026 0.088026 0) 6 5 1
(0.833901 0.0830497 0.0830497 0) 2 2 2
(0.361917 0.319041 0.319041 0) 4 3 1
(0.125328 0.437336 0.437336 0) 6 6 2
(0.171494 0.414253 0.414253 0) 1 0 1
(0.455691 0.272154 0 0.272154) 5 5 1
(0.698039 0.150981 0 0.150981) 6 6 1
(0.118615 0.440692 0.440692 0) 7 7 2
(0.943949 0.0280255 0.0280255 0) 2 1 1
(0.418115 0.290942 0.290942 0) 12 12 2
(0.908249 0.0458754 0 0.0458754) 4 3 2
(0.31417 0.342915 0.342915 0) 11 11 2
(0.918076 0.040962 0 0.040962) 4 4 1
(0.838139 0.0809307 0 0.0809307) 1 0 2
(0.140112 0.429944 0.429944 0) 3 3 2
(0.328976 0.335512 0 0.335512) 1 0 2
(0.165997 0.417002 0.417002 0) 8 7 1
(0.864702 0.0676488 0 0.0676488) 8 7 2