-4.99 	199.67 	416.34 	940770
-4.98 	242.698 	229.188 	50524.9
-4.97 	271.6 	205.535 	44329.9
-4.96 	275.613 	205.519 	44277.9
-4.95 	275.809 	205.95 	44204.6
-4.94 	275.788 	206.13 	44179.1
-4.93 	275.784 	206.151 	44175.5
-4.92 	275.785 	206.111 	44176.2
-4.91 	275.782 	206.075 	44174.3
-4.9 	275.765 	206.117 	44164.1
-4.89 	275.726 	206.299 	44141.2
-4.88 	275.64 	206.611 	44092.8
-4.87 	275.517 	206.96 	44023.5
-4.86 	275.416 	207.233 	43966.2
-4.85 	275.353 	207.391 	43931.2
-4.84 	275.312 	207.512 	43907.4
-4.83 	275.274 	207.673 	43886
-4.82 	275.214 	207.9 	43851.8
-4.81 	275.1 	208.224 	43788.1
-4.8 	274.928 	208.71 	43692.2
-4.79 	274.725 	209.319 	43578.4
-4.78 	274.536 	209.899 	43473.6
-4.77 	274.384 	210.387 	43388.7
-4.76 	274.237 	210.85 	43306.9
-4.75 	274.046 	211.421 	43200.9
-4.74 	273.764 	212.25 	43045.9
-4.73 	273.45 	213.194 	42873.1
-4.72 	273.261 	213.778 	42768.9
-4.71 	273.217 	213.929 	42744.6
-4.7 	273.231 	213.911 	42751.9
-4.69 	273.287 	213.724 	42781.5
-4.68 	273.428 	213.27 	42859.2
-4.67 	273.704 	212.461 	43010.4
-4.66 	274.122 	211.195 	43240.4
-4.65 	274.68 	209.505 	43548.4
-4.64 	275.349 	207.488 	43920.6
-4.63 	276.091 	205.25 	44335.6
-4.62 	276.874 	202.892 	44776.9
-4.61 	277.68 	200.47 	45234.1
-4.6 	278.498 	198.012 	45702.1
-4.59 	279.327 	195.529 	46179.2
-4.58 	280.166 	193.02 	46665.5
-4.57 	281.014 	190.485 	47161.3
-4.56 	281.872 	187.924 	47666.8
-4.55 	282.74 	185.338 	48181.8
-4.54 	283.616 	182.731 	48706
-4.53 	284.5 	180.105 	49238.8
-4.52 	285.39 	177.465 	49779.5
-4.51 	286.286 	174.814 	50327.7
-4.5 	287.186 	172.154 	50882.7
-4.49 	288.089 	169.489 	51444.2
-4.48 	288.995 	166.82 	52011.8
-4.47 	289.903 	164.148 	52585.4
-4.46 	290.812 	161.474 	53164.7
-4.45 	291.724 	158.799 	53749.7
-4.44 	292.638 	156.125 	54340.2
-4.43 	293.553 	153.451 	54936.4
-4.42 	294.469 	150.775 	55538.1
-4.41 	295.386 	148.101 	56145.3
-4.4 	296.305 	145.428 	56758.1
-4.39 	297.225 	142.755 	57376.5
-4.38 	298.146 	140.082 	58000.5
-4.37 	299.068 	137.41 	58630.2
-4.36 	299.992 	134.738 	59265.7
-4.35 	300.918 	132.067 	59906.9
-4.34 	301.844 	129.397 	60553.9
-4.33 	302.771 	126.726 	61206.8
-4.32 	303.7 	124.056 	61865.6
-4.31 	304.63 	121.386 	62530.6
-4.3 	305.562 	118.716 	63201.6
-4.29 	306.495 	116.046 	63878.9
-4.28 	307.43 	113.376 	64562.4
-4.27 	308.366 	110.704 	65252.4
-4.26 	309.304 	108.032 	65948.9
-4.25 	310.245 	105.359 	66652
-4.24 	311.186 	102.685 	67361.8
-4.23 	312.13 	100.01 	68078.4
-4.22 	313.075 	97.3334 	68802.1
-4.21 	314.023 	94.6548 	69532.7
-4.2 	314.972 	91.974 	70270.6
-4.19 	315.924 	89.291 	71015.7
-4.18 	316.879 	86.6056 	71768.3
-4.17 	317.836 	83.9175 	72528.6
-4.16 	318.795 	81.2264 	73296.5
-4.15 	319.756 	78.5322 	74072.4
-4.14 	320.721 	75.8346 	74856.2
-4.13 	321.688 	73.1332 	75648.3
-4.12 	322.659 	70.4278 	76448.7
-4.11 	323.632 	67.718 	77257.6
-4.1 	324.609 	65.0035 	78075.4
-4.09 	325.589 	62.2839 	78902
-4.08 	326.572 	59.5587 	79737.9
-4.07 	327.558 	56.8275 	80583.3
-4.06 	328.549 	54.0897 	81438.4
-4.05 	329.544 	51.3448 	82303.4
-4.04 	330.543 	48.5921 	83178.9
-4.03 	331.547 	45.831 	84065
-4.02 	332.555 	43.0606 	84962.2
-4.01 	333.569 	40.2796 	85871.1
-4 	334.591 	37.4849 	86792.9
-3.99 	335.62 	34.6691 	87730.1
-3.98 	336.666 	31.814 	88689.4
-3.97 	337.744 	28.8786 	89685
-3.96 	338.884 	25.778 	90747
-3.95 	340.147 	22.349 	91934.2
-3.94 	341.639 	18.3056 	93351.4
-3.93 	343.48 	13.3283 	95121.4
-3.92 	345.487 	7.91511 	97078.1
-3.91 	347.03 	3.76423 	98600.6
-3.9 	347.827 	1.62456 	99393.9
-3.89 	348.171 	0.702016 	99737.6
-3.88 	348.319 	0.303666 	99886.5
-3.87 	348.384 	0.130581 	99951.2
-3.86 	348.412 	0.0555955 	99979.2
-3.85 	348.423 	0.0233823 	99991.3
-3.84 	348.428 	0.00970306 	99996.4
-3.83 	348.43 	0.00397062 	99998.5
-3.82 	348.432 	0.00160194 	99999.4
-3.81 	348.432 	0.000637206 	99999.8
-3.8 	348.432 	0.000249929 	99999.9
-3.79 	348.432 	9.66814e-05 	99999.9
-3.78 	348.432 	3.68949e-05 	100000
-3.77 	348.432 	1.38929e-05 	100000
-3.76 	348.432 	5.16346e-06 	100000
-3.75 	348.432 	1.89461e-06 	100000
-3.74 	348.432 	6.86501e-07 	100000
-3.73 	348.432 	2.45705e-07 	100000
-3.72 	348.432 	8.68837e-08 	100000
-3.71 	348.432 	3.03597e-08 	100000
-3.7 	348.432 	1.04843e-08 	100000
-3.69 	348.432 	3.57859e-09 	100000
-3.68 	348.432 	1.2068e-09 	100000
-3.67 	348.432 	4.02382e-10 	100000
-3.66 	348.432 	1.32142e-10 	100000
-3.65 	348.432 	4.23654e-11 	100000
-3.64 	348.432 	1.29463e-11 	100000
-3.63 	348.432 	3.52956e-12 	100000
-3.62 	348.432 	7.37098e-13 	100000
-3.61 	348.432 	2.36661e-13 	100000
-3.6 	348.432 	4.52513e-13 	100000
-3.59 	348.432 	4.28412e-13 	100000
-3.58 	348.432 	2.81113e-13 	100000
-3.57 	348.432 	1.6443e-13 	100000
-3.56 	348.432 	1.57665e-13 	100000
-3.55 	348.432 	2.02751e-13 	100000
-3.54 	348.432 	2.8462e-13 	100000
-3.53 	348.432 	3.64158e-13 	100000
-3.52 	348.432 	3.82536e-13 	100000
-3.51 	348.432 	3.37298e-13 	100000
-3.5 	348.432 	2.84011e-13 	100000
-3.49 	348.432 	2.38148e-13 	100000
-3.48 	348.432 	1.9308e-13 	100000
-3.47 	348.432 	1.65966e-13 	100000
-3.46 	348.432 	1.30142e-13 	100000
-3.45 	348.432 	1.0665e-13 	100000
-3.44 	348.432 	7.76844e-14 	100000
-3.43 	348.432 	3.14412e-14 	100000
-3.42 	348.432 	2.51512e-14 	100000
-3.41 	348.432 	4.99778e-14 	100000
-3.4 	348.432 	3.9995e-14 	100000
-3.39 	348.432 	4.55358e-14 	100000
-3.38 	348.432 	7.21524e-14 	100000
-3.37 	348.432 	4.64435e-14 	100000
-3.36 	348.432 	2.23442e-14 	100000
-3.35 	348.432 	4.8687e-14 	100000
-3.34 	348.432 	1.17751e-13 	100000
-3.33 	348.432 	1.58758e-13 	100000
-3.32 	348.432 	1.29641e-13 	100000
-3.31 	348.432 	9.46683e-14 	100000
-3.3 	348.432 	8.04581e-14 	100000
-3.29 	348.432 	8.66907e-14 	100000
-3.28 	348.432 	1.08415e-13 	100000
-3.27 	348.432 	1.61684e-13 	100000
-3.26 	348.432 	1.88917e-13 	100000
-3.25 	348.432 	2.24361e-13 	100000
-3.24 	348.432 	2.54867e-13 	100000
-3.23 	348.432 	2.32201e-13 	100000
-3.22 	348.432 	2.39978e-13 	100000
-3.21 	348.432 	2.15889e-13 	100000
-3.2 	348.432 	2.16434e-13 	100000
-3.19 	348.432 	2.99797e-13 	100000
-3.18 	348.432 	3.62563e-13 	100000
-3.17 	348.432 	3.91051e-13 	100000
-3.16 	348.432 	3.51339e-13 	100000
-3.15 	348.432 	2.12408e-13 	100000
-3.14 	348.432 	7.3923e-14 	100000
-3.13 	348.432 	4.78882e-14 	100000
-3.12 	348.432 	9.06663e-14 	100000
-3.11 	348.432 	1.71856e-13 	100000
-3.1 	348.432 	2.61075e-13 	100000
-3.09 	348.432 	2.87039e-13 	100000
-3.08 	348.432 	3.72494e-13 	100000
-3.07 	348.432 	4.10953e-13 	100000
-3.06 	348.432 	3.16232e-13 	100000
-3.05 	348.432 	2.70479e-13 	100000
-3.04 	348.432 	3.38122e-13 	100000
-3.03 	348.432 	3.75663e-13 	100000
-3.02 	348.432 	3.53389e-13 	100000
-3.01 	348.432 	4.20943e-13 	100000
-3 	348.432 	5.06693e-13 	100000
-2.99 	348.432 	6.06005e-13 	100000
-2.98 	348.432 	6.87907e-13 	100000
-2.97 	348.432 	6.29015e-13 	100000
-2.96 	348.432 	5.13967e-13 	100000
-2.95 	348.432 	4.28924e-13 	100000
-2.94 	348.432 	3.75524e-13 	100000
-2.93 	348.432 	3.72158e-13 	100000
-2.92 	348.432 	3.25528e-13 	100000
-2.91 	348.432 	3.22857e-13 	100000
-2.9 	348.432 	3.88098e-13 	100000
-2.89 	348.432 	3.8958e-13 	100000
-2.88 	348.432 	3.66274e-13 	100000
-2.87 	348.432 	3.88373e-13 	100000
-2.86 	348.432 	4.03386e-13 	100000
-2.85 	348.432 	3.11201e-13 	100000
-2.84 	348.432 	2.08556e-13 	100000
-2.83 	348.432 	2.27632e-13 	100000
-2.82 	348.432 	3.44199e-13 	100000
-2.81 	348.432 	4.24096e-13 	100000
-2.8 	348.432 	4.17973e-13 	100000
-2.79 	348.432 	3.74808e-13 	100000
-2.78 	348.432 	3.3094e-13 	100000
-2.77 	348.432 	2.5557e-13 	100000
-2.76 	348.432 	1.90525e-13 	100000
-2.75 	348.432 	1.68228e-13 	100000
-2.74 	348.432 	2.25088e-13 	100000
-2.73 	348.432 	3.60693e-13 	100000
-2.72 	348.432 	4.11559e-13 	100000
-2.71 	348.432 	4.08473e-13 	100000
-2.7 	348.432 	4.10063e-13 	100000
-2.69 	348.432 	3.80361e-13 	100000
-2.68 	348.432 	3.53821e-13 	100000
-2.67 	348.432 	3.72869e-13 	100000
-2.66 	348.432 	5.14586e-13 	100000
-2.65 	348.432 	6.64809e-13 	100000
-2.64 	348.432 	7.11067e-13 	100000
-2.63 	348.432 	6.60772e-13 	100000
-2.62 	348.432 	5.10309e-13 	100000
-2.61 	348.432 	4.08478e-13 	100000
-2.6 	348.432 	4.10554e-13 	100000
-2.59 	348.432 	3.93781e-13 	100000
-2.58 	348.432 	3.59894e-13 	100000
-2.57 	348.432 	3.26139e-13 	100000
-2.56 	348.432 	3.15603e-13 	100000
-2.55 	348.432 	3.2323e-13 	100000
-2.54 	348.432 	2.84644e-13 	100000
-2.53 	348.432 	2.2179e-13 	100000
-2.52 	348.432 	1.98951e-13 	100000
-2.51 	348.432 	2.87196e-13 	100000
-2.5 	348.432 	3.84391e-13 	100000
-2.49 	348.432 	4.25962e-13 	100000
-2.48 	348.432 	4.08063e-13 	100000
-2.47 	348.432 	2.56576e-13 	100000
-2.46 	348.432 	1.30354e-13 	100000
-2.45 	348.432 	7.42489e-14 	100000
-2.44 	348.432 	8.26944e-14 	100000
-2.43 	348.432 	1.16462e-13 	100000
-2.42 	348.432 	9.80116e-14 	100000
-2.41 	348.432 	5.90367e-14 	100000
-2.4 	348.432 	1.76563e-14 	100000
-2.39 	348.432 	4.25141e-14 	100000
-2.38 	348.432 	7.8103e-14 	100000
-2.37 	348.432 	6.92493e-14 	100000
-2.36 	348.432 	6.0588e-14 	100000
-2.35 	348.432 	4.90117e-14 	100000
-2.34 	348.432 	4.88445e-14 	100000
-2.33 	348.432 	1.13312e-13 	100000
-2.32 	348.432 	1.83012e-13 	100000
-2.31 	348.432 	2.26221e-13 	100000
-2.3 	348.432 	2.92094e-13 	100000
-2.29 	348.432 	3.10123e-13 	100000
-2.28 	348.432 	2.60213e-13 	100000
-2.27 	348.432 	2.37827e-13 	100000
-2.26 	348.432 	2.5846e-13 	100000
-2.25 	348.432 	2.59293e-13 	100000
-2.24 	348.432 	2.45146e-13 	100000
-2.23 	348.432 	2.18722e-13 	100000
-2.22 	348.432 	1.68615e-13 	100000
-2.21 	348.432 	1.97006e-13 	100000
-2.2 	348.432 	2.28641e-13 	100000
-2.19 	348.432 	1.97527e-13 	100000
-2.18 	348.432 	1.7832e-13 	100000
-2.17 	348.432 	1.6308e-13 	100000
-2.16 	348.432 	1.11331e-13 	100000
-2.15 	348.432 	4.85917e-14 	100000
-2.14 	348.432 	4.69395e-14 	100000
-2.13 	348.432 	6.73501e-14 	100000
-2.12 	348.432 	6.93952e-14 	100000
-2.11 	348.432 	6.30824e-14 	100000
-2.1 	348.432 	6.67981e-14 	100000
-2.09 	348.432 	9.5164e-14 	100000
-2.08 	348.432 	1.11878e-13 	100000
-2.07 	348.432 	1.57367e-13 	100000
-2.06 	348.432 	2.92958e-13 	100000
-2.05 	348.432 	4.00258e-13 	100000
-2.04 	348.432 	3.87419e-13 	100000
-2.03 	348.432 	3.13922e-13 	100000
-2.02 	348.432 	2.98085e-13 	100000
-2.01 	348.432 	3.54502e-13 	100000
-2 	348.432 	4.17786e-13 	100000
-1.99 	348.432 	4.28317e-13 	100000
-1.98 	348.432 	3.89461e-13 	100000
-1.97 	348.432 	3.32754e-13 	100000
-1.96 	348.432 	2.8069e-13 	100000
-1.95 	348.432 	2.71451e-13 	100000
-1.94 	348.432 	2.26644e-13 	100000
-1.93 	348.432 	1.3678e-13 	100000
-1.92 	348.432 	1.28123e-13 	100000
-1.91 	348.432 	1.83697e-13 	100000
-1.9 	348.432 	1.36343e-13 	100000
-1.89 	348.432 	4.72459e-14 	100000
-1.88 	348.432 	2.76782e-14 	100000
-1.87 	348.432 	4.48697e-14 	100000
-1.86 	348.432 	8.98982e-14 	100000
-1.85 	348.432 	1.01772e-13 	100000
-1.84 	348.432 	6.47131e-14 	100000
-1.83 	348.432 	7.06268e-14 	100000
-1.82 	348.432 	8.17362e-14 	100000
-1.81 	348.432 	3.96407e-14 	100000
-1.8 	348.432 	2.46137e-14 	100000
-1.79 	348.432 	2.17776e-14 	100000
-1.78 	348.432 	3.48924e-14 	100000
-1.77 	348.432 	4.35506e-14 	100000
-1.76 	348.432 	2.89901e-14 	100000
-1.75 	348.432 	2.5995e-14 	100000
-1.74 	348.432 	4.46342e-14 	100000
-1.73 	348.432 	4.0063e-14 	100000
-1.72 	348.432 	1.60498e-14 	100000
-1.71 	348.432 	3.61102e-14 	100000
-1.7 	348.432 	3.83958e-14 	100000
-1.69 	348.432 	6.08628e-14 	100000
-1.68 	348.432 	9.51062e-14 	100000
-1.67 	348.432 	7.24311e-14 	100000
-1.66 	348.432 	3.59255e-14 	100000
-1.65 	348.432 	4.83542e-14 	100000
-1.64 	348.432 	1.25148e-13 	100000
-1.63 	348.432 	1.50058e-13 	100000
-1.62 	348.432 	7.86728e-14 	100000
-1.61 	348.432 	4.2518e-14 	100000
-1.6 	348.432 	3.51548e-14 	100000
-1.59 	348.432 	4.54943e-14 	100000
-1.58 	348.432 	3.6787e-14 	100000
-1.57 	348.432 	3.54138e-14 	100000
-1.56 	348.432 	4.21683e-14 	100000
-1.55 	348.432 	6.02458e-14 	100000
-1.54 	348.432 	7.91646e-14 	100000
-1.53 	348.432 	3.1834e-14 	100000
-1.52 	348.432 	3.69415e-14 	100000
-1.51 	348.432 	8.28956e-14 	100000
-1.5 	348.432 	6.29869e-14 	100000
-1.49 	348.432 	2.51677e-14 	100000
-1.48 	348.432 	4.13245e-14 	100000
-1.47 	348.432 	1.04317e-13 	100000
-1.46 	348.432 	1.20503e-13 	100000
-1.45 	348.432 	6.89131e-14 	100000
-1.44 	348.432 	6.04365e-14 	100000
-1.43 	348.432 	8.94261e-14 	100000
-1.42 	348.432 	7.55514e-14 	100000
-1.41 	348.432 	3.3952e-14 	100000
-1.4 	348.432 	2.56668e-14 	100000
-1.39 	348.432 	1.75348e-13 	100000
-1.38 	348.432 	7.28774e-13 	100000
-1.37 	348.432 	2.48595e-12 	100000
-1.36 	348.432 	8.08366e-12 	100000
-1.35 	348.432 	2.59758e-11 	100000
-1.34 	348.432 	8.11336e-11 	100000
-1.33 	348.432 	2.48009e-10 	100000
-1.32 	348.432 	7.47832e-10 	100000
-1.31 	348.432 	2.22457e-09 	100000
-1.3 	348.432 	6.53939e-09 	100000
-1.29 	348.432 	1.90023e-08 	100000
-1.28 	348.432 	5.45818e-08 	100000
-1.27 	348.432 	1.54947e-07 	100000
-1.26 	348.432 	4.34617e-07 	100000
-1.25 	348.432 	1.20423e-06 	100000
-1.24 	348.432 	3.2953e-06 	100000
-1.23 	348.432 	8.90339e-06 	100000
-1.22 	348.432 	2.37451e-05 	100000
-1.21 	348.432 	6.24935e-05 	100000
-1.2 	348.432 	0.000162265 	99999.9
-1.19 	348.432 	0.000415559 	99999.9
-1.18 	348.432 	0.00104944 	99999.6
-1.17 	348.431 	0.00261293 	99999
-1.16 	348.43 	0.00641357 	99997.6
-1.15 	348.426 	0.0155207 	99994.2
-1.14 	348.418 	0.0370445 	99986.1
-1.13 	348.399 	0.0872799 	99967.4
-1.12 	348.356 	0.203341 	99923.9
-1.11 	348.257 	0.469917 	99824.4
-1.1 	348.029 	1.08319 	99595.5
-1.09 	347.497 	2.50975 	99065
-1.08 	346.332 	5.64219 	97909.2
-1.07 	344.477 	10.6365 	96090.4
-1.06 	342.5 	15.9754 	94176.4
-1.05 	340.851 	20.4395 	92601.1
-1.04 	339.495 	24.1181 	91320.1
-1.03 	338.305 	27.3503 	90207.1
-1.02 	337.202 	30.354 	89183.3
-1.01 	336.142 	33.2465 	88207
-1 	335.101 	36.0866 	87257.2
-0.99 	334.073 	38.9014 	86324.6
-0.98 	333.051 	41.7023 	85405.1
-0.97 	332.034 	44.4937 	84497.1
-0.96 	331.021 	47.2775 	83599.8
-0.95 	330.013 	50.0543 	82712.9
-0.94 	329.007 	52.8251 	81835.9
-0.93 	328.006 	55.5902 	80968.8
-0.92 	327.008 	58.3502 	80111.1
-0.91 	326.014 	61.1056 	79262.6
-0.9 	325.022 	63.8568 	78423
-0.89 	324.033 	66.6044 	77592.2
-0.88 	323.046 	69.3486 	76770
-0.87 	322.062 	72.0898 	75956.1
-0.86 	321.081 	74.8284 	75150.4
-0.85 	320.102 	77.5644 	74352.8
-0.84 	319.126 	80.2982 	73563
-0.83 	318.151 	83.03 	72781.1
-0.82 	317.18 	85.7601 	72006.8
-0.81 	316.21 	88.4884 	71239.9
-0.8 	315.241 	91.2152 	70480.6
-0.79 	314.275 	93.9407 	69728.6
-0.78 	313.312 	96.6649 	68983.8
-0.77 	312.349 	99.3879 	68246.1
-0.76 	311.389 	102.11 	67515.4
-0.75 	310.43 	104.831 	66791.8
-0.74 	309.473 	107.551 	66075
-0.73 	308.518 	110.271 	65365
-0.72 	307.565 	112.99 	64661.7
-0.71 	306.613 	115.708 	63965.1
-0.7 	305.663 	118.426 	63274.9
-0.69 	304.715 	121.143 	62591.3
-0.68 	303.768 	123.861 	61914.2
-0.67 	302.823 	126.577 	61243.4
-0.66 	301.88 	129.293 	60578.9
-0.65 	300.937 	132.01 	59920.7
-0.64 	299.996 	134.726 	59268.6
-0.63 	299.058 	137.442 	58622.6
-0.62 	298.12 	140.158 	57982.8
-0.61 	297.183 	142.874 	57348.8
-0.6 	296.249 	145.59 	56720.8
-0.59 	295.316 	148.306 	56098.7
-0.58 	294.385 	151.022 	55482.4
-0.57 	293.454 	153.738 	54872
-0.56 	292.525 	156.454 	54267.2
-0.55 	291.597 	159.171 	53668.2
-0.54 	290.672 	161.887 	53074.7
-0.53 	289.747 	164.605 	52486.9
-0.52 	288.824 	167.322 	51904.5
-0.51 	287.901 	170.04 	51327.6
-0.5 	286.981 	172.758 	50756.2
-0.49 	286.062 	175.476 	50190.2
-0.48 	285.144 	178.195 	49629.5
-0.47 	284.228 	180.913 	49074.2
-0.46 	283.312 	183.633 	48524.1
-0.45 	282.399 	186.353 	47979.2
-0.44 	281.486 	189.073 	47439.4
-0.43 	280.576 	191.793 	46904.9
-0.42 	279.666 	194.513 	46375.4
-0.41 	278.757 	197.235 	45850.9
-0.4 	277.85 	199.957 	45331.6
-0.39 	276.945 	202.678 	44817.1
-0.38 	276.04 	205.401 	44307.7
-0.37 	275.137 	208.124 	43803.1
-0.36 	274.236 	210.846 	43303.4
-0.35 	273.336 	213.57 	42808.6
-0.34 	272.437 	216.293 	42318.6
-0.33 	271.539 	219.016 	41833.4
-0.32 	270.644 	221.74 	41352.9
-0.31 	269.749 	224.464 	40877.1
-0.3 	268.856 	227.188 	40405.9
-0.29 	267.965 	229.912 	39939.6
-0.28 	267.075 	232.636 	39477.8
-0.27 	266.186 	235.359 	39020.6
-0.26 	265.299 	238.082 	38567.9
-0.25 	264.414 	240.805 	38119.9
-0.24 	263.53 	243.528 	37676.5
-0.23 	262.649 	246.25 	37237.6
-0.22 	261.769 	248.97 	36803.1
-0.21 	260.89 	251.69 	36373.2
-0.2 	260.013 	254.409 	35947.8
-0.19 	259.139 	257.127 	35526.8
-0.18 	258.266 	259.842 	35110.2
-0.17 	257.395 	262.557 	34698.2
-0.16 	256.526 	265.269 	34290.6
-0.15 	255.66 	267.98 	33887.4
-0.14 	254.796 	270.687 	33488.8
-0.13 	253.935 	273.389 	33094.9
-0.12 	253.077 	276.084 	32705.9
-0.11 	252.226 	278.765 	32322.9
-0.1 	251.385 	281.418 	31947.7
-0.09 	250.565 	284.012 	31584.6
-0.08 	249.784 	286.481 	31242
-0.07 	249.081 	288.714 	30935.4
-0.06 	248.501 	290.553 	30684.3
-0.05 	248.084 	291.866 	30505.2
-0.04 	247.838 	292.654 	30400.1
-0.03 	247.721 	293.044 	30348.9
-0.02 	247.661 	293.224 	30323.8
-0.01 	247.615 	293.356 	30304.7
0 	247.559 	293.514 	30282.5
0.01 	247.515 	293.657 	30264.2
0.02 	247.5 	293.728 	30256.3
0.03 	247.495 	293.741 	30254.6
0.04 	247.495 	293.729 	30255.5
0.05 	247.497 	293.711 	30256.9
0.06 	247.498 	293.7 	30257.9
0.07 	247.5 	293.694 	30259
0.08 	247.502 	293.693 	30259.9
0.09 	247.502 	293.695 	30260.2
0.1 	247.501 	293.694 	30260.2
0.11 	247.503 	293.68 	30261.6
0.12 	247.518 	293.624 	30268.7
0.13 	247.541 	293.54 	30279.8
0.14 	247.56 	293.48 	30288.2
0.15 	247.572 	293.452 	30292.6
0.16 	247.576 	293.44 	30294.2
0.17 	247.575 	293.434 	30294.7
0.18 	247.572 	293.432 	30294.8
0.19 	247.571 	293.428 	30295.1
0.2 	247.575 	293.413 	30297.2
0.21 	247.587 	293.372 	30302.8
0.22 	247.603 	293.321 	30309.8
0.23 	247.613 	293.286 	30314.4
0.24 	247.617 	293.269 	30316.7
0.25 	247.615 	293.26 	30317.6
0.26 	247.613 	293.256 	30318.1
0.27 	247.612 	293.255 	30318.4
0.28 	247.614 	293.248 	30319.4
0.29 	247.624 	293.216 	30323.8
0.3 	247.644 	293.151 	30332.6
0.31 	247.662 	293.092 	30340.5
0.32 	247.667 	293.067 	30343.9
0.33 	247.663 	293.066 	30344
0.34 	247.65 	293.098 	30339.7
0.35 	247.625 	293.17 	30330.1
0.36 	247.601 	293.24 	30320.6
0.37 	247.589 	293.275 	30315.6
0.38 	247.584 	293.288 	30313.9
0.39 	247.581 	293.292 	30313.2
0.4 	247.574 	293.303 	30311.8
0.41 	247.56 	293.333 	30308
0.42 	247.544 	293.371 	30303
0.43 	247.531 	293.401 	30298.7
0.44 	247.524 	293.42 	30296
0.45 	247.524 	293.421 	30295.9
0.46 	247.532 	293.398 	30299.2
0.47 	247.538 	293.371 	30302.8
0.48 	247.536 	293.364 	30303.6
0.49 	247.529 	293.373 	30302.3
0.5 	247.517 	293.391 	30299.8
0.51 	247.505 	293.409 	30297
0.52 	247.495 	293.422 	30295.2
0.53 	247.493 	293.419 	30295.8
0.54 	247.504 	293.385 	30300.8
0.55 	247.515 	293.341 	30306.7
0.56 	247.517 	293.32 	30309.4
0.57 	247.513 	293.316 	30309.8
0.58 	247.507 	293.318 	30309.4
0.59 	247.5 	293.326 	30308.2
0.6 	247.49 	293.337 	30307
0.61 	247.486 	293.333 	30307.9
0.62 	247.497 	293.293 	30313.5
0.63 	247.506 	293.246 	30319.4
0.64 	247.505 	293.227 	30321.6
0.65 	247.5 	293.224 	30321.9
0.66 	247.493 	293.223 	30322.2
0.67 	247.486 	293.226 	30322.3
0.68 	247.475 	293.232 	30321.7
0.69 	247.469 	293.222 	30322.8
0.7 	247.472 	293.186 	30327.1
0.71 	247.471 	293.16 	30329.9
0.72 	247.456 	293.176 	30327.4
0.73 	247.432 	293.216 	30322.2
0.74 	247.407 	293.258 	30317.6
0.75 	247.383 	293.301 	30311.7
0.76 	247.371 	293.349 	30305
0.77 	247.385 	293.368 	30302.8
0.78 	247.434 	293.334 	30307.4
0.79 	247.538 	293.303 	30311.7
0.8 	247.746 	293.31 	30311.1
0.81 	248.177 	293.327 	30309
0.82 	249.035 	293.343 	30307.2
0.83 	250.671 	293.375 	30303.8
0.84 	253.699 	293.421 	30300.8
0.85 	259.175 	293.447 	30306.1
0.86 	268.816 	293.495 	30323.5
0.87 	285.258 	293.743 	30363.5
0.88 	310.899 	293.477 	30333.5
0.89 	342.986 	291.847 	30145.8
0.9 	371.937 	293.279 	30293.6
0.91 	389.49 	296.828 	30668.2
0.92 	396.417 	296.381 	30622.8
0.93 	398.202 	293.091 	30280.2
0.94 	398.707 	290.853 	30045.2
0.95 	399.205 	290.562 	30015.9
0.96 	399.534 	290.731 	30034.3
0.97 	399.731 	291.185 	30083.8
0.98 	400.048 	292.565 	30231.5
0.99 	400.49 	294.693 	30460.5
1 	400.567 	296.026 	30602.8
1.01 	400.038 	296.12 	30611.5
1.02 	399.116 	295.478 	30545.2
1.03 	397.87 	293.722 	30360
1.04 	396.72 	291.736 	30149.3
1.05 	396.142 	290.884 	30060.5
1.06 	395.941 	290.787 	30052.2
1.07 	395.966 	291.175 	30094.5
1.08 	396.536 	292.716 	30260
1.09 	397.425 	294.639 	30468.1
1.1 	397.969 	295.49 	30561.5
1.11 	398.222 	295.576 	30571.9
1.12 	398.344 	295.175 	30530.4
1.13 	398.064 	293.648 	30367.8
1.14 	397.603 	291.827 	30172.8
1.15 	397.481 	291.097 	30093.4
1.16 	397.629 	291.126 	30093.3
1.17 	397.863 	291.54 	30133.2
1.18 	398.314 	292.812 	30264.9
1.19 	398.804 	294.392 	30430.7
1.2 	398.946 	295.139 	30507.7
1.21 	398.765 	295.201 	30511.5
1.22 	398.373 	294.905 	30479
1.23 	397.694 	293.841 	30364.6
1.24 	396.946 	292.374 	30207.7
1.25 	396.555 	291.636 	30128.9
1.26 	396.468 	291.571 	30121.2
1.27 	396.539 	291.823 	30147
1.28 	396.994 	292.837 	30253.7
1.29 	397.69 	294.178 	30396.1
1.3 	398.136 	294.834 	30465.3
1.31 	398.341 	294.94 	30475.7
1.32 	398.43 	294.746 	30455.1
1.33 	398.225 	293.822 	30356.8
1.34 	397.807 	292.536 	30220.2
1.35 	397.581 	291.909 	30153.7
1.36 	397.563 	291.861 	30148.7
1.37 	397.597 	292.045 	30168.3
1.38 	397.807 	292.811 	30249.6
1.39 	398.139 	293.951 	30371.3
1.4 	398.276 	294.589 	30439.5
1.41 	398.175 	294.656 	30447
1.42 	397.958 	294.487 	30430.2
1.43 	397.591 	293.858 	30364.5
1.44 	397.137 	292.822 	30255.5
1.45 	396.886 	292.188 	30189.2
1.46 	396.871 	292.101 	30181.1
1.47 	396.978 	292.197 	30192.2
1.48 	397.317 	292.706 	30247.2
1.49 	397.858 	293.658 	30349.2
1.5 	398.25 	294.312 	30419.5
1.51 	398.393 	294.442 	30434
1.52 	398.435 	294.37 	30427.3
1.53 	398.308 	293.906 	30378.9
1.54 	397.952 	292.99 	30282.4
1.55 	397.666 	292.345 	30215.1
1.56 	397.584 	292.224 	30203.8
1.57 	397.555 	292.267 	30210.3
1.58 	397.611 	292.594 	30247
1.59 	397.846 	293.389 	30333.4
1.6 	398.047 	294.084 	30408.6
1.61 	398.046 	294.278 	30428.8
1.62 	397.947 	294.265 	30425.8
1.63 	397.762 	294.053 	30401.3
1.64 	397.147 	292.624 	30249.1
1.65 	392.827 	281.837 	29120.8
1.66 	367.255 	215.784 	23303.8
1.67 	316.018 	89.5705 	14667
1.68 	282.927 	10.7554 	10459.9
1.69 	279.056 	0.881723 	10037
1.7 	278.769 	0.0694527 	10002.9
1.71 	278.748 	0.00546914 	10000.2
1.72 	278.746 	0.000430854 	10000
1.73 	278.746 	3.39391e-05 	10000
1.74 	278.746 	2.67165e-06 	10000
1.75 	278.746 	2.10075e-07 	10000
1.76 	278.746 	1.64963e-08 	10000
1.77 	278.746 	1.29347e-09 	10000
1.78 	278.746 	1.01266e-10 	10000
1.79 	278.746 	7.9587e-12 	10000
1.8 	278.746 	6.51883e-13 	10000
1.81 	278.746 	6.84736e-14 	10000
1.82 	278.746 	4.25548e-14 	10000
1.83 	278.746 	8.6789e-14 	10000
1.84 	278.746 	6.23711e-14 	10000
1.85 	278.746 	3.88807e-14 	10000
1.86 	278.746 	6.30451e-14 	10000
1.87 	278.746 	4.7524e-14 	10000
1.88 	278.746 	4.77397e-14 	10000
1.89 	278.746 	1.38855e-13 	10000
1.9 	278.746 	1.99834e-13 	10000
1.91 	278.746 	2.03934e-13 	10000
1.92 	278.746 	2.29548e-13 	10000
1.93 	278.746 	3.00851e-13 	10000
1.94 	278.746 	3.40379e-13 	10000
1.95 	278.746 	2.98823e-13 	10000
1.96 	278.746 	2.3507e-13 	10000
1.97 	278.746 	2.24486e-13 	10000
1.98 	278.746 	2.50553e-13 	10000
1.99 	278.746 	2.88208e-13 	10000
2 	278.746 	2.9804e-13 	10000
2.01 	278.746 	2.5782e-13 	10000
2.02 	278.746 	2.55571e-13 	10000
2.03 	278.746 	2.75865e-13 	10000
2.04 	278.746 	2.77171e-13 	10000
2.05 	278.746 	3.01048e-13 	10000
2.06 	278.746 	3.1369e-13 	10000
2.07 	278.746 	3.01295e-13 	10000
2.08 	278.746 	2.73688e-13 	10000
2.09 	278.746 	2.18724e-13 	10000
2.1 	278.746 	1.69335e-13 	10000
2.11 	278.746 	1.15447e-13 	10000
2.12 	278.746 	9.90324e-14 	10000
2.13 	278.746 	1.66139e-13 	10000
2.14 	278.746 	1.48588e-13 	10000
2.15 	278.746 	8.19357e-14 	10000
2.16 	278.746 	7.22997e-14 	10000
2.17 	278.746 	5.47036e-14 	10000
2.18 	278.746 	5.33999e-14 	10000
2.19 	278.746 	4.00986e-14 	10000
2.2 	278.746 	1.62294e-14 	10000
2.21 	278.746 	3.62063e-14 	10000
2.22 	278.746 	6.43329e-14 	10000
2.23 	278.746 	5.29841e-14 	10000
2.24 	278.746 	4.96649e-14 	10000
2.25 	278.746 	3.40175e-14 	10000
2.26 	278.746 	5.03582e-14 	10000
2.27 	278.746 	1.41578e-13 	10000
2.28 	278.746 	2.13581e-13 	10000
2.29 	278.746 	2.09366e-13 	10000
2.3 	278.746 	1.41566e-13 	10000
2.31 	278.746 	1.25538e-13 	10000
2.32 	278.746 	1.44582e-13 	10000
2.33 	278.746 	1.2599e-13 	10000
2.34 	278.746 	1.29198e-13 	10000
2.35 	278.746 	1.50534e-13 	10000
2.36 	278.746 	1.43457e-13 	10000
2.37 	278.746 	1.50788e-13 	10000
2.38 	278.746 	1.5437e-13 	10000
2.39 	278.746 	1.53334e-13 	10000
2.4 	278.746 	1.59923e-13 	10000
2.41 	278.746 	1.36753e-13 	10000
2.42 	278.746 	8.23199e-14 	10000
2.43 	278.746 	2.82362e-14 	10000
2.44 	278.746 	3.31866e-14 	10000
2.45 	278.746 	7.35593e-14 	10000
2.46 	278.746 	7.44898e-14 	10000
2.47 	278.746 	4.5617e-14 	10000
2.48 	278.746 	3.70072e-14 	10000
2.49 	278.746 	4.77849e-14 	10000
2.5 	278.746 	3.09915e-14 	10000
2.51 	278.746 	2.32354e-14 	10000
2.52 	278.746 	1.24132e-13 	10000
2.53 	278.746 	2.79586e-13 	10000
2.54 	278.746 	3.60642e-13 	10000
2.55 	278.746 	3.43985e-13 	10000
2.56 	278.746 	2.7691e-13 	10000
2.57 	278.746 	1.88521e-13 	10000
2.58 	278.746 	8.04195e-14 	10000
2.59 	278.746 	1.47059e-14 	10000
2.6 	278.746 	2.76503e-14 	10000
2.61 	278.746 	1.02225e-13 	10000
2.62 	278.746 	2.12597e-13 	10000
2.63 	278.746 	2.81319e-13 	10000
2.64 	278.746 	2.57912e-13 	10000
2.65 	278.746 	1.50147e-13 	10000
2.66 	278.746 	4.4207e-14 	10000
2.67 	278.746 	2.32753e-14 	10000
2.68 	278.746 	4.33665e-14 	10000
2.69 	278.746 	4.2409e-14 	10000
2.7 	278.746 	3.25614e-14 	10000
2.71 	278.746 	2.68423e-14 	10000
2.72 	278.746 	4.90645e-14 	10000
2.73 	278.746 	8.19656e-14 	10000
2.74 	278.746 	5.01123e-14 	10000
2.75 	278.746 	4.29795e-14 	10000
2.76 	278.746 	1.20576e-13 	10000
2.77 	278.746 	1.80479e-13 	10000
2.78 	278.746 	1.95554e-13 	10000
2.79 	278.746 	1.96495e-13 	10000
2.8 	278.746 	1.44456e-13 	10000
2.81 	278.746 	4.82309e-14 	10000
2.82 	278.746 	1.28081e-14 	10000
2.83 	278.746 	1.05829e-14 	10000
2.84 	278.746 	3.47888e-14 	10000
2.85 	278.746 	9.17347e-14 	10000
2.86 	278.746 	1.09243e-13 	10000
2.87 	278.746 	7.13482e-14 	10000
2.88 	278.746 	9.75217e-14 	10000
2.89 	278.746 	1.0616e-13 	10000
2.9 	278.746 	3.00528e-14 	10000
2.91 	278.746 	2.9281e-14 	10000
2.92 	278.746 	3.50907e-14 	10000
2.93 	278.746 	1.81904e-14 	10000
2.94 	278.746 	5.39586e-14 	10000
2.95 	278.746 	8.2089e-14 	10000
2.96 	278.746 	6.81548e-14 	10000
2.97 	278.746 	5.67547e-14 	10000
2.98 	278.746 	3.19333e-14 	10000
2.99 	278.746 	5.14722e-14 	10000
3 	278.746 	1.04378e-13 	10000
3.01 	278.746 	1.11257e-13 	10000
3.02 	278.746 	1.28986e-13 	10000
3.03 	278.746 	1.45045e-13 	10000
3.04 	278.746 	1.7638e-13 	10000
3.05 	278.746 	2.03106e-13 	10000
3.06 	278.746 	1.77438e-13 	10000
3.07 	278.746 	1.58829e-13 	10000
3.08 	278.746 	1.47593e-13 	10000
3.09 	278.746 	1.44017e-13 	10000
3.1 	278.746 	1.23115e-13 	10000
3.11 	278.746 	5.21081e-14 	10000
3.12 	278.746 	4.65471e-14 	10000
3.13 	278.746 	1.30069e-13 	10000
3.14 	278.746 	1.88368e-13 	10000
3.15 	278.746 	1.8045e-13 	10000
3.16 	278.746 	1.80612e-13 	10000
3.17 	278.746 	1.67537e-13 	10000
3.18 	278.746 	8.11233e-14 	10000
3.19 	278.746 	5.92706e-14 	10000
3.2 	278.746 	1.10801e-13 	10000
3.21 	278.746 	1.3112e-13 	10000
3.22 	278.746 	1.01815e-13 	10000
3.23 	278.746 	4.31396e-14 	10000
3.24 	278.746 	3.84574e-14 	10000
3.25 	278.746 	3.99714e-14 	10000
3.26 	278.746 	2.70782e-14 	10000
3.27 	278.746 	7.42095e-14 	10000
3.28 	278.746 	1.0089e-13 	10000
3.29 	278.746 	1.07388e-13 	10000
3.3 	278.746 	1.2176e-13 	10000
3.31 	278.746 	8.12453e-14 	10000
3.32 	278.746 	3.41308e-14 	10000
3.33 	278.746 	2.73408e-14 	10000
3.34 	278.746 	4.44205e-14 	10000
3.35 	278.746 	4.24147e-14 	10000
3.36 	278.746 	4.63083e-14 	10000
3.37 	278.746 	6.86233e-14 	10000
3.38 	278.746 	9.13585e-14 	10000
3.39 	278.746 	9.3447e-14 	10000
3.4 	278.746 	8.99525e-14 	10000
3.41 	278.746 	1.26961e-13 	10000
3.42 	278.746 	1.53631e-13 	10000
3.43 	278.746 	1.17768e-13 	10000
3.44 	278.746 	5.30677e-14 	10000
3.45 	278.746 	2.17338e-14 	10000
3.46 	278.746 	2.068e-14 	10000
3.47 	278.746 	2.24705e-14 	10000
3.48 	278.746 	1.55249e-14 	10000
3.49 	278.746 	2.61589e-14 	10000
3.5 	278.746 	6.10068e-14 	10000
3.51 	278.746 	6.72546e-14 	10000
3.52 	278.746 	4.18659e-14 	10000
3.53 	278.746 	6.05364e-14 	10000
3.54 	278.746 	9.96069e-14 	10000
3.55 	278.746 	9.15911e-14 	10000
3.56 	278.746 	7.54391e-14 	10000
3.57 	278.746 	5.60861e-14 	10000
3.58 	278.746 	3.77134e-14 	10000
3.59 	278.746 	4.36036e-14 	10000
3.6 	278.746 	9.26893e-14 	10000
3.61 	278.746 	1.82625e-13 	10000
3.62 	278.746 	2.64365e-13 	10000
3.63 	278.746 	3.24282e-13 	10000
3.64 	278.746 	3.18071e-13 	10000
3.65 	278.746 	3.17702e-13 	10000
3.66 	278.746 	3.22062e-13 	10000
3.67 	278.746 	2.83292e-13 	10000
3.68 	278.746 	2.76733e-13 	10000
3.69 	278.746 	2.631e-13 	10000
3.7 	278.746 	1.87602e-13 	10000
3.71 	278.746 	9.41343e-14 	10000
3.72 	278.746 	2.79062e-13 	10000
3.73 	278.746 	1.42494e-12 	10000
3.74 	278.746 	4.87704e-12 	10000
3.75 	278.746 	1.56067e-11 	10000
3.76 	278.746 	4.93764e-11 	10000
3.77 	278.746 	1.53785e-10 	10000
3.78 	278.746 	4.71226e-10 	10000
3.79 	278.746 	1.42612e-09 	10000
3.8 	278.746 	4.26209e-09 	10000
3.81 	278.746 	1.25782e-08 	10000
3.82 	278.746 	3.66654e-08 	10000
3.83 	278.746 	1.05557e-07 	10000
3.84 	278.746 	3.00059e-07 	10000
3.85 	278.746 	8.42e-07 	10000
3.86 	278.746 	2.33176e-06 	10000
3.87 	278.746 	6.37066e-06 	10000
3.88 	278.746 	1.71658e-05 	10000
3.89 	278.746 	4.56005e-05 	10000
3.9 	278.746 	0.000119382 	9999.99
3.91 	278.746 	0.000307888 	9999.99
3.92 	278.746 	0.0007819 	9999.97