/*--------------------------------*- C++ -*----------------------------------*\
  =========                 |
  \\      /  F ield         | OpenFOAM: The Open Source CFD Toolbox
   \\    /   O peration     | Website:  https://openfoam.org
    \\  /    A nd           | Version:  7
     \\/     M anipulation  |
\*---------------------------------------------------------------------------*/
FoamFile
{
    version     2.0;
    format      ascii;
    class       surfaceScalarField;
    location    "0.1";
    object      alphaPhi0.water;
}
// * * * * * * * * * * * * * * * * * * * * * * * * * * * * * * * * * * * * * //

dimensions      [0 3 -1 0 0 0 0];

internalField   nonuniform List<scalar> 
3782
(
3.46841e-35
5.56665e-37
3.86352e-36
-2.06606e-38
4.11055e-37
-1.32722e-38
4.18797e-38
-2.54837e-39
4.06245e-39
-3.70666e-40
3.73379e-40
-4.6319e-41
3.24346e-41
-5.18386e-42
2.65562e-42
-5.29037e-43
2.04296e-43
-4.96584e-44
1.47186e-44
-4.30439e-45
9.89701e-46
-3.45052e-46
6.18909e-47
-2.55794e-47
3.58522e-48
-1.75176e-48
1.92054e-49
-1.10524e-49
9.65907e-51
-6.49207e-51
4.66801e-52
-3.62014e-52
2.13507e-53
-1.90294e-53
9.11545e-55
-9.2949e-55
3.58337e-56
-4.21639e-56
1.30249e-57
-1.77701e-57
4.38735e-59
-6.94719e-59
1.36605e-60
-2.51553e-60
3.92497e-62
-8.42477e-62
1.03956e-63
-2.60648e-63
2.53584e-65
-7.441e-65
5.69326e-67
-1.95823e-66
1.17595e-68
-4.74661e-68
2.23435e-70
-1.05901e-69
3.90613e-72
-2.17365e-71
6.28485e-74
-4.10317e-73
9.30959e-76
-7.12252e-75
1.2733e-77
-1.13706e-76
1.61407e-79
-1.66843e-78
1.89988e-81
-2.25251e-80
2.08438e-83
-2.80397e-82
2.14249e-85
-3.21839e-84
2.07658e-87
-3.40815e-86
1.91329e-89
-3.33646e-88
1.70032e-91
-3.02708e-90
1.57578e-93
-2.60106e-92
1.64764e-95
-2.35689e-94
6.78055e-97
-1.99786e-96
-1.40579e-97
7.01255e-38
2.28364e-36
6.81199e-39
1.67359e-37
6.20817e-40
1.23466e-38
9.17098e-40
7.05147e-41
8.72077e-40
2.46082e-37
2.37599e-40
1.74819e-38
3.02514e-41
1.26608e-39
9.27017e-41
4.08455e-42
-6.71673e-40
2.53337e-38
-2.92971e-41
1.74631e-39
-7.58501e-43
1.22729e-40
8.77339e-42
5.1507e-44
-1.46135e-40
2.49821e-39
-8.22667e-42
1.67021e-40
-4.36893e-43
1.14063e-41
7.99079e-43
-2.13221e-44
-2.17333e-41
2.34781e-40
-1.27983e-42
1.52756e-41
-7.39609e-44
1.01882e-42
7.01079e-44
-4.17935e-45
-2.71203e-42
2.09555e-41
-1.61053e-43
1.33139e-42
-9.52593e-45
8.69757e-44
5.89168e-45
-5.59427e-46
-3.00659e-43
1.77134e-42
-1.7795e-44
1.10178e-43
-1.05894e-45
7.06712e-45
4.72596e-46
-6.30913e-47
-3.03127e-44
1.41439e-43
-1.78073e-45
8.6375e-45
-1.05961e-46
5.45482e-46
3.61059e-47
-6.35533e-48
-2.81054e-45
1.06394e-44
-1.63723e-46
6.39962e-46
-9.72301e-48
3.99109e-47
2.62219e-48
-5.85778e-49
-2.40949e-46
7.51764e-46
-1.39287e-47
4.46943e-47
-8.25694e-49
2.76145e-48
1.80648e-49
-4.99845e-50
-1.91459e-47
4.97431e-47
-1.10026e-48
2.93421e-48
-6.5196e-50
1.80236e-49
1.17796e-50
-3.97228e-51
-1.411e-48
3.07248e-48
-8.08096e-50
1.8057e-49
-4.79698e-51
1.10692e-50
7.2543e-52
-2.94893e-52
-9.64032e-50
1.76496e-49
-5.51923e-51
1.03848e-50
-3.29159e-52
6.38046e-52
4.20985e-53
-2.04788e-53
-6.09671e-51
9.44035e-51
-3.50318e-52
5.57198e-52
-2.1062e-53
3.44145e-53
2.29719e-54
-1.33086e-54
-3.57727e-52
4.79291e-52
-2.06207e-53
2.82234e-53
-1.2559e-54
1.74261e-54
1.17572e-55
-8.09202e-56
-1.99292e-53
2.33612e-53
-1.14241e-54
1.3729e-54
-6.96957e-56
8.41614e-56
5.65604e-57
-4.60056e-57
-1.04363e-54
1.06858e-54
-5.97582e-56
6.26751e-56
-3.63666e-57
3.85834e-57
2.59044e-58
-2.44446e-58
-5.10329e-56
4.53111e-56
-2.93652e-57
2.67779e-57
-1.79407e-58
1.66541e-58
1.12873e-59
-1.21232e-59
-2.33073e-57
1.79269e-57
-1.35234e-58
1.07307e-58
-8.33682e-60
6.75926e-60
4.64379e-61
-5.66358e-61
-9.92947e-59
6.61489e-59
-5.83025e-60
4.02407e-60
-3.63818e-61
2.57747e-61
1.79998e-62
-2.50219e-62
-3.93985e-60
2.2704e-60
-2.34994e-61
1.40981e-61
-1.48933e-62
9.22019e-63
6.56995e-64
-1.04234e-63
-1.45396e-61
7.23815e-62
-8.8434e-63
4.60856e-63
-5.71345e-64
3.09018e-64
2.25585e-65
-4.08392e-65
-4.98417e-63
2.14093e-63
-3.10353e-64
1.40413e-64
-2.05163e-65
9.69364e-66
7.27822e-67
-1.50327e-66
-1.58526e-64
5.86966e-65
-1.01461e-65
3.98389e-66
-6.88873e-67
2.84382e-67
2.20482e-68
-5.19371e-68
-4.67341e-66
1.49052e-66
-3.08706e-67
1.05195e-67
-2.1609e-68
7.79813e-69
6.26815e-70
-1.68276e-69
-1.27589e-67
3.50403e-68
-8.73469e-69
2.58412e-69
-6.32799e-70
1.99816e-70
1.67194e-71
-5.10923e-71
-3.22352e-69
7.62455e-70
-2.2969e-70
5.90508e-71
-1.72899e-71
4.78443e-72
4.18451e-73
-1.45289e-72
-7.53272e-71
1.53575e-71
-5.61097e-72
1.25558e-72
-4.40604e-73
1.07087e-73
9.83054e-75
-3.86806e-74
-1.62752e-72
2.86478e-73
-1.27301e-73
2.48558e-74
-1.04703e-74
2.24207e-75
2.16942e-76
-9.63967e-76
-3.25078e-74
4.9534e-75
-2.68227e-75
4.58587e-76
-2.32021e-76
4.39593e-77
4.50229e-78
-2.24879e-77
-6.00298e-76
7.94963e-77
-5.2496e-77
7.89718e-78
-4.79576e-78
8.08379e-79
8.80102e-80
-4.91192e-79
-1.02515e-77
1.18595e-78
-9.54707e-79
1.2719e-79
-9.24982e-80
1.39713e-80
1.62391e-81
-1.00495e-80
-1.61974e-79
1.64745e-80
-1.6143e-80
1.92081e-81
-1.66603e-81
2.27545e-82
2.83601e-83
-1.92699e-82
-2.36917e-81
2.14133e-82
-2.53976e-82
2.728e-83
-2.8044e-83
3.50403e-84
4.70239e-85
-3.46535e-84
-3.20902e-83
2.61727e-84
-3.72188e-84
3.65818e-85
-4.41513e-85
5.1235e-86
7.43051e-87
-5.84868e-86
-4.03279e-85
3.01936e-86
-5.08487e-86
4.66284e-87
-6.50604e-87
7.1457e-88
1.124e-88
-9.27446e-88
-4.71022e-87
3.3105e-88
-6.48134e-88
5.68449e-89
-8.97807e-89
9.55843e-90
1.63929e-90
-1.38382e-89
-5.11553e-89
3.4828e-90
-7.70981e-90
6.6719e-91
-1.16119e-90
1.24257e-91
2.40021e-92
-2.05081e-91
-5.16922e-91
3.58636e-92
-8.65789e-92
7.83551e-93
-1.51484e-92
1.65821e-93
3.73745e-94
-2.95137e-93
-5.20654e-93
3.87962e-94
-9.97218e-94
9.93097e-95
-1.92709e-94
2.37998e-95
5.70806e-96
-4.05242e-95
-5.26911e-95
4.54131e-96
-1.11381e-95
1.25639e-96
-2.33545e-96
3.24881e-97
8.36212e-98
-5.27849e-97
-4.9608e-97
1.80135e-97
-1.15385e-97
4.75516e-98
-2.62556e-98
1.21568e-98
3.0097e-99
-6.38535e-99
-3.21513e-98
-7.1908e-99
-1.55055e-99
-2.86914e-100
4.09809e-42
7.28635e-41
2.93461e-43
4.70297e-42
2.09646e-44
3.02176e-43
1.42944e-45
1.89922e-44
9.31675e-47
1.15951e-45
5.81379e-48
6.85724e-47
3.47638e-49
3.92317e-48
1.99358e-50
2.17015e-49
1.09727e-51
1.16043e-50
5.79993e-53
5.99785e-52
2.94494e-54
2.9963e-53
1.43622e-55
1.44636e-54
6.72391e-57
6.74306e-56
3.01886e-58
3.0337e-57
1.29799e-59
1.3156e-58
5.33521e-61
5.49116e-60
2.09228e-62
2.20207e-61
7.81154e-64
8.46775e-63
2.77031e-65
3.11567e-64
9.31122e-67
1.09455e-65
2.9593e-68
3.66323e-67
8.87361e-70
1.16551e-68
2.50487e-71
3.51811e-70
6.64242e-73
1.00565e-71
1.65144e-74
2.71792e-73
3.84249e-76
6.9367e-75
8.35403e-78
1.67062e-76
1.69496e-79
3.79619e-78
3.20604e-81
8.14348e-80
5.64895e-83
1.65128e-81
9.26263e-85
3.17116e-83
1.41099e-86
5.78076e-85
1.98952e-88
1.0023e-86
2.57646e-90
1.65405e-88
3.01523e-92
2.59078e-90
3.08516e-94
3.81325e-92
2.57665e-96
5.1442e-94
1.50714e-98
6.0117e-96
4.03131e-101
5.33971e-98
2.39635e-100
2.63721e-43
7.23014e-42
2.0449e-44
4.65122e-43
1.52951e-45
2.96342e-44
1.07492e-46
1.84277e-45
7.14715e-48
1.11196e-46
4.51614e-49
6.49555e-48
2.71978e-50
3.66928e-49
1.56453e-51
2.00354e-50
8.61091e-53
1.05734e-51
4.5402e-54
5.39287e-53
2.29511e-55
2.6582e-54
1.11268e-56
1.26597e-55
5.17253e-58
5.82279e-57
2.30418e-59
2.5846e-58
9.82505e-61
1.10599e-59
4.00417e-62
4.55628e-61
1.55696e-63
1.80405e-62
5.76451e-65
6.85255e-64
2.02786e-66
2.49192e-65
6.76298e-68
8.65698e-67
2.1335e-69
2.86689e-68
6.35226e-71
9.03123e-70
1.78113e-72
2.70082e-71
4.69332e-74
7.65352e-73
1.15995e-75
2.05194e-74
2.68426e-77
5.19878e-76
5.80791e-79
1.24393e-77
1.17373e-80
2.81102e-79
2.21401e-82
6.00426e-81
3.89655e-84
1.21422e-82
6.39583e-86
2.33033e-84
9.78108e-88
4.25666e-86
1.38969e-89
7.42081e-88
1.82178e-91
1.23657e-89
2.17014e-93
1.96595e-91
2.27431e-95
2.95492e-93
1.95806e-97
4.09811e-95
1.18703e-99
4.95635e-97
3.29196e-102
4.5789e-99
2.1278e-101
9.01371e-45
6.68443e-43
9.69297e-46
4.27829e-44
8.47271e-47
2.69539e-45
6.52457e-48
1.66016e-46
4.59698e-49
9.91812e-48
3.01737e-50
5.73147e-49
1.86372e-51
3.20136e-50
1.09008e-52
1.72795e-51
6.06296e-54
9.01242e-53
3.21586e-55
4.54232e-54
1.62976e-56
2.21219e-55
7.9004e-58
1.04087e-56
3.66495e-59
4.72957e-58
1.62673e-60
2.07396e-59
6.90391e-62
8.76816e-61
2.7984e-63
3.56934e-62
1.08171e-64
1.39689e-63
3.98032e-66
5.24629e-65
1.39148e-67
1.88714e-66
4.61182e-69
6.48802e-68
1.44598e-70
2.12744e-69
4.27953e-72
6.63934e-71
1.193e-73
1.96811e-72
3.12614e-75
5.53145e-74
7.68564e-77
1.47176e-75
1.76995e-78
3.70314e-77
3.81339e-80
8.80682e-79
7.68048e-82
1.9801e-80
1.44562e-83
4.21359e-82
2.54303e-85
8.50367e-84
4.18184e-87
1.63236e-85
6.42665e-89
2.99101e-87
9.2118e-91
5.24994e-89
1.22422e-92
8.84852e-91
1.48692e-94
1.43081e-92
1.59908e-96
2.20139e-94
1.42188e-98
3.14704e-96
8.94686e-101
3.94967e-98
2.57279e-103
3.80436e-100
1.83198e-102
-7.16086e-46
5.96223e-44
-6.27847e-48
3.73776e-45
1.90379e-48
2.30197e-46
2.4646e-49
1.39861e-47
2.15665e-50
8.24641e-49
1.59229e-51
4.70804e-50
1.05693e-52
2.60432e-51
6.47829e-54
1.39163e-52
3.71795e-55
7.18377e-54
2.01422e-56
3.58294e-55
1.03526e-57
1.72658e-56
5.06376e-59
8.03749e-58
2.36133e-60
3.61308e-59
1.05062e-61
1.56741e-60
4.46022e-63
6.55589e-62
1.80564e-64
2.64059e-63
6.96303e-66
1.02269e-64
2.55404e-67
3.80202e-66
8.89549e-69
1.35421e-67
2.93622e-70
4.61188e-69
9.16645e-72
1.4986e-70
2.70087e-73
4.63675e-72
7.49551e-75
1.36333e-73
1.95542e-76
3.8026e-75
4.78692e-78
1.00465e-76
1.09803e-79
2.51176e-78
2.35762e-81
5.94039e-80
4.73606e-83
1.32962e-81
8.90197e-85
2.82059e-83
1.56657e-86
5.68502e-85
2.58336e-88
1.09251e-86
3.99409e-90
2.0103e-88
5.78343e-92
3.55755e-90
7.80397e-94
6.07509e-92
9.6818e-96
1.00116e-93
1.07056e-97
1.58045e-95
9.85111e-100
2.33491e-97
6.44588e-102
3.04891e-99
1.92493e-104
3.06892e-101
1.5326e-103
-1.99977e-46
5.13875e-45
-8.70948e-48
3.15374e-46
-3.19522e-49
1.90629e-47
-7.15301e-51
1.13096e-48
2.22907e-52
6.49926e-50
4.56462e-53
3.63893e-51
4.13736e-54
1.98716e-52
2.95592e-55
1.04806e-53
1.85627e-56
5.36052e-55
1.06529e-57
2.64986e-56
5.69067e-59
1.26537e-57
2.85801e-60
5.83651e-59
1.35723e-61
2.59943e-60
6.11408e-63
1.1172e-61
2.61705e-64
4.6294e-63
1.06492e-65
1.8474e-64
4.11831e-67
7.08952e-66
1.51232e-68
2.612e-67
5.26655e-70
9.22209e-69
1.73649e-71
3.11405e-70
5.41131e-73
1.00364e-71
1.59073e-74
3.08107e-73
4.40281e-76
8.99211e-75
1.14528e-77
2.49062e-76
2.79542e-79
6.53788e-78
6.39428e-81
1.62508e-79
1.36966e-82
3.82424e-81
2.74691e-84
8.52639e-83
5.16096e-86
1.80434e-84
9.0947e-88
3.63492e-86
1.50559e-89
6.99986e-88
2.34467e-91
1.29503e-89
3.43443e-93
2.314e-91
4.71282e-95
4.01075e-93
5.98256e-97
6.75044e-95
6.81402e-99
1.09601e-96
6.50014e-101
1.67769e-98
4.42958e-103
2.28515e-100
1.37492e-105
2.40896e-102
1.24836e-104
-2.87069e-47
4.26292e-46
-1.41093e-48
2.57309e-47
-6.53301e-50
1.52737e-48
-2.75666e-51
8.85417e-50
-1.01583e-52
4.97153e-51
-2.82121e-54
2.72572e-52
-1.44803e-56
1.45097e-53
5.74497e-57
7.47444e-55
5.87129e-58
3.77364e-56
4.14914e-59
1.84322e-57
2.48695e-60
8.71296e-59
1.34196e-61
3.98788e-60
6.684e-63
1.76221e-61
3.11159e-64
7.51364e-63
1.36298e-65
3.08864e-64
5.63761e-67
1.22271e-65
2.20553e-68
4.655e-67
8.16438e-70
1.7016e-68
2.85859e-71
5.96149e-70
9.45771e-73
1.99791e-71
2.95291e-74
6.39228e-73
8.68711e-76
1.94863e-74
2.40414e-77
5.64911e-76
6.2492e-79
1.55484e-77
1.52363e-80
4.0578e-79
3.48091e-82
1.0034e-80
7.44862e-84
2.351e-82
1.49328e-85
5.22482e-84
2.80772e-87
1.1038e-85
4.96028e-89
2.22454e-87
8.25329e-91
4.29736e-89
1.29626e-92
8.00414e-91
1.92343e-94
1.44639e-92
2.68815e-96
2.54944e-94
3.49709e-98
4.39218e-96
4.10906e-100
7.35286e-98
4.06872e-102
1.16924e-99
2.88976e-104
1.66546e-101
9.31973e-107
1.84257e-103
9.9118e-106
-3.31324e-48
3.38893e-47
-1.68664e-49
2.0172e-48
-8.24208e-51
1.17815e-49
-3.81028e-52
6.70352e-51
-1.66143e-53
3.69176e-52
-6.69269e-55
1.98124e-53
-2.41108e-56
1.02981e-54
-7.23585e-58
5.2016e-56
-1.29452e-59
2.56582e-57
3.71483e-61
1.22421e-58
5.90378e-62
5.69178e-60
4.33609e-63
2.5775e-61
2.52045e-64
1.12708e-62
1.28671e-65
4.77065e-64
5.98547e-67
1.94806e-65
2.57995e-68
7.65995e-67
1.03921e-69
2.89651e-68
3.92871e-71
1.05167e-69
1.39677e-72
3.65995e-71
4.67296e-74
1.21856e-72
1.47075e-75
3.87387e-74
4.35139e-77
1.17362e-75
1.20892e-78
3.38224e-77
3.15042e-80
9.2573e-79
7.69341e-82
2.40357e-80
1.7595e-83
5.91666e-82
3.76853e-85
1.38121e-83
7.56476e-87
3.06196e-85
1.42553e-88
6.4632e-87
2.52826e-90
1.30433e-88
4.23366e-92
2.53062e-90
6.71495e-94
4.75205e-92
1.01066e-95
8.69938e-94
1.44041e-97
1.56252e-95
1.9226e-99
2.76189e-97
2.33247e-101
4.77953e-99
2.39803e-103
7.91628e-101
1.77401e-105
1.18208e-102
5.93162e-108
1.37514e-104
7.67904e-107
-3.36347e-49
2.5745e-48
-1.73239e-50
1.51407e-49
-8.61089e-52
8.72237e-51
-4.09127e-53
4.88393e-52
-1.86412e-54
2.64387e-53
-8.06388e-56
1.39327e-54
-3.2952e-57
7.10516e-56
-1.26283e-58
3.52139e-57
-4.41149e-60
1.69921e-58
-1.35317e-61
7.93843e-60
-3.19235e-63
3.62353e-61
-2.19705e-65
1.60556e-62
3.66783e-66
6.88368e-64
3.22769e-67
2.88201e-65
1.88585e-68
1.16597e-66
9.21921e-70
4.54524e-68
4.01893e-71
1.70918e-69
1.60243e-72
6.17107e-71
5.91445e-74
2.13556e-72
2.03297e-75
7.07057e-74
6.52691e-77
2.23546e-75
1.95969e-78
6.73637e-77
5.50432e-80
1.93138e-78
1.44609e-81
5.26072e-80
3.55282e-83
1.35987e-81
8.16316e-85
3.33473e-83
1.75513e-86
7.76187e-85
3.53618e-88
1.71778e-86
6.69202e-90
3.62605e-88
1.19352e-91
7.33544e-90
2.01432e-93
1.43117e-91
3.23041e-95
2.71363e-93
4.93673e-97
5.04181e-95
7.18016e-99
9.24768e-97
9.83512e-101
1.68113e-98
1.23128e-102
3.01512e-100
1.31212e-104
5.21499e-102
1.00764e-106
8.18255e-104
3.4723e-109
1.00264e-105
5.81045e-108
-3.1054e-50
1.86571e-49
-1.60388e-51
1.08645e-50
-8.00449e-53
6.18561e-52
-3.83343e-54
3.41482e-53
-1.77133e-55
1.82067e-54
-7.83442e-57
9.44502e-56
-3.32001e-58
4.73651e-57
-1.34669e-59
2.30829e-58
-5.17071e-61
1.09434e-59
-1.8784e-62
5.02413e-61
-6.33622e-64
2.25098e-62
-1.93205e-65
9.77578e-64
-5.05211e-67
4.12221e-65
-9.23994e-69
1.69431e-66
3.47012e-71
6.7243e-68
1.48575e-71
2.5811e-69
9.78493e-73
9.62863e-71
4.73434e-74
3.44907e-72
1.95618e-75
1.18522e-73
7.23348e-77
3.9062e-75
2.44189e-78
1.22939e-76
7.59915e-80
3.6881e-78
2.19106e-81
1.05283e-79
5.86945e-83
2.85602e-81
1.46332e-84
7.35552e-83
3.40024e-86
1.79821e-84
7.37651e-88
4.17643e-86
1.4976e-89
9.23495e-88
2.85484e-91
1.95136e-89
5.13188e-93
3.96161e-91
8.74343e-95
7.78311e-93
1.41915e-96
1.49253e-94
2.20255e-98
2.81985e-96
3.26678e-100
5.29351e-98
4.58278e-102
9.92128e-100
5.89751e-104
1.84889e-101
6.47175e-106
3.3478e-103
5.10621e-108
5.5316e-105
1.78393e-110
7.1503e-107
4.29735e-109
-2.64847e-51
1.28729e-50
-1.36667e-52
7.44045e-52
-6.81242e-54
4.19558e-53
-3.26347e-55
2.28854e-54
-1.51232e-56
1.2042e-55
-6.72872e-58
6.1602e-57
-2.88564e-59
3.04307e-58
-1.19247e-60
1.46135e-59
-4.71571e-62
6.82185e-61
-1.79345e-63
3.08386e-62
-6.49567e-65
1.36039e-63
-2.22996e-66
5.81535e-65
-7.22012e-68
2.41446e-66
-2.15669e-69
9.75148e-68
-5.80377e-71
3.80313e-69
-1.32282e-72
1.44032e-70
-2.03767e-74
5.28254e-72
1.25034e-76
1.86136e-73
2.84409e-77
6.31801e-75
1.56646e-78
2.06843e-76
6.41273e-80
6.4677e-78
2.23692e-81
1.92854e-79
6.94797e-83
5.48373e-81
1.95927e-84
1.48269e-82
5.06735e-86
3.80753e-84
1.20964e-87
9.28692e-86
2.67798e-89
2.154e-87
5.52355e-91
4.76313e-89
1.06671e-92
1.0085e-90
1.93985e-94
2.0572e-92
3.34263e-96
4.07569e-94
5.49104e-98
7.91826e-96
8.63672e-100
1.5243e-97
1.29999e-101
2.93528e-99
1.85177e-103
5.68595e-101
2.41544e-105
1.10379e-102
2.66962e-107
2.09734e-104
2.08915e-109
3.65663e-106
6.94655e-112
4.99257e-108
3.10808e-110
-2.10308e-52
8.43905e-52
-1.08306e-53
4.85396e-53
-5.38193e-55
2.71736e-54
-2.57099e-56
1.46795e-55
-1.18927e-57
7.63959e-57
-5.28807e-59
3.86133e-58
-2.27326e-60
1.88265e-59
-9.44186e-62
8.92372e-61
-3.77029e-63
4.10842e-62
-1.45717e-64
1.83175e-63
-5.40518e-66
7.97243e-65
-1.92429e-67
3.36099e-66
-6.57268e-69
1.37668e-67
-2.13105e-70
5.48349e-69
-6.55604e-72
2.1095e-70
-1.89604e-73
7.87946e-72
-5.05893e-75
2.84563e-73
-1.2238e-76
9.87939e-75
-2.56014e-78
3.31591e-76
-4.03922e-80
1.0702e-77
-1.82195e-82
3.30087e-79
1.9972e-83
9.73315e-81
1.11159e-84
2.75075e-82
4.03507e-86
7.40212e-84
1.20293e-87
1.89294e-85
3.14062e-89
4.60271e-87
7.38242e-91
1.06601e-88
1.58711e-92
2.3596e-90
3.15554e-94
5.01161e-92
5.85673e-96
1.02851e-93
1.02324e-97
2.05796e-95
1.69454e-99
4.05795e-97
2.66984e-101
7.97606e-99
3.98879e-103
1.57919e-100
5.55156e-105
3.16943e-102
6.868e-107
6.42481e-104
6.77185e-109
1.28449e-105
4.06329e-111
2.36868e-107
4.1887e-114
3.42161e-109
2.20555e-111
-1.56137e-53
5.24574e-53
-8.02689e-55
3.01089e-54
-3.97548e-56
1.6777e-55
-1.89211e-57
8.99804e-57
-8.72127e-59
4.64214e-58
-3.86515e-60
2.32317e-59
-1.65877e-61
1.1203e-60
-6.88566e-63
5.25099e-62
-2.75444e-64
2.3886e-63
-1.06978e-65
1.05216e-64
-4.00035e-67
4.52462e-66
-1.44344e-68
1.88386e-67
-5.02621e-70
7.62555e-69
-1.67533e-71
3.0009e-70
-5.3646e-73
1.14063e-71
-1.64144e-74
4.21141e-73
-4.75914e-76
1.50289e-74
-1.30938e-77
5.15754e-76
-3.38868e-79
1.71071e-77
-8.15185e-81
5.4506e-79
-1.80806e-82
1.66055e-80
-3.63758e-84
4.85205e-82
-6.40363e-86
1.3569e-83
-9.15265e-88
3.6139e-85
-8.03254e-90
9.15788e-87
7.13629e-92
2.21273e-88
5.79026e-93
5.10809e-90
1.80749e-94
1.13136e-91
4.28686e-96
2.41053e-93
8.65764e-98
4.97961e-95
1.5463e-99
1.00736e-96
2.46276e-101
2.01915e-98
3.41737e-103
4.06036e-100
3.71869e-105
8.285e-102
1.57383e-107
1.72708e-103
-6.4924e-109
3.6646e-105
-2.30515e-110
7.72864e-107
-3.73433e-112
1.51176e-108
-9.59608e-115
2.31569e-110
1.54927e-112
-1.08608e-54
3.08565e-54
-5.58007e-56
1.77258e-55
-2.75661e-57
9.85782e-57
-1.30755e-58
5.2627e-58
-6.00395e-60
2.69797e-59
-2.65012e-61
1.33988e-60
-1.13365e-62
6.40436e-62
-4.69226e-64
2.97416e-63
-1.87398e-65
1.33931e-64
-7.27857e-67
5.83913e-66
-2.72594e-68
2.48507e-67
-9.87913e-70
1.02356e-68
-3.46382e-71
4.10019e-70
-1.16664e-72
1.59629e-71
-3.79445e-74
6.0026e-73
-1.18529e-75
2.19424e-74
-3.535e-77
7.74953e-76
-1.01083e-78
2.63261e-77
-2.75361e-80
8.64832e-79
-7.10566e-82
2.72851e-80
-1.73953e-83
8.2344e-82
-4.02974e-85
2.38409e-83
-8.79064e-87
6.60217e-85
-1.80394e-88
1.74232e-86
-3.49547e-90
4.37969e-88
-6.41889e-92
1.05301e-89
-1.12722e-93
2.42269e-91
-1.91852e-95
5.35365e-93
-3.235e-97
1.14192e-94
-5.54926e-99
2.3717e-96
-9.92255e-101
4.84943e-98
-1.87457e-102
9.88665e-100
-3.73391e-104
2.0367e-101
-7.71406e-106
4.2905e-103
-1.60417e-107
9.30773e-105
-3.19133e-109
2.07105e-106
-5.49918e-111
4.60743e-108
-6.59189e-113
9.55558e-110
-1.37433e-115
1.5517e-111
1.07735e-113
-7.08486e-56
1.71424e-55
-3.64407e-57
9.88723e-57
-1.79817e-58
5.50377e-58
-8.50926e-60
2.93268e-59
-3.89491e-61
1.49777e-60
-1.71277e-62
7.39865e-62
-7.30142e-64
3.51311e-63
-3.01139e-65
1.61976e-64
-1.19922e-66
7.23509e-66
-4.64855e-68
3.12792e-67
-1.73874e-69
1.31975e-68
-6.30383e-71
5.38666e-70
-2.21375e-72
2.13869e-71
-7.48113e-74
8.24969e-73
-2.44804e-75
3.07352e-74
-7.70938e-77
1.11365e-75
-2.3253e-78
3.89718e-77
-6.75327e-80
1.31207e-78
-1.87557e-81
4.27485e-80
-4.96048e-83
1.33729e-81
-1.253e-84
4.00286e-83
-3.01567e-86
1.15023e-84
-6.89332e-88
3.16179e-86
-1.49699e-89
8.28731e-88
-3.10394e-91
2.0709e-89
-6.16083e-93
4.95514e-91
-1.17787e-94
1.13606e-92
-2.18607e-96
2.50662e-94
-3.98383e-98
5.35575e-96
-7.22214e-100
1.11891e-97
-1.31981e-101
2.3132e-99
-2.45939e-103
4.79763e-101
-4.70647e-105
1.01252e-102
-9.2393e-107
2.20192e-104
-1.83155e-108
4.97016e-106
-3.51478e-110
1.15939e-107
-5.93137e-112
2.7208e-109
-7.03678e-114
5.97689e-111
-1.41487e-116
1.02793e-112
7.39794e-115
-4.33512e-57
8.97793e-57
-2.23701e-58
5.21648e-58
-1.10467e-59
2.91545e-59
-5.2233e-61
1.55499e-60
-2.38618e-62
7.93231e-62
-1.04639e-63
3.90702e-63
-4.44773e-65
1.84722e-64
-1.82842e-66
8.47358e-66
-7.25938e-68
3.76209e-67
-2.80674e-69
1.61592e-68
-1.04743e-70
6.7714e-70
-3.79257e-72
2.7436e-71
-1.33089e-73
1.08138e-72
-4.49872e-75
4.13939e-74
-1.47482e-76
1.53024e-75
-4.65731e-78
5.50322e-77
-1.41087e-79
1.91078e-78
-4.12459e-81
6.38366e-80
-1.15478e-82
2.06486e-81
-3.08558e-84
6.41138e-83
-7.89689e-86
1.90533e-84
-1.92975e-87
5.44002e-86
-4.48992e-89
1.48601e-87
-9.95018e-91
3.87256e-89
-2.11085e-92
9.62932e-91
-4.29375e-94
2.29578e-92
-8.41887e-96
5.2525e-94
-1.6022e-97
1.15884e-95
-2.98969e-99
2.48319e-97
-5.53538e-101
5.22285e-99
-1.02988e-102
1.09229e-100
-1.94856e-104
2.30506e-102
-3.78134e-106
4.98312e-104
-7.53459e-108
1.11826e-105
-1.52092e-109
2.62476e-107
-2.98582e-111
6.41438e-109
-5.17931e-113
1.58702e-110
-6.32145e-115
3.69135e-112
-1.27093e-117
6.72107e-114
5.0104e-116
-2.48755e-58
4.42475e-58
-1.29103e-59
2.5992e-59
-6.39419e-61
1.46325e-60
-3.02674e-62
7.83524e-62
-1.38225e-63
4.00321e-63
-6.05292e-65
1.97102e-64
-2.56811e-66
9.30111e-66
-1.05317e-67
4.25429e-67
-4.17116e-69
1.88136e-68
-1.60895e-70
8.04446e-70
-5.99031e-72
3.35411e-71
-2.1652e-73
1.35148e-72
-7.58641e-75
5.29676e-74
-2.56179e-76
2.01522e-75
-8.39809e-78
7.40339e-77
-2.65299e-79
2.64627e-78
-8.04717e-81
9.12902e-80
-2.35861e-82
3.03041e-81
-6.62484e-84
9.74265e-83
-1.77787e-85
3.00612e-84
-4.57703e-87
8.87931e-86
-1.12609e-88
2.52124e-87
-2.64084e-90
6.84996e-89
-5.90588e-92
1.77634e-90
-1.2662e-93
4.39869e-92
-2.60555e-95
1.04586e-93
-5.17229e-97
2.38978e-95
-9.97593e-99
5.27611e-97
-1.88865e-100
1.1346e-98
-3.55258e-102
2.40387e-100
-6.72731e-104
5.08815e-102
-1.29872e-105
1.09294e-103
-2.5803e-107
2.42084e-105
-5.2865e-109
5.60669e-107
-1.10268e-110
1.36846e-108
-2.24781e-112
3.50312e-110
-4.06466e-114
9.13569e-112
-5.16981e-116
2.24939e-113
-1.05426e-118
4.33467e-115
3.34522e-117
-1.33792e-59
2.04813e-59
-7.00338e-61
1.22138e-60
-3.48757e-62
6.94948e-62
-1.6563e-63
3.74761e-63
-7.5759e-65
1.92323e-64
-3.31846e-66
9.49054e-66
-1.40735e-67
4.48097e-67
-5.76456e-69
2.04829e-68
-2.27978e-70
9.04175e-70
-8.77972e-72
3.85643e-71
-3.26294e-73
1.6029e-72
-1.1776e-74
6.43444e-74
-4.11974e-76
2.51177e-75
-1.38938e-77
9.51369e-77
-4.55154e-79
3.47866e-78
-1.43704e-80
1.23757e-79
-4.35873e-82
4.24776e-81
-1.27853e-83
1.4029e-82
-3.5949e-85
4.48825e-84
-9.66381e-87
1.37781e-85
-2.49456e-88
4.04956e-87
-6.15647e-90
1.14466e-88
-1.44926e-91
3.09621e-90
-3.25594e-93
7.99718e-92
-7.02073e-95
1.97387e-93
-1.4544e-96
4.6837e-95
-2.90971e-98
1.06957e-96
-5.66517e-100
2.36451e-98
-1.085e-101
5.10586e-100
-2.07028e-103
1.09027e-101
-3.99067e-105
2.33667e-103
-7.87575e-107
5.11078e-105
-1.60765e-108
1.1602e-106
-3.40297e-110
2.77366e-108
-7.37592e-112
7.04035e-110
-1.57063e-113
1.88779e-111
-2.97817e-115
5.18845e-113
-3.97012e-117
1.35192e-114
-8.26877e-120
2.75621e-116
2.20057e-118
-6.74066e-61
8.92615e-61
-3.56963e-62
5.40479e-62
-1.7922e-63
3.1199e-63
-8.56008e-65
1.69988e-64
-3.92993e-66
8.78814e-66
-1.72523e-67
4.35821e-67
-7.32575e-69
2.06406e-68
-3.00156e-70
9.45095e-70
-1.18686e-71
4.17356e-71
-4.56831e-73
1.77926e-72
-1.6963e-74
7.38636e-74
-6.11683e-76
2.9594e-75
-2.1377e-77
1.1526e-76
-7.20236e-79
4.35324e-78
-2.35791e-80
1.58673e-79
-7.43931e-82
5.62647e-81
-2.2555e-83
1.92411e-82
-6.61654e-85
6.33082e-84
-1.86073e-86
2.01793e-85
-5.00482e-88
6.17051e-87
-1.29349e-89
1.80664e-88
-3.19695e-91
5.08879e-90
-7.5404e-93
1.37176e-91
-1.69844e-94
3.53236e-93
-3.67553e-96
8.69785e-95
-7.64923e-98
2.06131e-96
-1.53938e-99
4.70775e-98
-3.0208e-101
1.04284e-99
-5.84631e-103
2.26263e-101
-1.13107e-104
4.87204e-103
-2.21992e-106
1.05775e-104
-4.48326e-108
2.35657e-106
-9.41859e-110
5.48411e-108
-2.06452e-111
1.35353e-109
-4.66251e-113
3.57297e-111
-1.04013e-114
1.00342e-112
-2.07417e-116
2.90584e-114
-2.90658e-118
8.00987e-116
-6.20533e-121
1.72695e-117
1.42548e-119
-3.17859e-62
3.70538e-62
-1.70881e-63
2.25661e-63
-8.67523e-65
1.32267e-64
-4.17807e-66
7.30647e-66
-1.92976e-67
3.81689e-67
-8.50811e-69
1.90757e-68
-3.62398e-70
9.08546e-70
-1.48779e-71
4.17698e-71
-5.89071e-73
1.8494e-72
-2.26912e-74
7.89705e-74
-8.42801e-76
3.28073e-75
-3.03949e-77
1.31436e-76
-1.06201e-78
5.1161e-78
-3.57702e-80
1.92997e-79
-1.17081e-81
7.02332e-81
-3.69257e-83
2.48586e-82
-1.11925e-84
8.48169e-84
-3.28343e-86
2.78386e-85
-9.23375e-88
8.85149e-87
-2.48416e-89
2.69927e-88
-6.42457e-91
7.88161e-90
-1.58918e-92
2.2145e-91
-3.75276e-94
5.95497e-93
-8.46773e-96
1.53022e-94
-1.8374e-97
3.76224e-96
-3.83808e-99
8.91205e-98
-7.76378e-101
2.03711e-99
-1.53463e-102
4.52474e-101
-3.00022e-104
9.87004e-103
-5.88501e-106
2.14427e-104
-1.1764e-107
4.71799e-106
-2.43281e-109
1.07105e-107
-5.26533e-111
2.55577e-109
-1.19667e-112
6.51293e-111
-2.82003e-114
1.78796e-112
-6.60107e-116
5.25835e-114
-1.38653e-117
1.60415e-115
-2.04573e-119
4.67611e-117
-4.4858e-122
1.06571e-118
9.08813e-121
-1.4131e-63
1.46322e-63
-7.67949e-65
8.97777e-65
-3.95461e-66
5.29982e-66
-1.92575e-67
2.97428e-67
-8.97052e-69
1.57496e-68
-3.98095e-70
7.95483e-70
-1.70432e-71
3.82021e-71
-7.02363e-73
1.7677e-72
-2.78915e-74
7.8649e-74
-1.07679e-75
3.37084e-75
-4.00587e-77
1.40413e-76
-1.44652e-78
5.63544e-78
-5.05835e-80
2.19609e-79
-1.70472e-81
8.28807e-81
-5.58267e-83
3.01594e-82
-1.76115e-84
1.06704e-83
-5.33941e-86
3.63751e-85
-1.56692e-87
1.19255e-86
-4.40756e-89
3.78699e-88
-1.18617e-90
1.15306e-89
-3.06964e-92
3.3614e-91
-7.59849e-94
9.43055e-93
-1.79617e-95
2.53226e-94
-4.05906e-97
6.49937e-96
-8.82876e-99
1.59694e-97
-1.85055e-100
3.78406e-99
-3.76183e-102
8.66315e-101
-7.48903e-104
1.93074e-102
-1.47898e-105
4.23685e-104
-2.94173e-107
9.2917e-106
-5.99114e-109
2.07283e-107
-1.26932e-110
4.79645e-109
-2.832e-112
1.17386e-110
-6.67871e-114
3.08895e-112
-1.64368e-115
8.81877e-114
-4.04067e-117
2.71569e-115
-8.94747e-119
8.72515e-117
-1.39118e-120
2.68866e-118
-3.13649e-123
6.47417e-120
5.69988e-122
-5.95449e-65
5.46305e-65
-3.25253e-66
3.4077e-66
-1.69755e-67
2.02249e-67
-8.38183e-69
1.14606e-68
-3.94789e-70
6.17269e-70
-1.76761e-71
3.15997e-71
-7.6221e-73
1.53418e-72
-3.15916e-74
7.16237e-74
-1.26044e-75
3.20951e-75
-4.88469e-77
1.38359e-76
-1.82275e-78
5.79018e-78
-6.59877e-80
2.33233e-79
-2.31212e-81
9.11502e-81
-7.80481e-83
3.44717e-82
-2.55958e-84
1.25626e-83
-8.08322e-86
4.44928e-85
-2.45294e-87
1.5175e-86
-7.20506e-89
4.97589e-88
-2.02816e-90
1.58002e-89
-5.46223e-92
4.80898e-91
-1.41483e-93
1.4012e-92
-3.50551e-95
3.92929e-94
-8.29634e-97
1.05457e-95
-1.8779e-98
2.70598e-97
-4.09456e-100
6.65021e-99
-8.61232e-102
1.57754e-100
-1.75951e-103
3.61984e-102
-3.52831e-105
8.10014e-104
-7.03985e-107
1.78922e-105
-1.42023e-108
3.96304e-107
-2.94782e-110
8.96752e-109
-6.40092e-112
2.11579e-110
-1.47288e-113
5.31186e-112
-3.60604e-115
1.44353e-113
-9.27295e-117
4.28576e-115
-2.39522e-118
1.3817e-116
-5.59399e-120
4.67401e-118
-9.16983e-122
1.52198e-119
-2.12675e-124
3.87023e-121
3.51516e-123
-2.37185e-66
1.92475e-66
-1.30923e-67
1.22648e-67
-6.85977e-69
7.39205e-69
-3.44521e-70
4.19986e-70
-1.64518e-71
2.29788e-71
-7.44961e-73
1.19583e-72
-3.24252e-74
5.88508e-74
-1.35435e-75
2.7787e-75
-5.43884e-77
1.2569e-76
-2.11929e-78
5.46132e-78
-7.94446e-80
2.3006e-79
-2.88739e-81
9.31782e-81
-1.015e-82
3.65821e-82
-3.43576e-84
1.38861e-83
-1.1295e-85
5.07584e-85
-3.57415e-87
1.80213e-86
-1.08653e-88
6.1579e-88
-3.19669e-90
2.02211e-89
-9.0108e-92
6.42821e-91
-2.42994e-93
1.958e-92
-6.30267e-95
5.70833e-94
-1.56373e-96
1.60159e-95
-3.70654e-98
4.30046e-97
-8.40623e-100
1.10419e-98
-1.83785e-101
2.71652e-100
-3.88008e-103
6.45596e-102
-7.96888e-105
1.48583e-103
-1.61002e-106
3.34049e-105
-3.24643e-108
7.43161e-107
-6.64479e-110
1.66332e-108
-1.40604e-111
3.8192e-110
-3.13013e-113
9.19074e-112
-7.43081e-115
2.3675e-113
-1.88933e-116
6.64493e-115
-5.07794e-118
2.05155e-116
-1.37854e-119
6.92331e-118
-3.39636e-121
2.46517e-119
-5.87075e-123
8.47898e-121
-1.40095e-125
2.27579e-122
2.1308e-124
-8.90948e-68
6.39688e-68
-4.99275e-69
4.17764e-69
-2.64047e-70
2.56791e-70
-1.33786e-71
1.48022e-71
-6.49362e-73
8.13539e-73
-2.98103e-74
4.31266e-74
-1.31261e-75
2.15705e-75
-5.5362e-77
1.03252e-76
-2.24188e-78
4.72496e-78
-8.79831e-80
2.07358e-79
-3.31845e-81
8.80961e-81
-1.21254e-82
3.59407e-82
-4.28195e-84
1.4199e-83
-1.45523e-85
5.41834e-85
-4.80097e-87
1.98956e-86
-1.52379e-88
7.09108e-88
-4.64472e-90
2.4308e-89
-1.36987e-91
8.00382e-91
-3.86962e-93
2.55028e-92
-1.04558e-94
7.78269e-94
-2.71732e-96
2.27266e-95
-6.75463e-98
6.38608e-97
-1.60433e-99
1.71715e-98
-3.64724e-101
4.41565e-100
-7.99858e-103
1.08837e-101
-1.69559e-104
2.5933e-103
-3.502e-106
5.99044e-105
-7.1311e-108
1.35397e-106
-1.45363e-109
3.03548e-108
-3.01959e-111
6.86842e-110
-6.51585e-113
1.60094e-111
-1.4876e-114
3.9306e-113
-3.64438e-116
1.03907e-114
-9.6249e-118
3.0123e-116
-2.70421e-119
9.67068e-118
-7.71658e-121
3.41552e-119
-2.00565e-122
1.27974e-120
-3.65581e-124
4.64742e-122
-8.97577e-127
1.31592e-123
1.26916e-125
-3.15281e-69
2.00413e-69
-1.80023e-70
1.34652e-70
-9.65721e-72
8.46914e-72
-4.92156e-73
4.97303e-73
-2.4289e-74
2.75546e-74
-1.13316e-75
1.48321e-75
-5.05868e-77
7.55918e-77
-2.15884e-78
3.67689e-78
-8.83184e-80
1.70593e-79
-3.49686e-81
7.57666e-81
-1.32912e-82
3.25252e-82
-4.8896e-84
1.33897e-83
-1.73694e-85
5.33179e-85
-5.93401e-87
2.04857e-86
-1.96684e-88
7.56728e-88
-6.26811e-90
2.71123e-89
-1.9176e-91
9.33596e-91
-5.6744e-93
3.08616e-92
-1.60764e-94
9.86758e-94
-4.35575e-96
3.0203e-95
-1.13497e-97
8.84326e-97
-2.82837e-99
2.49106e-98
-6.73535e-101
6.71369e-100
-1.53566e-102
1.73052e-101
-3.37977e-104
4.27681e-103
-7.19717e-106
1.02244e-104
-1.49546e-107
2.37208e-106
-3.07037e-109
5.3933e-108
-6.32946e-111
1.21913e-109
-1.33483e-112
2.79007e-111
-2.93822e-114
6.60415e-113
-6.88118e-116
1.65473e-114
-1.74e-117
4.48988e-116
-4.77405e-119
1.34451e-117
-1.40225e-120
4.48808e-119
-4.20594e-122
1.65862e-120
-1.15319e-123
6.53742e-122
-2.21631e-125
2.50555e-123
-5.59744e-128
7.48012e-125
7.42576e-127
-1.05022e-70
5.91578e-71
-6.13203e-72
4.1051e-72
-3.3467e-73
2.65154e-73
-1.72683e-74
1.59023e-74
-8.61676e-76
8.97052e-76
-4.09438e-77
4.86924e-77
-1.85719e-78
2.53512e-78
-8.03545e-80
1.25589e-79
-3.3271e-81
5.91994e-81
-1.33127e-82
2.66605e-82
-5.10716e-84
1.15851e-83
-1.89437e-85
4.82068e-85
-6.77847e-87
1.93789e-86
-2.33083e-88
7.50808e-88
-7.77059e-90
2.79402e-89
-2.4892e-91
1.00764e-90
-7.65069e-93
3.4898e-92
-2.27352e-94
1.15954e-93
-6.46573e-96
3.72448e-95