/*--------------------------------*- C++ -*----------------------------------*\
  =========                 |
  \\      /  F ield         | OpenFOAM: The Open Source CFD Toolbox
   \\    /   O peration     | Website:  https://openfoam.org
    \\  /    A nd           | Version:  7
     \\/     M anipulation  |
\*---------------------------------------------------------------------------*/
FoamFile
{
    version     2.0;
    format      ascii;
    class       volScalarField;
    location    "0.1";
    object      p;
}
// * * * * * * * * * * * * * * * * * * * * * * * * * * * * * * * * * * * * * //

dimensions      [1 -1 -2 0 0 0 0];

internalField   nonuniform List<scalar> 
1935
(
-1.86915
-1.96563
-2.06184
-2.15783
-2.25353
-2.34888
-2.44382
-2.53829
-2.63226
-2.72569
-2.81856
-2.91088
-3.00263
-3.09386
-3.18458
-3.27484
-3.36467
-3.45413
-3.54325
-3.6321
-3.72071
-3.80914
-3.89743
-3.98561
-4.07372
-4.16177
-4.24981
-4.33784
-4.4259
-4.51402
-4.60224
-4.69059
-4.77912
-4.86785
-4.95682
-5.04605
-5.13556
-5.2254
-5.3156
-5.40624
-5.49741
-5.58928
-5.68223
-1.86306
-1.85769
-1.85287
-1.8486
-1.95842
-1.95206
-1.94632
-1.94116
-2.05362
-2.04634
-2.03974
-2.03376
-2.14868
-2.14055
-2.13314
-2.1264
-2.24354
-2.23464
-2.2265
-2.21906
-2.33815
-2.32856
-2.31976
-2.31168
-2.43245
-2.42226
-2.41287
-2.40422
-2.52639
-2.51569
-2.50579
-2.49663
-2.61993
-2.60881
-2.59848
-2.58887
-2.71304
-2.70158
-2.69089
-2.6809
-2.8057
-2.79398
-2.783
-2.7727
-2.89789
-2.886
-2.8748
-2.86424
-2.98961
-2.97762
-2.96626
-2.95551
-3.08087
-3.06884
-3.05739
-3.0465
-3.1717
-3.15969
-3.14819
-3.13722
-3.26212
-3.25017
-3.23869
-3.22769
-3.35216
-3.34032
-3.32889
-3.31791
-3.44185
-3.43017
-3.41884
-3.40792
-3.53124
-3.51974
-3.50855
-3.49773
-3.62038
-3.60909
-3.59806
-3.58738
-3.7093
-3.69825
-3.68742
-3.67691
-3.79805
-3.78725
-3.77664
-3.76633
-3.88667
-3.87614
-3.86577
-3.85568
-3.97518
-3.96495
-3.95484
-3.94499
-4.06363
-4.05369
-4.04387
-4.03429
-4.15204
-4.14242
-4.13289
-4.12362
-4.24043
-4.23114
-4.22195
-4.213
-4.32883
-4.31991
-4.31107
-4.30248
-4.41729
-4.40875
-4.4003
-4.3921
-4.50583
-4.49771
-4.48968
-4.48189
-4.59449
-4.58683
-4.57926
-4.57191
-4.68333
-4.67614
-4.66906
-4.66219
-4.77237
-4.7657
-4.75913
-4.75276
-4.86165
-4.85553
-4.84949
-4.84365
-4.9512
-4.94565
-4.94017
-4.93487
-5.04104
-5.03608
-5.03119
-5.02645
-5.1312
-5.12686
-5.12257
-5.11841
-5.2217
-5.218
-5.21434
-5.21078
-5.31259
-5.30955
-5.30654
-5.30361
-5.40392
-5.40157
-5.39924
-5.39696
-5.49582
-5.49417
-5.49252
-5.49091
-5.58844
-5.58753
-5.58659
-5.58566
-5.68211
-5.68193
-5.6817
-5.68144
-1.84466
-1.84116
-1.83824
-1.83588
-1.83405
-1.83273
-1.83187
-1.83142
-1.83133
-1.83154
-1.83199
-1.83265
-1.83348
-1.83443
-1.8355
-1.83667
-1.83791
-1.83922
-1.84057
-1.84196
-1.84336
-1.84476
-1.84614
-1.84749
-1.84879
-1.85002
-1.85117
-1.85223
-1.85319
-1.85403
-1.85474
-1.85533
-1.85577
-1.85607
-1.85623
-1.85626
-1.85617
-1.85597
-1.85566
-1.85536
-1.93633
-1.93194
-1.92815
-1.92493
-1.92226
-1.92011
-1.91844
-1.91721
-1.91636
-1.91586
-1.91564
-1.91566
-1.91589
-1.91629
-1.91683
-1.9175
-1.91828
-1.91915
-1.92009
-1.92109
-1.92212
-1.92317
-1.92423
-1.92527
-1.92628
-1.92725
-1.92816
-1.92899
-1.92975
-1.93041
-1.93096
-1.93141
-1.93174
-1.93196
-1.93206
-1.93205
-1.93194
-1.93174
-1.93146
-1.93118
-2.02812
-2.02291
-2.01832
-2.0143
-2.01084
-2.0079
-2.00547
-2.00349
-2.00192
-2.00073
-1.99986
-1.99927
-1.99893
-1.99879
-1.99882
-1.99902
-1.99934
-1.99979
-2.00032
-2.00094
-2.00161
-2.00232
-2.00306
-2.0038
-2.00452
-2.00523
-2.00589
-2.00651
-2.00706
-2.00755
-2.00795
-2.00827
-2.00849
-2.00862
-2.00866
-2.00861
-2.00849
-2.00829
-2.00803
-2.00777
-2.12
-2.11403
-2.10868
-2.10392
-2.09971
-2.09604
-2.09288
-2.09019
-2.08795
-2.08611
-2.08462
-2.08345
-2.08255
-2.08189
-2.08144
-2.08117
-2.08106
-2.08109
-2.08124
-2.08148
-2.0818
-2.08218
-2.0826
-2.08305
-2.0835
-2.08394
-2.08437
-2.08477
-2.08513
-2.08544
-2.08569
-2.08588
-2.086
-2.08605
-2.08603
-2.08595
-2.0858
-2.0856
-2.08536
-2.08513
-2.21195
-2.20526
-2.19921
-2.19374
-2.18884
-2.18447
-2.18063
-2.17729
-2.17441
-2.17195
-2.16988
-2.16816
-2.16673
-2.16558
-2.16466
-2.16394
-2.16342
-2.16305
-2.16281
-2.1627
-2.16268
-2.16274
-2.16285
-2.16301
-2.16319
-2.16339
-2.16359
-2.16377
-2.16394
-2.16408
-2.16419
-2.16425
-2.16427
-2.16424
-2.16416
-2.16404
-2.16388
-2.16368
-2.16346
-2.16326
-2.30392
-2.29657
-2.28986
-2.28373
-2.27817
-2.27316
-2.26869
-2.26473
-2.26125
-2.25822
-2.25561
-2.25336
-2.25144
-2.24981
-2.24844
-2.24731
-2.24638
-2.24563
-2.24503
-2.24457
-2.24422
-2.24397
-2.24379
-2.24367
-2.24359
-2.24355
-2.24352
-2.2435
-2.24349
-2.24347
-2.24343
-2.24337
-2.24329
-2.24318
-2.24305
-2.24289
-2.24271
-2.24252
-2.24232
-2.24214
-2.39587
-2.38791
-2.38059
-2.37386
-2.36769
-2.36208
-2.35702
-2.35248
-2.34846
-2.3449
-2.34177
-2.33903
-2.33664
-2.33457
-2.33278
-2.33124
-2.32993
-2.32881
-2.32787
-2.32708
-2.32642
-2.32586
-2.3254
-2.32501
-2.32469
-2.32441
-2.32417
-2.32396
-2.32376
-2.32358
-2.32341
-2.32323
-2.32306
-2.32287
-2.32269
-2.32249
-2.3223
-2.32212
-2.32193
-2.32178
-2.48775
-2.47924
-2.47137
-2.46407
-2.45735
-2.45119
-2.44559
-2.44054
-2.436
-2.43194
-2.42834
-2.42514
-2.42232
-2.41983
-2.41764
-2.41572
-2.41404
-2.41258
-2.41131
-2.41021
-2.40925
-2.40841
-2.40768
-2.40703
-2.40647
-2.40597
-2.40552
-2.40512
-2.40475
-2.40442
-2.40412
-2.40383
-2.40356
-2.40331
-2.40307
-2.40285
-2.40264
-2.40246
-2.40229
-2.40217
-2.57952
-2.57052
-2.56214
-2.55435
-2.54712
-2.54047
-2.53439
-2.52885
-2.52385
-2.51934
-2.51529
-2.51167
-2.50844
-2.50556
-2.503
-2.50073
-2.49871
-2.49693
-2.49534
-2.49394
-2.4927
-2.49159
-2.4906
-2.48972
-2.48892
-2.48821
-2.48757
-2.48698
-2.48646
-2.48598
-2.48555
-2.48516
-2.4848
-2.48448
-2.48419
-2.48394
-2.48372
-2.48354
-2.4834
-2.4833
-2.67115
-2.6617
-2.65289
-2.64465
-2.63698
-2.62989
-2.62337
-2.6174
-2.61198
-2.60706
-2.60261
-2.59861
-2.595
-2.59176
-2.58885
-2.58625
-2.58391
-2.58182
-2.57995
-2.57827
-2.57676
-2.57539
-2.57416
-2.57305
-2.57204
-2.57113
-2.5703
-2.56955
-2.56887
-2.56825
-2.5677
-2.56721
-2.56677
-2.56639
-2.56606
-2.56577
-2.56555
-2.56537
-2.56525
-2.56517
-2.76259
-2.75278
-2.74358
-2.73495
-2.7269
-2.71942
-2.71252
-2.70617
-2.70037
-2.69508
-2.69028
-2.68592
-2.68197
-2.6784
-2.67518
-2.67226
-2.66963
-2.66726
-2.66511
-2.66317
-2.66141
-2.65981
-2.65835
-2.65703
-2.65582
-2.65471
-2.65371
-2.6528
-2.65197
-2.65123
-2.65057
-2.64998
-2.64947
-2.64902
-2.64865
-2.64834
-2.6481
-2.64793
-2.64783
-2.64777
-2.85385
-2.84372
-2.8342
-2.82524
-2.81685
-2.80904
-2.80181
-2.79513
-2.789
-2.78339
-2.77826
-2.77359
-2.76933
-2.76546
-2.76195
-2.75876
-2.75586
-2.75322
-2.75083
-2.74864
-2.74665
-2.74483
-2.74316
-2.74163
-2.74023
-2.73896
-2.73779
-2.73673
-2.73577
-2.73491
-2.73414
-2.73347
-2.73288
-2.73238
-2.73197
-2.73164
-2.73139
-2.73122
-2.73114
-2.7311
-2.94489
-2.93451
-2.92472
-2.9155
-2.90684
-2.89875
-2.89123
-2.88427
-2.87786
-2.87196
-2.86655
-2.8616
-2.85707
-2.85293
-2.84916
-2.84572
-2.84258
-2.8397
-2.83708
-2.83467
-2.83246
-2.83044
-2.82858
-2.82686
-2.82529
-2.82385
-2.82253
-2.82134
-2.82025
-2.81928
-2.81842
-2.81766
-2.81701
-2.81646
-2.81601
-2.81566
-2.8154
-2.81524
-2.81517
-2.81515
-3.03572
-3.02514
-3.01516
-3.00571
-2.99683
-2.98852
-2.98077
-2.97357
-2.96692
-2.96078
-2.95512
-2.94993
-2.94517
-2.9408
-2.9368
-2.93313
-2.92977
-2.92669
-2.92385
-2.92125
-2.91885
-2.91663
-2.91459
-2.91271
-2.91098
-2.90939
-2.90794
-2.90661
-2.90542
-2.90434
-2.90339
-2.90256
-2.90185
-2.90125
-2.90077
-2.9004
-2.90014
-2.89998
-2.89993
-2.89993
-3.12633
-3.11562
-3.10549
-3.09589
-3.08684
-3.07835
-3.07042
-3.06303
-3.05618
-3.04983
-3.04398
-3.03858
-3.03361
-3.02905
-3.02485
-3.02099
-3.01743
-3.01416
-3.01114
-3.00836
-3.00578
-3.0034
-3.0012
-2.99917
-2.99729
-2.99557
-2.99399
-2.99255
-2.99125
-2.99009
-2.98906
-2.98816
-2.9874
-2.98676
-2.98624
-2.98585
-2.98559
-2.98544
-2.9854
-2.98542
-3.21674
-3.20596
-3.19573
-3.18603
-3.17686
-3.16824
-3.16017
-3.15264
-3.14563
-3.13912
-3.1331
-3.12754
-3.12241
-3.11767
-3.1133
-3.10927
-3.10556
-3.10212
-3.09894
-3.096
-3.09327
-3.09074
-3.0884
-3.08623
-3.08422
-3.08238
-3.08069
-3.07915
-3.07776
-3.07652
-3.07542
-3.07446
-3.07364
-3.07297
-3.07243
-3.07202
-3.07175
-3.07161
-3.07159
-3.07163
-3.30696
-3.29615
-3.28589
-3.27613
-3.26689
-3.25819
-3.25003
-3.24239
-3.23527
-3.22864
-3.2225
-3.2168
-3.21154
-3.20666
-3.20216
-3.19799
-3.19413
-3.19056
-3.18724
-3.18416
-3.1813
-3.17864
-3.17617
-3.17388
-3.17177
-3.16982
-3.16803
-3.16641
-3.16494
-3.16362
-3.16246
-3.16145
-3.16059
-3.15988
-3.15932
-3.1589
-3.15863
-3.15849
-3.15848
-3.15854
-3.397
-3.38623
-3.37597
-3.3662
-3.35694
-3.3482
-3.33999
-3.33229
-3.32509
-3.31839
-3.31215
-3.30637
-3.301
-3.29602
-3.29141
-3.28713
-3.28316
-3.27947
-3.27603
-3.27284
-3.26986
-3.26709
-3.26452
-3.26213
-3.25992
-3.25788
-3.25601
-3.25431
-3.25277
-3.2514
-3.25018
-3.24913
-3.24823
-3.2475
-3.24692
-3.24649
-3.24622
-3.24609
-3.24609
-3.24616
-3.4869
-3.4762
-3.46599
-3.45626
-3.44702
-3.43828
-3.43006
-3.42234
-3.41511
-3.40836
-3.40208
-3.39623
-3.3908
-3.38575
-3.38105
-3.37669
-3.37263
-3.36885
-3.36532
-3.36203
-3.35896
-3.3561
-3.35344
-3.35097
-3.34868
-3.34657
-3.34463
-3.34287
-3.34127
-3.33984
-3.33859
-3.33749
-3.33657
-3.33581
-3.33522
-3.33478
-3.33451
-3.33438
-3.3344
-3.33449
-3.57668
-3.56608
-3.55597
-3.54631
-3.53713
-3.52844
-3.52025
-3.51255
-3.50533
-3.49857
-3.49227
-3.4864
-3.48093
-3.47584
-3.47109
-3.46667
-3.46254
-3.45869
-3.45509
-3.45173
-3.44859
-3.44566
-3.44293
-3.44039
-3.43804
-3.43587
-3.43388
-3.43207
-3.43043
-3.42896
-3.42767
-3.42654
-3.4256
-3.42482
-3.42422
-3.42378
-3.4235
-3.42339
-3.42342
-3.42352
-3.66636
-3.65591
-3.64593
-3.63638
-3.6273
-3.6187
-3.61057
-3.60293
-3.59575
-3.58903
-3.58275
-3.57688
-3.57141
-3.5663
-3.56153
-3.55707
-3.5529
-3.549
-3.54536
-3.54195
-3.53875
-3.53577
-3.53299
-3.5304
-3.52801
-3.52579
-3.52376
-3.52191
-3.52024
-3.51874
-3.51742
-3.51628
-3.51532
-3.51453
-3.51392
-3.51348
-3.51321
-3.51309
-3.51313
-3.51325
-3.75598
-3.74571
-3.73589
-3.72649
-3.71755
-3.70907
-3.70105
-3.6935
-3.6864
-3.67974
-3.67351
-3.66768
-3.66223
-3.65713
-3.65236
-3.64789
-3.64371
-3.63979
-3.63611
-3.63267
-3.62945
-3.62643
-3.62362
-3.621
-3.61857
-3.61633
-3.61428
-3.6124
-3.6107
-3.60919
-3.60785
-3.6067
-3.60573
-3.60494
-3.60432
-3.60388
-3.60361
-3.60351
-3.60356
-3.60368
-3.84555
-3.83549
-3.82587
-3.81667
-3.80789
-3.79957
-3.79169
-3.78427
-3.77728
-3.77072
-3.76457
-3.75881
-3.7534
-3.74834
-3.74359
-3.73914
-3.73496
-3.73104
-3.72736
-3.72391
-3.72067
-3.71764
-3.71482
-3.71219
-3.70975
-3.70749
-3.70542
-3.70354
-3.70183
-3.70031
-3.69897
-3.69781
-3.69683
-3.69604
-3.69542
-3.69499
-3.69472
-3.69463
-3.69469
-3.69482
-3.9351
-3.9253
-3.91591
-3.90692
-3.89836
-3.89023
-3.88253
-3.87527
-3.86842
-3.86199
-3.85594
-3.85027
-3.84494
-3.83994
-3.83524
-3.83083
-3.82668
-3.82277
-3.81911
-3.81567
-3.81244
-3.80942
-3.80659
-3.80397
-3.80153
-3.79928
-3.79721
-3.79532
-3.79362
-3.7921
-3.79076
-3.7896
-3.78863
-3.78784
-3.78723
-3.7868
-3.78654
-3.78645
-3.78652
-3.78666
-4.02468
-4.01515
-4.00603
-3.9973
-3.98898
-3.98107
-3.97358
-3.96651
-3.95984
-3.95356
-3.94765
-3.94209
-3.93686
-3.93194
-3.92731
-3.92295
-3.91885
-3.91499
-3.91136
-3.90795
-3.90475
-3.90175
-3.89895
-3.89634
-3.89392
-3.89169
-3.88963
-3.88776
-3.88607
-3.88456
-3.88324
-3.88209
-3.88113
-3.88035
-3.87975
-3.87932
-3.87907
-3.87899
-3.87906
-3.87921
-4.11431
-4.10509
-4.09627
-4.08782
-4.07977
-4.07212
-4.06487
-4.05802
-4.05155
-4.04544
-4.03969
-4.03427
-4.02916
-4.02435
-4.01981
-4.01553
-4.0115
-4.0077
-4.00412
-4.00076
-3.99761
-3.99465
-3.99189
-3.98932
-3.98693
-3.98473
-3.98271
-3.98086
-3.9792
-3.97771
-3.9764
-3.97527
-3.97433
-3.97356
-3.97297
-3.97256
-3.97231
-3.97224
-3.97232
-3.97247
-4.20403
-4.19515
-4.18666
-4.17853
-4.17079
-4.16342
-4.15643
-4.14982
-4.14357
-4.13767
-4.13209
-4.12683
-4.12186
-4.11718
-4.11275
-4.10857
-4.10463
-4.10091
-4.09741
-4.09412
-4.09103
-4.08813
-4.08543
-4.08291
-4.08058
-4.07842
-4.07644
-4.07463
-4.073
-4.07154
-4.07026
-4.06916
-4.06823
-4.06748
-4.06691
-4.06651
-4.06627
-4.0662
-4.06629
-4.06645
-4.29387
-4.28537
-4.27724
-4.26946
-4.26204
-4.25499
-4.24829
-4.24194
-4.23593
-4.23025
-4.22487
-4.21979
-4.21498
-4.21044
-4.20615
-4.20209
-4.19826
-4.19464
-4.19124
-4.18803
-4.18503
-4.18221
-4.17958
-4.17713
-4.17486
-4.17276
-4.17083
-4.16907
-4.16749
-4.16607
-4.16483
-4.16375
-4.16285
-4.16212
-4.16157
-4.16118
-4.16096
-4.1609
-4.16099
-4.16115
-4.38389
-4.37579
-4.36805
-4.36064
-4.35358
-4.34685
-4.34046
-4.3344
-4.32865
-4.32321
-4.31805
-4.31316
-4.30854
-4.30416
-4.30002
-4.2961
-4.2924
-4.2889
-4.28561
-4.28252
-4.27961
-4.27689
-4.27435
-4.27198
-4.26978
-4.26776
-4.2659
-4.2642
-4.26267
-4.2613
-4.2601
-4.25906
-4.25819
-4.25749
-4.25696
-4.25659
-4.25637
-4.25632
-4.25641
-4.25657
-4.47412
-4.46645
-4.45912
-4.45211
-4.44542
-4.43904
-4.43298
-4.42722
-4.42175
-4.41656
-4.41164
-4.40697
-4.40254
-4.39835
-4.39437
-4.39062
-4.38707
-4.38371
-4.38055
-4.37758
-4.3748
-4.37218
-4.36975
-4.36748
-4.36537
-4.36343
-4.36165
-4.36002
-4.35855
-4.35724
-4.35609
-4.3551
-4.35426
-4.35359
-4.35308
-4.35273
-4.35253
-4.35248
-4.35258
-4.35274
-4.56459
-4.55738
-4.55049
-4.54389
-4.53759
-4.53159
-4.52587
-4.52042
-4.51525
-4.51033
-4.50566
-4.50122
-4.49702
-4.49303
-4.48924
-4.48567
-4.48228
-4.47909
-4.47608
-4.47325
-4.4706
-4.46812
-4.4658
-4.46364
-4.46164
-4.45979
-4.45809
-4.45655
-4.45515
-4.45391
-4.45281
-4.45187
-4.45108
-4.45044
-4.44996
-4.44962
-4.44944
-4.4494
-4.44949
-4.44965
-4.65535
-4.64861
-4.64218
-4.63602
-4.63012
-4.6245
-4.61914
-4.61403
-4.60917
-4.60454
-4.60014
-4.59596
-4.59199
-4.58822
-4.58465
-4.58127
-4.57807
-4.57506
-4.57222
-4.56955
-4.56705
-4.5647
-4.56252
-4.56048
-4.55859
-4.55685
-4.55525
-4.5538
-4.55248
-4.55131
-4.55027
-4.54938
-4.54864
-4.54804
-4.54759
-4.54727
-4.5471
-4.54707
-4.54717
-4.54732
-4.74642
-4.74018
-4.73422
-4.72851
-4.72304
-4.71781
-4.71283
-4.70807
-4.70353
-4.69921
-4.6951
-4.69119
-4.68748
-4.68395
-4.68061
-4.67745
-4.67446
-4.67164
-4.66898
-4.66649
-4.66415
-4.66196
-4.65992
-4.65802
-4.65626
-4.65463
-4.65314
-4.65178
-4.65055
-4.64945
-4.64849
-4.64766
-4.64697
-4.64641
-4.64598
-4.6457
-4.64554
-4.64551
-4.64561
-4.64576
-4.83783
-4.8321
-4.82663
-4.82138
-4.81635
-4.81154
-4.80695
-4.80255
-4.79837
-4.79437
-4.79057
-4.78695
-4.78351
-4.78025
-4.77715
-4.77423
-4.77146
-4.76885
-4.7664
-4.7641
-4.76193
-4.75991
-4.75803
-4.75627
-4.75465
-4.75315
-4.75177
-4.75051
-4.74938
-4.74837
-4.74748
-4.74671
-4.74607
-4.74555
-4.74516
-4.7449
-4.74476
-4.74474
-4.74483
-4.74497
-4.92959
-4.9244
-4.91943
-4.91466
-4.91009
-4.90571
-4.90152
-4.89752
-4.8937
-4.89005
-4.88657
-4.88326
-4.88012
-4.87714
-4.87431
-4.87164
-4.86911
-4.86673
-4.8645
-4.86239
-4.86042
-4.85858
-4.85686
-4.85527
-4.85378
-4.85242
-4.85116
-4.85002
-4.84899
-4.84806
-4.84725
-4.84655
-4.84597
-4.8455
-4.84514
-4.8449
-4.84477
-4.84476
-4.84485
-4.84498
-5.02173
-5.01709
-5.01264
-5.00838
-5.00428
-5.00035
-4.99659
-4.99299
-4.98955
-4.98627
-4.98314
-4.98017
-4.97734
-4.97465
-4.97211
-4.96971
-4.96744
-4.96531
-4.9633
-4.96141
-4.95964
-4.95799
-4.95645
-4.95502
-4.95369
-4.95246
-4.95134
-4.95031
-4.94938
-4.94855
-4.94783
-4.9472
-4.94667
-4.94625
-4.94593
-4.94571
-4.9456
-4.94559
-4.94567
-4.9458
-5.11427
-5.1102
-5.1063
-5.10255
-5.09894
-5.09549
-5.09217
-5.089
-5.08597
-5.08308
-5.08032
-5.07769
-5.0752
-5.07283
-5.07059
-5.06847
-5.06648
-5.0646
-5.06283
-5.06117
-5.05962
-5.05816
-5.05681
-5.05555
-5.05438
-5.0533
-5.05231
-5.05141
-5.05059
-5.04986
-5.04922
-5.04866
-5.0482
-5.04782
-5.04754
-5.04735
-5.04725
-5.04724
-5.04732
-5.04745
-5.20724
-5.20376
-5.20043
-5.19722
-5.19413
-5.19116
-5.18832
-5.1856
-5.18299
-5.1805
-5.17813
-5.17588
-5.17373
-5.1717
-5.16978
-5.16796
-5.16625
-5.16464
-5.16313
-5.1617
-5.16037
-5.15913
-5.15797
-5.15689
-5.15588
-5.15496
-5.15411
-5.15334
-5.15263
-5.15201
-5.15145
-5.15097
-5.15057
-5.15024
-5.14999
-5.14983
-5.14974
-5.14974
-5.14982
-5.14993
-5.3007
-5.29783
-5.29508
-5.29243
-5.28988
-5.28742
-5.28507
-5.28282
-5.28066
-5.2786
-5.27663
-5.27477
-5.27299
-5.27131
-5.26972
-5.26821
-5.2668
-5.26546
-5.26421
-5.26304
-5.26193
-5.26091
-5.25994
-5.25905
-5.25822
-5.25746
-5.25675
-5.25611
-5.25553
-5.255
-5.25454
-5.25414
-5.2538
-5.25352
-5.25331
-5.25317
-5.2531
-5.2531
-5.25317
-5.25327
-5.39469
-5.39245
-5.39031
-5.38824
-5.38624
-5.38432
-5.38248
-5.38071
-5.37902
-5.3774
-5.37586
-5.37439
-5.373
-5.37168
-5.37043
-5.36925
-5.36814
-5.3671
-5.36612
-5.36519
-5.36433
-5.36352
-5.36277
-5.36206
-5.36141
-5.36081
-5.36026
-5.35975
-5.35929
-5.35887
-5.3585
-5.35818
-5.3579
-5.35768
-5.3575
-5.35738
-5.35732
-5.35733
-5.35739
-5.35749
-5.4893
-5.48772
-5.4862
-5.48472
-5.4833
-5.48193
-5.48062
-5.47935
-5.47814
-5.47698
-5.47588
-5.47483
-5.47383
-5.47288
-5.47198
-5.47114
-5.47034
-5.46959
-5.46888
-5.46822
-5.4676
-5.46702
-5.46647
-5.46597
-5.4655
-5.46506
-5.46466
-5.46429
-5.46395
-5.46364
-5.46337
-5.46313
-5.46291
-5.46274
-5.4626
-5.4625
-5.46244
-5.46244
-5.4625
-5.46259
-5.58473
-5.58382
-5.58294
-5.58208
-5.58124
-5.58044
-5.57966
-5.57891
-5.57819
-5.5775
-5.57684
-5.57621
-5.57562
-5.57505
-5.57451
-5.574
-5.57352
-5.57307
-5.57264
-5.57224
-5.57187
-5.57151
-5.57118
-5.57087
-5.57058
-5.57031
-5.57006
-5.56983
-5.56961
-5.56941
-5.56923
-5.56906
-5.56891
-5.56877
-5.56865
-5.56856
-5.56849
-5.56847
-5.56852
-5.56859
-5.68116
-5.6809
-5.68064
-5.68038
-5.68012
-5.67986
-5.67961
-5.67936
-5.67912
-5.67889
-5.67866
-5.67844
-5.67823
-5.67803
-5.67784
-5.67766
-5.67749
-5.67733
-5.67717
-5.67702
-5.67688
-5.67675
-5.67663
-5.67651
-5.67639
-5.67629
-5.67619
-5.67609
-5.676
-5.67592
-5.67584
-5.67576
-5.67569
-5.67563
-5.67558
-5.67553
-5.67549
-5.67547
-5.67548
-5.67551
)
;

boundaryField
{
    leftWall
    {
        type            calculated;
        value           nonuniform 0();
    }
    rightWall
    {
        type            calculated;
        value           nonuniform List<scalar> 
43
(
-1.85536
-1.93118
-2.00777
-2.08513
-2.16326
-2.24214
-2.32178
-2.40217
-2.4833
-2.56517
-2.64777
-2.7311
-2.81515
-2.89993
-2.98542
-3.07163
-3.15854
-3.24616
-3.33449
-3.42352
-3.51325
-3.60368
-3.69482
-3.78666
-3.87921
-3.97247
-4.06645
-4.16115
-4.25657
-4.35274
-4.44965
-4.54732
-4.64576
-4.74497
-4.84498
-4.9458
-5.04745
-5.14993
-5.25327
-5.35749
-5.46259
-5.56859
-5.67551
)
;
    }
    lowerWall
    {
        type            calculated;
        value           nonuniform 0();
    }
    atmosphere
    {
        type            calculated;
        value           nonuniform List<scalar> 
45
(
-5.72904
-5.72904
-5.72904
-5.72904
-5.72904
-5.72904
-5.72904
-5.72904
-5.72904
-5.72904
-5.72904
-5.72904
-5.72904
-5.72904
-5.72904
-5.72904
-5.72904
-5.72904
-5.72904
-5.72904
-5.72904
-5.72904
-5.72904
-5.72904
-5.72904
-5.72904
-5.72904
-5.72904
-5.72904
-5.72904
-5.72904
-5.72904
-5.72904
-5.72904
-5.72904
-5.72904
-5.72904
-5.72904
-5.72904
-5.72904
-5.72904
-5.72904
-5.72904
-5.72904
-5.72904
)
;
    }
    defaultFaces
    {
        type            empty;
    }
    procBoundary3to1
    {
        type            processor;
        value           nonuniform List<scalar> 
45
(
-1.77246
-1.76747
-1.76315
-1.75937
-1.75607
-1.75311
-1.7506
-1.74864
-1.74721
-1.7463
-1.74586
-1.74585
-1.74621
-1.74689
-1.74783
-1.74898
-1.75029
-1.75173
-1.75327
-1.75488
-1.75656
-1.75827
-1.76002
-1.7618
-1.76358
-1.76535
-1.7671
-1.76882
-1.77047
-1.77206
-1.77356
-1.77496
-1.77624
-1.7774
-1.77843
-1.7793
-1.78002
-1.78057
-1.78096
-1.78118
-1.78125
-1.78118
-1.78098
-1.78065
-1.78032
)
;
    }
    procBoundary3to2
    {
        type            processor;
        value           nonuniform List<scalar> 
43
(
-1.87616
-1.97381
-2.07118
-2.16821
-2.26484
-2.36101
-2.45664
-2.55167
-2.64607
-2.7398
-2.83284
-2.92521
-3.01692
-3.108
-3.1985
-3.28847
-3.37797
-3.46706
-3.55579
-3.64423
-3.73243
-3.82045
-3.90832
-3.9961
-4.0838
-4.17147
-4.25911
-4.34675
-4.43442
-4.52213
-4.60992
-4.69781
-4.78583
-4.87402
-4.96239
-5.051
-5.13986
-5.22902
-5.31853
-5.40846
-5.49892
-5.59003
-5.68224
)
;
    }
}


// ************************************************************************* //
