/*--------------------------------*- C++ -*----------------------------------*\
  =========                 |
  \\      /  F ield         | OpenFOAM: The Open Source CFD Toolbox
   \\    /   O peration     | Website:  https://openfoam.org
    \\  /    A nd           | Version:  7
     \\/     M anipulation  |
\*---------------------------------------------------------------------------*/
FoamFile
{
    version     2.0;
    format      ascii;
    class       volScalarField;
    location    "0.005";
    object      iDof;
}
// * * * * * * * * * * * * * * * * * * * * * * * * * * * * * * * * * * * * * //

dimensions      [0 -3 0 0 0 0 0];

internalField   nonuniform List<scalar> 
250
(
1.662e+20
1.803e+20
1.776e+20
1.68e+20
1.683e+20
1.575e+20
1.668e+20
1.761e+20
1.707e+20
1.584e+20
1.596e+20
1.659e+20
1.695e+20
1.635e+20
1.743e+20
1.659e+20
1.644e+20
1.62e+20
1.701e+20
1.815e+20
1.743e+20
1.797e+20
1.866e+20
1.812e+20
1.629e+20
1.626e+20
1.698e+20
1.785e+20
1.656e+20
1.716e+20
1.752e+20
1.749e+20
1.791e+20
1.848e+20
1.671e+20
1.587e+20
1.719e+20
1.698e+20
1.677e+20
1.689e+20
1.665e+20
1.782e+20
1.659e+20
1.629e+20
1.692e+20
1.665e+20
1.62e+20
1.635e+20
1.665e+20
1.758e+20
1.737e+20
1.722e+20
1.752e+20
1.746e+20
1.821e+20
1.728e+20
1.761e+20
1.656e+20
1.665e+20
1.686e+20
1.74e+20
1.698e+20
1.83e+20
1.815e+20
1.623e+20
1.791e+20
1.68e+20
1.818e+20
1.599e+20
1.776e+20
1.773e+20
1.791e+20
1.749e+20
1.743e+20
1.725e+20
1.77e+20
1.728e+20
1.719e+20
1.83e+20
1.734e+20
1.671e+20
1.848e+20
1.758e+20
1.641e+20
1.665e+20
1.776e+20
1.767e+20
1.656e+20
1.785e+20
1.668e+20
1.587e+20
1.662e+20
1.614e+20
1.809e+20
1.776e+20
1.692e+20
1.776e+20
1.689e+20
1.68e+20
1.719e+20
1.704e+20
1.689e+20
1.641e+20
1.824e+20
1.767e+20
1.773e+20
1.839e+20
1.785e+20
1.719e+20
1.755e+20
1.746e+20
1.776e+20
1.653e+20
1.557e+20
1.776e+20
1.764e+20
1.731e+20
1.731e+20
1.737e+20
1.71e+20
1.719e+20
1.641e+20
1.683e+20
1.689e+20
1.71e+20
1.809e+20
1.698e+20
1.638e+20
1.71e+20
1.704e+20
1.548e+20
1.689e+20
1.683e+20
1.749e+20
1.737e+20
1.68e+20
1.755e+20
1.707e+20
1.686e+20
1.704e+20
1.785e+20
1.647e+20
1.722e+20
1.74e+20
1.815e+20
1.689e+20
1.788e+20
1.863e+20
1.734e+20
1.833e+20
1.86e+20
1.803e+20
1.605e+20
1.659e+20
1.743e+20
1.713e+20
1.713e+20
1.71e+20
1.677e+20
1.629e+20
1.71e+20
1.572e+20
1.707e+20
1.773e+20
1.656e+20
1.755e+20
1.71e+20
1.677e+20
1.695e+20
1.845e+20
1.707e+20
1.779e+20
1.611e+20
1.737e+20
1.752e+20
1.725e+20
1.713e+20
1.719e+20
1.566e+20
1.761e+20
1.686e+20
1.752e+20
1.737e+20
1.566e+20
1.728e+20
1.515e+20
1.71e+20
1.731e+20
1.635e+20
1.725e+20
1.746e+20
1.728e+20
1.821e+20
1.71e+20
1.779e+20
1.716e+20
1.677e+20
1.68e+20
1.716e+20
1.569e+20
1.746e+20
1.662e+20
1.677e+20
1.794e+20
1.605e+20
1.665e+20
1.716e+20
1.674e+20
1.674e+20
1.728e+20
1.731e+20
1.749e+20
1.731e+20
1.668e+20
1.701e+20
1.776e+20
1.575e+20
1.635e+20
1.557e+20
1.719e+20
1.755e+20
1.773e+20
1.875e+20
1.776e+20
1.737e+20
1.614e+20
1.665e+20
1.623e+20
1.68e+20
1.608e+20
1.824e+20
1.641e+20
1.617e+20
1.725e+20
1.692e+20
1.608e+20
1.797e+20
1.593e+20
1.71e+20
1.626e+20
1.761e+20
1.821e+20
1.764e+20
1.638e+20
1.779e+20
1.71e+20
1.734e+20
1.782e+20
1.812e+20
1.674e+20
)
;

boundaryField
{
    sides
    {
        type            symmetry;
    }
    empty
    {
        type            empty;
    }
    procBoundary0to1
    {
        type            processor;
        value           uniform 1.746e+20;
    }
}


// ************************************************************************* //
