/*--------------------------------*- C++ -*----------------------------------*\
  =========                 |
  \\      /  F ield         | OpenFOAM: The Open Source CFD Toolbox
   \\    /   O peration     | Website:  https://openfoam.org
    \\  /    A nd           | Version:  7
     \\/     M anipulation  |
\*---------------------------------------------------------------------------*/
FoamFile
{
    version     2.0;
    format      ascii;
    class       volScalarField;
    location    "0.00072";
    object      linearKE;
}
// * * * * * * * * * * * * * * * * * * * * * * * * * * * * * * * * * * * * * //

dimensions      [1 -1 -2 0 0 0 0];

internalField   nonuniform List<scalar> 
125
(
1764.75
1709.36
1667.28
1752.11
1890.03
1567.46
1673.49
1775.18
1523.27
1711.03
1769.05
1743.43
1485.76
1586.24
1638.99
1823.21
1859.87
1741.01
1430.38
1756.34
1522.22
1975.29
1796.27
1710.36
1695.22
1705.53
1871.43
1898.39
1547.35
1425.71
1786.8
1609.92
1817.73
1711.68
1588.46
1414.49
1689.84
1581.93
1737.77
1638.96
1668.55
1754.15
1538
1680.06
1743.79
1537.16
1780.14
1823.97
1862.54
1651.04
1814.17
1825.35
1605.01
1674.03
1728.88
1735.08
1725.38
1586.33
1748.31
1547.36
1893.61
1550.59
1749.77
1651.67
1675.72
1606.24
1838.02
1654.41
1700.28
1614.99
1835.71
1743.28
1590.09
1650.23
1691.84
1604.91
1567.09
2058.43
1675.15
1813.68
1667.26
1540.43
1509.75
1716.25
1668.76
1604.3
1943.48
1686.36
1755.76
1732.95
1417.68
1644.52
1627.62
1689.77
1722.84
1526.35
1128.39
1522.52
1517.9
1336.1
1324.81
1102.39
1327.61
1289.29
1143.9
1314.69
1060.14
1181.41
909.991
944.739
1019.37
946.892
856.66
813.435
1041.91
934.151
876.578
915.22
753.971
851.666
819.068
638.023
818.257
844.97
768.558
)
;

boundaryField
{
    sides
    {
        type            symmetry;
    }
    empty
    {
        type            empty;
    }
    procBoundary1to0
    {
        type            processor;
        value           uniform 2066.63;
    }
    procBoundary1to2
    {
        type            processor;
        value           uniform 763.325;
    }
}


// ************************************************************************* //
