/*--------------------------------*- C++ -*----------------------------------*\
  =========                 |
  \\      /  F ield         | OpenFOAM: The Open Source CFD Toolbox
   \\    /   O peration     | Website:  https://openfoam.org
    \\  /    A nd           | Version:  7
     \\/     M anipulation  |
\*---------------------------------------------------------------------------*/
FoamFile
{
    version     2.0;
    format      ascii;
    class       volScalarField;
    location    "0.00324";
    object      linearKE;
}
// * * * * * * * * * * * * * * * * * * * * * * * * * * * * * * * * * * * * * //

dimensions      [1 -1 -2 0 0 0 0];

internalField   nonuniform List<scalar> 
125
(
850.955
898.078
970.282
810.939
770.507
759.271
896.981
988.849
943.245
933.237
860.008
755.55
849.556
731.034
911.44
862.601
795.489
838.35
831.42
956.326
867.976
898.745
810.238
905.153
719.298
844.258
939.096
641.785
209.125
142.43
178.524
206.72
159.539
144.519
155.223
156.714
168.493
185.418
130.671
200.178
177.773
129.886
166.19
182.163
145.67
154.78
199.639
164.879
162.789
183.849
123.303
159.871
200.587
236.735
175.631
142.182
143.329
151.32
151.781
163.381
218.359
191.865
170.923
162.035
180.987
135.135
158.238
162.059
156.412
200.921
133.7
158.777
180.978
167.639
131.357
161.828
139.837
161.118
159.671
181.654
163.098
200.356
195.262
161.166
146.01
159.862
143.479
156.681
146.226
157.989
200.956
155.125
140.443
157.226
199.721
148.321
137.024
128.772
138.241
176.06
163.849
198.524
197.196
201.126
188.195
154.948
163.097
136.276
136.397
169.878
218.293
150.158
143.546
196.541
181.746
169.214
182.684
175.554
235.83
123.618
190.896
153.842
157.121
217.74
143.572
)
;

boundaryField
{
    sides
    {
        type            symmetry;
    }
    empty
    {
        type            empty;
    }
    procBoundary3to2
    {
        type            processor;
        value           uniform 964.55;
    }
}


// ************************************************************************* //
