/*--------------------------------*- C++ -*----------------------------------*\
  =========                 |
  \\      /  F ield         | OpenFOAM: The Open Source CFD Toolbox
   \\    /   O peration     | Website:  https://openfoam.org
    \\  /    A nd           | Version:  7
     \\/     M anipulation  |
\*---------------------------------------------------------------------------*/
FoamFile
{
    version     2.0;
    format      ascii;
    class       volScalarField;
    location    "0.00324";
    object      linearKE;
}
// * * * * * * * * * * * * * * * * * * * * * * * * * * * * * * * * * * * * * //

dimensions      [1 -1 -2 0 0 0 0];

internalField   nonuniform List<scalar> 
125
(
943.985
1010.11
976.822
836.682
792.359
879.587
807.982
985.348
982.88
836.96
818.024
725.353
790.447
888.913
910.79
869.21
946.321
725.661
795.575
748.07
836.83
838.264
828.747
935.872
743.602
821.487
1039.53
702.718
305.206
207.506
144.55
163.379
158.284
170.706
170.669
155.449
145.523
173.242
133.415
166.522
175.445
169.765
139.399
157.642
219.256
138.509
235.396
157.774
186.403
168.232
217.688
144.797
214.359
149.549
189.702
161.881
190.904
182.039
185.44
173.37
159.747
136.615
188.108
119.381
136.53
200.892
138.768
165.34
158.509
144.984
161.297
150.889
161.705
145.628
171.467
161.398
180.044
150.021
182.191
177.841
164.15
159.794
173.345
174.132
198.721
130.701
211.291
171.205
169.282
181.034
118.967
162.412
131.197
188.037
173.094
156.893
159.792
182.605
143.682
154.803
199.149
150.106
149.146
151.838
163.422
176.984
139.072
169.714
170.681
192.811
165.864
138.717
176.282
142.798
184.98
171.179
119.641
175.218
180.477
180.572
167.309
166.033
155.504
191.374
170.339
)
;

boundaryField
{
    sides
    {
        type            symmetry;
    }
    empty
    {
        type            empty;
    }
    procBoundary3to2
    {
        type            processor;
        value           uniform 927.988;
    }
}


// ************************************************************************* //
